<event>
 4    1  0.2878104E-007  0.1321221E+04  0.7818608E-02  0.9047447E-01
          2   -1    0    0  501    0  0.00000000000E+00  0.00000000000E+00  0.30371939637E+04  0.30371939637E+04  0.25500000000E-02 0. -1.
         -2   -1    0    0    0  501 -0.00000000000E+00 -0.00000000000E+00 -0.80611058662E+03  0.80611058663E+03  0.25500000000E-02 0.  1.
    8880023    1    1    2    0    0 -0.80280627988E+03 -0.81689501101E+03 -0.10674778705E+02  0.13212643714E+04  0.65864270000E+03 0.  0.
    8880022    1    1    2    0    0  0.80280627988E+03  0.81689501101E+03  0.22417581558E+04  0.25220401789E+04  0.15294330000E+03 0.  0.
<mgrwt>
<rscale>  0 0.12776892E+04</rscale>
<asrwt>0</asrwt>
<pdfrwt beam="1">  1        2 0.46726061E+00 0.13212212E+04</pdfrwt>
<pdfrwt beam="2">  1       -2 0.12401701E+00 0.13212212E+04</pdfrwt>
<totfact> 0.78459483E-01</totfact>
</mgrwt>
</event>
<event>
 4    1  0.2878104E-007  0.9268621E+03  0.7818608E-02  0.9484217E-01
          2   -1    0    0  501    0  0.00000000000E+00  0.00000000000E+00  0.12772197249E+04  0.12772197249E+04  0.25500000000E-02 0. -1.
         -2   -1    0    0    0  501 -0.00000000000E+00 -0.00000000000E+00 -0.10375036335E+04  0.10375036335E+04  0.25500000000E-02 0.  1.
    8880023    1    1    2    0    0 -0.61033694289E+03  0.22967798696E+03 -0.69945293996E+03  0.11611665613E+04  0.65864270000E+03 0.  1.
    8880022    1    1    2    0    0  0.61033694289E+03 -0.22967798696E+03  0.93916903135E+03  0.11535567970E+04  0.15294330000E+03 0.  0.
<mgrwt>
<rscale>  0 0.85457540E+03</rscale>
<asrwt>0</asrwt>
<pdfrwt beam="1">  1        2 0.19649534E+00 0.92686211E+03</pdfrwt>
<pdfrwt beam="2">  1       -2 0.15961594E+00 0.92686211E+03</pdfrwt>
<totfact> 0.43210718E+00</totfact>
</mgrwt>
</event>
<event>
 4    1  0.2878104E-007  0.6814882E+03  0.7818608E-02  0.1008494E+00
          2   -1    0    0  501    0  0.00000000000E+00  0.00000000000E+00  0.31669521747E+03  0.31669521748E+03  0.25500000000E-02 0. -1.
         -2   -1    0    0    0  501 -0.00000000000E+00 -0.00000000000E+00 -0.19204594362E+04  0.19204594362E+04  0.25500000000E-02 0.  1.
    8880023    1    1    2    0    0  0.17207459734E+03 -0.31722931747E+02 -0.18052357526E+04  0.19295860541E+04  0.65864270000E+03 0.  1.
    8880022    1    1    2    0    0 -0.17207459734E+03  0.31722931747E+02  0.20147153390E+03  0.30756859956E+03  0.15294330000E+03 0.  0.
<mgrwt>
<rscale>  0 0.52077568E+03</rscale>
<asrwt>0</asrwt>
<pdfrwt beam="1">  1        2 0.48722342E-01 0.68148824E+03</pdfrwt>
<pdfrwt beam="2">  1       -2 0.29545529E+00 0.68148824E+03</pdfrwt>
<totfact> 0.36731796E+00</totfact>
</mgrwt>
</event>
<event>
 4    1  0.2878104E-007  0.7531995E+03  0.7818608E-02  0.9823042E-01
         -2   -1    0    0    0  501 -0.00000000000E+00  0.00000000000E+00  0.60232623496E+03  0.60232623497E+03  0.25500000000E-02 0.  1.
          2   -1    0    0  501    0  0.00000000000E+00 -0.00000000000E+00 -0.91240636469E+03  0.91240636469E+03  0.25500000000E-02 0. -1.
    8880023    1    1    2    0    0  0.29686310850E+03 -0.21300617068E+03  0.28040571113E+03  0.80370199890E+03  0.65864270000E+03 0.  1.
    8880022    1    1    2    0    0 -0.29686310850E+03  0.21300617068E+03 -0.59048584086E+03  0.71103060075E+03  0.15294330000E+03 0.  0.
<mgrwt>
<rscale>  0 0.64140491E+03</rscale>
<asrwt>0</asrwt>
<pdfrwt beam="1">  1        2 0.14037021E+00 0.75319954E+03</pdfrwt>
<pdfrwt beam="2">  1       -2 0.92665574E-01 0.75319954E+03</pdfrwt>
<totfact> 0.28831494E+01</totfact>
</mgrwt>
</event>
<event>
 4    1  0.2878104E-007  0.6606398E+03  0.7818608E-02  0.1023510E+00
          2   -1    0    0  501    0  0.00000000000E+00  0.00000000000E+00  0.18285463236E+03  0.18285463238E+03  0.25500000000E-02 0. -1.
         -2   -1    0    0    0  501 -0.00000000000E+00 -0.00000000000E+00 -0.12134396423E+04  0.12134396423E+04  0.25500000000E-02 0.  1.
    8880023    1    1    2    0    0 -0.19397297678E+01  0.51293618492E+02 -0.10428557142E+04  0.12345011319E+04  0.65864270000E+03 0.  1.
    8880022    1    1    2    0    0  0.19397297678E+01 -0.51293618492E+02  0.12270704232E+02  0.16179314277E+03  0.15294330000E+03 0.  0.
<mgrwt>
<rscale>  0 0.46440880E+03</rscale>
<asrwt>0</asrwt>
<pdfrwt beam="1">  1        2 0.28131483E-01 0.66063984E+03</pdfrwt>
<pdfrwt beam="2">  1       -2 0.18668302E+00 0.66063984E+03</pdfrwt>
<totfact> 0.31900584E+01</totfact>
</mgrwt>
</event>
<event>
 4    1  0.2878104E-007  0.1107732E+04  0.7818608E-02  0.9252496E-01
          2   -1    0    0  501    0  0.00000000000E+00  0.00000000000E+00  0.14385544044E+04  0.14385544044E+04  0.25500000000E-02 0. -1.
         -2   -1    0    0    0  501 -0.00000000000E+00 -0.00000000000E+00 -0.75467313116E+03  0.75467313116E+03  0.25500000000E-02 0.  1.
    8880023    1    1    2    0    0 -0.49582886940E+03 -0.73987426851E+03  0.65954303053E+03  0.12892119362E+04  0.65864270000E+03 0.  0.
    8880022    1    1    2    0    0  0.49582886940E+03  0.73987426851E+03  0.24338242728E+02  0.90401559943E+03  0.15294330000E+03 0.  0.
<mgrwt>
<rscale>  0 0.10527632E+04</rscale>
<asrwt>0</asrwt>
<pdfrwt beam="1">  1        2 0.22131606E+00 0.11077321E+04</pdfrwt>
<pdfrwt beam="2">  1       -2 0.11610356E+00 0.11077321E+04</pdfrwt>
<totfact> 0.77930186E+00</totfact>
</mgrwt>
</event>
<event>
 4    1  0.2878104E-007  0.7012219E+03  0.7818608E-02  0.9992169E-01
          2   -1    0    0  501    0  0.00000000000E+00  0.00000000000E+00  0.20821257632E+04  0.20821257632E+04  0.25500000000E-02 0. -1.
         -2   -1    0    0    0  501 -0.00000000000E+00 -0.00000000000E+00 -0.11343835412E+04  0.11343835412E+04  0.25500000000E-02 0.  1.
    8880023    1    1    2    0    0  0.13832154152E+03  0.19689874373E+03 -0.10147229124E+04  0.12334402131E+04  0.65864270000E+03 0.  1.
    8880022    1    1    2    0    0 -0.13832154152E+03 -0.19689874373E+03  0.19624651344E+04  0.19830690913E+04  0.15294330000E+03 0.  0.
<mgrwt>
<rscale>  0 0.55994925E+03</rscale>
<asrwt>0</asrwt>
<pdfrwt beam="1">  1        2 0.32032704E+00 0.70122191E+03</pdfrwt>
<pdfrwt beam="2">  1       -2 0.17452055E+00 0.70122191E+03</pdfrwt>
<totfact> 0.12536911E+00</totfact>
</mgrwt>
</event>
<event>
 4    1  0.2878104E-007  0.1025660E+04  0.7818608E-02  0.9348731E-01
         -2   -1    0    0    0  501 -0.00000000000E+00  0.00000000000E+00  0.12273514555E+04  0.12273514555E+04  0.25500000000E-02 0.  1.
          2   -1    0    0  501    0  0.00000000000E+00 -0.00000000000E+00 -0.89259675092E+03  0.89259675093E+03  0.25500000000E-02 0. -1.
    8880023    1    1    2    0    0  0.78589855192E+03  0.23050935313E+02  0.69781358008E+03  0.12405329009E+04  0.65864270000E+03 0.  0.
    8880022    1    1    2    0    0 -0.78589855192E+03 -0.23050935313E+02 -0.36305887546E+03  0.87941530552E+03  0.15294330000E+03 0.  0.
<mgrwt>
<rscale>  0 0.96417781E+03</rscale>
<asrwt>0</asrwt>
<pdfrwt beam="1">  1        2 0.13732258E+00 0.10256598E+04</pdfrwt>
<pdfrwt beam="2">  1       -2 0.18882330E+00 0.10256598E+04</pdfrwt>
<totfact> 0.46325600E+00</totfact>
</mgrwt>
</event>
<event>
 4    1  0.2878104E-007  0.8135970E+03  0.7818608E-02  0.9682133E-01
          2   -1    0    0  501    0  0.00000000000E+00  0.00000000000E+00  0.11515095653E+04  0.11515095653E+04  0.25500000000E-02 0. -1.
         -2   -1    0    0    0  501 -0.00000000000E+00 -0.00000000000E+00 -0.45596588436E+03  0.45596588437E+03  0.25500000000E-02 0.  1.
    8880023    1    1    2    0    0 -0.46302571434E+03 -0.11720520507E+03  0.85998280066E+02  0.81812944127E+03  0.65864270000E+03 0.  1.
    8880022    1    1    2    0    0  0.46302571434E+03  0.11720520507E+03  0.60954540088E+03  0.78934600841E+03  0.15294330000E+03 0.  0.
<mgrwt>
<rscale>  0 0.72090643E+03</rscale>
<asrwt>0</asrwt>
<pdfrwt beam="1">  1        2 0.17715532E+00 0.81359700E+03</pdfrwt>
<pdfrwt beam="2">  1       -2 0.70148598E-01 0.81359700E+03</pdfrwt>
<totfact> 0.37922632E+01</totfact>
</mgrwt>
</event>
<event>
 4    1  0.2878104E-007  0.9352175E+03  0.7818608E-02  0.9471710E-01
         -2   -1    0    0    0  501 -0.00000000000E+00  0.00000000000E+00  0.39408560282E+03  0.39408560283E+03  0.25500000000E-02 0.  1.
          2   -1    0    0  501    0  0.00000000000E+00 -0.00000000000E+00 -0.16934131538E+04  0.16934131538E+04  0.25500000000E-02 0. -1.
    8880023    1    1    2    0    0  0.47033631087E+03  0.46862062503E+03 -0.89911155507E+03  0.12973177445E+04  0.65864270000E+03 0.  0.
    8880022    1    1    2    0    0 -0.47033631087E+03 -0.46862062503E+03 -0.40021599592E+03  0.79018101213E+03  0.15294330000E+03 0.  0.
<mgrwt>
<rscale>  0 0.86402070E+03</rscale>
<asrwt>0</asrwt>
<pdfrwt beam="1">  1        2 0.26052510E+00 0.93521748E+03</pdfrwt>
<pdfrwt beam="2">  1       -2 0.60628556E-01 0.93521748E+03</pdfrwt>
<totfact> 0.25213352E+01</totfact>
</mgrwt>
</event>
<event>
 4    1  0.2878104E-007  0.7360559E+03  0.7818608E-02  0.9871589E-01
          2   -1    0    0  501    0  0.00000000000E+00  0.00000000000E+00  0.13554511862E+04  0.13554511862E+04  0.25500000000E-02 0. -1.
         -2   -1    0    0    0  501 -0.00000000000E+00 -0.00000000000E+00 -0.61237853382E+03  0.61237853383E+03  0.25500000000E-02 0.  1.
    8880023    1    1    2    0    0 -0.24748489195E+03 -0.21614645527E+03 -0.35087272426E+03  0.81540783462E+03  0.65864270000E+03 0.  1.
    8880022    1    1    2    0    0  0.24748489195E+03  0.21614645527E+03  0.10939453767E+04  0.11524218854E+04  0.15294330000E+03 0.  0.
<mgrwt>
<rscale>  0 0.61658204E+03</rscale>
<asrwt>0</asrwt>
<pdfrwt beam="1">  1        2 0.20853095E+00 0.73605589E+03</pdfrwt>
<pdfrwt beam="2">  1       -2 0.94212082E-01 0.73605589E+03</pdfrwt>
<totfact> 0.14931090E+01</totfact>
</mgrwt>
</event>
<event>
 4    1  0.2878104E-007  0.1304911E+04  0.7818608E-02  0.9061331E-01
         -2   -1    0    0    0  501 -0.00000000000E+00  0.00000000000E+00  0.12589741747E+04  0.12589741747E+04  0.25500000000E-02 0.  1.
          2   -1    0    0  501    0  0.00000000000E+00 -0.00000000000E+00 -0.16207323290E+04  0.16207323290E+04  0.25500000000E-02 0. -1.
    8880023    1    1    2    0    0  0.53231687811E+03  0.99278400421E+03  0.55623230059E+03  0.14185153916E+04  0.65864270000E+03 0.  0.
    8880022    1    1    2    0    0 -0.53231687811E+03 -0.99278400421E+03 -0.91799045488E+03  0.14611911121E+04  0.15294330000E+03 0.  0.
<mgrwt>
<rscale>  0 0.12606921E+04</rscale>
<asrwt>0</asrwt>
<pdfrwt beam="1">  1        2 0.24934344E+00 0.13049106E+04</pdfrwt>
<pdfrwt beam="2">  1       -2 0.19368833E+00 0.13049106E+04</pdfrwt>
<totfact> 0.15252953E+00</totfact>
</mgrwt>
</event>
<event>
 4    1  0.3190437E-007  0.8291809E+03  0.7818608E-02  0.9650928E-01
         -2   -1    0    0    0  501 -0.00000000000E+00  0.00000000000E+00  0.13050997885E+04  0.13050997885E+04  0.25500000000E-02 0.  1.
          2   -1    0    0  501    0  0.00000000000E+00 -0.00000000000E+00 -0.27328637490E+04  0.27328637490E+04  0.25500000000E-02 0. -1.
    8880023    1    1    2    0    0  0.46870801465E+03 -0.18450905058E+03  0.11439876253E+04  0.14128866500E+04  0.65864270000E+03 0.  0.
    8880022    1    1    2    0    0 -0.46870801465E+03  0.18450905058E+03 -0.25717515858E+04  0.26250768874E+04  0.15294330000E+03 0.  0.
<mgrwt>
<rscale>  0 0.74015204E+03</rscale>
<asrwt>0</asrwt>
<pdfrwt beam="1">  1        2 0.42044058E+00 0.82918092E+03</pdfrwt>
<pdfrwt beam="2">  1       -2 0.20078458E+00 0.82918092E+03</pdfrwt>
<totfact> 0.34916287E-01</totfact>
</mgrwt>
</event>
<event>
 4    1  0.2878104E-007  0.9270918E+03  0.7818608E-02  0.9483870E-01
         -2   -1    0    0    0  501 -0.00000000000E+00  0.00000000000E+00  0.11590257152E+04  0.11590257152E+04  0.25500000000E-02 0.  1.
          2   -1    0    0  501    0  0.00000000000E+00 -0.00000000000E+00 -0.89627800751E+03  0.89627800752E+03  0.25500000000E-02 0. -1.
    8880023    1    1    2    0    0  0.64003316377E+03  0.12667533505E+03  0.77776165374E+03  0.12101291202E+04  0.65864270000E+03 0.  1.
    8880022    1    1    2    0    0 -0.64003316377E+03 -0.12667533505E+03 -0.51501394602E+03  0.84517460257E+03  0.15294330000E+03 0. -1.
<mgrwt>
<rscale>  0 0.85483565E+03</rscale>
<asrwt>0</asrwt>
<pdfrwt beam="1">  1        2 0.13788893E+00 0.92709185E+03</pdfrwt>
<pdfrwt beam="2">  1       -2 0.17831165E+00 0.92709185E+03</pdfrwt>
<totfact> 0.54880205E+00</totfact>
</mgrwt>
</event>
<event>
 4    1  0.2878104E-007  0.9983772E+03  0.7818608E-02  0.9383684E-01
          2   -1    0    0  501    0  0.00000000000E+00  0.00000000000E+00  0.11926943608E+04  0.11926943608E+04  0.25500000000E-02 0. -1.
         -2   -1    0    0    0  501 -0.00000000000E+00 -0.00000000000E+00 -0.11546319458E+04  0.11546319458E+04  0.25500000000E-02 0.  1.
    8880023    1    1    2    0    0  0.74035970035E+03  0.12171383728E+03 -0.74985991744E+03  0.12486179745E+04  0.65864270000E+03 0.  0.
    8880022    1    1    2    0    0 -0.74035970035E+03 -0.12171383728E+03  0.78792233249E+03  0.10987083322E+04  0.15294330000E+03 0.  0.
<mgrwt>
<rscale>  0 0.93430682E+03</rscale>
<asrwt>0</asrwt>
<pdfrwt beam="1">  1        2 0.18349144E+00 0.99837716E+03</pdfrwt>
<pdfrwt beam="2">  1       -2 0.17763568E+00 0.99837716E+03</pdfrwt>
<totfact> 0.35724406E+00</totfact>
</mgrwt>
</event>
<event>
 4    1  0.2878104E-007  0.1147433E+04  0.7818608E-02  0.9209997E-01
         -2   -1    0    0    0  501 -0.00000000000E+00  0.00000000000E+00  0.48180411691E+03  0.48180411692E+03  0.25500000000E-02 0.  1.
          2   -1    0    0  501    0  0.00000000000E+00 -0.00000000000E+00 -0.29322006288E+04  0.29322006288E+04  0.25500000000E-02 0. -1.
    8880023    1    1    2    0    0  0.19743629610E+03  0.91859171289E+03 -0.51610511999E+03  0.12581599768E+04  0.65864270000E+03 0.  1.
    8880022    1    1    2    0    0 -0.19743629610E+03 -0.91859171289E+03 -0.19342913919E+04  0.21558447689E+04  0.15294330000E+03 0.  0.
<mgrwt>
<rscale>  0 0.10950841E+04</rscale>
<asrwt>0</asrwt>
<pdfrwt beam="1">  1        2 0.45110778E+00 0.11474328E+04</pdfrwt>
<pdfrwt beam="2">  1       -2 0.74123712E-01 0.11474328E+04</pdfrwt>
<totfact> 0.31446798E+00</totfact>
</mgrwt>
</event>
<event>
 4    1  0.2878104E-007  0.8335053E+03  0.7818608E-02  0.9642550E-01
         -2   -1    0    0    0  501 -0.00000000000E+00  0.00000000000E+00  0.14857552467E+03  0.14857552469E+03  0.25500000000E-02 0.  1.
          2   -1    0    0  501    0  0.00000000000E+00 -0.00000000000E+00 -0.32610533383E+04  0.32610533383E+04  0.25500000000E-02 0. -1.
    8880023    1    1    2    0    0  0.22751546195E+03 -0.45733749339E+03 -0.15691115758E+04  0.17767504641E+04  0.65864270000E+03 0.  0.
    8880022    1    1    2    0    0 -0.22751546195E+03  0.45733749339E+03 -0.15433662378E+04  0.16328783988E+04  0.15294330000E+03 0.  0.
<mgrwt>
<rscale>  0 0.74542812E+03</rscale>
<asrwt>0</asrwt>
<pdfrwt beam="1">  1        2 0.50170046E+00 0.83350529E+03</pdfrwt>
<pdfrwt beam="2">  1       -2 0.22857775E-01 0.83350529E+03</pdfrwt>
<totfact> 0.20974521E+01</totfact>
</mgrwt>
</event>
<event>
 4    1  0.2878104E-007  0.7396090E+03  0.7818608E-02  0.9861088E-01
          2   -1    0    0  501    0  0.00000000000E+00  0.00000000000E+00  0.34310105036E+04  0.34310105036E+04  0.25500000000E-02 0. -1.
         -2   -1    0    0    0  501 -0.00000000000E+00 -0.00000000000E+00 -0.24814686570E+03  0.24814686572E+03  0.25500000000E-02 0.  1.
    8880023    1    1    2    0    0 -0.37613244068E+02 -0.33435981327E+03  0.34287648005E+03  0.81522127529E+03  0.65864270000E+03 0.  1.
    8880022    1    1    2    0    0  0.37613244068E+02  0.33435981327E+03  0.28399871578E+04  0.28639360940E+04  0.15294330000E+03 0.  0.
<mgrwt>
<rscale>  0 0.62184783E+03</rscale>
<asrwt>0</asrwt>
<pdfrwt beam="1">  1        2 0.52784777E+00 0.73960898E+03</pdfrwt>
<pdfrwt beam="2">  1       -2 0.38176441E-01 0.73960898E+03</pdfrwt>
<totfact> 0.63645306E+00</totfact>
</mgrwt>
</event>
<event>
 4    1  0.2878104E-007  0.1566232E+04  0.7818608E-02  0.8864230E-01
          2   -1    0    0  501    0  0.00000000000E+00  0.00000000000E+00  0.33887559427E+04  0.33887559427E+04  0.25500000000E-02 0. -1.
         -2   -1    0    0    0  501 -0.00000000000E+00 -0.00000000000E+00 -0.25127989891E+04  0.25127989891E+04  0.25500000000E-02 0.  1.
    8880023    1    1    2    0    0  0.53478068366E+03  0.13165412011E+04  0.29750223756E+04  0.33621182989E+04  0.65864270000E+03 0. -1.
    8880022    1    1    2    0    0 -0.53478068366E+03 -0.13165412011E+04 -0.20990654220E+04  0.25394366329E+04  0.15294330000E+03 0.  0.
<mgrwt>
<rscale>  0 0.15307933E+04</rscale>
<asrwt>0</asrwt>
<pdfrwt beam="1">  1        2 0.52134707E+00 0.15662316E+04</pdfrwt>
<pdfrwt beam="2">  1       -2 0.38658446E+00 0.15662316E+04</pdfrwt>
<totfact> 0.82489210E-03</totfact>
</mgrwt>
</event>
<event>
 4    1  0.2878104E-007  0.1173343E+04  0.7818608E-02  0.9183481E-01
         -2   -1    0    0    0  501 -0.00000000000E+00  0.00000000000E+00  0.20786035643E+04  0.20786035643E+04  0.25500000000E-02 0.  1.
          2   -1    0    0  501    0  0.00000000000E+00 -0.00000000000E+00 -0.11589747558E+04  0.11589747558E+04  0.25500000000E-02 0. -1.
    8880023    1    1    2    0    0  0.77135224755E+03  0.58986305691E+03  0.16416764423E+04  0.20178787038E+04  0.65864270000E+03 0.  0.
    8880022    1    1    2    0    0 -0.77135224755E+03 -0.58986305691E+03 -0.72204763377E+03  0.12196996164E+04  0.15294330000E+03 0.  0.
<mgrwt>
<rscale>  0 0.11225571E+04</rscale>
<asrwt>0</asrwt>
<pdfrwt beam="1">  1        2 0.17830381E+00 0.11733426E+04</pdfrwt>
<pdfrwt beam="2">  1       -2 0.31978516E+00 0.11733426E+04</pdfrwt>
<totfact> 0.47294355E-01</totfact>
</mgrwt>
</event>
<event>
 4    1  0.2878104E-007  0.7048566E+03  0.7818608E-02  0.9977621E-01
          2   -1    0    0  501    0  0.00000000000E+00  0.00000000000E+00  0.27425247324E+04  0.27425247324E+04  0.25500000000E-02 0. -1.
         -2   -1    0    0    0  501 -0.00000000000E+00 -0.00000000000E+00 -0.15144650402E+03  0.15144650404E+03  0.25500000000E-02 0.  1.
    8880023    1    1    2    0    0 -0.61760768954E+02  0.24330692608E+03  0.74868438808E+03  0.10282758249E+04  0.65864270000E+03 0.  1.
    8880022    1    1    2    0    0  0.61760768954E+02 -0.24330692608E+03  0.18423938403E+04  0.18656954115E+04  0.15294330000E+03 0.  0.
<mgrwt>
<rscale>  0 0.56642513E+03</rscale>
<asrwt>0</asrwt>
<pdfrwt beam="1">  1        2 0.42192691E+00 0.70485662E+03</pdfrwt>
<pdfrwt beam="2">  1       -2 0.23299461E-01 0.70485662E+03</pdfrwt>
<totfact> 0.43001024E+01</totfact>
</mgrwt>
</event>
<event>
 4    1  0.2878104E-007  0.7791190E+03  0.7818608E-02  0.9757911E-01
         -2   -1    0    0    0  501 -0.00000000000E+00  0.00000000000E+00  0.82606189070E+03  0.82606189071E+03  0.25500000000E-02 0.  1.
          2   -1    0    0  501    0  0.00000000000E+00 -0.00000000000E+00 -0.78467150401E+03  0.78467150401E+03  0.25500000000E-02 0. -1.
    8880023    1    1    2    0    0 -0.40049507901E+03  0.11322503635E+03  0.53659709581E+03  0.94602477064E+03  0.65864270000E+03 0.  1.
    8880022    1    1    2    0    0  0.40049507901E+03 -0.11322503635E+03 -0.49520670911E+03  0.66470862408E+03  0.15294330000E+03 0.  0.
<mgrwt>
<rscale>  0 0.67671057E+03</rscale>
<asrwt>0</asrwt>
<pdfrwt beam="1">  1        2 0.12071869E+00 0.77911900E+03</pdfrwt>
<pdfrwt beam="2">  1       -2 0.12708644E+00 0.77911900E+03</pdfrwt>
<totfact> 0.16447476E+01</totfact>
</mgrwt>
</event>
<event>
 4    1  0.2878104E-007  0.1235381E+04  0.7818608E-02  0.9123474E-01
         -2   -1    0    0    0  501 -0.00000000000E+00  0.00000000000E+00  0.51707168121E+03  0.51707168122E+03  0.25500000000E-02 0.  1.
          2   -1    0    0  501    0  0.00000000000E+00 -0.00000000000E+00 -0.32571506835E+04  0.32571506835E+04  0.25500000000E-02 0. -1.
    8880023    1    1    2    0    0  0.95543981996E+03  0.42366335628E+03 -0.56962155662E+03  0.13603803928E+04  0.65864270000E+03 0.  1.
    8880022    1    1    2    0    0 -0.95543981996E+03 -0.42366335628E+03 -0.21704574457E+04  0.24138419719E+04  0.15294330000E+03 0.  0.
<mgrwt>
<rscale>  0 0.11879452E+04</rscale>
<asrwt>0</asrwt>
<pdfrwt beam="1">  1        2 0.50110009E+00 0.12353810E+04</pdfrwt>
<pdfrwt beam="2">  1       -2 0.79549492E-01 0.12353810E+04</pdfrwt>
<totfact> 0.16544819E+00</totfact>
</mgrwt>
</event>
<event>
 4    1  0.2878104E-007  0.7055203E+03  0.7818608E-02  0.9975028E-01
         -2   -1    0    0    0  501 -0.00000000000E+00  0.00000000000E+00  0.74139639814E+03  0.74139639814E+03  0.25500000000E-02 0.  1.
          2   -1    0    0  501    0  0.00000000000E+00 -0.00000000000E+00 -0.15597909042E+04  0.15597909042E+04  0.25500000000E-02 0. -1.
    8880023    1    1    2    0    0  0.21221655839E+03 -0.13752402749E+03  0.55418567256E+03  0.89715143188E+03  0.65864270000E+03 0.  1.
    8880022    1    1    2    0    0 -0.21221655839E+03  0.13752402749E+03 -0.13725801786E+04  0.14040358705E+04  0.15294330000E+03 0.  0.
<mgrwt>
<rscale>  0 0.56758908E+03</rscale>
<asrwt>0</asrwt>
<pdfrwt beam="1">  1        2 0.23996783E+00 0.70552033E+03</pdfrwt>
<pdfrwt beam="2">  1       -2 0.11406099E+00 0.70552033E+03</pdfrwt>
<totfact> 0.72990132E+00</totfact>
</mgrwt>
</event>
<event>
 4    1  0.2878104E-007  0.7726201E+03  0.7818608E-02  0.9773467E-01
          2   -1    0    0  501    0  0.00000000000E+00  0.00000000000E+00  0.11423644126E+04  0.11423644126E+04  0.25500000000E-02 0. -1.
         -2   -1    0    0    0  501 -0.00000000000E+00 -0.00000000000E+00 -0.61807109255E+03  0.61807109256E+03  0.25500000000E-02 0.  1.
    8880023    1    1    2    0    0  0.20677507677E+03  0.34695198193E+03 -0.30082837380E+03  0.82911973013E+03  0.65864270000E+03 0.  1.
    8880022    1    1    2    0    0 -0.20677507677E+03 -0.34695198193E+03  0.82512169382E+03  0.93131577500E+03  0.15294330000E+03 0.  0.
<mgrwt>
<rscale>  0 0.66806101E+03</rscale>
<asrwt>0</asrwt>
<pdfrwt beam="1">  1        2 0.17574837E+00 0.77262010E+03</pdfrwt>
<pdfrwt beam="2">  1       -2 0.95087861E-01 0.77262010E+03</pdfrwt>
<totfact> 0.19386341E+01</totfact>
</mgrwt>
</event>
<event>
 4    1  0.2878104E-007  0.9333522E+03  0.7818608E-02  0.9474482E-01
          2   -1    0    0  501    0  0.00000000000E+00  0.00000000000E+00  0.17936393303E+04  0.17936393303E+04  0.25500000000E-02 0. -1.
         -2   -1    0    0    0  501 -0.00000000000E+00 -0.00000000000E+00 -0.12680577570E+04  0.12680577570E+04  0.25500000000E-02 0.  1.
    8880023    1    1    2    0    0  0.58917721479E+03  0.30034375281E+03 -0.10145824358E+04  0.13785948954E+04  0.65864270000E+03 0.  0.
    8880022    1    1    2    0    0 -0.58917721479E+03 -0.30034375281E+03  0.15401640092E+04  0.16831021919E+04  0.15294330000E+03 0.  0.
<mgrwt>
<rscale>  0 0.86191557E+03</rscale>
<asrwt>0</asrwt>
<pdfrwt beam="1">  1        2 0.27594451E+00 0.93335222E+03</pdfrwt>
<pdfrwt beam="2">  1       -2 0.19508581E+00 0.93335222E+03</pdfrwt>
<totfact> 0.12540662E+00</totfact>
</mgrwt>
</event>
<event>
 4    1  0.2878104E-007  0.6595768E+03  0.7818608E-02  0.1024594E+00
          2   -1    0    0  501    0  0.00000000000E+00  0.00000000000E+00  0.16895888612E+04  0.16895888612E+04  0.25500000000E-02 0. -1.
         -2   -1    0    0    0  501 -0.00000000000E+00 -0.00000000000E+00 -0.54364217774E+03  0.54364217775E+03  0.25500000000E-02 0.  1.
    8880023    1    1    2    0    0 -0.35072024755E+02 -0.11176217449E+01 -0.33791244234E+03  0.74109805084E+03  0.65864270000E+03 0.  1.
    8880022    1    1    2    0    0  0.35072024755E+02  0.11176217449E+01  0.14838591258E+04  0.14921329881E+04  0.15294330000E+03 0.  0.
<mgrwt>
<rscale>  0 0.46064516E+03</rscale>
<asrwt>0</asrwt>
<pdfrwt beam="1">  1        2 0.25993674E+00 0.65957676E+03</pdfrwt>
<pdfrwt beam="2">  1       -2 0.83637259E-01 0.65957676E+03</pdfrwt>
<totfact> 0.12944127E+01</totfact>
</mgrwt>
</event>
<event>
 4    1  0.2878104E-007  0.9454105E+03  0.7818608E-02  0.9456748E-01
         -2   -1    0    0    0  501 -0.00000000000E+00  0.00000000000E+00  0.16977573887E+04  0.16977573887E+04  0.25500000000E-02 0.  1.
          2   -1    0    0  501    0  0.00000000000E+00 -0.00000000000E+00 -0.15451895661E+04  0.15451895661E+04  0.25500000000E-02 0. -1.
    8880023    1    1    2    0    0  0.14598894680E+03  0.66232780323E+03  0.14732111841E+04  0.17504720194E+04  0.65864270000E+03 0.  1.
    8880022    1    1    2    0    0 -0.14598894680E+03 -0.66232780323E+03 -0.13206433615E+04  0.14924749354E+04  0.15294330000E+03 0. -1.
<mgrwt>
<rscale>  0 0.87549103E+03</rscale>
<asrwt>0</asrwt>
<pdfrwt beam="1">  1        2 0.23772147E+00 0.94541054E+03</pdfrwt>
<pdfrwt beam="2">  1       -2 0.26119344E+00 0.94541054E+03</pdfrwt>
<totfact> 0.66248103E-01</totfact>
</mgrwt>
</event>
<event>
 4    1  0.2878104E-007  0.7190872E+03  0.7818608E-02  0.9925687E-01
         -2   -1    0    0    0  501 -0.00000000000E+00  0.00000000000E+00  0.88774641536E+03  0.88774641536E+03  0.25500000000E-02 0.  1.
          2   -1    0    0  501    0  0.00000000000E+00 -0.00000000000E+00 -0.20489348718E+04  0.20489348718E+04  0.25500000000E-02 0. -1.
    8880023    1    1    2    0    0 -0.21776071146E+03  0.18935802569E+03  0.72576272417E+03  0.10216740808E+04  0.65864270000E+03 0.  0.
    8880022    1    1    2    0    0  0.21776071146E+03 -0.18935802569E+03 -0.18869511806E+04  0.19150072064E+04  0.15294330000E+03 0. -1.
<mgrwt>
<rscale>  0 0.59032389E+03</rscale>
<asrwt>0</asrwt>
<pdfrwt beam="1">  1        2 0.31522075E+00 0.71908720E+03</pdfrwt>
<pdfrwt beam="2">  1       -2 0.13657637E+00 0.71908720E+03</pdfrwt>
<totfact> 0.25094122E+00</totfact>
</mgrwt>
</event>
<event>
 4    1  0.2878104E-007  0.8704399E+03  0.7818608E-02  0.9575256E-01
          2   -1    0    0  501    0  0.00000000000E+00  0.00000000000E+00  0.29545184410E+04  0.29545184410E+04  0.25500000000E-02 0. -1.
         -2   -1    0    0    0  501 -0.00000000000E+00 -0.00000000000E+00 -0.58027261932E+03  0.58027261932E+03  0.25500000000E-02 0.  1.
    8880023    1    1    2    0    0  0.52880589815E+03 -0.21028489480E+03 -0.20069946981E+03  0.89327817523E+03  0.65864270000E+03 0.  1.
    8880022    1    1    2    0    0 -0.52880589815E+03  0.21028489480E+03  0.25749452915E+04  0.26415128851E+04  0.15294330000E+03 0.  0.
<mgrwt>
<rscale>  0 0.78955778E+03</rscale>
<asrwt>0</asrwt>
<pdfrwt beam="1">  1        2 0.45454130E+00 0.87043990E+03</pdfrwt>
<pdfrwt beam="2">  1       -2 0.89272711E-01 0.87043990E+03</pdfrwt>
<totfact> 0.20842692E+00</totfact>
</mgrwt>
</event>
<event>
 4    1  0.2878104E-007  0.9076139E+03  0.7818608E-02  0.9513918E-01
         -2   -1    0    0    0  501 -0.00000000000E+00  0.00000000000E+00  0.96667334614E+03  0.96667334615E+03  0.25500000000E-02 0.  1.
          2   -1    0    0  501    0  0.00000000000E+00 -0.00000000000E+00 -0.24892612407E+04  0.24892612407E+04  0.25500000000E-02 0. -1.
    8880023    1    1    2    0    0  0.16284545040E+03 -0.60285497948E+03  0.69747377451E+03  0.11446539387E+04  0.65864270000E+03 0.  1.
    8880022    1    1    2    0    0 -0.16284545040E+03  0.60285497948E+03 -0.22200616690E+04  0.23112806481E+04  0.15294330000E+03 0.  0.
<mgrwt>
<rscale>  0 0.83265455E+03</rscale>
<asrwt>0</asrwt>
<pdfrwt beam="1">  1        2 0.38296327E+00 0.90761389E+03</pdfrwt>
<pdfrwt beam="2">  1       -2 0.14871898E+00 0.90761389E+03</pdfrwt>
<totfact> 0.11050363E+00</totfact>
</mgrwt>
</event>
<event>
 4    1  0.2878104E-007  0.6847935E+03  0.7818608E-02  0.1006732E+00
          2   -1    0    0  501    0  0.00000000000E+00  0.00000000000E+00  0.12027915702E+04  0.12027915702E+04  0.25500000000E-02 0. -1.
         -2   -1    0    0    0  501 -0.00000000000E+00 -0.00000000000E+00 -0.26261629442E+03  0.26261629443E+03  0.25500000000E-02 0.  1.
    8880023    1    1    2    0    0  0.18728159577E+03  0.75847759920E+01  0.24165304360E+03  0.72618064191E+03  0.65864270000E+03 0. -1.
    8880022    1    1    2    0    0 -0.18728159577E+03 -0.75847759920E+01  0.69852223217E+03  0.73922722271E+03  0.15294330000E+03 0. -1.
<mgrwt>
<rscale>  0 0.52794184E+03</rscale>
<asrwt>0</asrwt>
<pdfrwt beam="1">  1        2 0.18504486E+00 0.68479350E+03</pdfrwt>
<pdfrwt beam="2">  1       -2 0.40402505E-01 0.68479350E+03</pdfrwt>
<totfact> 0.11161466E+02</totfact>
</mgrwt>
</event>
<event>
 4    1  0.2878104E-007  0.1218791E+04  0.7818608E-02  0.9139069E-01
          2   -1    0    0  501    0  0.00000000000E+00  0.00000000000E+00  0.27575805267E+04  0.27575805267E+04  0.25500000000E-02 0. -1.
         -2   -1    0    0    0  501 -0.00000000000E+00 -0.00000000000E+00 -0.95452726475E+03  0.95452726475E+03  0.25500000000E-02 0.  1.
    8880023    1    1    2    0    0 -0.77927590857E+03 -0.66661041313E+03 -0.39548139266E+03  0.12813493367E+04  0.65864270000E+03 0.  0.
    8880022    1    1    2    0    0  0.77927590857E+03  0.66661041313E+03  0.21985346547E+04  0.24307584547E+04  0.15294330000E+03 0.  0.
<mgrwt>
<rscale>  0 0.11705083E+04</rscale>
<asrwt>0</asrwt>
<pdfrwt beam="1">  1        2 0.42424316E+00 0.12187906E+04</pdfrwt>
<pdfrwt beam="2">  1       -2 0.14685035E+00 0.12187906E+04</pdfrwt>
<totfact> 0.76092765E-01</totfact>
</mgrwt>
</event>
<event>
 4    1  0.2878104E-007  0.8897600E+03  0.7818608E-02  0.9542674E-01
          2   -1    0    0  501    0  0.00000000000E+00  0.00000000000E+00  0.16312982847E+04  0.16312982847E+04  0.25500000000E-02 0. -1.
         -2   -1    0    0    0  501 -0.00000000000E+00 -0.00000000000E+00 -0.10978092568E+04  0.10978092568E+04  0.25500000000E-02 0.  1.
    8880023    1    1    2    0    0 -0.14643361791E+03  0.58001718377E+03 -0.83973678257E+03  0.12234503701E+04  0.65864270000E+03 0.  0.
    8880022    1    1    2    0    0  0.14643361791E+03 -0.58001718377E+03  0.13732258105E+04  0.15056571714E+04  0.15294330000E+03 0.  0.
<mgrwt>
<rscale>  0 0.81209443E+03</rscale>
<asrwt>0</asrwt>
<pdfrwt beam="1">  1        2 0.25096897E+00 0.88976005E+03</pdfrwt>
<pdfrwt beam="2">  1       -2 0.16889373E+00 0.88976005E+03</pdfrwt>
<totfact> 0.23445966E+00</totfact>
</mgrwt>
</event>
<event>
 4    1  0.2878104E-007  0.1990729E+04  0.7818608E-02  0.8623778E-01
         -2   -1    0    0    0  501 -0.00000000000E+00  0.00000000000E+00  0.18170132763E+04  0.18170132763E+04  0.25500000000E-02 0.  1.
          2   -1    0    0  501    0  0.00000000000E+00 -0.00000000000E+00 -0.27495306423E+04  0.27495306423E+04  0.25500000000E-02 0. -1.
    8880023    1    1    2    0    0 -0.13221317148E+04 -0.13346009162E+04  0.66180218827E+03  0.20978522873E+04  0.65864270000E+03 0.  0.
    8880022    1    1    2    0    0  0.13221317148E+04  0.13346009162E+04 -0.15943195543E+04  0.24686916314E+04  0.15294330000E+03 0.  0.
<mgrwt>
<rscale>  0 0.19637091E+04</rscale>
<asrwt>0</asrwt>
<pdfrwt beam="1">  1        2 0.42300471E+00 0.19907290E+04</pdfrwt>
<pdfrwt beam="2">  1       -2 0.27954051E+00 0.19907290E+04</pdfrwt>
<totfact> 0.93289332E-02</totfact>
</mgrwt>
</event>
<event>
 4    1  0.2878104E-007  0.8867565E+03  0.7818608E-02  0.9547635E-01
         -2   -1    0    0    0  501 -0.00000000000E+00  0.00000000000E+00  0.36806476015E+03  0.36806476016E+03  0.25500000000E-02 0.  1.
          2   -1    0    0  501    0  0.00000000000E+00 -0.00000000000E+00 -0.31403095562E+04  0.31403095562E+04  0.25500000000E-02 0. -1.
    8880023    1    1    2    0    0 -0.44893840506E+03  0.38856295365E+03 -0.26245734699E+03  0.92478155569E+03  0.65864270000E+03 0.  1.
    8880022    1    1    2    0    0  0.44893840506E+03 -0.38856295365E+03 -0.25097874491E+04  0.25835927607E+04  0.15294330000E+03 0.  0.
<mgrwt>
<rscale>  0 0.80861165E+03</rscale>
<asrwt>0</asrwt>
<pdfrwt beam="1">  1        2 0.48312453E+00 0.88675649E+03</pdfrwt>
<pdfrwt beam="2">  1       -2 0.56625350E-01 0.88675649E+03</pdfrwt>
<totfact> 0.43337339E+00</totfact>
</mgrwt>
</event>
<event>
 4    1  0.2878104E-007  0.9761301E+03  0.7818608E-02  0.9413475E-01
         -2   -1    0    0    0  501 -0.00000000000E+00  0.00000000000E+00  0.61409777903E+03  0.61409777904E+03  0.25500000000E-02 0.  1.
          2   -1    0    0  501    0  0.00000000000E+00 -0.00000000000E+00 -0.19098033064E+04  0.19098033064E+04  0.25500000000E-02 0. -1.
    8880023    1    1    2    0    0 -0.54643098685E+03  0.46950279973E+03  0.63281223830E+02  0.97817913590E+03  0.65864270000E+03 0.  0.
    8880022    1    1    2    0    0  0.54643098685E+03 -0.46950279973E+03 -0.13589867512E+04  0.15457219496E+04  0.15294330000E+03 0.  0.
<mgrwt>
<rscale>  0 0.90974958E+03</rscale>
<asrwt>0</asrwt>
<pdfrwt beam="1">  1        2 0.29381589E+00 0.97613007E+03</pdfrwt>
<pdfrwt beam="2">  1       -2 0.94476582E-01 0.97613007E+03</pdfrwt>
<totfact> 0.70982311E+00</totfact>
</mgrwt>
</event>
<event>
 4    1  0.2878104E-007  0.7526022E+03  0.7818608E-02  0.9824650E-01
         -2   -1    0    0    0  501 -0.00000000000E+00  0.00000000000E+00  0.23871160107E+03  0.23871160109E+03  0.25500000000E-02 0.  1.
          2   -1    0    0  501    0  0.00000000000E+00 -0.00000000000E+00 -0.29870728333E+04  0.29870728333E+04  0.25500000000E-02 0. -1.
    8880023    1    1    2    0    0 -0.28087718478E+03  0.23174951345E+03 -0.41540937680E+03  0.85963654326E+03  0.65864270000E+03 0.  1.
    8880022    1    1    2    0    0  0.28087718478E+03 -0.23174951345E+03 -0.23329518555E+04  0.23661478912E+04  0.15294330000E+03 0.  0.
<mgrwt>
<rscale>  0 0.64056280E+03</rscale>
<asrwt>0</asrwt>
<pdfrwt beam="1">  1        2 0.45954964E+00 0.75260218E+03</pdfrwt>
<pdfrwt beam="2">  1       -2 0.36724864E-01 0.75260218E+03</pdfrwt>
<totfact> 0.13141853E+01</totfact>
</mgrwt>
</event>
<event>
 4    1  0.2878104E-007  0.1244744E+04  0.7818608E-02  0.9114810E-01
          2   -1    0    0  501    0  0.00000000000E+00  0.00000000000E+00  0.13413705083E+04  0.13413705083E+04  0.25500000000E-02 0. -1.
         -2   -1    0    0    0  501 -0.00000000000E+00 -0.00000000000E+00 -0.21475731856E+04  0.21475731856E+04  0.25500000000E-02 0.  1.
    8880023    1    1    2    0    0  0.82955714131E+03 -0.65376729062E+03 -0.16930154873E+04  0.21013539368E+04  0.65864270000E+03 0.  0.
    8880022    1    1    2    0    0 -0.82955714131E+03  0.65376729062E+03  0.88681281001E+03  0.13875897571E+04  0.15294330000E+03 0.  0.
<mgrwt>
<rscale>  0 0.11977713E+04</rscale>
<asrwt>0</asrwt>
<pdfrwt beam="1">  1        2 0.20636469E+00 0.12447437E+04</pdfrwt>
<pdfrwt beam="2">  1       -2 0.33039587E+00 0.12447437E+04</pdfrwt>
<totfact> 0.31406850E-01</totfact>
</mgrwt>
</event>
<event>
 4    1  0.2878104E-007  0.6906115E+03  0.7818608E-02  0.1003863E+00
         -2   -1    0    0    0  501 -0.00000000000E+00  0.00000000000E+00  0.39873032920E+03  0.39873032921E+03  0.25500000000E-02 0.  1.
          2   -1    0    0  501    0  0.00000000000E+00 -0.00000000000E+00 -0.22282255926E+04  0.22282255926E+04  0.25500000000E-02 0. -1.
    8880023    1    1    2    0    0  0.86003824830E+02 -0.18904344637E+03  0.84408529556E+02  0.69575073742E+03  0.65864270000E+03 0.  1.
    8880022    1    1    2    0    0 -0.86003824830E+02  0.18904344637E+03 -0.19139037930E+04  0.19312051844E+04  0.15294330000E+03 0.  0.
<mgrwt>
<rscale>  0 0.53988229E+03</rscale>
<asrwt>0</asrwt>
<pdfrwt beam="1">  1        2 0.34280393E+00 0.69061153E+03</pdfrwt>
<pdfrwt beam="2">  1       -2 0.61343129E-01 0.69061153E+03</pdfrwt>
<totfact> 0.12923759E+01</totfact>
</mgrwt>
</event>
<event>
 4    1  0.2878104E-007  0.8920399E+03  0.7818608E-02  0.9538933E-01
          2   -1    0    0  501    0  0.00000000000E+00  0.00000000000E+00  0.25752316095E+04  0.25752316095E+04  0.25500000000E-02 0. -1.
         -2   -1    0    0    0  501 -0.00000000000E+00 -0.00000000000E+00 -0.49642785312E+03  0.49642785312E+03  0.25500000000E-02 0.  1.
    8880023    1    1    2    0    0 -0.51816268368E+03 -0.30566706864E+03 -0.10491827708E+02  0.89210156839E+03  0.65864270000E+03 0.  0.
    8880022    1    1    2    0    0  0.51816268368E+03  0.30566706864E+03  0.20892955841E+04  0.21795578942E+04  0.15294330000E+03 0.  0.
<mgrwt>
<rscale>  0 0.81473319E+03</rscale>
<asrwt>0</asrwt>
<pdfrwt beam="1">  1        2 0.39618949E+00 0.89203987E+03</pdfrwt>
<pdfrwt beam="2">  1       -2 0.76373515E-01 0.89203987E+03</pdfrwt>
<totfact> 0.49596027E+00</totfact>
</mgrwt>
</event>
<event>
 4    1  0.2878104E-007  0.7025688E+03  0.7818608E-02  0.9986707E-01
          2   -1    0    0  501    0  0.00000000000E+00  0.00000000000E+00  0.18609192499E+04  0.18609192499E+04  0.25500000000E-02 0. -1.
         -2   -1    0    0    0  501 -0.00000000000E+00 -0.00000000000E+00 -0.20225144558E+03  0.20225144560E+03  0.25500000000E-02 0.  1.
    8880023    1    1    2    0    0  0.13855502906E+03  0.20148264150E+03  0.48284526289E+03  0.85249193841E+03  0.65864270000E+03 0.  1.
    8880022    1    1    2    0    0 -0.13855502906E+03 -0.20148264150E+03  0.11758225414E+04  0.12106787571E+04  0.15294330000E+03 0.  0.
<mgrwt>
<rscale>  0 0.56236968E+03</rscale>
<asrwt>0</asrwt>
<pdfrwt beam="1">  1        2 0.28629527E+00 0.70256883E+03</pdfrwt>
<pdfrwt beam="2">  1       -2 0.31115607E-01 0.70256883E+03</pdfrwt>
<totfact> 0.78739987E+01</totfact>
</mgrwt>
</event>
<event>
 4    1  0.2878104E-007  0.7890233E+03  0.7818608E-02  0.9735053E-01
         -2   -1    0    0    0  501 -0.00000000000E+00  0.00000000000E+00  0.17051253587E+04  0.17051253587E+04  0.25500000000E-02 0.  1.
          2   -1    0    0  501    0  0.00000000000E+00 -0.00000000000E+00 -0.20215270730E+04  0.20215270730E+04  0.25500000000E-02 0. -1.
    8880023    1    1    2    0    0 -0.40835826361E+03 -0.14829407430E+03  0.15848549271E+04  0.17704019177E+04  0.65864270000E+03 0.  1.
    8880022    1    1    2    0    0  0.40835826361E+03  0.14829407430E+03 -0.19012566415E+04  0.19562505140E+04  0.15294330000E+03 0.  0.
<mgrwt>
<rscale>  0 0.68967584E+03</rscale>
<asrwt>0</asrwt>
<pdfrwt beam="1">  1        2 0.31100416E+00 0.78902333E+03</pdfrwt>
<pdfrwt beam="2">  1       -2 0.26232698E+00 0.78902333E+03</pdfrwt>
<totfact> 0.36774915E-01</totfact>
</mgrwt>
</event>
<event>
 4    1  0.2878104E-007  0.6739239E+03  0.7818608E-02  0.1012993E+00
          2   -1    0    0  501    0  0.00000000000E+00  0.00000000000E+00  0.58931190772E+03  0.58931190772E+03  0.25500000000E-02 0. -1.
         -2   -1    0    0    0  501 -0.00000000000E+00 -0.00000000000E+00 -0.51599073894E+03  0.51599073895E+03  0.25500000000E-02 0.  1.
    8880023    1    1    2    0    0 -0.14664867186E+02 -0.14194437715E+03 -0.25119155816E+03  0.71921531525E+03  0.65864270000E+03 0.  1.
    8880022    1    1    2    0    0  0.14664867186E+02  0.14194437715E+03  0.32451272693E+03  0.38608733142E+03  0.15294330000E+03 0.  0.
<mgrwt>
<rscale>  0 0.50302147E+03</rscale>
<asrwt>0</asrwt>
<pdfrwt beam="1">  1        2 0.90663370E-01 0.67392394E+03</pdfrwt>
<pdfrwt beam="2">  1       -2 0.79383191E-01 0.67392394E+03</pdfrwt>
<totfact> 0.72505698E+01</totfact>
</mgrwt>
</event>
<event>
 4    1  0.2878104E-007  0.8273305E+03  0.7818608E-02  0.9654549E-01
          2   -1    0    0  501    0  0.00000000000E+00  0.00000000000E+00  0.24746427519E+04  0.24746427519E+04  0.25500000000E-02 0. -1.
         -2   -1    0    0    0  501 -0.00000000000E+00 -0.00000000000E+00 -0.47745560210E+03  0.47745560211E+03  0.25500000000E-02 0.  1.
    8880023    1    1    2    0    0  0.41384067334E+03  0.28178266167E+03 -0.59849224179E+02  0.82949243952E+03  0.65864270000E+03 0.  1.
    8880022    1    1    2    0    0 -0.41384067334E+03 -0.28178266167E+03  0.20570363740E+04  0.21226059145E+04  0.15294330000E+03 0.  0.
<mgrwt>
<rscale>  0 0.73788629E+03</rscale>
<asrwt>0</asrwt>
<pdfrwt beam="1">  1        2 0.38071426E+00 0.82733051E+03</pdfrwt>
<pdfrwt beam="2">  1       -2 0.73454710E-01 0.82733051E+03</pdfrwt>
<totfact> 0.62345560E+00</totfact>
</mgrwt>
</event>
<event>
 4    1  0.2878104E-007  0.8065666E+03  0.7818608E-02  0.9696773E-01
         -2   -1    0    0    0  501 -0.00000000000E+00  0.00000000000E+00  0.17965147922E+03  0.17965147924E+03  0.25500000000E-02 0.  1.
          2   -1    0    0  501    0  0.00000000000E+00 -0.00000000000E+00 -0.41014588068E+04  0.41014588068E+04  0.25500000000E-02 0. -1.
    8880023    1    1    2    0    0  0.90627615180E+02  0.45664665392E+03 -0.85501689658E+03  0.11754163649E+04  0.65864270000E+03 0.  1.
    8880022    1    1    2    0    0 -0.90627615180E+02 -0.45664665392E+03 -0.30667904310E+04  0.31056939211E+04  0.15294330000E+03 0.  0.
<mgrwt>
<rscale>  0 0.71209225E+03</rscale>
<asrwt>0</asrwt>
<pdfrwt beam="1">  1        2 0.63099359E+00 0.80656664E+03</pdfrwt>
<pdfrwt beam="2">  1       -2 0.27638692E-01 0.80656664E+03</pdfrwt>
<totfact> 0.36947286E+00</totfact>
</mgrwt>
</event>
<event>
 4    1  0.2878104E-007  0.7751457E+03  0.7818608E-02  0.9767366E-01
         -2   -1    0    0    0  501 -0.00000000000E+00  0.00000000000E+00  0.42373538411E+03  0.42373538412E+03  0.25500000000E-02 0.  1.
          2   -1    0    0  501    0  0.00000000000E+00 -0.00000000000E+00 -0.93185820241E+03  0.93185820241E+03  0.25500000000E-02 0. -1.
    8880023    1    1    2    0    0 -0.37422052679E+03 -0.16431567798E+03 -0.14655021291E+03  0.78887756710E+03  0.65864270000E+03 0.  0.
    8880022    1    1    2    0    0  0.37422052679E+03  0.16431567798E+03 -0.36157260539E+03  0.56671601943E+03  0.15294330000E+03 0.  0.
<mgrwt>
<rscale>  0 0.67143671E+03</rscale>
<asrwt>0</asrwt>
<pdfrwt beam="1">  1        2 0.14336280E+00 0.77514570E+03</pdfrwt>
<pdfrwt beam="2">  1       -2 0.65190059E-01 0.77514570E+03</pdfrwt>
<totfact> 0.61306211E+01</totfact>
</mgrwt>
</event>
<event>
 4    1  0.2878104E-007  0.1018044E+04  0.7818608E-02  0.9358322E-01
          2   -1    0    0  501    0  0.00000000000E+00  0.00000000000E+00  0.15680107609E+04  0.15680107609E+04  0.25500000000E-02 0. -1.
         -2   -1    0    0    0  501 -0.00000000000E+00 -0.00000000000E+00 -0.19072461236E+04  0.19072461236E+04  0.25500000000E-02 0.  1.
    8880023    1    1    2    0    0  0.84315888543E+02  0.77168334294E+03 -0.16531736059E+04  0.19414936333E+04  0.65864270000E+03 0.  0.
    8880022    1    1    2    0    0 -0.84315888543E+02 -0.77168334294E+03  0.13139382431E+04  0.15337632511E+04  0.15294330000E+03 0.  0.
<mgrwt>
<rscale>  0 0.95586489E+03</rscale>
<asrwt>0</asrwt>
<pdfrwt beam="1">  1        2 0.24123243E+00 0.10180445E+04</pdfrwt>
<pdfrwt beam="2">  1       -2 0.29342248E+00 0.10180445E+04</pdfrwt>
<totfact> 0.40598369E-01</totfact>
</mgrwt>
</event>
<event>
 4    1  0.2878104E-007  0.6878521E+03  0.7818608E-02  0.1005191E+00
          2   -1    0    0  501    0  0.00000000000E+00  0.00000000000E+00  0.67171463073E+03  0.67171463073E+03  0.25500000000E-02 0. -1.
         -2   -1    0    0    0  501 -0.00000000000E+00 -0.00000000000E+00 -0.53151545645E+03  0.53151545645E+03  0.25500000000E-02 0.  1.
    8880023    1    1    2    0    0 -0.12632883529E+03 -0.15287682606E+03 -0.25647477334E+03  0.73411158157E+03  0.65864270000E+03 0.  1.
    8880022    1    1    2    0    0  0.12632883529E+03  0.15287682606E+03  0.39667394762E+03  0.46911850561E+03  0.15294330000E+03 0.  0.
<mgrwt>
<rscale>  0 0.53431669E+03</rscale>
<asrwt>0</asrwt>
<pdfrwt beam="1">  1        2 0.10334071E+00 0.68785210E+03</pdfrwt>
<pdfrwt beam="2">  1       -2 0.81771608E-01 0.68785210E+03</pdfrwt>
<totfact> 0.57762373E+01</totfact>
</mgrwt>
</event>
<event>
 4    1  0.2878104E-007  0.1741057E+04  0.7818608E-02  0.8755862E-01
         -2   -1    0    0    0  501 -0.00000000000E+00  0.00000000000E+00  0.16393530309E+04  0.16393530309E+04  0.25500000000E-02 0.  1.
          2   -1    0    0  501    0  0.00000000000E+00 -0.00000000000E+00 -0.25964017206E+04  0.25964017206E+04  0.25500000000E-02 0. -1.
    8880023    1    1    2    0    0  0.15778744137E+04 -0.32830337897E+03  0.73872158139E+03  0.18912933551E+04  0.65864270000E+03 0.  0.
    8880022    1    1    2    0    0 -0.15778744137E+04  0.32830337897E+03 -0.16957702710E+04  0.23444613964E+04  0.15294330000E+03 0.  0.
<mgrwt>
<rscale>  0 0.17096820E+04</rscale>
<asrwt>0</asrwt>
<pdfrwt beam="1">  1        2 0.39944642E+00 0.17410574E+04</pdfrwt>
<pdfrwt beam="2">  1       -2 0.25220816E+00 0.17410574E+04</pdfrwt>
<totfact> 0.17379248E-01</totfact>
</mgrwt>
</event>
<event>
 4    1  0.2878104E-007  0.1616217E+04  0.7818608E-02  0.8831651E-01
         -2   -1    0    0    0  501 -0.00000000000E+00  0.00000000000E+00  0.15759166088E+04  0.15759166088E+04  0.25500000000E-02 0.  1.
          2   -1    0    0  501    0  0.00000000000E+00 -0.00000000000E+00 -0.25734271043E+04  0.25734271043E+04  0.25500000000E-02 0. -1.
    8880023    1    1    2    0    0 -0.88168143029E+03 -0.11836326940E+04  0.81242055086E+03  0.18089184217E+04  0.65864270000E+03 0.  0.
    8880022    1    1    2    0    0  0.88168143029E+03  0.11836326940E+04 -0.18099310463E+04  0.23404252913E+04  0.15294330000E+03 0.  0.
<mgrwt>
<rscale>  0 0.15820514E+04</rscale>
<asrwt>0</asrwt>
<pdfrwt beam="1">  1        2 0.39591186E+00 0.16162174E+04</pdfrwt>
<pdfrwt beam="2">  1       -2 0.24244871E+00 0.16162174E+04</pdfrwt>
<totfact> 0.20884187E-01</totfact>
</mgrwt>
</event>
<event>
 4    1  0.2878104E-007  0.7116839E+03  0.7818608E-02  0.9951800E-01
          2   -1    0    0  501    0  0.00000000000E+00  0.00000000000E+00  0.17041384815E+04  0.17041384815E+04  0.25500000000E-02 0. -1.
         -2   -1    0    0    0  501 -0.00000000000E+00 -0.00000000000E+00 -0.80811626415E+03  0.80811626416E+03  0.25500000000E-02 0.  1.
    8880023    1    1    2    0    0 -0.78060011157E+02 -0.25805110517E+03 -0.63279937245E+03  0.95232819461E+03  0.65864270000E+03 0.  1.
    8880022    1    1    2    0    0  0.78060011157E+02  0.25805110517E+03  0.15288215898E+04  0.15599265511E+04  0.15294330000E+03 0.  0.
<mgrwt>
<rscale>  0 0.57815178E+03</rscale>
<asrwt>0</asrwt>
<pdfrwt beam="1">  1        2 0.26217515E+00 0.71168388E+03</pdfrwt>
<pdfrwt beam="2">  1       -2 0.12432558E+00 0.71168388E+03</pdfrwt>
<totfact> 0.49113809E+00</totfact>
</mgrwt>
</event>
<event>
 4    1  0.2878104E-007  0.1334023E+04  0.7818608E-02  0.9036722E-01
          2   -1    0    0  501    0  0.00000000000E+00  0.00000000000E+00  0.32064261348E+04  0.32064261348E+04  0.25500000000E-02 0. -1.
         -2   -1    0    0    0  501 -0.00000000000E+00 -0.00000000000E+00 -0.84016695448E+03  0.84016695449E+03  0.25500000000E-02 0.  1.
    8880023    1    1    2    0    0 -0.66953420213E+02  0.11581559083E+04 -0.78399006091E+02  0.13363249900E+04  0.65864270000E+03 0.  0.
    8880022    1    1    2    0    0  0.66953420213E+02 -0.11581559083E+04  0.24446581864E+04  0.27102680992E+04  0.15294330000E+03 0.  0.
<mgrwt>
<rscale>  0 0.12910138E+04</rscale>
<asrwt>0</asrwt>
<pdfrwt beam="1">  1        2 0.49329633E+00 0.13340233E+04</pdfrwt>
<pdfrwt beam="2">  1       -2 0.12925645E+00 0.13340233E+04</pdfrwt>
<totfact> 0.55036376E-01</totfact>
</mgrwt>
</event>
<event>
 4    1  0.2878104E-007  0.8590512E+03  0.7818608E-02  0.9595253E-01
          2   -1    0    0  501    0  0.00000000000E+00  0.00000000000E+00  0.25406347484E+04  0.25406347484E+04  0.25500000000E-02 0. -1.
         -2   -1    0    0    0  501 -0.00000000000E+00 -0.00000000000E+00 -0.66629540230E+03  0.66629540231E+03  0.25500000000E-02 0.  1.
    8880023    1    1    2    0    0 -0.54999988303E+03  0.40730401273E+02 -0.33695604968E+03  0.92277214013E+03  0.65864270000E+03 0.  1.
    8880022    1    1    2    0    0  0.54999988303E+03 -0.40730401273E+02  0.22112953958E+04  0.22841580106E+04  0.15294330000E+03 0.  0.
<mgrwt>
<rscale>  0 0.77611144E+03</rscale>
<asrwt>0</asrwt>
<pdfrwt beam="1">  1        2 0.39086689E+00 0.85905125E+03</pdfrwt>
<pdfrwt beam="2">  1       -2 0.10250698E+00 0.85905125E+03</pdfrwt>
<totfact> 0.26473798E+00</totfact>
</mgrwt>
</event>
<event>
 4    1  0.2878104E-007  0.6816389E+03  0.7818608E-02  0.1008411E+00
          2   -1    0    0  501    0  0.00000000000E+00  0.00000000000E+00  0.40384918792E+04  0.40384918792E+04  0.25500000000E-02 0. -1.
         -2   -1    0    0    0  501 -0.00000000000E+00 -0.00000000000E+00 -0.32587175969E+03  0.32587175970E+03  0.25500000000E-02 0.  1.
    8880023    1    1    2    0    0 -0.15894651968E+03  0.74547883889E+02  0.38342926824E+02  0.68271646341E+03  0.65864270000E+03 0.  1.
    8880022    1    1    2    0    0  0.15894651968E+03 -0.74547883889E+02  0.36742771927E+04  0.36816471755E+04  0.15294330000E+03 0.  0.
<mgrwt>
<rscale>  0 0.52110920E+03</rscale>
<asrwt>0</asrwt>
<pdfrwt beam="1">  1        2 0.62130648E+00 0.68163890E+03</pdfrwt>
<pdfrwt beam="2">  1       -2 0.50134114E-01 0.68163890E+03</pdfrwt>
<totfact> 0.13576092E+00</totfact>
</mgrwt>
</event>
<event>
 4    1  0.2878104E-007  0.1156744E+04  0.7818608E-02  0.9200362E-01
         -2   -1    0    0    0  501 -0.00000000000E+00  0.00000000000E+00  0.75488421435E+03  0.75488421436E+03  0.25500000000E-02 0.  1.
          2   -1    0    0  501    0  0.00000000000E+00 -0.00000000000E+00 -0.18445960361E+04  0.18445960361E+04  0.25500000000E-02 0. -1.
    8880023    1    1    2    0    0 -0.72810506019E+03  0.61164437650E+03 -0.15679881360E+02  0.11568499846E+04  0.65864270000E+03 0.  0.
    8880022    1    1    2    0    0  0.72810506019E+03 -0.61164437650E+03 -0.10740319404E+04  0.14426302659E+04  0.15294330000E+03 0.  0.
<mgrwt>
<rscale>  0 0.11049691E+04</rscale>
<asrwt>0</asrwt>
<pdfrwt beam="1">  1        2 0.28378400E+00 0.11567437E+04</pdfrwt>
<pdfrwt beam="2">  1       -2 0.11613603E+00 0.11567437E+04</pdfrwt>
<totfact> 0.45993708E+00</totfact>
</mgrwt>
</event>
<event>
 4    1  0.2878104E-007  0.7767488E+03  0.7818608E-02  0.9763530E-01
          2   -1    0    0  501    0  0.00000000000E+00  0.00000000000E+00  0.92923170520E+03  0.92923170520E+03  0.25500000000E-02 0. -1.
         -2   -1    0    0    0  501 -0.00000000000E+00 -0.00000000000E+00 -0.12127482249E+04  0.12127482249E+04  0.25500000000E-02 0.  1.
    8880023    1    1    2    0    0 -0.40744843648E+02  0.40971744149E+03 -0.10214402664E+04  0.12832298891E+04  0.65864270000E+03 0.  1.
    8880022    1    1    2    0    0  0.40744843648E+02 -0.40971744149E+03  0.73792374665E+03  0.85875004106E+03  0.15294330000E+03 0.  0.
<mgrwt>
<rscale>  0 0.67356988E+03</rscale>
<asrwt>0</asrwt>
<pdfrwt beam="1">  1        2 0.14295872E+00 0.77674882E+03</pdfrwt>
<pdfrwt beam="2">  1       -2 0.18657665E+00 0.77674882E+03</pdfrwt>
<totfact> 0.46621517E+00</totfact>
</mgrwt>
</event>
<event>
 4    1  0.2878104E-007  0.1168333E+04  0.7818608E-02  0.9188536E-01
         -2   -1    0    0    0  501 -0.00000000000E+00  0.00000000000E+00  0.88647728130E+03  0.88647728131E+03  0.25500000000E-02 0.  1.
          2   -1    0    0  501    0  0.00000000000E+00 -0.00000000000E+00 -0.18378806400E+04  0.18378806400E+04  0.25500000000E-02 0. -1.
    8880023    1    1    2    0    0  0.95125331081E+03  0.16220224972E+03  0.23055244488E+03  0.11908640003E+04  0.65864270000E+03 0.  0.
    8880022    1    1    2    0    0 -0.95125331081E+03 -0.16220224972E+03 -0.11819558036E+04  0.15334939210E+04  0.15294330000E+03 0.  0.
<mgrwt>
<rscale>  0 0.11172538E+04</rscale>
<asrwt>0</asrwt>
<pdfrwt beam="1">  1        2 0.28275087E+00 0.11683333E+04</pdfrwt>
<pdfrwt beam="2">  1       -2 0.13638112E+00 0.11683333E+04</pdfrwt>
<totfact> 0.30871449E+00</totfact>
</mgrwt>
</event>
<event>
 4    1  0.2878104E-007  0.6619639E+03  0.7818608E-02  0.1022229E+00
         -2   -1    0    0    0  501 -0.00000000000E+00  0.00000000000E+00  0.20899415523E+03  0.20899415524E+03  0.25500000000E-02 0.  1.
          2   -1    0    0  501    0  0.00000000000E+00 -0.00000000000E+00 -0.41284347970E+04  0.41284347970E+04  0.25500000000E-02 0. -1.
    8880023    1    1    2    0    0 -0.17981071317E+02  0.63739547970E+02 -0.32199206007E+03  0.73612168961E+03  0.65864270000E+03 0.  1.
    8880022    1    1    2    0    0  0.17981071317E+02 -0.63739547970E+02 -0.35974485817E+04  0.36013072626E+04  0.15294330000E+03 0.  0.
<mgrwt>
<rscale>  0 0.46890816E+03</rscale>
<asrwt>0</asrwt>
<pdfrwt beam="1">  1        2 0.63514375E+00 0.66196394E+03</pdfrwt>
<pdfrwt beam="2">  1       -2 0.32152950E-01 0.66196394E+03</pdfrwt>
<totfact> 0.27450376E+00</totfact>
</mgrwt>
</event>
<event>
 4    1  0.2878104E-007  0.9591527E+03  0.7818608E-02  0.9437066E-01
         -2   -1    0    0    0  501 -0.00000000000E+00  0.00000000000E+00  0.95473013461E+03  0.95473013461E+03  0.25500000000E-02 0.  1.
          2   -1    0    0  501    0  0.00000000000E+00 -0.00000000000E+00 -0.19915874576E+04  0.19915874576E+04  0.25500000000E-02 0. -1.
    8880023    1    1    2    0    0  0.43563933652E+02 -0.69589207839E+03  0.62009464919E+03  0.11421432403E+04  0.65864270000E+03 0.  0.
    8880022    1    1    2    0    0 -0.43563933652E+02  0.69589207839E+03 -0.16569519722E+04  0.18041743519E+04  0.15294330000E+03 0.  0.
<mgrwt>
<rscale>  0 0.89087077E+03</rscale>
<asrwt>0</asrwt>
<pdfrwt beam="1">  1        2 0.30639807E+00 0.95915265E+03</pdfrwt>
<pdfrwt beam="2">  1       -2 0.14688156E+00 0.95915265E+03</pdfrwt>
<totfact> 0.21463438E+00</totfact>
</mgrwt>
</event>
<event>
 4    1  0.2878104E-007  0.7851327E+03  0.7818608E-02  0.9743915E-01
          2   -1    0    0  501    0  0.00000000000E+00  0.00000000000E+00  0.74222654419E+03  0.74222654420E+03  0.25500000000E-02 0. -1.
         -2   -1    0    0    0  501 -0.00000000000E+00 -0.00000000000E+00 -0.69213637851E+03  0.69213637852E+03  0.25500000000E-02 0.  1.
    8880023    1    1    2    0    0  0.34010414381E+03  0.25875144843E+03 -0.32086738756E+03  0.84816815984E+03  0.65864270000E+03 0.  0.
    8880022    1    1    2    0    0 -0.34010414381E+03 -0.25875144843E+03  0.37095755324E+03  0.58619476287E+03  0.15294330000E+03 0.  0.
<mgrwt>
<rscale>  0 0.68461214E+03</rscale>
<asrwt>0</asrwt>
<pdfrwt beam="1">  1        2 0.11418870E+00 0.78513269E+03</pdfrwt>
<pdfrwt beam="2">  1       -2 0.10648252E+00 0.78513269E+03</pdfrwt>
<totfact> 0.27303699E+01</totfact>
</mgrwt>
</event>
<event>
 4    1  0.2878104E-007  0.9965922E+03  0.7818608E-02  0.9386030E-01
         -2   -1    0    0    0  501 -0.00000000000E+00  0.00000000000E+00  0.39884891024E+03  0.39884891025E+03  0.25500000000E-02 0.  1.
          2   -1    0    0  501    0  0.00000000000E+00 -0.00000000000E+00 -0.19429505627E+04  0.19429505627E+04  0.25500000000E-02 0. -1.
    8880023    1    1    2    0    0  0.68942249726E+03 -0.28996985287E+03 -0.84330591129E+03  0.13055117623E+04  0.65864270000E+03 0. -1.
    8880022    1    1    2    0    0 -0.68942249726E+03  0.28996985287E+03 -0.70079574112E+03  0.10362877106E+04  0.15294330000E+03 0.  1.
<mgrwt>
<rscale>  0 0.93234357E+03</rscale>
<asrwt>0</asrwt>
<pdfrwt beam="1">  1        2 0.29891546E+00 0.99659224E+03</pdfrwt>
<pdfrwt beam="2">  1       -2 0.61361372E-01 0.99659224E+03</pdfrwt>
<totfact> 0.17806187E+01</totfact>
</mgrwt>
</event>
<event>
 4    1  0.2878104E-007  0.6749244E+03  0.7818608E-02  0.1012354E+00
          2   -1    0    0  501    0  0.00000000000E+00  0.00000000000E+00  0.13276293387E+04  0.13276293387E+04  0.25500000000E-02 0. -1.
         -2   -1    0    0    0  501 -0.00000000000E+00 -0.00000000000E+00 -0.11111295145E+04  0.11111295145E+04  0.25500000000E-02 0.  1.
    8880023    1    1    2    0    0 -0.97298752833E+02  0.11066040974E+03 -0.99857148559E+03  0.12052667720E+04  0.65864270000E+03 0.  1.
    8880022    1    1    2    0    0  0.97298752833E+02 -0.11066040974E+03  0.12150713098E+04  0.12334920812E+04  0.15294330000E+03 0.  0.
<mgrwt>
<rscale>  0 0.50549720E+03</rscale>
<asrwt>0</asrwt>
<pdfrwt beam="1">  1        2 0.20425067E+00 0.67492443E+03</pdfrwt>
<pdfrwt beam="2">  1       -2 0.17094300E+00 0.67492443E+03</pdfrwt>
<totfact> 0.34704374E+00</totfact>
</mgrwt>
</event>
<event>
 4    1  0.2878104E-007  0.1013222E+04  0.7818608E-02  0.9364460E-01
         -2   -1    0    0    0  501 -0.00000000000E+00  0.00000000000E+00  0.21849039161E+04  0.21849039161E+04  0.25500000000E-02 0.  1.
          2   -1    0    0  501    0  0.00000000000E+00 -0.00000000000E+00 -0.15082090452E+04  0.15082090452E+04  0.25500000000E-02 0. -1.
    8880023    1    1    2    0    0 -0.18830934034E+02 -0.76971083343E+03  0.19498604113E+04  0.21974019206E+04  0.65864270000E+03 0.  0.
    8880022    1    1    2    0    0  0.18830934034E+02  0.76971083343E+03 -0.12731655403E+04  0.14957110407E+04  0.15294330000E+03 0.  0.
<mgrwt>
<rscale>  0 0.95059140E+03</rscale>
<asrwt>0</asrwt>
<pdfrwt beam="1">  1        2 0.23203216E+00 0.10132224E+04</pdfrwt>
<pdfrwt beam="2">  1       -2 0.33613906E+00 0.10132224E+04</pdfrwt>
<totfact> 0.24076044E-01</totfact>
</mgrwt>
</event>
<event>
 4    1  0.2878104E-007  0.7674053E+03  0.7818608E-02  0.9786300E-01
          2   -1    0    0  501    0  0.00000000000E+00  0.00000000000E+00  0.79678274644E+03  0.79678274644E+03  0.25500000000E-02 0. -1.
         -2   -1    0    0    0  501 -0.00000000000E+00 -0.00000000000E+00 -0.44808637307E+03  0.44808637308E+03  0.25500000000E-02 0.  1.
    8880023    1    1    2    0    0 -0.39382788233E+03 -0.48938814378E+00  0.16920357804E+03  0.78583757704E+03  0.65864270000E+03 0.  0.
    8880022    1    1    2    0    0  0.39382788233E+03  0.48938814378E+00  0.17949279532E+03  0.45903154248E+03  0.15294330000E+03 0.  0.
<mgrwt>
<rscale>  0 0.66102977E+03</rscale>
<asrwt>0</asrwt>
<pdfrwt beam="1">  1        2 0.12258196E+00 0.76740527E+03</pdfrwt>
<pdfrwt beam="2">  1       -2 0.68936366E-01 0.76740527E+03</pdfrwt>
<totfact> 0.67359561E+01</totfact>
</mgrwt>
</event>
<event>
 4    1  0.2878104E-007  0.1044101E+04  0.7818608E-02  0.9326006E-01
         -2   -1    0    0    0  501 -0.00000000000E+00  0.00000000000E+00  0.10278314083E+04  0.10278314083E+04  0.25500000000E-02 0.  1.
          2   -1    0    0  501    0  0.00000000000E+00 -0.00000000000E+00 -0.17432610378E+04  0.17432610378E+04  0.25500000000E-02 0. -1.
    8880023    1    1    2    0    0  0.80062258378E+03  0.12385643293E+03  0.61068810152E+03  0.12095813744E+04  0.65864270000E+03 0.  0.
    8880022    1    1    2    0    0 -0.80062258378E+03 -0.12385643293E+03 -0.13261177310E+04  0.15615110718E+04  0.15294330000E+03 0.  0.
<mgrwt>
<rscale>  0 0.98423513E+03</rscale>
<asrwt>0</asrwt>
<pdfrwt beam="1">  1        2 0.26819401E+00 0.10441011E+04</pdfrwt>
<pdfrwt beam="2">  1       -2 0.15812791E+00 0.10441011E+04</pdfrwt>
<totfact> 0.23867867E+00</totfact>
</mgrwt>
</event>
<event>
 4    1  0.2878104E-007  0.9543883E+03  0.7818608E-02  0.9443828E-01
         -2   -1    0    0    0  501 -0.00000000000E+00  0.00000000000E+00  0.16109914536E+04  0.16109914536E+04  0.25500000000E-02 0.  1.
          2   -1    0    0  501    0  0.00000000000E+00 -0.00000000000E+00 -0.13297979035E+04  0.13297979035E+04  0.25500000000E-02 0. -1.
    8880023    1    1    2    0    0 -0.16041885898E+03  0.67179810552E+03  0.13535068417E+04  0.16561515274E+04  0.65864270000E+03 0.  1.
    8880022    1    1    2    0    0  0.16041885898E+03 -0.67179810552E+03 -0.10723132917E+04  0.12846378297E+04  0.15294330000E+03 0.  0.
<mgrwt>
<rscale>  0 0.88554919E+03</rscale>
<asrwt>0</asrwt>
<pdfrwt beam="1">  1        2 0.20458429E+00 0.95438834E+03</pdfrwt>
<pdfrwt beam="2">  1       -2 0.24784484E+00 0.95438834E+03</pdfrwt>
<totfact> 0.10562915E+00</totfact>
</mgrwt>
</event>
<event>
 4    1  0.2878104E-007  0.6833198E+03  0.7818608E-02  0.1007505E+00
         -2   -1    0    0    0  501 -0.00000000000E+00  0.00000000000E+00  0.26161343260E+04  0.26161343260E+04  0.25500000000E-02 0.  1.
          2   -1    0    0  501    0  0.00000000000E+00 -0.00000000000E+00 -0.36672715068E+03  0.36672715069E+03  0.25500000000E-02 0. -1.
    8880023    1    1    2    0    0  0.37017455005E+02  0.17817236430E+03  0.25267902663E+04  0.26175551455E+04  0.65864270000E+03 0.  0.
    8880022    1    1    2    0    0 -0.37017455005E+02 -0.17817236430E+03 -0.27738309105E+03  0.36530633117E+03  0.15294330000E+03 0.  0.
<mgrwt>
<rscale>  0 0.52478461E+03</rscale>
<asrwt>0</asrwt>
<pdfrwt beam="1">  1        2 0.56419561E-01 0.68331976E+03</pdfrwt>
<pdfrwt beam="2">  1       -2 0.40248221E+00 0.68331976E+03</pdfrwt>
<totfact> 0.67509113E-01</totfact>
</mgrwt>
</event>
<event>
 4    1  0.2878104E-007  0.1173067E+04  0.7818608E-02  0.9183758E-01
          2   -1    0    0  501    0  0.00000000000E+00  0.00000000000E+00  0.11168062131E+04  0.11168062131E+04  0.25500000000E-02 0. -1.
         -2   -1    0    0    0  501 -0.00000000000E+00 -0.00000000000E+00 -0.13084570213E+04  0.13084570213E+04  0.25500000000E-02 0.  1.
    8880023    1    1    2    0    0  0.57548849383E+03  0.78172184784E+03 -0.64981105480E+03  0.13410222471E+04  0.65864270000E+03 0.  0.
    8880022    1    1    2    0    0 -0.57548849383E+03 -0.78172184784E+03  0.45816024664E+03  0.10842409873E+04  0.15294330000E+03 0.  0.
<mgrwt>
<rscale>  0 0.11222654E+04</rscale>
<asrwt>0</asrwt>
<pdfrwt beam="1">  1        2 0.17181634E+00 0.11730670E+04</pdfrwt>
<pdfrwt beam="2">  1       -2 0.20130108E+00 0.11730670E+04</pdfrwt>
<totfact> 0.27025458E+00</totfact>
</mgrwt>
</event>
<event>
 4    1  0.2878104E-007  0.9597827E+03  0.7818608E-02  0.9436176E-01
         -2   -1    0    0    0  501 -0.00000000000E+00  0.00000000000E+00  0.89888703409E+03  0.89888703409E+03  0.25500000000E-02 0.  1.
          2   -1    0    0  501    0  0.00000000000E+00 -0.00000000000E+00 -0.13180234789E+04  0.13180234789E+04  0.25500000000E-02 0. -1.
    8880023    1    1    2    0    0  0.13767343824E+03  0.68441116999E+03 -0.93154562921E+03  0.13375201272E+04  0.65864270000E+03 0.  0.
    8880022    1    1    2    0    0 -0.13767343824E+03 -0.68441116999E+03  0.51240918443E+03  0.87939038573E+03  0.15294330000E+03 0.  0.
<mgrwt>
<rscale>  0 0.89157371E+03</rscale>
<asrwt>0</asrwt>
<pdfrwt beam="1">  1        2 0.20277284E+00 0.95978270E+03</pdfrwt>
<pdfrwt beam="2">  1       -2 0.13829031E+00 0.95978270E+03</pdfrwt>
<totfact> 0.59616818E+00</totfact>
</mgrwt>
</event>
<event>
 4    1  0.2878104E-007  0.8717579E+03  0.7818608E-02  0.9572981E-01
         -2   -1    0    0    0  501 -0.00000000000E+00  0.00000000000E+00  0.89022742486E+03  0.89022742486E+03  0.25500000000E-02 0.  1.
          2   -1    0    0  501    0  0.00000000000E+00 -0.00000000000E+00 -0.11919110655E+04  0.11919110655E+04  0.25500000000E-02 0. -1.
    8880023    1    1    2    0    0  0.14605192405E+03 -0.55210548970E+03  0.56073389707E+03  0.10365251304E+04  0.65864270000E+03 0.  1.
    8880022    1    1    2    0    0 -0.14605192405E+03  0.55210548970E+03 -0.86241753772E+03  0.10456133600E+04  0.15294330000E+03 0.  0.
<mgrwt>
<rscale>  0 0.79110575E+03</rscale>
<asrwt>0</asrwt>
<pdfrwt beam="1">  1        2 0.18337093E+00 0.87175790E+03</pdfrwt>
<pdfrwt beam="2">  1       -2 0.13695806E+00 0.87175790E+03</pdfrwt>
<totfact> 0.73205324E+00</totfact>
</mgrwt>
</event>
<event>
 4    1  0.2878104E-007  0.9456114E+03  0.7818608E-02  0.9456457E-01
          2   -1    0    0  501    0  0.00000000000E+00  0.00000000000E+00  0.19979246560E+04  0.19979246560E+04  0.25500000000E-02 0. -1.
         -2   -1    0    0    0  501 -0.00000000000E+00 -0.00000000000E+00 -0.85136723149E+03  0.85136723149E+03  0.25500000000E-02 0.  1.
    8880023    1    1    2    0    0 -0.67079938272E+03  0.10197488673E+03 -0.49437058533E+03  0.10670441281E+04  0.65864270000E+03 0.  1.
    8880022    1    1    2    0    0  0.67079938272E+03 -0.10197488673E+03  0.16409280098E+04  0.17822477594E+04  0.15294330000E+03 0.  0.
<mgrwt>
<rscale>  0 0.87571649E+03</rscale>
<asrwt>0</asrwt>
<pdfrwt beam="1">  1        2 0.30737302E+00 0.94561139E+03</pdfrwt>
<pdfrwt beam="2">  1       -2 0.13097957E+00 0.94561139E+03</pdfrwt>
<totfact> 0.28708449E+00</totfact>
</mgrwt>
</event>
<event>
 4    1  0.2878104E-007  0.6821459E+03  0.7818608E-02  0.1008135E+00
          2   -1    0    0  501    0  0.00000000000E+00  0.00000000000E+00  0.16266146352E+04  0.16266146352E+04  0.25500000000E-02 0. -1.
         -2   -1    0    0    0  501 -0.00000000000E+00 -0.00000000000E+00 -0.14957930504E+03  0.14957930506E+03  0.25500000000E-02 0.  1.
    8880023    1    1    2    0    0 -0.80205844374E+02 -0.15836608871E+03  0.75706614619E+03  0.10190545380E+04  0.65864270000E+03 0.  1.
    8880022    1    1    2    0    0  0.80205844374E+02  0.15836608871E+03  0.71996918396E+03  0.75713940222E+03  0.15294330000E+03 0.  0.
<mgrwt>
<rscale>  0 0.52222648E+03</rscale>
<asrwt>0</asrwt>
<pdfrwt beam="1">  1        2 0.25024840E+00 0.68214588E+03</pdfrwt>
<pdfrwt beam="2">  1       -2 0.23012201E-01 0.68214588E+03</pdfrwt>
<totfact> 0.18342853E+02</totfact>
</mgrwt>
</event>
<event>
 4    1  0.2878104E-007  0.7251752E+03  0.7818608E-02  0.9905449E-01
          2   -1    0    0  501    0  0.00000000000E+00  0.00000000000E+00  0.20974399099E+04  0.20974399099E+04  0.25500000000E-02 0. -1.
         -2   -1    0    0    0  501 -0.00000000000E+00 -0.00000000000E+00 -0.25530909864E+03  0.25530909865E+03  0.25500000000E-02 0.  1.
    8880023    1    1    2    0    0  0.27381533642E+03  0.13074409594E+03  0.31910698622E+03  0.79228046297E+03  0.65864270000E+03 0.  1.
    8880022    1    1    2    0    0 -0.27381533642E+03 -0.13074409594E+03  0.15230238250E+04  0.15604685455E+04  0.15294330000E+03 0.  0.
<mgrwt>
<rscale>  0 0.59997947E+03</rscale>
<asrwt>0</asrwt>
<pdfrwt beam="1">  1        2 0.32268308E+00 0.72517519E+03</pdfrwt>
<pdfrwt beam="2">  1       -2 0.39278321E-01 0.72517519E+03</pdfrwt>
<totfact> 0.37458150E+01</totfact>
</mgrwt>
</event>
<event>
 4    1  0.2878104E-007  0.9728356E+03  0.7818608E-02  0.9417993E-01
          2   -1    0    0  501    0  0.00000000000E+00  0.00000000000E+00  0.34032669558E+04  0.34032669558E+04  0.25500000000E-02 0. -1.
         -2   -1    0    0    0  501 -0.00000000000E+00 -0.00000000000E+00 -0.37909068859E+03  0.37909068860E+03  0.25500000000E-02 0.  1.
    8880023    1    1    2    0    0 -0.48086466163E+03 -0.53044139631E+03  0.38959766212E+03  0.10479482059E+04  0.65864270000E+03 0.  0.
    8880022    1    1    2    0    0  0.48086466163E+03  0.53044139631E+03  0.26345786051E+04  0.27344094384E+04  0.15294330000E+03 0.  0.
<mgrwt>
<rscale>  0 0.90609604E+03</rscale>
<asrwt>0</asrwt>
<pdfrwt beam="1">  1        2 0.52357954E+00 0.97283560E+03</pdfrwt>
<pdfrwt beam="2">  1       -2 0.58321644E-01 0.97283560E+03</pdfrwt>
<totfact> 0.27084316E+00</totfact>
</mgrwt>
</event>
<event>
 4    1  0.2878104E-007  0.8494672E+03  0.7818608E-02  0.9612581E-01
         -2   -1    0    0    0  501 -0.00000000000E+00  0.00000000000E+00  0.44911425830E+03  0.44911425830E+03  0.25500000000E-02 0.  1.
          2   -1    0    0  501    0  0.00000000000E+00 -0.00000000000E+00 -0.16538397217E+04  0.16538397217E+04  0.25500000000E-02 0. -1.
    8880023    1    1    2    0    0 -0.50149225673E+03 -0.19049881244E+03 -0.87190376822E+02  0.85393011961E+03  0.65864270000E+03 0. -1.
    8880022    1    1    2    0    0  0.50149225673E+03  0.19049881244E+03 -0.11175350866E+04  0.12490238604E+04  0.15294330000E+03 0.  0.
<mgrwt>
<rscale>  0 0.76469051E+03</rscale>
<asrwt>0</asrwt>
<pdfrwt beam="1">  1        2 0.25443688E+00 0.84946718E+03</pdfrwt>
<pdfrwt beam="2">  1       -2 0.69094502E-01 0.84946718E+03</pdfrwt>
<totfact> 0.20193297E+01</totfact>
</mgrwt>
</event>
<event>
 4    1  0.2878104E-007  0.1298196E+04  0.7818608E-02  0.9067119E-01
         -2   -1    0    0    0  501 -0.00000000000E+00  0.00000000000E+00  0.17534102047E+04  0.17534102047E+04  0.25500000000E-02 0.  1.
          2   -1    0    0  501    0  0.00000000000E+00 -0.00000000000E+00 -0.10464944544E+04  0.10464944544E+04  0.25500000000E-02 0. -1.
    8880023    1    1    2    0    0 -0.21302324927E+03  0.10982369658E+04  0.99379991546E+03  0.16349164554E+04  0.65864270000E+03 0.  0.
    8880022    1    1    2    0    0  0.21302324927E+03 -0.10982369658E+04 -0.28688416510E+03  0.11649882038E+04  0.15294330000E+03 0.  0.
<mgrwt>
<rscale>  0 0.12536883E+04</rscale>
<asrwt>0</asrwt>
<pdfrwt beam="1">  1        2 0.16099915E+00 0.12981963E+04</pdfrwt>
<pdfrwt beam="2">  1       -2 0.26975541E+00 0.12981963E+04</pdfrwt>
<totfact> 0.11041481E+00</totfact>
</mgrwt>
</event>
<event>
 4    1  0.2878104E-007  0.1788511E+04  0.7818608E-02  0.8728918E-01
          2   -1    0    0  501    0  0.00000000000E+00  0.00000000000E+00  0.17024102911E+04  0.17024102911E+04  0.25500000000E-02 0. -1.
         -2   -1    0    0    0  501 -0.00000000000E+00 -0.00000000000E+00 -0.18959193854E+04  0.18959193854E+04  0.25500000000E-02 0.  1.
    8880023    1    1    2    0    0  0.15316744553E+04  0.64725209600E+03 -0.58770318470E+03  0.18825958548E+04  0.65864270000E+03 0.  0.
    8880022    1    1    2    0    0 -0.15316744553E+04 -0.64725209600E+03  0.39419409045E+03  0.17157338217E+04  0.15294330000E+03 0.  0.
<mgrwt>
<rscale>  0 0.17580743E+04</rscale>
<asrwt>0</asrwt>
<pdfrwt beam="1">  1        2 0.26190927E+00 0.17885111E+04</pdfrwt>
<pdfrwt beam="2">  1       -2 0.29167991E+00 0.17885111E+04</pdfrwt>
<totfact> 0.31869266E-01</totfact>
</mgrwt>
</event>
<event>
 4    1  0.2878104E-007  0.1127157E+04  0.7818608E-02  0.9231406E-01
          2   -1    0    0  501    0  0.00000000000E+00  0.00000000000E+00  0.21860041006E+04  0.21860041006E+04  0.25500000000E-02 0. -1.
         -2   -1    0    0    0  501 -0.00000000000E+00 -0.00000000000E+00 -0.59962113006E+03  0.59962113006E+03  0.25500000000E-02 0.  1.
    8880023    1    1    2    0    0  0.74500378233E+03 -0.53069930955E+03  0.14678366257E+04  0.18506828358E+04  0.65864270000E+03 0.  0.
    8880022    1    1    2    0    0 -0.74500378233E+03  0.53069930955E+03  0.11854634490E+03  0.93494239488E+03  0.15294330000E+03 0.  0.
<mgrwt>
<rscale>  0 0.10735064E+04</rscale>
<asrwt>0</asrwt>
<pdfrwt beam="1">  1        2 0.33630832E+00 0.11271569E+04</pdfrwt>
<pdfrwt beam="2">  1       -2 0.92249405E-01 0.11271569E+04</pdfrwt>
<totfact> 0.51903784E+00</totfact>
</mgrwt>
</event>
<event>
 4    1  0.2878104E-007  0.6974701E+03  0.7818608E-02  0.1000786E+00
         -2   -1    0    0    0  501 -0.00000000000E+00  0.00000000000E+00  0.59957147643E+03  0.59957147644E+03  0.25500000000E-02 0.  1.
          2   -1    0    0  501    0  0.00000000000E+00 -0.00000000000E+00 -0.12464970868E+04  0.12464970868E+04  0.25500000000E-02 0. -1.
    8880023    1    1    2    0    0 -0.18287759917E+03  0.13860067478E+03  0.37200832424E+03  0.79047755369E+03  0.65864270000E+03 0.  1.
    8880022    1    1    2    0    0  0.18287759917E+03 -0.13860067478E+03 -0.10189339346E+04  0.10555910095E+04  0.15294330000E+03 0.  0.
<mgrwt>
<rscale>  0 0.55306830E+03</rscale>
<asrwt>0</asrwt>
<pdfrwt beam="1">  1        2 0.19176878E+00 0.69747012E+03</pdfrwt>
<pdfrwt beam="2">  1       -2 0.92241766E-01 0.69747012E+03</pdfrwt>
<totfact> 0.18208441E+01</totfact>
</mgrwt>
</event>
<event>
 4    1  0.2878104E-007  0.8064837E+03  0.7818608E-02  0.9696948E-01
         -2   -1    0    0    0  501 -0.00000000000E+00  0.00000000000E+00  0.12656570094E+04  0.12656570094E+04  0.25500000000E-02 0.  1.
          2   -1    0    0  501    0  0.00000000000E+00 -0.00000000000E+00 -0.99700205733E+03  0.99700205734E+03  0.25500000000E-02 0. -1.
    8880023    1    1    2    0    0 -0.46466224727E+03 -0.26358629985E+02  0.10600154126E+04  0.13319341811E+04  0.65864270000E+03 0.  0.
    8880022    1    1    2    0    0  0.46466224727E+03  0.26358629985E+02 -0.79136046052E+03  0.93072488572E+03  0.15294330000E+03 0.  0.
<mgrwt>
<rscale>  0 0.71198776E+03</rscale>
<asrwt>0</asrwt>
<pdfrwt beam="1">  1        2 0.15338493E+00 0.80648372E+03</pdfrwt>
<pdfrwt beam="2">  1       -2 0.19471646E+00 0.80648372E+03</pdfrwt>
<totfact> 0.37026644E+00</totfact>
</mgrwt>
</event>
<event>
 4    1  0.2878104E-007  0.9724997E+03  0.7818608E-02  0.9418455E-01
          2   -1    0    0  501    0  0.00000000000E+00  0.00000000000E+00  0.17068642667E+04  0.17068642667E+04  0.25500000000E-02 0. -1.
         -2   -1    0    0    0  501 -0.00000000000E+00 -0.00000000000E+00 -0.44551787506E+03  0.44551787507E+03  0.25500000000E-02 0.  1.
    8880023    1    1    2    0    0  0.51520760315E+02 -0.71364633419E+03  0.94244541301E+03  0.13542374392E+04  0.65864270000E+03 0.  1.
    8880022    1    1    2    0    0 -0.51520760315E+02  0.71364633419E+03  0.31890097866E+03  0.79814470258E+03  0.15294330000E+03 0. -1.
<mgrwt>
<rscale>  0 0.90572328E+03</rscale>
<asrwt>0</asrwt>
<pdfrwt beam="1">  1        2 0.26259451E+00 0.97249971E+03</pdfrwt>
<pdfrwt beam="2">  1       -2 0.68541211E-01 0.97249971E+03</pdfrwt>
<totfact> 0.18965902E+01</totfact>
</mgrwt>
</event>
<event>
 4    1  0.2878104E-007  0.8978479E+03  0.7818608E-02  0.9529495E-01
         -2   -1    0    0    0  501 -0.00000000000E+00  0.00000000000E+00  0.64785994242E+03  0.64785994242E+03  0.25500000000E-02 0.  1.
          2   -1    0    0  501    0  0.00000000000E+00 -0.00000000000E+00 -0.11192171657E+04  0.11192171657E+04  0.25500000000E-02 0. -1.
    8880023    1    1    2    0    0 -0.56907125167E+03 -0.22017855850E+03  0.11738821970E+03  0.90548930832E+03  0.65864270000E+03 0.  0.
    8880022    1    1    2    0    0  0.56907125167E+03  0.22017855850E+03 -0.58874544295E+03  0.86158779977E+03  0.15294330000E+03 0.  0.
<mgrwt>
<rscale>  0 0.82143752E+03</rscale>
<asrwt>0</asrwt>
<pdfrwt beam="1">  1        2 0.17218726E+00 0.89784792E+03</pdfrwt>
<pdfrwt beam="2">  1       -2 0.99670761E-01 0.89784792E+03</pdfrwt>
<totfact> 0.17701502E+01</totfact>
</mgrwt>
</event>
<event>
 4    1  0.2878104E-007  0.7870393E+03  0.7818608E-02  0.9739554E-01
         -2   -1    0    0    0  501 -0.00000000000E+00  0.00000000000E+00  0.32432004710E+03  0.32432004711E+03  0.25500000000E-02 0.  1.
          2   -1    0    0  501    0  0.00000000000E+00 -0.00000000000E+00 -0.26214384531E+04  0.26214384531E+04  0.25500000000E-02 0. -1.
    8880023    1    1    2    0    0  0.25130457204E+03 -0.34995245841E+03 -0.21758351486E+03  0.81656200210E+03  0.65864270000E+03 0.  0.
    8880022    1    1    2    0    0 -0.25130457204E+03  0.34995245841E+03 -0.20795348911E+04  0.21291964981E+04  0.15294330000E+03 0.  0.
<mgrwt>
<rscale>  0 0.68709822E+03</rscale>
<asrwt>0</asrwt>
<pdfrwt beam="1">  1        2 0.40329821E+00 0.78703934E+03</pdfrwt>
<pdfrwt beam="2">  1       -2 0.49895394E-01 0.78703934E+03</pdfrwt>
<totfact> 0.11741292E+01</totfact>
</mgrwt>
</event>
<event>
 4    1  0.2878104E-007  0.8069665E+03  0.7818608E-02  0.9695931E-01
          2   -1    0    0  501    0  0.00000000000E+00  0.00000000000E+00  0.47868026177E+03  0.47868026178E+03  0.25500000000E-02 0. -1.
         -2   -1    0    0    0  501 -0.00000000000E+00 -0.00000000000E+00 -0.11199533580E+04  0.11199533580E+04  0.25500000000E-02 0.  1.
    8880023    1    1    2    0    0  0.14882406595E+03 -0.44185528452E+03 -0.74366438943E+03  0.10973748792E+04  0.65864270000E+03 0.  1.
    8880022    1    1    2    0    0 -0.14882406595E+03  0.44185528452E+03  0.10239129323E+03  0.50125874058E+03  0.15294330000E+03 0.  0.
<mgrwt>
<rscale>  0 0.71259595E+03</rscale>
<asrwt>0</asrwt>
<pdfrwt beam="1">  1        2 0.73643118E-01 0.80696648E+03</pdfrwt>
<pdfrwt beam="2">  1       -2 0.17230052E+00 0.80696648E+03</pdfrwt>
<totfact> 0.13431722E+01</totfact>
</mgrwt>
</event>
<event>
 4    1  0.2878104E-007  0.1105571E+04  0.7818608E-02  0.9254879E-01
         -2   -1    0    0    0  501 -0.00000000000E+00  0.00000000000E+00  0.25073651196E+04  0.25073651196E+04  0.25500000000E-02 0.  1.
          2   -1    0    0  501    0  0.00000000000E+00 -0.00000000000E+00 -0.62949868029E+03  0.62949868030E+03  0.25500000000E-02 0. -1.
    8880023    1    1    2    0    0 -0.32877214841E+03 -0.82485537048E+03  0.19408272697E+04  0.22336289318E+04  0.65864270000E+03 0.  0.
    8880022    1    1    2    0    0  0.32877214841E+03  0.82485537048E+03 -0.62960830408E+02  0.90323486811E+03  0.15294330000E+03 0.  0.
<mgrwt>
<rscale>  0 0.10504510E+04</rscale>
<asrwt>0</asrwt>
<pdfrwt beam="1">  1        2 0.96845951E-01 0.11055712E+04</pdfrwt>
<pdfrwt beam="2">  1       -2 0.38574848E+00 0.11055712E+04</pdfrwt>
<totfact> 0.43104138E-01</totfact>
</mgrwt>
</event>
<event>
 4    1  0.2878104E-007  0.7566068E+03  0.7818608E-02  0.9813973E-01
          2   -1    0    0  501    0  0.00000000000E+00  0.00000000000E+00  0.15143125618E+04  0.15143125618E+04  0.25500000000E-02 0. -1.
         -2   -1    0    0    0  501 -0.00000000000E+00 -0.00000000000E+00 -0.11709792414E+04  0.11709792414E+04  0.25500000000E-02 0.  1.
    8880023    1    1    2    0    0  0.30843315945E+03  0.20859693989E+03 -0.10164760429E+04  0.12671532856E+04  0.65864270000E+03 0.  1.
    8880022    1    1    2    0    0 -0.30843315945E+03 -0.20859693989E+03  0.13598093634E+04  0.14181385176E+04  0.15294330000E+03 0.  0.
<mgrwt>
<rscale>  0 0.64618060E+03</rscale>
<asrwt>0</asrwt>
<pdfrwt beam="1">  1        2 0.23297117E+00 0.75660684E+03</pdfrwt>
<pdfrwt beam="2">  1       -2 0.18015065E+00 0.75660684E+03</pdfrwt>
<totfact> 0.23185730E+00</totfact>
</mgrwt>
</event>
<event>
 4    1  0.3497049E-007  0.9414227E+03  0.7818608E-02  0.9462564E-01
         -2   -1    0    0    0  501 -0.00000000000E+00  0.00000000000E+00  0.22016296012E+04  0.22016296012E+04  0.25500000000E-02 0.  1.
          2   -1    0    0  501    0  0.00000000000E+00 -0.00000000000E+00 -0.28982648385E+04  0.28982648385E+04  0.25500000000E-02 0. -1.
    8880023    1    1    2    0    0 -0.56211507537E+03  0.36944976657E+03  0.20564538266E+04  0.22616982635E+04  0.65864270000E+03 0.  1.
    8880022    1    1    2    0    0  0.56211507537E+03 -0.36944976657E+03 -0.27530890639E+04  0.28381961762E+04  0.15294330000E+03 0.  0.
<mgrwt>
<rscale>  0 0.87101009E+03</rscale>
<asrwt>0</asrwt>
<pdfrwt beam="1">  1        2 0.44588690E+00 0.94142270E+03</pdfrwt>
<pdfrwt beam="2">  1       -2 0.33871224E+00 0.94142270E+03</pdfrwt>
<totfact> 0.38658868E-02</totfact>
</mgrwt>
</event>
<event>
 4    1  0.2878104E-007  0.9371584E+03  0.7818608E-02  0.9468836E-01
         -2   -1    0    0    0  501 -0.00000000000E+00  0.00000000000E+00  0.24411738304E+04  0.24411738304E+04  0.25500000000E-02 0.  1.
          2   -1    0    0  501    0  0.00000000000E+00 -0.00000000000E+00 -0.91742766118E+03  0.91742766119E+03  0.25500000000E-02 0. -1.
    8880023    1    1    2    0    0  0.21431848569E+03  0.63128691378E+03  0.22033595789E+04  0.23943807594E+04  0.65864270000E+03 0.  0.
    8880022    1    1    2    0    0 -0.21431848569E+03 -0.63128691378E+03 -0.67961340966E+03  0.96422073221E+03  0.15294330000E+03 0. -1.
<mgrwt>
<rscale>  0 0.86620911E+03</rscale>
<asrwt>0</asrwt>
<pdfrwt beam="1">  1        2 0.14114272E+00 0.93715836E+03</pdfrwt>
<pdfrwt beam="2">  1       -2 0.37556520E+00 0.93715836E+03</pdfrwt>
<totfact> 0.31297251E-01</totfact>
</mgrwt>
</event>
<event>
 4    1  0.2878104E-007  0.1339517E+04  0.7818608E-02  0.9032165E-01
          2   -1    0    0  501    0  0.00000000000E+00  0.00000000000E+00  0.13506572791E+04  0.13506572791E+04  0.25500000000E-02 0. -1.
         -2   -1    0    0    0  501 -0.00000000000E+00 -0.00000000000E+00 -0.20873807188E+04  0.20873807188E+04  0.25500000000E-02 0.  1.
    8880023    1    1    2    0    0 -0.11656228153E+04 -0.42635180598E+02 -0.15190292776E+04  0.20252788595E+04  0.65864270000E+03 0.  0.
    8880022    1    1    2    0    0  0.11656228153E+04  0.42635180598E+02  0.78230583796E+03  0.14127591384E+04  0.15294330000E+03 0.  0.
<mgrwt>
<rscale>  0 0.12967271E+04</rscale>
<asrwt>0</asrwt>
<pdfrwt beam="1">  1        2 0.20779343E+00 0.13395165E+04</pdfrwt>
<pdfrwt beam="2">  1       -2 0.32113549E+00 0.13395165E+04</pdfrwt>
<totfact> 0.34960045E-01</totfact>
</mgrwt>
</event>
<event>
 4    1  0.2878104E-007  0.1910554E+04  0.7818608E-02  0.8663727E-01
          2   -1    0    0  501    0  0.00000000000E+00  0.00000000000E+00  0.30656607663E+04  0.30656607663E+04  0.25500000000E-02 0. -1.
         -2   -1    0    0    0  501 -0.00000000000E+00 -0.00000000000E+00 -0.13805549124E+04  0.13805549124E+04  0.25500000000E-02 0.  1.
    8880023    1    1    2    0    0 -0.91374520796E+03 -0.15432036984E+04 -0.97367289434E+02  0.19130338615E+04  0.65864270000E+03 0.  0.
    8880022    1    1    2    0    0  0.91374520796E+03  0.15432036984E+04  0.17824731433E+04  0.25331818173E+04  0.15294330000E+03 0.  0.
<mgrwt>
<rscale>  0 0.18822804E+04</rscale>
<asrwt>0</asrwt>
<pdfrwt beam="1">  1        2 0.47164012E+00 0.19105544E+04</pdfrwt>
<pdfrwt beam="2">  1       -2 0.21239306E+00 0.19105544E+04</pdfrwt>
<totfact> 0.15739521E-01</totfact>
</mgrwt>
</event>
<event>
 4    1  0.2878104E-007  0.6594082E+03  0.7818608E-02  0.1024771E+00
          2   -1    0    0  501    0  0.00000000000E+00  0.00000000000E+00  0.12097465963E+04  0.12097465963E+04  0.25500000000E-02 0. -1.
         -2   -1    0    0    0  501 -0.00000000000E+00 -0.00000000000E+00 -0.14044587063E+03  0.14044587065E+03  0.25500000000E-02 0.  1.
    8880023    1    1    2    0    0 -0.20840555368E+02  0.23972318539E+02  0.77972046305E+03  0.10211675708E+04  0.65864270000E+03 0.  0.
    8880022    1    1    2    0    0  0.20840555368E+02 -0.23972318539E+02  0.28958026267E+03  0.32902489624E+03  0.15294330000E+03 0.  1.
<mgrwt>
<rscale>  0 0.46003508E+03</rscale>
<asrwt>0</asrwt>
<pdfrwt beam="1">  1        2 0.18611486E+00 0.65940822E+03</pdfrwt>
<pdfrwt beam="2">  1       -2 0.21607058E-01 0.65940822E+03</pdfrwt>
<totfact> 0.35288150E+02</totfact>
</mgrwt>
</event>
<event>
 4    1  0.2878104E-007  0.9903550E+03  0.7818608E-02  0.9394286E-01
         -2   -1    0    0    0  501 -0.00000000000E+00  0.00000000000E+00  0.56869602509E+03  0.56869602510E+03  0.25500000000E-02 0.  1.
          2   -1    0    0  501    0  0.00000000000E+00 -0.00000000000E+00 -0.27786242628E+04  0.27786242628E+04  0.25500000000E-02 0. -1.
    8880023    1    1    2    0    0  0.22110688323E+03 -0.70576517504E+03  0.22491410151E+02  0.99061031991E+03  0.65864270000E+03 0. -1.
    8880022    1    1    2    0    0 -0.22110688323E+03  0.70576517504E+03 -0.22324196479E+04  0.23567099680E+04  0.15294330000E+03 0.  0.
<mgrwt>
<rscale>  0 0.92547377E+03</rscale>
<asrwt>0</asrwt>
<pdfrwt beam="1">  1        2 0.42748065E+00 0.99035496E+03</pdfrwt>
<pdfrwt beam="2">  1       -2 0.87491698E-01 0.99035496E+03</pdfrwt>
<totfact> 0.27321267E+00</totfact>
</mgrwt>
</event>
<event>
 4    1  0.2878104E-007  0.9176129E+03  0.7818608E-02  0.9498329E-01
          2   -1    0    0  501    0  0.00000000000E+00  0.00000000000E+00  0.31942303003E+04  0.31942303003E+04  0.25500000000E-02 0. -1.
         -2   -1    0    0    0  501 -0.00000000000E+00 -0.00000000000E+00 -0.37496302103E+03  0.37496302104E+03  0.25500000000E-02 0.  1.
    8880023    1    1    2    0    0  0.49567407188E+03  0.40312573382E+03  0.29959271752E+03  0.96528189948E+03  0.65864270000E+03 0.  1.
    8880022    1    1    2    0    0 -0.49567407188E+03 -0.40312573382E+03  0.25196745617E+04  0.26039114218E+04  0.15294330000E+03 0.  0.
<mgrwt>
<rscale>  0 0.84407131E+03</rscale>
<asrwt>0</asrwt>
<pdfrwt beam="1">  1        2 0.49142002E+00 0.91761285E+03</pdfrwt>
<pdfrwt beam="2">  1       -2 0.57686621E-01 0.91761285E+03</pdfrwt>
<totfact> 0.38326026E+00</totfact>
</mgrwt>
</event>
<event>
 4    1  0.2878104E-007  0.6814147E+03  0.7818608E-02  0.1008534E+00
         -2   -1    0    0    0  501 -0.00000000000E+00  0.00000000000E+00  0.96988014795E+03  0.96988014795E+03  0.25500000000E-02 0.  1.
          2   -1    0    0  501    0  0.00000000000E+00 -0.00000000000E+00 -0.10602844821E+04  0.10602844821E+04  0.25500000000E-02 0. -1.
    8880023    1    1    2    0    0 -0.13731494195E+03 -0.10798336975E+03  0.83404017141E+03  0.10770092921E+04  0.65864270000E+03 0.  1.
    8880022    1    1    2    0    0  0.13731494195E+03  0.10798336975E+03 -0.92444450557E+03  0.95315533798E+03  0.15294330000E+03 0.  0.
<mgrwt>
<rscale>  0 0.52061267E+03</rscale>
<asrwt>0</asrwt>
<pdfrwt beam="1">  1        2 0.16312069E+00 0.68141471E+03</pdfrwt>
<pdfrwt beam="2">  1       -2 0.14921233E+00 0.68141471E+03</pdfrwt>
<totfact> 0.72085114E+00</totfact>
</mgrwt>
</event>
<event>
 4    1  0.2878104E-007  0.7138315E+03  0.7818608E-02  0.9944039E-01
          2   -1    0    0  501    0  0.00000000000E+00  0.00000000000E+00  0.37242878613E+03  0.37242878613E+03  0.25500000000E-02 0. -1.
         -2   -1    0    0    0  501 -0.00000000000E+00 -0.00000000000E+00 -0.74084508105E+03  0.74084508105E+03  0.25500000000E-02 0.  1.
    8880023    1    1    2    0    0 -0.10829912705E+03 -0.25301474720E+03 -0.14822298912E+03  0.72905790167E+03  0.65864270000E+03 0.  0.
    8880022    1    1    2    0    0  0.10829912705E+03  0.25301474720E+03 -0.22019330580E+03  0.38421596552E+03  0.15294330000E+03 0.  0.
<mgrwt>
<rscale>  0 0.58173627E+03</rscale>
<asrwt>0</asrwt>
<pdfrwt beam="1">  1        2 0.57296737E-01 0.71383147E+03</pdfrwt>
<pdfrwt beam="2">  1       -2 0.11397617E+00 0.71383147E+03</pdfrwt>
<totfact> 0.52626431E+01</totfact>
</mgrwt>
</event>
<event>
 4    1  0.2878104E-007  0.1199731E+04  0.7818608E-02  0.9157384E-01
          2   -1    0    0  501    0  0.00000000000E+00  0.00000000000E+00  0.30978156981E+04  0.30978156981E+04  0.25500000000E-02 0. -1.
         -2   -1    0    0    0  501 -0.00000000000E+00 -0.00000000000E+00 -0.50486119508E+03  0.50486119508E+03  0.25500000000E-02 0.  1.
    8880023    1    1    2    0    0 -0.52705642942E+03 -0.85308612948E+03  0.54591420541E+03  0.13180959563E+04  0.65864270000E+03 0.  1.
    8880022    1    1    2    0    0  0.52705642942E+03  0.85308612948E+03  0.20470402976E+04  0.22845809369E+04  0.15294330000E+03 0. -1.
<mgrwt>
<rscale>  0 0.11504334E+04</rscale>
<asrwt>0</asrwt>
<pdfrwt beam="1">  1        2 0.47658704E+00 0.11997311E+04</pdfrwt>
<pdfrwt beam="2">  1       -2 0.77670952E-01 0.11997311E+04</pdfrwt>
<totfact> 0.22201347E+00</totfact>
</mgrwt>
</event>
<event>
 4    1  0.2878104E-007  0.8123279E+03  0.7818608E-02  0.9684748E-01
         -2   -1    0    0    0  501 -0.00000000000E+00  0.00000000000E+00  0.95664181996E+03  0.95664181997E+03  0.25500000000E-02 0.  1.
          2   -1    0    0  501    0  0.00000000000E+00 -0.00000000000E+00 -0.99468488151E+03  0.99468488151E+03  0.25500000000E-02 0. -1.
    8880023    1    1    2    0    0 -0.42961134359E+03  0.20371658731E+03  0.69177149267E+03  0.10669697085E+04  0.65864270000E+03 0.  1.
    8880022    1    1    2    0    0  0.42961134359E+03 -0.20371658731E+03 -0.72981455422E+03  0.88435699299E+03  0.15294330000E+03 0.  0.
<mgrwt>
<rscale>  0 0.71932175E+03</rscale>
<asrwt>0</asrwt>
<pdfrwt beam="1">  1        2 0.15302844E+00 0.81232787E+03</pdfrwt>
<pdfrwt beam="2">  1       -2 0.14717567E+00 0.81232787E+03</pdfrwt>
<totfact> 0.80843557E+00</totfact>
</mgrwt>
</event>
<event>
 4    1  0.2878104E-007  0.9274321E+03  0.7818608E-02  0.9483356E-01
         -2   -1    0    0    0  501 -0.00000000000E+00  0.00000000000E+00  0.50612121097E+03  0.50612121098E+03  0.25500000000E-02 0.  1.
          2   -1    0    0  501    0  0.00000000000E+00 -0.00000000000E+00 -0.18686947425E+04  0.18686947425E+04  0.25500000000E-02 0. -1.
    8880023    1    1    2    0    0 -0.62600274802E+03 -0.18558209657E+03 -0.84225204941E+02  0.93124875651E+03  0.65864270000E+03 0.  1.
    8880022    1    1    2    0    0  0.62600274802E+03  0.18558209657E+03 -0.12783483266E+04  0.14435671970E+04  0.15294330000E+03 0.  0.
<mgrwt>
<rscale>  0 0.85522107E+03</rscale>
<asrwt>0</asrwt>
<pdfrwt beam="1">  1        2 0.28749149E+00 0.92743213E+03</pdfrwt>
<pdfrwt beam="2">  1       -2 0.77864803E-01 0.92743213E+03</pdfrwt>
<totfact> 0.11711012E+01</totfact>
</mgrwt>
</event>
<event>
 4    1  0.2878104E-007  0.1661719E+04  0.7818608E-02  0.8803151E-01
          2   -1    0    0  501    0  0.00000000000E+00  0.00000000000E+00  0.34532212303E+04  0.34532212303E+04  0.25500000000E-02 0. -1.
         -2   -1    0    0    0  501 -0.00000000000E+00 -0.00000000000E+00 -0.92923845384E+03  0.92923845385E+03  0.25500000000E-02 0.  1.
    8880023    1    1    2    0    0  0.31962762559E+02 -0.15252793357E+04  0.31155842485E+03  0.16906736907E+04  0.65864270000E+03 0.  0.
    8880022    1    1    2    0    0 -0.31962762559E+02  0.15252793357E+04  0.22124243516E+04  0.26917859934E+04  0.15294330000E+03 0.  0.
<mgrwt>
<rscale>  0 0.16286290E+04</rscale>
<asrwt>0</asrwt>
<pdfrwt beam="1">  1        2 0.53126481E+00 0.16617187E+04</pdfrwt>
<pdfrwt beam="2">  1       -2 0.14295976E+00 0.16617187E+04</pdfrwt>
<totfact> 0.27885979E-01</totfact>
</mgrwt>
</event>
<event>
 4    1  0.2878104E-007  0.1936191E+04  0.7818608E-02  0.8650721E-01
          2   -1    0    0  501    0  0.00000000000E+00  0.00000000000E+00  0.17733925078E+04  0.17733925078E+04  0.25500000000E-02 0. -1.
         -2   -1    0    0    0  501 -0.00000000000E+00 -0.00000000000E+00 -0.21082502080E+04  0.21082502080E+04  0.25500000000E-02 0.  1.
    8880023    1    1    2    0    0 -0.14497861800E+04 -0.11014285534E+04  0.27455144949E+03  0.19555596464E+04  0.65864270000E+03 0. -1.
    8880022    1    1    2    0    0  0.14497861800E+04  0.11014285534E+04 -0.60940914963E+03  0.19260830695E+04  0.15294330000E+03 0.  1.
<mgrwt>
<rscale>  0 0.19083309E+04</rscale>
<asrwt>0</asrwt>
<pdfrwt beam="1">  1        2 0.27282962E+00 0.19361909E+04</pdfrwt>
<pdfrwt beam="2">  1       -2 0.32434619E+00 0.19361909E+04</pdfrwt>
<totfact> 0.18041078E-01</totfact>
</mgrwt>
</event>
<event>
 4    1  0.2878104E-007  0.1108763E+04  0.7818608E-02  0.9251362E-01
          2   -1    0    0  501    0  0.00000000000E+00  0.00000000000E+00  0.24642363442E+04  0.24642363442E+04  0.25500000000E-02 0. -1.
         -2   -1    0    0    0  501 -0.00000000000E+00 -0.00000000000E+00 -0.11176376227E+04  0.11176376227E+04  0.25500000000E-02 0.  1.
    8880023    1    1    2    0    0 -0.61656212754E+03  0.64451184648E+03 -0.72259761969E+03  0.13234432000E+04  0.65864270000E+03 0.  1.
    8880022    1    1    2    0    0  0.61656212754E+03 -0.64451184648E+03  0.20691963412E+04  0.22584307669E+04  0.15294330000E+03 0.  0.
<mgrwt>
<rscale>  0 0.10538655E+04</rscale>
<asrwt>0</asrwt>
<pdfrwt beam="1">  1        2 0.37911328E+00 0.11087626E+04</pdfrwt>
<pdfrwt beam="2">  1       -2 0.17194425E+00 0.11087626E+04</pdfrwt>
<totfact> 0.74513479E-01</totfact>
</mgrwt>
</event>
<event>
 4    1  0.3245247E-007  0.1802825E+04  0.7818608E-02  0.8720975E-01
         -2   -1    0    0    0  501 -0.00000000000E+00  0.00000000000E+00  0.20853386221E+04  0.20853386221E+04  0.25500000000E-02 0.  1.
          2   -1    0    0  501    0  0.00000000000E+00 -0.00000000000E+00 -0.26261419343E+04  0.26261419343E+04  0.25500000000E-02 0. -1.
    8880023    1    1    2    0    0 -0.12066931256E+04  0.11663021086E+04  0.12948302545E+04  0.22196316140E+04  0.65864270000E+03 0.  0.
    8880022    1    1    2    0    0  0.12066931256E+04 -0.11663021086E+04 -0.18356335667E+04  0.24918489424E+04  0.15294330000E+03 0.  0.
<mgrwt>
<rscale>  0 0.17726600E+04</rscale>
<asrwt>0</asrwt>
<pdfrwt beam="1">  1        2 0.40402184E+00 0.18028253E+04</pdfrwt>
<pdfrwt beam="2">  1       -2 0.32082132E+00 0.18028253E+04</pdfrwt>
<totfact> 0.62832771E-02</totfact>
</mgrwt>
</event>
<event>
 4    1  0.2878104E-007  0.1234449E+04  0.7818608E-02  0.9124341E-01
          2   -1    0    0  501    0  0.00000000000E+00  0.00000000000E+00  0.10145536238E+04  0.10145536238E+04  0.25500000000E-02 0. -1.
         -2   -1    0    0    0  501 -0.00000000000E+00 -0.00000000000E+00 -0.23950521851E+04  0.23950521851E+04  0.25500000000E-02 0.  1.
    8880023    1    1    2    0    0 -0.10230503481E+04  0.20838224613E+03 -0.18745247942E+04  0.22444840355E+04  0.65864270000E+03 0.  0.
    8880022    1    1    2    0    0  0.10230503481E+04 -0.20838224613E+03  0.49402623291E+03  0.11651217735E+04  0.15294330000E+03 0.  0.
<mgrwt>
<rscale>  0 0.11869670E+04</rscale>
<asrwt>0</asrwt>
<pdfrwt beam="1">  1        2 0.15608517E+00 0.12344494E+04</pdfrwt>
<pdfrwt beam="2">  1       -2 0.36846957E+00 0.12344494E+04</pdfrwt>
<totfact> 0.28675834E-01</totfact>
</mgrwt>
</event>
<event>
 4    1  0.2878104E-007  0.9046398E+03  0.7818608E-02  0.9518624E-01
          2   -1    0    0  501    0  0.00000000000E+00  0.00000000000E+00  0.55387431786E+03  0.55387431786E+03  0.25500000000E-02 0. -1.
         -2   -1    0    0    0  501 -0.00000000000E+00 -0.00000000000E+00 -0.16517312907E+04  0.16517312907E+04  0.25500000000E-02 0.  1.
    8880023    1    1    2    0    0 -0.59808548974E+03  0.16388036474E+03 -0.12557462838E+04  0.15476666186E+04  0.65864270000E+03 0.  1.
    8880022    1    1    2    0    0  0.59808548974E+03 -0.16388036474E+03  0.15788931090E+03  0.65793898995E+03  0.15294330000E+03 0.  0.
<mgrwt>
<rscale>  0 0.82924578E+03</rscale>
<asrwt>0</asrwt>
<pdfrwt beam="1">  1        2 0.85211434E-01 0.90463984E+03</pdfrwt>
<pdfrwt beam="2">  1       -2 0.25411250E+00 0.90463984E+03</pdfrwt>
<totfact> 0.33445960E+00</totfact>
</mgrwt>
</event>
<event>
 4    1  0.2878104E-007  0.8070579E+03  0.7818608E-02  0.9695738E-01
          2   -1    0    0  501    0  0.00000000000E+00  0.00000000000E+00  0.67733147253E+03  0.67733147253E+03  0.25500000000E-02 0. -1.
         -2   -1    0    0    0  501 -0.00000000000E+00 -0.00000000000E+00 -0.65610898827E+03  0.65610898828E+03  0.25500000000E-02 0.  1.
    8880023    1    1    2    0    0  0.23638945182E+03 -0.40206005608E+03 -0.13514538082E+03  0.81829502128E+03  0.65864270000E+03 0. -1.
    8880022    1    1    2    0    0 -0.23638945182E+03  0.40206005608E+03  0.15636786507E+03  0.51514543953E+03  0.15294330000E+03 0.  0.
<mgrwt>
<rscale>  0 0.71271108E+03</rscale>
<asrwt>0</asrwt>
<pdfrwt beam="1">  1        2 0.10420484E+00 0.80705791E+03</pdfrwt>
<pdfrwt beam="2">  1       -2 0.10093984E+00 0.80705791E+03</pdfrwt>
<totfact> 0.34799340E+01</totfact>
</mgrwt>
</event>
<event>
 4    1  0.2878104E-007  0.1171409E+04  0.7818608E-02  0.9185428E-01
          2   -1    0    0  501    0  0.00000000000E+00  0.00000000000E+00  0.29649895567E+04  0.29649895567E+04  0.25500000000E-02 0. -1.
         -2   -1    0    0    0  501 -0.00000000000E+00 -0.00000000000E+00 -0.71889773347E+03  0.71889773347E+03  0.25500000000E-02 0.  1.
    8880023    1    1    2    0    0  0.88718827790E+03 -0.38895551835E+03 -0.65115832190E+02  0.11732176753E+04  0.65864270000E+03 0.  0.
    8880022    1    1    2    0    0 -0.88718827790E+03  0.38895551835E+03  0.23112076554E+04  0.25106696149E+04  0.15294330000E+03 0.  0.
<mgrwt>
<rscale>  0 0.11205107E+04</rscale>
<asrwt>0</asrwt>
<pdfrwt beam="1">  1        2 0.45615224E+00 0.11714093E+04</pdfrwt>
<pdfrwt beam="2">  1       -2 0.11059965E+00 0.11714093E+04</pdfrwt>
<totfact> 0.11782872E+00</totfact>
</mgrwt>
</event>
<event>
 4    1  0.2878104E-007  0.8948369E+03  0.7818608E-02  0.9534371E-01
          2   -1    0    0  501    0  0.00000000000E+00  0.00000000000E+00  0.13788668564E+04  0.13788668564E+04  0.25500000000E-02 0. -1.
         -2   -1    0    0    0  501 -0.00000000000E+00 -0.00000000000E+00 -0.11098331783E+04  0.11098331783E+04  0.25500000000E-02 0.  1.
    8880023    1    1    2    0    0  0.11080361747E+03  0.59552112254E+03 -0.83258001302E+03  0.12222612378E+04  0.65864270000E+03 0.  1.
    8880022    1    1    2    0    0 -0.11080361747E+03 -0.59552112254E+03  0.11016136911E+04  0.12664387970E+04  0.15294330000E+03 0.  0.
<mgrwt>
<rscale>  0 0.81796504E+03</rscale>
<asrwt>0</asrwt>
<pdfrwt beam="1">  1        2 0.21213336E+00 0.89483689E+03</pdfrwt>
<pdfrwt beam="2">  1       -2 0.17074357E+00 0.89483689E+03</pdfrwt>
<totfact> 0.31486348E+00</totfact>
</mgrwt>
</event>
<event>
 4    1  0.2878104E-007  0.8825354E+03  0.7818608E-02  0.9554670E-01
         -2   -1    0    0    0  501 -0.00000000000E+00  0.00000000000E+00  0.13372160729E+04  0.13372160729E+04  0.25500000000E-02 0.  1.
          2   -1    0    0  501    0  0.00000000000E+00 -0.00000000000E+00 -0.58690341975E+03  0.58690341975E+03  0.25500000000E-02 0. -1.
    8880023    1    1    2    0    0 -0.52472677934E+03 -0.26404616346E+03  0.93883325067E+03  0.12885172285E+04  0.65864270000E+03 0.  0.
    8880022    1    1    2    0    0  0.52472677934E+03  0.26404616346E+03 -0.18852059755E+03  0.63560226409E+03  0.15294330000E+03 0.  0.
<mgrwt>
<rscale>  0 0.80370462E+03</rscale>
<asrwt>0</asrwt>
<pdfrwt beam="1">  1        2 0.90292834E-01 0.88253542E+03</pdfrwt>
<pdfrwt beam="2">  1       -2 0.20572555E+00 0.88253542E+03</pdfrwt>
<totfact> 0.62535041E+00</totfact>
</mgrwt>
</event>
<event>
 4    1  0.2878104E-007  0.1479397E+04  0.7818608E-02  0.8924323E-01
          2   -1    0    0  501    0  0.00000000000E+00  0.00000000000E+00  0.16365223869E+04  0.16365223869E+04  0.25500000000E-02 0. -1.
         -2   -1    0    0    0  501 -0.00000000000E+00 -0.00000000000E+00 -0.12373222806E+04  0.12373222806E+04  0.25500000000E-02 0.  1.
    8880023    1    1    2    0    0  0.10926110045E+04 -0.74900462837E+03  0.42792455226E+03  0.15400442750E+04  0.65864270000E+03 0. -1.
    8880022    1    1    2    0    0 -0.10926110045E+04  0.74900462837E+03 -0.28724445960E+02  0.13338003926E+04  0.15294330000E+03 0.  0.
<mgrwt>
<rscale>  0 0.14414885E+04</rscale>
<asrwt>0</asrwt>
<pdfrwt beam="1">  1        2 0.25177268E+00 0.14793975E+04</pdfrwt>
<pdfrwt beam="2">  1       -2 0.19035727E+00 0.14793975E+04</pdfrwt>
<totfact> 0.15475899E+00</totfact>
</mgrwt>
</event>
<event>
 4    1  0.2878104E-007  0.8761879E+03  0.7818608E-02  0.9565393E-01
          2   -1    0    0  501    0  0.00000000000E+00  0.00000000000E+00  0.61084895366E+03  0.61084895367E+03  0.25500000000E-02 0. -1.
         -2   -1    0    0    0  501 -0.00000000000E+00 -0.00000000000E+00 -0.19913389901E+04  0.19913389901E+04  0.25500000000E-02 0.  1.
    8880023    1    1    2    0    0  0.15625942408E+03  0.55630751026E+03 -0.17087163404E+04  0.19202647712E+04  0.65864270000E+03 0.  1.
    8880022    1    1    2    0    0 -0.15625942408E+03 -0.55630751026E+03  0.32822630394E+03  0.68192317251E+03  0.15294330000E+03 0.  0.
<mgrwt>
<rscale>  0 0.79629695E+03</rscale>
<asrwt>0</asrwt>
<pdfrwt beam="1">  1        2 0.93976763E-01 0.87618791E+03</pdfrwt>
<pdfrwt beam="2">  1       -2 0.30635984E+00 0.87618791E+03</pdfrwt>
<totfact> 0.14433285E+00</totfact>
</mgrwt>
</event>
<event>
 4    1  0.2878104E-007  0.1170554E+04  0.7818608E-02  0.9186291E-01
          2   -1    0    0  501    0  0.00000000000E+00  0.00000000000E+00  0.29496214281E+04  0.29496214281E+04  0.25500000000E-02 0. -1.
         -2   -1    0    0    0  501 -0.00000000000E+00 -0.00000000000E+00 -0.55469454254E+03  0.55469454255E+03  0.25500000000E-02 0.  1.
    8880023    1    1    2    0    0 -0.96002159874E+03 -0.12142856164E+03  0.32590903362E+03  0.12150774749E+04  0.65864270000E+03 0.  1.
    8880022    1    1    2    0    0  0.96002159874E+03  0.12142856164E+03  0.20690178519E+04  0.22892384957E+04  0.15294330000E+03 0.  0.
<mgrwt>
<rscale>  0 0.11196053E+04</rscale>
<asrwt>0</asrwt>
<pdfrwt beam="1">  1        2 0.45378792E+00 0.11705540E+04</pdfrwt>
<pdfrwt beam="2">  1       -2 0.85337621E-01 0.11705540E+04</pdfrwt>
<totfact> 0.22253405E+00</totfact>
</mgrwt>
</event>
<event>
 4    1  0.2878104E-007  0.6660072E+03  0.7818608E-02  0.1018703E+00
         -2   -1    0    0    0  501 -0.00000000000E+00  0.00000000000E+00  0.47326584834E+03  0.47326584835E+03  0.25500000000E-02 0.  1.
          2   -1    0    0  501    0  0.00000000000E+00 -0.00000000000E+00 -0.15001938857E+04  0.15001938857E+04  0.25500000000E-02 0. -1.
    8880023    1    1    2    0    0  0.76934679591E+02  0.61938973004E+02  0.22909637603E+03  0.70430869445E+03  0.65864270000E+03 0.  1.
    8880022    1    1    2    0    0 -0.76934679591E+02 -0.61938973004E+02 -0.12560244134E+04  0.12691510396E+04  0.15294330000E+03 0.  0.
<mgrwt>
<rscale>  0 0.48157594E+03</rscale>
<asrwt>0</asrwt>
<pdfrwt beam="1">  1        2 0.23079906E+00 0.66600720E+03</pdfrwt>
<pdfrwt beam="2">  1       -2 0.72810131E-01 0.66600720E+03</pdfrwt>
<totfact> 0.22392555E+01</totfact>
</mgrwt>
</event>
<event>
 4    1  0.2878104E-007  0.7424321E+03  0.7818608E-02  0.9852918E-01
         -2   -1    0    0    0  501 -0.00000000000E+00  0.00000000000E+00  0.84014773233E+03  0.84014773234E+03  0.25500000000E-02 0.  1.
          2   -1    0    0  501    0  0.00000000000E+00 -0.00000000000E+00 -0.16362984204E+04  0.16362984204E+04  0.25500000000E-02 0. -1.
    8880023    1    1    2    0    0  0.33219398358E+03  0.83918966173E+02  0.64732239784E+03  0.98500341554E+03  0.65864270000E+03 0.  0.
    8880022    1    1    2    0    0 -0.33219398358E+03 -0.83918966173E+02 -0.14434730859E+04  0.14914427372E+04  0.15294330000E+03 0. -1.
<mgrwt>
<rscale>  0 0.62598343E+03</rscale>
<asrwt>0</asrwt>
<pdfrwt beam="1">  1        2 0.25173822E+00 0.74243211E+03</pdfrwt>
<pdfrwt beam="2">  1       -2 0.12925350E+00 0.74243211E+03</pdfrwt>
<totfact> 0.48280909E+00</totfact>
</mgrwt>
</event>
<event>
 4    1  0.2878104E-007  0.7795036E+03  0.7818608E-02  0.9757004E-01
          2   -1    0    0  501    0  0.00000000000E+00  0.00000000000E+00  0.12125039515E+04  0.12125039515E+04  0.25500000000E-02 0. -1.
         -2   -1    0    0    0  501 -0.00000000000E+00 -0.00000000000E+00 -0.10027862524E+04  0.10027862524E+04  0.25500000000E-02 0.  1.
    8880023    1    1    2    0    0  0.25615344782E+03  0.32893932979E+03 -0.79709359336E+03  0.11148919564E+04  0.65864270000E+03 0.  1.
    8880022    1    1    2    0    0 -0.25615344782E+03 -0.32893932979E+03  0.10068112925E+04  0.11003982475E+04  0.15294330000E+03 0.  0.
<mgrwt>
<rscale>  0 0.67721876E+03</rscale>
<asrwt>0</asrwt>
<pdfrwt beam="1">  1        2 0.18653907E+00 0.77950361E+03</pdfrwt>
<pdfrwt beam="2">  1       -2 0.15427481E+00 0.77950361E+03</pdfrwt>
<totfact> 0.52671120E+00</totfact>
</mgrwt>
</event>
<event>
 4    1  0.2878104E-007  0.1130999E+04  0.7818608E-02  0.9227303E-01
          2   -1    0    0  501    0  0.00000000000E+00  0.00000000000E+00  0.16456703621E+04  0.16456703621E+04  0.25500000000E-02 0. -1.
         -2   -1    0    0    0  501 -0.00000000000E+00 -0.00000000000E+00 -0.77349587397E+03  0.77349587397E+03  0.25500000000E-02 0.  1.
    8880023    1    1    2    0    0  0.88483098845E+03 -0.24984588092E+03 -0.16820322385E+02  0.11311242071E+04  0.65864270000E+03 0.  0.
    8880022    1    1    2    0    0 -0.88483098845E+03  0.24984588092E+03  0.88899481051E+03  0.12880420290E+04  0.15294330000E+03 0.  0.
<mgrwt>
<rscale>  0 0.10776009E+04</rscale>
<asrwt>0</asrwt>
<pdfrwt beam="1">  1        2 0.25318006E+00 0.11309991E+04</pdfrwt>
<pdfrwt beam="2">  1       -2 0.11899937E+00 0.11309991E+04</pdfrwt>
<totfact> 0.55961617E+00</totfact>
</mgrwt>
</event>
<event>
 4    1  0.2878104E-007  0.6654832E+03  0.7818608E-02  0.1019131E+00
         -2   -1    0    0    0  501 -0.00000000000E+00  0.00000000000E+00  0.11719818044E+03  0.11719818047E+03  0.25500000000E-02 0.  1.
          2   -1    0    0  501    0  0.00000000000E+00 -0.00000000000E+00 -0.22449634990E+04  0.22449634990E+04  0.25500000000E-02 0. -1.
    8880023    1    1    2    0    0  0.77595646140E+02  0.55105299545E+02 -0.88965076357E+03  0.11110114157E+04  0.65864270000E+03 0.  1.
    8880022    1    1    2    0    0 -0.77595646140E+02 -0.55105299545E+02 -0.12381145550E+04  0.12511502638E+04  0.15294330000E+03 0.  0.
<mgrwt>
<rscale>  0 0.48001360E+03</rscale>
<asrwt>0</asrwt>
<pdfrwt beam="1">  1        2 0.34537897E+00 0.66548320E+03</pdfrwt>
<pdfrwt beam="2">  1       -2 0.18030491E-01 0.66548320E+03</pdfrwt>
<totfact> 0.12960589E+02</totfact>
</mgrwt>
</event>
<event>
 4    1  0.2878104E-007  0.6650937E+03  0.7818608E-02  0.1019455E+00
          2   -1    0    0  501    0  0.00000000000E+00  0.00000000000E+00  0.32380146689E+03  0.32380146690E+03  0.25500000000E-02 0. -1.
         -2   -1    0    0    0  501 -0.00000000000E+00 -0.00000000000E+00 -0.10894056303E+04  0.10894056303E+04  0.25500000000E-02 0.  1.
    8880023    1    1    2    0    0 -0.86646614202E+02 -0.32121142935E+02 -0.94788705445E+03  0.11579462327E+04  0.65864270000E+03 0.  1.
    8880022    1    1    2    0    0  0.86646614202E+02  0.32121142935E+02  0.18228289102E+03  0.25526086451E+03  0.15294330000E+03 0.  0.
<mgrwt>
<rscale>  0 0.47883819E+03</rscale>
<asrwt>0</asrwt>
<pdfrwt beam="1">  1        2 0.49815611E-01 0.66509369E+03</pdfrwt>
<pdfrwt beam="2">  1       -2 0.16760086E+00 0.66509369E+03</pdfrwt>
<totfact> 0.22818514E+01</totfact>
</mgrwt>
</event>
<event>
 4    1  0.2878104E-007  0.8000149E+03  0.7818608E-02  0.9710764E-01
         -2   -1    0    0    0  501 -0.00000000000E+00  0.00000000000E+00  0.72430721615E+03  0.72430721616E+03  0.25500000000E-02 0.  1.
          2   -1    0    0  501    0  0.00000000000E+00 -0.00000000000E+00 -0.12192224857E+04  0.12192224857E+04  0.25500000000E-02 0. -1.
    8880023    1    1    2    0    0  0.45396549790E+03 -0.11355635305E+02  0.42529597994E+03  0.90603559564E+03  0.65864270000E+03 0.  1.
    8880022    1    1    2    0    0 -0.45396549790E+03  0.11355635305E+02 -0.92021124947E+03  0.10374941062E+04  0.15294330000E+03 0.  0.
<mgrwt>
<rscale>  0 0.70379518E+03</rscale>
<asrwt>0</asrwt>
<pdfrwt beam="1">  1        2 0.18757269E+00 0.80001489E+03</pdfrwt>
<pdfrwt beam="2">  1       -2 0.11143188E+00 0.80001489E+03</pdfrwt>
<totfact> 0.11908280E+01</totfact>
</mgrwt>
</event>
<event>
 4    1  0.2878104E-007  0.1243347E+04  0.7818608E-02  0.9116096E-01
          2   -1    0    0  501    0  0.00000000000E+00  0.00000000000E+00  0.18159349700E+04  0.18159349700E+04  0.25500000000E-02 0. -1.
         -2   -1    0    0    0  501 -0.00000000000E+00 -0.00000000000E+00 -0.89149068902E+03  0.89149068903E+03  0.25500000000E-02 0.  1.
    8880023    1    1    2    0    0  0.56449412390E+03 -0.89075682063E+03 -0.76162944773E+02  0.12456774582E+04  0.65864270000E+03 0.  0.
    8880022    1    1    2    0    0 -0.56449412390E+03  0.89075682063E+03  0.10006072257E+04  0.14617482008E+04  0.15294330000E+03 0.  0.
<mgrwt>
<rscale>  0 0.11963060E+04</rscale>
<asrwt>0</asrwt>
<pdfrwt beam="1">  1        2 0.27937461E+00 0.12433469E+04</pdfrwt>
<pdfrwt beam="2">  1       -2 0.13715242E+00 0.12433469E+04</pdfrwt>
<totfact> 0.31045059E+00</totfact>
</mgrwt>
</event>
<event>
 4    1  0.2878104E-007  0.7240387E+03  0.7818608E-02  0.9909150E-01
         -2   -1    0    0    0  501 -0.00000000000E+00  0.00000000000E+00  0.24811684010E+04  0.24811684010E+04  0.25500000000E-02 0.  1.
          2   -1    0    0  501    0  0.00000000000E+00 -0.00000000000E+00 -0.40355066471E+03  0.40355066472E+03  0.25500000000E-02 0. -1.
    8880023    1    1    2    0    0  0.21030865948E+03  0.21492352224E+03  0.23450087822E+04  0.24542408699E+04  0.65864270000E+03 0.  0.
    8880022    1    1    2    0    0 -0.21030865948E+03 -0.21492352224E+03 -0.26739104588E+03  0.43047819584E+03  0.15294330000E+03 0.  0.
<mgrwt>
<rscale>  0 0.59819884E+03</rscale>
<asrwt>0</asrwt>
<pdfrwt beam="1">  1        2 0.62084719E-01 0.72403871E+03</pdfrwt>
<pdfrwt beam="2">  1       -2 0.38171821E+00 0.72403871E+03</pdfrwt>
<totfact> 0.81830231E-01</totfact>
</mgrwt>
</event>
<event>
 4    1  0.2878104E-007  0.6762047E+03  0.7818608E-02  0.1011557E+00
         -2   -1    0    0    0  501 -0.00000000000E+00  0.00000000000E+00  0.22557530981E+03  0.22557530983E+03  0.25500000000E-02 0.  1.
          2   -1    0    0  501    0  0.00000000000E+00 -0.00000000000E+00 -0.33878560290E+04  0.33878560290E+04  0.25500000000E-02 0. -1.
    8880023    1    1    2    0    0  0.93060157815E+02  0.12158291979E+03 -0.29459275324E+03  0.73758911047E+03  0.65864270000E+03 0.  1.
    8880022    1    1    2    0    0 -0.93060157815E+02 -0.12158291979E+03 -0.28676879659E+04  0.28758422283E+04  0.15294330000E+03 0.  0.
<mgrwt>
<rscale>  0 0.50860320E+03</rscale>
<asrwt>0</asrwt>
<pdfrwt beam="1">  1        2 0.52120858E+00 0.67620471E+03</pdfrwt>
<pdfrwt beam="2">  1       -2 0.34703896E-01 0.67620471E+03</pdfrwt>
<totfact> 0.82725954E+00</totfact>
</mgrwt>
</event>
<event>
 4    1  0.2878104E-007  0.9403789E+03  0.7818608E-02  0.9464094E-01
          2   -1    0    0  501    0  0.00000000000E+00  0.00000000000E+00  0.25586679529E+04  0.25586679529E+04  0.25500000000E-02 0. -1.
         -2   -1    0    0    0  501 -0.00000000000E+00 -0.00000000000E+00 -0.35993863207E+03  0.35993863208E+03  0.25500000000E-02 0.  1.
    8880023    1    1    2    0    0  0.58007556134E+03 -0.33766059501E+03  0.45653997167E+03  0.10453426645E+04  0.65864270000E+03 0.  0.
    8880022    1    1    2    0    0 -0.58007556134E+03  0.33766059501E+03  0.17421893491E+04  0.18732639204E+04  0.15294330000E+03 0.  0.
<mgrwt>
<rscale>  0 0.86983588E+03</rscale>
<asrwt>0</asrwt>
<pdfrwt beam="1">  1        2 0.39364121E+00 0.94037893E+03</pdfrwt>
<pdfrwt beam="2">  1       -2 0.55375176E-01 0.94037893E+03</pdfrwt>
<totfact> 0.10069451E+01</totfact>
</mgrwt>
</event>
<event>
 4    1  0.2878104E-007  0.1107111E+04  0.7818608E-02  0.9253180E-01
         -2   -1    0    0    0  501 -0.00000000000E+00  0.00000000000E+00  0.53833858416E+03  0.53833858416E+03  0.25500000000E-02 0.  1.
          2   -1    0    0  501    0  0.00000000000E+00 -0.00000000000E+00 -0.19480049003E+04  0.19480049003E+04  0.25500000000E-02 0. -1.
    8880023    1    1    2    0    0 -0.88726221771E+03  0.68196084118E+02 -0.53640441416E+03  0.12302133354E+04  0.65864270000E+03 0.  1.
    8880022    1    1    2    0    0  0.88726221771E+03 -0.68196084118E+02 -0.87326190201E+03  0.12561301491E+04  0.15294330000E+03 0.  0.
<mgrwt>
<rscale>  0 0.10520989E+04</rscale>
<asrwt>0</asrwt>
<pdfrwt beam="1">  1        2 0.29969306E+00 0.11071112E+04</pdfrwt>
<pdfrwt beam="2">  1       -2 0.82821321E-01 0.11071112E+04</pdfrwt>
<totfact> 0.90359266E+00</totfact>
</mgrwt>
</event>
<event>
 4    1  0.2878104E-007  0.9173628E+03  0.7818608E-02  0.9498715E-01
         -2   -1    0    0    0  501 -0.00000000000E+00  0.00000000000E+00  0.45046686315E+03  0.45046686315E+03  0.25500000000E-02 0.  1.
          2   -1    0    0  501    0  0.00000000000E+00 -0.00000000000E+00 -0.24824636794E+04  0.24824636794E+04  0.25500000000E-02 0. -1.
    8880023    1    1    2    0    0 -0.38708163630E+03  0.50785048073E+03 -0.13716973539E+03  0.92756134380E+03  0.65864270000E+03 0.  0.
    8880022    1    1    2    0    0  0.38708163630E+03 -0.50785048073E+03 -0.18948270809E+04  0.20053691988E+04  0.15294330000E+03 0. -1.
<mgrwt>
<rscale>  0 0.84378660E+03</rscale>
<asrwt>0</asrwt>
<pdfrwt beam="1">  1        2 0.38191748E+00 0.91736280E+03</pdfrwt>
<pdfrwt beam="2">  1       -2 0.69302596E-01 0.91736280E+03</pdfrwt>
<totfact> 0.69197480E+00</totfact>
</mgrwt>
</event>
<event>
 4    1  0.2878104E-007  0.9620776E+03  0.7818608E-02  0.9432946E-01
          2   -1    0    0  501    0  0.00000000000E+00  0.00000000000E+00  0.34556682651E+04  0.34556682651E+04  0.25500000000E-02 0. -1.
         -2   -1    0    0    0  501 -0.00000000000E+00 -0.00000000000E+00 -0.47312137184E+03  0.47312137185E+03  0.25500000000E-02 0.  1.
    8880023    1    1    2    0    0 -0.62829576798E+03  0.31149253740E+03  0.11048754612E+03  0.96840119632E+03  0.65864270000E+03 0.  1.
    8880022    1    1    2    0    0  0.62829576798E+03 -0.31149253740E+03  0.28720593471E+04  0.29603884406E+04  0.15294330000E+03 0.  0.
<mgrwt>
<rscale>  0 0.89413258E+03</rscale>
<asrwt>0</asrwt>
<pdfrwt beam="1">  1        2 0.53164129E+00 0.96207764E+03</pdfrwt>
<pdfrwt beam="2">  1       -2 0.72787901E-01 0.96207764E+03</pdfrwt>
<totfact> 0.15506697E+00</totfact>
</mgrwt>
</event>
<event>
 4    1  0.2878104E-007  0.7175103E+03  0.7818608E-02  0.9931102E-01
          2   -1    0    0  501    0  0.00000000000E+00  0.00000000000E+00  0.63891781350E+03  0.63891781350E+03  0.25500000000E-02 0. -1.
         -2   -1    0    0    0  501 -0.00000000000E+00 -0.00000000000E+00 -0.48945574016E+03  0.48945574017E+03  0.25500000000E-02 0.  1.
    8880023    1    1    2    0    0  0.24870239978E+03  0.13841200085E+03 -0.94222585471E+02  0.72367041359E+03  0.65864270000E+03 0.  1.
    8880022    1    1    2    0    0 -0.24870239978E+03 -0.13841200085E+03  0.24368465881E+03  0.40470314008E+03  0.15294330000E+03 0.  0.
<mgrwt>
<rscale>  0 0.58777337E+03</rscale>
<asrwt>0</asrwt>
<pdfrwt beam="1">  1        2 0.98295048E-01 0.71751026E+03</pdfrwt>
<pdfrwt beam="2">  1       -2 0.75300884E-01 0.71751026E+03</pdfrwt>
<totfact> 0.73728961E+01</totfact>
</mgrwt>
</event>
<event>
 4    1  0.2878104E-007  0.9549097E+03  0.7818608E-02  0.9443085E-01
         -2   -1    0    0    0  501 -0.00000000000E+00  0.00000000000E+00  0.26248516979E+03  0.26248516980E+03  0.25500000000E-02 0.  1.
          2   -1    0    0  501    0  0.00000000000E+00 -0.00000000000E+00 -0.29582792240E+04  0.29582792240E+04  0.25500000000E-02 0. -1.
    8880023    1    1    2    0    0  0.67531697282E+03 -0.14828812541E+03 -0.99817929827E+03  0.13813813737E+04  0.65864270000E+03 0.  1.
    8880022    1    1    2    0    0 -0.67531697282E+03  0.14828812541E+03 -0.16976147559E+04  0.18393830201E+04  0.15294330000E+03 0.  0.
<mgrwt>
<rscale>  0 0.88613209E+03</rscale>
<asrwt>0</asrwt>
<pdfrwt beam="1">  1        2 0.45511986E+00 0.95490973E+03</pdfrwt>
<pdfrwt beam="2">  1       -2 0.40382336E-01 0.95490973E+03</pdfrwt>
<totfact> 0.11035245E+01</totfact>
</mgrwt>
</event>
<event>
 4    1  0.2878104E-007  0.7113474E+03  0.7818608E-02  0.9953031E-01
         -2   -1    0    0    0  501 -0.00000000000E+00  0.00000000000E+00  0.96956203344E+03  0.96956203344E+03  0.25500000000E-02 0.  1.
          2   -1    0    0  501    0  0.00000000000E+00 -0.00000000000E+00 -0.33381919124E+03  0.33381919125E+03  0.25500000000E-02 0. -1.
    8880023    1    1    2    0    0  0.65237180490E+02  0.26067043171E+03  0.68821270808E+03  0.98977366176E+03  0.65864270000E+03 0.  1.
    8880022    1    1    2    0    0 -0.65237180490E+02 -0.26067043171E+03 -0.52469865882E+02  0.31360756293E+03  0.15294330000E+03 0.  0.
<mgrwt>
<rscale>  0 0.57758598E+03</rscale>
<asrwt>0</asrwt>
<pdfrwt beam="1">  1        2 0.51356799E-01 0.71134743E+03</pdfrwt>
<pdfrwt beam="2">  1       -2 0.14916339E+00 0.71134743E+03</pdfrwt>
<totfact> 0.30076215E+01</totfact>
</mgrwt>
</event>
<event>
 4    1  0.3061694E-007  0.1264650E+04  0.7818608E-02  0.9096704E-01
         -2   -1    0    0    0  501 -0.00000000000E+00  0.00000000000E+00  0.10973590028E+04  0.10973590028E+04  0.25500000000E-02 0.  1.
          2   -1    0    0  501    0  0.00000000000E+00 -0.00000000000E+00 -0.34410048313E+04  0.34410048313E+04  0.25500000000E-02 0. -1.
    8880023    1    1    2    0    0 -0.58902930560E+03 -0.90475100532E+03  0.59963095234E+03  0.13996061552E+04  0.65864270000E+03 0.  1.
    8880022    1    1    2    0    0  0.58902930560E+03  0.90475100532E+03 -0.29432767809E+04  0.31387576788E+04  0.15294330000E+03 0.  0.
<mgrwt>
<rscale>  0 0.12186303E+04</rscale>
<asrwt>0</asrwt>
<pdfrwt beam="1">  1        2 0.52938536E+00 0.12646502E+04</pdfrwt>
<pdfrwt beam="2">  1       -2 0.16882446E+00 0.12646502E+04</pdfrwt>
<totfact> 0.19065434E-01</totfact>
</mgrwt>
</event>
<event>
 4    1  0.2878104E-007  0.7668395E+03  0.7818608E-02  0.9787712E-01
         -2   -1    0    0    0  501 -0.00000000000E+00  0.00000000000E+00  0.14792223954E+04  0.14792223954E+04  0.25500000000E-02 0.  1.
          2   -1    0    0  501    0  0.00000000000E+00 -0.00000000000E+00 -0.41503586255E+03  0.41503586256E+03  0.25500000000E-02 0. -1.
    8880023    1    1    2    0    0  0.17123544304E+03 -0.35342747194E+03  0.12232887287E+04  0.14437721687E+04  0.65864270000E+03 0.  0.
    8880022    1    1    2    0    0 -0.17123544304E+03  0.35342747194E+03 -0.15910219592E+03  0.45048608928E+03  0.15294330000E+03 0.  0.
<mgrwt>
<rscale>  0 0.66026171E+03</rscale>
<asrwt>0</asrwt>
<pdfrwt beam="1">  1        2 0.63851671E-01 0.76683946E+03</pdfrwt>
<pdfrwt beam="2">  1       -2 0.22757268E+00 0.76683946E+03</pdfrwt>
<totfact> 0.68996467E+00</totfact>
</mgrwt>
</event>
<event>
 4    1  0.2878104E-007  0.1116471E+04  0.7818608E-02  0.9242936E-01
          2   -1    0    0  501    0  0.00000000000E+00  0.00000000000E+00  0.27534798753E+04  0.27534798753E+04  0.25500000000E-02 0. -1.
         -2   -1    0    0    0  501 -0.00000000000E+00 -0.00000000000E+00 -0.41887106045E+03  0.41887106046E+03  0.25500000000E-02 0.  1.
    8880023    1    1    2    0    0  0.32739367235E+03 -0.83994685648E+03  0.17853008308E+04  0.21056606092E+04  0.65864270000E+03 0.  0.
    8880022    1    1    2    0    0 -0.32739367235E+03  0.83994685648E+03  0.54930798403E+03  0.10666903265E+04  0.15294330000E+03 0.  0.
<mgrwt>
<rscale>  0 0.10621043E+04</rscale>
<asrwt>0</asrwt>
<pdfrwt beam="1">  1        2 0.42361229E+00 0.11164710E+04</pdfrwt>
<pdfrwt beam="2">  1       -2 0.64441702E-01 0.11164710E+04</pdfrwt>
<totfact> 0.54954189E+00</totfact>
</mgrwt>
</event>
<event>
 4    1  0.2878104E-007  0.7397489E+03  0.7818608E-02  0.9860679E-01
          2   -1    0    0  501    0  0.00000000000E+00  0.00000000000E+00  0.22125567535E+04  0.22125567535E+04  0.25500000000E-02 0. -1.
         -2   -1    0    0    0  501 -0.00000000000E+00 -0.00000000000E+00 -0.18965453247E+03  0.18965453249E+03  0.25500000000E-02 0.  1.
    8880023    1    1    2    0    0  0.19803742615E+03  0.27239563649E+03  0.66458787401E+03  0.99443725467E+03  0.65864270000E+03 0.  1.
    8880022    1    1    2    0    0 -0.19803742615E+03 -0.27239563649E+03  0.13583143470E+04  0.14077740313E+04  0.15294330000E+03 0.  0.
<mgrwt>
<rscale>  0 0.62205375E+03</rscale>
<asrwt>0</asrwt>
<pdfrwt beam="1">  1        2 0.34039332E+00 0.73974888E+03</pdfrwt>
<pdfrwt beam="2">  1       -2 0.29177623E-01 0.73974888E+03</pdfrwt>
<totfact> 0.56751918E+01</totfact>
</mgrwt>
</event>
<event>
 4    1  0.2878104E-007  0.7058935E+03  0.7818608E-02  0.9973578E-01
          2   -1    0    0  501    0  0.00000000000E+00  0.00000000000E+00  0.15036925294E+04  0.15036925294E+04  0.25500000000E-02 0. -1.
         -2   -1    0    0    0  501 -0.00000000000E+00 -0.00000000000E+00 -0.50239644709E+03  0.50239644709E+03  0.25500000000E-02 0.  1.
    8880023    1    1    2    0    0  0.36276180821E+02 -0.25131537825E+03 -0.22781044306E+03  0.74174334164E+03  0.65864270000E+03 0.  1.
    8880022    1    1    2    0    0 -0.36276180821E+02  0.25131537825E+03  0.12291065254E+04  0.12643456349E+04  0.15294330000E+03 0.  0.
<mgrwt>
<rscale>  0 0.56824107E+03</rscale>
<asrwt>0</asrwt>
<pdfrwt beam="1">  1        2 0.23133731E+00 0.70589347E+03</pdfrwt>
<pdfrwt beam="2">  1       -2 0.77291761E-01 0.70589347E+03</pdfrwt>
<totfact> 0.19427194E+01</totfact>
</mgrwt>
</event>
<event>
 4    1  0.2878104E-007  0.1373516E+04  0.7818608E-02  0.9004539E-01
          2   -1    0    0  501    0  0.00000000000E+00  0.00000000000E+00  0.27060836504E+04  0.27060836504E+04  0.25500000000E-02 0. -1.
         -2   -1    0    0    0  501 -0.00000000000E+00 -0.00000000000E+00 -0.81892463083E+03  0.81892463084E+03  0.25500000000E-02 0.  1.
    8880023    1    1    2    0    0 -0.89121127730E+03 -0.81146723932E+03  0.18568881230E+04  0.23096710435E+04  0.65864270000E+03 0. -1.
    8880022    1    1    2    0    0  0.89121127730E+03  0.81146723932E+03  0.30270896499E+02  0.12153372377E+04  0.15294330000E+03 0.  0.
<mgrwt>
<rscale>  0 0.13320357E+04</rscale>
<asrwt>0</asrwt>
<pdfrwt beam="1">  1        2 0.41632056E+00 0.13735162E+04</pdfrwt>
<pdfrwt beam="2">  1       -2 0.12598841E+00 0.13735162E+04</pdfrwt>
<totfact> 0.11914897E+00</totfact>
</mgrwt>
</event>
<event>
 4    1  0.2878104E-007  0.1125684E+04  0.7818608E-02  0.9232985E-01
          2   -1    0    0  501    0  0.00000000000E+00  0.00000000000E+00  0.94874829034E+03  0.94874829034E+03  0.25500000000E-02 0. -1.
         -2   -1    0    0    0  501 -0.00000000000E+00 -0.00000000000E+00 -0.20168822671E+04  0.20168822671E+04  0.25500000000E-02 0.  1.
    8880023    1    1    2    0    0 -0.56839445577E+03  0.71433990926E+03 -0.15550820763E+04  0.19197510864E+04  0.65864270000E+03 0.  1.
    8880022    1    1    2    0    0  0.56839445577E+03 -0.71433990926E+03  0.48694809956E+03  0.10458794711E+04  0.15294330000E+03 0.  0.
<mgrwt>
<rscale>  0 0.10719358E+04</rscale>
<asrwt>0</asrwt>
<pdfrwt beam="1">  1        2 0.14596128E+00 0.11256838E+04</pdfrwt>
<pdfrwt beam="2">  1       -2 0.31028958E+00 0.11256838E+04</pdfrwt>
<totfact> 0.73907682E-01</totfact>
</mgrwt>
</event>
<event>
 4    1  0.2878104E-007  0.1072284E+04  0.7818608E-02  0.9292561E-01
         -2   -1    0    0    0  501 -0.00000000000E+00  0.00000000000E+00  0.11344114263E+04  0.11344114263E+04  0.25500000000E-02 0.  1.
          2   -1    0    0  501    0  0.00000000000E+00 -0.00000000000E+00 -0.20483706030E+04  0.20483706030E+04  0.25500000000E-02 0. -1.
    8880023    1    1    2    0    0  0.80141729923E+03  0.27150039089E+03  0.75084471609E+03  0.13090302302E+04  0.65864270000E+03 0.  1.
    8880022    1    1    2    0    0 -0.80141729923E+03 -0.27150039089E+03 -0.16648038929E+04  0.18737517991E+04  0.15294330000E+03 0.  0.
<mgrwt>
<rscale>  0 0.10147061E+04</rscale>
<asrwt>0</asrwt>
<pdfrwt beam="1">  1        2 0.31513394E+00 0.10722837E+04</pdfrwt>
<pdfrwt beam="2">  1       -2 0.17452484E+00 0.10722837E+04</pdfrwt>
<totfact> 0.12285566E+00</totfact>
</mgrwt>
</event>
<event>
 4    1  0.2878104E-007  0.9676872E+03  0.7818608E-02  0.9425110E-01
          2   -1    0    0  501    0  0.00000000000E+00  0.00000000000E+00  0.36003008062E+04  0.36003008062E+04  0.25500000000E-02 0. -1.
         -2   -1    0    0    0  501 -0.00000000000E+00 -0.00000000000E+00 -0.44555826774E+03  0.44555826775E+03  0.25500000000E-02 0.  1.
    8880023    1    1    2    0    0  0.14365625965E+03  0.69424140929E+03  0.18038563825E+03  0.98435635827E+03  0.65864270000E+03 0.  1.
    8880022    1    1    2    0    0 -0.14365625965E+03 -0.69424140929E+03  0.29743569002E+04  0.30615027157E+04  0.15294330000E+03 0.  0.
<mgrwt>
<rscale>  0 0.90037711E+03</rscale>
<asrwt>0</asrwt>
<pdfrwt beam="1">  1        2 0.55389246E+00 0.96768717E+03</pdfrwt>
<pdfrwt beam="2">  1       -2 0.68547423E-01 0.96768717E+03</pdfrwt>
<totfact> 0.14036191E+00</totfact>
</mgrwt>
</event>
<event>
 4    1  0.2878104E-007  0.9283154E+03  0.7818608E-02  0.9482025E-01
         -2   -1    0    0    0  501 -0.00000000000E+00  0.00000000000E+00  0.30774151872E+03  0.30774151873E+03  0.25500000000E-02 0.  1.
          2   -1    0    0  501    0  0.00000000000E+00 -0.00000000000E+00 -0.26342359933E+04  0.26342359933E+04  0.25500000000E-02 0. -1.
    8880023    1    1    2    0    0  0.55570782050E+03  0.34517844615E+03 -0.64265045801E+03  0.11290567563E+04  0.65864270000E+03 0.  1.
    8880022    1    1    2    0    0 -0.55570782050E+03 -0.34517844615E+03 -0.16838440166E+04  0.18129207558E+04  0.15294330000E+03 0.  0.
<mgrwt>
<rscale>  0 0.85622120E+03</rscale>
<asrwt>0</asrwt>
<pdfrwt beam="1">  1        2 0.40526706E+00 0.92831544E+03</pdfrwt>
<pdfrwt beam="2">  1       -2 0.47344851E-01 0.92831544E+03</pdfrwt>
<totfact> 0.12579770E+01</totfact>
</mgrwt>
</event>
<event>
 4    1  0.2878104E-007  0.7224821E+03  0.7818608E-02  0.9914275E-01
          2   -1    0    0  501    0  0.00000000000E+00  0.00000000000E+00  0.93165400186E+03  0.93165400187E+03  0.25500000000E-02 0. -1.
         -2   -1    0    0    0  501 -0.00000000000E+00 -0.00000000000E+00 -0.34024144782E+03  0.34024144783E+03  0.25500000000E-02 0.  1.
    8880023    1    1    2    0    0  0.21530506558E+03 -0.20448432766E+03  0.18490545472E+03  0.74576829175E+03  0.65864270000E+03 0.  1.
    8880022    1    1    2    0    0 -0.21530506558E+03  0.20448432766E+03  0.40650709932E+03  0.52612715795E+03  0.15294330000E+03 0. -1.
<mgrwt>
<rscale>  0 0.59574406E+03</rscale>
<asrwt>0</asrwt>
<pdfrwt beam="1">  1        2 0.14333138E+00 0.72248205E+03</pdfrwt>
<pdfrwt beam="2">  1       -2 0.52344839E-01 0.72248205E+03</pdfrwt>
<totfact> 0.97635322E+01</totfact>
</mgrwt>
</event>
<event>
 4    1  0.2878104E-007  0.1434283E+04  0.7818608E-02  0.8957492E-01
         -2   -1    0    0    0  501 -0.00000000000E+00  0.00000000000E+00  0.18857248839E+04  0.18857248839E+04  0.25500000000E-02 0.  1.
          2   -1    0    0  501    0  0.00000000000E+00 -0.00000000000E+00 -0.18896777947E+04  0.18896777947E+04  0.25500000000E-02 0. -1.
    8880023    1    1    2    0    0  0.36362795880E+03 -0.12211192188E+04  0.13073215680E+04  0.19406847573E+04  0.65864270000E+03 0.  0.
    8880022    1    1    2    0    0 -0.36362795880E+03  0.12211192188E+04 -0.13112744788E+04  0.18347179213E+04  0.15294330000E+03 0.  0.
<mgrwt>
<rscale>  0 0.13949369E+04</rscale>
<asrwt>0</asrwt>
<pdfrwt beam="1">  1        2 0.29071966E+00 0.14342830E+04</pdfrwt>
<pdfrwt beam="2">  1       -2 0.29011152E+00 0.14342830E+04</pdfrwt>
<totfact> 0.26577921E-01</totfact>
</mgrwt>
</event>
<event>
 4    1  0.2878104E-007  0.1188607E+04  0.7818608E-02  0.9168277E-01
          2   -1    0    0  501    0  0.00000000000E+00  0.00000000000E+00  0.22443757943E+04  0.22443757943E+04  0.25500000000E-02 0. -1.
         -2   -1    0    0    0  501 -0.00000000000E+00 -0.00000000000E+00 -0.66956426108E+03  0.66956426108E+03  0.25500000000E-02 0.  1.
    8880023    1    1    2    0    0  0.92369451843E+03  0.35463452817E+03  0.18782619557E+03  0.12033561808E+04  0.65864270000E+03 0.  0.
    8880022    1    1    2    0    0 -0.92369451843E+03 -0.35463452817E+03  0.13869853376E+04  0.17105838745E+04  0.15294330000E+03 0.  0.
<mgrwt>
<rscale>  0 0.11386946E+04</rscale>
<asrwt>0</asrwt>
<pdfrwt beam="1">  1        2 0.34528859E+00 0.11886073E+04</pdfrwt>
<pdfrwt beam="2">  1       -2 0.10300989E+00 0.11886073E+04</pdfrwt>
<totfact> 0.36822921E+00</totfact>
</mgrwt>
</event>
<event>
 4    1  0.2878104E-007  0.7269632E+03  0.7818608E-02  0.9899693E-01
         -2   -1    0    0    0  501 -0.00000000000E+00  0.00000000000E+00  0.23451041639E+03  0.23451041641E+03  0.25500000000E-02 0.  1.
          2   -1    0    0  501    0  0.00000000000E+00 -0.00000000000E+00 -0.28580708859E+04  0.28580708859E+04  0.25500000000E-02 0. -1.
    8880023    1    1    2    0    0 -0.14229954940E+03  0.27279321656E+03 -0.37512264024E+03  0.81804187072E+03  0.65864270000E+03 0.  1.
    8880022    1    1    2    0    0  0.14229954940E+03 -0.27279321656E+03 -0.22484378293E+04  0.22745394316E+04  0.15294330000E+03 0.  0.
<mgrwt>
<rscale>  0 0.60276187E+03</rscale>
<asrwt>0</asrwt>
<pdfrwt beam="1">  1        2 0.43970319E+00 0.72696321E+03</pdfrwt>
<pdfrwt beam="2">  1       -2 0.36078528E-01 0.72696321E+03</pdfrwt>
<totfact> 0.16335922E+01</totfact>
</mgrwt>
</event>
<event>
 4    1  0.2878104E-007  0.9923785E+03  0.7818608E-02  0.9391597E-01
         -2   -1    0    0    0  501 -0.00000000000E+00  0.00000000000E+00  0.38069020980E+03  0.38069020981E+03  0.25500000000E-02 0.  1.
          2   -1    0    0  501    0  0.00000000000E+00 -0.00000000000E+00 -0.23346180348E+04  0.23346180348E+04  0.25500000000E-02 0. -1.
    8880023    1    1    2    0    0  0.33742314529E+03  0.66117359754E+03 -0.58879612020E+03  0.11539046679E+04  0.65864270000E+03 0.  1.
    8880022    1    1    2    0    0 -0.33742314529E+03 -0.66117359754E+03 -0.13651317048E+04  0.15614035767E+04  0.15294330000E+03 0.  0.
<mgrwt>
<rscale>  0 0.92770414E+03</rscale>
<asrwt>0</asrwt>
<pdfrwt beam="1">  1        2 0.35917199E+00 0.99237851E+03</pdfrwt>
<pdfrwt beam="2">  1       -2 0.58567726E-01 0.99237851E+03</pdfrwt>
<totfact> 0.11923780E+01</totfact>
</mgrwt>
</event>
<event>
 4    1  0.2878104E-007  0.6657268E+03  0.7818608E-02  0.1018931E+00
          2   -1    0    0  501    0  0.00000000000E+00  0.00000000000E+00  0.16051163943E+04  0.16051163943E+04  0.25500000000E-02 0. -1.
         -2   -1    0    0    0  501 -0.00000000000E+00 -0.00000000000E+00 -0.11753007545E+03  0.11753007548E+03  0.25500000000E-02 0.  1.
    8880023    1    1    2    0    0 -0.94848528299E+02 -0.19640484441E+02  0.98879691704E+03  0.11920199417E+04  0.65864270000E+03 0.  1.
    8880022    1    1    2    0    0  0.94848528299E+02  0.19640484441E+02  0.49878940177E+03  0.53062652806E+03  0.15294330000E+03 0.  0.
<mgrwt>
<rscale>  0 0.48074263E+03</rscale>
<asrwt>0</asrwt>
<pdfrwt beam="1">  1        2 0.24694096E+00 0.66572682E+03</pdfrwt>
<pdfrwt beam="2">  1       -2 0.18081552E-01 0.66572682E+03</pdfrwt>
<totfact> 0.28794321E+02</totfact>
</mgrwt>
</event>
<event>
 4    1  0.2878104E-007  0.1461498E+04  0.7818608E-02  0.8937313E-01
          2   -1    0    0  501    0  0.00000000000E+00  0.00000000000E+00  0.30987798231E+04  0.30987798231E+04  0.25500000000E-02 0. -1.
         -2   -1    0    0    0  501 -0.00000000000E+00 -0.00000000000E+00 -0.72103761581E+03  0.72103761582E+03  0.25500000000E-02 0.  1.
    8880023    1    1    2    0    0  0.42951039612E+03 -0.12319449585E+04  0.19528985735E+04  0.24392192615E+04  0.65864270000E+03 0.  0.
    8880022    1    1    2    0    0 -0.42951039612E+03  0.12319449585E+04  0.42484363374E+03  0.13805981773E+04  0.15294330000E+03 0.  0.
<mgrwt>
<rscale>  0 0.14230331E+04</rscale>
<asrwt>0</asrwt>
<pdfrwt beam="1">  1        2 0.47673536E+00 0.14614985E+04</pdfrwt>
<pdfrwt beam="2">  1       -2 0.11092886E+00 0.14614985E+04</pdfrwt>
<totfact> 0.93102263E-01</totfact>
</mgrwt>
</event>
<event>
 4    1  0.2878104E-007  0.1025759E+04  0.7818608E-02  0.9348606E-01
         -2   -1    0    0    0  501 -0.00000000000E+00  0.00000000000E+00  0.14304062775E+04  0.14304062775E+04  0.25500000000E-02 0.  1.
          2   -1    0    0  501    0  0.00000000000E+00 -0.00000000000E+00 -0.11494314822E+04  0.11494314822E+04  0.25500000000E-02 0. -1.
    8880023    1    1    2    0    0  0.31176097643E+03 -0.72192596943E+03  0.10510475795E+04  0.14686331170E+04  0.65864270000E+03 0.  1.
    8880022    1    1    2    0    0 -0.31176097643E+03  0.72192596943E+03 -0.77007278424E+03  0.11112046426E+04  0.15294330000E+03 0.  0.
<mgrwt>
<rscale>  0 0.96428631E+03</rscale>
<asrwt>0</asrwt>
<pdfrwt beam="1">  1        2 0.17683561E+00 0.10257593E+04</pdfrwt>
<pdfrwt beam="2">  1       -2 0.22006250E+00 0.10257593E+04</pdfrwt>
<totfact> 0.19873460E+00</totfact>
</mgrwt>
</event>
<event>
 4    1  0.2878104E-007  0.1051938E+04  0.7818608E-02  0.9316555E-01
          2   -1    0    0  501    0  0.00000000000E+00  0.00000000000E+00  0.12278093676E+04  0.12278093676E+04  0.25500000000E-02 0. -1.
         -2   -1    0    0    0  501 -0.00000000000E+00 -0.00000000000E+00 -0.12827420292E+04  0.12827420292E+04  0.25500000000E-02 0.  1.
    8880023    1    1    2    0    0 -0.71606364893E+03  0.40002076485E+03 -0.85424554397E+03  0.13551049470E+04  0.65864270000E+03 0. -1.
    8880022    1    1    2    0    0  0.71606364893E+03 -0.40002076485E+03  0.79931288236E+03  0.11554464499E+04  0.15294330000E+03 0.  0.
<mgrwt>
<rscale>  0 0.99272954E+03</rscale>
<asrwt>0</asrwt>
<pdfrwt beam="1">  1        2 0.18889375E+00 0.10519382E+04</pdfrwt>
<pdfrwt beam="2">  1       -2 0.19734493E+00 0.10519382E+04</pdfrwt>
<totfact> 0.24896048E+00</totfact>
</mgrwt>
</event>
<event>
 4    1  0.2878104E-007  0.1007141E+04  0.7818608E-02  0.9372274E-01
          2   -1    0    0  501    0  0.00000000000E+00  0.00000000000E+00  0.79896173445E+03  0.79896173445E+03  0.25500000000E-02 0. -1.
         -2   -1    0    0    0  501 -0.00000000000E+00 -0.00000000000E+00 -0.35264559165E+04  0.35264559165E+04  0.25500000000E-02 0.  1.
    8880023    1    1    2    0    0  0.61768344932E+03 -0.44608238891E+03 -0.32410578532E+04  0.33939340823E+04  0.65864270000E+03 0.  1.
    8880022    1    1    2    0    0 -0.61768344932E+03  0.44608238891E+03  0.51356367114E+03  0.93148356861E+03  0.15294330000E+03 0.  0.
<mgrwt>
<rscale>  0 0.94392942E+03</rscale>
<asrwt>0</asrwt>
<pdfrwt beam="1">  1        2 0.12291719E+00 0.10071408E+04</pdfrwt>
<pdfrwt beam="2">  1       -2 0.54253167E+00 0.10071408E+04</pdfrwt>
<totfact> 0.32070596E-02</totfact>
</mgrwt>
</event>
<event>
 4    1  0.2878104E-007  0.7148386E+03  0.7818608E-02  0.9940454E-01
          2   -1    0    0  501    0  0.00000000000E+00  0.00000000000E+00  0.10953448178E+04  0.10953448178E+04  0.25500000000E-02 0. -1.
         -2   -1    0    0    0  501 -0.00000000000E+00 -0.00000000000E+00 -0.48662759297E+03  0.48662759298E+03  0.25500000000E-02 0.  1.
    8880023    1    1    2    0    0  0.19285218624E+03  0.19998017652E+03 -0.17549177107E+03  0.73606494599E+03  0.65864270000E+03 0.  1.
    8880022    1    1    2    0    0 -0.19285218624E+03 -0.19998017652E+03  0.78420899588E+03  0.84590746478E+03  0.15294330000E+03 0.  0.
<mgrwt>
<rscale>  0 0.58340162E+03</rscale>
<asrwt>0</asrwt>
<pdfrwt beam="1">  1        2 0.16851458E+00 0.71483861E+03</pdfrwt>
<pdfrwt beam="2">  1       -2 0.74865785E-01 0.71483861E+03</pdfrwt>
<totfact> 0.35883996E+01</totfact>
</mgrwt>
</event>
<event>
 4    1  0.2878104E-007  0.7620359E+03  0.7818608E-02  0.9799865E-01
         -2   -1    0    0    0  501 -0.00000000000E+00  0.00000000000E+00  0.45740785442E+03  0.45740785443E+03  0.25500000000E-02 0.  1.
          2   -1    0    0  501    0  0.00000000000E+00 -0.00000000000E+00 -0.92979199687E+03  0.92979199687E+03  0.25500000000E-02 0. -1.
    8880023    1    1    2    0    0 -0.23274535936E+03  0.30449658796E+03 -0.27636390573E+01  0.76204095582E+03  0.65864270000E+03 0.  0.
    8880022    1    1    2    0    0  0.23274535936E+03 -0.30449658796E+03 -0.46962050339E+03  0.62515889548E+03  0.15294330000E+03 0.  0.
<mgrwt>
<rscale>  0 0.65369795E+03</rscale>
<asrwt>0</asrwt>
<pdfrwt beam="1">  1        2 0.14304492E+00 0.76203594E+03</pdfrwt>
<pdfrwt beam="2">  1       -2 0.70370439E-01 0.76203594E+03</pdfrwt>
<totfact> 0.52158333E+01</totfact>
</mgrwt>
</event>
<event>
 4    1  0.2878104E-007  0.1158589E+04  0.7818608E-02  0.9198467E-01
          2   -1    0    0  501    0  0.00000000000E+00  0.00000000000E+00  0.14066172369E+04  0.14066172369E+04  0.25500000000E-02 0. -1.
         -2   -1    0    0    0  501 -0.00000000000E+00 -0.00000000000E+00 -0.12614264859E+04  0.12614264859E+04  0.25500000000E-02 0.  1.
    8880023    1    1    2    0    0 -0.73869256191E+03 -0.60237185513E+03 -0.72636812998E+03  0.13674572825E+04  0.65864270000E+03 0.  0.
    8880022    1    1    2    0    0  0.73869256191E+03  0.60237185513E+03  0.87155888097E+03  0.13005864404E+04  0.15294330000E+03 0. -1.
<mgrwt>
<rscale>  0 0.11069267E+04</rscale>
<asrwt>0</asrwt>
<pdfrwt beam="1">  1        2 0.21640265E+00 0.11585891E+04</pdfrwt>
<pdfrwt beam="2">  1       -2 0.19406561E+00 0.11585891E+04</pdfrwt>
<totfact> 0.20353104E+00</totfact>
</mgrwt>
</event>
<event>
 4    1  0.2878104E-007  0.8554770E+03  0.7818608E-02  0.9601660E-01
         -2   -1    0    0    0  501 -0.00000000000E+00  0.00000000000E+00  0.18315714702E+04  0.18315714702E+04  0.25500000000E-02 0.  1.
          2   -1    0    0  501    0  0.00000000000E+00 -0.00000000000E+00 -0.43558039956E+03  0.43558039957E+03  0.25500000000E-02 0. -1.
    8880023    1    1    2    0    0 -0.49331228429E+03  0.23382415881E+03  0.14645322438E+04  0.16960824410E+04  0.65864270000E+03 0.  1.
    8880022    1    1    2    0    0  0.49331228429E+03 -0.23382415881E+03 -0.68541173198E+02  0.57106942880E+03  0.15294330000E+03 0.  0.
<mgrwt>
<rscale>  0 0.77186400E+03</rscale>
<asrwt>0</asrwt>
<pdfrwt beam="1">  1        2 0.67012368E-01 0.85547703E+03</pdfrwt>
<pdfrwt beam="2">  1       -2 0.28178023E+00 0.85547703E+03</pdfrwt>
<totfact> 0.30297556E+00</totfact>
</mgrwt>
</event>
<event>
 4    1  0.2878104E-007  0.1321492E+04  0.7818608E-02  0.9047219E-01
         -2   -1    0    0    0  501 -0.00000000000E+00  0.00000000000E+00  0.20991687819E+04  0.20991687819E+04  0.25500000000E-02 0.  1.
          2   -1    0    0  501    0  0.00000000000E+00 -0.00000000000E+00 -0.95502093209E+03  0.95502093210E+03  0.25500000000E-02 0. -1.
    8880023    1    1    2    0    0  0.22635949565E+03 -0.11230729108E+04  0.13398722188E+04  0.18819136944E+04  0.65864270000E+03 0.  1.
    8880022    1    1    2    0    0 -0.22635949565E+03  0.11230729108E+04 -0.19572436901E+03  0.11722760195E+04  0.15294330000E+03 0.  0.
<mgrwt>
<rscale>  0 0.12779714E+04</rscale>
<asrwt>0</asrwt>
<pdfrwt beam="1">  1        2 0.14692630E+00 0.13214922E+04</pdfrwt>
<pdfrwt beam="2">  1       -2 0.32294904E+00 0.13214922E+04</pdfrwt>
<totfact> 0.59823743E-01</totfact>
</mgrwt>
</event>
<event>
 4    1  0.2878104E-007  0.9551643E+03  0.7818608E-02  0.9442722E-01
         -2   -1    0    0    0  501 -0.00000000000E+00  0.00000000000E+00  0.18120861391E+04  0.18120861391E+04  0.25500000000E-02 0.  1.
          2   -1    0    0  501    0  0.00000000000E+00 -0.00000000000E+00 -0.55921846380E+03  0.55921846380E+03  0.25500000000E-02 0. -1.
    8880023    1    1    2    0    0 -0.67461347346E+03 -0.15305355168E+03  0.13525977586E+04  0.16558561626E+04  0.65864270000E+03 0.  1.
    8880022    1    1    2    0    0  0.67461347346E+03  0.15305355168E+03 -0.99730083304E+02  0.71544844034E+03  0.15294330000E+03 0.  0.
<mgrwt>
<rscale>  0 0.88641671E+03</rscale>
<asrwt>0</asrwt>
<pdfrwt beam="1">  1        2 0.86033611E-01 0.95516435E+03</pdfrwt>
<pdfrwt beam="2">  1       -2 0.27878248E+00 0.95516435E+03</pdfrwt>
<totfact> 0.23318596E+00</totfact>
</mgrwt>
</event>
<event>
 4    1  0.2878104E-007  0.8899819E+03  0.7818608E-02  0.9542309E-01
         -2   -1    0    0    0  501 -0.00000000000E+00  0.00000000000E+00  0.11997468851E+04  0.11997468851E+04  0.25500000000E-02 0.  1.
          2   -1    0    0  501    0  0.00000000000E+00 -0.00000000000E+00 -0.17185774879E+04  0.17185774879E+04  0.25500000000E-02 0. -1.
    8880023    1    1    2    0    0 -0.57486328943E+03  0.16670260723E+03  0.96396582486E+03  0.13119824231E+04  0.65864270000E+03 0.  1.
    8880022    1    1    2    0    0  0.57486328943E+03 -0.16670260723E+03 -0.14827964277E+04  0.16063419498E+04  0.15294330000E+03 0.  0.
<mgrwt>
<rscale>  0 0.81235138E+03</rscale>
<asrwt>0</asrwt>
<pdfrwt beam="1">  1        2 0.26439654E+00 0.88998189E+03</pdfrwt>
<pdfrwt beam="2">  1       -2 0.18457644E+00 0.88998189E+03</pdfrwt>
<totfact> 0.16323954E+00</totfact>
</mgrwt>
</event>
<event>
 4    1  0.2878104E-007  0.1163002E+04  0.7818608E-02  0.9193954E-01
         -2   -1    0    0    0  501 -0.00000000000E+00  0.00000000000E+00  0.11596326961E+04  0.11596326961E+04  0.25500000000E-02 0.  1.
          2   -1    0    0  501    0  0.00000000000E+00 -0.00000000000E+00 -0.13206611432E+04  0.13206611432E+04  0.25500000000E-02 0. -1.
    8880023    1    1    2    0    0  0.89461830879E+03 -0.34412471740E+03 -0.71252345143E+03  0.13639148121E+04  0.65864270000E+03 0. -1.
    8880022    1    1    2    0    0 -0.89461830879E+03  0.34412471740E+03  0.55149500428E+03  0.11163790272E+04  0.15294330000E+03 0.  0.
<mgrwt>
<rscale>  0 0.11116055E+04</rscale>
<asrwt>0</asrwt>
<pdfrwt beam="1">  1        2 0.20317864E+00 0.11630021E+04</pdfrwt>
<pdfrwt beam="2">  1       -2 0.17840503E+00 0.11630021E+04</pdfrwt>
<totfact> 0.29143747E+00</totfact>
</mgrwt>
</event>
<event>
 4    1  0.2878104E-007  0.1202374E+04  0.7818608E-02  0.9154818E-01
          2   -1    0    0  501    0  0.00000000000E+00  0.00000000000E+00  0.90609242494E+03  0.90609242494E+03  0.25500000000E-02 0. -1.
         -2   -1    0    0    0  501 -0.00000000000E+00 -0.00000000000E+00 -0.17259964175E+04  0.17259964175E+04  0.25500000000E-02 0.  1.
    8880023    1    1    2    0    0 -0.35186096877E+02  0.10053139370E+04 -0.10415191204E+04  0.15907439950E+04  0.65864270000E+03 0.  0.
    8880022    1    1    2    0    0  0.35186096877E+02 -0.10053139370E+04  0.22161512784E+03  0.10413448474E+04  0.15294330000E+03 0.  0.
<mgrwt>
<rscale>  0 0.11532205E+04</rscale>
<asrwt>0</asrwt>
<pdfrwt beam="1">  1        2 0.13939884E+00 0.12023745E+04</pdfrwt>
<pdfrwt beam="2">  1       -2 0.26553791E+00 0.12023745E+04</pdfrwt>
<totfact> 0.14630454E+00</totfact>
</mgrwt>
</event>
<event>
 4    1  0.2878104E-007  0.8021776E+03  0.7818608E-02  0.9706107E-01
         -2   -1    0    0    0  501 -0.00000000000E+00  0.00000000000E+00  0.50407116000E+03  0.50407116001E+03  0.25500000000E-02 0.  1.
          2   -1    0    0  501    0  0.00000000000E+00 -0.00000000000E+00 -0.11774705076E+04  0.11774705076E+04  0.25500000000E-02 0. -1.
    8880023    1    1    2    0    0  0.45061929070E+03 -0.81368949968E+02  0.58997489312E+02  0.80434418079E+03  0.65864270000E+03 0.  1.
    8880022    1    1    2    0    0 -0.45061929070E+03  0.81368949968E+02 -0.73239683695E+03  0.87719748686E+03  0.15294330000E+03 0.  1.
<mgrwt>
<rscale>  0 0.70654325E+03</rscale>
<asrwt>0</asrwt>
<pdfrwt beam="1">  1        2 0.18114931E+00 0.80217757E+03</pdfrwt>
<pdfrwt beam="2">  1       -2 0.77549409E-01 0.80217757E+03</pdfrwt>
<totfact> 0.29341921E+01</totfact>
</mgrwt>
</event>
<event>
 4    1  0.2878104E-007  0.6888268E+03  0.7818608E-02  0.1004715E+00
          2   -1    0    0  501    0  0.00000000000E+00  0.00000000000E+00  0.21762160806E+04  0.21762160806E+04  0.25500000000E-02 0. -1.
         -2   -1    0    0    0  501 -0.00000000000E+00 -0.00000000000E+00 -0.90056971239E+03  0.90056971240E+03  0.25500000000E-02 0.  1.
    8880023    1    1    2    0    0  0.20495105466E+02  0.20062932668E+03 -0.75985784397E+03  0.10256053458E+04  0.65864270000E+03 0.  1.
    8880022    1    1    2    0    0 -0.20495105466E+02 -0.20062932668E+03  0.20355042122E+04  0.20511804472E+04  0.15294330000E+03 0.  0.
<mgrwt>
<rscale>  0 0.53630167E+03</rscale>
<asrwt>0</asrwt>
<pdfrwt beam="1">  1        2 0.33480247E+00 0.68882682E+03</pdfrwt>
<pdfrwt beam="2">  1       -2 0.13854919E+00 0.68882682E+03</pdfrwt>
<totfact> 0.20725388E+00</totfact>
</mgrwt>
</event>
<event>
 4    1  0.2878104E-007  0.2171973E+04  0.7818608E-02  0.8540645E-01
         -2   -1    0    0    0  501 -0.00000000000E+00  0.00000000000E+00  0.25176957459E+04  0.25176957459E+04  0.25500000000E-02 0.  1.
          2   -1    0    0  501    0  0.00000000000E+00 -0.00000000000E+00 -0.20685394241E+04  0.20685394241E+04  0.25500000000E-02 0. -1.
    8880023    1    1    2    0    0  0.20161669408E+04 -0.46768084418E+03  0.10683332951E+04  0.24204959700E+04  0.65864270000E+03 0.  1.
    8880022    1    1    2    0    0 -0.20161669408E+04  0.46768084418E+03 -0.61917697319E+03  0.21657392000E+04  0.15294330000E+03 0.  0.
<mgrwt>
<rscale>  0 0.21474012E+04</rscale>
<asrwt>0</asrwt>
<pdfrwt beam="1">  1        2 0.31823683E+00 0.21719725E+04</pdfrwt>
<pdfrwt beam="2">  1       -2 0.38733781E+00 0.21719725E+04</pdfrwt>
<totfact> 0.47854656E-02</totfact>
</mgrwt>
</event>
<event>
 4    1  0.2878104E-007  0.1319522E+04  0.7818608E-02  0.9048882E-01
          2   -1    0    0  501    0  0.00000000000E+00  0.00000000000E+00  0.26326397444E+04  0.26326397444E+04  0.25500000000E-02 0. -1.
         -2   -1    0    0    0  501 -0.00000000000E+00 -0.00000000000E+00 -0.78592102273E+03  0.78592102274E+03  0.25500000000E-02 0.  1.
    8880023    1    1    2    0    0 -0.99623939431E+03 -0.56110242811E+03  0.97378594645E+02  0.13231106010E+04  0.65864270000E+03 0.  0.
    8880022    1    1    2    0    0  0.99623939431E+03  0.56110242811E+03  0.17493401270E+04  0.20954501661E+04  0.15294330000E+03 0.  0.
<mgrwt>
<rscale>  0 0.12759199E+04</rscale>
<asrwt>0</asrwt>
<pdfrwt beam="1">  1        2 0.40502150E+00 0.13195223E+04</pdfrwt>
<pdfrwt beam="2">  1       -2 0.12091093E+00 0.13195223E+04</pdfrwt>
<totfact> 0.14692201E+00</totfact>
</mgrwt>
</event>
<event>
 4    1  0.2878104E-007  0.7094886E+03  0.7818608E-02  0.9959905E-01
         -2   -1    0    0    0  501 -0.00000000000E+00  0.00000000000E+00  0.10519543976E+04  0.10519543976E+04  0.25500000000E-02 0.  1.
          2   -1    0    0  501    0  0.00000000000E+00 -0.00000000000E+00 -0.19672667503E+04  0.19672667503E+04  0.25500000000E-02 0. -1.
    8880023    1    1    2    0    0  0.25764307952E+03  0.56426469432E+02  0.91828981411E+03  0.11604440063E+04  0.65864270000E+03 0.  0.
    8880022    1    1    2    0    0 -0.25764307952E+03 -0.56426469432E+02 -0.18336021668E+04  0.18587771416E+04  0.15294330000E+03 0.  0.
<mgrwt>
<rscale>  0 0.57443844E+03</rscale>
<asrwt>0</asrwt>
<pdfrwt beam="1">  1        2 0.30265642E+00 0.70948863E+03</pdfrwt>
<pdfrwt beam="2">  1       -2 0.16183914E+00 0.70948863E+03</pdfrwt>
<totfact> 0.17797997E+00</totfact>
</mgrwt>
</event>
<event>
 4    1  0.2878104E-007  0.8797419E+03  0.7818608E-02  0.9559368E-01
         -2   -1    0    0    0  501 -0.00000000000E+00  0.00000000000E+00  0.29351410143E+03  0.29351410144E+03  0.25500000000E-02 0.  1.
          2   -1    0    0  501    0  0.00000000000E+00 -0.00000000000E+00 -0.27172351573E+04  0.27172351573E+04  0.25500000000E-02 0. -1.
    8880023    1    1    2    0    0  0.37519973676E+03  0.44649831837E+03 -0.53852045438E+03  0.10314795572E+04  0.65864270000E+03 0.  0.
    8880022    1    1    2    0    0 -0.37519973676E+03 -0.44649831837E+03 -0.18852006015E+04  0.19792697016E+04  0.15294330000E+03 0.  0.
<mgrwt>
<rscale>  0 0.80044883E+03</rscale>
<asrwt>0</asrwt>
<pdfrwt beam="1">  1        2 0.41803616E+00 0.87974189E+03</pdfrwt>
<pdfrwt beam="2">  1       -2 0.45156017E-01 0.87974189E+03</pdfrwt>
<totfact> 0.12457582E+01</totfact>
</mgrwt>
</event>
<event>
 4    1  0.2878104E-007  0.6698468E+03  0.7818608E-02  0.1015773E+00
         -2   -1    0    0    0  501 -0.00000000000E+00  0.00000000000E+00  0.31707231733E+03  0.31707231734E+03  0.25500000000E-02 0.  1.
          2   -1    0    0  501    0  0.00000000000E+00 -0.00000000000E+00 -0.95271638762E+03  0.95271638763E+03  0.25500000000E-02 0. -1.
    8880023    1    1    2    0    0  0.10197330173E+03  0.66977321194E+02 -0.72656165913E+02  0.67377566039E+03  0.65864270000E+03 0.  1.
    8880022    1    1    2    0    0 -0.10197330173E+03 -0.66977321194E+02 -0.56298790438E+03  0.59601304458E+03  0.15294330000E+03 0.  0.
<mgrwt>
<rscale>  0 0.49243359E+03</rscale>
<asrwt>0</asrwt>
<pdfrwt beam="1">  1        2 0.14657175E+00 0.66984679E+03</pdfrwt>
<pdfrwt beam="2">  1       -2 0.48780357E-01 0.66984679E+03</pdfrwt>
<totfact> 0.10963497E+02</totfact>
</mgrwt>
</event>
<event>
 4    1  0.2878104E-007  0.8098550E+03  0.7818608E-02  0.9689879E-01
         -2   -1    0    0    0  501 -0.00000000000E+00  0.00000000000E+00  0.24403931529E+03  0.24403931530E+03  0.25500000000E-02 0.  1.
          2   -1    0    0  501    0  0.00000000000E+00 -0.00000000000E+00 -0.26454230520E+04  0.26454230520E+04  0.25500000000E-02 0. -1.
    8880023    1    1    2    0    0  0.11003266022E+03  0.45820057297E+03 -0.56510941489E+03  0.98752914309E+03  0.65864270000E+03 0.  1.
    8880022    1    1    2    0    0 -0.11003266022E+03 -0.45820057297E+03 -0.18362743219E+04  0.19019332243E+04  0.15294330000E+03 0.  0.
<mgrwt>
<rscale>  0 0.71622601E+03</rscale>
<asrwt>0</asrwt>
<pdfrwt beam="1">  1        2 0.40698814E+00 0.80985502E+03</pdfrwt>
<pdfrwt beam="2">  1       -2 0.37544512E-01 0.80985502E+03</pdfrwt>
<totfact> 0.19913024E+01</totfact>
</mgrwt>
</event>
<event>
 4    1  0.2878104E-007  0.8256485E+03  0.7818608E-02  0.9657859E-01
          2   -1    0    0  501    0  0.00000000000E+00  0.00000000000E+00  0.25483893589E+04  0.25483893589E+04  0.25500000000E-02 0. -1.
         -2   -1    0    0    0  501 -0.00000000000E+00 -0.00000000000E+00 -0.56126535546E+03  0.56126535547E+03  0.25500000000E-02 0.  1.
    8880023    1    1    2    0    0 -0.47335782903E+02 -0.49562547765E+03 -0.20975692347E+03  0.85187643684E+03  0.65864270000E+03 0.  1.
    8880022    1    1    2    0    0  0.47335782903E+02  0.49562547765E+03  0.21968809269E+04  0.22577782775E+04  0.15294330000E+03 0.  0.
<mgrwt>
<rscale>  0 0.73582243E+03</rscale>
<asrwt>0</asrwt>
<pdfrwt beam="1">  1        2 0.39205991E+00 0.82564853E+03</pdfrwt>
<pdfrwt beam="2">  1       -2 0.86348513E-01 0.82564853E+03</pdfrwt>
<totfact> 0.39351429E+00</totfact>
</mgrwt>
</event>
<event>
 4    1  0.2878104E-007  0.8015423E+03  0.7818608E-02  0.9707471E-01
          2   -1    0    0  501    0  0.00000000000E+00  0.00000000000E+00  0.10182646089E+04  0.10182646089E+04  0.25500000000E-02 0. -1.
         -2   -1    0    0    0  501 -0.00000000000E+00 -0.00000000000E+00 -0.67701777374E+03  0.67701777374E+03  0.25500000000E-02 0.  1.
    8880023    1    1    2    0    0 -0.45284596171E+03  0.59919893430E+02 -0.33188855748E+03  0.86753678857E+03  0.65864270000E+03 0.  0.
    8880022    1    1    2    0    0  0.45284596171E+03 -0.59919893430E+02  0.67313539266E+03  0.82774559409E+03  0.15294330000E+03 0.  0.
<mgrwt>
<rscale>  0 0.70573700E+03</rscale>
<asrwt>0</asrwt>
<pdfrwt beam="1">  1        2 0.15665609E+00 0.80154230E+03</pdfrwt>
<pdfrwt beam="2">  1       -2 0.10415658E+00 0.80154230E+03</pdfrwt>
<totfact> 0.18585338E+01</totfact>
</mgrwt>
</event>
<event>
 4    1  0.2878104E-007  0.1009942E+04  0.7818608E-02  0.9368665E-01
          2   -1    0    0  501    0  0.00000000000E+00  0.00000000000E+00  0.18928700332E+04  0.18928700332E+04  0.25500000000E-02 0. -1.
         -2   -1    0    0    0  501 -0.00000000000E+00 -0.00000000000E+00 -0.64709489577E+03  0.64709489578E+03  0.25500000000E-02 0.  1.
    8880023    1    1    2    0    0  0.21095552177E+03 -0.73598203709E+03 -0.67438743992E+02  0.10121906844E+04  0.65864270000E+03 0.  0.
    8880022    1    1    2    0    0 -0.21095552177E+03  0.73598203709E+03  0.13132138814E+04  0.15277742446E+04  0.15294330000E+03 0.  0.
<mgrwt>
<rscale>  0 0.94699907E+03</rscale>
<asrwt>0</asrwt>
<pdfrwt beam="1">  1        2 0.29121077E+00 0.10099416E+04</pdfrwt>
<pdfrwt beam="2">  1       -2 0.99553061E-01 0.10099416E+04</pdfrwt>
<totfact> 0.63847198E+00</totfact>
</mgrwt>
</event>
<event>
 4    1  0.2878104E-007  0.1022449E+04  0.7818608E-02  0.9352759E-01
         -2   -1    0    0    0  501 -0.00000000000E+00  0.00000000000E+00  0.11032686948E+04  0.11032686948E+04  0.25500000000E-02 0.  1.
          2   -1    0    0  501    0  0.00000000000E+00 -0.00000000000E+00 -0.20563289383E+04  0.20563289383E+04  0.25500000000E-02 0. -1.
    8880023    1    1    2    0    0  0.13223641946E+03  0.77078247012E+03  0.75753672221E+03  0.12725031154E+04  0.65864270000E+03 0.  1.
    8880022    1    1    2    0    0 -0.13223641946E+03 -0.77078247012E+03 -0.17105969657E+04  0.18870945178E+04  0.15294330000E+03 0.  0.
<mgrwt>
<rscale>  0 0.96067529E+03</rscale>
<asrwt>0</asrwt>
<pdfrwt beam="1">  1        2 0.31635830E+00 0.10224492E+04</pdfrwt>
<pdfrwt beam="2">  1       -2 0.16973364E+00 0.10224492E+04</pdfrwt>
<totfact> 0.13240236E+00</totfact>
</mgrwt>
</event>
<event>
 4    1  0.2878104E-007  0.6618658E+03  0.7818608E-02  0.1022321E+00
         -2   -1    0    0    0  501 -0.00000000000E+00  0.00000000000E+00  0.18305461950E+03  0.18305461952E+03  0.25500000000E-02 0.  1.
          2   -1    0    0  501    0  0.00000000000E+00 -0.00000000000E+00 -0.11759739158E+04  0.11759739158E+04  0.25500000000E-02 0. -1.
    8880023    1    1    2    0    0 -0.18040504160E+02 -0.62694562094E+02 -0.47391763982E+03  0.81404189296E+03  0.65864270000E+03 0.  1.
    8880022    1    1    2    0    0  0.18040504160E+02  0.62694562094E+02 -0.51900165648E+03  0.54498664236E+03  0.15294330000E+03 0.  0.
<mgrwt>
<rscale>  0 0.46858119E+03</rscale>
<asrwt>0</asrwt>
<pdfrwt beam="1">  1        2 0.18091906E+00 0.66186575E+03</pdfrwt>
<pdfrwt beam="2">  1       -2 0.28162250E-01 0.66186575E+03</pdfrwt>
<totfact> 0.22942858E+02</totfact>
</mgrwt>
</event>
<event>
 4    1  0.2878104E-007  0.1837477E+04  0.7818608E-02  0.8702084E-01
          2   -1    0    0  501    0  0.00000000000E+00  0.00000000000E+00  0.17642559629E+04  0.17642559629E+04  0.25500000000E-02 0. -1.
         -2   -1    0    0    0  501 -0.00000000000E+00 -0.00000000000E+00 -0.24163713447E+04  0.24163713447E+04  0.25500000000E-02 0.  1.
    8880023    1    1    2    0    0 -0.14090197069E+04 -0.97835303919E+03 -0.13930315982E+04  0.23058313996E+04  0.65864270000E+03 0.  0.
    8880022    1    1    2    0    0  0.14090197069E+04  0.97835303919E+03  0.74091621646E+03  0.18747959080E+04  0.15294330000E+03 0.  0.
<mgrwt>
<rscale>  0 0.18079484E+04</rscale>
<asrwt>0</asrwt>
<pdfrwt beam="1">  1        2 0.27142399E+00 0.18374769E+04</pdfrwt>
<pdfrwt beam="2">  1       -2 0.37174944E+00 0.18374769E+04</pdfrwt>
<totfact> 0.92484687E-02</totfact>
</mgrwt>
</event>
<event>
 4    1  0.2878104E-007  0.1274779E+04  0.7818608E-02  0.9087652E-01
          2   -1    0    0  501    0  0.00000000000E+00  0.00000000000E+00  0.24038932374E+04  0.24038932374E+04  0.25500000000E-02 0. -1.
         -2   -1    0    0    0  501 -0.00000000000E+00 -0.00000000000E+00 -0.63239059626E+03  0.63239059626E+03  0.25500000000E-02 0.  1.
    8880023    1    1    2    0    0 -0.10347235818E+04  0.34727164176E+03  0.54225329551E+03  0.13853156054E+04  0.65864270000E+03 0.  0.
    8880022    1    1    2    0    0  0.10347235818E+04 -0.34727164176E+03  0.12292493457E+04  0.16509682283E+04  0.15294330000E+03 0.  0.
<mgrwt>
<rscale>  0 0.12292271E+04</rscale>
<asrwt>0</asrwt>
<pdfrwt beam="1">  1        2 0.36982973E+00 0.12747787E+04</pdfrwt>
<pdfrwt beam="2">  1       -2 0.97290861E-01 0.12747787E+04</pdfrwt>
<totfact> 0.33976972E+00</totfact>
</mgrwt>
</event>
<event>
 4    1  0.2878104E-007  0.1186389E+04  0.7818608E-02  0.9170468E-01
         -2   -1    0    0    0  501 -0.00000000000E+00  0.00000000000E+00  0.13951503089E+04  0.13951503089E+04  0.25500000000E-02 0.  1.
          2   -1    0    0  501    0  0.00000000000E+00 -0.00000000000E+00 -0.30191892097E+04  0.30191892097E+04  0.25500000000E-02 0. -1.
    8880023    1    1    2    0    0 -0.72823450885E+03 -0.66586960330E+03  0.10347409585E+04  0.15742321576E+04  0.65864270000E+03 0.  0.
    8880022    1    1    2    0    0  0.72823450885E+03  0.66586960330E+03 -0.26587798594E+04  0.28401073610E+04  0.15294330000E+03 0.  0.
<mgrwt>
<rscale>  0 0.11363511E+04</rscale>
<asrwt>0</asrwt>
<pdfrwt beam="1">  1        2 0.46449065E+00 0.11863887E+04</pdfrwt>
<pdfrwt beam="2">  1       -2 0.21463851E+00 0.11863887E+04</pdfrwt>
<totfact> 0.17845401E-01</totfact>
</mgrwt>
</event>
<event>
 4    1  0.2878104E-007  0.6653519E+03  0.7818608E-02  0.1019240E+00
         -2   -1    0    0    0  501 -0.00000000000E+00  0.00000000000E+00  0.53942045953E+03  0.53942045954E+03  0.25500000000E-02 0.  1.
          2   -1    0    0  501    0  0.00000000000E+00 -0.00000000000E+00 -0.34204885766E+03  0.34204885767E+03  0.25500000000E-02 0. -1.
    8880023    1    1    2    0    0 -0.13290851117E+02  0.93307698546E+02  0.21912379271E+03  0.70050582876E+03  0.65864270000E+03 0.  1.
    8880022    1    1    2    0    0  0.13290851117E+02 -0.93307698546E+02 -0.21752190846E+02  0.18096348845E+03  0.15294330000E+03 0.  1.
<mgrwt>
<rscale>  0 0.47961882E+03</rscale>
<asrwt>0</asrwt>
<pdfrwt beam="1">  1        2 0.52622901E-01 0.66535192E+03</pdfrwt>
<pdfrwt beam="2">  1       -2 0.82987763E-01 0.66535192E+03</pdfrwt>
<totfact> 0.12229953E+02</totfact>
</mgrwt>
</event>
<event>
 4    1  0.2878104E-007  0.9082478E+03  0.7818608E-02  0.9512919E-01
         -2   -1    0    0    0  501 -0.00000000000E+00  0.00000000000E+00  0.11470267992E+04  0.11470267992E+04  0.25500000000E-02 0.  1.
          2   -1    0    0  501    0  0.00000000000E+00 -0.00000000000E+00 -0.89901340732E+03  0.89901340733E+03  0.25500000000E-02 0. -1.
    8880023    1    1    2    0    0  0.61187995156E+03 -0.12925441296E+03  0.79055155000E+03  0.12041120122E+04  0.65864270000E+03 0.  0.
    8880022    1    1    2    0    0 -0.61187995156E+03  0.12925441296E+03 -0.54253815813E+03  0.84192819435E+03  0.15294330000E+03 0.  0.
<mgrwt>
<rscale>  0 0.83338028E+03</rscale>
<asrwt>0</asrwt>
<pdfrwt beam="1">  1        2 0.13830976E+00 0.90824776E+03</pdfrwt>
<pdfrwt beam="2">  1       -2 0.17646566E+00 0.90824776E+03</pdfrwt>
<totfact> 0.56397294E+00</totfact>
</mgrwt>
</event>
<event>
 4    1  0.2878104E-007  0.1376878E+04  0.7818608E-02  0.9001861E-01
         -2   -1    0    0    0  501 -0.00000000000E+00  0.00000000000E+00  0.15830563533E+04  0.15830563533E+04  0.25500000000E-02 0.  1.
          2   -1    0    0  501    0  0.00000000000E+00 -0.00000000000E+00 -0.17523797639E+04  0.17523797639E+04  0.25500000000E-02 0. -1.
    8880023    1    1    2    0    0  0.11540828529E+04  0.36065857615E+03  0.95630346252E+03  0.16763974346E+04  0.65864270000E+03 0.  1.
    8880022    1    1    2    0    0 -0.11540828529E+04 -0.36065857615E+03 -0.11256268731E+04  0.16590386826E+04  0.15294330000E+03 0.  0.
<mgrwt>
<rscale>  0 0.13355218E+04</rscale>
<asrwt>0</asrwt>
<pdfrwt beam="1">  1        2 0.26959689E+00 0.13768776E+04</pdfrwt>
<pdfrwt beam="2">  1       -2 0.24354713E+00 0.13768776E+04</pdfrwt>
<totfact> 0.61428538E-01</totfact>
</mgrwt>
</event>
<event>
 4    1  0.2878104E-007  0.6730965E+03  0.7818608E-02  0.1013534E+00
          2   -1    0    0  501    0  0.00000000000E+00  0.00000000000E+00  0.39344412345E+03  0.39344412346E+03  0.25500000000E-02 0. -1.
         -2   -1    0    0    0  501 -0.00000000000E+00 -0.00000000000E+00 -0.60803608344E+03  0.60803608345E+03  0.25500000000E-02 0.  1.
    8880023    1    1    2    0    0  0.13583443843E+03 -0.28243369735E+02 -0.34589871468E+03  0.75677262746E+03  0.65864270000E+03 0.  0.
    8880022    1    1    2    0    0 -0.13583443843E+03  0.28243369735E+02  0.13130675469E+03  0.24470757945E+03  0.15294330000E+03 0.  0.
<mgrwt>
<rscale>  0 0.50093984E+03</rscale>
<asrwt>0</asrwt>
<pdfrwt beam="1">  1        2 0.60529865E-01 0.67309649E+03</pdfrwt>
<pdfrwt beam="2">  1       -2 0.93544013E-01 0.67309649E+03</pdfrwt>
<totfact> 0.79458051E+01</totfact>
</mgrwt>
</event>
<event>
 4    1  0.2878104E-007  0.1281710E+04  0.7818608E-02  0.9081518E-01
          2   -1    0    0  501    0  0.00000000000E+00  0.00000000000E+00  0.23486402116E+04  0.23486402116E+04  0.25500000000E-02 0. -1.
         -2   -1    0    0    0  501 -0.00000000000E+00 -0.00000000000E+00 -0.12323054062E+04  0.12323054062E+04  0.25500000000E-02 0.  1.
    8880023    1    1    2    0    0  0.10235407773E+04 -0.40166443864E+03 -0.69385595558E+03  0.14574691549E+04  0.65864270000E+03 0.  0.
    8880022    1    1    2    0    0 -0.10235407773E+04  0.40166443864E+03  0.18101907610E+04  0.21234764628E+04  0.15294330000E+03 0.  0.
<mgrwt>
<rscale>  0 0.12364728E+04</rscale>
<asrwt>0</asrwt>
<pdfrwt beam="1">  1        2 0.36132926E+00 0.12817099E+04</pdfrwt>
<pdfrwt beam="2">  1       -2 0.18958545E+00 0.12817099E+04</pdfrwt>
<totfact> 0.63963822E-01</totfact>
</mgrwt>
</event>
<event>
 4    1  0.2878104E-007  0.7806496E+03  0.7818608E-02  0.9754313E-01
          2   -1    0    0  501    0  0.00000000000E+00  0.00000000000E+00  0.46686505012E+04  0.46686505012E+04  0.25500000000E-02 0. -1.
         -2   -1    0    0    0  501 -0.00000000000E+00 -0.00000000000E+00 -0.18903688022E+03  0.18903688024E+03  0.25500000000E-02 0.  1.
    8880023    1    1    2    0    0 -0.41265775081E+03  0.72919111377E+02  0.68991299394E+03  0.10418223273E+04  0.65864270000E+03 0.  0.
    8880022    1    1    2    0    0  0.41265775081E+03 -0.72919111377E+02  0.37897006271E+04  0.38158650542E+04  0.15294330000E+03 0.  0.
<mgrwt>
<rscale>  0 0.67873064E+03</rscale>
<asrwt>0</asrwt>
<pdfrwt beam="1">  1        2 0.71825392E+00 0.78064962E+03</pdfrwt>
<pdfrwt beam="2">  1       -2 0.29082597E-01 0.78064962E+03</pdfrwt>
<totfact> 0.10255797E+00</totfact>
</mgrwt>
</event>
<event>
 4    1  0.2878104E-007  0.1101241E+04  0.7818608E-02  0.9259676E-01
         -2   -1    0    0    0  501 -0.00000000000E+00  0.00000000000E+00  0.12203976260E+04  0.12203976260E+04  0.25500000000E-02 0.  1.
          2   -1    0    0  501    0  0.00000000000E+00 -0.00000000000E+00 -0.14575096710E+04  0.14575096710E+04  0.25500000000E-02 0. -1.
    8880023    1    1    2    0    0  0.31242588140E+03 -0.82541589217E+03  0.75963550481E+03  0.13378257109E+04  0.65864270000E+03 0.  0.
    8880022    1    1    2    0    0 -0.31242588140E+03  0.82541589217E+03 -0.99674754980E+03  0.13400815861E+04  0.15294330000E+03 0.  0.
<mgrwt>
<rscale>  0 0.10458147E+04</rscale>
<asrwt>0</asrwt>
<pdfrwt beam="1">  1        2 0.22423226E+00 0.11012409E+04</pdfrwt>
<pdfrwt beam="2">  1       -2 0.18775348E+00 0.11012409E+04</pdfrwt>
<totfact> 0.21120613E+00</totfact>
</mgrwt>
</event>
<event>
 4    1  0.2878104E-007  0.8325623E+03  0.7818608E-02  0.9644367E-01
          2   -1    0    0  501    0  0.00000000000E+00  0.00000000000E+00  0.58351636388E+03  0.58351636388E+03  0.25500000000E-02 0. -1.
         -2   -1    0    0    0  501 -0.00000000000E+00 -0.00000000000E+00 -0.99262185996E+03  0.99262185996E+03  0.25500000000E-02 0.  1.
    8880023    1    1    2    0    0  0.50714306855E+03  0.46429669437E+02 -0.58334041422E+03  0.10165854865E+04  0.65864270000E+03 0.  0.
    8880022    1    1    2    0    0 -0.50714306855E+03 -0.46429669437E+02  0.17423491815E+03  0.55955273737E+03  0.15294330000E+03 0.  0.
<mgrwt>
<rscale>  0 0.74427983E+03</rscale>
<asrwt>0</asrwt>
<pdfrwt beam="1">  1        2 0.89771749E-01 0.83256232E+03</pdfrwt>
<pdfrwt beam="2">  1       -2 0.15271105E+00 0.83256232E+03</pdfrwt>
<totfact> 0.14753309E+01</totfact>
</mgrwt>
</event>
<event>
 4    1  0.2878104E-007  0.1408643E+04  0.7818608E-02  0.8976995E-01
         -2   -1    0    0    0  501 -0.00000000000E+00  0.00000000000E+00  0.22177241162E+04  0.22177241162E+04  0.25500000000E-02 0.  1.
          2   -1    0    0  501    0  0.00000000000E+00 -0.00000000000E+00 -0.12509238040E+04  0.12509238040E+04  0.25500000000E-02 0. -1.
    8880023    1    1    2    0    0 -0.12407836037E+04 -0.10450952187E+03  0.15419868925E+04  0.20885401539E+04  0.65864270000E+03 0.  0.
    8880022    1    1    2    0    0  0.12407836037E+04  0.10450952187E+03 -0.57518658035E+03  0.13801077663E+04  0.15294330000E+03 0.  0.
<mgrwt>
<rscale>  0 0.13684266E+04</rscale>
<asrwt>0</asrwt>
<pdfrwt beam="1">  1        2 0.19244982E+00 0.14086435E+04</pdfrwt>
<pdfrwt beam="2">  1       -2 0.34118832E+00 0.14086435E+04</pdfrwt>
<totfact> 0.29809445E-01</totfact>
</mgrwt>
</event>
<event>
 4    1  0.2878104E-007  0.7460247E+03  0.7818608E-02  0.9842733E-01
          2   -1    0    0  501    0  0.00000000000E+00  0.00000000000E+00  0.12430214566E+04  0.12430214566E+04  0.25500000000E-02 0. -1.
         -2   -1    0    0    0  501 -0.00000000000E+00 -0.00000000000E+00 -0.16699139729E+04  0.16699139729E+04  0.25500000000E-02 0.  1.
    8880023    1    1    2    0    0  0.12477098206E+03  0.32737566957E+03 -0.15534428576E+04  0.17232926464E+04  0.65864270000E+03 0.  1.
    8880022    1    1    2    0    0 -0.12477098206E+03 -0.32737566957E+03  0.11265503412E+04  0.11896427831E+04  0.15294330000E+03 0.  0.
<mgrwt>
<rscale>  0 0.63118826E+03</rscale>
<asrwt>0</asrwt>
<pdfrwt beam="1">  1        2 0.19123407E+00 0.74602469E+03</pdfrwt>
<pdfrwt beam="2">  1       -2 0.25690984E+00 0.74602469E+03</pdfrwt>
<totfact> 0.10823021E+00</totfact>
</mgrwt>
</event>
<event>
 4    1  0.2878104E-007  0.9696948E+03  0.7818608E-02  0.9422326E-01
          2   -1    0    0  501    0  0.00000000000E+00  0.00000000000E+00  0.28256464006E+04  0.28256464006E+04  0.25500000000E-02 0. -1.
         -2   -1    0    0    0  501 -0.00000000000E+00 -0.00000000000E+00 -0.45955789137E+03  0.45955789137E+03  0.25500000000E-02 0.  1.
    8880023    1    1    2    0    0  0.55767698679E+03  0.44214714122E+03  0.18675689552E+03  0.98751509375E+03  0.65864270000E+03 0.  1.
    8880022    1    1    2    0    0 -0.55767698679E+03 -0.44214714122E+03  0.21793316137E+04  0.22976891983E+04  0.15294330000E+03 0.  0.
<mgrwt>
<rscale>  0 0.90260854E+03</rscale>
<asrwt>0</asrwt>
<pdfrwt beam="1">  1        2 0.43471484E+00 0.96969476E+03</pdfrwt>
<pdfrwt beam="2">  1       -2 0.70701213E-01 0.96969476E+03</pdfrwt>
<totfact> 0.41483008E+00</totfact>
</mgrwt>
</event>
<event>
 4    1  0.2878104E-007  0.1138001E+04  0.7818608E-02  0.9219881E-01
          2   -1    0    0  501    0  0.00000000000E+00  0.00000000000E+00  0.24484896412E+04  0.24484896412E+04  0.25500000000E-02 0. -1.
         -2   -1    0    0    0  501 -0.00000000000E+00 -0.00000000000E+00 -0.12970200782E+04  0.12970200782E+04  0.25500000000E-02 0.  1.
    8880023    1    1    2    0    0  0.24182258921E+03  0.89596818720E+03 -0.92463752389E+03  0.14662884825E+04  0.65864270000E+03 0.  0.
    8880022    1    1    2    0    0 -0.24182258921E+03 -0.89596818720E+03  0.20761070869E+04  0.22792212369E+04  0.15294330000E+03 0.  0.
<mgrwt>
<rscale>  0 0.10850563E+04</rscale>
<asrwt>0</asrwt>
<pdfrwt beam="1">  1        2 0.37669071E+00 0.11380015E+04</pdfrwt>
<pdfrwt beam="2">  1       -2 0.19954155E+00 0.11380015E+04</pdfrwt>
<totfact> 0.49131404E-01</totfact>
</mgrwt>
</event>
<event>
 4    1  0.2878104E-007  0.1182915E+04  0.7818608E-02  0.9173912E-01
         -2   -1    0    0    0  501 -0.00000000000E+00  0.00000000000E+00  0.87647534801E+03  0.87647534801E+03  0.25500000000E-02 0.  1.
          2   -1    0    0  501    0  0.00000000000E+00 -0.00000000000E+00 -0.36821424566E+04  0.36821424566E+04  0.25500000000E-02 0. -1.
    8880023    1    1    2    0    0 -0.96867660780E+03 -0.16475221197E+03  0.36317385059E+03  0.12374098407E+04  0.65864270000E+03 0.  1.
    8880022    1    1    2    0    0  0.96867660780E+03  0.16475221197E+03 -0.31688409592E+04  0.33212079639E+04  0.15294330000E+03 0.  0.
<mgrwt>
<rscale>  0 0.11326807E+04</rscale>
<asrwt>0</asrwt>
<pdfrwt beam="1">  1        2 0.56648345E+00 0.11829150E+04</pdfrwt>
<pdfrwt beam="2">  1       -2 0.13484236E+00 0.11829150E+04</pdfrwt>
<totfact> 0.23887475E-01</totfact>
</mgrwt>
</event>
<event>
 4    1  0.2878104E-007  0.9103467E+03  0.7818608E-02  0.9509622E-01
         -2   -1    0    0    0  501 -0.00000000000E+00  0.00000000000E+00  0.33950422135E+03  0.33950422136E+03  0.25500000000E-02 0.  1.
          2   -1    0    0  501    0  0.00000000000E+00 -0.00000000000E+00 -0.20083862143E+04  0.20083862143E+04  0.25500000000E-02 0. -1.
    8880023    1    1    2    0    0  0.58179558407E+03  0.23756008873E+03 -0.57386003841E+03  0.10761256652E+04  0.65864270000E+03 0.  0.
    8880022    1    1    2    0    0 -0.58179558407E+03 -0.23756008873E+03 -0.10950219545E+04  0.12717647704E+04  0.15294330000E+03 0.  0.
<mgrwt>
<rscale>  0 0.83578145E+03</rscale>
<asrwt>0</asrwt>
<pdfrwt beam="1">  1        2 0.30898249E+00 0.91034669E+03</pdfrwt>
<pdfrwt beam="2">  1       -2 0.52231420E-01 0.91034669E+03</pdfrwt>
<totfact> 0.23180969E+01</totfact>
</mgrwt>
</event>
<event>
 4    1  0.2878104E-007  0.7129229E+03  0.7818608E-02  0.9947303E-01
         -2   -1    0    0    0  501 -0.00000000000E+00  0.00000000000E+00  0.15910934283E+03  0.15910934285E+03  0.25500000000E-02 0.  1.
          2   -1    0    0  501    0  0.00000000000E+00 -0.00000000000E+00 -0.20266401399E+04  0.20266401399E+04  0.25500000000E-02 0. -1.
    8880023    1    1    2    0    0  0.17143183253E+03  0.21227330422E+03 -0.79177950829E+03  0.10654453646E+04  0.65864270000E+03 0.  1.
    8880022    1    1    2    0    0 -0.17143183253E+03 -0.21227330422E+03 -0.10757512888E+04  0.11203041182E+04  0.15294330000E+03 0.  0.
<mgrwt>
<rscale>  0 0.58022540E+03</rscale>
<asrwt>0</asrwt>
<pdfrwt beam="1">  1        2 0.31179077E+00 0.71292288E+03</pdfrwt>
<pdfrwt beam="2">  1       -2 0.24478362E-01 0.71292288E+03</pdfrwt>
<totfact> 0.99129761E+01</totfact>
</mgrwt>
</event>
<event>
 4    1  0.2878104E-007  0.8182673E+03  0.7818608E-02  0.9672607E-01
         -2   -1    0    0    0  501 -0.00000000000E+00  0.00000000000E+00  0.49955750372E+03  0.49955750373E+03  0.25500000000E-02 0.  1.
          2   -1    0    0  501    0  0.00000000000E+00 -0.00000000000E+00 -0.14285237962E+04  0.14285237962E+04  0.25500000000E-02 0. -1.
    8880023    1    1    2    0    0  0.27583382347E+03  0.39958346770E+03  0.55122673056E+02  0.82012191849E+03  0.65864270000E+03 0.  0.
    8880022    1    1    2    0    0 -0.27583382347E+03 -0.39958346770E+03 -0.98408896550E+03  0.11079593814E+04  0.15294330000E+03 0.  0.
<mgrwt>
<rscale>  0 0.72671451E+03</rscale>
<asrwt>0</asrwt>
<pdfrwt beam="1">  1        2 0.21977289E+00 0.81826735E+03</pdfrwt>
<pdfrwt beam="2">  1       -2 0.76855001E-01 0.81826735E+03</pdfrwt>
<totfact> 0.21388455E+01</totfact>
</mgrwt>
</event>
<event>
 4    1  0.2878104E-007  0.8583981E+03  0.7818608E-02  0.9596419E-01
          2   -1    0    0  501    0  0.00000000000E+00  0.00000000000E+00  0.26827536450E+04  0.26827536450E+04  0.25500000000E-02 0. -1.
         -2   -1    0    0    0  501 -0.00000000000E+00 -0.00000000000E+00 -0.32285023334E+03  0.32285023335E+03  0.25500000000E-02 0.  1.
    8880023    1    1    2    0    0 -0.15375099293E+03 -0.52858090055E+03  0.36901238510E+03  0.93435404578E+03  0.65864270000E+03 0.  1.
    8880022    1    1    2    0    0  0.15375099293E+03  0.52858090055E+03  0.19908910266E+04  0.20712498326E+04  0.15294330000E+03 0.  0.
<mgrwt>
<rscale>  0 0.77533632E+03</rscale>
<asrwt>0</asrwt>
<pdfrwt beam="1">  1        2 0.41273133E+00 0.85839813E+03</pdfrwt>
<pdfrwt beam="2">  1       -2 0.49669266E-01 0.85839813E+03</pdfrwt>
<totfact> 0.10800120E+01</totfact>
</mgrwt>
</event>
<event>
 4    1  0.2878104E-007  0.7395081E+03  0.7818608E-02  0.9861382E-01
          2   -1    0    0  501    0  0.00000000000E+00  0.00000000000E+00  0.94087127177E+03  0.94087127177E+03  0.25500000000E-02 0. -1.
         -2   -1    0    0    0  501 -0.00000000000E+00 -0.00000000000E+00 -0.11457713822E+04  0.11457713822E+04  0.25500000000E-02 0.  1.
    8880023    1    1    2    0    0 -0.58000362084E+01  0.33619704304E+03 -0.98018188928E+03  0.12278553801E+04  0.65864270000E+03 0.  1.
    8880022    1    1    2    0    0  0.58000362084E+01 -0.33619704304E+03  0.77528177883E+03  0.85878727387E+03  0.15294330000E+03 0.  0.
<mgrwt>
<rscale>  0 0.62169934E+03</rscale>
<asrwt>0</asrwt>
<pdfrwt beam="1">  1        2 0.14474943E+00 0.73950815E+03</pdfrwt>
<pdfrwt beam="2">  1       -2 0.17627252E+00 0.73950815E+03</pdfrwt>
<totfact> 0.54135805E+00</totfact>
</mgrwt>
</event>
<event>
 4    1  0.4319740E-007  0.6615008E+03  0.7818608E-02  0.1022669E+00
         -2   -1    0    0    0  501 -0.00000000000E+00  0.00000000000E+00  0.14448355100E+04  0.14448355100E+04  0.25500000000E-02 0.  1.
          2   -1    0    0  501    0  0.00000000000E+00 -0.00000000000E+00 -0.23251046447E+04  0.23251046447E+04  0.25500000000E-02 0. -1.
    8880023    1    1    2    0    0  0.60125796780E+02  0.12571507970E+02  0.13659425266E+04  0.15176898057E+04  0.65864270000E+03 0.  1.
    8880022    1    1    2    0    0 -0.60125796780E+02 -0.12571507970E+02 -0.22462116613E+04  0.22522503490E+04  0.15294330000E+03 0.  0.
<mgrwt>
<rscale>  0 0.46735687E+03</rscale>
<asrwt>0</asrwt>
<pdfrwt beam="1">  1        2 0.35770841E+00 0.66150084E+03</pdfrwt>
<pdfrwt beam="2">  1       -2 0.22228239E+00 0.66150084E+03</pdfrwt>
<totfact> 0.45327537E-01</totfact>
</mgrwt>
</event>
<event>
 4    1  0.2878104E-007  0.7782409E+03  0.7818608E-02  0.9759986E-01
         -2   -1    0    0    0  501 -0.00000000000E+00  0.00000000000E+00  0.12003153443E+04  0.12003153443E+04  0.25500000000E-02 0.  1.
          2   -1    0    0  501    0  0.00000000000E+00 -0.00000000000E+00 -0.21416660410E+04  0.21416660410E+04  0.25500000000E-02 0. -1.
    8880023    1    1    2    0    0 -0.17219510518E+03 -0.37709081869E+03  0.10473202673E+04  0.13048136220E+04  0.65864270000E+03 0.  1.
    8880022    1    1    2    0    0  0.17219510518E+03  0.37709081869E+03 -0.19886709640E+04  0.20371677633E+04  0.15294330000E+03 0.  0.
<mgrwt>
<rscale>  0 0.67554877E+03</rscale>
<asrwt>0</asrwt>
<pdfrwt beam="1">  1        2 0.32948708E+00 0.77824087E+03</pdfrwt>
<pdfrwt beam="2">  1       -2 0.18466390E+00 0.77824087E+03</pdfrwt>
<totfact> 0.97489653E-01</totfact>
</mgrwt>
</event>
<event>
 4    1  0.2878104E-007  0.9732837E+03  0.7818608E-02  0.9417377E-01
          2   -1    0    0  501    0  0.00000000000E+00  0.00000000000E+00  0.13358398458E+04  0.13358398458E+04  0.25500000000E-02 0. -1.
         -2   -1    0    0    0  501 -0.00000000000E+00 -0.00000000000E+00 -0.77061536327E+03  0.77061536327E+03  0.25500000000E-02 0.  1.
    8880023    1    1    2    0    0  0.15903677837E+03 -0.69869758770E+03 -0.25548893474E+03  0.10062583257E+04  0.65864270000E+03 0.  0.
    8880022    1    1    2    0    0 -0.15903677837E+03  0.69869758770E+03  0.82071341725E+03  0.11001968834E+04  0.15294330000E+03 0.  0.
<mgrwt>
<rscale>  0 0.90659329E+03</rscale>
<asrwt>0</asrwt>
<pdfrwt beam="1">  1        2 0.20551382E+00 0.97328373E+03</pdfrwt>
<pdfrwt beam="2">  1       -2 0.11855621E+00 0.97328373E+03</pdfrwt>
<totfact> 0.85865910E+00</totfact>
</mgrwt>
</event>
<event>
 4    1  0.2878104E-007  0.7053549E+03  0.7818608E-02  0.9975672E-01
         -2   -1    0    0    0  501 -0.00000000000E+00  0.00000000000E+00  0.31648592039E+03  0.31648592040E+03  0.25500000000E-02 0.  1.
          2   -1    0    0  501    0  0.00000000000E+00 -0.00000000000E+00 -0.17282609967E+04  0.17282609967E+04  0.25500000000E-02 0. -1.
    8880023    1    1    2    0    0 -0.50651083575E+02 -0.24728492182E+03 -0.11482599171E+03  0.71464017482E+03  0.65864270000E+03 0.  1.
    8880022    1    1    2    0    0  0.50651083575E+02  0.24728492182E+03 -0.12969490846E+04  0.13301067423E+04  0.15294330000E+03 0.  0.
<mgrwt>
<rscale>  0 0.56729953E+03</rscale>
<asrwt>0</asrwt>
<pdfrwt beam="1">  1        2 0.26588630E+00 0.70535493E+03</pdfrwt>
<pdfrwt beam="2">  1       -2 0.48690143E-01 0.70535493E+03</pdfrwt>
<totfact> 0.38986775E+01</totfact>
</mgrwt>
</event>
<event>
 4    1  0.2878104E-007  0.8371034E+03  0.7818608E-02  0.9635666E-01
         -2   -1    0    0    0  501 -0.00000000000E+00  0.00000000000E+00  0.11529150422E+04  0.11529150422E+04  0.25500000000E-02 0.  1.
          2   -1    0    0  501    0  0.00000000000E+00 -0.00000000000E+00 -0.93148896960E+03  0.93148896961E+03  0.25500000000E-02 0. -1.
    8880023    1    1    2    0    0 -0.15201504950E+03  0.49378472178E+03  0.89259561780E+03  0.12237111873E+04  0.65864270000E+03 0.  1.
    8880022    1    1    2    0    0  0.15201504950E+03 -0.49378472178E+03 -0.67116954520E+03  0.86069282451E+03  0.15294330000E+03 0.  0.
<mgrwt>
<rscale>  0 0.74979860E+03</rscale>
<asrwt>0</asrwt>
<pdfrwt beam="1">  1        2 0.14330600E+00 0.83710342E+03</pdfrwt>
<pdfrwt beam="2">  1       -2 0.17737154E+00 0.83710342E+03</pdfrwt>
<totfact> 0.53293917E+00</totfact>
</mgrwt>
</event>
<event>
 4    1  0.2878104E-007  0.1079504E+04  0.7818608E-02  0.9284227E-01
          2   -1    0    0  501    0  0.00000000000E+00  0.00000000000E+00  0.10633974124E+04  0.10633974124E+04  0.25500000000E-02 0. -1.
         -2   -1    0    0    0  501 -0.00000000000E+00 -0.00000000000E+00 -0.14717269275E+04  0.14717269275E+04  0.25500000000E-02 0.  1.
    8880023    1    1    2    0    0 -0.84619558339E+03  0.12438331050E+03 -0.10099695502E+04  0.14782986409E+04  0.65864270000E+03 0.  0.
    8880022    1    1    2    0    0  0.84619558339E+03 -0.12438331050E+03  0.60164003507E+03  0.10568256990E+04  0.15294330000E+03 0.  0.
<mgrwt>
<rscale>  0 0.10224804E+04</rscale>
<asrwt>0</asrwt>
<pdfrwt beam="1">  1        2 0.16359960E+00 0.10795038E+04</pdfrwt>
<pdfrwt beam="2">  1       -2 0.22641953E+00 0.10795038E+04</pdfrwt>
<totfact> 0.20361046E+00</totfact>
</mgrwt>
</event>
<event>
 4    1  0.2878104E-007  0.9726410E+03  0.7818608E-02  0.9418261E-01
          2   -1    0    0  501    0  0.00000000000E+00  0.00000000000E+00  0.40589104584E+03  0.40589104584E+03  0.25500000000E-02 0. -1.
         -2   -1    0    0    0  501 -0.00000000000E+00 -0.00000000000E+00 -0.26063617313E+04  0.26063617313E+04  0.25500000000E-02 0.  1.
    8880023    1    1    2    0    0  0.14891343749E+03 -0.70003220082E+03 -0.20443454665E+04  0.22639299651E+04  0.65864270000E+03 0.  1.
    8880022    1    1    2    0    0 -0.14891343749E+03  0.70003220082E+03 -0.15612521895E+03  0.74832281207E+03  0.15294330000E+03 0.  0.
<mgrwt>
<rscale>  0 0.90588008E+03</rscale>
<asrwt>0</asrwt>
<pdfrwt beam="1">  1        2 0.62444778E-01 0.97264099E+03</pdfrwt>
<pdfrwt beam="2">  1       -2 0.40097872E+00 0.97264099E+03</pdfrwt>
<totfact> 0.58655706E-01</totfact>
</mgrwt>
</event>
<event>
 4    1  0.2878104E-007  0.7113494E+03  0.7818608E-02  0.9953024E-01
          2   -1    0    0  501    0  0.00000000000E+00  0.00000000000E+00  0.12509221306E+04  0.12509221306E+04  0.25500000000E-02 0. -1.
         -2   -1    0    0    0  501 -0.00000000000E+00 -0.00000000000E+00 -0.70215507160E+03  0.70215507161E+03  0.25500000000E-02 0.  1.
    8880023    1    1    2    0    0  0.47729092726E+02  0.26444234590E+03 -0.49359434087E+03  0.86582527117E+03  0.65864270000E+03 0.  0.
    8880022    1    1    2    0    0 -0.47729092726E+02 -0.26444234590E+03  0.10423613998E+04  0.10872519310E+04  0.15294330000E+03 0. -1.
<mgrwt>
<rscale>  0 0.57758936E+03</rscale>
<asrwt>0</asrwt>
<pdfrwt beam="1">  1        2 0.19244956E+00 0.71134944E+03</pdfrwt>
<pdfrwt beam="2">  1       -2 0.10802386E+00 0.71134944E+03</pdfrwt>
<totfact> 0.12434106E+01</totfact>
</mgrwt>
</event>
<event>
 4    1  0.2878104E-007  0.7531747E+03  0.7818608E-02  0.9823109E-01
          2   -1    0    0  501    0  0.00000000000E+00  0.00000000000E+00  0.14385739007E+04  0.14385739007E+04  0.25500000000E-02 0. -1.
         -2   -1    0    0    0  501 -0.00000000000E+00 -0.00000000000E+00 -0.71817873932E+03  0.71817873932E+03  0.25500000000E-02 0.  1.
    8880023    1    1    2    0    0  0.35509430350E+03 -0.85848212373E+02 -0.47972143300E+03  0.89297521774E+03  0.65864270000E+03 0.  1.
    8880022    1    1    2    0    0 -0.35509430350E+03  0.85848212373E+02  0.12001165944E+04  0.12637774223E+04  0.15294330000E+03 0.  0.
<mgrwt>
<rscale>  0 0.64136989E+03</rscale>
<asrwt>0</asrwt>
<pdfrwt beam="1">  1        2 0.22131906E+00 0.75317467E+03</pdfrwt>
<pdfrwt beam="2">  1       -2 0.11048904E+00 0.75317467E+03</pdfrwt>
<totfact> 0.91481100E+00</totfact>
</mgrwt>
</event>
<event>
 4    1  0.2878104E-007  0.7621796E+03  0.7818608E-02  0.9799497E-01
          2   -1    0    0  501    0  0.00000000000E+00  0.00000000000E+00  0.15364183726E+04  0.15364183726E+04  0.25500000000E-02 0. -1.
         -2   -1    0    0    0  501 -0.00000000000E+00 -0.00000000000E+00 -0.52208211430E+03  0.52208211431E+03  0.25500000000E-02 0.  1.
    8880023    1    1    2    0    0 -0.36522152971E+03  0.11713581802E+03 -0.18986542031E+03  0.78547224630E+03  0.65864270000E+03 0.  1.
    8880022    1    1    2    0    0  0.36522152971E+03 -0.11713581802E+03  0.12042016786E+04  0.12730282406E+04  0.15294330000E+03 0.  0.
<mgrwt>
<rscale>  0 0.65389542E+03</rscale>
<asrwt>0</asrwt>
<pdfrwt beam="1">  1        2 0.23637206E+00 0.76217962E+03</pdfrwt>
<pdfrwt beam="2">  1       -2 0.80320325E-01 0.76217962E+03</pdfrwt>
<totfact> 0.16971897E+01</totfact>
</mgrwt>
</event>
<event>
 4    1  0.2878104E-007  0.8316378E+03  0.7818608E-02  0.9646154E-01
          2   -1    0    0  501    0  0.00000000000E+00  0.00000000000E+00  0.95375150990E+03  0.95375150990E+03  0.25500000000E-02 0. -1.
         -2   -1    0    0    0  501 -0.00000000000E+00 -0.00000000000E+00 -0.10146636425E+04  0.10146636425E+04  0.25500000000E-02 0.  1.
    8880023    1    1    2    0    0 -0.43171865200E+03 -0.26726426200E+03 -0.73559353510E+03  0.11102788998E+04  0.65864270000E+03 0.  0.
    8880022    1    1    2    0    0  0.43171865200E+03  0.26726426200E+03  0.67468140247E+03  0.85813625263E+03  0.15294330000E+03 0.  0.
<mgrwt>
<rscale>  0 0.74315280E+03</rscale>
<asrwt>0</asrwt>
<pdfrwt beam="1">  1        2 0.14673100E+00 0.83163777E+03</pdfrwt>
<pdfrwt beam="2">  1       -2 0.15610210E+00 0.83163777E+03</pdfrwt>
<totfact> 0.73325747E+00</totfact>
</mgrwt>
</event>
<event>
 4    1  0.2878104E-007  0.6706126E+03  0.7818608E-02  0.1015227E+00
         -2   -1    0    0    0  501 -0.00000000000E+00  0.00000000000E+00  0.88493030896E+03  0.88493030896E+03  0.25500000000E-02 0.  1.
          2   -1    0    0  501    0  0.00000000000E+00 -0.00000000000E+00 -0.21868828740E+04  0.21868828740E+04  0.25500000000E-02 0. -1.
    8880023    1    1    2    0    0  0.73502141539E+02  0.10251105334E+03  0.75241986666E+03  0.10078972879E+04  0.65864270000E+03 0.  1.
    8880022    1    1    2    0    0 -0.73502141539E+02 -0.10251105334E+03 -0.20543724317E+04  0.20639158951E+04  0.15294330000E+03 0.  0.
<mgrwt>
<rscale>  0 0.49448900E+03</rscale>
<asrwt>0</asrwt>
<pdfrwt beam="1">  1        2 0.33644352E+00 0.67061262E+03</pdfrwt>
<pdfrwt beam="2">  1       -2 0.13614312E+00 0.67061262E+03</pdfrwt>
<totfact> 0.21472174E+00</totfact>
</mgrwt>
</event>
<event>
 4    1  0.2878104E-007  0.1164283E+04  0.7818608E-02  0.9192648E-01
          2   -1    0    0  501    0  0.00000000000E+00  0.00000000000E+00  0.33945996317E+04  0.33945996317E+04  0.25500000000E-02 0. -1.
         -2   -1    0    0    0  501 -0.00000000000E+00 -0.00000000000E+00 -0.45390199355E+03  0.45390199356E+03  0.25500000000E-02 0.  1.
    8880023    1    1    2    0    0  0.14583795693E+03  0.94893474021E+03  0.59114447806E+03  0.13057594920E+04  0.65864270000E+03 0.  0.
    8880022    1    1    2    0    0 -0.14583795693E+03 -0.94893474021E+03  0.23495531601E+04  0.25427421332E+04  0.15294330000E+03 0.  0.
<mgrwt>
<rscale>  0 0.11129635E+04</rscale>
<asrwt>0</asrwt>
<pdfrwt beam="1">  1        2 0.52224607E+00 0.11642835E+04</pdfrwt>
<pdfrwt beam="2">  1       -2 0.69831079E-01 0.11642835E+04</pdfrwt>
<totfact> 0.18106015E+00</totfact>
</mgrwt>
</event>
<event>
 4    1  0.2878104E-007  0.7536505E+03  0.7818608E-02  0.9821832E-01
          2   -1    0    0  501    0  0.00000000000E+00  0.00000000000E+00  0.20187648788E+04  0.20187648788E+04  0.25500000000E-02 0. -1.
         -2   -1    0    0    0  501 -0.00000000000E+00 -0.00000000000E+00 -0.88143435146E+03  0.88143435146E+03  0.25500000000E-02 0.  1.
    8880023    1    1    2    0    0  0.32983745651E+03  0.15933021247E+03 -0.69510549077E+03  0.10252612905E+04  0.65864270000E+03 0.  1.
    8880022    1    1    2    0    0 -0.32983745651E+03 -0.15933021247E+03  0.18324360181E+04  0.18749379397E+04  0.15294330000E+03 0.  0.
<mgrwt>
<rscale>  0 0.64203967E+03</rscale>
<asrwt>0</asrwt>
<pdfrwt beam="1">  1        2 0.31057921E+00 0.75365050E+03</pdfrwt>
<pdfrwt beam="2">  1       -2 0.13560528E+00 0.75365050E+03</pdfrwt>
<totfact> 0.26377279E+00</totfact>
</mgrwt>
</event>
<event>
 4    1  0.2878104E-007  0.1660364E+04  0.7818608E-02  0.8803984E-01
          2   -1    0    0  501    0  0.00000000000E+00  0.00000000000E+00  0.17311076859E+04  0.17311076859E+04  0.25500000000E-02 0. -1.
         -2   -1    0    0    0  501 -0.00000000000E+00 -0.00000000000E+00 -0.17663886153E+04  0.17663886153E+04  0.25500000000E-02 0.  1.
    8880023    1    1    2    0    0 -0.15120381206E+04 -0.19167328234E+03  0.69570375124E+03  0.18002254973E+04  0.65864270000E+03 0.  0.
    8880022    1    1    2    0    0  0.15120381206E+04  0.19167328234E+03 -0.73098468065E+03  0.16972708039E+04  0.15294330000E+03 0.  0.
<mgrwt>
<rscale>  0 0.16272432E+04</rscale>
<asrwt>0</asrwt>
<pdfrwt beam="1">  1        2 0.26632426E+00 0.16603639E+04</pdfrwt>
<pdfrwt beam="2">  1       -2 0.27175209E+00 0.16603639E+04</pdfrwt>
<totfact> 0.41154371E-01</totfact>
</mgrwt>
</event>
<event>
 4    1  0.2878104E-007  0.8332059E+03  0.7818608E-02  0.9643127E-01
         -2   -1    0    0    0  501 -0.00000000000E+00  0.00000000000E+00  0.81163093355E+03  0.81163093355E+03  0.25500000000E-02 0.  1.
          2   -1    0    0  501    0  0.00000000000E+00 -0.00000000000E+00 -0.12068481845E+04  0.12068481845E+04  0.25500000000E-02 0. -1.
    8880023    1    1    2    0    0 -0.51011327733E+03 -0.14361104283E+02  0.50364942349E+03  0.97359886250E+03  0.65864270000E+03 0.  0.
    8880022    1    1    2    0    0  0.51011327733E+03  0.14361104283E+02 -0.89886667445E+03  0.10448802556E+04  0.15294330000E+03 0.  0.
<mgrwt>
<rscale>  0 0.74506362E+03</rscale>
<asrwt>0</asrwt>
<pdfrwt beam="1">  1        2 0.18566895E+00 0.83320586E+03</pdfrwt>
<pdfrwt beam="2">  1       -2 0.12486630E+00 0.83320586E+03</pdfrwt>
<totfact> 0.91095255E+00</totfact>
</mgrwt>
</event>
<event>
 4    1  0.2878104E-007  0.6804733E+03  0.7818608E-02  0.1009057E+00
          2   -1    0    0  501    0  0.00000000000E+00  0.00000000000E+00  0.87616493003E+03  0.87616493003E+03  0.25500000000E-02 0. -1.
         -2   -1    0    0    0  501 -0.00000000000E+00 -0.00000000000E+00 -0.12720730016E+04  0.12720730016E+04  0.25500000000E-02 0.  1.
    8880023    1    1    2    0    0  0.45154428423E+02  0.16490847333E+03 -0.11630723446E+04  0.13475092623E+04  0.65864270000E+03 0.  1.
    8880022    1    1    2    0    0 -0.45154428423E+02 -0.16490847333E+03  0.76716427305E+03  0.80072866930E+03  0.15294330000E+03 0.  0.
<mgrwt>
<rscale>  0 0.51851071E+03</rscale>
<asrwt>0</asrwt>
<pdfrwt beam="1">  1        2 0.13479460E+00 0.68047332E+03</pdfrwt>
<pdfrwt beam="2">  1       -2 0.19570354E+00 0.68047332E+03</pdfrwt>
<totfact> 0.44619709E+00</totfact>
</mgrwt>
</event>
<event>
 4    1  0.2878104E-007  0.7281040E+03  0.7818608E-02  0.9896062E-01
         -2   -1    0    0    0  501 -0.00000000000E+00  0.00000000000E+00  0.33995828300E+03  0.33995828301E+03  0.25500000000E-02 0.  1.
          2   -1    0    0  501    0  0.00000000000E+00 -0.00000000000E+00 -0.95453057896E+03  0.95453057896E+03  0.25500000000E-02 0. -1.
    8880023    1    1    2    0    0 -0.21122576105E+03 -0.22739596811E+03 -0.60775471965E+03  0.94842039938E+03  0.65864270000E+03 0.  0.
    8880022    1    1    2    0    0  0.21122576105E+03  0.22739596811E+03 -0.68175763099E+01  0.34606846260E+03  0.15294330000E+03 0.  0.
<mgrwt>
<rscale>  0 0.60452533E+03</rscale>
<asrwt>0</asrwt>
<pdfrwt beam="1">  1        2 0.14685086E+00 0.72810401E+03</pdfrwt>
<pdfrwt beam="2">  1       -2 0.52301275E-01 0.72810401E+03</pdfrwt>
<totfact> 0.94441036E+01</totfact>
</mgrwt>
</event>
<event>
 4    1  0.2878104E-007  0.6764884E+03  0.7818608E-02  0.1011384E+00
          2   -1    0    0  501    0  0.00000000000E+00  0.00000000000E+00  0.15695748109E+04  0.15695748109E+04  0.25500000000E-02 0. -1.
         -2   -1    0    0    0  501 -0.00000000000E+00 -0.00000000000E+00 -0.73585465023E+03  0.73585465024E+03  0.25500000000E-02 0.  1.
    8880023    1    1    2    0    0 -0.34887283109E+01 -0.15431863618E+03 -0.57023211753E+03  0.88476058164E+03  0.65864270000E+03 0.  1.
    8880022    1    1    2    0    0  0.34887283109E+01  0.15431863618E+03  0.14039522782E+04  0.14206688795E+04  0.15294330000E+03 0.  0.
<mgrwt>
<rscale>  0 0.50928257E+03</rscale>
<asrwt>0</asrwt>
<pdfrwt beam="1">  1        2 0.24147305E+00 0.67648845E+03</pdfrwt>
<pdfrwt beam="2">  1       -2 0.11320841E+00 0.67648845E+03</pdfrwt>
<totfact> 0.73754990E+00</totfact>
</mgrwt>
</event>
<event>
 4    1  0.2878104E-007  0.8854383E+03  0.7818608E-02  0.9549824E-01
         -2   -1    0    0    0  501 -0.00000000000E+00  0.00000000000E+00  0.34735028688E+03  0.34735028689E+03  0.25500000000E-02 0.  1.
          2   -1    0    0  501    0  0.00000000000E+00 -0.00000000000E+00 -0.25487777972E+04  0.25487777972E+04  0.25500000000E-02 0. -1.
    8880023    1    1    2    0    0 -0.42069860467E+03  0.41617724106E+03 -0.35984734233E+03  0.95576729803E+03  0.65864270000E+03 0.  0.
    8880022    1    1    2    0    0  0.42069860467E+03 -0.41617724106E+03 -0.18415801680E+04  0.19403607861E+04  0.15294330000E+03 0.  0.
<mgrwt>
<rscale>  0 0.80708086E+03</rscale>
<asrwt>0</asrwt>
<pdfrwt beam="1">  1        2 0.39211965E+00 0.88543832E+03</pdfrwt>
<pdfrwt beam="2">  1       -2 0.53438507E-01 0.88543832E+03</pdfrwt>
<totfact> 0.11066069E+01</totfact>
</mgrwt>
</event>
<event>
 4    1  0.2878104E-007  0.6830574E+03  0.7818608E-02  0.1007644E+00
          2   -1    0    0  501    0  0.00000000000E+00  0.00000000000E+00  0.10153024613E+04  0.10153024613E+04  0.25500000000E-02 0. -1.
         -2   -1    0    0    0  501 -0.00000000000E+00 -0.00000000000E+00 -0.10118152051E+04  0.10118152051E+04  0.25500000000E-02 0.  1.
    8880023    1    1    2    0    0  0.13728815611E+03 -0.11793721163E+03 -0.87909900356E+03  0.11132755670E+04  0.65864270000E+03 0.  1.
    8880022    1    1    2    0    0 -0.13728815611E+03  0.11793721163E+03  0.88258625977E+03  0.91384209940E+03  0.15294330000E+03 0.  0.
<mgrwt>
<rscale>  0 0.52421632E+03</rscale>
<asrwt>0</asrwt>
<pdfrwt beam="1">  1        2 0.15620038E+00 0.68305741E+03</pdfrwt>
<pdfrwt beam="2">  1       -2 0.15566388E+00 0.68305741E+03</pdfrwt>
<totfact> 0.68724956E+00</totfact>
</mgrwt>
</event>
<event>
 4    1  0.2878104E-007  0.1265588E+04  0.7818608E-02  0.9095861E-01
         -2   -1    0    0    0  501 -0.00000000000E+00  0.00000000000E+00  0.11032408824E+04  0.11032408824E+04  0.25500000000E-02 0.  1.
          2   -1    0    0  501    0  0.00000000000E+00 -0.00000000000E+00 -0.25283704922E+04  0.25283704922E+04  0.25500000000E-02 0. -1.
    8880023    1    1    2    0    0 -0.77176325860E+03  0.75649469585E+03  0.54610000407E+03  0.13783824480E+04  0.65864270000E+03 0.  1.
    8880022    1    1    2    0    0  0.77176325860E+03 -0.75649469585E+03 -0.19712296139E+04  0.22532289267E+04  0.15294330000E+03 0.  0.
<mgrwt>
<rscale>  0 0.12196119E+04</rscale>
<asrwt>0</asrwt>
<pdfrwt beam="1">  1        2 0.38898007E+00 0.12655880E+04</pdfrwt>
<pdfrwt beam="2">  1       -2 0.16972937E+00 0.12655880E+04</pdfrwt>
<totfact> 0.69483475E-01</totfact>
</mgrwt>
</event>
<event>
 4    1  0.2878104E-007  0.8914483E+03  0.7818608E-02  0.9539902E-01
         -2   -1    0    0    0  501 -0.00000000000E+00  0.00000000000E+00  0.10341011643E+04  0.10341011643E+04  0.25500000000E-02 0.  1.
          2   -1    0    0  501    0  0.00000000000E+00 -0.00000000000E+00 -0.89879185628E+03  0.89879185628E+03  0.25500000000E-02 0. -1.
    8880023    1    1    2    0    0  0.50177925358E+03  0.33028380488E+03  0.66928481664E+03  0.11147296458E+04  0.65864270000E+03 0.  1.
    8880022    1    1    2    0    0 -0.50177925358E+03 -0.33028380488E+03 -0.53397550862E+03  0.81816337483E+03  0.15294330000E+03 0.  0.
<mgrwt>
<rscale>  0 0.81404884E+03</rscale>
<asrwt>0</asrwt>
<pdfrwt beam="1">  1        2 0.13827567E+00 0.89144827E+03</pdfrwt>
<pdfrwt beam="2">  1       -2 0.15909249E+00 0.89144827E+03</pdfrwt>
<totfact> 0.75294979E+00</totfact>
</mgrwt>
</event>
<event>
 4    1  0.2878104E-007  0.8187993E+03  0.7818608E-02  0.9671532E-01
         -2   -1    0    0    0  501 -0.00000000000E+00  0.00000000000E+00  0.96914631082E+03  0.96914631082E+03  0.25500000000E-02 0.  1.
          2   -1    0    0  501    0  0.00000000000E+00 -0.00000000000E+00 -0.16526349204E+04  0.16526349204E+04  0.25500000000E-02 0. -1.
    8880023    1    1    2    0    0 -0.44073370081E+03  0.20585404695E+03  0.74376536047E+03  0.11061732239E+04  0.65864270000E+03 0.  1.
    8880022    1    1    2    0    0  0.44073370081E+03 -0.20585404695E+03 -0.14272539700E+04  0.15156080072E+04  0.15294330000E+03 0.  0.
<mgrwt>
<rscale>  0 0.72737376E+03</rscale>
<asrwt>0</asrwt>
<pdfrwt beam="1">  1        2 0.25425153E+00 0.81879930E+03</pdfrwt>
<pdfrwt beam="2">  1       -2 0.14909943E+00 0.81879930E+03</pdfrwt>
<totfact> 0.32317233E+00</totfact>
</mgrwt>
</event>
<event>
 4    1  0.2878104E-007  0.1281982E+04  0.7818608E-02  0.9081278E-01
         -2   -1    0    0    0  501 -0.00000000000E+00  0.00000000000E+00  0.12194919766E+04  0.12194919766E+04  0.25500000000E-02 0.  1.
          2   -1    0    0  501    0  0.00000000000E+00 -0.00000000000E+00 -0.15210818723E+04  0.15210818723E+04  0.25500000000E-02 0. -1.
    8880023    1    1    2    0    0 -0.46208016000E+03 -0.99807311298E+03  0.49472263728E+03  0.13741283445E+04  0.65864270000E+03 0.  1.
    8880022    1    1    2    0    0  0.46208016000E+03  0.99807311298E+03 -0.79631253301E+03  0.13664455044E+04  0.15294330000E+03 0.  0.
<mgrwt>
<rscale>  0 0.12367573E+04</rscale>
<asrwt>0</asrwt>
<pdfrwt beam="1">  1        2 0.23401260E+00 0.12819821E+04</pdfrwt>
<pdfrwt beam="2">  1       -2 0.18761415E+00 0.12819821E+04</pdfrwt>
<totfact> 0.19111153E+00</totfact>
</mgrwt>
</event>
<event>
 4    1  0.2878104E-007  0.8215611E+03  0.7818608E-02  0.9665981E-01
          2   -1    0    0  501    0  0.00000000000E+00  0.00000000000E+00  0.48918073720E+03  0.48918073720E+03  0.25500000000E-02 0. -1.
         -2   -1    0    0    0  501 -0.00000000000E+00 -0.00000000000E+00 -0.12608653938E+04  0.12608653938E+04  0.25500000000E-02 0.  1.
    8880023    1    1    2    0    0 -0.27193715361E+03  0.40890411740E+03 -0.90137768306E+03  0.12196082677E+04  0.65864270000E+03 0.  1.
    8880022    1    1    2    0    0  0.27193715361E+03 -0.40890411740E+03  0.12969302647E+03  0.53043786335E+03  0.15294330000E+03 0. -1.
<mgrwt>
<rscale>  0 0.73078923E+03</rscale>
<asrwt>0</asrwt>
<pdfrwt beam="1">  1        2 0.75258575E-01 0.82156107E+03</pdfrwt>
<pdfrwt beam="2">  1       -2 0.19397929E+00 0.82156107E+03</pdfrwt>
<totfact> 0.93094912E+00</totfact>
</mgrwt>
</event>
<event>
 4    1  0.2878104E-007  0.9510325E+03  0.7818608E-02  0.9448630E-01
          2   -1    0    0  501    0  0.00000000000E+00  0.00000000000E+00  0.20435988576E+04  0.20435988576E+04  0.25500000000E-02 0. -1.
         -2   -1    0    0    0  501 -0.00000000000E+00 -0.00000000000E+00 -0.60775875902E+03  0.60775875902E+03  0.25500000000E-02 0.  1.
    8880023    1    1    2    0    0  0.52240311975E+03 -0.44468818143E+03 -0.10594175299E+03  0.95691507435E+03  0.65864270000E+03 0.  0.
    8880022    1    1    2    0    0 -0.52240311975E+03  0.44468818143E+03  0.15417818516E+04  0.16944425423E+04  0.15294330000E+03 0.  0.
<mgrwt>
<rscale>  0 0.88179422E+03</rscale>
<asrwt>0</asrwt>
<pdfrwt beam="1">  1        2 0.31439983E+00 0.95103249E+03</pdfrwt>
<pdfrwt beam="2">  1       -2 0.93501346E-01 0.95103249E+03</pdfrwt>
<totfact> 0.61578898E+00</totfact>
</mgrwt>
</event>
<event>
 4    1  0.2878104E-007  0.1102242E+04  0.7818608E-02  0.9258564E-01
          2   -1    0    0  501    0  0.00000000000E+00  0.00000000000E+00  0.18474364797E+04  0.18474364797E+04  0.25500000000E-02 0. -1.
         -2   -1    0    0    0  501 -0.00000000000E+00 -0.00000000000E+00 -0.60128881519E+03  0.60128881519E+03  0.25500000000E-02 0.  1.
    8880023    1    1    2    0    0  0.88083299530E+03  0.72531042296E+02  0.10669429828E+04  0.15340485822E+04  0.65864270000E+03 0.  0.
    8880022    1    1    2    0    0 -0.88083299530E+03 -0.72531042296E+02  0.17920468165E+03  0.91467671264E+03  0.15294330000E+03 0.  0.
<mgrwt>
<rscale>  0 0.10468870E+04</rscale>
<asrwt>0</asrwt>
<pdfrwt beam="1">  1        2 0.28422099E+00 0.11022421E+04</pdfrwt>
<pdfrwt beam="2">  1       -2 0.92505973E-01 0.11022421E+04</pdfrwt>
<totfact> 0.79606681E+00</totfact>
</mgrwt>
</event>
<event>
 4    1  0.2878104E-007  0.1274295E+04  0.7818608E-02  0.9088082E-01
          2   -1    0    0  501    0  0.00000000000E+00  0.00000000000E+00  0.18452178763E+04  0.18452178763E+04  0.25500000000E-02 0. -1.
         -2   -1    0    0    0  501 -0.00000000000E+00 -0.00000000000E+00 -0.12660558332E+04  0.12660558332E+04  0.25500000000E-02 0.  1.
    8880023    1    1    2    0    0  0.85400742480E+03 -0.67874079831E+03  0.12796088847E+04  0.18058867232E+04  0.65864270000E+03 0.  0.
    8880022    1    1    2    0    0 -0.85400742480E+03  0.67874079831E+03 -0.70044684164E+03  0.13053869863E+04  0.15294330000E+03 0.  0.
<mgrwt>
<rscale>  0 0.12287214E+04</rscale>
<asrwt>0</asrwt>
<pdfrwt beam="1">  1        2 0.28387967E+00 0.12742951E+04</pdfrwt>
<pdfrwt beam="2">  1       -2 0.19477782E+00 0.12742951E+04</pdfrwt>
<totfact> 0.11286200E+00</totfact>
</mgrwt>
</event>
<event>
 4    1  0.2878104E-007  0.1447607E+04  0.7818608E-02  0.8947547E-01
          2   -1    0    0  501    0  0.00000000000E+00  0.00000000000E+00  0.22877448875E+04  0.22877448875E+04  0.25500000000E-02 0. -1.
         -2   -1    0    0    0  501 -0.00000000000E+00 -0.00000000000E+00 -0.87897181434E+03  0.87897181434E+03  0.25500000000E-02 0.  1.
    8880023    1    1    2    0    0  0.12341156825E+04 -0.37244334904E+03  0.34438880786E+03  0.14880085428E+04  0.65864270000E+03 0.  0.
    8880022    1    1    2    0    0 -0.12341156825E+04  0.37244334904E+03  0.10643842653E+04  0.16787081591E+04  0.15294330000E+03 0.  0.
<mgrwt>
<rscale>  0 0.14086974E+04</rscale>
<asrwt>0</asrwt>
<pdfrwt beam="1">  1        2 0.35196075E+00 0.14476069E+04</pdfrwt>
<pdfrwt beam="2">  1       -2 0.13522643E+00 0.14476069E+04</pdfrwt>
<totfact> 0.17216957E+00</totfact>
</mgrwt>
</event>
<event>
 4    1  0.2878104E-007  0.7991674E+03  0.7818608E-02  0.9712599E-01
         -2   -1    0    0    0  501 -0.00000000000E+00  0.00000000000E+00  0.17178643942E+03  0.17178643944E+03  0.25500000000E-02 0.  1.
          2   -1    0    0  501    0  0.00000000000E+00 -0.00000000000E+00 -0.23946206392E+04  0.23946206392E+04  0.25500000000E-02 0. -1.
    8880023    1    1    2    0    0 -0.12655149948E+02  0.45243576843E+03 -0.12703310230E+04  0.15008029157E+04  0.65864270000E+03 0.  1.
    8880022    1    1    2    0    0  0.12655149948E+02 -0.45243576843E+03 -0.95250317679E+03  0.10656041630E+04  0.15294330000E+03 0. -1.
<mgrwt>
<rscale>  0 0.70271567E+03</rscale>
<asrwt>0</asrwt>
<pdfrwt beam="1">  1        2 0.36840315E+00 0.79916737E+03</pdfrwt>
<pdfrwt beam="2">  1       -2 0.26428685E-01 0.79916737E+03</pdfrwt>
<totfact> 0.53503832E+01</totfact>
</mgrwt>
</event>
<event>
 4    1  0.2878104E-007  0.9750040E+03  0.7818608E-02  0.9415016E-01
          2   -1    0    0  501    0  0.00000000000E+00  0.00000000000E+00  0.84334221499E+03  0.84334221499E+03  0.25500000000E-02 0. -1.
         -2   -1    0    0    0  501 -0.00000000000E+00 -0.00000000000E+00 -0.10181170172E+04  0.10181170172E+04  0.25500000000E-02 0.  1.
    8880023    1    1    2    0    0 -0.71745352780E+03 -0.45641049908E+02  0.25794292658E+03  0.10085471876E+04  0.65864270000E+03 0.  0.
    8880022    1    1    2    0    0  0.71745352780E+03  0.45641049908E+02 -0.43271772878E+03  0.85291204458E+03  0.15294330000E+03 0.  0.
<mgrwt>
<rscale>  0 0.90850134E+03</rscale>
<asrwt>0</asrwt>
<pdfrwt beam="1">  1        2 0.12974496E+00 0.97500404E+03</pdfrwt>
<pdfrwt beam="2">  1       -2 0.15663339E+00 0.97500404E+03</pdfrwt>
<totfact> 0.85088199E+00</totfact>
</mgrwt>
</event>
<event>
 4    1  0.2878104E-007  0.8051825E+03  0.7818608E-02  0.9699700E-01
          2   -1    0    0  501    0  0.00000000000E+00  0.00000000000E+00  0.15011363583E+04  0.15011363583E+04  0.25500000000E-02 0. -1.
         -2   -1    0    0    0  501 -0.00000000000E+00 -0.00000000000E+00 -0.21789288829E+04  0.21789288829E+04  0.25500000000E-02 0.  1.
    8880023    1    1    2    0    0 -0.35629499735E+03 -0.29590963952E+03 -0.20613633612E+04  0.22130381274E+04  0.65864270000E+03 0.  0.
    8880022    1    1    2    0    0  0.35629499735E+03  0.29590963952E+03  0.13835708366E+04  0.14670271138E+04  0.15294330000E+03 0.  0.
<mgrwt>
<rscale>  0 0.71034629E+03</rscale>
<asrwt>0</asrwt>
<pdfrwt beam="1">  1        2 0.23094406E+00 0.80518249E+03</pdfrwt>
<pdfrwt beam="2">  1       -2 0.33521983E+00 0.80518249E+03</pdfrwt>
<totfact> 0.25645734E-01</totfact>
</mgrwt>
</event>
<event>
 4    1  0.2878104E-007  0.9997920E+03  0.7818608E-02  0.9381830E-01
         -2   -1    0    0    0  501 -0.00000000000E+00  0.00000000000E+00  0.25643189161E+04  0.25643189161E+04  0.25500000000E-02 0.  1.
          2   -1    0    0  501    0  0.00000000000E+00 -0.00000000000E+00 -0.35002874696E+03  0.35002874697E+03  0.25500000000E-02 0. -1.
    8880023    1    1    2    0    0 -0.46453068798E+02  0.75074362562E+03  0.17551493403E+04  0.20199339821E+04  0.65864270000E+03 0.  0.
    8880022    1    1    2    0    0  0.46453068798E+02 -0.75074362562E+03  0.45914082887E+03  0.89441368100E+03  0.15294330000E+03 0.  0.
<mgrwt>
<rscale>  0 0.93586222E+03</rscale>
<asrwt>0</asrwt>
<pdfrwt beam="1">  1        2 0.53850576E-01 0.99979202E+03</pdfrwt>
<pdfrwt beam="2">  1       -2 0.39451061E+00 0.99979202E+03</pdfrwt>
<totfact> 0.76100208E-01</totfact>
</mgrwt>
</event>
<event>
 4    1  0.2878104E-007  0.1419022E+04  0.7818608E-02  0.8969041E-01
         -2   -1    0    0    0  501 -0.00000000000E+00  0.00000000000E+00  0.19049977377E+04  0.19049977377E+04  0.25500000000E-02 0.  1.
          2   -1    0    0  501    0  0.00000000000E+00 -0.00000000000E+00 -0.13210771266E+04  0.13210771266E+04  0.25500000000E-02 0. -1.
    8880023    1    1    2    0    0 -0.12052465632E+04  0.35664229333E+03  0.11620875954E+04  0.18341403406E+04  0.65864270000E+03 0.  0.
    8880022    1    1    2    0    0  0.12052465632E+04 -0.35664229333E+03 -0.57816698428E+03  0.13919345236E+04  0.15294330000E+03 0.  0.
<mgrwt>
<rscale>  0 0.13791625E+04</rscale>
<asrwt>0</asrwt>
<pdfrwt beam="1">  1        2 0.20324264E+00 0.14190219E+04</pdfrwt>
<pdfrwt beam="2">  1       -2 0.29307657E+00 0.14190219E+04</pdfrwt>
<totfact> 0.53537664E-01</totfact>
</mgrwt>
</event>
<event>
 4    1  0.2878104E-007  0.7660818E+03  0.7818608E-02  0.9789609E-01
          2   -1    0    0  501    0  0.00000000000E+00  0.00000000000E+00  0.92185778791E+03  0.92185778792E+03  0.25500000000E-02 0. -1.
         -2   -1    0    0    0  501 -0.00000000000E+00 -0.00000000000E+00 -0.82445679073E+03  0.82445679073E+03  0.25500000000E-02 0.  1.
    8880023    1    1    2    0    0 -0.12742483754E+03  0.36991093200E+03 -0.57196919862E+03  0.95604924416E+03  0.65864270000E+03 0.  1.
    8880022    1    1    2    0    0  0.12742483754E+03 -0.36991093200E+03  0.66937019580E+03  0.79026533448E+03  0.15294330000E+03 0.  0.
<mgrwt>
<rscale>  0 0.65923163E+03</rscale>
<asrwt>0</asrwt>
<pdfrwt beam="1">  1        2 0.14182428E+00 0.76608184E+03</pdfrwt>
<pdfrwt beam="2">  1       -2 0.12683951E+00 0.76608184E+03</pdfrwt>
<totfact> 0.13289410E+01</totfact>
</mgrwt>
</event>
<event>
 4    1  0.2878104E-007  0.1090965E+04  0.7818608E-02  0.9271182E-01
         -2   -1    0    0    0  501 -0.00000000000E+00  0.00000000000E+00  0.16418810775E+04  0.16418810775E+04  0.25500000000E-02 0.  1.
          2   -1    0    0  501    0  0.00000000000E+00 -0.00000000000E+00 -0.11756325802E+04  0.11756325802E+04  0.25500000000E-02 0. -1.
    8880023    1    1    2    0    0  0.34464298170E+03 -0.79850884596E+03  0.12341892863E+04  0.16472487859E+04  0.65864270000E+03 0.  1.
    8880022    1    1    2    0    0 -0.34464298170E+03  0.79850884596E+03 -0.76794078897E+03  0.11702648719E+04  0.15294330000E+03 0.  0.
<mgrwt>
<rscale>  0 0.10347971E+04</rscale>
<asrwt>0</asrwt>
<pdfrwt beam="1">  1        2 0.18086655E+00 0.10909653E+04</pdfrwt>
<pdfrwt beam="2">  1       -2 0.25259709E+00 0.10909653E+04</pdfrwt>
<totfact> 0.11958643E+00</totfact>
</mgrwt>
</event>
<event>
 4    1  0.2878104E-007  0.8123366E+03  0.7818608E-02  0.9684730E-01
         -2   -1    0    0    0  501 -0.00000000000E+00  0.00000000000E+00  0.57157581730E+03  0.57157581730E+03  0.25500000000E-02 0.  1.
          2   -1    0    0  501    0  0.00000000000E+00 -0.00000000000E+00 -0.14502071344E+04  0.14502071344E+04  0.25500000000E-02 0. -1.
    8880023    1    1    2    0    0 -0.41552974164E+03 -0.23111814566E+03  0.19696480963E+03  0.83587433621E+03  0.65864270000E+03 0.  1.
    8880022    1    1    2    0    0  0.41552974164E+03  0.23111814566E+03 -0.10755961268E+04  0.11859086155E+04  0.15294330000E+03 0.  0.
<mgrwt>
<rscale>  0 0.71933268E+03</rscale>
<asrwt>0</asrwt>
<pdfrwt beam="1">  1        2 0.22310879E+00 0.81233661E+03</pdfrwt>
<pdfrwt beam="2">  1       -2 0.87934741E-01 0.81233661E+03</pdfrwt>
<totfact> 0.15339769E+01</totfact>
</mgrwt>
</event>
<event>
 4    1  0.2878104E-007  0.9157473E+03  0.7818608E-02  0.9501211E-01
         -2   -1    0    0    0  501 -0.00000000000E+00  0.00000000000E+00  0.45914215808E+03  0.45914215809E+03  0.25500000000E-02 0.  1.
          2   -1    0    0  501    0  0.00000000000E+00 -0.00000000000E+00 -0.17820300525E+04  0.17820300525E+04  0.25500000000E-02 0. -1.
    8880023    1    1    2    0    0 -0.59692251067E+03  0.22015084819E+03 -0.19357705741E+03  0.93598352716E+03  0.65864270000E+03 0.  1.
    8880022    1    1    2    0    0  0.59692251067E+03 -0.22015084819E+03 -0.11293108370E+04  0.13051886834E+04  0.15294330000E+03 0.  0.
<mgrwt>
<rscale>  0 0.84194618E+03</rscale>
<asrwt>0</asrwt>
<pdfrwt beam="1">  1        2 0.27415847E+00 0.91574728E+03</pdfrwt>
<pdfrwt beam="2">  1       -2 0.70637256E-01 0.91574728E+03</pdfrwt>
<totfact> 0.16238695E+01</totfact>
</mgrwt>
</event>
<event>
 4    1  0.2878104E-007  0.7429815E+03  0.7818608E-02  0.9851346E-01
         -2   -1    0    0    0  501 -0.00000000000E+00  0.00000000000E+00  0.57153841856E+03  0.57153841857E+03  0.25500000000E-02 0.  1.
          2   -1    0    0  501    0  0.00000000000E+00 -0.00000000000E+00 -0.71175494418E+03  0.71175494419E+03  0.25500000000E-02 0. -1.
    8880023    1    1    2    0    0  0.16019102069E+03 -0.30422060804E+03  0.20699679566E+03  0.77127765503E+03  0.65864270000E+03 0.  1.
    8880022    1    1    2    0    0 -0.16019102069E+03  0.30422060804E+03 -0.34721332129E+03  0.51201570773E+03  0.15294330000E+03 0. -1.
<mgrwt>
<rscale>  0 0.62678352E+03</rscale>
<asrwt>0</asrwt>
<pdfrwt beam="1">  1        2 0.10950076E+00 0.74298153E+03</pdfrwt>
<pdfrwt beam="2">  1       -2 0.87928988E-01 0.74298153E+03</pdfrwt>
<totfact> 0.45339125E+01</totfact>
</mgrwt>
</event>
<event>
 4    1  0.2878104E-007  0.1135786E+04  0.7818608E-02  0.9222221E-01
         -2   -1    0    0    0  501 -0.00000000000E+00  0.00000000000E+00  0.91687573131E+03  0.91687573132E+03  0.25500000000E-02 0.  1.
          2   -1    0    0  501    0  0.00000000000E+00 -0.00000000000E+00 -0.14285621019E+04  0.14285621019E+04  0.25500000000E-02 0. -1.
    8880023    1    1    2    0    0  0.31400184219E+03  0.87040382570E+03  0.21878372926E+03  0.11566661157E+04  0.65864270000E+03 0.  0.
    8880022    1    1    2    0    0 -0.31400184219E+03 -0.87040382570E+03 -0.73047009990E+03  0.11887717176E+04  0.15294330000E+03 0.  0.
<mgrwt>
<rscale>  0 0.10826986E+04</rscale>
<asrwt>0</asrwt>
<pdfrwt beam="1">  1        2 0.21977879E+00 0.11357862E+04</pdfrwt>
<pdfrwt beam="2">  1       -2 0.14105780E+00 0.11357862E+04</pdfrwt>
<totfact> 0.48041019E+00</totfact>
</mgrwt>
</event>
<event>
 4    1  0.2878104E-007  0.1164000E+04  0.7818608E-02  0.9192937E-01
          2   -1    0    0  501    0  0.00000000000E+00  0.00000000000E+00  0.15730705176E+04  0.15730705176E+04  0.25500000000E-02 0. -1.
         -2   -1    0    0    0  501 -0.00000000000E+00 -0.00000000000E+00 -0.11381971291E+04  0.11381971291E+04  0.25500000000E-02 0.  1.
    8880023    1    1    2    0    0 -0.92155012195E+03  0.26801401531E+03 -0.58480075159E+03  0.13026466386E+04  0.65864270000E+03 0.  0.
    8880022    1    1    2    0    0  0.92155012195E+03 -0.26801401531E+03  0.10196741401E+04  0.14086210082E+04  0.15294330000E+03 0.  0.
<mgrwt>
<rscale>  0 0.11126633E+04</rscale>
<asrwt>0</asrwt>
<pdfrwt beam="1">  1        2 0.24201085E+00 0.11640001E+04</pdfrwt>
<pdfrwt beam="2">  1       -2 0.17510725E+00 0.11640001E+04</pdfrwt>
<totfact> 0.22064692E+00</totfact>
</mgrwt>
</event>
<event>
 4    1  0.2878104E-007  0.1156837E+04  0.7818608E-02  0.9200266E-01
         -2   -1    0    0    0  501 -0.00000000000E+00  0.00000000000E+00  0.10526615266E+04  0.10526615266E+04  0.25500000000E-02 0.  1.
          2   -1    0    0  501    0  0.00000000000E+00 -0.00000000000E+00 -0.17085094030E+04  0.17085094030E+04  0.25500000000E-02 0. -1.
    8880023    1    1    2    0    0 -0.53497325900E+03 -0.78629850105E+03  0.49681879465E+03  0.12590078799E+04  0.65864270000E+03 0.  0.
    8880022    1    1    2    0    0  0.53497325900E+03  0.78629850105E+03 -0.11526666710E+04  0.15021630498E+04  0.15294330000E+03 0.  0.
<mgrwt>
<rscale>  0 0.11050681E+04</rscale>
<asrwt>0</asrwt>
<pdfrwt beam="1">  1        2 0.26284760E+00 0.11568370E+04</pdfrwt>
<pdfrwt beam="2">  1       -2 0.16194793E+00 0.11568370E+04</pdfrwt>
<totfact> 0.23070911E+00</totfact>
</mgrwt>
</event>
<event>
 4    1  0.2878104E-007  0.1042953E+04  0.7818608E-02  0.9327402E-01
         -2   -1    0    0    0  501 -0.00000000000E+00  0.00000000000E+00  0.17009790456E+04  0.17009790456E+04  0.25500000000E-02 0.  1.
          2   -1    0    0  501    0  0.00000000000E+00 -0.00000000000E+00 -0.14556370678E+04  0.14556370678E+04  0.25500000000E-02 0. -1.
    8880023    1    1    2    0    0 -0.46144614801E+03 -0.66408392502E+03  0.13955988055E+04  0.17422532075E+04  0.65864270000E+03 0.  0.
    8880022    1    1    2    0    0  0.46144614801E+03  0.66408392502E+03 -0.11502568277E+04  0.14143629059E+04  0.15294330000E+03 0.  0.
<mgrwt>
<rscale>  0 0.98298890E+03</rscale>
<asrwt>0</asrwt>
<pdfrwt beam="1">  1        2 0.22394416E+00 0.10429526E+04</pdfrwt>
<pdfrwt beam="2">  1       -2 0.26168908E+00 0.10429526E+04</pdfrwt>
<totfact> 0.72773679E-01</totfact>
</mgrwt>
</event>
<event>
 4    1  0.2878104E-007  0.1651767E+04  0.7818608E-02  0.8809294E-01
         -2   -1    0    0    0  501 -0.00000000000E+00  0.00000000000E+00  0.11619653863E+04  0.11619653863E+04  0.25500000000E-02 0.  1.
          2   -1    0    0  501    0  0.00000000000E+00 -0.00000000000E+00 -0.32600566358E+04  0.32600566358E+04  0.25500000000E-02 0. -1.
    8880023    1    1    2    0    0  0.12640280109E+04 -0.83472023859E+03  0.20161030456E+03  0.16640257240E+04  0.65864270000E+03 0.  0.
    8880022    1    1    2    0    0 -0.12640280109E+04  0.83472023859E+03 -0.22997015541E+04  0.27579962981E+04  0.15294330000E+03 0.  0.
<mgrwt>
<rscale>  0 0.16184484E+04</rscale>
<asrwt>0</asrwt>
<pdfrwt beam="1">  1        2 0.50154717E+00 0.16517672E+04</pdfrwt>
<pdfrwt beam="2">  1       -2 0.17876391E+00 0.16517672E+04</pdfrwt>
<totfact> 0.20360727E-01</totfact>
</mgrwt>
</event>
<event>
 4    1  0.2878104E-007  0.1050712E+04  0.7818608E-02  0.9318026E-01
          2   -1    0    0  501    0  0.00000000000E+00  0.00000000000E+00  0.16731208678E+04  0.16731208678E+04  0.25500000000E-02 0. -1.
         -2   -1    0    0    0  501 -0.00000000000E+00 -0.00000000000E+00 -0.81058740636E+03  0.81058740637E+03  0.25500000000E-02 0.  1.
    8880023    1    1    2    0    0  0.71278073237E+03  0.40265353502E+03 -0.26341699784E+03  0.10832289521E+04  0.65864270000E+03 0.  0.
    8880022    1    1    2    0    0 -0.71278073237E+03 -0.40265353502E+03  0.11259504593E+04  0.14004793220E+04  0.15294330000E+03 0.  0.
<mgrwt>
<rscale>  0 0.99140198E+03</rscale>
<asrwt>0</asrwt>
<pdfrwt beam="1">  1        2 0.25740321E+00 0.10507124E+04</pdfrwt>
<pdfrwt beam="2">  1       -2 0.12470576E+00 0.10507124E+04</pdfrwt>
<totfact> 0.48442911E+00</totfact>
</mgrwt>
</event>
<event>
 4    1  0.2878104E-007  0.1451171E+04  0.7818608E-02  0.8944908E-01
         -2   -1    0    0    0  501 -0.00000000000E+00  0.00000000000E+00  0.15051375706E+04  0.15051375706E+04  0.25500000000E-02 0.  1.
          2   -1    0    0  501    0  0.00000000000E+00 -0.00000000000E+00 -0.15426033929E+04  0.15426033929E+04  0.25500000000E-02 0. -1.
    8880023    1    1    2    0    0  0.12856987640E+04  0.13808095898E+03  0.63292703305E+03  0.15831912388E+04  0.65864270000E+03 0.  0.
    8880022    1    1    2    0    0 -0.12856987640E+04 -0.13808095898E+03 -0.67039285535E+03  0.14645497248E+04  0.15294330000E+03 0.  0.
<mgrwt>
<rscale>  0 0.14123767E+04</rscale>
<asrwt>0</asrwt>
<pdfrwt beam="1">  1        2 0.23732360E+00 0.14511712E+04</pdfrwt>
<pdfrwt beam="2">  1       -2 0.23155963E+00 0.14511712E+04</pdfrwt>
<totfact> 0.94870385E-01</totfact>
</mgrwt>
</event>
<event>
 4    1  0.2878104E-007  0.7551742E+03  0.7818608E-02  0.9817765E-01
          2   -1    0    0  501    0  0.00000000000E+00  0.00000000000E+00  0.12722861011E+04  0.12722861011E+04  0.25500000000E-02 0. -1.
         -2   -1    0    0    0  501 -0.00000000000E+00 -0.00000000000E+00 -0.62234761419E+03  0.62234761419E+03  0.25500000000E-02 0.  1.
    8880023    1    1    2    0    0  0.20736262132E+03  0.30574260669E+03 -0.33911286743E+03  0.82781975175E+03  0.65864270000E+03 0.  1.
    8880022    1    1    2    0    0 -0.20736262132E+03 -0.30574260669E+03  0.98905135439E+03  0.10668139636E+04  0.15294330000E+03 0.  0.
<mgrwt>
<rscale>  0 0.64417820E+03</rscale>
<asrwt>0</asrwt>
<pdfrwt beam="1">  1        2 0.19573632E+00 0.75517416E+03</pdfrwt>
<pdfrwt beam="2">  1       -2 0.95745788E-01 0.75517416E+03</pdfrwt>
<totfact> 0.16014413E+01</totfact>
</mgrwt>
</event>
<event>
 4    1  0.2878104E-007  0.8121535E+03  0.7818608E-02  0.9685109E-01
          2   -1    0    0  501    0  0.00000000000E+00  0.00000000000E+00  0.15477694812E+04  0.15477694812E+04  0.25500000000E-02 0. -1.
         -2   -1    0    0    0  501 -0.00000000000E+00 -0.00000000000E+00 -0.95693981997E+03  0.95693981997E+03  0.25500000000E-02 0.  1.
    8880023    1    1    2    0    0 -0.47496801511E+03  0.13726398483E+02 -0.73042906497E+03  0.10923002584E+04  0.65864270000E+03 0.  1.
    8880022    1    1    2    0    0  0.47496801511E+03 -0.13726398483E+02  0.13212587262E+04  0.14124090427E+04  0.15294330000E+03 0.  0.
<mgrwt>
<rscale>  0 0.71910376E+03</rscale>
<asrwt>0</asrwt>
<pdfrwt beam="1">  1        2 0.23811838E+00 0.81215346E+03</pdfrwt>
<pdfrwt beam="2">  1       -2 0.14722151E+00 0.81215346E+03</pdfrwt>
<totfact> 0.38225347E+00</totfact>
</mgrwt>
</event>
<event>
 4    1  0.2878104E-007  0.1002111E+04  0.7818608E-02  0.9378801E-01
          2   -1    0    0  501    0  0.00000000000E+00  0.00000000000E+00  0.19124650905E+04  0.19124650905E+04  0.25500000000E-02 0. -1.
         -2   -1    0    0    0  501 -0.00000000000E+00 -0.00000000000E+00 -0.70871167852E+03  0.70871167852E+03  0.25500000000E-02 0.  1.
    8880023    1    1    2    0    0  0.44489868773E+03  0.61031290854E+03 -0.19808583804E+03  0.10215012943E+04  0.65864270000E+03 0.  1.
    8880022    1    1    2    0    0 -0.44489868773E+03 -0.61031290854E+03  0.14018392500E+04  0.15996754748E+04  0.15294330000E+03 0.  0.
<mgrwt>
<rscale>  0 0.93841022E+03</rscale>
<asrwt>0</asrwt>
<pdfrwt beam="1">  1        2 0.29422540E+00 0.10021112E+04</pdfrwt>
<pdfrwt beam="2">  1       -2 0.10903257E+00 0.10021112E+04</pdfrwt>
<totfact> 0.50086125E+00</totfact>
</mgrwt>
</event>
<event>
 4    1  0.2878104E-007  0.1331416E+04  0.7818608E-02  0.9038894E-01
         -2   -1    0    0    0  501 -0.00000000000E+00  0.00000000000E+00  0.19379589665E+04  0.19379589665E+04  0.25500000000E-02 0.  1.
          2   -1    0    0  501    0  0.00000000000E+00 -0.00000000000E+00 -0.17971188292E+04  0.17971188292E+04  0.25500000000E-02 0. -1.
    8880023    1    1    2    0    0  0.49489262058E+03 -0.10459160478E+04  0.14585094173E+04  0.19748212607E+04  0.65864270000E+03 0.  0.
    8880022    1    1    2    0    0 -0.49489262058E+03  0.10459160478E+04 -0.13176692799E+04  0.17602565351E+04  0.15294330000E+03 0.  0.
<mgrwt>
<rscale>  0 0.12883015E+04</rscale>
<asrwt>0</asrwt>
<pdfrwt beam="1">  1        2 0.27647982E+00 0.13314163E+04</pdfrwt>
<pdfrwt beam="2">  1       -2 0.29814753E+00 0.13314163E+04</pdfrwt>
<totfact> 0.27077063E-01</totfact>
</mgrwt>
</event>
<event>
 4    1  0.2878104E-007  0.9052467E+03  0.7818608E-02  0.9517661E-01
          2   -1    0    0  501    0  0.00000000000E+00  0.00000000000E+00  0.33448611807E+04  0.33448611807E+04  0.25500000000E-02 0. -1.
         -2   -1    0    0    0  501 -0.00000000000E+00 -0.00000000000E+00 -0.27302175156E+03  0.27302175157E+03  0.25500000000E-02 0.  1.
    8880023    1    1    2    0    0  0.48353630648E+03  0.38968445691E+03  0.65371795246E+03  0.11166103632E+04  0.65864270000E+03 0.  0.
    8880022    1    1    2    0    0 -0.48353630648E+03 -0.38968445691E+03  0.24181214767E+04  0.25012725690E+04  0.15294330000E+03 0.  0.
<mgrwt>
<rscale>  0 0.82994182E+03</rscale>
<asrwt>0</asrwt>
<pdfrwt beam="1">  1        2 0.51459404E+00 0.90524667E+03</pdfrwt>
<pdfrwt beam="2">  1       -2 0.42003345E-01 0.90524667E+03</pdfrwt>
<totfact> 0.58482681E+00</totfact>
</mgrwt>
</event>
<event>
 4    1  0.2878104E-007  0.7734943E+03  0.7818608E-02  0.9771347E-01
         -2   -1    0    0    0  501 -0.00000000000E+00  0.00000000000E+00  0.10872306894E+04  0.10872306894E+04  0.25500000000E-02 0.  1.
          2   -1    0    0  501    0  0.00000000000E+00 -0.00000000000E+00 -0.10863057131E+04  0.10863057131E+04  0.25500000000E-02 0. -1.
    8880023    1    1    2    0    0 -0.38887090087E+03  0.11516361292E+03  0.89319221740E+03  0.11815607385E+04  0.65864270000E+03 0.  1.
    8880022    1    1    2    0    0  0.38887090087E+03 -0.11516361292E+03 -0.89226724112E+03  0.99197566395E+03  0.15294330000E+03 0.  0.
<mgrwt>
<rscale>  0 0.66923159E+03</rscale>
<asrwt>0</asrwt>
<pdfrwt beam="1">  1        2 0.16712396E+00 0.77349431E+03</pdfrwt>
<pdfrwt beam="2">  1       -2 0.16726626E+00 0.77349431E+03</pdfrwt>
<totfact> 0.50415217E+00</totfact>
</mgrwt>
</event>
<event>
 4    1  0.2878104E-007  0.1216347E+04  0.7818608E-02  0.9141394E-01
         -2   -1    0    0    0  501 -0.00000000000E+00  0.00000000000E+00  0.11462749475E+04  0.11462749475E+04  0.25500000000E-02 0.  1.
          2   -1    0    0  501    0  0.00000000000E+00 -0.00000000000E+00 -0.11689636174E+04  0.11689636174E+04  0.25500000000E-02 0. -1.
    8880023    1    1    2    0    0 -0.74419299976E+03  0.70133187007E+03  0.25894561826E+03  0.12436047010E+04  0.65864270000E+03 0.  0.
    8880022    1    1    2    0    0  0.74419299976E+03 -0.70133187007E+03 -0.28163428820E+03  0.10716338639E+04  0.15294330000E+03 0.  0.
<mgrwt>
<rscale>  0 0.11679370E+04</rscale>
<asrwt>0</asrwt>
<pdfrwt beam="1">  1        2 0.17984056E+00 0.12163469E+04</pdfrwt>
<pdfrwt beam="2">  1       -2 0.17634999E+00 0.12163469E+04</pdfrwt>
<totfact> 0.36881467E+00</totfact>
</mgrwt>
</event>
<event>
 4    1  0.2878104E-007  0.7511099E+03  0.7818608E-02  0.9828692E-01
         -2   -1    0    0    0  501 -0.00000000000E+00  0.00000000000E+00  0.16212384380E+04  0.16212384380E+04  0.25500000000E-02 0.  1.
          2   -1    0    0  501    0  0.00000000000E+00 -0.00000000000E+00 -0.85711747693E+03  0.85711747694E+03  0.25500000000E-02 0. -1.
    8880023    1    1    2    0    0  0.26263566528E+02 -0.36009171403E+03  0.14813781730E+04  0.16609176124E+04  0.65864270000E+03 0.  1.
    8880022    1    1    2    0    0 -0.26263566528E+02  0.36009171403E+03 -0.71725721192E+03  0.81743830257E+03  0.15294330000E+03 0.  0.
<mgrwt>
<rscale>  0 0.63845251E+03</rscale>
<asrwt>0</asrwt>
<pdfrwt beam="1">  1        2 0.13186423E+00 0.75110986E+03</pdfrwt>
<pdfrwt beam="2">  1       -2 0.24942130E+00 0.75110986E+03</pdfrwt>
<totfact> 0.20980943E+00</totfact>
</mgrwt>
</event>
<event>
 4    1  0.2878104E-007  0.8113833E+03  0.7818608E-02  0.9686703E-01
          2   -1    0    0  501    0  0.00000000000E+00  0.00000000000E+00  0.39833665076E+04  0.39833665076E+04  0.25500000000E-02 0. -1.
         -2   -1    0    0    0  501 -0.00000000000E+00 -0.00000000000E+00 -0.13110936986E+03  0.13110936988E+03  0.25500000000E-02 0.  1.
    8880023    1    1    2    0    0  0.26761595360E+03  0.39104273264E+03  0.14539493388E+04  0.16650260069E+04  0.65864270000E+03 0.  1.
    8880022    1    1    2    0    0 -0.26761595360E+03 -0.39104273264E+03  0.23983077989E+04  0.24494498706E+04  0.15294330000E+03 0.  0.
<mgrwt>
<rscale>  0 0.71814058E+03</rscale>
<asrwt>0</asrwt>
<pdfrwt beam="1">  1        2 0.61282550E+00 0.81138334E+03</pdfrwt>
<pdfrwt beam="2">  1       -2 0.20170676E-01 0.81138334E+03</pdfrwt>
<totfact> 0.80728681E+00</totfact>
</mgrwt>
</event>
<event>
 4    1  0.2878104E-007  0.1006700E+04  0.7818608E-02  0.9372844E-01
         -2   -1    0    0    0  501 -0.00000000000E+00  0.00000000000E+00  0.50923156351E+03  0.50923156351E+03  0.25500000000E-02 0.  1.
          2   -1    0    0  501    0  0.00000000000E+00 -0.00000000000E+00 -0.22428107725E+04  0.22428107725E+04  0.25500000000E-02 0. -1.
    8880023    1    1    2    0    0 -0.75096142873E+03 -0.12526904264E+03 -0.19047816064E+03  0.10245621194E+04  0.65864270000E+03 0.  0.
    8880022    1    1    2    0    0  0.75096142873E+03  0.12526904264E+03 -0.15431010484E+04  0.17274802167E+04  0.15294330000E+03 0.  0.
<mgrwt>
<rscale>  0 0.94344648E+03</rscale>
<asrwt>0</asrwt>
<pdfrwt beam="1">  1        2 0.34504780E+00 0.10067004E+04</pdfrwt>
<pdfrwt beam="2">  1       -2 0.78343319E-01 0.10067004E+04</pdfrwt>
<totfact> 0.71125660E+00</totfact>
</mgrwt>
</event>
<event>
 4    1  0.2878104E-007  0.1322211E+04  0.7818608E-02  0.9046612E-01
          2   -1    0    0  501    0  0.00000000000E+00  0.00000000000E+00  0.20299069802E+04  0.20299069802E+04  0.25500000000E-02 0. -1.
         -2   -1    0    0    0  501 -0.00000000000E+00 -0.00000000000E+00 -0.87354055746E+03  0.87354055746E+03  0.25500000000E-02 0.  1.
    8880023    1    1    2    0    0  0.88019789154E+03 -0.73463219939E+03  0.81901222034E+02  0.13247455654E+04  0.65864270000E+03 0.  0.
    8880022    1    1    2    0    0 -0.88019789154E+03  0.73463219939E+03  0.10744652007E+04  0.15787019723E+04  0.15294330000E+03 0.  0.
<mgrwt>
<rscale>  0 0.12787203E+04</rscale>
<asrwt>0</asrwt>
<pdfrwt beam="1">  1        2 0.31229338E+00 0.13222114E+04</pdfrwt>
<pdfrwt beam="2">  1       -2 0.13439086E+00 0.13222114E+04</pdfrwt>
<totfact> 0.24701935E+00</totfact>
</mgrwt>
</event>
<event>
 4    1  0.2878104E-007  0.8074004E+03  0.7818608E-02  0.9695018E-01
         -2   -1    0    0    0  501 -0.00000000000E+00  0.00000000000E+00  0.35449995624E+03  0.35449995625E+03  0.25500000000E-02 0.  1.
          2   -1    0    0  501    0  0.00000000000E+00 -0.00000000000E+00 -0.13219741981E+04  0.13219741981E+04  0.25500000000E-02 0. -1.
    8880023    1    1    2    0    0  0.44215305300E+03 -0.15028586693E+03 -0.84771110308E+03  0.11706876119E+04  0.65864270000E+03 0.  0.
    8880022    1    1    2    0    0 -0.44215305300E+03  0.15028586693E+03 -0.11976313874E+03  0.50578654242E+03  0.15294330000E+03 0.  0.
<mgrwt>
<rscale>  0 0.71314221E+03</rscale>
<asrwt>0</asrwt>
<pdfrwt beam="1">  1        2 0.20338064E+00 0.80740038E+03</pdfrwt>
<pdfrwt beam="2">  1       -2 0.54538455E-01 0.80740038E+03</pdfrwt>
<totfact> 0.51478388E+01</totfact>
</mgrwt>
</event>
<event>
 4    1  0.2878104E-007  0.1158173E+04  0.7818608E-02  0.9198894E-01
          2   -1    0    0  501    0  0.00000000000E+00  0.00000000000E+00  0.25241347595E+04  0.25241347595E+04  0.25500000000E-02 0. -1.
         -2   -1    0    0    0  501 -0.00000000000E+00 -0.00000000000E+00 -0.66315624489E+03  0.66315624489E+03  0.25500000000E-02 0.  1.
    8880023    1    1    2    0    0 -0.64665641726E+03  0.69956409955E+03  0.78996313852E+02  0.11608639348E+04  0.65864270000E+03 0.  1.
    8880022    1    1    2    0    0  0.64665641726E+03 -0.69956409955E+03  0.17819822008E+04  0.20264270695E+04  0.15294330000E+03 0.  0.
<mgrwt>
<rscale>  0 0.11064853E+04</rscale>
<asrwt>0</asrwt>
<pdfrwt beam="1">  1        2 0.38832843E+00 0.11581730E+04</pdfrwt>
<pdfrwt beam="2">  1       -2 0.10202404E+00 0.11581730E+04</pdfrwt>
<totfact> 0.26232122E+00</totfact>
</mgrwt>
</event>
<event>
 4    1  0.2878104E-007  0.8689391E+03  0.7818608E-02  0.9577856E-01
          2   -1    0    0  501    0  0.00000000000E+00  0.00000000000E+00  0.13680335955E+04  0.13680335955E+04  0.25500000000E-02 0. -1.
         -2   -1    0    0    0  501 -0.00000000000E+00 -0.00000000000E+00 -0.11800565663E+04  0.11800565663E+04  0.25500000000E-02 0.  1.
    8880023    1    1    2    0    0  0.49674274781E+02 -0.56460370994E+03 -0.93777247951E+03  0.12784648264E+04  0.65864270000E+03 0.  1.
    8880022    1    1    2    0    0 -0.49674274781E+02  0.56460370994E+03  0.11257495087E+04  0.12696253354E+04  0.15294330000E+03 0.  0.
<mgrwt>
<rscale>  0 0.78779307E+03</rscale>
<asrwt>0</asrwt>
<pdfrwt beam="1">  1        2 0.21046671E+00 0.86893906E+03</pdfrwt>
<pdfrwt beam="2">  1       -2 0.18154717E+00 0.86893906E+03</pdfrwt>
<totfact> 0.26948470E+00</totfact>
</mgrwt>
</event>
<event>
 4    1  0.2878104E-007  0.6846849E+03  0.7818608E-02  0.1006789E+00
          2   -1    0    0  501    0  0.00000000000E+00  0.00000000000E+00  0.17970761107E+04  0.17970761107E+04  0.25500000000E-02 0. -1.
         -2   -1    0    0    0  501 -0.00000000000E+00 -0.00000000000E+00 -0.13946059985E+04  0.13946059985E+04  0.25500000000E-02 0.  1.
    8880023    1    1    2    0    0  0.50747991583E+01 -0.18696929631E+03 -0.13015306540E+04  0.14706377939E+04  0.65864270000E+03 0.  1.
    8880022    1    1    2    0    0 -0.50747991583E+01  0.18696929631E+03  0.17040007662E+04  0.17210443154E+04  0.15294330000E+03 0.  0.
<mgrwt>
<rscale>  0 0.52771128E+03</rscale>
<asrwt>0</asrwt>
<pdfrwt beam="1">  1        2 0.27647325E+00 0.68468495E+03</pdfrwt>
<pdfrwt beam="2">  1       -2 0.21455477E+00 0.68468495E+03</pdfrwt>
<totfact> 0.97899313E-01</totfact>
</mgrwt>
</event>
<event>
 4    1  0.2878104E-007  0.6654197E+03  0.7818608E-02  0.1019184E+00
         -2   -1    0    0    0  501 -0.00000000000E+00  0.00000000000E+00  0.15351560930E+03  0.15351560932E+03  0.25500000000E-02 0.  1.
          2   -1    0    0  501    0  0.00000000000E+00 -0.00000000000E+00 -0.11843585220E+04  0.11843585221E+04  0.25500000000E-02 0. -1.
    8880023    1    1    2    0    0  0.31907926128E+02 -0.89191391136E+02 -0.73361352284E+03  0.99044042080E+03  0.65864270000E+03 0.  0.
    8880022    1    1    2    0    0 -0.31907926128E+02  0.89191391136E+02 -0.29722938991E+03  0.34743371057E+03  0.15294330000E+03 0.  0.
<mgrwt>
<rscale>  0 0.47982293E+03</rscale>
<asrwt>0</asrwt>
<pdfrwt beam="1">  1        2 0.18220900E+00 0.66541974E+03</pdfrwt>
<pdfrwt beam="2">  1       -2 0.23617787E-01 0.66541974E+03</pdfrwt>
<totfact> 0.31178216E+02</totfact>
</mgrwt>
</event>
<event>
 4    1  0.2878104E-007  0.6843303E+03  0.7818608E-02  0.1006973E+00
         -2   -1    0    0    0  501 -0.00000000000E+00  0.00000000000E+00  0.18921328008E+04  0.18921328008E+04  0.25500000000E-02 0.  1.
          2   -1    0    0  501    0  0.00000000000E+00 -0.00000000000E+00 -0.54277780498E+03  0.54277780498E+03  0.25500000000E-02 0. -1.
    8880023    1    1    2    0    0  0.44415536123E+02  0.18034705183E+03  0.17990979269E+04  0.19248535933E+04  0.65864270000E+03 0.  1.
    8880022    1    1    2    0    0 -0.44415536123E+02 -0.18034705183E+03 -0.44974293104E+03  0.51005701248E+03  0.15294330000E+03 0.  0.
<mgrwt>
<rscale>  0 0.52695590E+03</rscale>
<asrwt>0</asrwt>
<pdfrwt beam="1">  1        2 0.83504275E-01 0.68433033E+03</pdfrwt>
<pdfrwt beam="2">  1       -2 0.29109736E+00 0.68433033E+03</pdfrwt>
<totfact> 0.21171777E+00</totfact>
</mgrwt>
</event>
<event>
 4    1  0.2878104E-007  0.9953932E+03  0.7818608E-02  0.9387610E-01
          2   -1    0    0  501    0  0.00000000000E+00  0.00000000000E+00  0.13833223344E+04  0.13833223344E+04  0.25500000000E-02 0. -1.
         -2   -1    0    0    0  501 -0.00000000000E+00 -0.00000000000E+00 -0.10188225426E+04  0.10188225426E+04  0.25500000000E-02 0.  1.
    8880023    1    1    2    0    0  0.55864696642E+03 -0.49488480865E+03 -0.60829033653E+03  0.11665439326E+04  0.65864270000E+03 0.  1.
    8880022    1    1    2    0    0 -0.55864696642E+03  0.49488480865E+03  0.97279012840E+03  0.12356009444E+04  0.15294330000E+03 0.  0.
<mgrwt>
<rscale>  0 0.93102406E+03</rscale>
<asrwt>0</asrwt>
<pdfrwt beam="1">  1        2 0.21281882E+00 0.99539320E+03</pdfrwt>
<pdfrwt beam="2">  1       -2 0.15674193E+00 0.99539320E+03</pdfrwt>
<totfact> 0.39105708E+00</totfact>
</mgrwt>
</event>
<event>
 4    1  0.2878104E-007  0.1166798E+04  0.7818608E-02  0.9190093E-01
         -2   -1    0    0    0  501 -0.00000000000E+00  0.00000000000E+00  0.97763354121E+03  0.97763354121E+03  0.25500000000E-02 0.  1.
          2   -1    0    0  501    0  0.00000000000E+00 -0.00000000000E+00 -0.23289153727E+04  0.23289153727E+04  0.25500000000E-02 0. -1.
    8880023    1    1    2    0    0 -0.68806689282E+03  0.67392164856E+03  0.45617089947E+03  0.12528002767E+04  0.65864270000E+03 0.  1.
    8880022    1    1    2    0    0  0.68806689282E+03 -0.67392164856E+03 -0.18074527310E+04  0.20537486373E+04  0.15294330000E+03 0.  0.
<mgrwt>
<rscale>  0 0.11156272E+04</rscale>
<asrwt>0</asrwt>
<pdfrwt beam="1">  1        2 0.35829467E+00 0.11667976E+04</pdfrwt>
<pdfrwt beam="2">  1       -2 0.15040516E+00 0.11667976E+04</pdfrwt>
<totfact> 0.12725544E+00</totfact>
</mgrwt>
</event>
<event>
 4    1  0.2878104E-007  0.6859152E+03  0.7818608E-02  0.1006158E+00
          2   -1    0    0  501    0  0.00000000000E+00  0.00000000000E+00  0.18153220525E+03  0.18153220526E+03  0.25500000000E-02 0. -1.
         -2   -1    0    0    0  501 -0.00000000000E+00 -0.00000000000E+00 -0.15803952332E+04  0.15803952332E+04  0.25500000000E-02 0.  1.
    8880023    1    1    2    0    0 -0.79973557963E+02  0.17399347185E+03 -0.13467677944E+04  0.15113779132E+04  0.65864270000E+03 0.  0.
    8880022    1    1    2    0    0  0.79973557963E+02 -0.17399347185E+03 -0.52095233514E+02  0.25054952523E+03  0.15294330000E+03 0.  0.
<mgrwt>
<rscale>  0 0.53030661E+03</rscale>
<asrwt>0</asrwt>
<pdfrwt beam="1">  1        2 0.27928033E-01 0.68591523E+03</pdfrwt>
<pdfrwt beam="2">  1       -2 0.24313772E+00 0.68591523E+03</pdfrwt>
<totfact> 0.14099447E+01</totfact>
</mgrwt>
</event>
<event>
 4    1  0.2878104E-007  0.9881583E+03  0.7818608E-02  0.9397217E-01
         -2   -1    0    0    0  501 -0.00000000000E+00  0.00000000000E+00  0.33418418199E+03  0.33418418200E+03  0.25500000000E-02 0.  1.
          2   -1    0    0  501    0  0.00000000000E+00 -0.00000000000E+00 -0.37515447083E+04  0.37515447083E+04  0.25500000000E-02 0. -1.
    8880023    1    1    2    0    0  0.76499385349E+01  0.73660586169E+03 -0.31267792770E+04  0.32792080706E+04  0.65864270000E+03 0.  0.
    8880022    1    1    2    0    0 -0.76499385349E+01 -0.73660586169E+03 -0.29058124923E+03  0.80652081960E+03  0.15294330000E+03 0.  0.
<mgrwt>
<rscale>  0 0.92305088E+03</rscale>
<asrwt>0</asrwt>
<pdfrwt beam="1">  1        2 0.57716069E+00 0.98815835E+03</pdfrwt>
<pdfrwt beam="2">  1       -2 0.51412954E-01 0.98815835E+03</pdfrwt>
<totfact> 0.20007712E+00</totfact>
</mgrwt>
</event>
<event>
 4    1  0.2878104E-007  0.1280032E+04  0.7818608E-02  0.9082998E-01
         -2   -1    0    0    0  501 -0.00000000000E+00  0.00000000000E+00  0.50577806837E+03  0.50577806838E+03  0.25500000000E-02 0.  1.
          2   -1    0    0  501    0  0.00000000000E+00 -0.00000000000E+00 -0.38281776605E+04  0.38281776605E+04  0.25500000000E-02 0. -1.
    8880023    1    1    2    0    0  0.96113201669E+03  0.52999697416E+03 -0.63885591131E+03  0.14306007926E+04  0.65864270000E+03 0.  1.
    8880022    1    1    2    0    0 -0.96113201669E+03 -0.52999697416E+03 -0.26835436808E+04  0.29033549363E+04  0.15294330000E+03 0.  0.
<mgrwt>
<rscale>  0 0.12347192E+04</rscale>
<asrwt>0</asrwt>
<pdfrwt beam="1">  1        2 0.58895039E+00 0.12800319E+04</pdfrwt>
<pdfrwt beam="2">  1       -2 0.77812013E-01 0.12800319E+04</pdfrwt>
<totfact> 0.68760031E-01</totfact>
</mgrwt>
</event>
<event>
 4    1  0.2878104E-007  0.1656197E+04  0.7818608E-02  0.8806553E-01
         -2   -1    0    0    0  501 -0.00000000000E+00  0.00000000000E+00  0.14232603024E+04  0.14232603024E+04  0.25500000000E-02 0.  1.
          2   -1    0    0  501    0  0.00000000000E+00 -0.00000000000E+00 -0.24961003885E+04  0.24961003885E+04  0.25500000000E-02 0. -1.
    8880023    1    1    2    0    0  0.23223083380E+03 -0.15017482292E+04  0.49700131725E+03  0.17291614788E+04  0.65864270000E+03 0.  1.
    8880022    1    1    2    0    0 -0.23223083380E+03  0.15017482292E+04 -0.15698414033E+04  0.21901992121E+04  0.15294330000E+03 0.  0.
<mgrwt>
<rscale>  0 0.16229808E+04</rscale>
<asrwt>0</asrwt>
<pdfrwt beam="1">  1        2 0.38401544E+00 0.16561972E+04</pdfrwt>
<pdfrwt beam="2">  1       -2 0.21896312E+00 0.16561972E+04</pdfrwt>
<totfact> 0.32400082E-01</totfact>
</mgrwt>
</event>
<event>
 4    1  0.2878104E-007  0.6914416E+03  0.7818608E-02  0.1003475E+00
         -2   -1    0    0    0  501 -0.00000000000E+00  0.00000000000E+00  0.26418340596E+03  0.26418340597E+03  0.25500000000E-02 0.  1.
          2   -1    0    0  501    0  0.00000000000E+00 -0.00000000000E+00 -0.11703664800E+04  0.11703664800E+04  0.25500000000E-02 0. -1.
    8880023    1    1    2    0    0 -0.20445127708E+03 -0.49809679756E+02 -0.26128884037E+03  0.73916398266E+03  0.65864270000E+03 0.  1.
    8880022    1    1    2    0    0  0.20445127708E+03  0.49809679756E+02 -0.64489423362E+03  0.69538590327E+03  0.15294330000E+03 0.  0.
<mgrwt>
<rscale>  0 0.54152506E+03</rscale>
<asrwt>0</asrwt>
<pdfrwt beam="1">  1        2 0.18005638E+00 0.69144164E+03</pdfrwt>
<pdfrwt beam="2">  1       -2 0.40643601E-01 0.69144164E+03</pdfrwt>
<totfact> 0.11525119E+02</totfact>
</mgrwt>
</event>
<event>
 4    1  0.2878104E-007  0.1383887E+04  0.7818608E-02  0.8996305E-01
          2   -1    0    0  501    0  0.00000000000E+00  0.00000000000E+00  0.20204636905E+04  0.20204636905E+04  0.25500000000E-02 0. -1.
         -2   -1    0    0    0  501 -0.00000000000E+00 -0.00000000000E+00 -0.11029266183E+04  0.11029266183E+04  0.25500000000E-02 0.  1.
    8880023    1    1    2    0    0 -0.84028231360E+03  0.88048812620E+03 -0.27683056541E+03  0.14113040336E+04  0.65864270000E+03 0.  0.
    8880022    1    1    2    0    0  0.84028231360E+03 -0.88048812620E+03  0.11943676377E+04  0.17120862752E+04  0.15294330000E+03 0.  0.
<mgrwt>
<rscale>  0 0.13427887E+04</rscale>
<asrwt>0</asrwt>
<pdfrwt beam="1">  1        2 0.31084057E+00 0.13838872E+04</pdfrwt>
<pdfrwt beam="2">  1       -2 0.16968102E+00 0.13838872E+04</pdfrwt>
<totfact> 0.13286482E+00</totfact>
</mgrwt>
</event>
<event>
 4    1  0.2878104E-007  0.1040623E+04  0.7818608E-02  0.9330239E-01
         -2   -1    0    0    0  501 -0.00000000000E+00  0.00000000000E+00  0.98553370250E+03  0.98553370250E+03  0.25500000000E-02 0.  1.
          2   -1    0    0  501    0  0.00000000000E+00 -0.00000000000E+00 -0.16111643800E+04  0.16111643800E+04  0.25500000000E-02 0. -1.
    8880023    1    1    2    0    0  0.63049110515E+03 -0.50156543058E+03  0.53930851192E+03  0.11720711549E+04  0.65864270000E+03 0.  0.
    8880022    1    1    2    0    0 -0.63049110515E+03  0.50156543058E+03 -0.11649391894E+04  0.14246269276E+04  0.15294330000E+03 0.  0.
<mgrwt>
<rscale>  0 0.98046028E+03</rscale>
<asrwt>0</asrwt>
<pdfrwt beam="1">  1        2 0.24787144E+00 0.10406234E+04</pdfrwt>
<pdfrwt beam="2">  1       -2 0.15162057E+00 0.10406234E+04</pdfrwt>
<totfact> 0.31646507E+00</totfact>
</mgrwt>
</event>
<event>
 4    1  0.2878104E-007  0.6892364E+03  0.7818608E-02  0.1004518E+00
         -2   -1    0    0    0  501 -0.00000000000E+00  0.00000000000E+00  0.67246254188E+03  0.67246254188E+03  0.25500000000E-02 0.  1.
          2   -1    0    0  501    0  0.00000000000E+00 -0.00000000000E+00 -0.60871476768E+03  0.60871476768E+03  0.25500000000E-02 0. -1.
    8880023    1    1    2    0    0 -0.53568970833E+02  0.19587504952E+03  0.44683909766E+03  0.82140857989E+03  0.65864270000E+03 0.  0.
    8880022    1    1    2    0    0  0.53568970833E+02 -0.19587504952E+03 -0.38309132346E+03  0.45976872967E+03  0.15294330000E+03 0.  0.
<mgrwt>
<rscale>  0 0.53712954E+03</rscale>
<asrwt>0</asrwt>
<pdfrwt beam="1">  1        2 0.93648425E-01 0.68923644E+03</pdfrwt>
<pdfrwt beam="2">  1       -2 0.10345578E+00 0.68923644E+03</pdfrwt>
<totfact> 0.37772545E+01</totfact>
</mgrwt>
</event>
<event>
 4    1  0.2878104E-007  0.7019875E+03  0.7818608E-02  0.9989054E-01
          2   -1    0    0  501    0  0.00000000000E+00  0.00000000000E+00  0.80778227645E+03  0.80778227645E+03  0.25500000000E-02 0. -1.
         -2   -1    0    0    0  501 -0.00000000000E+00 -0.00000000000E+00 -0.13398342066E+04  0.13398342066E+04  0.25500000000E-02 0.  1.
    8880023    1    1    2    0    0 -0.12999658817E+03 -0.20512719816E+03 -0.12170137318E+04  0.14049586863E+04  0.65864270000E+03 0.  1.
    8880022    1    1    2    0    0  0.12999658817E+03  0.20512719816E+03  0.68496180168E+03  0.74265779679E+03  0.15294330000E+03 0.  0.
<mgrwt>
<rscale>  0 0.56132814E+03</rscale>
<asrwt>0</asrwt>
<pdfrwt beam="1">  1        2 0.12427420E+00 0.70198753E+03</pdfrwt>
<pdfrwt beam="2">  1       -2 0.20612834E+00 0.70198753E+03</pdfrwt>
<totfact> 0.42482094E+00</totfact>
</mgrwt>
</event>
<event>
 4    1  0.2878104E-007  0.1380307E+04  0.7818608E-02  0.8999138E-01
          2   -1    0    0  501    0  0.00000000000E+00  0.00000000000E+00  0.27266433873E+04  0.27266433873E+04  0.25500000000E-02 0. -1.
         -2   -1    0    0    0  501 -0.00000000000E+00 -0.00000000000E+00 -0.76380274302E+03  0.76380274302E+03  0.25500000000E-02 0.  1.
    8880023    1    1    2    0    0 -0.10841421401E+04  0.54412644836E+03  0.27683774211E+03  0.14077951248E+04  0.65864270000E+03 0.  1.
    8880022    1    1    2    0    0  0.10841421401E+04 -0.54412644836E+03  0.16860029022E+04  0.20826510055E+04  0.15294330000E+03 0. -1.
<mgrwt>
<rscale>  0 0.13390777E+04</rscale>
<asrwt>0</asrwt>
<pdfrwt beam="1">  1        2 0.41948359E+00 0.13803072E+04</pdfrwt>
<pdfrwt beam="2">  1       -2 0.11750812E+00 0.13803072E+04</pdfrwt>
<totfact> 0.13792108E+00</totfact>
</mgrwt>
</event>
<event>
 4    1  0.2878104E-007  0.8295401E+03  0.7818608E-02  0.9650228E-01
         -2   -1    0    0    0  501 -0.00000000000E+00  0.00000000000E+00  0.38112059890E+03  0.38112059891E+03  0.25500000000E-02 0.  1.
          2   -1    0    0  501    0  0.00000000000E+00 -0.00000000000E+00 -0.15587862906E+04  0.15587862906E+04  0.25500000000E-02 0. -1.
    8880023    1    1    2    0    0 -0.47016998969E+03 -0.18239181463E+03 -0.23876036051E+03  0.86321683792E+03  0.65864270000E+03 0.  0.
    8880022    1    1    2    0    0  0.47016998969E+03  0.18239181463E+03 -0.93890533116E+03  0.10766900516E+04  0.15294330000E+03 0.  0.
<mgrwt>
<rscale>  0 0.74059128E+03</rscale>
<asrwt>0</asrwt>
<pdfrwt beam="1">  1        2 0.23981327E+00 0.82954011E+03</pdfrwt>
<pdfrwt beam="2">  1       -2 0.58633939E-01 0.82954011E+03</pdfrwt>
<totfact> 0.32466468E+01</totfact>
</mgrwt>
</event>
<event>
 4    1  0.2878104E-007  0.6856483E+03  0.7818608E-02  0.1006294E+00
          2   -1    0    0  501    0  0.00000000000E+00  0.00000000000E+00  0.86332885974E+03  0.86332885974E+03  0.25500000000E-02 0. -1.
         -2   -1    0    0    0  501 -0.00000000000E+00 -0.00000000000E+00 -0.25323929223E+03  0.25323929224E+03  0.25500000000E-02 0.  1.
    8880023    1    1    2    0    0  0.74023968808E+01  0.19039063666E+03  0.39646484678E+03  0.79202144605E+03  0.65864270000E+03 0.  1.
    8880022    1    1    2    0    0 -0.74023968808E+01 -0.19039063666E+03  0.21362472073E+03  0.32454670593E+03  0.15294330000E+03 0. -1.
<mgrwt>
<rscale>  0 0.52974680E+03</rscale>
<asrwt>0</asrwt>
<pdfrwt beam="1">  1        2 0.13281982E+00 0.68564830E+03</pdfrwt>
<pdfrwt beam="2">  1       -2 0.38959892E-01 0.68564830E+03</pdfrwt>
<totfact> 0.19606688E+02</totfact>
</mgrwt>
</event>
<event>
 4    1  0.2878104E-007  0.9248678E+03  0.7818608E-02  0.9487235E-01
          2   -1    0    0  501    0  0.00000000000E+00  0.00000000000E+00  0.14866169101E+04  0.14866169101E+04  0.25500000000E-02 0. -1.
         -2   -1    0    0    0  501 -0.00000000000E+00 -0.00000000000E+00 -0.64901520702E+03  0.64901520702E+03  0.25500000000E-02 0.  1.
    8880023    1    1    2    0    0  0.14613521644E+03 -0.63262521939E+03 -0.15695466537E+03  0.93809122314E+03  0.65864270000E+03 0.  1.
    8880022    1    1    2    0    0 -0.14613521644E+03  0.63262521939E+03  0.99455636842E+03  0.11975408939E+04  0.15294330000E+03 0.  0.
<mgrwt>
<rscale>  0 0.85231489E+03</rscale>
<asrwt>0</asrwt>
<pdfrwt beam="1">  1        2 0.22871029E+00 0.92486776E+03</pdfrwt>
<pdfrwt beam="2">  1       -2 0.99848494E-01 0.92486776E+03</pdfrwt>
<totfact> 0.10741810E+01</totfact>
</mgrwt>
</event>
<event>
 4    1  0.2878104E-007  0.1072427E+04  0.7818608E-02  0.9292395E-01
         -2   -1    0    0    0  501 -0.00000000000E+00  0.00000000000E+00  0.11238737687E+04  0.11238737688E+04  0.25500000000E-02 0.  1.
          2   -1    0    0  501    0  0.00000000000E+00 -0.00000000000E+00 -0.29006161898E+04  0.29006161898E+04  0.25500000000E-02 0. -1.
    8880023    1    1    2    0    0  0.82754017691E+03 -0.17738742293E+03  0.78057681719E+03  0.13264235432E+04  0.65864270000E+03 0.  0.
    8880022    1    1    2    0    0 -0.82754017691E+03  0.17738742293E+03 -0.25573192382E+04  0.26980664153E+04  0.15294330000E+03 0.  0.
<mgrwt>
<rscale>  0 0.10148603E+04</rscale>
<asrwt>0</asrwt>
<pdfrwt beam="1">  1        2 0.44624864E+00 0.10724268E+04</pdfrwt>
<pdfrwt beam="2">  1       -2 0.17290366E+00 0.10724268E+04</pdfrwt>
<totfact> 0.40868941E-01</totfact>
</mgrwt>
</event>
<event>
 4    1  0.2878104E-007  0.1711204E+04  0.7818608E-02  0.8773313E-01
          2   -1    0    0  501    0  0.00000000000E+00  0.00000000000E+00  0.28600418431E+04  0.28600418431E+04  0.25500000000E-02 0. -1.
         -2   -1    0    0    0  501 -0.00000000000E+00 -0.00000000000E+00 -0.11586778995E+04  0.11586778995E+04  0.25500000000E-02 0.  1.
    8880023    1    1    2    0    0  0.15557507299E+04  0.27212059522E+03  0.17277584099E+04  0.24317420260E+04  0.65864270000E+03 0.  0.
    8880022    1    1    2    0    0 -0.15557507299E+04 -0.27212059522E+03 -0.26394466273E+02  0.15869777165E+04  0.15294330000E+03 0.  0.
<mgrwt>
<rscale>  0 0.16792064E+04</rscale>
<asrwt>0</asrwt>
<pdfrwt beam="1">  1        2 0.44000644E+00 0.17112043E+04</pdfrwt>
<pdfrwt beam="2">  1       -2 0.17825814E+00 0.17112043E+04</pdfrwt>
<totfact> 0.36545406E-01</totfact>
</mgrwt>
</event>
<event>
 4    1  0.2878104E-007  0.7622191E+03  0.7818608E-02  0.9799396E-01
          2   -1    0    0  501    0  0.00000000000E+00  0.00000000000E+00  0.25038096844E+04  0.25038096844E+04  0.25500000000E-02 0. -1.
         -2   -1    0    0    0  501 -0.00000000000E+00 -0.00000000000E+00 -0.15961501111E+03  0.15961501113E+03  0.25500000000E-02 0.  1.
    8880023    1    1    2    0    0  0.38167648227E+03  0.38611241047E+02  0.10009474161E+04  0.12581230866E+04  0.65864270000E+03 0. -1.
    8880022    1    1    2    0    0 -0.38167648227E+03 -0.38611241047E+02  0.13432472572E+04  0.14053016089E+04  0.15294330000E+03 0.  0.
<mgrwt>
<rscale>  0 0.65394969E+03</rscale>
<asrwt>0</asrwt>
<pdfrwt beam="1">  1        2 0.38520143E+00 0.76221911E+03</pdfrwt>
<pdfrwt beam="2">  1       -2 0.24556159E-01 0.76221911E+03</pdfrwt>
<totfact> 0.53276586E+01</totfact>
</mgrwt>
</event>
<event>
 4    1  0.2878104E-007  0.7927375E+03  0.7818608E-02  0.9726725E-01
          2   -1    0    0  501    0  0.00000000000E+00  0.00000000000E+00  0.77653859527E+03  0.77653859527E+03  0.25500000000E-02 0. -1.
         -2   -1    0    0    0  501 -0.00000000000E+00 -0.00000000000E+00 -0.78244276728E+03  0.78244276729E+03  0.25500000000E-02 0.  1.
    8880023    1    1    2    0    0 -0.35108604424E+03 -0.26713505381E+03 -0.45256442343E+03  0.91282381162E+03  0.65864270000E+03 0.  1.
    8880022    1    1    2    0    0  0.35108604424E+03  0.26713505381E+03  0.44666025141E+03  0.64615755094E+03  0.15294330000E+03 0.  0.
<mgrwt>
<rscale>  0 0.69447666E+03</rscale>
<asrwt>0</asrwt>
<pdfrwt beam="1">  1        2 0.11946748E+00 0.79273751E+03</pdfrwt>
<pdfrwt beam="2">  1       -2 0.12037581E+00 0.79273751E+03</pdfrwt>
<totfact> 0.19075009E+01</totfact>
</mgrwt>
</event>
<event>
 4    1  0.2878104E-007  0.8975205E+03  0.7818608E-02  0.9530024E-01
          2   -1    0    0  501    0  0.00000000000E+00  0.00000000000E+00  0.16827809641E+04  0.16827809641E+04  0.25500000000E-02 0. -1.
         -2   -1    0    0    0  501 -0.00000000000E+00 -0.00000000000E+00 -0.67002178095E+03  0.67002178096E+03  0.25500000000E-02 0.  1.
    8880023    1    1    2    0    0  0.60366243460E+03  0.85583029007E+02 -0.25902952207E+03  0.93415164153E+03  0.65864270000E+03 0.  1.
    8880022    1    1    2    0    0 -0.60366243460E+03 -0.85583029007E+02  0.12717887052E+04  0.14186511035E+04  0.15294330000E+03 0.  0.
<mgrwt>
<rscale>  0 0.82106022E+03</rscale>
<asrwt>0</asrwt>
<pdfrwt beam="1">  1        2 0.25888938E+00 0.89752047E+03</pdfrwt>
<pdfrwt beam="2">  1       -2 0.10308028E+00 0.89752047E+03</pdfrwt>
<totfact> 0.77685552E+00</totfact>
</mgrwt>
</event>
<event>
 4    1  0.2878104E-007  0.7233772E+03  0.7818608E-02  0.9911320E-01
          2   -1    0    0  501    0  0.00000000000E+00  0.00000000000E+00  0.18114922226E+04  0.18114922226E+04  0.25500000000E-02 0. -1.
         -2   -1    0    0    0  501 -0.00000000000E+00 -0.00000000000E+00 -0.26826361655E+03  0.26826361656E+03  0.25500000000E-02 0.  1.
    8880023    1    1    2    0    0  0.47059890555E+02 -0.29538077786E+03  0.28507299007E+03  0.77752250975E+03  0.65864270000E+03 0.  1.
    8880022    1    1    2    0    0 -0.47059890555E+02  0.29538077786E+03  0.12581556160E+04  0.13022333295E+04  0.15294330000E+03 0.  0.
<mgrwt>
<rscale>  0 0.59715801E+03</rscale>
<asrwt>0</asrwt>
<pdfrwt beam="1">  1        2 0.27869110E+00 0.72337725E+03</pdfrwt>
<pdfrwt beam="2">  1       -2 0.41271328E-01 0.72337725E+03</pdfrwt>
<totfact> 0.48703398E+01</totfact>
</mgrwt>
</event>
<event>
 4    1  0.2878104E-007  0.1082770E+04  0.7818608E-02  0.9280486E-01
          2   -1    0    0  501    0  0.00000000000E+00  0.00000000000E+00  0.12398478605E+04  0.12398478605E+04  0.25500000000E-02 0. -1.
         -2   -1    0    0    0  501 -0.00000000000E+00 -0.00000000000E+00 -0.17643136138E+04  0.17643136138E+04  0.25500000000E-02 0.  1.
    8880023    1    1    2    0    0  0.39936660680E+03 -0.76097784389E+03 -0.13986433833E+04  0.17687833348E+04  0.65864270000E+03 0.  1.
    8880022    1    1    2    0    0 -0.39936660680E+03  0.76097784389E+03  0.87417763002E+03  0.12353781394E+04  0.15294330000E+03 0.  0.
<mgrwt>
<rscale>  0 0.10259935E+04</rscale>
<asrwt>0</asrwt>
<pdfrwt beam="1">  1        2 0.19074583E+00 0.10827701E+04</pdfrwt>
<pdfrwt beam="2">  1       -2 0.27143286E+00 0.10827701E+04</pdfrwt>
<totfact> 0.84199899E-01</totfact>
</mgrwt>
</event>
<event>
 4    1  0.2878104E-007  0.9774294E+03  0.7818608E-02  0.9411701E-01
          2   -1    0    0  501    0  0.00000000000E+00  0.00000000000E+00  0.85411693305E+03  0.85411693305E+03  0.25500000000E-02 0. -1.
         -2   -1    0    0    0  501 -0.00000000000E+00 -0.00000000000E+00 -0.21604912740E+04  0.21604912740E+04  0.25500000000E-02 0.  1.
    8880023    1    1    2    0    0  0.62716164999E+03  0.35808699430E+03 -0.18537171815E+04  0.20956229685E+04  0.65864270000E+03 0.  0.
    8880022    1    1    2    0    0 -0.62716164999E+03 -0.35808699430E+03  0.54734284053E+03  0.91898523862E+03  0.15294330000E+03 0.  0.
<mgrwt>
<rscale>  0 0.91118928E+03</rscale>
<asrwt>0</asrwt>
<pdfrwt beam="1">  1        2 0.13140261E+00 0.97742940E+03</pdfrwt>
<pdfrwt beam="2">  1       -2 0.33238327E+00 0.97742940E+03</pdfrwt>
<totfact> 0.64052539E-01</totfact>
</mgrwt>
</event>
<event>
 4    1  0.2878104E-007  0.1229338E+04  0.7818608E-02  0.9129118E-01
         -2   -1    0    0    0  501 -0.00000000000E+00  0.00000000000E+00  0.11703744352E+04  0.11703744352E+04  0.25500000000E-02 0.  1.
          2   -1    0    0  501    0  0.00000000000E+00 -0.00000000000E+00 -0.13716990047E+04  0.13716990047E+04  0.25500000000E-02 0. -1.
    8880023    1    1    2    0    0 -0.23816318624E+03  0.10103173175E+04  0.44772500089E+03  0.13083312532E+04  0.65864270000E+03 0.  1.
    8880022    1    1    2    0    0  0.23816318624E+03 -0.10103173175E+04 -0.64904957037E+03  0.12337421867E+04  0.15294330000E+03 0.  0.
<mgrwt>
<rscale>  0 0.11815982E+04</rscale>
<asrwt>0</asrwt>
<pdfrwt beam="1">  1        2 0.21103062E+00 0.12293384E+04</pdfrwt>
<pdfrwt beam="2">  1       -2 0.18005761E+00 0.12293384E+04</pdfrwt>
<totfact> 0.26340224E+00</totfact>
</mgrwt>
</event>
<event>
 4    1  0.2878104E-007  0.8323980E+03  0.7818608E-02  0.9644685E-01
         -2   -1    0    0    0  501 -0.00000000000E+00  0.00000000000E+00  0.35536844785E+03  0.35536844786E+03  0.25500000000E-02 0.  1.
          2   -1    0    0  501    0  0.00000000000E+00 -0.00000000000E+00 -0.16437128106E+04  0.16437128106E+04  0.25500000000E-02 0. -1.
    8880023    1    1    2    0    0 -0.50892261542E+03  0.85976571910E+01 -0.31484505106E+03  0.88995154960E+03  0.65864270000E+03 0.  1.
    8880022    1    1    2    0    0  0.50892261542E+03 -0.85976571910E+01 -0.97349931173E+03  0.11091297089E+04  0.15294330000E+03 0.  0.
<mgrwt>
<rscale>  0 0.74407956E+03</rscale>
<asrwt>0</asrwt>
<pdfrwt beam="1">  1        2 0.25287889E+00 0.83239795E+03</pdfrwt>
<pdfrwt beam="2">  1       -2 0.54672070E-01 0.83239795E+03</pdfrwt>
<totfact> 0.33717226E+01</totfact>
</mgrwt>
</event>
<event>
 4    1  0.2878104E-007  0.7512397E+03  0.7818608E-02  0.9828339E-01
          2   -1    0    0  501    0  0.00000000000E+00  0.00000000000E+00  0.14864449152E+04  0.14864449152E+04  0.25500000000E-02 0. -1.
         -2   -1    0    0    0  501 -0.00000000000E+00 -0.00000000000E+00 -0.33263248286E+03  0.33263248287E+03  0.25500000000E-02 0.  1.
    8880023    1    1    2    0    0  0.45266608135E+02  0.35847152960E+03  0.18478557157E+03  0.77363222339E+03  0.65864270000E+03 0.  1.
    8880022    1    1    2    0    0 -0.45266608135E+02 -0.35847152960E+03  0.96902686078E+03  0.10454451747E+04  0.15294330000E+03 0.  0.
<mgrwt>
<rscale>  0 0.63863651E+03</rscale>
<asrwt>0</asrwt>
<pdfrwt beam="1">  1        2 0.22868383E+00 0.75123972E+03</pdfrwt>
<pdfrwt beam="2">  1       -2 0.51174228E-01 0.75123972E+03</pdfrwt>
<totfact> 0.47627982E+01</totfact>
</mgrwt>
</event>
<event>
 4    1  0.2878104E-007  0.8947603E+03  0.7818608E-02  0.9534496E-01
          2   -1    0    0  501    0  0.00000000000E+00  0.00000000000E+00  0.12186446276E+04  0.12186446276E+04  0.25500000000E-02 0. -1.
         -2   -1    0    0    0  501 -0.00000000000E+00 -0.00000000000E+00 -0.58690070036E+03  0.58690070037E+03  0.25500000000E-02 0.  1.
    8880023    1    1    2    0    0  0.48282189965E+03 -0.36560752133E+03 -0.30383445855E+02  0.89527605043E+03  0.65864270000E+03 0.  1.
    8880022    1    1    2    0    0 -0.48282189965E+03  0.36560752133E+03  0.66212737311E+03  0.91026927756E+03  0.15294330000E+03 0.  0.
<mgrwt>
<rscale>  0 0.81787667E+03</rscale>
<asrwt>0</asrwt>
<pdfrwt beam="1">  1        2 0.18748379E+00 0.89476033E+03</pdfrwt>
<pdfrwt beam="2">  1       -2 0.90292416E-01 0.89476033E+03</pdfrwt>
<totfact> 0.19448241E+01</totfact>
</mgrwt>
</event>
<event>
 4    1  0.2878104E-007  0.1310979E+04  0.7818608E-02  0.9056137E-01
          2   -1    0    0  501    0  0.00000000000E+00  0.00000000000E+00  0.18695448930E+04  0.18695448930E+04  0.25500000000E-02 0. -1.
         -2   -1    0    0    0  501 -0.00000000000E+00 -0.00000000000E+00 -0.11488434750E+04  0.11488434750E+04  0.25500000000E-02 0.  1.
    8880023    1    1    2    0    0 -0.70642069631E+03 -0.88646777113E+03 -0.44578654824E+03  0.13846989428E+04  0.65864270000E+03 0.  1.
    8880022    1    1    2    0    0  0.70642069631E+03  0.88646777113E+03  0.11664879662E+04  0.16336894251E+04  0.15294330000E+03 0.  0.
<mgrwt>
<rscale>  0 0.12670186E+04</rscale>
<asrwt>0</asrwt>
<pdfrwt beam="1">  1        2 0.28762229E+00 0.13109788E+04</pdfrwt>
<pdfrwt beam="2">  1       -2 0.17674515E+00 0.13109788E+04</pdfrwt>
<totfact> 0.14468402E+00</totfact>
</mgrwt>
</event>
<event>
 4    1  0.2878104E-007  0.9761167E+03  0.7818608E-02  0.9413494E-01
          2   -1    0    0  501    0  0.00000000000E+00  0.00000000000E+00  0.24390916463E+04  0.24390916463E+04  0.25500000000E-02 0. -1.
         -2   -1    0    0    0  501 -0.00000000000E+00 -0.00000000000E+00 -0.65125717520E+03  0.65125717520E+03  0.25500000000E-02 0.  1.
    8880023    1    1    2    0    0 -0.20738673032E+02  0.72011350109E+03 -0.17699201648E+03  0.99203322886E+03  0.65864270000E+03 0.  0.
    8880022    1    1    2    0    0  0.20738673032E+02 -0.72011350109E+03  0.19648264876E+04  0.20983155927E+04  0.15294330000E+03 0.  0.
<mgrwt>
<rscale>  0 0.90973473E+03</rscale>
<asrwt>0</asrwt>
<pdfrwt beam="1">  1        2 0.37524486E+00 0.97611667E+03</pdfrwt>
<pdfrwt beam="2">  1       -2 0.10019341E+00 0.97611667E+03</pdfrwt>
<totfact> 0.31375669E+00</totfact>
</mgrwt>
</event>
<event>
 4    1  0.2878104E-007  0.6847199E+03  0.7818608E-02  0.1006771E+00
          2   -1    0    0  501    0  0.00000000000E+00  0.00000000000E+00  0.21431530274E+04  0.21431530274E+04  0.25500000000E-02 0. -1.
         -2   -1    0    0    0  501 -0.00000000000E+00 -0.00000000000E+00 -0.12543173454E+03  0.12543173457E+03  0.25500000000E-02 0.  1.
    8880023    1    1    2    0    0  0.14531286168E+03  0.11796344841E+03  0.93320384775E+03  0.11574587814E+04  0.65864270000E+03 0.  1.
    8880022    1    1    2    0    0 -0.14531286168E+03 -0.11796344841E+03  0.10845174451E+04  0.11111259805E+04  0.15294330000E+03 0.  0.
<mgrwt>
<rscale>  0 0.52778566E+03</rscale>
<asrwt>0</asrwt>
<pdfrwt beam="1">  1        2 0.32971583E+00 0.68471995E+03</pdfrwt>
<pdfrwt beam="2">  1       -2 0.19297191E-01 0.68471995E+03</pdfrwt>
<totfact> 0.13077093E+02</totfact>
</mgrwt>
</event>
<event>
 4    1  0.2878104E-007  0.7801607E+03  0.7818608E-02  0.9755460E-01
         -2   -1    0    0    0  501 -0.00000000000E+00  0.00000000000E+00  0.13162334086E+04  0.13162334086E+04  0.25500000000E-02 0.  1.
          2   -1    0    0  501    0  0.00000000000E+00 -0.00000000000E+00 -0.64227772036E+03  0.64227772037E+03  0.25500000000E-02 0. -1.
    8880023    1    1    2    0    0  0.32156860318E+02  0.41690098374E+03  0.10958147515E+04  0.13451619493E+04  0.65864270000E+03 0.  1.
    8880022    1    1    2    0    0 -0.32156860318E+02 -0.41690098374E+03 -0.42185906329E+03  0.61334917967E+03  0.15294330000E+03 0.  0.
<mgrwt>
<rscale>  0 0.67808605E+03</rscale>
<asrwt>0</asrwt>
<pdfrwt beam="1">  1        2 0.98811957E-01 0.78016069E+03</pdfrwt>
<pdfrwt beam="2">  1       -2 0.20249745E+00 0.78016069E+03</pdfrwt>
<totfact> 0.59449819E+00</totfact>
</mgrwt>
</event>
<event>
 4    1  0.2878104E-007  0.1245384E+04  0.7818608E-02  0.9114221E-01
          2   -1    0    0  501    0  0.00000000000E+00  0.00000000000E+00  0.10632369032E+04  0.10632369032E+04  0.25500000000E-02 0. -1.
         -2   -1    0    0    0  501 -0.00000000000E+00 -0.00000000000E+00 -0.21495411897E+04  0.21495411897E+04  0.25500000000E-02 0.  1.
    8880023    1    1    2    0    0  0.18992337438E+03  0.10397596831E+04 -0.16001057875E+04  0.20276389778E+04  0.65864270000E+03 0.  1.
    8880022    1    1    2    0    0 -0.18992337438E+03 -0.10397596831E+04  0.51380150103E+03  0.11851391152E+04  0.15294330000E+03 0.  0.
<mgrwt>
<rscale>  0 0.11984429E+04</rscale>
<asrwt>0</asrwt>
<pdfrwt beam="1">  1        2 0.16357491E+00 0.12453840E+04</pdfrwt>
<pdfrwt beam="2">  1       -2 0.33069864E+00 0.12453840E+04</pdfrwt>
<totfact> 0.46008875E-01</totfact>
</mgrwt>
</event>
<event>
 4    1  0.2878104E-007  0.1641549E+04  0.7818608E-02  0.8815654E-01
          2   -1    0    0  501    0  0.00000000000E+00  0.00000000000E+00  0.20879278581E+04  0.20879278581E+04  0.25500000000E-02 0. -1.
         -2   -1    0    0    0  501 -0.00000000000E+00 -0.00000000000E+00 -0.16706037522E+04  0.16706037523E+04  0.25500000000E-02 0.  1.
    8880023    1    1    2    0    0 -0.43428506400E+03  0.14395379913E+04  0.12218487050E+04  0.20463620426E+04  0.65864270000E+03 0.  0.
    8880022    1    1    2    0    0  0.43428506400E+03 -0.14395379913E+04 -0.80452459910E+03  0.17121695678E+04  0.15294330000E+03 0.  0.
<mgrwt>
<rscale>  0 0.16079913E+04</rscale>
<asrwt>0</asrwt>
<pdfrwt beam="1">  1        2 0.32121967E+00 0.16415491E+04</pdfrwt>
<pdfrwt beam="2">  1       -2 0.25701596E+00 0.16415491E+04</pdfrwt>
<totfact> 0.32059224E-01</totfact>
</mgrwt>
</event>
<event>
 4    1  0.2878104E-007  0.7379959E+03  0.7818608E-02  0.9865824E-01
          2   -1    0    0  501    0  0.00000000000E+00  0.00000000000E+00  0.12437337792E+04  0.12437337792E+04  0.25500000000E-02 0. -1.
         -2   -1    0    0    0  501 -0.00000000000E+00 -0.00000000000E+00 -0.26818480693E+03  0.26818480694E+03  0.25500000000E-02 0.  1.
    8880023    1    1    2    0    0 -0.31684990612E+03 -0.10214631238E+03  0.42804612746E+03  0.85314795061E+03  0.65864270000E+03 0.  1.
    8880022    1    1    2    0    0  0.31684990612E+03  0.10214631238E+03  0.54750284486E+03  0.65877063557E+03  0.15294330000E+03 0.  0.
<mgrwt>
<rscale>  0 0.61946584E+03</rscale>
<asrwt>0</asrwt>
<pdfrwt beam="1">  1        2 0.19134366E+00 0.73799589E+03</pdfrwt>
<pdfrwt beam="2">  1       -2 0.41259201E-01 0.73799589E+03</pdfrwt>
<totfact> 0.10090506E+02</totfact>
</mgrwt>
</event>
<event>
 4    1  0.2878104E-007  0.1277659E+04  0.7818608E-02  0.9085097E-01
         -2   -1    0    0    0  501 -0.00000000000E+00  0.00000000000E+00  0.19405416789E+04  0.19405416789E+04  0.25500000000E-02 0.  1.
          2   -1    0    0  501    0  0.00000000000E+00 -0.00000000000E+00 -0.76908563127E+03  0.76908563128E+03  0.25500000000E-02 0. -1.
    8880023    1    1    2    0    0  0.10464388557E+04  0.32182132720E+03  0.32781718227E+03  0.13190441830E+04  0.65864270000E+03 0.  0.
    8880022    1    1    2    0    0 -0.10464388557E+04 -0.32182132720E+03  0.84363886539E+03  0.13905831272E+04  0.15294330000E+03 0.  0.
<mgrwt>
<rscale>  0 0.12322391E+04</rscale>
<asrwt>0</asrwt>
<pdfrwt beam="1">  1        2 0.11832087E+00 0.12776594E+04</pdfrwt>
<pdfrwt beam="2">  1       -2 0.29854488E+00 0.12776594E+04</pdfrwt>
<totfact> 0.11454796E+00</totfact>
</mgrwt>
</event>
<event>
 4    1  0.2878104E-007  0.7414360E+03  0.7818608E-02  0.9855784E-01
          2   -1    0    0  501    0  0.00000000000E+00  0.00000000000E+00  0.36643557021E+03  0.36643557021E+03  0.25500000000E-02 0. -1.
         -2   -1    0    0    0  501 -0.00000000000E+00 -0.00000000000E+00 -0.10727119789E+04  0.10727119789E+04  0.25500000000E-02 0.  1.
    8880023    1    1    2    0    0  0.33464765030E+03  0.62674218710E+02 -0.76035320608E+03  0.10620095629E+04  0.65864270000E+03 0.  1.
    8880022    1    1    2    0    0 -0.33464765030E+03 -0.62674218710E+02  0.54076797430E+02  0.37713798612E+03  0.15294330000E+03 0.  0.
<mgrwt>
<rscale>  0 0.62452891E+03</rscale>
<asrwt>0</asrwt>
<pdfrwt beam="1">  1        2 0.56374703E-01 0.74143598E+03</pdfrwt>
<pdfrwt beam="2">  1       -2 0.16503261E+00 0.74143598E+03</pdfrwt>
<totfact> 0.20604300E+01</totfact>
</mgrwt>
</event>
<event>
 4    1  0.2878104E-007  0.1564613E+04  0.7818608E-02  0.8865309E-01
          2   -1    0    0  501    0  0.00000000000E+00  0.00000000000E+00  0.10235330085E+04  0.10235330085E+04  0.25500000000E-02 0. -1.
         -2   -1    0    0    0  501 -0.00000000000E+00 -0.00000000000E+00 -0.30518883506E+04  0.30518883506E+04  0.25500000000E-02 0.  1.
    8880023    1    1    2    0    0  0.14066533966E+04  0.18848952498E+03 -0.21316697573E+04  0.26442443608E+04  0.65864270000E+03 0.  1.
    8880022    1    1    2    0    0 -0.14066533966E+04 -0.18848952498E+03  0.10331441517E+03  0.14311769984E+04  0.15294330000E+03 0.  0.
<mgrwt>
<rscale>  0 0.15291314E+04</rscale>
<asrwt>0</asrwt>
<pdfrwt beam="1">  1        2 0.15746662E+00 0.15646125E+04</pdfrwt>
<pdfrwt beam="2">  1       -2 0.46952128E+00 0.15646125E+04</pdfrwt>
<totfact> 0.58954515E-02</totfact>
</mgrwt>
</event>
<event>
 4    1  0.2878104E-007  0.9967777E+03  0.7818608E-02  0.9385786E-01
          2   -1    0    0  501    0  0.00000000000E+00  0.00000000000E+00  0.43408831733E+04  0.43408831733E+04  0.25500000000E-02 0. -1.
         -2   -1    0    0    0  501 -0.00000000000E+00 -0.00000000000E+00 -0.31423243447E+03  0.31423243448E+03  0.25500000000E-02 0.  1.
    8880023    1    1    2    0    0  0.74735275153E+03 -0.34921318164E+02  0.64256826998E+03  0.11859425878E+04  0.65864270000E+03 0.  1.
    8880022    1    1    2    0    0 -0.74735275153E+03  0.34921318164E+02  0.33840824688E+04  0.34691730200E+04  0.15294330000E+03 0.  0.
<mgrwt>
<rscale>  0 0.93254764E+03</rscale>
<asrwt>0</asrwt>
<pdfrwt beam="1">  1        2 0.66782814E+00 0.99677773E+03</pdfrwt>
<pdfrwt beam="2">  1       -2 0.48343455E-01 0.99677773E+03</pdfrwt>
<totfact> 0.75494234E-01</totfact>
</mgrwt>
</event>
<event>
 4    1  0.2878104E-007  0.7873113E+03  0.7818608E-02  0.9738935E-01
          2   -1    0    0  501    0  0.00000000000E+00  0.00000000000E+00  0.15086220984E+04  0.15086220984E+04  0.25500000000E-02 0. -1.
         -2   -1    0    0    0  501 -0.00000000000E+00 -0.00000000000E+00 -0.42726187772E+03  0.42726187772E+03  0.25500000000E-02 0.  1.
    8880023    1    1    2    0    0 -0.37473170532E+02  0.42970303357E+03  0.28460661001E+02  0.78782558416E+03  0.65864270000E+03 0.  1.
    8880022    1    1    2    0    0  0.37473170532E+02 -0.42970303357E+03  0.10528995596E+04  0.11480583919E+04  0.15294330000E+03 0.  0.
<mgrwt>
<rscale>  0 0.68745217E+03</rscale>
<asrwt>0</asrwt>
<pdfrwt beam="1">  1        2 0.23209571E+00 0.78731134E+03</pdfrwt>
<pdfrwt beam="2">  1       -2 0.65732596E-01 0.78731134E+03</pdfrwt>
<totfact> 0.27265323E+01</totfact>
</mgrwt>
</event>
<event>
 4    1  0.2878104E-007  0.1694145E+04  0.7818608E-02  0.8783468E-01
         -2   -1    0    0    0  501 -0.00000000000E+00  0.00000000000E+00  0.79687594000E+03  0.79687594000E+03  0.25500000000E-02 0.  1.
          2   -1    0    0  501    0  0.00000000000E+00 -0.00000000000E+00 -0.46742038048E+04  0.46742038048E+04  0.25500000000E-02 0. -1.
    8880023    1    1    2    0    0 -0.72232897162E+03 -0.13836753454E+04 -0.53092379738E+03  0.17753892220E+04  0.65864270000E+03 0.  0.
    8880022    1    1    2    0    0  0.72232897162E+03  0.13836753454E+04 -0.33464040675E+04  0.36956905228E+04  0.15294330000E+03 0.  0.
<mgrwt>
<rscale>  0 0.16617793E+04</rscale>
<asrwt>0</asrwt>
<pdfrwt beam="1">  1        2 0.71910826E+00 0.16941449E+04</pdfrwt>
<pdfrwt beam="2">  1       -2 0.12259630E+00 0.16941449E+04</pdfrwt>
<totfact> 0.39231333E-02</totfact>
</mgrwt>
</event>
<event>
 4    1  0.2878104E-007  0.9516921E+03  0.7818608E-02  0.9447684E-01
         -2   -1    0    0    0  501 -0.00000000000E+00  0.00000000000E+00  0.16850655131E+04  0.16850655131E+04  0.25500000000E-02 0.  1.
          2   -1    0    0  501    0  0.00000000000E+00 -0.00000000000E+00 -0.11509717603E+04  0.11509717603E+04  0.25500000000E-02 0. -1.
    8880023    1    1    2    0    0 -0.63773109627E+03  0.25535607100E+03  0.14170171809E+04  0.17069433416E+04  0.65864270000E+03 0.  1.
    8880022    1    1    2    0    0  0.63773109627E+03 -0.25535607100E+03 -0.88292342804E+03  0.11290939319E+04  0.15294330000E+03 0.  0.
<mgrwt>
<rscale>  0 0.88253273E+03</rscale>
<asrwt>0</asrwt>
<pdfrwt beam="1">  1        2 0.17707258E+00 0.95169211E+03</pdfrwt>
<pdfrwt beam="2">  1       -2 0.25924085E+00 0.95169211E+03</pdfrwt>
<totfact> 0.11488614E+00</totfact>
</mgrwt>
</event>
<event>
 4    1  0.2878104E-007  0.9095707E+03  0.7818608E-02  0.9510839E-01
         -2   -1    0    0    0  501 -0.00000000000E+00  0.00000000000E+00  0.92013584762E+03  0.92013584763E+03  0.25500000000E-02 0.  1.
          2   -1    0    0  501    0  0.00000000000E+00 -0.00000000000E+00 -0.21539983302E+04  0.21539983302E+04  0.25500000000E-02 0. -1.
    8880023    1    1    2    0    0 -0.23452429769E+03 -0.58181360253E+03  0.62679996431E+03  0.11046253283E+04  0.65864270000E+03 0.  1.
    8880022    1    1    2    0    0  0.23452429769E+03  0.58181360253E+03 -0.18606624469E+04  0.19695088496E+04  0.15294330000E+03 0.  0.
<mgrwt>
<rscale>  0 0.83489410E+03</rscale>
<asrwt>0</asrwt>
<pdfrwt beam="1">  1        2 0.33138436E+00 0.90957073E+03</pdfrwt>
<pdfrwt beam="2">  1       -2 0.14155936E+00 0.90957073E+03</pdfrwt>
<totfact> 0.19382548E+00</totfact>
</mgrwt>
</event>
<event>
 4    1  0.2878104E-007  0.8200339E+03  0.7818608E-02  0.9669044E-01
         -2   -1    0    0    0  501 -0.00000000000E+00  0.00000000000E+00  0.32001171743E+03  0.32001171744E+03  0.25500000000E-02 0.  1.
          2   -1    0    0  501    0  0.00000000000E+00 -0.00000000000E+00 -0.21005938899E+04  0.21005938899E+04  0.25500000000E-02 0. -1.
    8880023    1    1    2    0    0  0.21745575442E+03  0.43744528426E+03 -0.33280121971E+03  0.88499279090E+03  0.65864270000E+03 0.  1.
    8880022    1    1    2    0    0 -0.21745575442E+03 -0.43744528426E+03 -0.14477809528E+04  0.15356128165E+04  0.15294330000E+03 0.  0.
<mgrwt>
<rscale>  0 0.72890208E+03</rscale>
<asrwt>0</asrwt>
<pdfrwt beam="1">  1        2 0.32316828E+00 0.82003389E+03</pdfrwt>
<pdfrwt beam="2">  1       -2 0.49232573E-01 0.82003389E+03</pdfrwt>
<totfact> 0.23530315E+01</totfact>
</mgrwt>
</event>
<event>
 4    1  0.2878104E-007  0.1187287E+04  0.7818608E-02  0.9169580E-01
         -2   -1    0    0    0  501 -0.00000000000E+00  0.00000000000E+00  0.11559366677E+04  0.11559366677E+04  0.25500000000E-02 0.  1.
          2   -1    0    0  501    0  0.00000000000E+00 -0.00000000000E+00 -0.12936461874E+04  0.12936461874E+04  0.25500000000E-02 0. -1.
    8880023    1    1    2    0    0  0.47280520481E+03  0.86734956368E+03  0.47315381085E+03  0.12780941915E+04  0.65864270000E+03 0.  0.
    8880022    1    1    2    0    0 -0.47280520481E+03 -0.86734956368E+03 -0.61086333055E+03  0.11714886636E+04  0.15294330000E+03 0.  0.
<mgrwt>
<rscale>  0 0.11373000E+04</rscale>
<asrwt>0</asrwt>
<pdfrwt beam="1">  1        2 0.19902249E+00 0.11872869E+04</pdfrwt>
<pdfrwt beam="2">  1       -2 0.17783641E+00 0.11872869E+04</pdfrwt>
<totfact> 0.30426749E+00</totfact>
</mgrwt>
</event>
<event>
 4    1  0.2878104E-007  0.1164389E+04  0.7818608E-02  0.9192541E-01
         -2   -1    0    0    0  501 -0.00000000000E+00  0.00000000000E+00  0.10492793442E+04  0.10492793442E+04  0.25500000000E-02 0.  1.
          2   -1    0    0  501    0  0.00000000000E+00 -0.00000000000E+00 -0.21874397018E+04  0.21874397018E+04  0.25500000000E-02 0. -1.
    8880023    1    1    2    0    0 -0.17725118193E+03 -0.94370188279E+03  0.55063659617E+03  0.12880225512E+04  0.65864270000E+03 0.  0.
    8880022    1    1    2    0    0  0.17725118193E+03  0.94370188279E+03 -0.16887969537E+04  0.19486964948E+04  0.15294330000E+03 0.  0.
<mgrwt>
<rscale>  0 0.11130752E+04</rscale>
<asrwt>0</asrwt>
<pdfrwt beam="1">  1        2 0.33652918E+00 0.11643889E+04</pdfrwt>
<pdfrwt beam="2">  1       -2 0.16142759E+00 0.11643889E+04</pdfrwt>
<totfact> 0.12622338E+00</totfact>
</mgrwt>
</event>
<event>
 4    1  0.2878104E-007  0.9269853E+03  0.7818608E-02  0.9484030E-01
          2   -1    0    0  501    0  0.00000000000E+00  0.00000000000E+00  0.20498546321E+04  0.20498546321E+04  0.25500000000E-02 0. -1.
         -2   -1    0    0    0  501 -0.00000000000E+00 -0.00000000000E+00 -0.48330529267E+03  0.48330529268E+03  0.25500000000E-02 0.  1.
    8880023    1    1    2    0    0 -0.39809850345E+03  0.51672924236E+03  0.16142471968E+04  0.18614767651E+04  0.65864270000E+03 0.  1.
    8880022    1    1    2    0    0  0.39809850345E+03 -0.51672924236E+03 -0.47697857398E+02  0.67168315966E+03  0.15294330000E+03 0.  0.
<mgrwt>
<rscale>  0 0.85471495E+03</rscale>
<asrwt>0</asrwt>
<pdfrwt beam="1">  1        2 0.31536225E+00 0.92698529E+03</pdfrwt>
<pdfrwt beam="2">  1       -2 0.74354660E-01 0.92698529E+03</pdfrwt>
<totfact> 0.10322808E+01</totfact>
</mgrwt>
</event>
<event>
 4    1  0.2878104E-007  0.1598581E+04  0.7818608E-02  0.8842989E-01
          2   -1    0    0  501    0  0.00000000000E+00  0.00000000000E+00  0.21842426743E+04  0.21842426743E+04  0.25500000000E-02 0. -1.
         -2   -1    0    0    0  501 -0.00000000000E+00 -0.00000000000E+00 -0.17221400642E+04  0.17221400642E+04  0.25500000000E-02 0.  1.
    8880023    1    1    2    0    0 -0.14565878713E+04 -0.14600668301E+01 -0.96022244773E+03  0.18648023257E+04  0.65864270000E+03 0.  0.
    8880022    1    1    2    0    0  0.14565878713E+04  0.14600668301E+01  0.14223250579E+04  0.20415804128E+04  0.15294330000E+03 0.  0.
<mgrwt>
<rscale>  0 0.15639772E+04</rscale>
<asrwt>0</asrwt>
<pdfrwt beam="1">  1        2 0.33603733E+00 0.15985808E+04</pdfrwt>
<pdfrwt beam="2">  1       -2 0.26494463E+00 0.15985808E+04</pdfrwt>
<totfact> 0.25421001E-01</totfact>
</mgrwt>
</event>
<event>
 4    1  0.2878104E-007  0.9507280E+03  0.7818608E-02  0.9449067E-01
          2   -1    0    0  501    0  0.00000000000E+00  0.00000000000E+00  0.28640760755E+04  0.28640760755E+04  0.25500000000E-02 0. -1.
         -2   -1    0    0    0  501 -0.00000000000E+00 -0.00000000000E+00 -0.28798468937E+03  0.28798468938E+03  0.25500000000E-02 0.  1.
    8880023    1    1    2    0    0  0.68225681271E+03 -0.67817714745E+02  0.80152401110E+03  0.12435129865E+04  0.65864270000E+03 0.  1.
    8880022    1    1    2    0    0 -0.68225681271E+03  0.67817714745E+02  0.17745673750E+04  0.19085477784E+04  0.15294330000E+03 0.  0.
<mgrwt>
<rscale>  0 0.88145328E+03</rscale>
<asrwt>0</asrwt>
<pdfrwt beam="1">  1        2 0.44062708E+00 0.95072804E+03</pdfrwt>
<pdfrwt beam="2">  1       -2 0.44305337E-01 0.95072804E+03</pdfrwt>
<totfact> 0.10483474E+01</totfact>
</mgrwt>
</event>
<event>
 4    1  0.2878104E-007  0.7358967E+03  0.7818608E-02  0.9872065E-01
          2   -1    0    0  501    0  0.00000000000E+00  0.00000000000E+00  0.10956556546E+04  0.10956556547E+04  0.25500000000E-02 0. -1.
         -2   -1    0    0    0  501 -0.00000000000E+00 -0.00000000000E+00 -0.72662283333E+03  0.72662283334E+03  0.25500000000E-02 0.  1.
    8880023    1    1    2    0    0 -0.24899999637E+03  0.21385207368E+03 -0.49401789894E+03  0.88633943743E+03  0.65864270000E+03 0.  1.
    8880022    1    1    2    0    0  0.24899999637E+03 -0.21385207368E+03  0.86305072026E+03  0.93593905056E+03  0.15294330000E+03 0.  0.
<mgrwt>
<rscale>  0 0.61634442E+03</rscale>
<asrwt>0</asrwt>
<pdfrwt beam="1">  1        2 0.16856241E+00 0.73589667E+03</pdfrwt>
<pdfrwt beam="2">  1       -2 0.11178813E+00 0.73589667E+03</pdfrwt>
<totfact> 0.14122779E+01</totfact>
</mgrwt>
</event>
<event>
 4    1  0.2878104E-007  0.1474251E+04  0.7818608E-02  0.8928036E-01
         -2   -1    0    0    0  501 -0.00000000000E+00  0.00000000000E+00  0.10869252313E+04  0.10869252313E+04  0.25500000000E-02 0.  1.
          2   -1    0    0  501    0  0.00000000000E+00 -0.00000000000E+00 -0.19496682496E+04  0.19496682496E+04  0.25500000000E-02 0. -1.
    8880023    1    1    2    0    0  0.13086741864E+04  0.16424445328E+03 -0.40436923010E+02  0.14748049761E+04  0.65864270000E+03 0.  0.
    8880022    1    1    2    0    0 -0.13086741864E+04 -0.16424445328E+03 -0.82230609522E+03  0.15617885048E+04  0.15294330000E+03 0.  0.
<mgrwt>
<rscale>  0 0.14361833E+04</rscale>
<asrwt>0</asrwt>
<pdfrwt beam="1">  1        2 0.29994896E+00 0.14742505E+04</pdfrwt>
<pdfrwt beam="2">  1       -2 0.16721927E+00 0.14742505E+04</pdfrwt>
<totfact> 0.15022430E+00</totfact>
</mgrwt>
</event>
<event>
 4    1  0.2878104E-007  0.7046154E+03  0.7818608E-02  0.9978568E-01
          2   -1    0    0  501    0  0.00000000000E+00  0.00000000000E+00  0.21262679524E+04  0.21262679524E+04  0.25500000000E-02 0. -1.
         -2   -1    0    0    0  501 -0.00000000000E+00 -0.00000000000E+00 -0.36810001234E+03  0.36810001235E+03  0.25500000000E-02 0.  1.
    8880023    1    1    2    0    0  0.14775750949E+03 -0.20209004396E+03 -0.73385329101E+01  0.70465362257E+03  0.65864270000E+03 0.  1.
    8880022    1    1    2    0    0 -0.14775750949E+03  0.20209004396E+03  0.17655064730E+04  0.17897143422E+04  0.15294330000E+03 0.  0.
<mgrwt>
<rscale>  0 0.56600073E+03</rscale>
<asrwt>0</asrwt>
<pdfrwt beam="1">  1        2 0.32711814E+00 0.70461541E+03</pdfrwt>
<pdfrwt beam="2">  1       -2 0.56630772E-01 0.70461541E+03</pdfrwt>
<totfact> 0.17352321E+01</totfact>
</mgrwt>
</event>
<event>
 4    1  0.2878104E-007  0.1065627E+04  0.7818608E-02  0.9300327E-01
         -2   -1    0    0    0  501 -0.00000000000E+00  0.00000000000E+00  0.44349494220E+03  0.44349494220E+03  0.25500000000E-02 0.  1.
          2   -1    0    0  501    0  0.00000000000E+00 -0.00000000000E+00 -0.22187384564E+04  0.22187384564E+04  0.25500000000E-02 0. -1.
    8880023    1    1    2    0    0 -0.60902564016E+03  0.57518603253E+03 -0.63978453660E+03  0.12429342951E+04  0.65864270000E+03 0.  0.
    8880022    1    1    2    0    0  0.60902564016E+03 -0.57518603253E+03 -0.11354589776E+04  0.14192991035E+04  0.15294330000E+03 0.  0.
<mgrwt>
<rscale>  0 0.10075276E+04</rscale>
<asrwt>0</asrwt>
<pdfrwt beam="1">  1        2 0.34134437E+00 0.10656272E+04</pdfrwt>
<pdfrwt beam="2">  1       -2 0.68229992E-01 0.10656272E+04</pdfrwt>
<totfact> 0.98951502E+00</totfact>
</mgrwt>
</event>
<event>
 4    1  0.3104630E-007  0.9639926E+03  0.7818608E-02  0.9430261E-01
         -2   -1    0    0    0  501 -0.00000000000E+00  0.00000000000E+00  0.13407149210E+04  0.13407149210E+04  0.25500000000E-02 0.  1.
          2   -1    0    0  501    0  0.00000000000E+00 -0.00000000000E+00 -0.29219601747E+04  0.29219601747E+04  0.25500000000E-02 0. -1.
    8880023    1    1    2    0    0 -0.55994593340E+03  0.42653487666E+03  0.11137958237E+04  0.14730318369E+04  0.65864270000E+03 0.  0.
    8880022    1    1    2    0    0  0.55994593340E+03 -0.42653487666E+03 -0.26950410774E+04  0.27896432588E+04  0.15294330000E+03 0.  0.
<mgrwt>
<rscale>  0 0.89626587E+03</rscale>
<asrwt>0</asrwt>
<pdfrwt beam="1">  1        2 0.44953233E+00 0.96399256E+03</pdfrwt>
<pdfrwt beam="2">  1       -2 0.20626383E+00 0.96399256E+03</pdfrwt>
<totfact> 0.24122470E-01</totfact>
</mgrwt>
</event>
<event>
 4    1  0.2878104E-007  0.8015921E+03  0.7818608E-02  0.9707364E-01
          2   -1    0    0  501    0  0.00000000000E+00  0.00000000000E+00  0.21721734298E+04  0.21721734298E+04  0.25500000000E-02 0. -1.
         -2   -1    0    0    0  501 -0.00000000000E+00 -0.00000000000E+00 -0.11312214191E+04  0.11312214191E+04  0.25500000000E-02 0.  1.
    8880023    1    1    2    0    0  0.38886064508E+03 -0.23984788621E+03 -0.95689241124E+03  0.12482759722E+04  0.65864270000E+03 0.  1.
    8880022    1    1    2    0    0 -0.38886064508E+03  0.23984788621E+03  0.19978444220E+04  0.20551188767E+04  0.15294330000E+03 0.  0.
<mgrwt>
<rscale>  0 0.70580017E+03</rscale>
<asrwt>0</asrwt>
<pdfrwt beam="1">  1        2 0.33418053E+00 0.80159205E+03</pdfrwt>
<pdfrwt beam="2">  1       -2 0.17403407E+00 0.80159205E+03</pdfrwt>
<totfact> 0.11050389E+00</totfact>
</mgrwt>
</event>
<event>
 4    1  0.2878104E-007  0.1036428E+04  0.7818608E-02  0.9335377E-01
          2   -1    0    0  501    0  0.00000000000E+00  0.00000000000E+00  0.14809654786E+04  0.14809654786E+04  0.25500000000E-02 0. -1.
         -2   -1    0    0    0  501 -0.00000000000E+00 -0.00000000000E+00 -0.98109759838E+03  0.98109759838E+03  0.25500000000E-02 0.  1.
    8880023    1    1    2    0    0  0.49357000044E+02 -0.79870946844E+03 -0.51769508236E+03  0.11585298153E+04  0.65864270000E+03 0.  1.
    8880022    1    1    2    0    0 -0.49357000044E+02  0.79870946844E+03  0.10175629626E+04  0.13035332617E+04  0.15294330000E+03 0.  0.
<mgrwt>
<rscale>  0 0.97590183E+03</rscale>
<asrwt>0</asrwt>
<pdfrwt beam="1">  1        2 0.22784084E+00 0.10364281E+04</pdfrwt>
<pdfrwt beam="2">  1       -2 0.15093809E+00 0.10364281E+04</pdfrwt>
<totfact> 0.37904950E+00</totfact>
</mgrwt>
</event>
<event>
 4    1  0.2878104E-007  0.6801870E+03  0.7818608E-02  0.1009218E+00
          2   -1    0    0  501    0  0.00000000000E+00  0.00000000000E+00  0.57740810429E+03  0.57740810429E+03  0.25500000000E-02 0. -1.
         -2   -1    0    0    0  501 -0.00000000000E+00 -0.00000000000E+00 -0.11293706785E+04  0.11293706785E+04  0.25500000000E-02 0.  1.
    8880023    1    1    2    0    0 -0.24386534630E+02  0.16807557069E+03 -0.99674452899E+03  0.12067120464E+04  0.65864270000E+03 0.  1.
    8880022    1    1    2    0    0  0.24386534630E+02 -0.16807557069E+03  0.44478195479E+03  0.50006673641E+03  0.15294330000E+03 0.  0.
<mgrwt>
<rscale>  0 0.51786578E+03</rscale>
<asrwt>0</asrwt>
<pdfrwt beam="1">  1        2 0.88832016E-01 0.68018696E+03</pdfrwt>
<pdfrwt beam="2">  1       -2 0.17374933E+00 0.68018696E+03</pdfrwt>
<totfact> 0.10668725E+01</totfact>
</mgrwt>
</event>
<event>
 4    1  0.2878104E-007  0.7946246E+03  0.7818608E-02  0.9722542E-01
         -2   -1    0    0    0  501 -0.00000000000E+00  0.00000000000E+00  0.61355567119E+03  0.61355567119E+03  0.25500000000E-02 0.  1.
          2   -1    0    0  501    0  0.00000000000E+00 -0.00000000000E+00 -0.22849524078E+04  0.22849524078E+04  0.25500000000E-02 0. -1.
    8880023    1    1    2    0    0 -0.29528512265E+03 -0.33230209786E+03  0.31682925546E+03  0.85545833989E+03  0.65864270000E+03 0.  0.
    8880022    1    1    2    0    0  0.29528512265E+03  0.33230209786E+03 -0.19882259920E+04  0.20430497391E+04  0.15294330000E+03 0.  0.
<mgrwt>
<rscale>  0 0.69690389E+03</rscale>
<asrwt>0</asrwt>
<pdfrwt beam="1">  1        2 0.35153114E+00 0.79462456E+03</pdfrwt>
<pdfrwt beam="2">  1       -2 0.94393181E-01 0.79462456E+03</pdfrwt>
<totfact> 0.45308458E+00</totfact>
</mgrwt>
</event>
<event>
 4    1  0.2878104E-007  0.9113236E+03  0.7818608E-02  0.9508093E-01
          2   -1    0    0  501    0  0.00000000000E+00  0.00000000000E+00  0.13708941462E+04  0.13708941462E+04  0.25500000000E-02 0. -1.
         -2   -1    0    0    0  501 -0.00000000000E+00 -0.00000000000E+00 -0.80925517175E+03  0.80925517175E+03  0.25500000000E-02 0.  1.
    8880023    1    1    2    0    0  0.34223573791E+03 -0.52874872481E+03 -0.42031043389E+03  0.10035793847E+04  0.65864270000E+03 0.  1.
    8880022    1    1    2    0    0 -0.34223573791E+03  0.52874872481E+03  0.98194940833E+03  0.11765699332E+04  0.15294330000E+03 0.  0.
<mgrwt>
<rscale>  0 0.83689802E+03</rscale>
<asrwt>0</asrwt>
<pdfrwt beam="1">  1        2 0.21090679E+00 0.91132361E+03</pdfrwt>
<pdfrwt beam="2">  1       -2 0.12450080E+00 0.91132361E+03</pdfrwt>
<totfact> 0.73017728E+00</totfact>
</mgrwt>
</event>
<event>
 4    1  0.2878104E-007  0.9398469E+03  0.7818608E-02  0.9464875E-01
         -2   -1    0    0    0  501 -0.00000000000E+00  0.00000000000E+00  0.19981332787E+04  0.19981332787E+04  0.25500000000E-02 0.  1.
          2   -1    0    0  501    0  0.00000000000E+00 -0.00000000000E+00 -0.11806147840E+04  0.11806147840E+04  0.25500000000E-02 0. -1.
    8880023    1    1    2    0    0  0.61066695609E+03 -0.27674496519E+03  0.17699506213E+04  0.20040053182E+04  0.65864270000E+03 0.  1.
    8880022    1    1    2    0    0 -0.61066695609E+03  0.27674496519E+03 -0.95243212663E+03  0.11747427446E+04  0.15294330000E+03 0.  0.
<mgrwt>
<rscale>  0 0.86923708E+03</rscale>
<asrwt>0</asrwt>
<pdfrwt beam="1">  1        2 0.18163304E+00 0.93984686E+03</pdfrwt>
<pdfrwt beam="2">  1       -2 0.30740512E+00 0.93984686E+03</pdfrwt>
<totfact> 0.56516049E-01</totfact>
</mgrwt>
</event>
<event>
 4    1  0.2995509E-007  0.1077349E+04  0.7818608E-02  0.9286704E-01
          2   -1    0    0  501    0  0.00000000000E+00  0.00000000000E+00  0.37180086710E+04  0.37180086710E+04  0.25500000000E-02 0. -1.
         -2   -1    0    0    0  501 -0.00000000000E+00 -0.00000000000E+00 -0.97628402982E+03  0.97628402982E+03  0.25500000000E-02 0.  1.
    8880023    1    1    2    0    0  0.38436472621E+03 -0.76100908278E+03 -0.60616321706E+03  0.12361695348E+04  0.65864270000E+03 0.  1.
    8880022    1    1    2    0    0 -0.38436472621E+03  0.76100908278E+03  0.33478878582E+04  0.34581231660E+04  0.15294330000E+03 0.  0.
<mgrwt>
<rscale>  0 0.10201618E+04</rscale>
<asrwt>0</asrwt>
<pdfrwt beam="1">  1        2 0.57200133E+00 0.10773492E+04</pdfrwt>
<pdfrwt beam="2">  1       -2 0.15019754E+00 0.10773492E+04</pdfrwt>
<totfact> 0.17273504E-01</totfact>
</mgrwt>
</event>
<event>
 4    1  0.2878104E-007  0.1966267E+04  0.7818608E-02  0.8635743E-01
         -2   -1    0    0    0  501 -0.00000000000E+00  0.00000000000E+00  0.21708547425E+04  0.21708547425E+04  0.25500000000E-02 0.  1.
          2   -1    0    0  501    0  0.00000000000E+00 -0.00000000000E+00 -0.23106273706E+04  0.23106273706E+04  0.25500000000E-02 0. -1.
    8880023    1    1    2    0    0 -0.18357614974E+03 -0.18435551839E+04 -0.12368456930E+04  0.23229277633E+04  0.65864270000E+03 0.  0.
    8880022    1    1    2    0    0  0.18357614974E+03  0.18435551839E+04  0.10970730648E+04  0.21585543499E+04  0.15294330000E+03 0.  0.
<mgrwt>
<rscale>  0 0.19388770E+04</rscale>
<asrwt>0</asrwt>
<pdfrwt beam="1">  1        2 0.35548113E+00 0.19662671E+04</pdfrwt>
<pdfrwt beam="2">  1       -2 0.33397765E+00 0.19662671E+04</pdfrwt>
<totfact> 0.77957252E-02</totfact>
</mgrwt>
</event>
<event>
 4    1  0.2878104E-007  0.8116835E+03  0.7818608E-02  0.9686081E-01
         -2   -1    0    0    0  501 -0.00000000000E+00  0.00000000000E+00  0.28365024494E+03  0.28365024495E+03  0.25500000000E-02 0.  1.
          2   -1    0    0  501    0  0.00000000000E+00 -0.00000000000E+00 -0.29732346617E+04  0.29732346617E+04  0.25500000000E-02 0. -1.
    8880023    1    1    2    0    0  0.43223023707E+03 -0.19544012897E+03 -0.26330036718E+04  0.27552746440E+04  0.65864270000E+03 0. -1.
    8880022    1    1    2    0    0 -0.43223023707E+03  0.19544012897E+03 -0.56580744919E+02  0.50161026262E+03  0.15294330000E+03 0.  0.
<mgrwt>
<rscale>  0 0.71851605E+03</rscale>
<asrwt>0</asrwt>
<pdfrwt beam="1">  1        2 0.45742069E+00 0.81168345E+03</pdfrwt>
<pdfrwt beam="2">  1       -2 0.43638501E-01 0.81168345E+03</pdfrwt>
<totfact> 0.94741569E+00</totfact>
</mgrwt>
</event>
<event>
 4    1  0.2878104E-007  0.1168504E+04  0.7818608E-02  0.9188363E-01
         -2   -1    0    0    0  501 -0.00000000000E+00  0.00000000000E+00  0.66054507728E+03  0.66054507728E+03  0.25500000000E-02 0.  1.
          2   -1    0    0  501    0  0.00000000000E+00 -0.00000000000E+00 -0.34132315998E+04  0.34132315999E+04  0.25500000000E-02 0. -1.
    8880023    1    1    2    0    0  0.77414925005E+03  0.57644137137E+03 -0.16828135554E+02  0.11686253071E+04  0.65864270000E+03 0.  1.
    8880022    1    1    2    0    0 -0.77414925005E+03 -0.57644137137E+03 -0.27358583870E+04  0.29051513700E+04  0.15294330000E+03 0.  0.
<mgrwt>
<rscale>  0 0.11174347E+04</rscale>
<asrwt>0</asrwt>
<pdfrwt beam="1">  1        2 0.52511254E+00 0.11685041E+04</pdfrwt>
<pdfrwt beam="2">  1       -2 0.10162232E+00 0.11685041E+04</pdfrwt>
<totfact> 0.74448542E-01</totfact>
</mgrwt>
</event>
<event>
 4    1  0.2878104E-007  0.8842702E+03  0.7818608E-02  0.9551770E-01
          2   -1    0    0  501    0  0.00000000000E+00  0.00000000000E+00  0.10706383030E+04  0.10706383030E+04  0.25500000000E-02 0. -1.
         -2   -1    0    0    0  501 -0.00000000000E+00 -0.00000000000E+00 -0.20994000111E+04  0.20994000111E+04  0.25500000000E-02 0.  1.
    8880023    1    1    2    0    0  0.50239325570E+03 -0.30939392910E+03 -0.19064037167E+04  0.21015015880E+04  0.65864270000E+03 0.  1.
    8880022    1    1    2    0    0 -0.50239325570E+03  0.30939392910E+03  0.87764200870E+03  0.10685367262E+04  0.15294330000E+03 0.  0.
<mgrwt>
<rscale>  0 0.80572311E+03</rscale>
<asrwt>0</asrwt>
<pdfrwt beam="1">  1        2 0.16471359E+00 0.88427020E+03</pdfrwt>
<pdfrwt beam="2">  1       -2 0.32298461E+00 0.88427020E+03</pdfrwt>
<totfact> 0.53525661E-01</totfact>
</mgrwt>
</event>
<event>
 4    1  0.2878104E-007  0.9021472E+03  0.7818608E-02  0.9522593E-01
          2   -1    0    0  501    0  0.00000000000E+00  0.00000000000E+00  0.62744655344E+03  0.62744655345E+03  0.25500000000E-02 0. -1.
         -2   -1    0    0    0  501 -0.00000000000E+00 -0.00000000000E+00 -0.22985357258E+04  0.22985357258E+04  0.25500000000E-02 0.  1.
    8880023    1    1    2    0    0  0.51640427150E+03 -0.33672839827E+03 -0.20120740620E+04  0.22050649929E+04  0.65864270000E+03 0.  1.
    8880022    1    1    2    0    0 -0.51640427150E+03  0.33672839827E+03  0.34098488960E+03  0.72091728636E+03  0.15294330000E+03 0.  0.
<mgrwt>
<rscale>  0 0.82638403E+03</rscale>
<asrwt>0</asrwt>
<pdfrwt beam="1">  1        2 0.96530240E-01 0.90214721E+03</pdfrwt>
<pdfrwt beam="2">  1       -2 0.35362088E+00 0.90214721E+03</pdfrwt>
<totfact> 0.71301437E-01</totfact>
</mgrwt>
</event>
<event>
 4    1  0.2878104E-007  0.1019520E+04  0.7818608E-02  0.9356453E-01
          2   -1    0    0  501    0  0.00000000000E+00  0.00000000000E+00  0.11214387103E+04  0.11214387103E+04  0.25500000000E-02 0. -1.
         -2   -1    0    0    0  501 -0.00000000000E+00 -0.00000000000E+00 -0.18112508191E+04  0.18112508191E+04  0.25500000000E-02 0.  1.
    8880023    1    1    2    0    0 -0.73206053591E+03 -0.26400534158E+03 -0.14904175191E+04  0.18057591302E+04  0.65864270000E+03 0.  1.
    8880022    1    1    2    0    0  0.73206053591E+03  0.26400534158E+03  0.80060541029E+03  0.11269303992E+04  0.15294330000E+03 0.  0.
<mgrwt>
<rscale>  0 0.95747735E+03</rscale>
<asrwt>0</asrwt>
<pdfrwt beam="1">  1        2 0.17252903E+00 0.10195203E+04</pdfrwt>
<pdfrwt beam="2">  1       -2 0.27865397E+00 0.10195203E+04</pdfrwt>
<totfact> 0.90509162E-01</totfact>
</mgrwt>
</event>
<event>
 4    1  0.2878104E-007  0.7305771E+03  0.7818608E-02  0.9888298E-01
         -2   -1    0    0    0  501 -0.00000000000E+00  0.00000000000E+00  0.50022497608E+03  0.50022497609E+03  0.25500000000E-02 0.  1.
          2   -1    0    0  501    0  0.00000000000E+00 -0.00000000000E+00 -0.18543287002E+04  0.18543287002E+04  0.25500000000E-02 0. -1.
    8880023    1    1    2    0    0 -0.31612035674E+03  0.80405985785E+00  0.20306811726E+03  0.75827408829E+03  0.65864270000E+03 0.  1.
    8880022    1    1    2    0    0  0.31612035674E+03 -0.80405985785E+00 -0.15571718414E+04  0.15962795880E+04  0.15294330000E+03 0.  0.
<mgrwt>
<rscale>  0 0.60831800E+03</rscale>
<asrwt>0</asrwt>
<pdfrwt beam="1">  1        2 0.28528134E+00 0.73057712E+03</pdfrwt>
<pdfrwt beam="2">  1       -2 0.76957689E-01 0.73057712E+03</pdfrwt>
<totfact> 0.12557764E+01</totfact>
</mgrwt>
</event>
<event>
 4    1  0.2878104E-007  0.7372065E+03  0.7818608E-02  0.9868160E-01
          2   -1    0    0  501    0  0.00000000000E+00  0.00000000000E+00  0.11014014865E+04  0.11014014865E+04  0.25500000000E-02 0. -1.
         -2   -1    0    0    0  501 -0.00000000000E+00 -0.00000000000E+00 -0.14443709194E+04  0.14443709194E+04  0.25500000000E-02 0.  1.
    8880023    1    1    2    0    0  0.30681434885E+03  0.12461183449E+03 -0.13150035910E+04  0.15075502660E+04  0.65864270000E+03 0.  1.
    8880022    1    1    2    0    0 -0.30681434885E+03 -0.12461183449E+03  0.97203415821E+03  0.10382221399E+04  0.15294330000E+03 0.  0.
<mgrwt>
<rscale>  0 0.61829491E+03</rscale>
<asrwt>0</asrwt>
<pdfrwt beam="1">  1        2 0.16944638E+00 0.73720646E+03</pdfrwt>
<pdfrwt beam="2">  1       -2 0.22221091E+00 0.73720646E+03</pdfrwt>
<totfact> 0.21467456E+00</totfact>
</mgrwt>
</event>
<event>
 4    1  0.2878104E-007  0.8380727E+03  0.7818608E-02  0.9633825E-01
         -2   -1    0    0    0  501 -0.00000000000E+00  0.00000000000E+00  0.36265861019E+03  0.36265861020E+03  0.25500000000E-02 0.  1.
          2   -1    0    0  501    0  0.00000000000E+00 -0.00000000000E+00 -0.21381417295E+04  0.21381417295E+04  0.25500000000E-02 0. -1.
    8880023    1    1    2    0    0 -0.49106765162E+03  0.16555442946E+03 -0.23811112474E+03  0.87124211421E+03  0.65864270000E+03 0.  0.
    8880022    1    1    2    0    0  0.49106765162E+03 -0.16555442946E+03 -0.15373719945E+04  0.16295582254E+04  0.15294330000E+03 0.  0.
<mgrwt>
<rscale>  0 0.75097305E+03</rscale>
<asrwt>0</asrwt>
<pdfrwt beam="1">  1        2 0.32894487E+00 0.83807274E+03</pdfrwt>
<pdfrwt beam="2">  1       -2 0.55793634E-01 0.83807274E+03</pdfrwt>
<totfact> 0.17303825E+01</totfact>
</mgrwt>
</event>
<event>
 4    1  0.2878104E-007  0.1480101E+04  0.7818608E-02  0.8923816E-01
          2   -1    0    0  501    0  0.00000000000E+00  0.00000000000E+00  0.21750027722E+04  0.21750027722E+04  0.25500000000E-02 0. -1.
         -2   -1    0    0    0  501 -0.00000000000E+00 -0.00000000000E+00 -0.20591289742E+04  0.20591289742E+04  0.25500000000E-02 0.  1.
    8880023    1    1    2    0    0  0.75726546779E+03  0.10878596927E+04 -0.15210337173E+04  0.21223203045E+04  0.65864270000E+03 0.  0.
    8880022    1    1    2    0    0 -0.75726546779E+03 -0.10878596927E+04  0.16369075153E+04  0.21118114419E+04  0.15294330000E+03 0.  0.
<mgrwt>
<rscale>  0 0.14422139E+04</rscale>
<asrwt>0</asrwt>
<pdfrwt beam="1">  1        2 0.33461581E+00 0.14801013E+04</pdfrwt>
<pdfrwt beam="2">  1       -2 0.31678908E+00 0.14801013E+04</pdfrwt>
<totfact> 0.12573666E-01</totfact>
</mgrwt>
</event>
<event>
 4    1  0.2878104E-007  0.1147185E+04  0.7818608E-02  0.9210254E-01
          2   -1    0    0  501    0  0.00000000000E+00  0.00000000000E+00  0.19810957567E+04  0.19810957567E+04  0.25500000000E-02 0. -1.
         -2   -1    0    0    0  501 -0.00000000000E+00 -0.00000000000E+00 -0.10735394715E+04  0.10735394715E+04  0.25500000000E-02 0.  1.
    8880023    1    1    2    0    0 -0.70973362286E+03 -0.61522500544E+03 -0.58251415528E+03  0.12866066105E+04  0.65864270000E+03 0.  1.
    8880022    1    1    2    0    0  0.70973362286E+03  0.61522500544E+03  0.14900704404E+04  0.17680286178E+04  0.15294330000E+03 0.  0.
<mgrwt>
<rscale>  0 0.10948210E+04</rscale>
<asrwt>0</asrwt>
<pdfrwt beam="1">  1        2 0.30478396E+00 0.11471852E+04</pdfrwt>
<pdfrwt beam="2">  1       -2 0.16515992E+00 0.11471852E+04</pdfrwt>
<totfact> 0.15463301E+00</totfact>
</mgrwt>
</event>
<event>
 4    1  0.2878104E-007  0.7651760E+03  0.7818608E-02  0.9791887E-01
          2   -1    0    0  501    0  0.00000000000E+00  0.00000000000E+00  0.56713403603E+03  0.56713403604E+03  0.25500000000E-02 0. -1.
         -2   -1    0    0    0  501 -0.00000000000E+00 -0.00000000000E+00 -0.14268272628E+04  0.14268272628E+04  0.25500000000E-02 0.  1.
    8880023    1    1    2    0    0 -0.30388421069E+03 -0.24359484703E+03 -0.12211227953E+04  0.14410534864E+04  0.65864270000E+03 0.  1.
    8880022    1    1    2    0    0  0.30388421069E+03  0.24359484703E+03  0.36142956859E+03  0.55290781245E+03  0.15294330000E+03 0.  0.
<mgrwt>
<rscale>  0 0.65799748E+03</rscale>
<asrwt>0</asrwt>
<pdfrwt beam="1">  1        2 0.87251390E-01 0.76517597E+03</pdfrwt>
<pdfrwt beam="2">  1       -2 0.21951189E+00 0.76517597E+03</pdfrwt>
<totfact> 0.53961821E+00</totfact>
</mgrwt>
</event>
<event>
 4    1  0.2878104E-007  0.7471228E+03  0.7818608E-02  0.9839664E-01
          2   -1    0    0  501    0  0.00000000000E+00  0.00000000000E+00  0.46826818930E+03  0.46826818930E+03  0.25500000000E-02 0. -1.
         -2   -1    0    0    0  501 -0.00000000000E+00 -0.00000000000E+00 -0.91042352986E+03  0.91042352986E+03  0.25500000000E-02 0.  1.
    8880023    1    1    2    0    0 -0.56007026393E+02  0.34820332095E+03 -0.60484889444E+03  0.96126725269E+03  0.65864270000E+03 0.  0.
    8880022    1    1    2    0    0  0.56007026393E+02 -0.34820332095E+03  0.16269355387E+03  0.41742446648E+03  0.15294330000E+03 0.  0.
<mgrwt>
<rscale>  0 0.63276691E+03</rscale>
<asrwt>0</asrwt>
<pdfrwt beam="1">  1        2 0.72041260E-01 0.74712285E+03</pdfrwt>
<pdfrwt beam="2">  1       -2 0.14006516E+00 0.74712285E+03</pdfrwt>
<totfact> 0.24144102E+01</totfact>
</mgrwt>
</event>
<event>
 4    1  0.2878104E-007  0.7333428E+03  0.7818608E-02  0.9879781E-01
         -2   -1    0    0    0  501 -0.00000000000E+00  0.00000000000E+00  0.11989286179E+04  0.11989286179E+04  0.25500000000E-02 0.  1.
          2   -1    0    0  501    0  0.00000000000E+00 -0.00000000000E+00 -0.53577113245E+03  0.53577113245E+03  0.25500000000E-02 0. -1.
    8880023    1    1    2    0    0 -0.24762977939E+03  0.20654544502E+03  0.10025907195E+04  0.12421674144E+04  0.65864270000E+03 0.  0.
    8880022    1    1    2    0    0  0.24762977939E+03 -0.20654544502E+03 -0.33943323404E+03  0.49253233588E+03  0.15294330000E+03 0.  0.
<mgrwt>
<rscale>  0 0.61251263E+03</rscale>
<asrwt>0</asrwt>
<pdfrwt beam="1">  1        2 0.82426329E-01 0.73334285E+03</pdfrwt>
<pdfrwt beam="2">  1       -2 0.18445056E+00 0.73334285E+03</pdfrwt>
<totfact> 0.97817106E+00</totfact>
</mgrwt>
</event>
<event>
 4    1  0.2878104E-007  0.7256512E+03  0.7818608E-02  0.9903908E-01
          2   -1    0    0  501    0  0.00000000000E+00  0.00000000000E+00  0.10786530819E+04  0.10786530819E+04  0.25500000000E-02 0. -1.
         -2   -1    0    0    0  501 -0.00000000000E+00 -0.00000000000E+00 -0.88653518605E+03  0.88653518606E+03  0.25500000000E-02 0.  1.
    8880023    1    1    2    0    0  0.15394750136E+03  0.26279209435E+03 -0.70118931942E+03  0.10090768979E+04  0.65864270000E+03 0.  1.
    8880022    1    1    2    0    0 -0.15394750136E+03 -0.26279209435E+03  0.89330721521E+03  0.95611136997E+03  0.15294330000E+03 0.  0.
<mgrwt>
<rscale>  0 0.60072251E+03</rscale>
<asrwt>0</asrwt>
<pdfrwt beam="1">  1        2 0.16594663E+00 0.72565124E+03</pdfrwt>
<pdfrwt beam="2">  1       -2 0.13639003E+00 0.72565124E+03</pdfrwt>
<totfact> 0.88197410E+00</totfact>
</mgrwt>
</event>
<event>
 4    1  0.2878104E-007  0.7811857E+03  0.7818608E-02  0.9753059E-01
          2   -1    0    0  501    0  0.00000000000E+00  0.00000000000E+00  0.23532854161E+04  0.23532854161E+04  0.25500000000E-02 0. -1.
         -2   -1    0    0    0  501 -0.00000000000E+00 -0.00000000000E+00 -0.36267997715E+03  0.36267997716E+03  0.25500000000E-02 0.  1.
    8880023    1    1    2    0    0 -0.28173286922E+03  0.31155646353E+03  0.11715652660E+03  0.78992195663E+03  0.65864270000E+03 0.  1.
    8880022    1    1    2    0    0  0.28173286922E+03 -0.31155646353E+03  0.18734489123E+04  0.19260434366E+04  0.15294330000E+03 0.  0.
<mgrwt>
<rscale>  0 0.67943664E+03</rscale>
<asrwt>0</asrwt>
<pdfrwt beam="1">  1        2 0.36204390E+00 0.78118567E+03</pdfrwt>
<pdfrwt beam="2">  1       -2 0.55796921E-01 0.78118567E+03</pdfrwt>
<totfact> 0.13250352E+01</totfact>
</mgrwt>
</event>
<event>
 4    1  0.2878104E-007  0.8018125E+03  0.7818608E-02  0.9706891E-01
          2   -1    0    0  501    0  0.00000000000E+00  0.00000000000E+00  0.12857641822E+04  0.12857641822E+04  0.25500000000E-02 0. -1.
         -2   -1    0    0    0  501 -0.00000000000E+00 -0.00000000000E+00 -0.40258904836E+03  0.40258904837E+03  0.25500000000E-02 0.  1.
    8880023    1    1    2    0    0  0.87229994911E+02 -0.44886967272E+03  0.15756078592E+03  0.81714665919E+03  0.65864270000E+03 0.  1.
    8880022    1    1    2    0    0 -0.87229994911E+02  0.44886967272E+03  0.72561434793E+03  0.87120657140E+03  0.15294330000E+03 0.  0.
<mgrwt>
<rscale>  0 0.70608000E+03</rscale>
<asrwt>0</asrwt>
<pdfrwt beam="1">  1        2 0.19780987E+00 0.80181249E+03</pdfrwt>
<pdfrwt beam="2">  1       -2 0.61936776E-01 0.80181249E+03</pdfrwt>
<totfact> 0.41372999E+01</totfact>
</mgrwt>
</event>
<event>
 4    1  0.2878104E-007  0.1028774E+04  0.7818608E-02  0.9344844E-01
          2   -1    0    0  501    0  0.00000000000E+00  0.00000000000E+00  0.91043397766E+03  0.91043397766E+03  0.25500000000E-02 0. -1.
         -2   -1    0    0    0  501 -0.00000000000E+00 -0.00000000000E+00 -0.31052023517E+04  0.31052023517E+04  0.25500000000E-02 0.  1.
    8880023    1    1    2    0    0  0.24551057609E+03 -0.75119229112E+03 -0.28165138565E+04  0.29985206038E+04  0.65864270000E+03 0.  0.
    8880022    1    1    2    0    0 -0.24551057609E+03  0.75119229112E+03  0.62174548247E+03  0.10171157256E+04  0.15294330000E+03 0.  0.
<mgrwt>
<rscale>  0 0.96757177E+03</rscale>
<asrwt>0</asrwt>
<pdfrwt beam="1">  1        2 0.14006677E+00 0.10287738E+04</pdfrwt>
<pdfrwt beam="2">  1       -2 0.47772343E+00 0.10287738E+04</pdfrwt>
<totfact> 0.66524029E-02</totfact>
</mgrwt>
</event>
<event>
 4    1  0.2878104E-007  0.9075685E+03  0.7818608E-02  0.9513989E-01
          2   -1    0    0  501    0  0.00000000000E+00  0.00000000000E+00  0.68182007899E+03  0.68182007899E+03  0.25500000000E-02 0. -1.
         -2   -1    0    0    0  501 -0.00000000000E+00 -0.00000000000E+00 -0.12628222120E+04  0.12628222120E+04  0.25500000000E-02 0.  1.
    8880023    1    1    2    0    0 -0.75972029025E+00 -0.62439561244E+03 -0.85402770578E+03  0.12462118546E+04  0.65864270000E+03 0.  1.
    8880022    1    1    2    0    0  0.75972029025E+00  0.62439561244E+03  0.27302557281E+03  0.69843043636E+03  0.15294330000E+03 0.  0.
<mgrwt>
<rscale>  0 0.83260262E+03</rscale>
<asrwt>0</asrwt>
<pdfrwt beam="1">  1        2 0.10489540E+00 0.90756855E+03</pdfrwt>
<pdfrwt beam="2">  1       -2 0.19428034E+00 0.90756855E+03</pdfrwt>
<totfact> 0.61600984E+00</totfact>
</mgrwt>
</event>
<event>
 4    1  0.2878104E-007  0.1464098E+04  0.7818608E-02  0.8935412E-01
         -2   -1    0    0    0  501 -0.00000000000E+00  0.00000000000E+00  0.98885036292E+03  0.98885036292E+03  0.25500000000E-02 0.  1.
          2   -1    0    0  501    0  0.00000000000E+00 -0.00000000000E+00 -0.34082164623E+04  0.34082164623E+04  0.25500000000E-02 0. -1.
    8880023    1    1    2    0    0 -0.19372183868E+03  0.12931535093E+04  0.18806885997E+03  0.14761281285E+04  0.65864270000E+03 0.  0.
    8880022    1    1    2    0    0  0.19372183868E+03 -0.12931535093E+04 -0.26074349594E+04  0.29209386967E+04  0.15294330000E+03 0.  0.
<mgrwt>
<rscale>  0 0.14257150E+04</rscale>
<asrwt>0</asrwt>
<pdfrwt beam="1">  1        2 0.52434099E+00 0.14640985E+04</pdfrwt>
<pdfrwt beam="2">  1       -2 0.15213083E+00 0.14640985E+04</pdfrwt>
<totfact> 0.25965434E-01</totfact>
</mgrwt>
</event>
<event>
 4    1  0.2878104E-007  0.1160258E+04  0.7818608E-02  0.9196757E-01
          2   -1    0    0  501    0  0.00000000000E+00  0.00000000000E+00  0.12223066430E+04  0.12223066431E+04  0.25500000000E-02 0. -1.
         -2   -1    0    0    0  501 -0.00000000000E+00 -0.00000000000E+00 -0.17317568040E+04  0.17317568040E+04  0.25500000000E-02 0.  1.
    8880023    1    1    2    0    0  0.63539778055E+03 -0.71320261670E+03 -0.12724501435E+04  0.17220127427E+04  0.65864270000E+03 0.  0.
    8880022    1    1    2    0    0 -0.63539778055E+03  0.71320261670E+03  0.76299998248E+03  0.12320507044E+04  0.15294330000E+03 0.  0.
<mgrwt>
<rscale>  0 0.11086964E+04</rscale>
<asrwt>0</asrwt>
<pdfrwt beam="1">  1        2 0.18804718E+00 0.11602580E+04</pdfrwt>
<pdfrwt beam="2">  1       -2 0.26642412E+00 0.11602580E+04</pdfrwt>
<totfact> 0.91593663E-01</totfact>
</mgrwt>
</event>
<event>
 4    1  0.2878104E-007  0.7549755E+03  0.7818608E-02  0.9818293E-01
         -2   -1    0    0    0  501 -0.00000000000E+00  0.00000000000E+00  0.20471032301E+04  0.20471032301E+04  0.25500000000E-02 0.  1.
          2   -1    0    0  501    0  0.00000000000E+00 -0.00000000000E+00 -0.85722804593E+03  0.85722804593E+03  0.25500000000E-02 0. -1.
    8880023    1    1    2    0    0  0.32085585075E+03  0.18228905904E+03  0.19249607090E+04  0.20677189644E+04  0.65864270000E+03 0.  1.
    8880022    1    1    2    0    0 -0.32085585075E+03 -0.18228905904E+03 -0.73508552491E+03  0.83661231162E+03  0.15294330000E+03 0.  0.
<mgrwt>
<rscale>  0 0.64389989E+03</rscale>
<asrwt>0</asrwt>
<pdfrwt beam="1">  1        2 0.13188124E+00 0.75497549E+03</pdfrwt>
<pdfrwt beam="2">  1       -2 0.31493895E+00 0.75497549E+03</pdfrwt>
<totfact> 0.84559039E-01</totfact>
</mgrwt>
</event>
<event>
 4    1  0.2878104E-007  0.9373076E+03  0.7818608E-02  0.9468616E-01
          2   -1    0    0  501    0  0.00000000000E+00  0.00000000000E+00  0.27912876896E+04  0.27912876896E+04  0.25500000000E-02 0. -1.
         -2   -1    0    0    0  501 -0.00000000000E+00 -0.00000000000E+00 -0.51760626034E+03  0.51760626034E+03  0.25500000000E-02 0.  1.
    8880023    1    1    2    0    0  0.61048137258E+03 -0.26841730144E+03  0.29386212954E+01  0.93731221892E+03  0.65864270000E+03 0.  0.
    8880022    1    1    2    0    0 -0.61048137258E+03  0.26841730144E+03  0.22707428080E+04  0.23715817310E+04  0.15294330000E+03 0.  0.
<mgrwt>
<rscale>  0 0.86637731E+03</rscale>
<asrwt>0</asrwt>
<pdfrwt beam="1">  1        2 0.42942888E+00 0.93730761E+03</pdfrwt>
<pdfrwt beam="2">  1       -2 0.79631732E-01 0.93730761E+03</pdfrwt>
<totfact> 0.33538518E+00</totfact>
</mgrwt>
</event>
<event>
 4    1  0.2878104E-007  0.9315571E+03  0.7818608E-02  0.9477161E-01
          2   -1    0    0  501    0  0.00000000000E+00  0.00000000000E+00  0.79930404727E+03  0.79930404728E+03  0.25500000000E-02 0. -1.
         -2   -1    0    0    0  501 -0.00000000000E+00 -0.00000000000E+00 -0.82037224350E+03  0.82037224350E+03  0.25500000000E-02 0.  1.
    8880023    1    1    2    0    0  0.58808480191E+03  0.29689171949E+03 -0.10806817938E+03  0.93780454520E+03  0.65864270000E+03 0.  0.
    8880022    1    1    2    0    0 -0.58808480191E+03 -0.29689171949E+03  0.86999983153E+02  0.68187174558E+03  0.15294330000E+03 0.  1.
<mgrwt>
<rscale>  0 0.85988776E+03</rscale>
<asrwt>0</asrwt>
<pdfrwt beam="1">  1        2 0.12296985E+00 0.93155710E+03</pdfrwt>
<pdfrwt beam="2">  1       -2 0.12621111E+00 0.93155710E+03</pdfrwt>
<totfact> 0.16111611E+01</totfact>
</mgrwt>
</event>
<event>
 4    1  0.2878104E-007  0.7934881E+03  0.7818608E-02  0.9725057E-01
          2   -1    0    0  501    0  0.00000000000E+00  0.00000000000E+00  0.24399734830E+04  0.24399734830E+04  0.25500000000E-02 0. -1.
         -2   -1    0    0    0  501 -0.00000000000E+00 -0.00000000000E+00 -0.19682695219E+03  0.19682695221E+03  0.25500000000E-02 0.  1.
    8880023    1    1    2    0    0 -0.31070266698E+03  0.31508264900E+03  0.83068940023E+03  0.11487681702E+04  0.65864270000E+03 0.  1.
    8880022    1    1    2    0    0  0.31070266698E+03 -0.31508264900E+03  0.14124571306E+04  0.14880322650E+04  0.15294330000E+03 0.  0.
<mgrwt>
<rscale>  0 0.69544311E+03</rscale>
<asrwt>0</asrwt>
<pdfrwt beam="1">  1        2 0.37538057E+00 0.79348814E+03</pdfrwt>
<pdfrwt beam="2">  1       -2 0.30281066E-01 0.79348814E+03</pdfrwt>
<totfact> 0.39299043E+01</totfact>
</mgrwt>
</event>
<event>
 4    1  0.2878104E-007  0.6911092E+03  0.7818608E-02  0.1003630E+00
         -2   -1    0    0    0  501 -0.00000000000E+00  0.00000000000E+00  0.18024037254E+03  0.18024037256E+03  0.25500000000E-02 0.  1.
          2   -1    0    0  501    0  0.00000000000E+00 -0.00000000000E+00 -0.24236807228E+04  0.24236807228E+04  0.25500000000E-02 0. -1.
    8880023    1    1    2    0    0  0.19288290494E+03  0.81350529987E+02 -0.52989276386E+03  0.87087213252E+03  0.65864270000E+03 0.  1.
    8880022    1    1    2    0    0 -0.19288290494E+03 -0.81350529987E+02 -0.17135475864E+04  0.17330489629E+04  0.15294330000E+03 0.  0.
<mgrwt>
<rscale>  0 0.54086885E+03</rscale>
<asrwt>0</asrwt>
<pdfrwt beam="1">  1        2 0.37287393E+00 0.69110920E+03</pdfrwt>
<pdfrwt beam="2">  1       -2 0.27729290E-01 0.69110920E+03</pdfrwt>
<totfact> 0.47880130E+01</totfact>
</mgrwt>
</event>
<event>
 4    1  0.2878104E-007  0.8289681E+03  0.7818608E-02  0.9651343E-01
          2   -1    0    0  501    0  0.00000000000E+00  0.00000000000E+00  0.14796987838E+04  0.14796987838E+04  0.25500000000E-02 0. -1.
         -2   -1    0    0    0  501 -0.00000000000E+00 -0.00000000000E+00 -0.13285007175E+04  0.13285007175E+04  0.25500000000E-02 0.  1.
    8880023    1    1    2    0    0  0.43227552060E+03 -0.25790664905E+03 -0.11425381017E+04  0.14115882847E+04  0.65864270000E+03 0.  1.
    8880022    1    1    2    0    0 -0.43227552060E+03  0.25790664905E+03  0.12937361680E+04  0.13966112167E+04  0.15294330000E+03 0.  0.
<mgrwt>
<rscale>  0 0.73989174E+03</rscale>
<asrwt>0</asrwt>
<pdfrwt beam="1">  1        2 0.22764597E+00 0.82896814E+03</pdfrwt>
<pdfrwt beam="2">  1       -2 0.20438473E+00 0.82896814E+03</pdfrwt>
<totfact> 0.16534620E+00</totfact>
</mgrwt>
</event>
<event>
 4    1  0.2878104E-007  0.1368424E+04  0.7818608E-02  0.9008615E-01
         -2   -1    0    0    0  501 -0.00000000000E+00  0.00000000000E+00  0.65549278089E+03  0.65549278090E+03  0.25500000000E-02 0.  1.
          2   -1    0    0  501    0  0.00000000000E+00 -0.00000000000E+00 -0.31957270856E+04  0.31957270856E+04  0.25500000000E-02 0. -1.
    8880023    1    1    2    0    0 -0.48925238029E+03  0.10951741911E+04 -0.45743464392E+03  0.14428551764E+04  0.65864270000E+03 0.  0.
    8880022    1    1    2    0    0  0.48925238029E+03 -0.10951741911E+04 -0.20827996607E+04  0.24083646900E+04  0.15294330000E+03 0.  0.
<mgrwt>
<rscale>  0 0.13267532E+04</rscale>
<asrwt>0</asrwt>
<pdfrwt beam="1">  1        2 0.49165031E+00 0.13684241E+04</pdfrwt>
<pdfrwt beam="2">  1       -2 0.10084504E+00 0.13684241E+04</pdfrwt>
<totfact> 0.10278938E+00</totfact>
</mgrwt>
</event>
<event>
 4    1  0.2878104E-007  0.7100773E+03  0.7818608E-02  0.9957714E-01
         -2   -1    0    0    0  501 -0.00000000000E+00  0.00000000000E+00  0.17175080374E+03  0.17175080376E+03  0.25500000000E-02 0.  1.
          2   -1    0    0  501    0  0.00000000000E+00 -0.00000000000E+00 -0.26770414446E+04  0.26770414446E+04  0.25500000000E-02 0. -1.
    8880023    1    1    2    0    0 -0.24296622453E+03  0.10661581798E+03 -0.63188708829E+03  0.95052144506E+03  0.65864270000E+03 0.  0.
    8880022    1    1    2    0    0  0.24296622453E+03 -0.10661581798E+03 -0.18734035526E+04  0.18982708033E+04  0.15294330000E+03 0.  0.
<mgrwt>
<rscale>  0 0.57543921E+03</rscale>
<asrwt>0</asrwt>
<pdfrwt beam="1">  1        2 0.41185250E+00 0.71007727E+03</pdfrwt>
<pdfrwt beam="2">  1       -2 0.26423203E-01 0.71007727E+03</pdfrwt>
<totfact> 0.37398094E+01</totfact>
</mgrwt>
</event>
<event>
 4    1  0.2878104E-007  0.8226281E+03  0.7818608E-02  0.9663850E-01
          2   -1    0    0  501    0  0.00000000000E+00  0.00000000000E+00  0.23926790794E+04  0.23926790794E+04  0.25500000000E-02 0. -1.
         -2   -1    0    0    0  501 -0.00000000000E+00 -0.00000000000E+00 -0.37035939992E+03  0.37035939993E+03  0.25500000000E-02 0.  1.
    8880023    1    1    2    0    0  0.95490005808E+02 -0.48351679441E+03  0.16977748135E+03  0.83996513685E+03  0.65864270000E+03 0.  0.
    8880022    1    1    2    0    0 -0.95490005808E+02  0.48351679441E+03  0.18525421981E+04  0.19230733424E+04  0.15294330000E+03 0.  0.
<mgrwt>
<rscale>  0 0.73210564E+03</rscale>
<asrwt>0</asrwt>
<pdfrwt beam="1">  1        2 0.36810447E+00 0.82262813E+03</pdfrwt>
<pdfrwt beam="2">  1       -2 0.56978370E-01 0.82262813E+03</pdfrwt>
<totfact> 0.11980969E+01</totfact>
</mgrwt>
</event>
<event>
 4    1  0.2878104E-007  0.8694772E+03  0.7818608E-02  0.9576923E-01
          2   -1    0    0  501    0  0.00000000000E+00  0.00000000000E+00  0.40468611389E+03  0.40468611390E+03  0.25500000000E-02 0. -1.
         -2   -1    0    0    0  501 -0.00000000000E+00 -0.00000000000E+00 -0.30534307672E+04  0.30534307672E+04  0.25500000000E-02 0.  1.
    8880023    1    1    2    0    0  0.27809568829E+03  0.49481622920E+03 -0.27295941912E+04  0.28647294754E+04  0.65864270000E+03 0.  1.
    8880022    1    1    2    0    0 -0.27809568829E+03 -0.49481622920E+03  0.80849537806E+02  0.59338740575E+03  0.15294330000E+03 0.  0.
<mgrwt>
<rscale>  0 0.78842601E+03</rscale>
<asrwt>0</asrwt>
<pdfrwt beam="1">  1        2 0.62259404E-01 0.86947715E+03</pdfrwt>
<pdfrwt beam="2">  1       -2 0.46975857E+00 0.86947715E+03</pdfrwt>
<totfact> 0.21023219E-01</totfact>
</mgrwt>
</event>
<event>
 4    1  0.2878104E-007  0.1018896E+04  0.7818608E-02  0.9357244E-01
         -2   -1    0    0    0  501 -0.00000000000E+00  0.00000000000E+00  0.21935097148E+04  0.21935097148E+04  0.25500000000E-02 0.  1.
          2   -1    0    0  501    0  0.00000000000E+00 -0.00000000000E+00 -0.61556551633E+03  0.61556551634E+03  0.25500000000E-02 0. -1.
    8880023    1    1    2    0    0 -0.31315436413E+03  0.71152808235E+03  0.17248172317E+04  0.20032829448E+04  0.65864270000E+03 0.  1.
    8880022    1    1    2    0    0  0.31315436413E+03 -0.71152808235E+03 -0.14687303331E+03  0.80579228631E+03  0.15294330000E+03 0.  0.
<mgrwt>
<rscale>  0 0.95679480E+03</rscale>
<asrwt>0</asrwt>
<pdfrwt beam="1">  1        2 0.94702387E-01 0.10188955E+04</pdfrwt>
<pdfrwt beam="2">  1       -2 0.33746303E+00 0.10188955E+04</pdfrwt>
<totfact> 0.90472940E-01</totfact>
</mgrwt>
</event>
<event>
 4    1  0.2878104E-007  0.1444498E+04  0.7818608E-02  0.8949856E-01
         -2   -1    0    0    0  501 -0.00000000000E+00  0.00000000000E+00  0.11086804263E+04  0.11086804263E+04  0.25500000000E-02 0.  1.
          2   -1    0    0  501    0  0.00000000000E+00 -0.00000000000E+00 -0.19741532728E+04  0.19741532728E+04  0.25500000000E-02 0. -1.
    8880023    1    1    2    0    0  0.12692669699E+04 -0.20426549815E+03  0.12909246748E+03  0.14502544970E+04  0.65864270000E+03 0.  0.
    8880022    1    1    2    0    0 -0.12692669699E+04  0.20426549815E+03 -0.99456531394E+03  0.16325792022E+04  0.15294330000E+03 0.  0.
<mgrwt>
<rscale>  0 0.14054871E+04</rscale>
<asrwt>0</asrwt>
<pdfrwt beam="1">  1        2 0.30371589E+00 0.14444976E+04</pdfrwt>
<pdfrwt beam="2">  1       -2 0.17056622E+00 0.14444976E+04</pdfrwt>
<totfact> 0.13811574E+00</totfact>
</mgrwt>
</event>
<event>
 4    1  0.2878104E-007  0.1268175E+04  0.7818608E-02  0.9093542E-01
          2   -1    0    0  501    0  0.00000000000E+00  0.00000000000E+00  0.17490678506E+04  0.17490678506E+04  0.25500000000E-02 0. -1.
         -2   -1    0    0    0  501 -0.00000000000E+00 -0.00000000000E+00 -0.12063939405E+04  0.12063939405E+04  0.25500000000E-02 0.  1.
    8880023    1    1    2    0    0 -0.70182250255E+03 -0.82577427840E+03  0.11429237199E+04  0.17072032157E+04  0.65864270000E+03 0.  0.
    8880022    1    1    2    0    0  0.70182250255E+03  0.82577427840E+03 -0.60024980975E+03  0.12482585754E+04  0.15294330000E+03 0.  1.
<mgrwt>
<rscale>  0 0.12223194E+04</rscale>
<asrwt>0</asrwt>
<pdfrwt beam="1">  1        2 0.26908736E+00 0.12681751E+04</pdfrwt>
<pdfrwt beam="2">  1       -2 0.18559907E+00 0.12681751E+04</pdfrwt>
<totfact> 0.14723510E+00</totfact>
</mgrwt>
</event>
<event>
 4    1  0.2878104E-007  0.6808971E+03  0.7818608E-02  0.1008821E+00
         -2   -1    0    0    0  501 -0.00000000000E+00  0.00000000000E+00  0.11715413445E+04  0.11715413445E+04  0.25500000000E-02 0.  1.
          2   -1    0    0  501    0  0.00000000000E+00 -0.00000000000E+00 -0.18454466175E+03  0.18454466177E+03  0.25500000000E-02 0. -1.
    8880023    1    1    2    0    0 -0.12133438118E+03  0.12283563477E+03  0.84512461934E+03  0.10852909535E+04  0.65864270000E+03 0.  1.
    8880022    1    1    2    0    0  0.12133438118E+03 -0.12283563477E+03  0.14187206341E+03  0.27079505279E+03  0.15294330000E+03 0. -1.
<mgrwt>
<rscale>  0 0.51946032E+03</rscale>
<asrwt>0</asrwt>
<pdfrwt beam="1">  1        2 0.28391486E-01 0.68089708E+03</pdfrwt>
<pdfrwt beam="2">  1       -2 0.18023713E+00 0.68089708E+03</pdfrwt>
<totfact> 0.34855431E+01</totfact>
</mgrwt>
</event>
<event>
 4    1  0.2878104E-007  0.1260370E+04  0.7818608E-02  0.9100562E-01
         -2   -1    0    0    0  501 -0.00000000000E+00  0.00000000000E+00  0.61122961599E+03  0.61122961599E+03  0.25500000000E-02 0.  1.
          2   -1    0    0  501    0  0.00000000000E+00 -0.00000000000E+00 -0.24278134483E+04  0.24278134483E+04  0.25500000000E-02 0. -1.
    8880023    1    1    2    0    0  0.26325943362E+03  0.10418331092E+04 -0.56169028719E+03  0.13798651897E+04  0.65864270000E+03 0.  0.
    8880022    1    1    2    0    0 -0.26325943362E+03 -0.10418331092E+04 -0.12548935452E+04  0.16591778746E+04  0.15294330000E+03 0.  0.
<mgrwt>
<rscale>  0 0.12141487E+04</rscale>
<asrwt>0</asrwt>
<pdfrwt beam="1">  1        2 0.37350976E+00 0.12603698E+04</pdfrwt>
<pdfrwt beam="2">  1       -2 0.94035327E-01 0.12603698E+04</pdfrwt>
<totfact> 0.35731750E+00</totfact>
</mgrwt>
</event>
<event>
 4    1  0.2878104E-007  0.6756950E+03  0.7818608E-02  0.1011872E+00
         -2   -1    0    0    0  501 -0.00000000000E+00  0.00000000000E+00  0.22745728715E+03  0.22745728716E+03  0.25500000000E-02 0.  1.
          2   -1    0    0  501    0  0.00000000000E+00 -0.00000000000E+00 -0.39473870318E+04  0.39473870318E+04  0.25500000000E-02 0. -1.
    8880023    1    1    2    0    0 -0.49598942444E+02  0.14245534702E+03 -0.28522447037E+03  0.73342810537E+03  0.65864270000E+03 0.  1.
    8880022    1    1    2    0    0  0.49598942444E+02 -0.14245534702E+03 -0.34347052743E+04  0.34414162136E+04  0.15294330000E+03 0.  0.
<mgrwt>
<rscale>  0 0.50737481E+03</rscale>
<asrwt>0</asrwt>
<pdfrwt beam="1">  1        2 0.60729026E+00 0.67569504E+03</pdfrwt>
<pdfrwt beam="2">  1       -2 0.34993432E-01 0.67569504E+03</pdfrwt>
<totfact> 0.32492861E+00</totfact>
</mgrwt>
</event>
<event>
 4    1  0.2878104E-007  0.1053948E+04  0.7818608E-02  0.9314150E-01
         -2   -1    0    0    0  501 -0.00000000000E+00  0.00000000000E+00  0.10490352576E+04  0.10490352576E+04  0.25500000000E-02 0.  1.
          2   -1    0    0  501    0  0.00000000000E+00 -0.00000000000E+00 -0.85839539331E+03  0.85839539331E+03  0.25500000000E-02 0. -1.
    8880023    1    1    2    0    0 -0.26364558130E+02 -0.82237566716E+03  0.18770894063E+03  0.10705333626E+04  0.65864270000E+03 0. -1.
    8880022    1    1    2    0    0  0.26364558130E+02  0.82237566716E+03  0.29309237089E+01  0.83689728832E+03  0.15294330000E+03 0.  0.
<mgrwt>
<rscale>  0 0.99490556E+03</rscale>
<asrwt>0</asrwt>
<pdfrwt beam="1">  1        2 0.13206083E+00 0.10539483E+04</pdfrwt>
<pdfrwt beam="2">  1       -2 0.16139004E+00 0.10539483E+04</pdfrwt>
<totfact> 0.76022751E+00</totfact>
</mgrwt>
</event>
<event>
 4    1  0.2878104E-007  0.6843278E+03  0.7818608E-02  0.1006974E+00
          2   -1    0    0  501    0  0.00000000000E+00  0.00000000000E+00  0.88825069246E+03  0.88825069246E+03  0.25500000000E-02 0. -1.
         -2   -1    0    0    0  501 -0.00000000000E+00 -0.00000000000E+00 -0.16868681808E+04  0.16868681808E+04  0.25500000000E-02 0.  1.
    8880023    1    1    2    0    0  0.21517446468E+02  0.18447570426E+03 -0.15990393409E+04  0.17393192077E+04  0.65864270000E+03 0.  1.
    8880022    1    1    2    0    0 -0.21517446468E+02 -0.18447570426E+03  0.80042185258E+03  0.83579966563E+03  0.15294330000E+03 0.  0.
<mgrwt>
<rscale>  0 0.52695042E+03</rscale>
<asrwt>0</asrwt>
<pdfrwt beam="1">  1        2 0.13665395E+00 0.68432777E+03</pdfrwt>
<pdfrwt beam="2">  1       -2 0.25951818E+00 0.68432777E+03</pdfrwt>
<totfact> 0.17564273E+00</totfact>
</mgrwt>
</event>
<event>
 4    1  0.2878104E-007  0.7527622E+03  0.7818608E-02  0.9824219E-01
          2   -1    0    0  501    0  0.00000000000E+00  0.00000000000E+00  0.16491045991E+04  0.16491045991E+04  0.25500000000E-02 0. -1.
         -2   -1    0    0    0  501 -0.00000000000E+00 -0.00000000000E+00 -0.42900307758E+03  0.42900307759E+03  0.25500000000E-02 0.  1.
    8880023    1    1    2    0    0  0.25278807380E+03  0.26256213510E+03 -0.43609068509E+02  0.75402429812E+03  0.65864270000E+03 0.  1.
    8880022    1    1    2    0    0 -0.25278807380E+03 -0.26256213510E+03  0.12637105901E+04  0.13240833786E+04  0.15294330000E+03 0.  0.
<mgrwt>
<rscale>  0 0.64078850E+03</rscale>
<asrwt>0</asrwt>
<pdfrwt beam="1">  1        2 0.25370840E+00 0.75276217E+03</pdfrwt>
<pdfrwt beam="2">  1       -2 0.66000474E-01 0.75276217E+03</pdfrwt>
<totfact> 0.22693358E+01</totfact>
</mgrwt>
</event>
<event>
 4    1  0.2878104E-007  0.1281435E+04  0.7818608E-02  0.9081760E-01
          2   -1    0    0  501    0  0.00000000000E+00  0.00000000000E+00  0.26408155566E+04  0.26408155566E+04  0.25500000000E-02 0. -1.
         -2   -1    0    0    0  501 -0.00000000000E+00 -0.00000000000E+00 -0.83390277502E+03  0.83390277503E+03  0.25500000000E-02 0.  1.
    8880023    1    1    2    0    0  0.26998771729E+03 -0.10655385843E+04 -0.81840296923E+02  0.12840459036E+04  0.65864270000E+03 0.  0.
    8880022    1    1    2    0    0 -0.26998771729E+03  0.10655385843E+04  0.18887530785E+04  0.21906724280E+04  0.15294330000E+03 0.  0.
<mgrwt>
<rscale>  0 0.12361857E+04</rscale>
<asrwt>0</asrwt>
<pdfrwt beam="1">  1        2 0.40627931E+00 0.12814352E+04</pdfrwt>
<pdfrwt beam="2">  1       -2 0.12829274E+00 0.12814352E+04</pdfrwt>
<totfact> 0.12564452E+00</totfact>
</mgrwt>
</event>
<event>
 4    1  0.2878104E-007  0.7761121E+03  0.7818608E-02  0.9765050E-01
          2   -1    0    0  501    0  0.00000000000E+00  0.00000000000E+00  0.92870945954E+03  0.92870945955E+03  0.25500000000E-02 0. -1.
         -2   -1    0    0    0  501 -0.00000000000E+00 -0.00000000000E+00 -0.75443280723E+03  0.75443280723E+03  0.25500000000E-02 0.  1.
    8880023    1    1    2    0    0 -0.13389592551E+03  0.38808713161E+03 -0.46753894781E+03  0.90605883615E+03  0.65864270000E+03 0.  0.
    8880022    1    1    2    0    0  0.13389592551E+03 -0.38808713161E+03  0.64181560012E+03  0.77708343063E+03  0.15294330000E+03 0.  0.
<mgrwt>
<rscale>  0 0.67272347E+03</rscale>
<asrwt>0</asrwt>
<pdfrwt beam="1">  1        2 0.14287838E+00 0.77611207E+03</pdfrwt>
<pdfrwt beam="2">  1       -2 0.11606659E+00 0.77611207E+03</pdfrwt>
<totfact> 0.16382073E+01</totfact>
</mgrwt>
</event>
<event>
 4    1  0.2878104E-007  0.7276024E+03  0.7818608E-02  0.9897654E-01
          2   -1    0    0  501    0  0.00000000000E+00  0.00000000000E+00  0.20184063395E+04  0.20184063395E+04  0.25500000000E-02 0. -1.
         -2   -1    0    0    0  501 -0.00000000000E+00 -0.00000000000E+00 -0.28648967386E+03  0.28648967387E+03  0.25500000000E-02 0.  1.
    8880023    1    1    2    0    0  0.30834440148E+03 -0.22776618865E+02  0.22883153343E+03  0.76273791124E+03  0.65864270000E+03 0.  1.
    8880022    1    1    2    0    0 -0.30834440148E+03  0.22776618865E+02  0.15030851322E+04  0.15421581021E+04  0.15294330000E+03 0.  0.
<mgrwt>
<rscale>  0 0.60375104E+03</rscale>
<asrwt>0</asrwt>
<pdfrwt beam="1">  1        2 0.31052406E+00 0.72760240E+03</pdfrwt>
<pdfrwt beam="2">  1       -2 0.44075333E-01 0.72760240E+03</pdfrwt>
<totfact> 0.32985289E+01</totfact>
</mgrwt>
</event>
<event>
 4    1  0.2878104E-007  0.8790238E+03  0.7818608E-02  0.9560581E-01
          2   -1    0    0  501    0  0.00000000000E+00  0.00000000000E+00  0.23142825752E+04  0.23142825752E+04  0.25500000000E-02 0. -1.
         -2   -1    0    0    0  501 -0.00000000000E+00 -0.00000000000E+00 -0.88371075325E+03  0.88371075325E+03  0.25500000000E-02 0.  1.
    8880023    1    1    2    0    0  0.58204610528E+03 -0.97459643938E+01 -0.61036735969E+03  0.10701547423E+04  0.65864270000E+03 0.  0.
    8880022    1    1    2    0    0 -0.58204610528E+03  0.97459643938E+01  0.20409391817E+04  0.21278385862E+04  0.15294330000E+03 0.  0.
<mgrwt>
<rscale>  0 0.79961084E+03</rscale>
<asrwt>0</asrwt>
<pdfrwt beam="1">  1        2 0.35604346E+00 0.87902381E+03</pdfrwt>
<pdfrwt beam="2">  1       -2 0.13595551E+00 0.87902381E+03</pdfrwt>
<totfact> 0.17615897E+00</totfact>
</mgrwt>
</event>
<event>
 4    1  0.2878104E-007  0.1761302E+04  0.7818608E-02  0.8744250E-01
         -2   -1    0    0    0  501 -0.00000000000E+00  0.00000000000E+00  0.18126004896E+04  0.18126004896E+04  0.25500000000E-02 0.  1.
          2   -1    0    0  501    0  0.00000000000E+00 -0.00000000000E+00 -0.25121289377E+04  0.25121289377E+04  0.25500000000E-02 0. -1.
    8880023    1    1    2    0    0 -0.16151873577E+04  0.24401761391E+03  0.94749382141E+03  0.19999823860E+04  0.65864270000E+03 0.  0.
    8880022    1    1    2    0    0  0.16151873577E+04 -0.24401761391E+03 -0.16470222696E+04  0.23247470413E+04  0.15294330000E+03 0.  0.
<mgrwt>
<rscale>  0 0.17303345E+04</rscale>
<asrwt>0</asrwt>
<pdfrwt beam="1">  1        2 0.38648138E+00 0.17613021E+04</pdfrwt>
<pdfrwt beam="2">  1       -2 0.27886161E+00 0.17613021E+04</pdfrwt>
<totfact> 0.13329864E-01</totfact>
</mgrwt>
</event>
<event>
 4    1  0.2878104E-007  0.8330393E+03  0.7818608E-02  0.9643448E-01
         -2   -1    0    0    0  501 -0.00000000000E+00  0.00000000000E+00  0.16712218673E+03  0.16712218675E+03  0.25500000000E-02 0.  1.
          2   -1    0    0  501    0  0.00000000000E+00 -0.00000000000E+00 -0.30261018365E+04  0.30261018365E+04  0.25500000000E-02 0. -1.
    8880023    1    1    2    0    0  0.46054257873E+03 -0.21919122818E+03 -0.12830064756E+04  0.15297254931E+04  0.65864270000E+03 0.  0.
    8880022    1    1    2    0    0 -0.46054257873E+03  0.21919122818E+03 -0.15759731741E+04  0.16634985302E+04  0.15294330000E+03 0.  0.
<mgrwt>
<rscale>  0 0.74486081E+03</rscale>
<asrwt>0</asrwt>
<pdfrwt beam="1">  1        2 0.46555409E+00 0.83303930E+03</pdfrwt>
<pdfrwt beam="2">  1       -2 0.25711108E-01 0.83303930E+03</pdfrwt>
<totfact> 0.23883585E+01</totfact>
</mgrwt>
</event>
<event>
 4    1  0.2878104E-007  0.1140485E+04  0.7818608E-02  0.9217266E-01
          2   -1    0    0  501    0  0.00000000000E+00  0.00000000000E+00  0.34336526463E+04  0.34336526463E+04  0.25500000000E-02 0. -1.
         -2   -1    0    0    0  501 -0.00000000000E+00 -0.00000000000E+00 -0.84857215992E+03  0.84857215992E+03  0.25500000000E-02 0.  1.
    8880023    1    1    2    0    0 -0.76406611986E+03  0.53207002135E+03 -0.35499238249E+03  0.11944560859E+04  0.65864270000E+03 0.  0.
    8880022    1    1    2    0    0  0.76406611986E+03 -0.53207002135E+03  0.29400728688E+04  0.30877687203E+04  0.15294330000E+03 0.  0.
<mgrwt>
<rscale>  0 0.10876982E+04</rscale>
<asrwt>0</asrwt>
<pdfrwt beam="1">  1        2 0.52825426E+00 0.11404849E+04</pdfrwt>
<pdfrwt beam="2">  1       -2 0.13054956E+00 0.11404849E+04</pdfrwt>
<totfact> 0.39020807E-01</totfact>
</mgrwt>
</event>
<event>
 4    1  0.2878104E-007  0.8564598E+03  0.7818608E-02  0.9599892E-01
          2   -1    0    0  501    0  0.00000000000E+00  0.00000000000E+00  0.52917992298E+03  0.52917992298E+03  0.25500000000E-02 0. -1.
         -2   -1    0    0    0  501 -0.00000000000E+00 -0.00000000000E+00 -0.10431634853E+04  0.10431634853E+04  0.25500000000E-02 0.  1.
    8880023    1    1    2    0    0 -0.36036887075E+03  0.41212548200E+03 -0.52361149775E+03  0.10038388032E+04  0.65864270000E+03 0.  0.
    8880022    1    1    2    0    0  0.36036887075E+03 -0.41212548200E+03  0.96279353908E+01  0.56850460515E+03  0.15294330000E+03 0.  0.
<mgrwt>
<rscale>  0 0.77303321E+03</rscale>
<asrwt>0</asrwt>
<pdfrwt beam="1">  1        2 0.81412296E-01 0.85645977E+03</pdfrwt>
<pdfrwt beam="2">  1       -2 0.16048669E+00 0.85645977E+03</pdfrwt>
<totfact> 0.14468314E+01</totfact>
</mgrwt>
</event>
<event>
 4    1  0.4987542E-007  0.1934293E+04  0.7818608E-02  0.8651676E-01
          2   -1    0    0  501    0  0.00000000000E+00  0.00000000000E+00  0.31592876281E+04  0.31592876281E+04  0.25500000000E-02 0. -1.
         -2   -1    0    0    0  501 -0.00000000000E+00 -0.00000000000E+00 -0.20010680096E+04  0.20010680096E+04  0.25500000000E-02 0.  1.
    8880023    1    1    2    0    0  0.52770829958E+03  0.17404608374E+04 -0.11247329175E+04  0.22375241492E+04  0.65864270000E+03 0.  0.
    8880022    1    1    2    0    0 -0.52770829958E+03 -0.17404608374E+04  0.22829525360E+04  0.29228314886E+04  0.15294330000E+03 0.  0.
<mgrwt>
<rscale>  0 0.19064031E+04</rscale>
<asrwt>0</asrwt>
<pdfrwt beam="1">  1        2 0.48604425E+00 0.19342932E+04</pdfrwt>
<pdfrwt beam="2">  1       -2 0.30785662E+00 0.19342932E+04</pdfrwt>
<totfact> 0.34915333E-02</totfact>
</mgrwt>
</event>
<event>
 4    1  0.3112281E-007  0.6809530E+03  0.7818608E-02  0.1008790E+00
          2   -1    0    0  501    0  0.00000000000E+00  0.00000000000E+00  0.34884826949E+04  0.34884826949E+04  0.25500000000E-02 0. -1.
         -2   -1    0    0    0  501 -0.00000000000E+00 -0.00000000000E+00 -0.10280577289E+04  0.10280577289E+04  0.25500000000E-02 0.  1.
    8880023    1    1    2    0    0  0.16104280416E+03 -0.62865224613E+02 -0.91091655631E+03  0.11373064671E+04  0.65864270000E+03 0.  1.
    8880022    1    1    2    0    0 -0.16104280416E+03  0.62865224613E+02  0.33713415223E+04  0.33792339568E+04  0.15294330000E+03 0.  0.
<mgrwt>
<rscale>  0 0.51958528E+03</rscale>
<asrwt>0</asrwt>
<pdfrwt beam="1">  1        2 0.53668964E+00 0.68095303E+03</pdfrwt>
<pdfrwt beam="2">  1       -2 0.15816273E+00 0.68095303E+03</pdfrwt>
<totfact> 0.23952442E-01</totfact>
</mgrwt>
</event>
<event>
 4    1  0.2878104E-007  0.7061653E+03  0.7818608E-02  0.9972526E-01
          2   -1    0    0  501    0  0.00000000000E+00  0.00000000000E+00  0.13983556071E+04  0.13983556071E+04  0.25500000000E-02 0. -1.
         -2   -1    0    0    0  501 -0.00000000000E+00 -0.00000000000E+00 -0.54342051670E+03  0.54342051671E+03  0.25500000000E-02 0.  1.
    8880023    1    1    2    0    0  0.23039834765E+03  0.10851644732E+03 -0.28668297084E+03  0.76213945572E+03  0.65864270000E+03 0.  1.
    8880022    1    1    2    0    0 -0.23039834765E+03 -0.10851644732E+03  0.11416180612E+04  0.11796366681E+04  0.15294330000E+03 0.  0.
<mgrwt>
<rscale>  0 0.56871496E+03</rscale>
<asrwt>0</asrwt>
<pdfrwt beam="1">  1        2 0.21513163E+00 0.70616530E+03</pdfrwt>
<pdfrwt beam="2">  1       -2 0.83603157E-01 0.70616530E+03</pdfrwt>
<totfact> 0.18650263E+01</totfact>
</mgrwt>
</event>
<event>
 4    1  0.2878104E-007  0.7221422E+03  0.7818608E-02  0.9915403E-01
          2   -1    0    0  501    0  0.00000000000E+00  0.00000000000E+00  0.91581861013E+03  0.91581861014E+03  0.25500000000E-02 0. -1.
         -2   -1    0    0    0  501 -0.00000000000E+00 -0.00000000000E+00 -0.93310790524E+03  0.93310790525E+03  0.25500000000E-02 0.  1.
    8880023    1    1    2    0    0 -0.24756095838E+03 -0.16245858573E+03 -0.75173721789E+03  0.10424002452E+04  0.65864270000E+03 0.  1.
    8880022    1    1    2    0    0  0.24756095838E+03  0.16245858573E+03  0.73444792278E+03  0.80652627018E+03  0.15294330000E+03 0.  0.
<mgrwt>
<rscale>  0 0.59520571E+03</rscale>
<asrwt>0</asrwt>
<pdfrwt beam="1">  1        2 0.14089517E+00 0.72214225E+03</pdfrwt>
<pdfrwt beam="2">  1       -2 0.14355506E+00 0.72214225E+03</pdfrwt>
<totfact> 0.98204270E+00</totfact>
</mgrwt>
</event>
<event>
 4    1  0.2878104E-007  0.1037506E+04  0.7818608E-02  0.9334054E-01
         -2   -1    0    0    0  501 -0.00000000000E+00  0.00000000000E+00  0.15250805542E+04  0.15250805542E+04  0.25500000000E-02 0.  1.
          2   -1    0    0  501    0  0.00000000000E+00 -0.00000000000E+00 -0.65855209304E+03  0.65855209304E+03  0.25500000000E-02 0. -1.
    8880023    1    1    2    0    0 -0.79653010409E+03 -0.90262510494E+02  0.89039710875E+03  0.13671959424E+04  0.65864270000E+03 0.  0.
    8880022    1    1    2    0    0  0.79653010409E+03  0.90262510494E+02 -0.23868647626E+02  0.81643670476E+03  0.15294330000E+03 0.  0.
<mgrwt>
<rscale>  0 0.97707304E+03</rscale>
<asrwt>0</asrwt>
<pdfrwt beam="1">  1        2 0.10131571E+00 0.10375055E+04</pdfrwt>
<pdfrwt beam="2">  1       -2 0.23462778E+00 0.10375055E+04</pdfrwt>
<totfact> 0.35136274E+00</totfact>
</mgrwt>
</event>
<event>
 4    1  0.2878104E-007  0.6874538E+03  0.7818608E-02  0.1005387E+00
          2   -1    0    0  501    0  0.00000000000E+00  0.00000000000E+00  0.18352177458E+04  0.18352177458E+04  0.25500000000E-02 0. -1.
         -2   -1    0    0    0  501 -0.00000000000E+00 -0.00000000000E+00 -0.40456758045E+03  0.40456758045E+03  0.25500000000E-02 0.  1.
    8880023    1    1    2    0    0 -0.19690647816E+03  0.32286440896E+01 -0.94916576646E+02  0.69397546648E+03  0.65864270000E+03 0.  1.
    8880022    1    1    2    0    0  0.19690647816E+03 -0.32286440896E+01  0.15255667420E+04  0.15458098598E+04  0.15294330000E+03 0.  0.
<mgrwt>
<rscale>  0 0.53349944E+03</rscale>
<asrwt>0</asrwt>
<pdfrwt beam="1">  1        2 0.28234119E+00 0.68745385E+03</pdfrwt>
<pdfrwt beam="2">  1       -2 0.62241165E-01 0.68745385E+03</pdfrwt>
<totfact> 0.20542262E+01</totfact>
</mgrwt>
</event>
<event>
 4    1  0.2878104E-007  0.8103332E+03  0.7818608E-02  0.9688883E-01
         -2   -1    0    0    0  501 -0.00000000000E+00  0.00000000000E+00  0.23866736135E+04  0.23866736135E+04  0.25500000000E-02 0.  1.
          2   -1    0    0  501    0  0.00000000000E+00 -0.00000000000E+00 -0.57030947853E+03  0.57030947854E+03  0.25500000000E-02 0. -1.
    8880023    1    1    2    0    0  0.31637640004E+03  0.35033640078E+03  0.21904706935E+04  0.23355516876E+04  0.65864270000E+03 0.  1.
    8880022    1    1    2    0    0 -0.31637640004E+03 -0.35033640078E+03 -0.37410655854E+03  0.62143140440E+03  0.15294330000E+03 0.  0.
<mgrwt>
<rscale>  0 0.71682543E+03</rscale>
<asrwt>0</asrwt>
<pdfrwt beam="1">  1        2 0.87739921E-01 0.81033316E+03</pdfrwt>
<pdfrwt beam="2">  1       -2 0.36718055E+00 0.81033316E+03</pdfrwt>
<totfact> 0.66796037E-01</totfact>
</mgrwt>
</event>
<event>
 4    1  0.2878104E-007  0.6664735E+03  0.7818608E-02  0.1018328E+00
          2   -1    0    0  501    0  0.00000000000E+00  0.00000000000E+00  0.13733697679E+04  0.13733697679E+04  0.25500000000E-02 0. -1.
         -2   -1    0    0    0  501 -0.00000000000E+00 -0.00000000000E+00 -0.13183536059E+03  0.13183536061E+03  0.25500000000E-02 0.  1.
    8880023    1    1    2    0    0  0.61387050864E+02  0.81291752120E+02  0.94594152520E+03  0.11571483459E+04  0.65864270000E+03 0. -1.
    8880022    1    1    2    0    0 -0.61387050864E+02 -0.81291752120E+02  0.29559288207E+03  0.34805678262E+03  0.15294330000E+03 0.  0.
<mgrwt>
<rscale>  0 0.48294862E+03</rscale>
<asrwt>0</asrwt>
<pdfrwt beam="1">  1        2 0.21128765E+00 0.66647350E+03</pdfrwt>
<pdfrwt beam="2">  1       -2 0.20282364E-01 0.66647350E+03</pdfrwt>
<totfact> 0.31731793E+02</totfact>
</mgrwt>
</event>
<event>
 4    1  0.2878104E-007  0.9201201E+03  0.7818608E-02  0.9494475E-01
          2   -1    0    0  501    0  0.00000000000E+00  0.00000000000E+00  0.33439919281E+04  0.33439919281E+04  0.25500000000E-02 0. -1.
         -2   -1    0    0    0  501 -0.00000000000E+00 -0.00000000000E+00 -0.34918670527E+03  0.34918670528E+03  0.25500000000E-02 0.  1.
    8880023    1    1    2    0    0  0.50171276148E+02  0.64054173489E+03  0.37872127240E+03  0.99501300470E+03  0.65864270000E+03 0.  1.
    8880022    1    1    2    0    0 -0.50171276148E+02 -0.64054173489E+03  0.26160839504E+04  0.26981656287E+04  0.15294330000E+03 0.  0.
<mgrwt>
<rscale>  0 0.84692397E+03</rscale>
<asrwt>0</asrwt>
<pdfrwt beam="1">  1        2 0.51446027E+00 0.92012014E+03</pdfrwt>
<pdfrwt beam="2">  1       -2 0.53721034E-01 0.92012014E+03</pdfrwt>
<totfact> 0.35524772E+00</totfact>
</mgrwt>
</event>
<event>
 4    1  0.2878104E-007  0.6753471E+03  0.7818608E-02  0.1012088E+00
         -2   -1    0    0    0  501 -0.00000000000E+00  0.00000000000E+00  0.76218984014E+03  0.76218984014E+03  0.25500000000E-02 0.  1.
          2   -1    0    0  501    0  0.00000000000E+00 -0.00000000000E+00 -0.38059012409E+03  0.38059012410E+03  0.25500000000E-02 0. -1.
    8880023    1    1    2    0    0  0.14643731683E+03 -0.28974946033E+02  0.54977258969E+03  0.87082922660E+03  0.65864270000E+03 0.  1.
    8880022    1    1    2    0    0 -0.14643731683E+03  0.28974946033E+02 -0.16817287364E+03  0.27195073764E+03  0.15294330000E+03 0.  0.
<mgrwt>
<rscale>  0 0.50653001E+03</rscale>
<asrwt>0</asrwt>
<pdfrwt beam="1">  1        2 0.58552327E-01 0.67534705E+03</pdfrwt>
<pdfrwt beam="2">  1       -2 0.11725998E+00 0.67534705E+03</pdfrwt>
<totfact> 0.48046751E+01</totfact>
</mgrwt>
</event>
<event>
 4    1  0.2878104E-007  0.1412038E+04  0.7818608E-02  0.8974385E-01
          2   -1    0    0  501    0  0.00000000000E+00  0.00000000000E+00  0.34467303336E+04  0.34467303336E+04  0.25500000000E-02 0. -1.
         -2   -1    0    0    0  501 -0.00000000000E+00 -0.00000000000E+00 -0.13891212258E+04  0.13891212258E+04  0.25500000000E-02 0.  1.
    8880023    1    1    2    0    0  0.88811359400E+03  0.87823473723E+03 -0.86356784499E+03  0.16551742019E+04  0.65864270000E+03 0.  1.
    8880022    1    1    2    0    0 -0.88811359400E+03 -0.87823473723E+03  0.29211769528E+04  0.31806773574E+04  0.15294330000E+03 0.  0.
<mgrwt>
<rscale>  0 0.13719391E+04</rscale>
<asrwt>0</asrwt>
<pdfrwt beam="1">  1        2 0.53026621E+00 0.14120383E+04</pdfrwt>
<pdfrwt beam="2">  1       -2 0.21371096E+00 0.14120383E+04</pdfrwt>
<totfact> 0.91983715E-02</totfact>
</mgrwt>
</event>
<event>
 4    1  0.2878104E-007  0.1469425E+04  0.7818608E-02  0.8931533E-01
         -2   -1    0    0    0  501 -0.00000000000E+00  0.00000000000E+00  0.24090947038E+04  0.24090947038E+04  0.25500000000E-02 0.  1.
          2   -1    0    0  501    0  0.00000000000E+00 -0.00000000000E+00 -0.12259450920E+04  0.12259450920E+04  0.25500000000E-02 0. -1.
    8880023    1    1    2    0    0 -0.10842531729E+03 -0.13090624682E+04  0.16712903207E+04  0.22254038145E+04  0.65864270000E+03 0.  0.
    8880022    1    1    2    0    0  0.10842531729E+03  0.13090624682E+04 -0.48814070897E+03  0.14096359813E+04  0.15294330000E+03 0.  0.
<mgrwt>
<rscale>  0 0.14312085E+04</rscale>
<asrwt>0</asrwt>
<pdfrwt beam="1">  1        2 0.18860694E+00 0.14694253E+04</pdfrwt>
<pdfrwt beam="2">  1       -2 0.37062995E+00 0.14694253E+04</pdfrwt>
<totfact> 0.19956432E-01</totfact>
</mgrwt>
</event>
<event>
 4    1  0.2878104E-007  0.1165382E+04  0.7818608E-02  0.9191531E-01
          2   -1    0    0  501    0  0.00000000000E+00  0.00000000000E+00  0.36296730938E+04  0.36296730938E+04  0.25500000000E-02 0. -1.
         -2   -1    0    0    0  501 -0.00000000000E+00 -0.00000000000E+00 -0.40621050758E+03  0.40621050759E+03  0.25500000000E-02 0.  1.
    8880023    1    1    2    0    0 -0.80389803065E+03  0.52730743336E+03  0.77117669756E+03  0.13974365381E+04  0.65864270000E+03 0.  0.
    8880022    1    1    2    0    0  0.80389803065E+03 -0.52730743336E+03  0.24522858887E+04  0.26384470633E+04  0.15294330000E+03 0.  0.
<mgrwt>
<rscale>  0 0.11141276E+04</rscale>
<asrwt>0</asrwt>
<pdfrwt beam="1">  1        2 0.55841125E+00 0.11653821E+04</pdfrwt>
<pdfrwt beam="2">  1       -2 0.62493924E-01 0.11653821E+04</pdfrwt>
<totfact> 0.15831015E+00</totfact>
</mgrwt>
</event>
<event>
 4    1  0.2878104E-007  0.6930071E+03  0.7818608E-02  0.1002755E+00
         -2   -1    0    0    0  501 -0.00000000000E+00  0.00000000000E+00  0.18647618632E+04  0.18647618632E+04  0.25500000000E-02 0.  1.
          2   -1    0    0  501    0  0.00000000000E+00 -0.00000000000E+00 -0.14030399207E+04  0.14030399207E+04  0.25500000000E-02 0. -1.
    8880023    1    1    2    0    0  0.21493261868E+03  0.15895528483E+02  0.17868746580E+04  0.19165541860E+04  0.65864270000E+03 0.  0.
    8880022    1    1    2    0    0 -0.21493261868E+03 -0.15895528483E+02 -0.13251527154E+04  0.13512475978E+04  0.15294330000E+03 0. -1.
<mgrwt>
<rscale>  0 0.54458614E+03</rscale>
<asrwt>0</asrwt>
<pdfrwt beam="1">  1        2 0.21585230E+00 0.69300715E+03</pdfrwt>
<pdfrwt beam="2">  1       -2 0.28688644E+00 0.69300715E+03</pdfrwt>
<totfact> 0.58561991E-01</totfact>
</mgrwt>
</event>
<event>
 4    1  0.2878104E-007  0.1493367E+04  0.7818608E-02  0.8914334E-01
         -2   -1    0    0    0  501 -0.00000000000E+00  0.00000000000E+00  0.55601510130E+04  0.55601510130E+04  0.25500000000E-02 0.  1.
          2   -1    0    0  501    0  0.00000000000E+00 -0.00000000000E+00 -0.11626545748E+04  0.11626545748E+04  0.25500000000E-02 0. -1.
    8880023    1    1    2    0    0 -0.13131467344E+04  0.26828935926E+03  0.50197902070E+04  0.52372165752E+04  0.65864270000E+03 0.  1.
    8880022    1    1    2    0    0  0.13131467344E+04 -0.26828935926E+03 -0.62229376892E+03  0.14855890126E+04  0.15294330000E+03 0.  0.
<mgrwt>
<rscale>  0 0.14558799E+04</rscale>
<asrwt>0</asrwt>
<pdfrwt beam="1">  1        2 0.17886993E+00 0.14933666E+04</pdfrwt>
<pdfrwt beam="2">  1       -2 0.85540785E+00 0.14933666E+04</pdfrwt>
<totfact> 0.58348637E-04</totfact>
</mgrwt>
</event>
<event>
 4    1  0.2878104E-007  0.1691814E+04  0.7818608E-02  0.8784866E-01
         -2   -1    0    0    0  501 -0.00000000000E+00  0.00000000000E+00  0.10403847344E+04  0.10403847344E+04  0.25500000000E-02 0.  1.
          2   -1    0    0  501    0  0.00000000000E+00 -0.00000000000E+00 -0.31079006029E+04  0.31079006029E+04  0.25500000000E-02 0. -1.
    8880023    1    1    2    0    0 -0.50289150178E+03  0.14749664420E+04 -0.18837316881E+03  0.17022692280E+04  0.65864270000E+03 0.  0.
    8880022    1    1    2    0    0  0.50289150178E+03 -0.14749664420E+04 -0.18791426997E+04  0.24460161092E+04  0.15294330000E+03 0.  0.
<mgrwt>
<rscale>  0 0.16593980E+04</rscale>
<asrwt>0</asrwt>
<pdfrwt beam="1">  1        2 0.47813855E+00 0.16918144E+04</pdfrwt>
<pdfrwt beam="2">  1       -2 0.16005919E+00 0.16918144E+04</pdfrwt>
<totfact> 0.34714168E-01</totfact>
</mgrwt>
</event>
<event>
 4    1  0.2878104E-007  0.7060337E+03  0.7818608E-02  0.9973035E-01
         -2   -1    0    0    0  501 -0.00000000000E+00  0.00000000000E+00  0.23063472258E+04  0.23063472258E+04  0.25500000000E-02 0.  1.
          2   -1    0    0  501    0  0.00000000000E+00 -0.00000000000E+00 -0.18082338198E+03  0.18082338199E+03  0.25500000000E-02 0. -1.
    8880023    1    1    2    0    0 -0.10092834782E+03  0.23342419882E+03  0.20675860043E+04  0.21848101701E+04  0.65864270000E+03 0.  1.
    8880022    1    1    2    0    0  0.10092834782E+03 -0.23342419882E+03  0.57937839477E+02  0.30236043764E+03  0.15294330000E+03 0.  0.
<mgrwt>
<rscale>  0 0.56848567E+03</rscale>
<asrwt>0</asrwt>
<pdfrwt beam="1">  1        2 0.27818982E-01 0.70603371E+03</pdfrwt>
<pdfrwt beam="2">  1       -2 0.35482264E+00 0.70603371E+03</pdfrwt>
<totfact> 0.29780844E+00</totfact>
</mgrwt>
</event>
<event>
 4    1  0.2878104E-007  0.1173564E+04  0.7818608E-02  0.9183258E-01
         -2   -1    0    0    0  501 -0.00000000000E+00  0.00000000000E+00  0.44233417672E+03  0.44233417672E+03  0.25500000000E-02 0.  1.
          2   -1    0    0  501    0  0.00000000000E+00 -0.00000000000E+00 -0.26332881241E+04  0.26332881241E+04  0.25500000000E-02 0. -1.
    8880023    1    1    2    0    0  0.40770888604E+03  0.88159855300E+03 -0.11317227949E+04  0.16303524880E+04  0.65864270000E+03 0. -1.
    8880022    1    1    2    0    0 -0.40770888604E+03 -0.88159855300E+03 -0.10592311525E+04  0.14452698128E+04  0.15294330000E+03 0.  1.
<mgrwt>
<rscale>  0 0.11227915E+04</rscale>
<asrwt>0</asrwt>
<pdfrwt beam="1">  1        2 0.40512124E+00 0.11735641E+04</pdfrwt>
<pdfrwt beam="2">  1       -2 0.68051413E-01 0.11735641E+04</pdfrwt>
<totfact> 0.57086729E+00</totfact>
</mgrwt>
</event>
<event>
 4    1  0.2878104E-007  0.1185757E+04  0.7818608E-02  0.9171094E-01
         -2   -1    0    0    0  501 -0.00000000000E+00  0.00000000000E+00  0.13741186421E+04  0.13741186421E+04  0.25500000000E-02 0.  1.
          2   -1    0    0  501    0  0.00000000000E+00 -0.00000000000E+00 -0.10040910910E+04  0.10040910910E+04  0.25500000000E-02 0. -1.
    8880023    1    1    2    0    0 -0.97245128703E+03 -0.16293312796E+03  0.63602430480E+03  0.13455652464E+04  0.65864270000E+03 0.  1.
    8880022    1    1    2    0    0  0.97245128703E+03  0.16293312796E+03 -0.26599675376E+03  0.10326444867E+04  0.15294330000E+03 0.  0.
<mgrwt>
<rscale>  0 0.11356835E+04</rscale>
<asrwt>0</asrwt>
<pdfrwt beam="1">  1        2 0.15447555E+00 0.11857567E+04</pdfrwt>
<pdfrwt beam="2">  1       -2 0.21140287E+00 0.11857567E+04</pdfrwt>
<totfact> 0.27348220E+00</totfact>
</mgrwt>
</event>
<event>
 4    1  0.2878104E-007  0.7671584E+03  0.7818608E-02  0.9786916E-01
         -2   -1    0    0    0  501 -0.00000000000E+00  0.00000000000E+00  0.31529626992E+03  0.31529626993E+03  0.25500000000E-02 0.  1.
          2   -1    0    0  501    0  0.00000000000E+00 -0.00000000000E+00 -0.16383802544E+04  0.16383802544E+04  0.25500000000E-02 0. -1.
    8880023    1    1    2    0    0  0.14713797809E+03  0.36479058106E+03 -0.26022284850E+03  0.81009128484E+03  0.65864270000E+03 0.  1.
    8880022    1    1    2    0    0 -0.14713797809E+03 -0.36479058106E+03 -0.10628611360E+04  0.11435852395E+04  0.15294330000E+03 0.  0.
<mgrwt>
<rscale>  0 0.66069473E+03</rscale>
<asrwt>0</asrwt>
<pdfrwt beam="1">  1        2 0.25205850E+00 0.76715837E+03</pdfrwt>
<pdfrwt beam="2">  1       -2 0.48507119E-01 0.76715837E+03</pdfrwt>
<totfact> 0.43684028E+01</totfact>
</mgrwt>
</event>
<event>
 4    1  0.2878104E-007  0.7355748E+03  0.7818608E-02  0.9873030E-01
         -2   -1    0    0    0  501 -0.00000000000E+00  0.00000000000E+00  0.41583030110E+03  0.41583030111E+03  0.25500000000E-02 0.  1.
          2   -1    0    0  501    0  0.00000000000E+00 -0.00000000000E+00 -0.22935441063E+04  0.22935441063E+04  0.25500000000E-02 0. -1.
    8880023    1    1    2    0    0  0.30551364651E+03  0.11798952762E+03  0.60204965022E+02  0.73803452555E+03  0.65864270000E+03 0.  0.
    8880022    1    1    2    0    0 -0.30551364651E+03 -0.11798952762E+03 -0.19379187702E+04  0.19713398818E+04  0.15294330000E+03 0.  0.
<mgrwt>
<rscale>  0 0.61586363E+03</rscale>
<asrwt>0</asrwt>
<pdfrwt beam="1">  1        2 0.35285293E+00 0.73557482E+03</pdfrwt>
<pdfrwt beam="2">  1       -2 0.63973894E-01 0.73557482E+03</pdfrwt>
<totfact> 0.10794661E+01</totfact>
</mgrwt>
</event>
<event>
 4    1  0.2878104E-007  0.6896030E+03  0.7818608E-02  0.1004342E+00
          2   -1    0    0  501    0  0.00000000000E+00  0.00000000000E+00  0.99185658729E+03  0.99185658729E+03  0.25500000000E-02 0. -1.
         -2   -1    0    0    0  501 -0.00000000000E+00 -0.00000000000E+00 -0.13183477287E+04  0.13183477287E+04  0.25500000000E-02 0.  1.
    8880023    1    1    2    0    0 -0.48481866156E+02  0.19847321800E+03 -0.12088296768E+04  0.13916973462E+04  0.65864270000E+03 0.  1.
    8880022    1    1    2    0    0  0.48481866156E+02 -0.19847321800E+03  0.88233853537E+03  0.91850696983E+03  0.15294330000E+03 0.  0.
<mgrwt>
<rscale>  0 0.53786729E+03</rscale>
<asrwt>0</asrwt>
<pdfrwt beam="1">  1        2 0.15259332E+00 0.68960301E+03</pdfrwt>
<pdfrwt beam="2">  1       -2 0.20282273E+00 0.68960301E+03</pdfrwt>
<totfact> 0.33605775E+00</totfact>
</mgrwt>
</event>
<event>
 4    1  0.2878104E-007  0.6851862E+03  0.7818608E-02  0.1006530E+00
         -2   -1    0    0    0  501 -0.00000000000E+00  0.00000000000E+00  0.62589506382E+03  0.62589506383E+03  0.25500000000E-02 0.  1.
          2   -1    0    0  501    0  0.00000000000E+00 -0.00000000000E+00 -0.27496192007E+04  0.27496192007E+04  0.25500000000E-02 0. -1.
    8880023    1    1    2    0    0 -0.18860838987E+03  0.98398812286E+01  0.43086071980E+03  0.80939552391E+03  0.65864270000E+03 0.  1.
    8880022    1    1    2    0    0  0.18860838987E+03 -0.98398812286E+01 -0.25545848567E+04  0.25661187407E+04  0.15294330000E+03 0.  0.
<mgrwt>
<rscale>  0 0.52877342E+03</rscale>
<asrwt>0</asrwt>
<pdfrwt beam="1">  1        2 0.42301833E+00 0.68518622E+03</pdfrwt>
<pdfrwt beam="2">  1       -2 0.96291550E-01 0.68518622E+03</pdfrwt>
<totfact> 0.24032442E+00</totfact>
</mgrwt>
</event>
<event>
 4    1  0.2878104E-007  0.8384237E+03  0.7818608E-02  0.9633160E-01
          2   -1    0    0  501    0  0.00000000000E+00  0.00000000000E+00  0.10134973124E+04  0.10134973124E+04  0.25500000000E-02 0. -1.
         -2   -1    0    0    0  501 -0.00000000000E+00 -0.00000000000E+00 -0.84361894439E+03  0.84361894439E+03  0.25500000000E-02 0.  1.
    8880023    1    1    2    0    0 -0.35167866911E+03 -0.38140042651E+03 -0.51535275693E+03  0.98414574225E+03  0.65864270000E+03 0.  0.
    8880022    1    1    2    0    0  0.35167866911E+03  0.38140042651E+03  0.68523112490E+03  0.87297051451E+03  0.15294330000E+03 0.  0.
<mgrwt>
<rscale>  0 0.75139804E+03</rscale>
<asrwt>0</asrwt>
<pdfrwt beam="1">  1        2 0.15592266E+00 0.83842375E+03</pdfrwt>
<pdfrwt beam="2">  1       -2 0.12978753E+00 0.83842375E+03</pdfrwt>
<totfact> 0.10848923E+01</totfact>
</mgrwt>
</event>
<event>
 4    1  0.2878104E-007  0.1382881E+04  0.7818608E-02  0.8997100E-01
          2   -1    0    0  501    0  0.00000000000E+00  0.00000000000E+00  0.22323803840E+04  0.22323803840E+04  0.25500000000E-02 0. -1.
         -2   -1    0    0    0  501 -0.00000000000E+00 -0.00000000000E+00 -0.11062044527E+04  0.11062044527E+04  0.25500000000E-02 0.  1.
    8880023    1    1    2    0    0 -0.45845246782E+03  0.11262203015E+04 -0.34357301356E+03  0.14249222627E+04  0.65864270000E+03 0.  0.
    8880022    1    1    2    0    0  0.45845246782E+03 -0.11262203015E+04  0.14697489449E+04  0.19136625739E+04  0.15294330000E+03 0.  0.
<mgrwt>
<rscale>  0 0.13417462E+04</rscale>
<asrwt>0</asrwt>
<pdfrwt beam="1">  1        2 0.34344313E+00 0.13828814E+04</pdfrwt>
<pdfrwt beam="2">  1       -2 0.17018530E+00 0.13828814E+04</pdfrwt>
<totfact> 0.10029940E+00</totfact>
</mgrwt>
</event>
<event>
 4    1  0.2878104E-007  0.1193832E+04  0.7818608E-02  0.9163141E-01
          2   -1    0    0  501    0  0.00000000000E+00  0.00000000000E+00  0.24989948747E+04  0.24989948747E+04  0.25500000000E-02 0. -1.
         -2   -1    0    0    0  501 -0.00000000000E+00 -0.00000000000E+00 -0.87751946399E+03  0.87751946399E+03  0.25500000000E-02 0.  1.
    8880023    1    1    2    0    0 -0.19782851079E+03 -0.97585305302E+03 -0.27859974178E+03  0.12259091823E+04  0.65864270000E+03 0.  0.
    8880022    1    1    2    0    0  0.19782851079E+03  0.97585305302E+03  0.19000751525E+04  0.21506051565E+04  0.15294330000E+03 0.  0.
<mgrwt>
<rscale>  0 0.11442106E+04</rscale>
<asrwt>0</asrwt>
<pdfrwt beam="1">  1        2 0.38446074E+00 0.11938323E+04</pdfrwt>
<pdfrwt beam="2">  1       -2 0.13500300E+00 0.11938323E+04</pdfrwt>
<totfact> 0.13474005E+00</totfact>
</mgrwt>
</event>
<event>
 4    1  0.2878104E-007  0.6683837E+03  0.7818608E-02  0.1016849E+00
         -2   -1    0    0    0  501 -0.00000000000E+00  0.00000000000E+00  0.74334804730E+03  0.74334804730E+03  0.25500000000E-02 0.  1.
          2   -1    0    0  501    0  0.00000000000E+00 -0.00000000000E+00 -0.20715625987E+04  0.20715625987E+04  0.25500000000E-02 0. -1.
    8880023    1    1    2    0    0  0.10758697173E+03  0.36764676369E+02  0.58741340620E+03  0.88982656398E+03  0.65864270000E+03 0.  1.
    8880022    1    1    2    0    0 -0.10758697173E+03 -0.36764676369E+02 -0.19156279576E+04  0.19250840820E+04  0.15294330000E+03 0.  0.
<mgrwt>
<rscale>  0 0.48841053E+03</rscale>
<asrwt>0</asrwt>
<pdfrwt beam="1">  1        2 0.31870194E+00 0.66838373E+03</pdfrwt>
<pdfrwt beam="2">  1       -2 0.11436124E+00 0.66838373E+03</pdfrwt>
<totfact> 0.38393746E+00</totfact>
</mgrwt>
</event>
<event>
 4    1  0.2878104E-007  0.1227999E+04  0.7818608E-02  0.9130375E-01
         -2   -1    0    0    0  501 -0.00000000000E+00  0.00000000000E+00  0.25366588634E+04  0.25366588634E+04  0.25500000000E-02 0.  1.
          2   -1    0    0  501    0  0.00000000000E+00 -0.00000000000E+00 -0.14833693399E+04  0.14833693399E+04  0.25500000000E-02 0. -1.
    8880023    1    1    2    0    0  0.54181730631E+03  0.88351805349E+03  0.21671551111E+04  0.24908917331E+04  0.65864270000E+03 0.  0.
    8880022    1    1    2    0    0 -0.54181730631E+03 -0.88351805349E+03 -0.11138655876E+04  0.15291364702E+04  0.15294330000E+03 0.  0.
<mgrwt>
<rscale>  0 0.11801902E+04</rscale>
<asrwt>0</asrwt>
<pdfrwt beam="1">  1        2 0.22821067E+00 0.12279985E+04</pdfrwt>
<pdfrwt beam="2">  1       -2 0.39025521E+00 0.12279985E+04</pdfrwt>
<totfact> 0.10908174E-01</totfact>
</mgrwt>
</event>
<event>
 4    1  0.2878104E-007  0.8928497E+03  0.7818608E-02  0.9537609E-01
         -2   -1    0    0    0  501 -0.00000000000E+00  0.00000000000E+00  0.97533694153E+03  0.97533694154E+03  0.25500000000E-02 0.  1.
          2   -1    0    0  501    0  0.00000000000E+00 -0.00000000000E+00 -0.16373676907E+04  0.16373676907E+04  0.25500000000E-02 0. -1.
    8880023    1    1    2    0    0  0.44149100555E+03 -0.41043394788E+03  0.68743534521E+03  0.11268309073E+04  0.65864270000E+03 0.  1.
    8880022    1    1    2    0    0 -0.44149100555E+03  0.41043394788E+03 -0.13494660944E+04  0.14858737249E+04  0.15294330000E+03 0.  0.
<mgrwt>
<rscale>  0 0.81566951E+03</rscale>
<asrwt>0</asrwt>
<pdfrwt beam="1">  1        2 0.25190272E+00 0.89284967E+03</pdfrwt>
<pdfrwt beam="2">  1       -2 0.15005184E+00 0.89284967E+03</pdfrwt>
<totfact> 0.32055766E+00</totfact>
</mgrwt>
</event>
<event>
 4    1  0.2878104E-007  0.7074497E+03  0.7818608E-02  0.9967596E-01
          2   -1    0    0  501    0  0.00000000000E+00  0.00000000000E+00  0.45393463785E+04  0.45393463785E+04  0.25500000000E-02 0. -1.
         -2   -1    0    0    0  501 -0.00000000000E+00 -0.00000000000E+00 -0.81254285903E+02  0.81254285943E+02  0.25500000000E-02 0.  1.
    8880023    1    1    2    0    0  0.25673280626E+03 -0.27623740624E+02  0.16335566480E+04  0.17801663780E+04  0.65864270000E+03 0.  0.
    8880022    1    1    2    0    0 -0.25673280626E+03  0.27623740624E+02  0.28245354446E+04  0.28404342864E+04  0.15294330000E+03 0.  0.
<mgrwt>
<rscale>  0 0.57094206E+03</rscale>
<asrwt>0</asrwt>
<pdfrwt beam="1">  1        2 0.69836113E+00 0.70744965E+03</pdfrwt>
<pdfrwt beam="2">  1       -2 0.12500657E-01 0.70744965E+03</pdfrwt>
<totfact> 0.61304986E+00</totfact>
</mgrwt>
</event>
<event>
 4    1  0.2878104E-007  0.8907375E+03  0.7818608E-02  0.9541068E-01
         -2   -1    0    0    0  501 -0.00000000000E+00  0.00000000000E+00  0.35165576658E+03  0.35165576659E+03  0.25500000000E-02 0.  1.
          2   -1    0    0  501    0  0.00000000000E+00 -0.00000000000E+00 -0.41024689585E+04  0.41024689585E+04  0.25500000000E-02 0. -1.
    8880023    1    1    2    0    0  0.14874064946E+03  0.58092965538E+03 -0.28754864128E+03  0.93600078668E+03  0.65864270000E+03 0.  1.
    8880022    1    1    2    0    0 -0.14874064946E+03 -0.58092965538E+03 -0.34632645507E+04  0.35181239385E+04  0.15294330000E+03 0.  0.
<mgrwt>
<rscale>  0 0.81322625E+03</rscale>
<asrwt>0</asrwt>
<pdfrwt beam="1">  1        2 0.63114904E+00 0.89073748E+03</pdfrwt>
<pdfrwt beam="2">  1       -2 0.54100890E-01 0.89073748E+03</pdfrwt>
<totfact> 0.98037719E-01</totfact>
</mgrwt>
</event>
<event>
 4    1  0.2878104E-007  0.1120262E+04  0.7818608E-02  0.9238825E-01
         -2   -1    0    0    0  501 -0.00000000000E+00  0.00000000000E+00  0.69780631003E+03  0.69780631004E+03  0.25500000000E-02 0.  1.
          2   -1    0    0  501    0  0.00000000000E+00 -0.00000000000E+00 -0.20509203821E+04  0.20509203821E+04  0.25500000000E-02 0. -1.
    8880023    1    1    2    0    0 -0.72923487875E+02 -0.90324895335E+03 -0.87862774113E+01  0.11202963500E+04  0.65864270000E+03 0.  0.
    8880022    1    1    2    0    0  0.72923487875E+02  0.90324895335E+03 -0.13443277947E+04  0.16284303422E+04  0.15294330000E+03 0.  0.
<mgrwt>
<rscale>  0 0.10661517E+04</rscale>
<asrwt>0</asrwt>
<pdfrwt beam="1">  1        2 0.31552621E+00 0.11202619E+04</pdfrwt>
<pdfrwt beam="2">  1       -2 0.10735482E+00 0.11202619E+04</pdfrwt>
<totfact> 0.43030425E+00</totfact>
</mgrwt>
</event>
<event>
 4    1  0.2878104E-007  0.7523972E+03  0.7818608E-02  0.9825203E-01
          2   -1    0    0  501    0  0.00000000000E+00  0.00000000000E+00  0.12353191985E+04  0.12353191985E+04  0.25500000000E-02 0. -1.
         -2   -1    0    0    0  501 -0.00000000000E+00 -0.00000000000E+00 -0.10414873206E+04  0.10414873206E+04  0.25500000000E-02 0.  1.
    8880023    1    1    2    0    0  0.34192856104E+03 -0.12400069900E+03 -0.86524027898E+03  0.11466221090E+04  0.65864270000E+03 0.  0.
    8880022    1    1    2    0    0 -0.34192856104E+03  0.12400069900E+03  0.10590721570E+04  0.11301844101E+04  0.15294330000E+03 0.  0.
<mgrwt>
<rscale>  0 0.64027347E+03</rscale>
<asrwt>0</asrwt>
<pdfrwt beam="1">  1        2 0.19004911E+00 0.75239718E+03</pdfrwt>
<pdfrwt beam="2">  1       -2 0.16022882E+00 0.75239718E+03</pdfrwt>
<totfact> 0.46288952E+00</totfact>
</mgrwt>
</event>
<event>
 4    1  0.2878104E-007  0.6757852E+03  0.7818608E-02  0.1011816E+00
         -2   -1    0    0    0  501 -0.00000000000E+00  0.00000000000E+00  0.32139398166E+03  0.32139398167E+03  0.25500000000E-02 0.  1.
          2   -1    0    0  501    0  0.00000000000E+00 -0.00000000000E+00 -0.15992061728E+04  0.15992061728E+04  0.25500000000E-02 0. -1.
    8880023    1    1    2    0    0  0.15040072329E+03  0.15971112979E+02 -0.53901030344E+02  0.67793139871E+03  0.65864270000E+03 0.  1.
    8880022    1    1    2    0    0 -0.15040072329E+03 -0.15971112979E+02 -0.12239111608E+04  0.12426687558E+04  0.15294330000E+03 0.  0.
<mgrwt>
<rscale>  0 0.50759292E+03</rscale>
<asrwt>0</asrwt>
<pdfrwt beam="1">  1        2 0.24603171E+00 0.67578522E+03</pdfrwt>
<pdfrwt beam="2">  1       -2 0.49445229E-01 0.67578522E+03</pdfrwt>
<totfact> 0.44625370E+01</totfact>
</mgrwt>
</event>
<event>
 4    1  0.2878104E-007  0.8137827E+03  0.7818608E-02  0.9681751E-01
         -2   -1    0    0    0  501 -0.00000000000E+00  0.00000000000E+00  0.57198147609E+03  0.57198147609E+03  0.25500000000E-02 0.  1.
          2   -1    0    0  501    0  0.00000000000E+00 -0.00000000000E+00 -0.22002692539E+04  0.22002692539E+04  0.25500000000E-02 0. -1.
    8880023    1    1    2    0    0  0.47655511506E+03 -0.36431597144E+02  0.23140317498E+03  0.84604354180E+03  0.65864270000E+03 0.  0.
    8880022    1    1    2    0    0 -0.47655511506E+03  0.36431597144E+02 -0.18596909528E+04  0.19262071882E+04  0.15294330000E+03 0.  0.
<mgrwt>
<rscale>  0 0.72113804E+03</rscale>
<asrwt>0</asrwt>
<pdfrwt beam="1">  1        2 0.33850296E+00 0.81378268E+03</pdfrwt>
<pdfrwt beam="2">  1       -2 0.87997151E-01 0.81378268E+03</pdfrwt>
<totfact> 0.59207118E+00</totfact>
</mgrwt>
</event>
<event>
 4    1  0.2878104E-007  0.1091113E+04  0.7818608E-02  0.9271015E-01
          2   -1    0    0  501    0  0.00000000000E+00  0.00000000000E+00  0.12047811045E+04  0.12047811045E+04  0.25500000000E-02 0. -1.
         -2   -1    0    0    0  501 -0.00000000000E+00 -0.00000000000E+00 -0.14810441072E+04  0.14810441072E+04  0.25500000000E-02 0.  1.
    8880023    1    1    2    0    0  0.12458951211E+03  0.86092701952E+03 -0.10480292370E+04  0.15129089091E+04  0.65864270000E+03 0.  0.
    8880022    1    1    2    0    0 -0.12458951211E+03 -0.86092701952E+03  0.77176623431E+03  0.11729163026E+04  0.15294330000E+03 0.  0.
<mgrwt>
<rscale>  0 0.10349558E+04</rscale>
<asrwt>0</asrwt>
<pdfrwt beam="1">  1        2 0.18535094E+00 0.10911132E+04</pdfrwt>
<pdfrwt beam="2">  1       -2 0.22785294E+00 0.10911132E+04</pdfrwt>
<totfact> 0.16318990E+00</totfact>
</mgrwt>
</event>
<event>
 4    1  0.2878104E-007  0.1103267E+04  0.7818608E-02  0.9257427E-01
         -2   -1    0    0    0  501 -0.00000000000E+00  0.00000000000E+00  0.73096403965E+03  0.73096403965E+03  0.25500000000E-02 0.  1.
          2   -1    0    0  501    0  0.00000000000E+00 -0.00000000000E+00 -0.22270800808E+04  0.22270800808E+04  0.25500000000E-02 0. -1.
    8880023    1    1    2    0    0 -0.77200791807E+03  0.43288823733E+03  0.11930876382E+03  0.11096996166E+04  0.65864270000E+03 0.  1.
    8880022    1    1    2    0    0  0.77200791807E+03 -0.43288823733E+03 -0.16154248050E+04  0.18483445039E+04  0.15294330000E+03 0.  0.
<mgrwt>
<rscale>  0 0.10479847E+04</rscale>
<asrwt>0</asrwt>
<pdfrwt beam="1">  1        2 0.34262770E+00 0.11032673E+04</pdfrwt>
<pdfrwt beam="2">  1       -2 0.11245601E+00 0.11032673E+04</pdfrwt>
<totfact> 0.30730486E+00</totfact>
</mgrwt>
</event>
<event>
 4    1  0.2878104E-007  0.6877741E+03  0.7818608E-02  0.1005229E+00
          2   -1    0    0  501    0  0.00000000000E+00  0.00000000000E+00  0.25525564971E+04  0.25525564971E+04  0.25500000000E-02 0. -1.
         -2   -1    0    0    0  501 -0.00000000000E+00 -0.00000000000E+00 -0.32266847854E+03  0.32266847855E+03  0.25500000000E-02 0.  1.
    8880023    1    1    2    0    0 -0.59058256591E+02  0.18903725115E+03  0.59371209251E+02  0.69033188159E+03  0.65864270000E+03 0.  1.
    8880022    1    1    2    0    0  0.59058256591E+02 -0.18903725115E+03  0.21705168093E+04  0.21848930940E+04  0.15294330000E+03 0.  0.
<mgrwt>
<rscale>  0 0.53415686E+03</rscale>
<asrwt>0</asrwt>
<pdfrwt beam="1">  1        2 0.39270100E+00 0.68777407E+03</pdfrwt>
<pdfrwt beam="2">  1       -2 0.49641304E-01 0.68777407E+03</pdfrwt>
<totfact> 0.13209946E+01</totfact>
</mgrwt>
</event>
<event>
 4    1  0.2878104E-007  0.8810310E+03  0.7818608E-02  0.9557196E-01
         -2   -1    0    0    0  501 -0.00000000000E+00  0.00000000000E+00  0.68255171321E+03  0.68255171322E+03  0.25500000000E-02 0.  1.
          2   -1    0    0  501    0  0.00000000000E+00 -0.00000000000E+00 -0.10301129334E+04  0.10301129334E+04  0.25500000000E-02 0. -1.
    8880023    1    1    2    0    0 -0.44215653513E+03  0.38327926575E+03  0.19250881710E+03  0.90181774658E+03  0.65864270000E+03 0.  0.
    8880022    1    1    2    0    0  0.44215653513E+03 -0.38327926575E+03 -0.54007003728E+03  0.81084690003E+03  0.15294330000E+03 0.  0.
<mgrwt>
<rscale>  0 0.80195207E+03</rscale>
<asrwt>0</asrwt>
<pdfrwt beam="1">  1        2 0.15847891E+00 0.88103099E+03</pdfrwt>
<pdfrwt beam="2">  1       -2 0.10500796E+00 0.88103099E+03</pdfrwt>
<totfact> 0.17777323E+01</totfact>
</mgrwt>
</event>
<event>
 4    1  0.2878104E-007  0.1127185E+04  0.7818608E-02  0.9231376E-01
          2   -1    0    0  501    0  0.00000000000E+00  0.00000000000E+00  0.29234939562E+04  0.29234939562E+04  0.25500000000E-02 0. -1.
         -2   -1    0    0    0  501 -0.00000000000E+00 -0.00000000000E+00 -0.47634235788E+03  0.47634235789E+03  0.25500000000E-02 0.  1.
    8880023    1    1    2    0    0 -0.28240923436E+02 -0.91429647591E+03  0.48021041220E+03  0.12252133863E+04  0.65864270000E+03 0.  1.
    8880022    1    1    2    0    0  0.28240923436E+02  0.91429647591E+03  0.19669411862E+04  0.21746229279E+04  0.15294330000E+03 0.  0.
<mgrwt>
<rscale>  0 0.10735362E+04</rscale>
<asrwt>0</asrwt>
<pdfrwt beam="1">  1        2 0.44976829E+00 0.11271849E+04</pdfrwt>
<pdfrwt beam="2">  1       -2 0.73283442E-01 0.11271849E+04</pdfrwt>
<totfact> 0.32735103E+00</totfact>
</mgrwt>
</event>
<event>
 4    1  0.2878104E-007  0.1094072E+04  0.7818608E-02  0.9267685E-01
          2   -1    0    0  501    0  0.00000000000E+00  0.00000000000E+00  0.99062287379E+03  0.99062287379E+03  0.25500000000E-02 0. -1.
         -2   -1    0    0    0  501 -0.00000000000E+00 -0.00000000000E+00 -0.15571532223E+04  0.15571532223E+04  0.25500000000E-02 0.  1.
    8880023    1    1    2    0    0  0.86812437524E+03 -0.97687601065E+02 -0.10680031854E+04  0.15289289744E+04  0.65864270000E+03 0. -1.
    8880022    1    1    2    0    0 -0.86812437524E+03  0.97687601065E+02  0.50147283691E+03  0.10188471217E+04  0.15294330000E+03 0.  0.
<mgrwt>
<rscale>  0 0.10381302E+04</rscale>
<asrwt>0</asrwt>
<pdfrwt beam="1">  1        2 0.15240352E+00 0.10940718E+04</pdfrwt>
<pdfrwt beam="2">  1       -2 0.23956203E+00 0.10940718E+04</pdfrwt>
<totfact> 0.18748317E+00</totfact>
</mgrwt>
</event>
<event>
 4    1  0.2878104E-007  0.8189122E+03  0.7818608E-02  0.9671304E-01
          2   -1    0    0  501    0  0.00000000000E+00  0.00000000000E+00  0.15362617424E+04  0.15362617425E+04  0.25500000000E-02 0. -1.
         -2   -1    0    0    0  501 -0.00000000000E+00 -0.00000000000E+00 -0.60503395344E+03  0.60503395344E+03  0.25500000000E-02 0.  1.
    8880023    1    1    2    0    0  0.26070444874E+03 -0.41090174062E+03 -0.24868641130E+03  0.85584004783E+03  0.65864270000E+03 0.  1.
    8880022    1    1    2    0    0 -0.26070444874E+03  0.41090174062E+03  0.11799142003E+04  0.12854556481E+04  0.15294330000E+03 0.  0.
<mgrwt>
<rscale>  0 0.72751368E+03</rscale>
<asrwt>0</asrwt>
<pdfrwt beam="1">  1        2 0.23634796E+00 0.81891224E+03</pdfrwt>
<pdfrwt beam="2">  1       -2 0.93082146E-01 0.81891224E+03</pdfrwt>
<totfact> 0.12028616E+01</totfact>
</mgrwt>
</event>
<event>
 4    1  0.2878104E-007  0.9676921E+03  0.7818608E-02  0.9425103E-01
          2   -1    0    0  501    0  0.00000000000E+00  0.00000000000E+00  0.13600988698E+04  0.13600988698E+04  0.25500000000E-02 0. -1.
         -2   -1    0    0    0  501 -0.00000000000E+00 -0.00000000000E+00 -0.11202179050E+04  0.11202179050E+04  0.25500000000E-02 0.  1.
    8880023    1    1    2    0    0 -0.69689711012E+03 -0.13020095731E+03 -0.77022780029E+03  0.12368019009E+04  0.65864270000E+03 0.  0.
    8880022    1    1    2    0    0  0.69689711012E+03  0.13020095731E+03  0.10101087651E+04  0.12435148739E+04  0.15294330000E+03 0.  0.
<mgrwt>
<rscale>  0 0.90038264E+03</rscale>
<asrwt>0</asrwt>
<pdfrwt beam="1">  1        2 0.20924598E+00 0.96769214E+03</pdfrwt>
<pdfrwt beam="2">  1       -2 0.17234122E+00 0.96769214E+03</pdfrwt>
<totfact> 0.31159511E+00</totfact>
</mgrwt>
</event>
<event>
 4    1  0.2878104E-007  0.8093640E+03  0.7818608E-02  0.9690903E-01
          2   -1    0    0  501    0  0.00000000000E+00  0.00000000000E+00  0.96141694479E+03  0.96141694479E+03  0.25500000000E-02 0. -1.
         -2   -1    0    0    0  501 -0.00000000000E+00 -0.00000000000E+00 -0.82448734750E+03  0.82448734751E+03  0.25500000000E-02 0.  1.
    8880023    1    1    2    0    0  0.43728952703E+03  0.17331400070E+03 -0.52117308781E+03  0.96264815328E+03  0.65864270000E+03 0.  1.
    8880022    1    1    2    0    0 -0.43728952703E+03 -0.17331400070E+03  0.65810268509E+03  0.82325613902E+03  0.15294330000E+03 0.  0.
<mgrwt>
<rscale>  0 0.71561000E+03</rscale>
<asrwt>0</asrwt>
<pdfrwt beam="1">  1        2 0.14791030E+00 0.80936400E+03</pdfrwt>
<pdfrwt beam="2">  1       -2 0.12684421E+00 0.80936400E+03</pdfrwt>
<totfact> 0.12457272E+01</totfact>
</mgrwt>
</event>
<event>
 4    1  0.2878104E-007  0.8267744E+03  0.7818608E-02  0.9655641E-01
         -2   -1    0    0    0  501 -0.00000000000E+00  0.00000000000E+00  0.78178584574E+03  0.78178584574E+03  0.25500000000E-02 0.  1.
          2   -1    0    0  501    0  0.00000000000E+00 -0.00000000000E+00 -0.18853862439E+04  0.18853862439E+04  0.25500000000E-02 0. -1.
    8880023    1    1    2    0    0 -0.38879921998E+03  0.31397594323E+03  0.50974698067E+03  0.97128673262E+03  0.65864270000E+03 0.  0.
    8880022    1    1    2    0    0  0.38879921998E+03 -0.31397594323E+03 -0.16133473789E+04  0.16958853570E+04  0.15294330000E+03 0.  0.
<mgrwt>
<rscale>  0 0.73720439E+03</rscale>
<asrwt>0</asrwt>
<pdfrwt beam="1">  1        2 0.29005942E+00 0.82677441E+03</pdfrwt>
<pdfrwt beam="2">  1       -2 0.12027475E+00 0.82677441E+03</pdfrwt>
<totfact> 0.41714058E+00</totfact>
</mgrwt>
</event>
<event>
 4    1  0.2878104E-007  0.1253959E+04  0.7818608E-02  0.9106376E-01
          2   -1    0    0  501    0  0.00000000000E+00  0.00000000000E+00  0.22049756704E+04  0.22049756704E+04  0.25500000000E-02 0. -1.
         -2   -1    0    0    0  501 -0.00000000000E+00 -0.00000000000E+00 -0.14021244644E+04  0.14021244644E+04  0.25500000000E-02 0.  1.
    8880023    1    1    2    0    0  0.48882697122E+03 -0.94849880479E+03 -0.93355157683E+03  0.15633075652E+04  0.65864270000E+03 0.  1.
    8880022    1    1    2    0    0 -0.48882697122E+03  0.94849880479E+03  0.17364027828E+04  0.20437925696E+04  0.15294330000E+03 0.  0.
<mgrwt>
<rscale>  0 0.12074324E+04</rscale>
<asrwt>0</asrwt>
<pdfrwt beam="1">  1        2 0.33922703E+00 0.12539585E+04</pdfrwt>
<pdfrwt beam="2">  1       -2 0.21571146E+00 0.12539585E+04</pdfrwt>
<totfact> 0.52157955E-01</totfact>
</mgrwt>
</event>
<event>
 4    1  0.2878104E-007  0.6946786E+03  0.7818608E-02  0.1002004E+00
          2   -1    0    0  501    0  0.00000000000E+00  0.00000000000E+00  0.45465206994E+03  0.45465206995E+03  0.25500000000E-02 0. -1.
         -2   -1    0    0    0  501 -0.00000000000E+00 -0.00000000000E+00 -0.17109166965E+04  0.17109166965E+04  0.25500000000E-02 0.  1.
    8880023    1    1    2    0    0 -0.18827481716E+03  0.11541540835E+03 -0.15911931424E+04  0.17362240483E+04  0.65864270000E+03 0.  1.
    8880022    1    1    2    0    0  0.18827481716E+03 -0.11541540835E+03  0.33492851583E+03  0.42934471814E+03  0.15294330000E+03 0.  0.
<mgrwt>
<rscale>  0 0.54780353E+03</rscale>
<asrwt>0</asrwt>
<pdfrwt beam="1">  1        2 0.69946473E-01 0.69467858E+03</pdfrwt>
<pdfrwt beam="2">  1       -2 0.26321795E+00 0.69467858E+03</pdfrwt>
<totfact> 0.38115284E+00</totfact>
</mgrwt>
</event>
<event>
 4    1  0.2878104E-007  0.8922987E+03  0.7818608E-02  0.9538510E-01
         -2   -1    0    0    0  501 -0.00000000000E+00  0.00000000000E+00  0.64220542392E+03  0.64220542393E+03  0.25500000000E-02 0.  1.
          2   -1    0    0  501    0  0.00000000000E+00 -0.00000000000E+00 -0.23940690144E+04  0.23940690144E+04  0.25500000000E-02 0. -1.
    8880023    1    1    2    0    0 -0.23339069063E+03  0.55490135260E+03  0.26105997477E+03  0.92970384655E+03  0.65864270000E+03 0.  0.
    8880022    1    1    2    0    0  0.23339069063E+03 -0.55490135260E+03 -0.20129235653E+04  0.21065705918E+04  0.15294330000E+03 0.  0.
<mgrwt>
<rscale>  0 0.81503249E+03</rscale>
<asrwt>0</asrwt>
<pdfrwt beam="1">  1        2 0.36831830E+00 0.89229868E+03</pdfrwt>
<pdfrwt beam="2">  1       -2 0.98800836E-01 0.89229868E+03</pdfrwt>
<totfact> 0.34817229E+00</totfact>
</mgrwt>
</event>
<event>
 4    1  0.2878104E-007  0.1333699E+04  0.7818608E-02  0.9036992E-01
         -2   -1    0    0    0  501 -0.00000000000E+00  0.00000000000E+00  0.12458068965E+04  0.12458068965E+04  0.25500000000E-02 0.  1.
          2   -1    0    0  501    0  0.00000000000E+00 -0.00000000000E+00 -0.26487606869E+04  0.26487606869E+04  0.25500000000E-02 0. -1.
    8880023    1    1    2    0    0 -0.10575340807E+04 -0.47598656608E+03  0.68646064714E+03  0.14999933231E+04  0.65864270000E+03 0.  0.
    8880022    1    1    2    0    0  0.10575340807E+04  0.47598656608E+03 -0.20894144376E+04  0.23945742603E+04  0.15294330000E+03 0.  0.
<mgrwt>
<rscale>  0 0.12906760E+04</rscale>
<asrwt>0</asrwt>
<pdfrwt beam="1">  1        2 0.40750164E+00 0.13336985E+04</pdfrwt>
<pdfrwt beam="2">  1       -2 0.19166260E+00 0.13336985E+04</pdfrwt>
<totfact> 0.41311230E-01</totfact>
</mgrwt>
</event>
<event>
 4    1  0.2878104E-007  0.1621195E+04  0.7818608E-02  0.8828481E-01
          2   -1    0    0  501    0  0.00000000000E+00  0.00000000000E+00  0.13811855727E+04  0.13811855727E+04  0.25500000000E-02 0. -1.
         -2   -1    0    0    0  501 -0.00000000000E+00 -0.00000000000E+00 -0.29192609951E+04  0.29192609951E+04  0.25500000000E-02 0.  1.
    8880023    1    1    2    0    0 -0.14397723245E+04 -0.34859561796E+03 -0.21480102527E+04  0.26911375853E+04  0.65864270000E+03 0.  1.
    8880022    1    1    2    0    0  0.14397723245E+04  0.34859561796E+03  0.60993483022E+03  0.16093089825E+04  0.15294330000E+03 0.  0.
<mgrwt>
<rscale>  0 0.15871505E+04</rscale>
<asrwt>0</asrwt>
<pdfrwt beam="1">  1        2 0.21249009E+00 0.16211951E+04</pdfrwt>
<pdfrwt beam="2">  1       -2 0.44911708E+00 0.16211951E+04</pdfrwt>
<totfact> 0.48447440E-02</totfact>
</mgrwt>
</event>
<event>
 4    1  0.2878104E-007  0.1017458E+04  0.7818608E-02  0.9359066E-01
          2   -1    0    0  501    0  0.00000000000E+00  0.00000000000E+00  0.18283232376E+04  0.18283232376E+04  0.25500000000E-02 0. -1.
         -2   -1    0    0    0  501 -0.00000000000E+00 -0.00000000000E+00 -0.57000137850E+03  0.57000137850E+03  0.25500000000E-02 0.  1.
    8880023    1    1    2    0    0  0.75058538126E+03 -0.19501655897E+03  0.13734371867E+03  0.10266856267E+04  0.65864270000E+03 0.  0.
    8880022    1    1    2    0    0 -0.75058538126E+03  0.19501655897E+03  0.11209781404E+04  0.13716389894E+04  0.15294330000E+03 0.  0.
<mgrwt>
<rscale>  0 0.95522354E+03</rscale>
<asrwt>0</asrwt>
<pdfrwt beam="1">  1        2 0.28128050E+00 0.10174577E+04</pdfrwt>
<pdfrwt beam="2">  1       -2 0.87692520E-01 0.10174577E+04</pdfrwt>
<totfact> 0.93137392E+00</totfact>
</mgrwt>
</event>
<event>
 4    1  0.2878104E-007  0.7183625E+03  0.7818608E-02  0.9928166E-01
          2   -1    0    0  501    0  0.00000000000E+00  0.00000000000E+00  0.15178404639E+04  0.15178404639E+04  0.25500000000E-02 0. -1.
         -2   -1    0    0    0  501 -0.00000000000E+00 -0.00000000000E+00 -0.60153999140E+03  0.60153999140E+03  0.25500000000E-02 0.  1.
    8880023    1    1    2    0    0  0.19190557689E+03 -0.21308858252E+03 -0.35917403232E+03  0.80315047544E+03  0.65864270000E+03 0.  1.
    8880022    1    1    2    0    0 -0.19190557689E+03  0.21308858252E+03  0.12754745048E+04  0.13162299798E+04  0.15294330000E+03 0.  0.
<mgrwt>
<rscale>  0 0.58915447E+03</rscale>
<asrwt>0</asrwt>
<pdfrwt beam="1">  1        2 0.23351392E+00 0.71836251E+03</pdfrwt>
<pdfrwt beam="2">  1       -2 0.92544614E-01 0.71836251E+03</pdfrwt>
<totfact> 0.12645404E+01</totfact>
</mgrwt>
</event>
<event>
 4    1  0.2878104E-007  0.1006324E+04  0.7818608E-02  0.9373330E-01
         -2   -1    0    0    0  501 -0.00000000000E+00  0.00000000000E+00  0.78276173954E+03  0.78276173954E+03  0.25500000000E-02 0.  1.
          2   -1    0    0  501    0  0.00000000000E+00 -0.00000000000E+00 -0.10926409430E+04  0.10926409430E+04  0.25500000000E-02 0. -1.
    8880023    1    1    2    0    0 -0.75073887863E+03 -0.12356664857E+03  0.75059388311E+02  0.10091192688E+04  0.65864270000E+03 0.  0.
    8880022    1    1    2    0    0  0.75073887863E+03  0.12356664857E+03 -0.38493859174E+03  0.86628341376E+03  0.15294330000E+03 0.  0.
<mgrwt>
<rscale>  0 0.94303362E+03</rscale>
<asrwt>0</asrwt>
<pdfrwt beam="1">  1        2 0.16809861E+00 0.10063239E+04</pdfrwt>
<pdfrwt beam="2">  1       -2 0.12042488E+00 0.10063239E+04</pdfrwt>
<totfact> 0.11494990E+01</totfact>
</mgrwt>
</event>
<event>
 4    1  0.4109694E-007  0.9960701E+03  0.7818608E-02  0.9386717E-01
          2   -1    0    0  501    0  0.00000000000E+00  0.00000000000E+00  0.22514648333E+04  0.22514648333E+04  0.25500000000E-02 0. -1.
         -2   -1    0    0    0  501 -0.00000000000E+00 -0.00000000000E+00 -0.15911943302E+04  0.15911943302E+04  0.25500000000E-02 0.  1.
    8880023    1    1    2    0    0 -0.44725489863E+03  0.59858879489E+03 -0.13585403114E+04  0.16845733803E+04  0.65864270000E+03 0.  0.
    8880022    1    1    2    0    0  0.44725489863E+03 -0.59858879489E+03  0.20188108145E+04  0.21580857832E+04  0.15294330000E+03 0. -1.
<mgrwt>
<rscale>  0 0.93176906E+03</rscale>
<asrwt>0</asrwt>
<pdfrwt beam="1">  1        2 0.34637920E+00 0.99607013E+03</pdfrwt>
<pdfrwt beam="2">  1       -2 0.24479913E+00 0.99607013E+03</pdfrwt>
<totfact> 0.33652198E-01</totfact>
</mgrwt>
</event>
<event>
 4    1  0.2878104E-007  0.7632692E+03  0.7818608E-02  0.9796716E-01
         -2   -1    0    0    0  501 -0.00000000000E+00  0.00000000000E+00  0.26528864333E+03  0.26528864334E+03  0.25500000000E-02 0.  1.
          2   -1    0    0  501    0  0.00000000000E+00 -0.00000000000E+00 -0.15017972024E+04  0.15017972024E+04  0.25500000000E-02 0. -1.
    8880023    1    1    2    0    0  0.20787056889E+03 -0.32489931389E+03 -0.47251720267E+03  0.89769284873E+03  0.65864270000E+03 0.  0.
    8880022    1    1    2    0    0 -0.20787056889E+03  0.32489931389E+03 -0.76399135642E+03  0.86939299702E+03  0.15294330000E+03 0.  0.
<mgrwt>
<rscale>  0 0.65539073E+03</rscale>
<asrwt>0</asrwt>
<pdfrwt beam="1">  1        2 0.23104572E+00 0.76326925E+03</pdfrwt>
<pdfrwt beam="2">  1       -2 0.40813638E-01 0.76326925E+03</pdfrwt>
<totfact> 0.73339733E+01</totfact>
</mgrwt>
</event>
<event>
 4    1  0.2878104E-007  0.8072906E+03  0.7818608E-02  0.9695248E-01
         -2   -1    0    0    0  501 -0.00000000000E+00  0.00000000000E+00  0.65027722844E+03  0.65027722845E+03  0.25500000000E-02 0.  1.
          2   -1    0    0  501    0  0.00000000000E+00 -0.00000000000E+00 -0.13542751537E+04  0.13542751537E+04  0.25500000000E-02 0. -1.
    8880023    1    1    2    0    0  0.27382158825E+03  0.37806029700E+03  0.32033667374E+03  0.86852382878E+03  0.65864270000E+03 0.  1.
    8880022    1    1    2    0    0 -0.27382158825E+03 -0.37806029700E+03 -0.10243345990E+04  0.11360285534E+04  0.15294330000E+03 0.  0.
<mgrwt>
<rscale>  0 0.71300399E+03</rscale>
<asrwt>0</asrwt>
<pdfrwt beam="1">  1        2 0.20835002E+00 0.80729057E+03</pdfrwt>
<pdfrwt beam="2">  1       -2 0.10004265E+00 0.80729057E+03</pdfrwt>
<totfact> 0.12874641E+01</totfact>
</mgrwt>
</event>
<event>
 4    1  0.2878104E-007  0.1255420E+04  0.7818608E-02  0.9105046E-01
          2   -1    0    0  501    0  0.00000000000E+00  0.00000000000E+00  0.27932803260E+04  0.27932803260E+04  0.25500000000E-02 0. -1.
         -2   -1    0    0    0  501 -0.00000000000E+00 -0.00000000000E+00 -0.65380462434E+03  0.65380462435E+03  0.25500000000E-02 0.  1.
    8880023    1    1    2    0    0 -0.46536542114E+03 -0.96213544045E+03  0.26374774131E+03  0.12828260437E+04  0.65864270000E+03 0.  0.
    8880022    1    1    2    0    0  0.46536542114E+03  0.96213544045E+03  0.18757279604E+04  0.21642589067E+04  0.15294330000E+03 0.  0.
<mgrwt>
<rscale>  0 0.12089640E+04</rscale>
<asrwt>0</asrwt>
<pdfrwt beam="1">  1        2 0.42973542E+00 0.12554202E+04</pdfrwt>
<pdfrwt beam="2">  1       -2 0.10058533E+00 0.12554202E+04</pdfrwt>
<totfact> 0.18643598E+00</totfact>
</mgrwt>
</event>
<event>
 4    1  0.2878104E-007  0.7190307E+03  0.7818608E-02  0.9925879E-01
          2   -1    0    0  501    0  0.00000000000E+00  0.00000000000E+00  0.13077546798E+04  0.13077546798E+04  0.25500000000E-02 0. -1.
         -2   -1    0    0    0  501 -0.00000000000E+00 -0.00000000000E+00 -0.28216767584E+03  0.28216767585E+03  0.25500000000E-02 0.  1.
    8880023    1    1    2    0    0 -0.27196932663E+03 -0.96060692334E+02  0.27218302201E+03  0.76882298026E+03  0.65864270000E+03 0.  0.
    8880022    1    1    2    0    0  0.27196932663E+03  0.96060692334E+02  0.75340398197E+03  0.82109937541E+03  0.15294330000E+03 0.  0.
<mgrwt>
<rscale>  0 0.59023291E+03</rscale>
<asrwt>0</asrwt>
<pdfrwt beam="1">  1        2 0.20119303E+00 0.71903072E+03</pdfrwt>
<pdfrwt beam="2">  1       -2 0.43410412E-01 0.71903072E+03</pdfrwt>
<totfact> 0.83954660E+01</totfact>
</mgrwt>
</event>
<event>
 4    1  0.2878104E-007  0.1286119E+04  0.7818608E-02  0.9077641E-01
          2   -1    0    0  501    0  0.00000000000E+00  0.00000000000E+00  0.34895380337E+04  0.34895380337E+04  0.25500000000E-02 0. -1.
         -2   -1    0    0    0  501 -0.00000000000E+00 -0.00000000000E+00 -0.56626871114E+03  0.56626871114E+03  0.25500000000E-02 0.  1.
    8880023    1    1    2    0    0  0.10511379877E+04 -0.33970569807E+03  0.48486006838E+03  0.13744782729E+04  0.65864270000E+03 0.  0.
    8880022    1    1    2    0    0 -0.10511379877E+04  0.33970569807E+03  0.24384092542E+04  0.26813284720E+04  0.15294330000E+03 0.  0.
<mgrwt>
<rscale>  0 0.12410792E+04</rscale>
<asrwt>0</asrwt>
<pdfrwt beam="1">  1        2 0.53685201E+00 0.12861187E+04</pdfrwt>
<pdfrwt beam="2">  1       -2 0.87118262E-01 0.12861187E+04</pdfrwt>
<totfact> 0.93250047E-01</totfact>
</mgrwt>
</event>
<event>
 4    1  0.2878104E-007  0.6941627E+03  0.7818608E-02  0.1002234E+00
          2   -1    0    0  501    0  0.00000000000E+00  0.00000000000E+00  0.21042476070E+03  0.21042476072E+03  0.25500000000E-02 0. -1.
         -2   -1    0    0    0  501 -0.00000000000E+00 -0.00000000000E+00 -0.15680164715E+04  0.15680164715E+04  0.25500000000E-02 0.  1.
    8880023    1    1    2    0    0 -0.11014466398E+03 -0.18952509183E+03 -0.13417538585E+04  0.15106836964E+04  0.65864270000E+03 0.  1.
    8880022    1    1    2    0    0  0.11014466398E+03  0.18952509183E+03 -0.15837852332E+02  0.26775753587E+03  0.15294330000E+03 0.  0.
<mgrwt>
<rscale>  0 0.54681586E+03</rscale>
<asrwt>0</asrwt>
<pdfrwt beam="1">  1        2 0.32373041E-01 0.69416267E+03</pdfrwt>
<pdfrwt beam="2">  1       -2 0.24123330E+00 0.69416267E+03</pdfrwt>
<totfact> 0.12243788E+01</totfact>
</mgrwt>
</event>
<event>
 4    1  0.2878104E-007  0.8157680E+03  0.7818608E-02  0.9677685E-01
         -2   -1    0    0    0  501 -0.00000000000E+00  0.00000000000E+00  0.25989216141E+03  0.25989216142E+03  0.25500000000E-02 0.  1.
          2   -1    0    0  501    0  0.00000000000E+00 -0.00000000000E+00 -0.23369863786E+04  0.23369863786E+04  0.25500000000E-02 0. -1.
    8880023    1    1    2    0    0 -0.47618537336E+03 -0.70104626445E+02 -0.53839705872E+03  0.97741944300E+03  0.65864270000E+03 0.  0.
    8880022    1    1    2    0    0  0.47618537336E+03  0.70104626445E+02 -0.15386971585E+04  0.16194590971E+04  0.15294330000E+03 0.  0.
<mgrwt>
<rscale>  0 0.72361078E+03</rscale>
<asrwt>0</asrwt>
<pdfrwt beam="1">  1        2 0.35953635E+00 0.81576797E+03</pdfrwt>
<pdfrwt beam="2">  1       -2 0.39983411E-01 0.81576797E+03</pdfrwt>
<totfact> 0.26360722E+01</totfact>
</mgrwt>
</event>
<event>
 4    1  0.2878104E-007  0.9820571E+03  0.7818608E-02  0.9405418E-01
          2   -1    0    0  501    0  0.00000000000E+00  0.00000000000E+00  0.28010175032E+04  0.28010175032E+04  0.25500000000E-02 0. -1.
         -2   -1    0    0    0  501 -0.00000000000E+00 -0.00000000000E+00 -0.29423496291E+03  0.29423496292E+03  0.25500000000E-02 0.  1.
    8880023    1    1    2    0    0  0.66276887258E+03  0.30226368156E+03  0.93422605312E+03  0.13554388353E+04  0.65864270000E+03 0.  1.
    8880022    1    1    2    0    0 -0.66276887258E+03 -0.30226368156E+03  0.15725564872E+04  0.17398136308E+04  0.15294330000E+03 0. -1.
<mgrwt>
<rscale>  0 0.91631119E+03</rscale>
<asrwt>0</asrwt>
<pdfrwt beam="1">  1        2 0.43092576E+00 0.98205708E+03</pdfrwt>
<pdfrwt beam="2">  1       -2 0.45266918E-01 0.98205708E+03</pdfrwt>
<totfact> 0.10909205E+01</totfact>
</mgrwt>
</event>
<event>
 4    1  0.2878104E-007  0.6743194E+03  0.7818608E-02  0.1012739E+00
         -2   -1    0    0    0  501 -0.00000000000E+00  0.00000000000E+00  0.66681370462E+03  0.66681370462E+03  0.25500000000E-02 0.  1.
          2   -1    0    0  501    0  0.00000000000E+00 -0.00000000000E+00 -0.59172472966E+03  0.59172472967E+03  0.25500000000E-02 0. -1.
    8880023    1    1    2    0    0 -0.73076398962E+02  0.12472495048E+03  0.46247964157E+03  0.81767603517E+03  0.65864270000E+03 0.  1.
    8880022    1    1    2    0    0  0.73076398962E+02 -0.12472495048E+03 -0.38739066662E+03  0.44086239912E+03  0.15294330000E+03 0.  0.
<mgrwt>
<rscale>  0 0.50400537E+03</rscale>
<asrwt>0</asrwt>
<pdfrwt beam="1">  1        2 0.91034574E-01 0.67431942E+03</pdfrwt>
<pdfrwt beam="2">  1       -2 0.10258672E+00 0.67431942E+03</pdfrwt>
<totfact> 0.39927084E+01</totfact>
</mgrwt>
</event>
<event>
 4    1  0.2878104E-007  0.8577569E+03  0.7818608E-02  0.9597566E-01
          2   -1    0    0  501    0  0.00000000000E+00  0.00000000000E+00  0.32730327161E+04  0.32730327161E+04  0.25500000000E-02 0. -1.
         -2   -1    0    0    0  501 -0.00000000000E+00 -0.00000000000E+00 -0.16431963530E+03  0.16431963532E+03  0.25500000000E-02 0.  1.
    8880023    1    1    2    0    0  0.24745299918E+03 -0.49061561911E+03  0.22349819237E+04  0.23939279601E+04  0.65864270000E+03 0. -1.
    8880022    1    1    2    0    0 -0.24745299918E+03  0.49061561911E+03  0.87373115708E+03  0.10434243913E+04  0.15294330000E+03 0.  0.
<mgrwt>
<rscale>  0 0.77457486E+03</rscale>
<asrwt>0</asrwt>
<pdfrwt beam="1">  1        2 0.50354349E+00 0.85775689E+03</pdfrwt>
<pdfrwt beam="2">  1       -2 0.25279944E-01 0.85775689E+03</pdfrwt>
<totfact> 0.17126578E+01</totfact>
</mgrwt>
</event>
<event>
 4    1  0.2878104E-007  0.7090435E+03  0.7818608E-02  0.9961570E-01
         -2   -1    0    0    0  501 -0.00000000000E+00  0.00000000000E+00  0.30360796907E+03  0.30360796908E+03  0.25500000000E-02 0.  1.
          2   -1    0    0  501    0  0.00000000000E+00 -0.00000000000E+00 -0.16869430008E+04  0.16869430008E+04  0.25500000000E-02 0. -1.
    8880023    1    1    2    0    0 -0.23772209774E+03  0.11144826547E+03 -0.15578607639E+03  0.72595593495E+03  0.65864270000E+03 0.  0.
    8880022    1    1    2    0    0  0.23772209774E+03 -0.11144826547E+03 -0.12275489553E+04  0.12645950349E+04  0.15294330000E+03 0.  0.
<mgrwt>
<rscale>  0 0.57367919E+03</rscale>
<asrwt>0</asrwt>
<pdfrwt beam="1">  1        2 0.25952969E+00 0.70904352E+03</pdfrwt>
<pdfrwt beam="2">  1       -2 0.46708919E-01 0.70904352E+03</pdfrwt>
<totfact> 0.44630692E+01</totfact>
</mgrwt>
</event>
<event>
 4    1  0.2878104E-007  0.1029586E+04  0.7818608E-02  0.9343834E-01
          2   -1    0    0  501    0  0.00000000000E+00  0.00000000000E+00  0.27307412219E+04  0.27307412219E+04  0.25500000000E-02 0. -1.
         -2   -1    0    0    0  501 -0.00000000000E+00 -0.00000000000E+00 -0.40546286751E+03  0.40546286752E+03  0.25500000000E-02 0.  1.
    8880023    1    1    2    0    0 -0.14306606630E+03 -0.77831209348E+03  0.50775171323E+03  0.11479806718E+04  0.65864270000E+03 0.  1.
    8880022    1    1    2    0    0  0.14306606630E+03  0.77831209348E+03  0.18175266412E+04  0.19882234177E+04  0.15294330000E+03 0.  0.
<mgrwt>
<rscale>  0 0.96845678E+03</rscale>
<asrwt>0</asrwt>
<pdfrwt beam="1">  1        2 0.42011403E+00 0.10295862E+04</pdfrwt>
<pdfrwt beam="2">  1       -2 0.62378903E-01 0.10295862E+04</pdfrwt>
<totfact> 0.61447030E+00</totfact>
</mgrwt>
</event>
<event>
 4    1  0.2878104E-007  0.9266899E+03  0.7818608E-02  0.9484477E-01
         -2   -1    0    0    0  501 -0.00000000000E+00  0.00000000000E+00  0.78148703795E+03  0.78148703796E+03  0.25500000000E-02 0.  1.
          2   -1    0    0  501    0  0.00000000000E+00 -0.00000000000E+00 -0.11891484335E+04  0.11891484335E+04  0.25500000000E-02 0. -1.
    8880023    1    1    2    0    0 -0.62683345691E+03 -0.17895204344E+03  0.32131634242E+03  0.98081517868E+03  0.65864270000E+03 0.  1.
    8880022    1    1    2    0    0  0.62683345691E+03  0.17895204344E+03 -0.72897773800E+03  0.98982029282E+03  0.15294330000E+03 0.  0.
<mgrwt>
<rscale>  0 0.85438033E+03</rscale>
<asrwt>0</asrwt>
<pdfrwt beam="1">  1        2 0.18294591E+00 0.92668993E+03</pdfrwt>
<pdfrwt beam="2">  1       -2 0.12022877E+00 0.92668993E+03</pdfrwt>
<totfact> 0.10158085E+01</totfact>
</mgrwt>
</event>
<event>
 4    1  0.2878104E-007  0.1148238E+04  0.7818608E-02  0.9209158E-01
         -2   -1    0    0    0  501 -0.00000000000E+00  0.00000000000E+00  0.11248303666E+04  0.11248303666E+04  0.25500000000E-02 0.  1.
          2   -1    0    0  501    0  0.00000000000E+00 -0.00000000000E+00 -0.14519714973E+04  0.14519714973E+04  0.25500000000E-02 0. -1.
    8880023    1    1    2    0    0 -0.88188282485E+03 -0.32699157681E+03  0.55762431256E+03  0.12764779232E+04  0.65864270000E+03 0.  1.
    8880022    1    1    2    0    0  0.88188282485E+03  0.32699157681E+03 -0.88476544325E+03  0.13003239407E+04  0.15294330000E+03 0.  0.
<mgrwt>
<rscale>  0 0.10959397E+04</rscale>
<asrwt>0</asrwt>
<pdfrwt beam="1">  1        2 0.22338023E+00 0.11482382E+04</pdfrwt>
<pdfrwt beam="2">  1       -2 0.17305083E+00 0.11482382E+04</pdfrwt>
<totfact> 0.26746621E+00</totfact>
</mgrwt>
</event>
<event>
 4    1  0.2878104E-007  0.1096168E+04  0.7818608E-02  0.9265335E-01
          2   -1    0    0  501    0  0.00000000000E+00  0.00000000000E+00  0.27906169795E+04  0.27906169795E+04  0.25500000000E-02 0. -1.
         -2   -1    0    0    0  501 -0.00000000000E+00 -0.00000000000E+00 -0.93528350951E+03  0.93528350951E+03  0.25500000000E-02 0.  1.
    8880023    1    1    2    0    0 -0.75994118746E+03 -0.43619124965E+03 -0.50251144728E+03  0.12058612588E+04  0.65864270000E+03 0.  1.
    8880022    1    1    2    0    0  0.75994118746E+03  0.43619124965E+03  0.23578449173E+04  0.25200392302E+04  0.15294330000E+03 0.  0.
<mgrwt>
<rscale>  0 0.10403779E+04</rscale>
<asrwt>0</asrwt>
<pdfrwt beam="1">  1        2 0.42932569E+00 0.10961677E+04</pdfrwt>
<pdfrwt beam="2">  1       -2 0.14388977E+00 0.10961677E+04</pdfrwt>
<totfact> 0.78080887E-01</totfact>
</mgrwt>
</event>
<event>
 4    1  0.4366019E-007  0.1598891E+04  0.7818608E-02  0.8842788E-01
          2   -1    0    0  501    0  0.00000000000E+00  0.00000000000E+00  0.27120131741E+04  0.27120131741E+04  0.25500000000E-02 0. -1.
         -2   -1    0    0    0  501 -0.00000000000E+00 -0.00000000000E+00 -0.18692152249E+04  0.18692152249E+04  0.25500000000E-02 0.  1.
    8880023    1    1    2    0    0 -0.26241785374E+03  0.14331015400E+04 -0.12480037317E+04  0.20282915655E+04  0.65864270000E+03 0.  0.
    8880022    1    1    2    0    0  0.26241785374E+03 -0.14331015400E+04  0.20908016810E+04  0.25529368336E+04  0.15294330000E+03 0.  0.
<mgrwt>
<rscale>  0 0.15642955E+04</rscale>
<asrwt>0</asrwt>
<pdfrwt beam="1">  1        2 0.41723279E+00 0.15988913E+04</pdfrwt>
<pdfrwt beam="2">  1       -2 0.28757158E+00 0.15988913E+04</pdfrwt>
<totfact> 0.91666489E-02</totfact>
</mgrwt>
</event>
<event>
 4    1  0.2878104E-007  0.1495806E+04  0.7818608E-02  0.8912603E-01
         -2   -1    0    0    0  501 -0.00000000000E+00  0.00000000000E+00  0.13231440748E+04  0.13231440748E+04  0.25500000000E-02 0.  1.
          2   -1    0    0  501    0  0.00000000000E+00 -0.00000000000E+00 -0.22395852346E+04  0.22395852346E+04  0.25500000000E-02 0. -1.
    8880023    1    1    2    0    0 -0.60757664441E+03  0.11976965060E+04  0.52633458847E+03  0.15857063425E+04  0.65864270000E+03 0.  0.
    8880022    1    1    2    0    0  0.60757664441E+03 -0.11976965060E+04 -0.14427757483E+04  0.19770229670E+04  0.15294330000E+03 0.  0.
<mgrwt>
<rscale>  0 0.14583923E+04</rscale>
<asrwt>0</asrwt>
<pdfrwt beam="1">  1        2 0.34455158E+00 0.14958063E+04</pdfrwt>
<pdfrwt beam="2">  1       -2 0.20356063E+00 0.14958063E+04</pdfrwt>
<totfact> 0.58079760E-01</totfact>
</mgrwt>
</event>
<event>
 4    1  0.2878104E-007  0.9348233E+03  0.7818608E-02  0.9472295E-01
          2   -1    0    0  501    0  0.00000000000E+00  0.00000000000E+00  0.11233119839E+04  0.11233119839E+04  0.25500000000E-02 0. -1.
         -2   -1    0    0    0  501 -0.00000000000E+00 -0.00000000000E+00 -0.12465543770E+04  0.12465543770E+04  0.25500000000E-02 0.  1.
    8880023    1    1    2    0    0 -0.62438709693E+03 -0.22410985740E+03 -0.92701200963E+03  0.13165279895E+04  0.65864270000E+03 0.  0.
    8880022    1    1    2    0    0  0.62438709693E+03  0.22410985740E+03  0.80376961653E+03  0.10533383713E+04  0.15294330000E+03 0.  0.
<mgrwt>
<rscale>  0 0.86357604E+03</rscale>
<asrwt>0</asrwt>
<pdfrwt beam="1">  1        2 0.17281723E+00 0.93482334E+03</pdfrwt>
<pdfrwt beam="2">  1       -2 0.19177760E+00 0.93482334E+03</pdfrwt>
<totfact> 0.31765935E+00</totfact>
</mgrwt>
</event>
<event>
 4    1  0.2878104E-007  0.7520518E+03  0.7818608E-02  0.9826137E-01
         -2   -1    0    0    0  501 -0.00000000000E+00  0.00000000000E+00  0.52066773389E+03  0.52066773389E+03  0.25500000000E-02 0.  1.
          2   -1    0    0  501    0  0.00000000000E+00 -0.00000000000E+00 -0.11928697903E+04  0.11928697903E+04  0.25500000000E-02 0. -1.
    8880023    1    1    2    0    0  0.80812935857E+02  0.35389401299E+03  0.18123478104E+03  0.77358125310E+03  0.65864270000E+03 0.  1.
    8880022    1    1    2    0    0 -0.80812935857E+02 -0.35389401299E+03 -0.85343683748E+03  0.93995627112E+03  0.15294330000E+03 0.  0.
<mgrwt>
<rscale>  0 0.63978560E+03</rscale>
<asrwt>0</asrwt>
<pdfrwt beam="1">  1        2 0.18351843E+00 0.75205180E+03</pdfrwt>
<pdfrwt beam="2">  1       -2 0.80102728E-01 0.75205180E+03</pdfrwt>
<totfact> 0.26851765E+01</totfact>
</mgrwt>
</event>
<event>
 4    1  0.2878104E-007  0.9206078E+03  0.7818608E-02  0.9493728E-01
         -2   -1    0    0    0  501 -0.00000000000E+00  0.00000000000E+00  0.56116657880E+03  0.56116657880E+03  0.25500000000E-02 0.  1.
          2   -1    0    0  501    0  0.00000000000E+00 -0.00000000000E+00 -0.40576371002E+04  0.40576371002E+04  0.25500000000E-02 0. -1.
    8880023    1    1    2    0    0  0.59363466576E+03  0.24760118202E+03  0.13250621760E+03  0.93009492295E+03  0.65864270000E+03 0.  0.
    8880022    1    1    2    0    0 -0.59363466576E+03 -0.24760118202E+03 -0.36289767390E+04  0.36887087560E+04  0.15294330000E+03 0.  0.
<mgrwt>
<rscale>  0 0.84747831E+03</rscale>
<asrwt>0</asrwt>
<pdfrwt beam="1">  1        2 0.62425184E+00 0.92060777E+03</pdfrwt>
<pdfrwt beam="2">  1       -2 0.86333323E-01 0.92060777E+03</pdfrwt>
<totfact> 0.38263762E-01</totfact>
</mgrwt>
</event>
<event>
 4    1  0.2878104E-007  0.1263751E+04  0.7818608E-02  0.9097512E-01
         -2   -1    0    0    0  501 -0.00000000000E+00  0.00000000000E+00  0.20447332497E+04  0.20447332497E+04  0.25500000000E-02 0.  1.
          2   -1    0    0  501    0  0.00000000000E+00 -0.00000000000E+00 -0.13023255729E+04  0.13023255729E+04  0.25500000000E-02 0. -1.
    8880023    1    1    2    0    0  0.10734284156E+04  0.10492302986E+03  0.15435130274E+04  0.19948684362E+04  0.65864270000E+03 0.  0.
    8880022    1    1    2    0    0 -0.10734284156E+04 -0.10492302986E+03 -0.80110535052E+03  0.13521903865E+04  0.15294330000E+03 0.  0.
<mgrwt>
<rscale>  0 0.12176894E+04</rscale>
<asrwt>0</asrwt>
<pdfrwt beam="1">  1        2 0.20035778E+00 0.12637514E+04</pdfrwt>
<pdfrwt beam="2">  1       -2 0.31457435E+00 0.12637514E+04</pdfrwt>
<totfact> 0.41315565E-01</totfact>
</mgrwt>
</event>
<event>
 4    1  0.2878104E-007  0.9096554E+03  0.7818608E-02  0.9510706E-01
          2   -1    0    0  501    0  0.00000000000E+00  0.00000000000E+00  0.41731487212E+04  0.41731487212E+04  0.25500000000E-02 0. -1.
         -2   -1    0    0    0  501 -0.00000000000E+00 -0.00000000000E+00 -0.32869267840E+03  0.32869267841E+03  0.25500000000E-02 0.  1.
    8880023    1    1    2    0    0 -0.51355040505E+03  0.36045637430E+03  0.39373694939E+03  0.99121229204E+03  0.65864270000E+03 0.  1.
    8880022    1    1    2    0    0  0.51355040505E+03 -0.36045637430E+03  0.34507190935E+04  0.35106291076E+04  0.15294330000E+03 0.  0.
<mgrwt>
<rscale>  0 0.83499099E+03</rscale>
<asrwt>0</asrwt>
<pdfrwt beam="1">  1        2 0.64202290E+00 0.90965544E+03</pdfrwt>
<pdfrwt beam="2">  1       -2 0.50568103E-01 0.90965544E+03</pdfrwt>
<totfact> 0.98042096E-01</totfact>
</mgrwt>
</event>
<event>
 4    1  0.2878104E-007  0.6619052E+03  0.7818608E-02  0.1022284E+00
          2   -1    0    0  501    0  0.00000000000E+00  0.00000000000E+00  0.11525482847E+04  0.11525482847E+04  0.25500000000E-02 0. -1.
         -2   -1    0    0    0  501 -0.00000000000E+00 -0.00000000000E+00 -0.39403989280E+03  0.39403989280E+03  0.25500000000E-02 0.  1.
    8880023    1    1    2    0    0  0.26547266763E+02  0.60029209023E+02 -0.10236519237E+03  0.66977391871E+03  0.65864270000E+03 0.  1.
    8880022    1    1    2    0    0 -0.26547266763E+02 -0.60029209023E+02  0.86087358423E+03  0.87681425875E+03  0.15294330000E+03 0.  0.
<mgrwt>
<rscale>  0 0.46871262E+03</rscale>
<asrwt>0</asrwt>
<pdfrwt beam="1">  1        2 0.17731512E+00 0.66190518E+03</pdfrwt>
<pdfrwt beam="2">  1       -2 0.60621523E-01 0.66190518E+03</pdfrwt>
<totfact> 0.52587120E+01</totfact>
</mgrwt>
</event>
<event>
 4    1  0.2878104E-007  0.8349450E+03  0.7818608E-02  0.9639787E-01
          2   -1    0    0  501    0  0.00000000000E+00  0.00000000000E+00  0.79144875222E+03  0.79144875223E+03  0.25500000000E-02 0. -1.
         -2   -1    0    0    0  501 -0.00000000000E+00 -0.00000000000E+00 -0.61984690922E+03  0.61984690923E+03  0.25500000000E-02 0.  1.
    8880023    1    1    2    0    0  0.35741515874E+03 -0.36820818997E+03 -0.39134615858E+02  0.83586158620E+03  0.65864270000E+03 0.  0.
    8880022    1    1    2    0    0 -0.35741515874E+03  0.36820818997E+03  0.21073645886E+03  0.57543407526E+03  0.15294330000E+03 0.  0.
<mgrwt>
<rscale>  0 0.74717889E+03</rscale>
<asrwt>0</asrwt>
<pdfrwt beam="1">  1        2 0.12176135E+00 0.83494495E+03</pdfrwt>
<pdfrwt beam="2">  1       -2 0.95361063E-01 0.83494495E+03</pdfrwt>
<totfact> 0.32502435E+01</totfact>
</mgrwt>
</event>
<event>
 4    1  0.2878104E-007  0.7068167E+03  0.7818608E-02  0.9970017E-01
          2   -1    0    0  501    0  0.00000000000E+00  0.00000000000E+00  0.86401832278E+03  0.86401832279E+03  0.25500000000E-02 0. -1.
         -2   -1    0    0    0  501 -0.00000000000E+00 -0.00000000000E+00 -0.11644236311E+04  0.11644236311E+04  0.25500000000E-02 0.  1.
    8880023    1    1    2    0    0  0.25355435486E+03 -0.38597746514E+02 -0.10248003384E+04  0.12449118591E+04  0.65864270000E+03 0.  1.
    8880022    1    1    2    0    0 -0.25355435486E+03  0.38597746514E+02  0.72439503010E+03  0.78353009486E+03  0.15294330000E+03 0.  0.
<mgrwt>
<rscale>  0 0.56984691E+03</rscale>
<asrwt>0</asrwt>
<pdfrwt beam="1">  1        2 0.13292590E+00 0.70681667E+03</pdfrwt>
<pdfrwt beam="2">  1       -2 0.17914210E+00 0.70681667E+03</pdfrwt>
<totfact> 0.58504748E+00</totfact>
</mgrwt>
</event>
<event>
 4    1  0.2878104E-007  0.1189018E+04  0.7818608E-02  0.9167872E-01
          2   -1    0    0  501    0  0.00000000000E+00  0.00000000000E+00  0.29825243523E+04  0.29825243523E+04  0.25500000000E-02 0. -1.
         -2   -1    0    0    0  501 -0.00000000000E+00 -0.00000000000E+00 -0.64990546753E+03  0.64990546753E+03  0.25500000000E-02 0.  1.
    8880023    1    1    2    0    0 -0.98217546794E+03  0.12363216387E+03  0.10947594893E+03  0.11940472149E+04  0.65864270000E+03 0.  0.
    8880022    1    1    2    0    0  0.98217546794E+03 -0.12363216387E+03  0.22231429358E+04  0.24383826049E+04  0.15294330000E+03 0.  0.
<mgrwt>
<rscale>  0 0.11391282E+04</rscale>
<asrwt>0</asrwt>
<pdfrwt beam="1">  1        2 0.45884991E+00 0.11890180E+04</pdfrwt>
<pdfrwt beam="2">  1       -2 0.99985455E-01 0.11890180E+04</pdfrwt>
<totfact> 0.14631904E+00</totfact>
</mgrwt>
</event>
<event>
 4    1  0.2878104E-007  0.1312766E+04  0.7818608E-02  0.9054613E-01
          2   -1    0    0  501    0  0.00000000000E+00  0.00000000000E+00  0.34158376324E+04  0.34158376324E+04  0.25500000000E-02 0. -1.
         -2   -1    0    0    0  501 -0.00000000000E+00 -0.00000000000E+00 -0.53464934483E+03  0.53464934483E+03  0.25500000000E-02 0.  1.
    8880023    1    1    2    0    0 -0.87706439994E+03  0.72131959293E+03  0.70263234236E+03  0.14889749264E+04  0.65864270000E+03 0.  0.
    8880022    1    1    2    0    0  0.87706439994E+03 -0.72131959293E+03  0.21785559452E+04  0.24615120508E+04  0.15294330000E+03 0.  0.
<mgrwt>
<rscale>  0 0.12688809E+04</rscale>
<asrwt>0</asrwt>
<pdfrwt beam="1">  1        2 0.52551351E+00 0.13127658E+04</pdfrwt>
<pdfrwt beam="2">  1       -2 0.82253741E-01 0.13127658E+04</pdfrwt>
<totfact> 0.11907172E+00</totfact>
</mgrwt>
</event>
<event>
 4    1  0.2878104E-007  0.8774460E+03  0.7818608E-02  0.9563253E-01
         -2   -1    0    0    0  501 -0.00000000000E+00  0.00000000000E+00  0.54697976041E+03  0.54697976041E+03  0.25500000000E-02 0.  1.
          2   -1    0    0  501    0  0.00000000000E+00 -0.00000000000E+00 -0.23991326287E+04  0.23991326287E+04  0.25500000000E-02 0. -1.
    8880023    1    1    2    0    0 -0.35541893287E+03  0.45801601977E+03  0.11928344863E+03  0.88551682062E+03  0.65864270000E+03 0.  1.
    8880022    1    1    2    0    0  0.35541893287E+03 -0.45801601977E+03 -0.19714363169E+04  0.20605955685E+04  0.15294330000E+03 0.  0.
<mgrwt>
<rscale>  0 0.79776798E+03</rscale>
<asrwt>0</asrwt>
<pdfrwt beam="1">  1        2 0.36909732E+00 0.87744601E+03</pdfrwt>
<pdfrwt beam="2">  1       -2 0.84150734E-01 0.87744601E+03</pdfrwt>
<totfact> 0.50309421E+00</totfact>
</mgrwt>
</event>
<event>
 4    1  0.2878104E-007  0.7845523E+03  0.7818608E-02  0.9745250E-01
          2   -1    0    0  501    0  0.00000000000E+00  0.00000000000E+00  0.25659180211E+04  0.25659180211E+04  0.25500000000E-02 0. -1.
         -2   -1    0    0    0  501 -0.00000000000E+00 -0.00000000000E+00 -0.18911234063E+03  0.18911234064E+03  0.25500000000E-02 0.  1.
    8880023    1    1    2    0    0  0.56506754501E+02 -0.42251523953E+03  0.82497988283E+03  0.11384700937E+04  0.65864270000E+03 0.  0.
    8880022    1    1    2    0    0 -0.56506754501E+02  0.42251523953E+03  0.15518257976E+04  0.16165602680E+04  0.15294330000E+03 0.  0.
<mgrwt>
<rscale>  0 0.68385361E+03</rscale>
<asrwt>0</asrwt>
<pdfrwt beam="1">  1        2 0.39475660E+00 0.78455232E+03</pdfrwt>
<pdfrwt beam="2">  1       -2 0.29094207E-01 0.78455232E+03</pdfrwt>
<totfact> 0.35937595E+01</totfact>
</mgrwt>
</event>
<event>
 4    1  0.2878104E-007  0.1130804E+04  0.7818608E-02  0.9227511E-01
          2   -1    0    0  501    0  0.00000000000E+00  0.00000000000E+00  0.25814576584E+04  0.25814576584E+04  0.25500000000E-02 0. -1.
         -2   -1    0    0    0  501 -0.00000000000E+00 -0.00000000000E+00 -0.60812370725E+03  0.60812370726E+03  0.25500000000E-02 0.  1.
    8880023    1    1    2    0    0 -0.13819351562E+03  0.90874045103E+03  0.19539276964E+04  0.22575540534E+04  0.65864270000E+03 0.  0.
    8880022    1    1    2    0    0  0.13819351562E+03 -0.90874045103E+03  0.19406254787E+02  0.93202731228E+03  0.15294330000E+03 0.  0.
<mgrwt>
<rscale>  0 0.10773927E+04</rscale>
<asrwt>0</asrwt>
<pdfrwt beam="1">  1        2 0.39714733E+00 0.11308036E+04</pdfrwt>
<pdfrwt beam="2">  1       -2 0.93557493E-01 0.11308036E+04</pdfrwt>
<totfact> 0.29944359E+00</totfact>
</mgrwt>
</event>
<event>
 4    1  0.2878104E-007  0.1564676E+04  0.7818608E-02  0.8865266E-01
          2   -1    0    0  501    0  0.00000000000E+00  0.00000000000E+00  0.19597924963E+04  0.19597924963E+04  0.25500000000E-02 0. -1.
         -2   -1    0    0    0  501 -0.00000000000E+00 -0.00000000000E+00 -0.12789853986E+04  0.12789853986E+04  0.25500000000E-02 0.  1.
    8880023    1    1    2    0    0 -0.79632809194E+03 -0.11748461634E+04 -0.17492639695E+03  0.15744241450E+04  0.65864270000E+03 0.  1.
    8880022    1    1    2    0    0  0.79632809194E+03  0.11748461634E+04  0.85573349464E+03  0.16643537498E+04  0.15294330000E+03 0.  0.
<mgrwt>
<rscale>  0 0.15291969E+04</rscale>
<asrwt>0</asrwt>
<pdfrwt beam="1">  1        2 0.30150654E+00 0.15646764E+04</pdfrwt>
<pdfrwt beam="2">  1       -2 0.19676699E+00 0.15646764E+04</pdfrwt>
<totfact> 0.91776915E-01</totfact>
</mgrwt>
</event>
<event>
 4    1  0.2878104E-007  0.9651676E+03  0.7818608E-02  0.9428619E-01
         -2   -1    0    0    0  501 -0.00000000000E+00  0.00000000000E+00  0.94066868356E+03  0.94066868357E+03  0.25500000000E-02 0.  1.
          2   -1    0    0  501    0  0.00000000000E+00 -0.00000000000E+00 -0.98268379318E+03  0.98268379318E+03  0.25500000000E-02 0. -1.
    8880023    1    1    2    0    0 -0.69932252620E+03  0.93200089489E+02  0.43440469571E+03  0.10584214181E+04  0.65864270000E+03 0.  1.
    8880022    1    1    2    0    0  0.69932252620E+03 -0.93200089489E+02 -0.47641980533E+03  0.86493105867E+03  0.15294330000E+03 0.  0.
<mgrwt>
<rscale>  0 0.89757406E+03</rscale>
<asrwt>0</asrwt>
<pdfrwt beam="1">  1        2 0.15118212E+00 0.96516758E+03</pdfrwt>
<pdfrwt beam="2">  1       -2 0.14471826E+00 0.96516758E+03</pdfrwt>
<totfact> 0.84671610E+00</totfact>
</mgrwt>
</event>
<event>
 4    1  0.2878104E-007  0.7562440E+03  0.7818608E-02  0.9814930E-01
         -2   -1    0    0    0  501 -0.00000000000E+00  0.00000000000E+00  0.48720531118E+03  0.48720531119E+03  0.25500000000E-02 0.  1.
          2   -1    0    0  501    0  0.00000000000E+00 -0.00000000000E+00 -0.69329050518E+03  0.69329050518E+03  0.25500000000E-02 0. -1.
    8880023    1    1    2    0    0 -0.37147983074E+03 -0.98719321708E+01 -0.18248536587E+03  0.77794976361E+03  0.65864270000E+03 0. -1.
    8880022    1    1    2    0    0  0.37147983074E+03  0.98719321708E+01 -0.23599828127E+02  0.40254605276E+03  0.15294330000E+03 0.  1.
<mgrwt>
<rscale>  0 0.64567419E+03</rscale>
<asrwt>0</asrwt>
<pdfrwt beam="1">  1        2 0.10666008E+00 0.75624396E+03</pdfrwt>
<pdfrwt beam="2">  1       -2 0.74954663E-01 0.75624396E+03</pdfrwt>
<totfact> 0.67120723E+01</totfact>
</mgrwt>
</event>
<event>
 4    1  0.2878104E-007  0.1225546E+04  0.7818608E-02  0.9132681E-01
         -2   -1    0    0    0  501 -0.00000000000E+00  0.00000000000E+00  0.12615404199E+04  0.12615404199E+04  0.25500000000E-02 0.  1.
          2   -1    0    0  501    0  0.00000000000E+00 -0.00000000000E+00 -0.22133834603E+04  0.22133834603E+04  0.25500000000E-02 0. -1.
    8880023    1    1    2    0    0  0.77962658482E+03 -0.67848067943E+03  0.77973855981E+03  0.14525687839E+04  0.65864270000E+03 0.  0.
    8880022    1    1    2    0    0 -0.77962658482E+03  0.67848067943E+03 -0.17315816003E+04  0.20223550963E+04  0.15294330000E+03 0.  0.
<mgrwt>
<rscale>  0 0.11776128E+04</rscale>
<asrwt>0</asrwt>
<pdfrwt beam="1">  1        2 0.34052053E+00 0.12255463E+04</pdfrwt>
<pdfrwt beam="2">  1       -2 0.19408314E+00 0.12255463E+04</pdfrwt>
<totfact> 0.71627955E-01</totfact>
</mgrwt>
</event>
<event>
 4    1  0.2878104E-007  0.9465051E+03  0.7818608E-02  0.9455160E-01
         -2   -1    0    0    0  501 -0.00000000000E+00  0.00000000000E+00  0.67646131010E+03  0.67646131011E+03  0.25500000000E-02 0.  1.
          2   -1    0    0  501    0  0.00000000000E+00 -0.00000000000E+00 -0.24734180077E+04  0.24734180077E+04  0.25500000000E-02 0. -1.
    8880023    1    1    2    0    0  0.84781988182E+01 -0.67969837002E+03  0.25715614638E+03  0.98081662096E+03  0.65864270000E+03 0.  0.
    8880022    1    1    2    0    0 -0.84781988182E+01  0.67969837002E+03 -0.20541128440E+04  0.21690626969E+04  0.15294330000E+03 0.  0.
<mgrwt>
<rscale>  0 0.87671951E+03</rscale>
<asrwt>0</asrwt>
<pdfrwt beam="1">  1        2 0.38052584E+00 0.94650513E+03</pdfrwt>
<pdfrwt beam="2">  1       -2 0.10407097E+00 0.94650513E+03</pdfrwt>
<totfact> 0.27507367E+00</totfact>
</mgrwt>
</event>
<event>
 4    1  0.2878104E-007  0.1002249E+04  0.7818608E-02  0.9378621E-01
          2   -1    0    0  501    0  0.00000000000E+00  0.00000000000E+00  0.25064985598E+04  0.25064985598E+04  0.25500000000E-02 0. -1.
         -2   -1    0    0    0  501 -0.00000000000E+00 -0.00000000000E+00 -0.52535073913E+03  0.52535073913E+03  0.25500000000E-02 0.  1.
    8880023    1    1    2    0    0 -0.73962007250E+03  0.15380214052E+03  0.20253995937E+04  0.22598112024E+04  0.65864270000E+03 0. -1.
    8880022    1    1    2    0    0  0.73962007250E+03 -0.15380214052E+03 -0.44251773029E+02  0.77203809653E+03  0.15294330000E+03 0.  0.
<mgrwt>
<rscale>  0 0.93856159E+03</rscale>
<asrwt>0</asrwt>
<pdfrwt beam="1">  1        2 0.38561516E+00 0.10022490E+04</pdfrwt>
<pdfrwt beam="2">  1       -2 0.80823191E-01 0.10022490E+04</pdfrwt>
<totfact> 0.47082608E+00</totfact>
</mgrwt>
</event>
<event>
 4    1  0.2878104E-007  0.7752746E+03  0.7818608E-02  0.9767056E-01
          2   -1    0    0  501    0  0.00000000000E+00  0.00000000000E+00  0.21156116954E+04  0.21156116954E+04  0.25500000000E-02 0. -1.
         -2   -1    0    0    0  501 -0.00000000000E+00 -0.00000000000E+00 -0.63194160840E+03  0.63194160841E+03  0.25500000000E-02 0.  1.
    8880023    1    1    2    0    0  0.39501123220E+03  0.10586136038E+03 -0.35864251879E+03  0.85421025733E+03  0.65864270000E+03 0.  1.
    8880022    1    1    2    0    0 -0.39501123220E+03 -0.10586136038E+03  0.18423126058E+04  0.18933430465E+04  0.15294330000E+03 0.  0.
<mgrwt>
<rscale>  0 0.67160850E+03</rscale>
<asrwt>0</asrwt>
<pdfrwt beam="1">  1        2 0.32547873E+00 0.77527460E+03</pdfrwt>
<pdfrwt beam="2">  1       -2 0.97221784E-01 0.77527460E+03</pdfrwt>
<totfact> 0.52602147E+00</totfact>
</mgrwt>
</event>
<event>
 4    1  0.2878104E-007  0.1400449E+04  0.7818608E-02  0.8983334E-01
         -2   -1    0    0    0  501 -0.00000000000E+00  0.00000000000E+00  0.13543989562E+04  0.13543989562E+04  0.25500000000E-02 0.  1.
          2   -1    0    0  501    0  0.00000000000E+00 -0.00000000000E+00 -0.29029178587E+04  0.29029178587E+04  0.25500000000E-02 0. -1.
    8880023    1    1    2    0    0  0.96656151304E+03  0.77019840063E+03  0.78998303270E+03  0.16078961823E+04  0.65864270000E+03 0.  0.
    8880022    1    1    2    0    0 -0.96656151304E+03 -0.77019840063E+03 -0.23385019352E+04  0.26494206326E+04  0.15294330000E+03 0.  0.
<mgrwt>
<rscale>  0 0.13599447E+04</rscale>
<asrwt>0</asrwt>
<pdfrwt beam="1">  1        2 0.44660275E+00 0.14004488E+04</pdfrwt>
<pdfrwt beam="2">  1       -2 0.20836907E+00 0.14004488E+04</pdfrwt>
<totfact> 0.22378968E-01</totfact>
</mgrwt>
</event>
<event>
 4    1  0.2878104E-007  0.9257176E+03  0.7818608E-02  0.9485947E-01
         -2   -1    0    0    0  501 -0.00000000000E+00  0.00000000000E+00  0.12786322273E+04  0.12786322273E+04  0.25500000000E-02 0.  1.
          2   -1    0    0  501    0  0.00000000000E+00 -0.00000000000E+00 -0.99504831671E+03  0.99504831671E+03  0.25500000000E-02 0. -1.
    8880023    1    1    2    0    0 -0.47008638407E+03  0.44962397907E+03  0.95245661263E+03  0.13282043277E+04  0.65864270000E+03 0.  1.
    8880022    1    1    2    0    0  0.47008638407E+03 -0.44962397907E+03 -0.66887270201E+03  0.94547621628E+03  0.15294330000E+03 0.  0.
<mgrwt>
<rscale>  0 0.85327847E+03</rscale>
<asrwt>0</asrwt>
<pdfrwt beam="1">  1        2 0.15308436E+00 0.92571763E+03</pdfrwt>
<pdfrwt beam="2">  1       -2 0.19671265E+00 0.92571763E+03</pdfrwt>
<totfact> 0.35488841E+00</totfact>
</mgrwt>
</event>
<event>
 4    1  0.2878104E-007  0.1648974E+04  0.7818608E-02  0.8811027E-01
          2   -1    0    0  501    0  0.00000000000E+00  0.00000000000E+00  0.23084494336E+04  0.23084494336E+04  0.25500000000E-02 0. -1.
         -2   -1    0    0    0  501 -0.00000000000E+00 -0.00000000000E+00 -0.13364627132E+04  0.13364627132E+04  0.25500000000E-02 0.  1.
    8880023    1    1    2    0    0 -0.13884753780E+04  0.59786265696E+03 -0.28439239986E+03  0.16733179241E+04  0.65864270000E+03 0.  0.
    8880022    1    1    2    0    0  0.13884753780E+04 -0.59786265696E+03  0.12563791202E+04  0.19715942226E+04  0.15294330000E+03 0.  0.
<mgrwt>
<rscale>  0 0.16155898E+04</rscale>
<asrwt>0</asrwt>
<pdfrwt beam="1">  1        2 0.35514606E+00 0.16489736E+04</pdfrwt>
<pdfrwt beam="2">  1       -2 0.20560965E+00 0.16489736E+04</pdfrwt>
<totfact> 0.50680166E-01</totfact>
</mgrwt>
</event>
<event>
 4    1  0.2878104E-007  0.6712399E+03  0.7818608E-02  0.1014789E+00
          2   -1    0    0  501    0  0.00000000000E+00  0.00000000000E+00  0.62510495548E+03  0.62510495548E+03  0.25500000000E-02 0. -1.
         -2   -1    0    0    0  501 -0.00000000000E+00 -0.00000000000E+00 -0.80296456904E+03  0.80296456904E+03  0.25500000000E-02 0.  1.
    8880023    1    1    2    0    0 -0.92719371648E+02  0.90310257665E+02 -0.63808009681E+03  0.92612593135E+03  0.65864270000E+03 0.  1.
    8880022    1    1    2    0    0  0.92719371648E+02 -0.90310257665E+02  0.46022048324E+03  0.50194359317E+03  0.15294330000E+03 0.  0.
<mgrwt>
<rscale>  0 0.49614836E+03</rscale>
<asrwt>0</asrwt>
<pdfrwt beam="1">  1        2 0.96169993E-01 0.67123992E+03</pdfrwt>
<pdfrwt beam="2">  1       -2 0.12353301E+00 0.67123992E+03</pdfrwt>
<totfact> 0.23782646E+01</totfact>
</mgrwt>
</event>
<event>
 4    1  0.3006027E-007  0.2070221E+04  0.7818608E-02  0.8586169E-01
          2   -1    0    0  501    0  0.00000000000E+00  0.00000000000E+00  0.35352517804E+04  0.35352517804E+04  0.25500000000E-02 0. -1.
         -2   -1    0    0    0  501 -0.00000000000E+00 -0.00000000000E+00 -0.23354446669E+04  0.23354446669E+04  0.25500000000E-02 0.  1.
    8880023    1    1    2    0    0  0.37970529610E+03 -0.19255719451E+04 -0.14804936647E+04  0.25451277227E+04  0.65864270000E+03 0.  1.
    8880022    1    1    2    0    0 -0.37970529610E+03  0.19255719451E+04  0.26803007781E+04  0.33255687246E+04  0.15294330000E+03 0.  0.
<mgrwt>
<rscale>  0 0.20443346E+04</rscale>
<asrwt>0</asrwt>
<pdfrwt beam="1">  1        2 0.54388489E+00 0.20702207E+04</pdfrwt>
<pdfrwt beam="2">  1       -2 0.35929918E+00 0.20702207E+04</pdfrwt>
<totfact> 0.91229310E-03</totfact>
</mgrwt>
</event>
<event>
 4    1  0.2878104E-007  0.7479532E+03  0.7818608E-02  0.9837358E-01
          2   -1    0    0  501    0  0.00000000000E+00  0.00000000000E+00  0.20897421706E+04  0.20897421706E+04  0.25500000000E-02 0. -1.
         -2   -1    0    0    0  501 -0.00000000000E+00 -0.00000000000E+00 -0.29839333009E+03  0.29839333010E+03  0.25500000000E-02 0.  1.
    8880023    1    1    2    0    0  0.25903317256E+03  0.24192058856E+03  0.23406783973E+03  0.78372298391E+03  0.65864270000E+03 0.  1.
    8880022    1    1    2    0    0 -0.25903317256E+03 -0.24192058856E+03  0.15572810008E+04  0.16044125168E+04  0.15294330000E+03 0.  0.
<mgrwt>
<rscale>  0 0.63395686E+03</rscale>
<asrwt>0</asrwt>
<pdfrwt beam="1">  1        2 0.32149880E+00 0.74795318E+03</pdfrwt>
<pdfrwt beam="2">  1       -2 0.45906666E-01 0.74795318E+03</pdfrwt>
<totfact> 0.27727558E+01</totfact>
</mgrwt>
</event>
<event>
 4    1  0.2878104E-007  0.8670400E+03  0.7818608E-02  0.9581161E-01
          2   -1    0    0  501    0  0.00000000000E+00  0.00000000000E+00  0.27421168502E+04  0.27421168502E+04  0.25500000000E-02 0. -1.
         -2   -1    0    0    0  501 -0.00000000000E+00 -0.00000000000E+00 -0.11540437374E+04  0.11540437374E+04  0.25500000000E-02 0.  1.
    8880023    1    1    2    0    0  0.30246819245E+03 -0.47587929532E+03 -0.95322791397E+03  0.12885657816E+04  0.65864270000E+03 0.  1.
    8880022    1    1    2    0    0 -0.30246819245E+03  0.47587929532E+03  0.25413010268E+04  0.26075948061E+04  0.15294330000E+03 0.  0.
<mgrwt>
<rscale>  0 0.78555700E+03</rscale>
<asrwt>0</asrwt>
<pdfrwt beam="1">  1        2 0.42186412E+00 0.86703997E+03</pdfrwt>
<pdfrwt beam="2">  1       -2 0.17754519E+00 0.86703997E+03</pdfrwt>
<totfact> 0.48967646E-01</totfact>
</mgrwt>
</event>
<event>
 4    1  0.2878104E-007  0.7284698E+03  0.7818608E-02  0.9894904E-01
          2   -1    0    0  501    0  0.00000000000E+00  0.00000000000E+00  0.13343832612E+04  0.13343832612E+04  0.25500000000E-02 0. -1.
         -2   -1    0    0    0  501 -0.00000000000E+00 -0.00000000000E+00 -0.44449701461E+03  0.44449701461E+03  0.25500000000E-02 0.  1.
    8880023    1    1    2    0    0 -0.16410447631E+03  0.26443852112E+03 -0.95085278180E+02  0.73464918634E+03  0.65864270000E+03 0.  1.
    8880022    1    1    2    0    0  0.16410447631E+03 -0.26443852112E+03  0.98497152473E+03  0.10442310894E+04  0.15294330000E+03 0.  0.
<mgrwt>
<rscale>  0 0.60508883E+03</rscale>
<asrwt>0</asrwt>
<pdfrwt beam="1">  1        2 0.20528973E+00 0.72846978E+03</pdfrwt>
<pdfrwt beam="2">  1       -2 0.68384158E-01 0.72846978E+03</pdfrwt>
<totfact> 0.31589011E+01</totfact>
</mgrwt>
</event>
<event>
 4    1  0.2878104E-007  0.1095990E+04  0.7818608E-02  0.9265534E-01
          2   -1    0    0  501    0  0.00000000000E+00  0.00000000000E+00  0.24147615245E+04  0.24147615245E+04  0.25500000000E-02 0. -1.
         -2   -1    0    0    0  501 -0.00000000000E+00 -0.00000000000E+00 -0.63298222002E+03  0.63298222003E+03  0.25500000000E-02 0.  1.
    8880023    1    1    2    0    0  0.31660862896E+03 -0.81678825462E+03  0.45434605570E+02  0.10969314411E+04  0.65864270000E+03 0.  1.
    8880022    1    1    2    0    0 -0.31660862896E+03  0.81678825462E+03  0.17363446989E+04  0.19508123035E+04  0.15294330000E+03 0.  0.
<mgrwt>
<rscale>  0 0.10401875E+04</rscale>
<asrwt>0</asrwt>
<pdfrwt beam="1">  1        2 0.37150177E+00 0.10959901E+04</pdfrwt>
<pdfrwt beam="2">  1       -2 0.97381881E-01 0.10959901E+04</pdfrwt>
<totfact> 0.34107860E+00</totfact>
</mgrwt>
</event>
<event>
 4    1  0.2878104E-007  0.9811401E+03  0.7818608E-02  0.9406659E-01
         -2   -1    0    0    0  501 -0.00000000000E+00  0.00000000000E+00  0.70688751703E+03  0.70688751703E+03  0.25500000000E-02 0.  1.
          2   -1    0    0  501    0  0.00000000000E+00 -0.00000000000E+00 -0.15601612322E+04  0.15601612322E+04  0.25500000000E-02 0. -1.
    8880023    1    1    2    0    0 -0.62195714326E+03 -0.37682223257E+03  0.17676055391E+03  0.99693539544E+03  0.65864270000E+03 0.  0.
    8880022    1    1    2    0    0  0.62195714326E+03  0.37682223257E+03 -0.10300342691E+04  0.12701133538E+04  0.15294330000E+03 0.  0.
<mgrwt>
<rscale>  0 0.91529697E+03</rscale>
<asrwt>0</asrwt>
<pdfrwt beam="1">  1        2 0.24002481E+00 0.98114010E+03</pdfrwt>
<pdfrwt beam="2">  1       -2 0.10875193E+00 0.98114010E+03</pdfrwt>
<totfact> 0.79081686E+00</totfact>
</mgrwt>
</event>
<event>
 4    1  0.2878104E-007  0.8704370E+03  0.7818608E-02  0.9575261E-01
         -2   -1    0    0    0  501 -0.00000000000E+00  0.00000000000E+00  0.16076768084E+04  0.16076768084E+04  0.25500000000E-02 0.  1.
          2   -1    0    0  501    0  0.00000000000E+00 -0.00000000000E+00 -0.46094418888E+03  0.46094418888E+03  0.25500000000E-02 0. -1.
    8880023    1    1    2    0    0  0.25311092641E+03 -0.50969135759E+03  0.11938395558E+04  0.14774686164E+04  0.65864270000E+03 0.  0.
    8880022    1    1    2    0    0 -0.25311092641E+03  0.50969135759E+03 -0.47106936226E+02  0.59115238097E+03  0.15294330000E+03 0.  0.
<mgrwt>
<rscale>  0 0.78955441E+03</rscale>
<asrwt>0</asrwt>
<pdfrwt beam="1">  1        2 0.70914490E-01 0.87043703E+03</pdfrwt>
<pdfrwt beam="2">  1       -2 0.24733490E+00 0.87043703E+03</pdfrwt>
<totfact> 0.45765074E+00</totfact>
</mgrwt>
</event>
<event>
 4    1  0.2878104E-007  0.8811094E+03  0.7818608E-02  0.9557064E-01
         -2   -1    0    0    0  501 -0.00000000000E+00  0.00000000000E+00  0.57453608809E+03  0.57453608810E+03  0.25500000000E-02 0.  1.
          2   -1    0    0  501    0  0.00000000000E+00 -0.00000000000E+00 -0.17385821434E+04  0.17385821435E+04  0.25500000000E-02 0. -1.
    8880023    1    1    2    0    0 -0.51262697996E+03 -0.28241311874E+03  0.12428911332E+03  0.88983233262E+03  0.65864270000E+03 0.  1.
    8880022    1    1    2    0    0  0.51262697996E+03  0.28241311874E+03 -0.12883351687E+04  0.14232858989E+04  0.15294330000E+03 0.  0.
<mgrwt>
<rscale>  0 0.80204348E+03</rscale>
<asrwt>0</asrwt>
<pdfrwt beam="1">  1        2 0.26747417E+00 0.88110941E+03</pdfrwt>
<pdfrwt beam="2">  1       -2 0.88390168E-01 0.88110941E+03</pdfrwt>
<totfact> 0.10405160E+01</totfact>
</mgrwt>
</event>
<event>
 4    1  0.2878104E-007  0.7392284E+03  0.7818608E-02  0.9862200E-01
         -2   -1    0    0    0  501 -0.00000000000E+00  0.00000000000E+00  0.43076816875E+03  0.43076816876E+03  0.25500000000E-02 0.  1.
          2   -1    0    0  501    0  0.00000000000E+00 -0.00000000000E+00 -0.12017596259E+04  0.12017596259E+04  0.25500000000E-02 0. -1.
    8880023    1    1    2    0    0  0.21630634033E+03 -0.25663194887E+03  0.41339516331E+02  0.74038338172E+03  0.65864270000E+03 0.  1.
    8880022    1    1    2    0    0 -0.21630634033E+03  0.25663194887E+03 -0.81233097348E+03  0.89214441294E+03  0.15294330000E+03 0.  0.
<mgrwt>
<rscale>  0 0.62128707E+03</rscale>
<asrwt>0</asrwt>
<pdfrwt beam="1">  1        2 0.18488609E+00 0.73922838E+03</pdfrwt>
<pdfrwt beam="2">  1       -2 0.66272026E-01 0.73922838E+03</pdfrwt>
<totfact> 0.40325459E+01</totfact>
</mgrwt>
</event>
<event>
 4    1  0.2878104E-007  0.9108518E+03  0.7818608E-02  0.9508831E-01
         -2   -1    0    0    0  501 -0.00000000000E+00  0.00000000000E+00  0.38785227134E+03  0.38785227135E+03  0.25500000000E-02 0.  1.
          2   -1    0    0  501    0  0.00000000000E+00 -0.00000000000E+00 -0.17061362846E+04  0.17061362846E+04  0.25500000000E-02 0. -1.
    8880023    1    1    2    0    0  0.48927067471E+03  0.39554401655E+03 -0.10582013776E+04  0.13962239161E+04  0.65864270000E+03 0.  0.
    8880022    1    1    2    0    0 -0.48927067471E+03 -0.39554401655E+03 -0.26008263562E+03  0.69776463978E+03  0.15294330000E+03 0.  0.
<mgrwt>
<rscale>  0 0.83635888E+03</rscale>
<asrwt>0</asrwt>
<pdfrwt beam="1">  1        2 0.26248250E+00 0.91085184E+03</pdfrwt>
<pdfrwt beam="2">  1       -2 0.59669581E-01 0.91085184E+03</pdfrwt>
<totfact> 0.25724466E+01</totfact>
</mgrwt>
</event>
<event>
 4    1  0.2878104E-007  0.1488986E+04  0.7818608E-02  0.8917453E-01
          2   -1    0    0  501    0  0.00000000000E+00  0.00000000000E+00  0.36875534646E+04  0.36875534646E+04  0.25500000000E-02 0. -1.
         -2   -1    0    0    0  501 -0.00000000000E+00 -0.00000000000E+00 -0.98077301125E+03  0.98077301125E+03  0.25500000000E-02 0.  1.
    8880023    1    1    2    0    0  0.12046315465E+04  0.57630803414E+03  0.29480368549E+04  0.33027260887E+04  0.65864270000E+03 0. -1.
    8880022    1    1    2    0    0 -0.12046315465E+04 -0.57630803414E+03 -0.24125640159E+03  0.13656003871E+04  0.15294330000E+03 0.  0.
<mgrwt>
<rscale>  0 0.14513676E+04</rscale>
<asrwt>0</asrwt>
<pdfrwt beam="1">  1        2 0.56731592E+00 0.14889857E+04</pdfrwt>
<pdfrwt beam="2">  1       -2 0.15088816E+00 0.14889857E+04</pdfrwt>
<totfact> 0.16829667E-01</totfact>
</mgrwt>
</event>
<event>
 4    1  0.2878104E-007  0.6735665E+03  0.7818608E-02  0.1013225E+00
         -2   -1    0    0    0  501 -0.00000000000E+00  0.00000000000E+00  0.65085608113E+03  0.65085608113E+03  0.25500000000E-02 0.  1.
          2   -1    0    0  501    0  0.00000000000E+00 -0.00000000000E+00 -0.21492450704E+04  0.21492450704E+04  0.25500000000E-02 0. -1.
    8880023    1    1    2    0    0 -0.34420204310E+02 -0.13673640138E+03  0.46962673360E+03  0.82112183572E+03  0.65864270000E+03 0.  1.
    8880022    1    1    2    0    0  0.34420204310E+02  0.13673640138E+03 -0.19680157228E+04  0.19789793158E+04  0.15294330000E+03 0.  0.
<mgrwt>
<rscale>  0 0.50212609E+03</rscale>
<asrwt>0</asrwt>
<pdfrwt beam="1">  1        2 0.33065308E+00 0.67356648E+03</pdfrwt>
<pdfrwt beam="2">  1       -2 0.10013171E+00 0.67356648E+03</pdfrwt>
<totfact> 0.47877575E+00</totfact>
</mgrwt>
</event>
<event>
 4    1  0.2878104E-007  0.7257892E+03  0.7818608E-02  0.9903463E-01
         -2   -1    0    0    0  501 -0.00000000000E+00  0.00000000000E+00  0.47962613525E+03  0.47962613526E+03  0.25500000000E-02 0.  1.
          2   -1    0    0  501    0  0.00000000000E+00 -0.00000000000E+00 -0.95508239296E+03  0.95508239297E+03  0.25500000000E-02 0. -1.
    8880023    1    1    2    0    0 -0.28030729386E+03  0.11994844758E+03  0.13232300827E+03  0.73775293550E+03  0.65864270000E+03 0.  1.
    8880022    1    1    2    0    0  0.28030729386E+03 -0.11994844758E+03 -0.60777926598E+03  0.69695559272E+03  0.15294330000E+03 0.  0.
<mgrwt>
<rscale>  0 0.60093759E+03</rscale>
<asrwt>0</asrwt>
<pdfrwt beam="1">  1        2 0.14693575E+00 0.72578924E+03</pdfrwt>
<pdfrwt beam="2">  1       -2 0.73788637E-01 0.72578924E+03</pdfrwt>
<totfact> 0.45374533E+01</totfact>
</mgrwt>
</event>
<event>
 4    1  0.2878104E-007  0.7697167E+03  0.7818608E-02  0.9780572E-01
          2   -1    0    0  501    0  0.00000000000E+00  0.00000000000E+00  0.18830725640E+04  0.18830725640E+04  0.25500000000E-02 0. -1.
         -2   -1    0    0    0  501 -0.00000000000E+00 -0.00000000000E+00 -0.64967212377E+03  0.64967212378E+03  0.25500000000E-02 0.  1.
    8880023    1    1    2    0    0 -0.33426803471E+03 -0.21660674686E+03 -0.38387804329E+03  0.86013147844E+03  0.65864270000E+03 0.  1.
    8880022    1    1    2    0    0  0.33426803471E+03  0.21660674686E+03  0.16172784835E+04  0.16726132094E+04  0.15294330000E+03 0.  0.
<mgrwt>
<rscale>  0 0.66415677E+03</rscale>
<asrwt>0</asrwt>
<pdfrwt beam="1">  1        2 0.28970346E+00 0.76971671E+03</pdfrwt>
<pdfrwt beam="2">  1       -2 0.99949560E-01 0.76971671E+03</pdfrwt>
<totfact> 0.66091315E+00</totfact>
</mgrwt>
</event>
<event>
 4    1  0.2878104E-007  0.8384491E+03  0.7818608E-02  0.9633112E-01
         -2   -1    0    0    0  501 -0.00000000000E+00  0.00000000000E+00  0.75002042676E+03  0.75002042676E+03  0.25500000000E-02 0.  1.
          2   -1    0    0  501    0  0.00000000000E+00 -0.00000000000E+00 -0.11353639249E+04  0.11353639249E+04  0.25500000000E-02 0. -1.
    8880023    1    1    2    0    0 -0.46068032660E+03 -0.23866354432E+03 -0.83401529439E+03  0.11826150550E+04  0.65864270000E+03 0.  0.
    8880022    1    1    2    0    0  0.46068032660E+03  0.23866354432E+03  0.44867179621E+03  0.70276929673E+03  0.15294330000E+03 0.  0.
<mgrwt>
<rscale>  0 0.75142871E+03</rscale>
<asrwt>0</asrwt>
<pdfrwt beam="1">  1        2 0.17467137E+00 0.83844908E+03</pdfrwt>
<pdfrwt beam="2">  1       -2 0.11538776E+00 0.83844908E+03</pdfrwt>
<totfact> 0.12223462E+01</totfact>
</mgrwt>
</event>
<event>
 4    1  0.2878104E-007  0.1012541E+04  0.7818608E-02  0.9365331E-01
         -2   -1    0    0    0  501 -0.00000000000E+00  0.00000000000E+00  0.56116993889E+03  0.56116993890E+03  0.25500000000E-02 0.  1.
          2   -1    0    0  501    0  0.00000000000E+00 -0.00000000000E+00 -0.22893415948E+04  0.22893415948E+04  0.25500000000E-02 0. -1.
    8880023    1    1    2    0    0  0.38846214549E+03 -0.66372205732E+03 -0.68402154913E+02  0.10148491853E+04  0.65864270000E+03 0.  0.
    8880022    1    1    2    0    0 -0.38846214549E+03  0.66372205732E+03 -0.16597695010E+04  0.18356623484E+04  0.15294330000E+03 0.  0.
<mgrwt>
<rscale>  0 0.94984602E+03</rscale>
<asrwt>0</asrwt>
<pdfrwt beam="1">  1        2 0.35220639E+00 0.10125414E+04</pdfrwt>
<pdfrwt beam="2">  1       -2 0.86333838E-01 0.10125414E+04</pdfrwt>
<totfact> 0.53690214E+00</totfact>
</mgrwt>
</event>
<event>
 4    1  0.2878104E-007  0.8811180E+03  0.7818608E-02  0.9557050E-01
         -2   -1    0    0    0  501 -0.00000000000E+00  0.00000000000E+00  0.22747220599E+03  0.22747220600E+03  0.25500000000E-02 0.  1.
          2   -1    0    0  501    0  0.00000000000E+00 -0.00000000000E+00 -0.25781578567E+04  0.25781578567E+04  0.25500000000E-02 0. -1.
    8880023    1    1    2    0    0 -0.27375776224E+03  0.51731550661E+03 -0.10469475567E+04  0.13683815398E+04  0.65864270000E+03 0. -1.
    8880022    1    1    2    0    0  0.27375776224E+03 -0.51731550661E+03 -0.13037380940E+04  0.14372485229E+04  0.15294330000E+03 0.  0.
<mgrwt>
<rscale>  0 0.80205343E+03</rscale>
<asrwt>0</asrwt>
<pdfrwt beam="1">  1        2 0.39663965E+00 0.88111796E+03</pdfrwt>
<pdfrwt beam="2">  1       -2 0.34995726E-01 0.88111796E+03</pdfrwt>
<totfact> 0.24680741E+01</totfact>
</mgrwt>
</event>
<event>
 4    1  0.2878104E-007  0.1294358E+04  0.7818608E-02  0.9070448E-01
         -2   -1    0    0    0  501 -0.00000000000E+00  0.00000000000E+00  0.19352421721E+04  0.19352421721E+04  0.25500000000E-02 0.  1.
          2   -1    0    0  501    0  0.00000000000E+00 -0.00000000000E+00 -0.15133890456E+04  0.15133890456E+04  0.25500000000E-02 0. -1.
    8880023    1    1    2    0    0 -0.11090840606E+04  0.10716646742E+03 -0.10000549738E+04  0.16356870918E+04  0.65864270000E+03 0. -1.
    8880022    1    1    2    0    0  0.11090840606E+04 -0.10716646742E+03  0.14219081003E+04  0.18129441260E+04  0.15294330000E+03 0.  0.
<mgrwt>
<rscale>  0 0.12496825E+04</rscale>
<asrwt>0</asrwt>
<pdfrwt beam="1">  1        2 0.23282908E+00 0.12943579E+04</pdfrwt>
<pdfrwt beam="2">  1       -2 0.29772956E+00 0.12943579E+04</pdfrwt>
<totfact> 0.39440923E-01</totfact>
</mgrwt>
</event>
<event>
 4    1  0.2878104E-007  0.8217617E+03  0.7818608E-02  0.9665579E-01
         -2   -1    0    0    0  501 -0.00000000000E+00  0.00000000000E+00  0.20541359437E+03  0.20541359438E+03  0.25500000000E-02 0.  1.
          2   -1    0    0  501    0  0.00000000000E+00 -0.00000000000E+00 -0.28398728146E+04  0.28398728146E+04  0.25500000000E-02 0. -1.
    8880023    1    1    2    0    0 -0.40065110322E+03  0.28453616764E+03 -0.82650041504E+03  0.11655021577E+04  0.65864270000E+03 0.  0.
    8880022    1    1    2    0    0  0.40065110322E+03 -0.28453616764E+03 -0.18079588052E+04  0.18797842513E+04  0.15294330000E+03 0.  0.
<mgrwt>
<rscale>  0 0.73103691E+03</rscale>
<asrwt>0</asrwt>
<pdfrwt beam="1">  1        2 0.43690348E+00 0.82176173E+03</pdfrwt>
<pdfrwt beam="2">  1       -2 0.31602094E-01 0.82176173E+03</pdfrwt>
<totfact> 0.21207249E+01</totfact>
</mgrwt>
</event>
<event>
 4    1  0.2878104E-007  0.7978607E+03  0.7818608E-02  0.9715441E-01
         -2   -1    0    0    0  501 -0.00000000000E+00  0.00000000000E+00  0.13412469123E+04  0.13412469123E+04  0.25500000000E-02 0.  1.
          2   -1    0    0  501    0  0.00000000000E+00 -0.00000000000E+00 -0.88505986975E+03  0.88505986975E+03  0.25500000000E-02 0. -1.
    8880023    1    1    2    0    0 -0.16993127022E+03  0.41700707422E+03  0.11411670732E+04  0.13924237975E+04  0.65864270000E+03 0.  1.
    8880022    1    1    2    0    0  0.16993127022E+03 -0.41700707422E+03 -0.68498003067E+03  0.83388298458E+03  0.15294330000E+03 0.  0.
<mgrwt>
<rscale>  0 0.70104849E+03</rscale>
<asrwt>0</asrwt>
<pdfrwt beam="1">  1        2 0.13616306E+00 0.79786073E+03</pdfrwt>
<pdfrwt beam="2">  1       -2 0.20634568E+00 0.79786073E+03</pdfrwt>
<totfact> 0.36910862E+00</totfact>
</mgrwt>
</event>
<event>
 4    1  0.2878104E-007  0.7985888E+03  0.7818608E-02  0.9713856E-01
          2   -1    0    0  501    0  0.00000000000E+00  0.00000000000E+00  0.13974796440E+04  0.13974796440E+04  0.25500000000E-02 0. -1.
         -2   -1    0    0    0  501 -0.00000000000E+00 -0.00000000000E+00 -0.33536855781E+03  0.33536855782E+03  0.25500000000E-02 0.  1.
    8880023    1    1    2    0    0 -0.36301392449E+02  0.45012894632E+03  0.34095145276E+03  0.86832710358E+03  0.65864270000E+03 0.  1.
    8880022    1    1    2    0    0  0.36301392449E+02 -0.45012894632E+03  0.72115963343E+03  0.86452109825E+03  0.15294330000E+03 0.  0.
<mgrwt>
<rscale>  0 0.70197789E+03</rscale>
<asrwt>0</asrwt>
<pdfrwt beam="1">  1        2 0.21499687E+00 0.79858880E+03</pdfrwt>
<pdfrwt beam="2">  1       -2 0.51595162E-01 0.79858880E+03</pdfrwt>
<totfact> 0.52306372E+01</totfact>
</mgrwt>
</event>
<event>
 4    1  0.2878104E-007  0.1956661E+04  0.7818608E-02  0.8640495E-01
          2   -1    0    0  501    0  0.00000000000E+00  0.00000000000E+00  0.30041078078E+04  0.30041078078E+04  0.25500000000E-02 0. -1.
         -2   -1    0    0    0  501 -0.00000000000E+00 -0.00000000000E+00 -0.17020734651E+04  0.17020734651E+04  0.25500000000E-02 0.  1.
    8880023    1    1    2    0    0 -0.18083874831E+04 -0.35276861327E+03  0.19351530560E+04  0.27519699380E+04  0.65864270000E+03 0.  0.
    8880022    1    1    2    0    0  0.18083874831E+04  0.35276861327E+03 -0.63311871329E+03  0.19542113349E+04  0.15294330000E+03 0.  0.
<mgrwt>
<rscale>  0 0.19291224E+04</rscale>
<asrwt>0</asrwt>
<pdfrwt beam="1">  1        2 0.46217043E+00 0.19566607E+04</pdfrwt>
<pdfrwt beam="2">  1       -2 0.26185746E+00 0.19566607E+04</pdfrwt>
<totfact> 0.83826480E-02</totfact>
</mgrwt>
</event>
<event>
 4    1  0.2878104E-007  0.6893554E+03  0.7818608E-02  0.1004460E+00
         -2   -1    0    0    0  501 -0.00000000000E+00  0.00000000000E+00  0.11665992889E+03  0.11665992892E+03  0.25500000000E-02 0.  1.
          2   -1    0    0  501    0  0.00000000000E+00 -0.00000000000E+00 -0.21092645393E+04  0.21092645393E+04  0.25500000000E-02 0. -1.
    8880023    1    1    2    0    0 -0.10783709260E+03 -0.17254529485E+03 -0.11037059040E+04  0.13012984462E+04  0.65864270000E+03 0.  1.
    8880022    1    1    2    0    0  0.10783709260E+03  0.17254529485E+03 -0.88889870637E+03  0.92462602198E+03  0.15294330000E+03 0.  0.
<mgrwt>
<rscale>  0 0.53736935E+03</rscale>
<asrwt>0</asrwt>
<pdfrwt beam="1">  1        2 0.32450221E+00 0.68935544E+03</pdfrwt>
<pdfrwt beam="2">  1       -2 0.17947683E-01 0.68935544E+03</pdfrwt>
<totfact> 0.15464930E+02</totfact>
</mgrwt>
</event>
<event>
 4    1  0.2878104E-007  0.8083358E+03  0.7818608E-02  0.9693054E-01
         -2   -1    0    0    0  501 -0.00000000000E+00  0.00000000000E+00  0.69429056362E+03  0.69429056363E+03  0.25500000000E-02 0.  1.
          2   -1    0    0  501    0  0.00000000000E+00 -0.00000000000E+00 -0.16540522841E+04  0.16540522841E+04  0.25500000000E-02 0. -1.
    8880023    1    1    2    0    0 -0.31434333851E+03 -0.34754107299E+03  0.40007091423E+03  0.90192210005E+03  0.65864270000E+03 0.  1.
    8880022    1    1    2    0    0  0.31434333851E+03  0.34754107299E+03 -0.13598326347E+04  0.14464207477E+04  0.15294330000E+03 0.  0.
<mgrwt>
<rscale>  0 0.71431866E+03</rscale>
<asrwt>0</asrwt>
<pdfrwt beam="1">  1        2 0.25446958E+00 0.80833578E+03</pdfrwt>
<pdfrwt beam="2">  1       -2 0.10681393E+00 0.80833578E+03</pdfrwt>
<totfact> 0.74813503E+00</totfact>
</mgrwt>
</event>
<event>
 4    1  0.2878104E-007  0.6657706E+03  0.7818608E-02  0.1018895E+00
          2   -1    0    0  501    0  0.00000000000E+00  0.00000000000E+00  0.27396632958E+04  0.27396632958E+04  0.25500000000E-02 0. -1.
         -2   -1    0    0    0  501 -0.00000000000E+00 -0.00000000000E+00 -0.69281691014E+03  0.69281691015E+03  0.25500000000E-02 0.  1.
    8880023    1    1    2    0    0  0.72383555909E+02 -0.64814430801E+02 -0.52895108563E+03  0.85031743887E+03  0.65864270000E+03 0.  0.
    8880022    1    1    2    0    0 -0.72383555909E+02  0.64814430801E+02  0.25757974713E+04  0.25821627671E+04  0.15294330000E+03 0. -1.
<mgrwt>
<rscale>  0 0.48087316E+03</rscale>
<asrwt>0</asrwt>
<pdfrwt beam="1">  1        2 0.42148666E+00 0.66577060E+03</pdfrwt>
<pdfrwt beam="2">  1       -2 0.10658722E+00 0.66577060E+03</pdfrwt>
<totfact> 0.19221630E+00</totfact>
</mgrwt>
</event>
<event>
 4    1  0.2878104E-007  0.7618143E+03  0.7818608E-02  0.9800433E-01
          2   -1    0    0  501    0  0.00000000000E+00  0.00000000000E+00  0.12567542145E+04  0.12567542145E+04  0.25500000000E-02 0. -1.
         -2   -1    0    0    0  501 -0.00000000000E+00 -0.00000000000E+00 -0.14984384127E+04  0.14984384127E+04  0.25500000000E-02 0.  1.
    8880023    1    1    2    0    0 -0.39733637955E+02  0.38075203886E+03 -0.13624745724E+04  0.15609926469E+04  0.65864270000E+03 0.  0.
    8880022    1    1    2    0    0  0.39733637955E+02 -0.38075203886E+03  0.11207903742E+04  0.11941999803E+04  0.15294330000E+03 0. -1.
<mgrwt>
<rscale>  0 0.65339321E+03</rscale>
<asrwt>0</asrwt>
<pdfrwt beam="1">  1        2 0.19334680E+00 0.76181434E+03</pdfrwt>
<pdfrwt beam="2">  1       -2 0.23052899E+00 0.76181434E+03</pdfrwt>
<totfact> 0.15338337E+00</totfact>
</mgrwt>
</event>
<event>
 4    1  0.2878104E-007  0.9047583E+03  0.7818608E-02  0.9518436E-01
         -2   -1    0    0    0  501 -0.00000000000E+00  0.00000000000E+00  0.78909511511E+03  0.78909511512E+03  0.25500000000E-02 0.  1.
          2   -1    0    0  501    0  0.00000000000E+00 -0.00000000000E+00 -0.16404475407E+04  0.16404475407E+04  0.25500000000E-02 0. -1.
    8880023    1    1    2    0    0 -0.61584262185E+03  0.74264672853E+02  0.42698105865E+03  0.10004501023E+04  0.65864270000E+03 0.  1.
    8880022    1    1    2    0    0  0.61584262185E+03 -0.74264672853E+02 -0.12783334842E+04  0.14290925535E+04  0.15294330000E+03 0.  0.
<mgrwt>
<rscale>  0 0.82938168E+03</rscale>
<asrwt>0</asrwt>
<pdfrwt beam="1">  1        2 0.25237654E+00 0.90475830E+03</pdfrwt>
<pdfrwt beam="2">  1       -2 0.12139925E+00 0.90475830E+03</pdfrwt>
<totfact> 0.54956607E+00</totfact>
</mgrwt>
</event>
<event>
 4    1  0.2878104E-007  0.1292728E+04  0.7818608E-02  0.9071865E-01
         -2   -1    0    0    0  501 -0.00000000000E+00  0.00000000000E+00  0.15949116152E+04  0.15949116152E+04  0.25500000000E-02 0.  1.
          2   -1    0    0  501    0  0.00000000000E+00 -0.00000000000E+00 -0.10030594909E+04  0.10030594909E+04  0.25500000000E-02 0. -1.
    8880023    1    1    2    0    0 -0.13783639475E+03  0.11037833941E+04 -0.69960132359E+02  0.12946201293E+04  0.65864270000E+03 0.  0.
    8880022    1    1    2    0    0  0.13783639475E+03 -0.11037833941E+04  0.66181225670E+03  0.13033509769E+04  0.15294330000E+03 0.  0.
<mgrwt>
<rscale>  0 0.12479816E+04</rscale>
<asrwt>0</asrwt>
<pdfrwt beam="1">  1        2 0.15431685E+00 0.12927285E+04</pdfrwt>
<pdfrwt beam="2">  1       -2 0.24537101E+00 0.12927285E+04</pdfrwt>
<totfact> 0.16604788E+00</totfact>
</mgrwt>
</event>
<event>
 4    1  0.2878104E-007  0.6822634E+03  0.7818608E-02  0.1008071E+00
         -2   -1    0    0    0  501 -0.00000000000E+00  0.00000000000E+00  0.44217216457E+03  0.44217216458E+03  0.25500000000E-02 0.  1.
          2   -1    0    0  501    0  0.00000000000E+00 -0.00000000000E+00 -0.23315518005E+04  0.23315518005E+04  0.25500000000E-02 0. -1.
    8880023    1    1    2    0    0 -0.91444327836E+02  0.15267981216E+03  0.16829374552E+03  0.70271344172E+03  0.65864270000E+03 0.  1.
    8880022    1    1    2    0    0  0.91444327836E+02 -0.15267981216E+03 -0.20576733814E+04  0.20710105233E+04  0.15294330000E+03 0.  0.
<mgrwt>
<rscale>  0 0.52248445E+03</rscale>
<asrwt>0</asrwt>
<pdfrwt beam="1">  1        2 0.35870027E+00 0.68226344E+03</pdfrwt>
<pdfrwt beam="2">  1       -2 0.68026488E-01 0.68226344E+03</pdfrwt>
<totfact> 0.90918165E+00</totfact>
</mgrwt>
</event>
<event>
 4    1  0.2878104E-007  0.1468622E+04  0.7818608E-02  0.8932116E-01
          2   -1    0    0  501    0  0.00000000000E+00  0.00000000000E+00  0.30724043114E+04  0.30724043114E+04  0.25500000000E-02 0. -1.
         -2   -1    0    0    0  501 -0.00000000000E+00 -0.00000000000E+00 -0.84856491677E+03  0.84856491678E+03  0.25500000000E-02 0.  1.
    8880023    1    1    2    0    0 -0.53459908553E+03 -0.11988517265E+04  0.16962954831E+03  0.14783862940E+04  0.65864270000E+03 0.  0.
    8880022    1    1    2    0    0  0.53459908553E+03  0.11988517265E+04  0.20542098463E+04  0.24425829342E+04  0.15294330000E+03 0.  0.
<mgrwt>
<rscale>  0 0.14303806E+04</rscale>
<asrwt>0</asrwt>
<pdfrwt beam="1">  1        2 0.47267758E+00 0.14686224E+04</pdfrwt>
<pdfrwt beam="2">  1       -2 0.13054845E+00 0.14686224E+04</pdfrwt>
<totfact> 0.64294786E-01</totfact>
</mgrwt>
</event>
<event>
 4    1  0.2878104E-007  0.7658323E+03  0.7818608E-02  0.9790236E-01
          2   -1    0    0  501    0  0.00000000000E+00  0.00000000000E+00  0.99801300126E+03  0.99801300126E+03  0.25500000000E-02 0. -1.
         -2   -1    0    0    0  501 -0.00000000000E+00 -0.00000000000E+00 -0.89548668725E+03  0.89548668726E+03  0.25500000000E-02 0.  1.
    8880023    1    1    2    0    0  0.26142644852E+03 -0.29042241480E+03 -0.66792981188E+03  0.10161837466E+04  0.65864270000E+03 0.  0.
    8880022    1    1    2    0    0 -0.26142644852E+03  0.29042241480E+03  0.77045612589E+03  0.87731594191E+03  0.15294330000E+03 0.  0.
<mgrwt>
<rscale>  0 0.65889198E+03</rscale>
<asrwt>0</asrwt>
<pdfrwt beam="1">  1        2 0.15354046E+00 0.76583234E+03</pdfrwt>
<pdfrwt beam="2">  1       -2 0.13776718E+00 0.76583234E+03</pdfrwt>
<totfact> 0.96088016E+00</totfact>
</mgrwt>
</event>
<event>
 4    1  0.2878104E-007  0.7202261E+03  0.7818608E-02  0.9921822E-01
         -2   -1    0    0    0  501 -0.00000000000E+00  0.00000000000E+00  0.77542011653E+03  0.77542011654E+03  0.25500000000E-02 0.  1.
          2   -1    0    0  501    0  0.00000000000E+00 -0.00000000000E+00 -0.70502905403E+03  0.70502905404E+03  0.25500000000E-02 0. -1.
    8880023    1    1    2    0    0 -0.27065746739E+03  0.10798148723E+03  0.54479846946E+03  0.90306757489E+03  0.65864270000E+03 0.  1.
    8880022    1    1    2    0    0  0.27065746739E+03 -0.10798148723E+03 -0.47440740696E+03  0.57738159568E+03  0.15294330000E+03 0.  0.
<mgrwt>
<rscale>  0 0.59215279E+03</rscale>
<asrwt>0</asrwt>
<pdfrwt beam="1">  1        2 0.10846601E+00 0.72022613E+03</pdfrwt>
<pdfrwt beam="2">  1       -2 0.11929540E+00 0.72022613E+03</pdfrwt>
<totfact> 0.22240654E+01</totfact>
</mgrwt>
</event>
<event>
 4    1  0.2878104E-007  0.1578647E+04  0.7818608E-02  0.8856009E-01
          2   -1    0    0  501    0  0.00000000000E+00  0.00000000000E+00  0.39542452697E+04  0.39542452697E+04  0.25500000000E-02 0. -1.
         -2   -1    0    0    0  501 -0.00000000000E+00 -0.00000000000E+00 -0.64474796138E+03  0.64474796138E+03  0.25500000000E-02 0.  1.
    8880023    1    1    2    0    0 -0.24169120292E+03 -0.14141782951E+04  0.97760338097E+03  0.18568342588E+04  0.65864270000E+03 0.  0.
    8880022    1    1    2    0    0  0.24169120292E+03  0.14141782951E+04  0.23318939274E+04  0.27421589723E+04  0.15294330000E+03 0.  0.
<mgrwt>
<rscale>  0 0.15435337E+04</rscale>
<asrwt>0</asrwt>
<pdfrwt beam="1">  1        2 0.60834542E+00 0.15786466E+04</pdfrwt>
<pdfrwt beam="2">  1       -2 0.99191995E-01 0.15786466E+04</pdfrwt>
<totfact> 0.30097782E-01</totfact>
</mgrwt>
</event>
<event>
 4    1  0.2878104E-007  0.7078824E+03  0.7818608E-02  0.9965950E-01
          2   -1    0    0  501    0  0.00000000000E+00  0.00000000000E+00  0.12019695272E+04  0.12019695272E+04  0.25500000000E-02 0. -1.
         -2   -1    0    0    0  501 -0.00000000000E+00 -0.00000000000E+00 -0.55713400646E+03  0.55713400647E+03  0.25500000000E-02 0.  1.
    8880023    1    1    2    0    0 -0.19964000940E+03 -0.16562362262E+03 -0.29896679466E+03  0.76842609814E+03  0.65864270000E+03 0.  0.
    8880022    1    1    2    0    0  0.19964000940E+03  0.16562362262E+03  0.94380231537E+03  0.99067743552E+03  0.15294330000E+03 0.  0.
<mgrwt>
<rscale>  0 0.57168812E+03</rscale>
<asrwt>0</asrwt>
<pdfrwt beam="1">  1        2 0.18491839E+00 0.70788242E+03</pdfrwt>
<pdfrwt beam="2">  1       -2 0.85712925E-01 0.70788242E+03</pdfrwt>
<totfact> 0.22863086E+01</totfact>
</mgrwt>
</event>
<event>
 4    1  0.3474019E-007  0.8455654E+03  0.7818608E-02  0.9619774E-01
          2   -1    0    0  501    0  0.00000000000E+00  0.00000000000E+00  0.19209468042E+04  0.19209468042E+04  0.25500000000E-02 0. -1.
         -2   -1    0    0    0  501 -0.00000000000E+00 -0.00000000000E+00 -0.20915942687E+04  0.20915942687E+04  0.25500000000E-02 0.  1.
    8880023    1    1    2    0    0 -0.15963626742E+03 -0.50565490389E+03 -0.19628829536E+04  0.21372623413E+04  0.65864270000E+03 0.  1.
    8880022    1    1    2    0    0  0.15963626742E+03  0.50565490389E+03  0.17922354891E+04  0.18752787316E+04  0.15294330000E+03 0.  0.
<mgrwt>
<rscale>  0 0.76001106E+03</rscale>
<asrwt>0</asrwt>
<pdfrwt beam="1">  1        2 0.29553028E+00 0.84556539E+03</pdfrwt>
<pdfrwt beam="2">  1       -2 0.32178373E+00 0.84556539E+03</pdfrwt>
<totfact> 0.18045065E-01</totfact>
</mgrwt>
</event>
<event>
 4    1  0.2878104E-007  0.7025346E+03  0.7818608E-02  0.9986845E-01
         -2   -1    0    0    0  501 -0.00000000000E+00  0.00000000000E+00  0.10261026278E+03  0.10261026281E+03  0.25500000000E-02 0.  1.
          2   -1    0    0  501    0  0.00000000000E+00 -0.00000000000E+00 -0.28530286068E+04  0.28530286068E+04  0.25500000000E-02 0. -1.
    8880023    1    1    2    0    0 -0.12703067900E+03  0.20882494114E+03 -0.13084430310E+04  0.14851188575E+04  0.65864270000E+03 0.  0.
    8880022    1    1    2    0    0  0.12703067900E+03 -0.20882494114E+03 -0.14419753130E+04  0.14705200120E+04  0.15294330000E+03 0.  0.
<mgrwt>
<rscale>  0 0.56230847E+03</rscale>
<asrwt>0</asrwt>
<pdfrwt beam="1">  1        2 0.43892742E+00 0.70253459E+03</pdfrwt>
<pdfrwt beam="2">  1       -2 0.15786196E-01 0.70253459E+03</pdfrwt>
<totfact> 0.72877984E+01</totfact>
</mgrwt>
</event>
<event>
 4    1  0.2878104E-007  0.7001758E+03  0.7818608E-02  0.9996473E-01
          2   -1    0    0  501    0  0.00000000000E+00  0.00000000000E+00  0.25182123835E+04  0.25182123835E+04  0.25500000000E-02 0. -1.
         -2   -1    0    0    0  501 -0.00000000000E+00 -0.00000000000E+00 -0.30277606992E+03  0.30277606993E+03  0.25500000000E-02 0.  1.
    8880023    1    1    2    0    0  0.22044323697E+03 -0.88547649513E+02  0.12463351677E+03  0.71118185208E+03  0.65864270000E+03 0.  1.
    8880022    1    1    2    0    0 -0.22044323697E+03  0.88547649513E+02  0.20908027968E+04  0.21098066013E+04  0.15294330000E+03 0.  0.
<mgrwt>
<rscale>  0 0.55805168E+03</rscale>
<asrwt>0</asrwt>
<pdfrwt beam="1">  1        2 0.38741728E+00 0.70017577E+03</pdfrwt>
<pdfrwt beam="2">  1       -2 0.46580935E-01 0.70017577E+03</pdfrwt>
<totfact> 0.15675413E+01</totfact>
</mgrwt>
</event>
<event>
 4    1  0.2878104E-007  0.7103061E+03  0.7818608E-02  0.9956866E-01
          2   -1    0    0  501    0  0.00000000000E+00  0.00000000000E+00  0.25438555504E+04  0.25438555504E+04  0.25500000000E-02 0. -1.
         -2   -1    0    0    0  501 -0.00000000000E+00 -0.00000000000E+00 -0.13130667290E+03  0.13130667293E+03  0.25500000000E-02 0.  1.
    8880023    1    1    2    0    0 -0.24847818776E+03  0.94779142911E+02  0.98126522566E+03  0.12113695328E+04  0.65864270000E+03 0.  1.
    8880022    1    1    2    0    0  0.24847818776E+03 -0.94779142911E+02  0.14312836519E+04  0.14637926905E+04  0.15294330000E+03 0.  0.
<mgrwt>
<rscale>  0 0.57582718E+03</rscale>
<asrwt>0</asrwt>
<pdfrwt beam="1">  1        2 0.39136236E+00 0.71030606E+03</pdfrwt>
<pdfrwt beam="2">  1       -2 0.20201028E-01 0.71030606E+03</pdfrwt>
<totfact> 0.71981520E+01</totfact>
</mgrwt>
</event>
<event>
 4    1  0.2878104E-007  0.7266200E+03  0.7818608E-02  0.9900791E-01
          2   -1    0    0  501    0  0.00000000000E+00  0.00000000000E+00  0.40405407931E+03  0.40405407932E+03  0.25500000000E-02 0. -1.
         -2   -1    0    0    0  501 -0.00000000000E+00 -0.00000000000E+00 -0.74695092962E+03  0.74695092962E+03  0.25500000000E-02 0.  1.
    8880023    1    1    2    0    0  0.14432484383E+02 -0.30652580581E+03 -0.35334500191E+03  0.80797850396E+03  0.65864270000E+03 0.  1.
    8880022    1    1    2    0    0 -0.14432484383E+02  0.30652580581E+03  0.10448151605E+02  0.34302650498E+03  0.15294330000E+03 0.  0.
<mgrwt>
<rscale>  0 0.60222950E+03</rscale>
<asrwt>0</asrwt>
<pdfrwt beam="1">  1        2 0.62162166E-01 0.72661996E+03</pdfrwt>
<pdfrwt beam="2">  1       -2 0.11491553E+00 0.72661996E+03</pdfrwt>
<totfact> 0.47035104E+01</totfact>
</mgrwt>
</event>
<event>
 4    1  0.2878104E-007  0.7585517E+03  0.7818608E-02  0.9808872E-01
         -2   -1    0    0    0  501 -0.00000000000E+00  0.00000000000E+00  0.72577130005E+03  0.72577130006E+03  0.25500000000E-02 0.  1.
          2   -1    0    0  501    0  0.00000000000E+00 -0.00000000000E+00 -0.27761981336E+04  0.27761981336E+04  0.25500000000E-02 0. -1.
    8880023    1    1    2    0    0  0.20476863972E+03 -0.31569008824E+03  0.50706558695E+03  0.91242322601E+03  0.65864270000E+03 0.  1.
    8880022    1    1    2    0    0 -0.20476863972E+03  0.31569008824E+03 -0.25574924205E+04  0.25895462077E+04  0.15294330000E+03 0.  0.
<mgrwt>
<rscale>  0 0.64888610E+03</rscale>
<asrwt>0</asrwt>
<pdfrwt beam="1">  1        2 0.42710740E+00 0.75855167E+03</pdfrwt>
<pdfrwt beam="2">  1       -2 0.11165712E+00 0.75855167E+03</pdfrwt>
<totfact> 0.16023511E+00</totfact>
</mgrwt>
</event>
<event>
 4    1  0.2878104E-007  0.7702054E+03  0.7818608E-02  0.9779369E-01
         -2   -1    0    0    0  501 -0.00000000000E+00  0.00000000000E+00  0.95172512770E+03  0.95172512770E+03  0.25500000000E-02 0.  1.
          2   -1    0    0  501    0  0.00000000000E+00 -0.00000000000E+00 -0.51558703053E+03  0.51558703054E+03  0.25500000000E-02 0. -1.
    8880023    1    1    2    0    0  0.27250705273E+03  0.29179806398E+03  0.63268703652E+03  0.99674936487E+03  0.65864270000E+03 0.  1.
    8880022    1    1    2    0    0 -0.27250705273E+03 -0.29179806398E+03 -0.19654893935E+03  0.47056279337E+03  0.15294330000E+03 0.  0.
<mgrwt>
<rscale>  0 0.66481578E+03</rscale>
<asrwt>0</asrwt>
<pdfrwt beam="1">  1        2 0.79321082E-01 0.77020543E+03</pdfrwt>
<pdfrwt beam="2">  1       -2 0.14641925E+00 0.77020543E+03</pdfrwt>
<totfact> 0.19197946E+01</totfact>
</mgrwt>
</event>
<event>
 4    1  0.2878104E-007  0.8088156E+03  0.7818608E-02  0.9692049E-01
         -2   -1    0    0    0  501 -0.00000000000E+00  0.00000000000E+00  0.86418132717E+03  0.86418132717E+03  0.25500000000E-02 0.  1.
          2   -1    0    0  501    0  0.00000000000E+00 -0.00000000000E+00 -0.12724189670E+04  0.12724189670E+04  0.25500000000E-02 0. -1.
    8880023    1    1    2    0    0 -0.12963460671E+03  0.45118443850E+03  0.60461290515E+03  0.10098215190E+04  0.65864270000E+03 0.  0.
    8880022    1    1    2    0    0  0.12963460671E+03 -0.45118443850E+03 -0.10128505450E+04  0.11267787752E+04  0.15294330000E+03 0.  0.
<mgrwt>
<rscale>  0 0.71492155E+03</rscale>
<asrwt>0</asrwt>
<pdfrwt beam="1">  1        2 0.19575677E+00 0.80881564E+03</pdfrwt>
<pdfrwt beam="2">  1       -2 0.13295097E+00 0.80881564E+03</pdfrwt>
<totfact> 0.71348003E+00</totfact>
</mgrwt>
</event>
<event>
 4    1  0.2878104E-007  0.1047681E+04  0.7818608E-02  0.9321674E-01
          2   -1    0    0  501    0  0.00000000000E+00  0.00000000000E+00  0.15718365197E+04  0.15718365197E+04  0.25500000000E-02 0. -1.
         -2   -1    0    0    0  501 -0.00000000000E+00 -0.00000000000E+00 -0.18782669707E+04  0.18782669707E+04  0.25500000000E-02 0.  1.
    8880023    1    1    2    0    0 -0.69167714781E+03 -0.43058995643E+03 -0.16007175219E+04  0.19130948170E+04  0.65864270000E+03 0.  0.
    8880022    1    1    2    0    0  0.69167714781E+03  0.43058995643E+03  0.12942870709E+04  0.15370086734E+04  0.15294330000E+03 0.  0.
<mgrwt>
<rscale>  0 0.98811722E+03</rscale>
<asrwt>0</asrwt>
<pdfrwt beam="1">  1        2 0.24182100E+00 0.10476809E+04</pdfrwt>
<pdfrwt beam="2">  1       -2 0.28896415E+00 0.10476809E+04</pdfrwt>
<totfact> 0.42782397E-01</totfact>
</mgrwt>
</event>
<event>
 4    1  0.2878104E-007  0.7132133E+03  0.7818608E-02  0.9946257E-01
         -2   -1    0    0    0  501 -0.00000000000E+00  0.00000000000E+00  0.99029576983E+03  0.99029576983E+03  0.25500000000E-02 0.  1.
          2   -1    0    0  501    0  0.00000000000E+00 -0.00000000000E+00 -0.19895464134E+04  0.19895464134E+04  0.25500000000E-02 0. -1.
    8880023    1    1    2    0    0  0.45686842104E+02  0.26976964507E+03  0.84693455113E+03  0.11072358778E+04  0.65864270000E+03 0.  1.
    8880022    1    1    2    0    0 -0.45686842104E+02 -0.26976964507E+03 -0.18461851947E+04  0.18726063054E+04  0.15294330000E+03 0.  0.
<mgrwt>
<rscale>  0 0.58070915E+03</rscale>
<asrwt>0</asrwt>
<pdfrwt beam="1">  1        2 0.30608406E+00 0.71321326E+03</pdfrwt>
<pdfrwt beam="2">  1       -2 0.15235320E+00 0.71321326E+03</pdfrwt>
<totfact> 0.20343704E+00</totfact>
</mgrwt>
</event>
<event>
 4    1  0.2878104E-007  0.1072326E+04  0.7818608E-02  0.9292512E-01
          2   -1    0    0  501    0  0.00000000000E+00  0.00000000000E+00  0.41909548896E+03  0.41909548897E+03  0.25500000000E-02 0. -1.
         -2   -1    0    0    0  501 -0.00000000000E+00 -0.00000000000E+00 -0.24076726182E+04  0.24076726182E+04  0.25500000000E-02 0.  1.
    8880023    1    1    2    0    0  0.16116011334E+03 -0.83072279113E+03 -0.14802219068E+04  0.18278238530E+04  0.65864270000E+03 0.  0.
    8880022    1    1    2    0    0 -0.16116011334E+03  0.83072279113E+03 -0.50835522245E+03  0.99894425423E+03  0.15294330000E+03 0.  0.
<mgrwt>
<rscale>  0 0.10147518E+04</rscale>
<asrwt>0</asrwt>
<pdfrwt beam="1">  1        2 0.64476230E-01 0.10723260E+04</pdfrwt>
<pdfrwt beam="2">  1       -2 0.37041117E+00 0.10723260E+04</pdfrwt>
<totfact> 0.87821048E-01</totfact>
</mgrwt>
</event>
<event>
 4    1  0.2878104E-007  0.8341894E+03  0.7818608E-02  0.9641235E-01
          2   -1    0    0  501    0  0.00000000000E+00  0.00000000000E+00  0.41172937974E+04  0.41172937974E+04  0.25500000000E-02 0. -1.
         -2   -1    0    0    0  501 -0.00000000000E+00 -0.00000000000E+00 -0.26237919301E+03  0.26237919302E+03  0.25500000000E-02 0.  1.
    8880023    1    1    2    0    0 -0.20307858698E+02  0.51151671947E+03  0.47938803071E+03  0.96212517568E+03  0.65864270000E+03 0.  0.
    8880022    1    1    2    0    0  0.20307858698E+02 -0.51151671947E+03  0.33755265736E+04  0.34175478147E+04  0.15294330000E+03 0.  0.
<mgrwt>
<rscale>  0 0.74626042E+03</rscale>
<asrwt>0</asrwt>
<pdfrwt beam="1">  1        2 0.63342973E+00 0.83418941E+03</pdfrwt>
<pdfrwt beam="2">  1       -2 0.40366035E-01 0.83418941E+03</pdfrwt>
<totfact> 0.17401521E+00</totfact>
</mgrwt>
</event>
<event>
 4    1  0.2878104E-007  0.8669054E+03  0.7818608E-02  0.9581396E-01
          2   -1    0    0  501    0  0.00000000000E+00  0.00000000000E+00  0.19520738369E+04  0.19520738369E+04  0.25500000000E-02 0. -1.
         -2   -1    0    0    0  501 -0.00000000000E+00 -0.00000000000E+00 -0.56529697279E+03  0.56529697280E+03  0.25500000000E-02 0.  1.
    8880023    1    1    2    0    0 -0.13254116051E+03 -0.54785735342E+03 -0.14416197311E+03  0.87881040030E+03  0.65864270000E+03 0.  0.
    8880022    1    1    2    0    0  0.13254116051E+03  0.54785735342E+03  0.15309388372E+04  0.16385604094E+04  0.15294330000E+03 0.  0.
<mgrwt>
<rscale>  0 0.78539846E+03</rscale>
<asrwt>0</asrwt>
<pdfrwt beam="1">  1        2 0.30031905E+00 0.86690544E+03</pdfrwt>
<pdfrwt beam="2">  1       -2 0.86968766E-01 0.86690544E+03</pdfrwt>
<totfact> 0.82642554E+00</totfact>
</mgrwt>
</event>
<event>
 4    1  0.2878104E-007  0.1522784E+04  0.7818608E-02  0.8893713E-01
          2   -1    0    0  501    0  0.00000000000E+00  0.00000000000E+00  0.41431071927E+04  0.41431071927E+04  0.25500000000E-02 0. -1.
         -2   -1    0    0    0  501 -0.00000000000E+00 -0.00000000000E+00 -0.91848831799E+03  0.91848831800E+03  0.25500000000E-02 0.  1.
    8880023    1    1    2    0    0 -0.21329494348E+03  0.13563061438E+04 -0.33018398656E+02  0.15231419860E+04  0.65864270000E+03 0.  0.
    8880022    1    1    2    0    0  0.21329494348E+03 -0.13563061438E+04  0.32576372733E+04  0.35384535247E+04  0.15294330000E+03 0.  0.
<mgrwt>
<rscale>  0 0.14861544E+04</rscale>
<asrwt>0</asrwt>
<pdfrwt beam="1">  1        2 0.63740110E+00 0.15227841E+04</pdfrwt>
<pdfrwt beam="2">  1       -2 0.14130590E+00 0.15227841E+04</pdfrwt>
<totfact> 0.87763025E-02</totfact>
</mgrwt>
</event>
<event>
 4    1  0.2878104E-007  0.1340921E+04  0.7818608E-02  0.9031004E-01
         -2   -1    0    0    0  501 -0.00000000000E+00  0.00000000000E+00  0.16223364500E+04  0.16223364500E+04  0.25500000000E-02 0.  1.
          2   -1    0    0  501    0  0.00000000000E+00 -0.00000000000E+00 -0.20325382692E+04  0.20325382692E+04  0.25500000000E-02 0. -1.
    8880023    1    1    2    0    0 -0.67789757569E+03 -0.95116428456E+03  0.11036523662E+04  0.17366972595E+04  0.65864270000E+03 0.  0.
    8880022    1    1    2    0    0  0.67789757569E+03  0.95116428456E+03 -0.15138541854E+04  0.19181774598E+04  0.15294330000E+03 0.  0.
<mgrwt>
<rscale>  0 0.12981873E+04</rscale>
<asrwt>0</asrwt>
<pdfrwt beam="1">  1        2 0.31269819E+00 0.13409209E+04</pdfrwt>
<pdfrwt beam="2">  1       -2 0.24959022E+00 0.13409209E+04</pdfrwt>
<totfact> 0.39564484E-01</totfact>
</mgrwt>
</event>
<event>
 4    1  0.2878104E-007  0.8365167E+03  0.7818608E-02  0.9636784E-01
         -2   -1    0    0    0  501 -0.00000000000E+00  0.00000000000E+00  0.47504499291E+03  0.47504499292E+03  0.25500000000E-02 0.  1.
          2   -1    0    0  501    0  0.00000000000E+00 -0.00000000000E+00 -0.26328074378E+04  0.26328074378E+04  0.25500000000E-02 0. -1.
    8880023    1    1    2    0    0 -0.49537124948E+03 -0.14337822819E+03  0.47569061916E+02  0.83786813583E+03  0.65864270000E+03 0.  1.
    8880022    1    1    2    0    0  0.49537124948E+03  0.14337822819E+03 -0.22053315068E+04  0.22699842949E+04  0.15294330000E+03 0.  0.
<mgrwt>
<rscale>  0 0.74908712E+03</rscale>
<asrwt>0</asrwt>
<pdfrwt beam="1">  1        2 0.40504729E+00 0.83651670E+03</pdfrwt>
<pdfrwt beam="2">  1       -2 0.73083847E-01 0.83651670E+03</pdfrwt>
<totfact> 0.51104018E+00</totfact>
</mgrwt>
</event>
<event>
 4    1  0.2878104E-007  0.7008786E+03  0.7818608E-02  0.9993576E-01
         -2   -1    0    0    0  501 -0.00000000000E+00  0.00000000000E+00  0.36794598773E+03  0.36794598774E+03  0.25500000000E-02 0.  1.
          2   -1    0    0  501    0  0.00000000000E+00 -0.00000000000E+00 -0.19913976694E+04  0.19913976694E+04  0.25500000000E-02 0. -1.
    8880023    1    1    2    0    0 -0.43374259090E+02  0.23566780261E+03  0.10389972549E+02  0.70095563150E+03  0.65864270000E+03 0.  1.
    8880022    1    1    2    0    0  0.43374259090E+02 -0.23566780261E+03 -0.16338416543E+04  0.16583880257E+04  0.15294330000E+03 0.  0.
<mgrwt>
<rscale>  0 0.55932829E+03</rscale>
<asrwt>0</asrwt>
<pdfrwt beam="1">  1        2 0.30636887E+00 0.70087862E+03</pdfrwt>
<pdfrwt beam="2">  1       -2 0.56607076E-01 0.70087862E+03</pdfrwt>
<totfact> 0.20587719E+01</totfact>
</mgrwt>
</event>
<event>
 4    1  0.2878104E-007  0.8884641E+03  0.7818608E-02  0.9544810E-01
         -2   -1    0    0    0  501 -0.00000000000E+00  0.00000000000E+00  0.40429352467E+03  0.40429352468E+03  0.25500000000E-02 0.  1.
          2   -1    0    0  501    0  0.00000000000E+00 -0.00000000000E+00 -0.16815493324E+04  0.16815493324E+04  0.25500000000E-02 0. -1.
    8880023    1    1    2    0    0 -0.29709907069E+02 -0.59554640434E+03 -0.31328287189E+03  0.94207991295E+03  0.65864270000E+03 0.  1.
    8880022    1    1    2    0    0  0.29709907069E+02  0.59554640434E+03 -0.96397293582E+03  0.11437629441E+04  0.15294330000E+03 0.  0.
<mgrwt>
<rscale>  0 0.81059257E+03</rscale>
<asrwt>0</asrwt>
<pdfrwt beam="1">  1        2 0.25869989E+00 0.88846407E+03</pdfrwt>
<pdfrwt beam="2">  1       -2 0.62199005E-01 0.88846407E+03</pdfrwt>
<totfact> 0.24354815E+01</totfact>
</mgrwt>
</event>
<event>
 4    1  0.2878104E-007  0.7723657E+03  0.7818608E-02  0.9774086E-01
         -2   -1    0    0    0  501 -0.00000000000E+00  0.00000000000E+00  0.60602684120E+03  0.60602684120E+03  0.25500000000E-02 0.  1.
          2   -1    0    0  501    0  0.00000000000E+00 -0.00000000000E+00 -0.67680524376E+03  0.67680524377E+03  0.25500000000E-02 0. -1.
    8880023    1    1    2    0    0 -0.19572337132E+03  0.35274768412E+03  0.16700589960E+03  0.79021499827E+03  0.65864270000E+03 0.  0.
    8880022    1    1    2    0    0  0.19572337132E+03 -0.35274768412E+03 -0.23778430217E+03  0.49261708670E+03  0.15294330000E+03 0.  0.
<mgrwt>
<rscale>  0 0.66771994E+03</rscale>
<asrwt>0</asrwt>
<pdfrwt beam="1">  1        2 0.10412388E+00 0.77236570E+03</pdfrwt>
<pdfrwt beam="2">  1       -2 0.93234899E-01 0.77236570E+03</pdfrwt>
<totfact> 0.42094952E+01</totfact>
</mgrwt>
</event>
<event>
 4    1  0.2878104E-007  0.7035568E+03  0.7818608E-02  0.9982754E-01
         -2   -1    0    0    0  501 -0.00000000000E+00  0.00000000000E+00  0.12983595938E+04  0.12983595938E+04  0.25500000000E-02 0.  1.
          2   -1    0    0  501    0  0.00000000000E+00 -0.00000000000E+00 -0.17018235754E+04  0.17018235754E+04  0.25500000000E-02 0. -1.
    8880023    1    1    2    0    0 -0.11465622124E+03  0.21917097244E+03  0.11889028282E+04  0.13814782319E+04  0.65864270000E+03 0.  1.
    8880022    1    1    2    0    0  0.11465622124E+03 -0.21917097244E+03 -0.15923668097E+04  0.16187049373E+04  0.15294330000E+03 0.  0.
<mgrwt>
<rscale>  0 0.56412940E+03</rscale>
<asrwt>0</asrwt>
<pdfrwt beam="1">  1        2 0.26181901E+00 0.70355680E+03</pdfrwt>
<pdfrwt beam="2">  1       -2 0.19974763E+00 0.70355680E+03</pdfrwt>
<totfact> 0.13664594E+00</totfact>
</mgrwt>
</event>
<event>
 4    1  0.2878104E-007  0.7526002E+03  0.7818608E-02  0.9824656E-01
          2   -1    0    0  501    0  0.00000000000E+00  0.00000000000E+00  0.75152748728E+03  0.75152748728E+03  0.25500000000E-02 0. -1.
         -2   -1    0    0    0  501 -0.00000000000E+00 -0.00000000000E+00 -0.52437908400E+04  0.52437908400E+04  0.25500000000E-02 0.  1.
    8880023    1    1    2    0    0  0.17280659248E+03 -0.32052268250E+03 -0.51626616389E+04  0.52172293712E+04  0.65864270000E+03 0.  1.
    8880022    1    1    2    0    0 -0.17280659248E+03  0.32052268250E+03  0.67039828616E+03  0.77808895603E+03  0.15294330000E+03 0.  0.
<mgrwt>
<rscale>  0 0.64056006E+03</rscale>
<asrwt>0</asrwt>
<pdfrwt beam="1">  1        2 0.11561962E+00 0.75260024E+03</pdfrwt>
<pdfrwt beam="2">  1       -2 0.80673703E+00 0.75260024E+03</pdfrwt>
<totfact> 0.30705763E-03</totfact>
</mgrwt>
</event>
<event>
 4    1  0.2878104E-007  0.8204671E+03  0.7818608E-02  0.9668173E-01
          2   -1    0    0  501    0  0.00000000000E+00  0.00000000000E+00  0.53863438774E+03  0.53863438774E+03  0.25500000000E-02 0. -1.
         -2   -1    0    0    0  501 -0.00000000000E+00 -0.00000000000E+00 -0.91280283423E+03  0.91280283424E+03  0.25500000000E-02 0.  1.
    8880023    1    1    2    0    0 -0.14967175317E+03  0.46578362954E+03 -0.44597732518E+03  0.93384260134E+03  0.65864270000E+03 0.  0.
    8880022    1    1    2    0    0  0.14967175317E+03 -0.46578362954E+03  0.71808878684E+02  0.51759462064E+03  0.15294330000E+03 0.  0.
<mgrwt>
<rscale>  0 0.72943774E+03</rscale>
<asrwt>0</asrwt>
<pdfrwt beam="1">  1        2 0.82866829E-01 0.82046708E+03</pdfrwt>
<pdfrwt beam="2">  1       -2 0.14043120E+00 0.82046708E+03</pdfrwt>
<totfact> 0.20254172E+01</totfact>
</mgrwt>
</event>
<event>
 4    1  0.2878104E-007  0.8154141E+03  0.7818608E-02  0.9678408E-01
         -2   -1    0    0    0  501 -0.00000000000E+00  0.00000000000E+00  0.93979620569E+03  0.93979620569E+03  0.25500000000E-02 0.  1.
          2   -1    0    0  501    0  0.00000000000E+00 -0.00000000000E+00 -0.14988318436E+04  0.14988318436E+04  0.25500000000E-02 0. -1.
    8880023    1    1    2    0    0 -0.16561943216E+03 -0.45128713928E+03  0.70482395727E+03  0.10778111594E+04  0.65864270000E+03 0.  1.
    8880022    1    1    2    0    0  0.16561943216E+03  0.45128713928E+03 -0.12638595952E+04  0.13608168898E+04  0.15294330000E+03 0.  0.
<mgrwt>
<rscale>  0 0.72317046E+03</rscale>
<asrwt>0</asrwt>
<pdfrwt beam="1">  1        2 0.23058951E+00 0.81541406E+03</pdfrwt>
<pdfrwt beam="2">  1       -2 0.14458403E+00 0.81541406E+03</pdfrwt>
<totfact> 0.42660457E+00</totfact>
</mgrwt>
</event>
<event>
 4    1  0.2878104E-007  0.1543162E+04  0.7818608E-02  0.8879744E-01
          2   -1    0    0  501    0  0.00000000000E+00  0.00000000000E+00  0.32023577731E+04  0.32023577731E+04  0.25500000000E-02 0. -1.
         -2   -1    0    0    0  501 -0.00000000000E+00 -0.00000000000E+00 -0.11342385455E+04  0.11342385455E+04  0.25500000000E-02 0.  1.
    8880023    1    1    2    0    0 -0.95886878597E+03  0.10139579638E+04 -0.31095788018E+03  0.15741807744E+04  0.65864270000E+03 0.  0.
    8880022    1    1    2    0    0  0.95886878597E+03 -0.10139579638E+04  0.23790771078E+04  0.27624155442E+04  0.15294330000E+03 0.  0.
<mgrwt>
<rscale>  0 0.15071021E+04</rscale>
<asrwt>0</asrwt>
<pdfrwt beam="1">  1        2 0.49267043E+00 0.15431624E+04</pdfrwt>
<pdfrwt beam="2">  1       -2 0.17449824E+00 0.15431624E+04</pdfrwt>
<totfact> 0.24101238E-01</totfact>
</mgrwt>
</event>
<event>
 4    1  0.2878104E-007  0.6894537E+03  0.7818608E-02  0.1004413E+00
          2   -1    0    0  501    0  0.00000000000E+00  0.00000000000E+00  0.13695375977E+04  0.13695375977E+04  0.25500000000E-02 0. -1.
         -2   -1    0    0    0  501 -0.00000000000E+00 -0.00000000000E+00 -0.20270482704E+03  0.20270482706E+03  0.25500000000E-02 0.  1.
    8880023    1    1    2    0    0  0.12975431528E+03 -0.15716239673E+03  0.48114974554E+03  0.84074460163E+03  0.65864270000E+03 0.  0.
    8880022    1    1    2    0    0 -0.12975431528E+03  0.15716239673E+03  0.68568302513E+03  0.73149782313E+03  0.15294330000E+03 0.  0.
<mgrwt>
<rscale>  0 0.53756714E+03</rscale>
<asrwt>0</asrwt>
<pdfrwt beam="1">  1        2 0.21069808E+00 0.68945370E+03</pdfrwt>
<pdfrwt beam="2">  1       -2 0.31185359E-01 0.68945370E+03</pdfrwt>
<totfact> 0.14646905E+02</totfact>
</mgrwt>
</event>
<event>
 4    1  0.2878104E-007  0.1492625E+04  0.7818608E-02  0.8914861E-01
          2   -1    0    0  501    0  0.00000000000E+00  0.00000000000E+00  0.23459228625E+04  0.23459228625E+04  0.25500000000E-02 0. -1.
         -2   -1    0    0    0  501 -0.00000000000E+00 -0.00000000000E+00 -0.12131307185E+04  0.12131307185E+04  0.25500000000E-02 0.  1.
    8880023    1    1    2    0    0 -0.28590869101E+03 -0.13085780367E+04 -0.37240187309E+03  0.15383801933E+04  0.65864270000E+03 0. -1.
    8880022    1    1    2    0    0  0.28590869101E+03  0.13085780367E+04  0.15051940171E+04  0.20206733878E+04  0.15294330000E+03 0.  0.
<mgrwt>
<rscale>  0 0.14551165E+04</rscale>
<asrwt>0</asrwt>
<pdfrwt beam="1">  1        2 0.36091121E+00 0.14926254E+04</pdfrwt>
<pdfrwt beam="2">  1       -2 0.18663550E+00 0.14926254E+04</pdfrwt>
<totfact> 0.65609433E-01</totfact>
</mgrwt>
</event>
<event>
 4    1  0.2878104E-007  0.1774245E+04  0.7818608E-02  0.8736918E-01
          2   -1    0    0  501    0  0.00000000000E+00  0.00000000000E+00  0.21410844196E+04  0.21410844196E+04  0.25500000000E-02 0. -1.
         -2   -1    0    0    0  501 -0.00000000000E+00 -0.00000000000E+00 -0.24399713889E+04  0.24399713889E+04  0.25500000000E-02 0.  1.
    8880023    1    1    2    0    0  0.12038631766E+04 -0.11246555203E+04 -0.16667181220E+04  0.24343163500E+04  0.65864270000E+03 0.  1.
    8880022    1    1    2    0    0 -0.12038631766E+04  0.11246555203E+04  0.13678311527E+04  0.21467394585E+04  0.15294330000E+03 0.  0.
<mgrwt>
<rscale>  0 0.17435327E+04</rscale>
<asrwt>0</asrwt>
<pdfrwt beam="1">  1        2 0.32939760E+00 0.17742454E+04</pdfrwt>
<pdfrwt beam="2">  1       -2 0.37538021E+00 0.17742454E+04</pdfrwt>
<totfact> 0.54239254E-02</totfact>
</mgrwt>
</event>
<event>
 4    1  0.2878104E-007  0.1316367E+04  0.7818608E-02  0.9051553E-01
          2   -1    0    0  501    0  0.00000000000E+00  0.00000000000E+00  0.19665922960E+04  0.19665922960E+04  0.25500000000E-02 0. -1.
         -2   -1    0    0    0  501 -0.00000000000E+00 -0.00000000000E+00 -0.16357738586E+04  0.16357738586E+04  0.25500000000E-02 0.  1.
    8880023    1    1    2    0    0  0.10625298444E+04  0.41236181301E+03 -0.11358200432E+04  0.17386515786E+04  0.65864270000E+03 0.  0.
    8880022    1    1    2    0    0 -0.10625298444E+04 -0.41236181301E+03  0.14666384805E+04  0.18637145760E+04  0.15294330000E+03 0.  0.
<mgrwt>
<rscale>  0 0.12726332E+04</rscale>
<asrwt>0</asrwt>
<pdfrwt beam="1">  1        2 0.30255266E+00 0.13163670E+04</pdfrwt>
<pdfrwt beam="2">  1       -2 0.25165752E+00 0.13163670E+04</pdfrwt>
<totfact> 0.41935929E-01</totfact>
</mgrwt>
</event>
<event>
 4    1  0.2878104E-007  0.1342908E+04  0.7818608E-02  0.9029364E-01
          2   -1    0    0  501    0  0.00000000000E+00  0.00000000000E+00  0.30526084168E+04  0.30526084168E+04  0.25500000000E-02 0. -1.
         -2   -1    0    0    0  501 -0.00000000000E+00 -0.00000000000E+00 -0.58405288253E+03  0.58405288254E+03  0.25500000000E-02 0.  1.
    8880023    1    1    2    0    0 -0.11487879389E+04 -0.22333319949E+03  0.71078599601E+03  0.15194138294E+04  0.65864270000E+03 0.  1.
    8880022    1    1    2    0    0  0.11487879389E+04  0.22333319949E+03  0.17577695382E+04  0.21172474699E+04  0.15294330000E+03 0.  0.
<mgrwt>
<rscale>  0 0.13002531E+04</rscale>
<asrwt>0</asrwt>
<pdfrwt beam="1">  1        2 0.46963207E+00 0.13429079E+04</pdfrwt>
<pdfrwt beam="2">  1       -2 0.89854288E-01 0.13429079E+04</pdfrwt>
<totfact> 0.16696519E+00</totfact>
</mgrwt>
</event>
<event>
 4    1  0.2878104E-007  0.1081686E+04  0.7818608E-02  0.9281726E-01
          2   -1    0    0  501    0  0.00000000000E+00  0.00000000000E+00  0.54069368463E+03  0.54069368464E+03  0.25500000000E-02 0. -1.
         -2   -1    0    0    0  501 -0.00000000000E+00 -0.00000000000E+00 -0.49243064105E+04  0.49243064105E+04  0.25500000000E-02 0.  1.
    8880023    1    1    2    0    0 -0.16648648642E+03 -0.84173425535E+03 -0.44607522833E+04  0.45900278263E+04  0.65864270000E+03 0.  1.
    8880022    1    1    2    0    0  0.16648648642E+03  0.84173425535E+03  0.77139557512E+02  0.87497226878E+03  0.15294330000E+03 0.  0.
<mgrwt>
<rscale>  0 0.10248277E+04</rscale>
<asrwt>0</asrwt>
<pdfrwt beam="1">  1        2 0.83183647E-01 0.10816860E+04</pdfrwt>
<pdfrwt beam="2">  1       -2 0.75758557E+00 0.10816860E+04</pdfrwt>
<totfact> 0.76639454E-03</totfact>
</mgrwt>
</event>
<event>
 4    1  0.2878104E-007  0.7398904E+03  0.7818608E-02  0.9860266E-01
         -2   -1    0    0    0  501 -0.00000000000E+00  0.00000000000E+00  0.45513586946E+03  0.45513586946E+03  0.25500000000E-02 0.  1.
          2   -1    0    0  501    0  0.00000000000E+00 -0.00000000000E+00 -0.15103007379E+04  0.15103007379E+04  0.25500000000E-02 0. -1.
    8880023    1    1    2    0    0  0.50816915032E+02  0.33323459547E+03  0.10531758892E+03  0.74734841625E+03  0.65864270000E+03 0.  1.
    8880022    1    1    2    0    0 -0.50816915032E+02 -0.33323459547E+03 -0.11604824574E+04  0.12180881911E+04  0.15294330000E+03 0.  0.
<mgrwt>
<rscale>  0 0.62226200E+03</rscale>
<asrwt>0</asrwt>
<pdfrwt beam="1">  1        2 0.23235396E+00 0.73989044E+03</pdfrwt>
<pdfrwt beam="2">  1       -2 0.70020904E-01 0.73989044E+03</pdfrwt>
<totfact> 0.23852259E+01</totfact>
</mgrwt>
</event>
<event>
 4    1  0.2878104E-007  0.1135248E+04  0.7818608E-02  0.9222790E-01
         -2   -1    0    0    0  501 -0.00000000000E+00  0.00000000000E+00  0.92027359802E+03  0.92027359803E+03  0.25500000000E-02 0.  1.
          2   -1    0    0  501    0  0.00000000000E+00 -0.00000000000E+00 -0.18767910388E+04  0.18767910388E+04  0.25500000000E-02 0. -1.
    8880023    1    1    2    0    0 -0.16700841364E+03  0.90944293489E+03  0.35106819683E+03  0.11882917769E+04  0.65864270000E+03 0.  0.
    8880022    1    1    2    0    0  0.16700841364E+03 -0.90944293489E+03 -0.13075856376E+04  0.16087728599E+04  0.15294330000E+03 0.  0.
<mgrwt>
<rscale>  0 0.10821259E+04</rscale>
<asrwt>0</asrwt>
<pdfrwt beam="1">  1        2 0.28873708E+00 0.11352482E+04</pdfrwt>
<pdfrwt beam="2">  1       -2 0.14158055E+00 0.11352482E+04</pdfrwt>
<totfact> 0.26748117E+00</totfact>
</mgrwt>
</event>
<event>
 4    1  0.2878104E-007  0.1045843E+04  0.7818608E-02  0.9323895E-01
          2   -1    0    0  501    0  0.00000000000E+00  0.00000000000E+00  0.29861340639E+04  0.29861340639E+04  0.25500000000E-02 0. -1.
         -2   -1    0    0    0  501 -0.00000000000E+00 -0.00000000000E+00 -0.62057524666E+03  0.62057524666E+03  0.25500000000E-02 0.  1.
    8880023    1    1    2    0    0  0.76183263277E+03 -0.28211599049E+03 -0.56594959037E+02  0.10473736621E+04  0.65864270000E+03 0.  0.
    8880022    1    1    2    0    0 -0.76183263277E+03  0.28211599049E+03  0.24221537763E+04  0.25593356485E+04  0.15294330000E+03 0.  0.
<mgrwt>
<rscale>  0 0.98612510E+03</rscale>
<asrwt>0</asrwt>
<pdfrwt beam="1">  1        2 0.45940524E+00 0.10458435E+04</pdfrwt>
<pdfrwt beam="2">  1       -2 0.95473115E-01 0.10458435E+04</pdfrwt>
<totfact> 0.16566327E+00</totfact>
</mgrwt>
</event>
<event>
 4    1  0.2878104E-007  0.8873130E+03  0.7818608E-02  0.9546713E-01
          2   -1    0    0  501    0  0.00000000000E+00  0.00000000000E+00  0.10913218687E+04  0.10913218687E+04  0.25500000000E-02 0. -1.
         -2   -1    0    0    0  501 -0.00000000000E+00 -0.00000000000E+00 -0.65412810771E+03  0.65412810771E+03  0.25500000000E-02 0.  1.
    8880023    1    1    2    0    0  0.44693729525E+03 -0.39212391617E+03 -0.14533559218E+03  0.89913667044E+03  0.65864270000E+03 0.  0.
    8880022    1    1    2    0    0 -0.44693729525E+03  0.39212391617E+03  0.58252935314E+03  0.84631330593E+03  0.15294330000E+03 0.  0.
<mgrwt>
<rscale>  0 0.80925748E+03</rscale>
<asrwt>0</asrwt>
<pdfrwt beam="1">  1        2 0.16789567E+00 0.88731298E+03</pdfrwt>
<pdfrwt beam="2">  1       -2 0.10063509E+00 0.88731298E+03</pdfrwt>
<totfact> 0.18014371E+01</totfact>
</mgrwt>
</event>
<event>
 4    1  0.2878104E-007  0.6962530E+03  0.7818608E-02  0.1001312E+00
         -2   -1    0    0    0  501 -0.00000000000E+00  0.00000000000E+00  0.41363120916E+03  0.41363120916E+03  0.25500000000E-02 0.  1.
          2   -1    0    0  501    0  0.00000000000E+00 -0.00000000000E+00 -0.10872628448E+04  0.10872628448E+04  0.25500000000E-02 0. -1.
    8880023    1    1    2    0    0 -0.82926131954E+02 -0.20995534410E+03  0.78687673284E+02  0.70068534027E+03  0.65864270000E+03 0.  1.
    8880022    1    1    2    0    0  0.82926131954E+02  0.20995534410E+03 -0.75231930890E+03  0.80020871367E+03  0.15294330000E+03 0.  0.
<mgrwt>
<rscale>  0 0.55078887E+03</rscale>
<asrwt>0</asrwt>
<pdfrwt beam="1">  1        2 0.16727121E+00 0.69625297E+03</pdfrwt>
<pdfrwt beam="2">  1       -2 0.63635571E-01 0.69625297E+03</pdfrwt>
<totfact> 0.51778341E+01</totfact>
</mgrwt>
</event>
<event>
 4    1  0.2878104E-007  0.7110060E+03  0.7818608E-02  0.9954284E-01
          2   -1    0    0  501    0  0.00000000000E+00  0.00000000000E+00  0.12468369218E+04  0.12468369218E+04  0.25500000000E-02 0. -1.
         -2   -1    0    0    0  501 -0.00000000000E+00 -0.00000000000E+00 -0.21778687690E+03  0.21778687692E+03  0.25500000000E-02 0.  1.
    8880023    1    1    2    0    0 -0.52825540902E+02  0.26254281324E+03  0.56844950277E+03  0.91031000765E+03  0.65864270000E+03 0.  0.
    8880022    1    1    2    0    0  0.52825540902E+02 -0.26254281324E+03  0.46060054214E+03  0.55431379109E+03  0.15294330000E+03 0.  1.
<mgrwt>
<rscale>  0 0.57701052E+03</rscale>
<asrwt>0</asrwt>
<pdfrwt beam="1">  1        2 0.19182106E+00 0.71100596E+03</pdfrwt>
<pdfrwt beam="2">  1       -2 0.33505674E-01 0.71100596E+03</pdfrwt>
<totfact> 0.15030668E+02</totfact>
</mgrwt>
</event>
<event>
 4    1  0.2878104E-007  0.1117190E+04  0.7818608E-02  0.9242155E-01
          2   -1    0    0  501    0  0.00000000000E+00  0.00000000000E+00  0.12784719067E+04  0.12784719067E+04  0.25500000000E-02 0. -1.
         -2   -1    0    0    0  501 -0.00000000000E+00 -0.00000000000E+00 -0.14408740837E+04  0.14408740837E+04  0.25500000000E-02 0.  1.
    8880023    1    1    2    0    0  0.33245608484E+03 -0.83891307270E+03 -0.98450647612E+03  0.14890820661E+04  0.65864270000E+03 0.  0.
    8880022    1    1    2    0    0 -0.33245608484E+03  0.83891307270E+03  0.82210429911E+03  0.12302639243E+04  0.15294330000E+03 0.  0.
<mgrwt>
<rscale>  0 0.10628716E+04</rscale>
<asrwt>0</asrwt>
<pdfrwt beam="1">  1        2 0.19668799E+00 0.11171895E+04</pdfrwt>
<pdfrwt beam="2">  1       -2 0.22167294E+00 0.11171895E+04</pdfrwt>
<totfact> 0.16085749E+00</totfact>
</mgrwt>
</event>
<event>
 4    1  0.2878104E-007  0.1008872E+04  0.7818608E-02  0.9370042E-01
         -2   -1    0    0    0  501 -0.00000000000E+00  0.00000000000E+00  0.19988309762E+04  0.19988309762E+04  0.25500000000E-02 0.  1.
          2   -1    0    0  501    0  0.00000000000E+00 -0.00000000000E+00 -0.58056562317E+03  0.58056562318E+03  0.25500000000E-02 0. -1.
    8880023    1    1    2    0    0 -0.73916933476E+03  0.19401202442E+03  0.14870776309E+04  0.17970036331E+04  0.65864270000E+03 0.  0.
    8880022    1    1    2    0    0  0.73916933476E+03 -0.19401202442E+03 -0.68812277806E+02  0.78239296626E+03  0.15294330000E+03 0.  0.
<mgrwt>
<rscale>  0 0.94582685E+03</rscale>
<asrwt>0</asrwt>
<pdfrwt beam="1">  1        2 0.89317789E-01 0.10088717E+04</pdfrwt>
<pdfrwt beam="2">  1       -2 0.30751245E+00 0.10088717E+04</pdfrwt>
<totfact> 0.14844380E+00</totfact>
</mgrwt>
</event>
<event>
 4    1  0.2878104E-007  0.1810415E+04  0.7818608E-02  0.8716797E-01
         -2   -1    0    0    0  501 -0.00000000000E+00  0.00000000000E+00  0.14486488076E+04  0.14486488076E+04  0.25500000000E-02 0.  1.
          2   -1    0    0  501    0  0.00000000000E+00 -0.00000000000E+00 -0.37696468753E+04  0.37696468753E+04  0.25500000000E-02 0. -1.
    8880023    1    1    2    0    0 -0.10676845123E+04 -0.13053131216E+04  0.54395039153E+03  0.18903663132E+04  0.65864270000E+03 0.  0.
    8880022    1    1    2    0    0  0.10676845123E+04  0.13053131216E+04 -0.28649484592E+04  0.33279293698E+04  0.15294330000E+03 0.  0.
<mgrwt>
<rscale>  0 0.17803917E+04</rscale>
<asrwt>0</asrwt>
<pdfrwt beam="1">  1        2 0.57994567E+00 0.18104151E+04</pdfrwt>
<pdfrwt beam="2">  1       -2 0.22286905E+00 0.18104151E+04</pdfrwt>
<totfact> 0.44750175E-02</totfact>
</mgrwt>
</event>
<event>
 4    1  0.2878104E-007  0.1126736E+04  0.7818608E-02  0.9231857E-01
          2   -1    0    0  501    0  0.00000000000E+00  0.00000000000E+00  0.15298613553E+04  0.15298613553E+04  0.25500000000E-02 0. -1.
         -2   -1    0    0    0  501 -0.00000000000E+00 -0.00000000000E+00 -0.12248146737E+04  0.12248146737E+04  0.25500000000E-02 0.  1.
    8880023    1    1    2    0    0  0.21346340619E+03 -0.88890762010E+03 -0.74753562221E+03  0.13521623777E+04  0.65864270000E+03 0.  0.
    8880022    1    1    2    0    0 -0.21346340619E+03  0.88890762010E+03  0.10525823038E+04  0.14025136513E+04  0.15294330000E+03 0.  0.
<mgrwt>
<rscale>  0 0.10730575E+04</rscale>
<asrwt>0</asrwt>
<pdfrwt beam="1">  1        2 0.23536328E+00 0.11267358E+04</pdfrwt>
<pdfrwt beam="2">  1       -2 0.18843303E+00 0.11267358E+04</pdfrwt>
<totfact> 0.18966754E+00</totfact>
</mgrwt>
</event>
<event>
 4    1  0.2878104E-007  0.7627191E+03  0.7818608E-02  0.9798118E-01
         -2   -1    0    0    0  501 -0.00000000000E+00  0.00000000000E+00  0.14231270652E+04  0.14231270652E+04  0.25500000000E-02 0.  1.
          2   -1    0    0  501    0  0.00000000000E+00 -0.00000000000E+00 -0.13078962909E+04  0.13078962909E+04  0.25500000000E-02 0. -1.
    8880023    1    1    2    0    0 -0.34919114716E+03 -0.16123203571E+03  0.12827102850E+04  0.14923424902E+04  0.65864270000E+03 0.  1.
    8880022    1    1    2    0    0  0.34919114716E+03  0.16123203571E+03 -0.11674795107E+04  0.12386808659E+04  0.15294330000E+03 0.  0.
<mgrwt>
<rscale>  0 0.65463628E+03</rscale>
<asrwt>0</asrwt>
<pdfrwt beam="1">  1        2 0.20121481E+00 0.76271910E+03</pdfrwt>
<pdfrwt beam="2">  1       -2 0.21894263E+00 0.76271910E+03</pdfrwt>
<totfact> 0.16908683E+00</totfact>
</mgrwt>
</event>
<event>
 4    1  0.2878104E-007  0.7576896E+03  0.7818608E-02  0.9811126E-01
          2   -1    0    0  501    0  0.00000000000E+00  0.00000000000E+00  0.23891268331E+04  0.23891268331E+04  0.25500000000E-02 0. -1.
         -2   -1    0    0    0  501 -0.00000000000E+00 -0.00000000000E+00 -0.40764333775E+03  0.40764333775E+03  0.25500000000E-02 0.  1.
    8880023    1    1    2    0    0  0.26322071699E+03 -0.26645489353E+03 -0.16868046152E+02  0.75787736038E+03  0.65864270000E+03 0.  1.
    8880022    1    1    2    0    0 -0.26322071699E+03  0.26645489353E+03  0.19983515415E+04  0.20388928105E+04  0.15294330000E+03 0.  0.
<mgrwt>
<rscale>  0 0.64768867E+03</rscale>
<asrwt>0</asrwt>
<pdfrwt beam="1">  1        2 0.36755797E+00 0.75768962E+03</pdfrwt>
<pdfrwt beam="2">  1       -2 0.62714360E-01 0.75768962E+03</pdfrwt>
<totfact> 0.99271076E+00</totfact>
</mgrwt>
</event>
<event>
 4    1  0.2878104E-007  0.9249958E+03  0.7818608E-02  0.9487041E-01
         -2   -1    0    0    0  501 -0.00000000000E+00  0.00000000000E+00  0.10213291110E+04  0.10213291110E+04  0.25500000000E-02 0.  1.
          2   -1    0    0  501    0  0.00000000000E+00 -0.00000000000E+00 -0.11625223601E+04  0.11625223601E+04  0.25500000000E-02 0. -1.
    8880023    1    1    2    0    0  0.22486216139E+03  0.60929799503E+03  0.66361857085E+03  0.11384229672E+04  0.65864270000E+03 0.  1.
    8880022    1    1    2    0    0 -0.22486216139E+03 -0.60929799503E+03 -0.80481181997E+03  0.10454285040E+04  0.15294330000E+03 0.  0.
<mgrwt>
<rscale>  0 0.85246010E+03</rscale>
<asrwt>0</asrwt>
<pdfrwt beam="1">  1        2 0.17884959E+00 0.92499581E+03</pdfrwt>
<pdfrwt beam="2">  1       -2 0.15712756E+00 0.92499581E+03</pdfrwt>
<totfact> 0.52748620E+00</totfact>
</mgrwt>
</event>
<event>
 4    1  0.2878104E-007  0.7151822E+03  0.7818608E-02  0.9939238E-01
         -2   -1    0    0    0  501 -0.00000000000E+00  0.00000000000E+00  0.25734714986E+03  0.25734714987E+03  0.25500000000E-02 0.  1.
          2   -1    0    0  501    0  0.00000000000E+00 -0.00000000000E+00 -0.12082990020E+04  0.12082990020E+04  0.25500000000E-02 0. -1.
    8880023    1    1    2    0    0  0.24610984093E+03 -0.13078709674E+03 -0.37440056142E+03  0.80725541505E+03  0.65864270000E+03 0. -1.
    8880022    1    1    2    0    0 -0.24610984093E+03  0.13078709674E+03 -0.57655129071E+03  0.65839073681E+03  0.15294330000E+03 0.  0.
<mgrwt>
<rscale>  0 0.58396748E+03</rscale>
<asrwt>0</asrwt>
<pdfrwt beam="1">  1        2 0.18589215E+00 0.71518216E+03</pdfrwt>
<pdfrwt beam="2">  1       -2 0.39591870E-01 0.71518216E+03</pdfrwt>
<totfact> 0.11495190E+02</totfact>
</mgrwt>
</event>
<event>
 4    1  0.2878104E-007  0.1083217E+04  0.7818608E-02  0.9279976E-01
          2   -1    0    0  501    0  0.00000000000E+00  0.00000000000E+00  0.13734846308E+04  0.13734846308E+04  0.25500000000E-02 0. -1.
         -2   -1    0    0    0  501 -0.00000000000E+00 -0.00000000000E+00 -0.91959719437E+03  0.91959719438E+03  0.25500000000E-02 0.  1.
    8880023    1    1    2    0    0 -0.67163231672E+03  0.53708392236E+03 -0.31640579553E+03  0.11284821409E+04  0.65864270000E+03 0.  0.
    8880022    1    1    2    0    0  0.67163231672E+03 -0.53708392236E+03  0.77029323196E+03  0.11645996843E+04  0.15294330000E+03 0.  0.
<mgrwt>
<rscale>  0 0.10264741E+04</rscale>
<asrwt>0</asrwt>
<pdfrwt beam="1">  1        2 0.21130533E+00 0.10832171E+04</pdfrwt>
<pdfrwt beam="2">  1       -2 0.14147649E+00 0.10832171E+04</pdfrwt>
<totfact> 0.51523681E+00</totfact>
</mgrwt>
</event>
<event>
 4    1  0.2878104E-007  0.1284712E+04  0.7818608E-02  0.9078876E-01
         -2   -1    0    0    0  501 -0.00000000000E+00  0.00000000000E+00  0.91804245913E+03  0.91804245913E+03  0.25500000000E-02 0.  1.
          2   -1    0    0  501    0  0.00000000000E+00 -0.00000000000E+00 -0.19640683241E+04  0.19640683241E+04  0.25500000000E-02 0. -1.
    8880023    1    1    2    0    0  0.11030132700E+04  0.60739766163E+01  0.94396402100E+02  0.12881754749E+04  0.65864270000E+03 0.  0.
    8880022    1    1    2    0    0 -0.11030132700E+04 -0.60739766163E+01 -0.11404222671E+04  0.15939353084E+04  0.15294330000E+03 0.  0.
<mgrwt>
<rscale>  0 0.12396098E+04</rscale>
<asrwt>0</asrwt>
<pdfrwt beam="1">  1        2 0.30216436E+00 0.12847122E+04</pdfrwt>
<pdfrwt beam="2">  1       -2 0.14123730E+00 0.12847122E+04</pdfrwt>
<totfact> 0.23702769E+00</totfact>
</mgrwt>
</event>
<event>
 4    1  0.2878104E-007  0.8516875E+03  0.7818608E-02  0.9608524E-01
          2   -1    0    0  501    0  0.00000000000E+00  0.00000000000E+00  0.60260139564E+03  0.60260139565E+03  0.25500000000E-02 0. -1.
         -2   -1    0    0    0  501 -0.00000000000E+00 -0.00000000000E+00 -0.14291543484E+04  0.14291543484E+04  0.25500000000E-02 0.  1.
    8880023    1    1    2    0    0  0.48958177863E+03 -0.22775239212E+03 -0.11131556225E+04  0.14016016253E+04  0.65864270000E+03 0.  1.
    8880022    1    1    2    0    0 -0.48958177863E+03  0.22775239212E+03  0.28660266967E+03  0.63015411874E+03  0.15294330000E+03 0.  0.
<mgrwt>
<rscale>  0 0.76734552E+03</rscale>
<asrwt>0</asrwt>
<pdfrwt beam="1">  1        2 0.92707907E-01 0.85168755E+03</pdfrwt>
<pdfrwt beam="2">  1       -2 0.21986990E+00 0.85168755E+03</pdfrwt>
<totfact> 0.49401057E+00</totfact>
</mgrwt>
</event>
<event>
 4    1  0.2878104E-007  0.8064223E+03  0.7818608E-02  0.9697078E-01
          2   -1    0    0  501    0  0.00000000000E+00  0.00000000000E+00  0.18769625762E+04  0.18769625762E+04  0.25500000000E-02 0. -1.
         -2   -1    0    0    0  501 -0.00000000000E+00 -0.00000000000E+00 -0.76449619398E+03  0.76449619399E+03  0.25500000000E-02 0.  1.
    8880023    1    1    2    0    0 -0.43628057467E+03  0.16175885086E+03 -0.50497678579E+03  0.95148222585E+03  0.65864270000E+03 0.  1.
    8880022    1    1    2    0    0  0.43628057467E+03 -0.16175885086E+03  0.16174431680E+04  0.16899765443E+04  0.15294330000E+03 0.  0.
<mgrwt>
<rscale>  0 0.71191031E+03</rscale>
<asrwt>0</asrwt>
<pdfrwt beam="1">  1        2 0.28876347E+00 0.80642227E+03</pdfrwt>
<pdfrwt beam="2">  1       -2 0.11761480E+00 0.80642227E+03</pdfrwt>
<totfact> 0.44696420E+00</totfact>
</mgrwt>
</event>
<event>
 4    1  0.2878104E-007  0.8134310E+03  0.7818608E-02  0.9682474E-01
         -2   -1    0    0    0  501 -0.00000000000E+00  0.00000000000E+00  0.42016977684E+03  0.42016977684E+03  0.25500000000E-02 0.  1.
          2   -1    0    0  501    0  0.00000000000E+00 -0.00000000000E+00 -0.13498716431E+04  0.13498716431E+04  0.25500000000E-02 0. -1.
    8880023    1    1    2    0    0 -0.30656668331E+03  0.36589155067E+03 -0.97147130560E+03  0.12670542459E+04  0.65864270000E+03 0.  0.
    8880022    1    1    2    0    0  0.30656668331E+03 -0.36589155067E+03  0.41769439355E+02  0.50298717403E+03  0.15294330000E+03 0.  0.
<mgrwt>
<rscale>  0 0.72069929E+03</rscale>
<asrwt>0</asrwt>
<pdfrwt beam="1">  1        2 0.20767256E+00 0.81343098E+03</pdfrwt>
<pdfrwt beam="2">  1       -2 0.64641505E-01 0.81343098E+03</pdfrwt>
<totfact> 0.34643416E+01</totfact>
</mgrwt>
</event>
<event>
 4    1  0.6619119E-007  0.1569587E+04  0.7818608E-02  0.8861999E-01
         -2   -1    0    0    0  501 -0.00000000000E+00  0.00000000000E+00  0.16281712219E+04  0.16281712220E+04  0.25500000000E-02 0.  1.
          2   -1    0    0  501    0  0.00000000000E+00 -0.00000000000E+00 -0.36818640951E+04  0.36818640951E+04  0.25500000000E-02 0. -1.
    8880023    1    1    2    0    0  0.14243637227E+04  0.31327056408E+02  0.10521369546E+04  0.18896020154E+04  0.65864270000E+03 0.  0.
    8880022    1    1    2    0    0 -0.14243637227E+04 -0.31327056408E+02 -0.31058298278E+04  0.34204333017E+04  0.15294330000E+03 0.  0.
<mgrwt>
<rscale>  0 0.15342374E+04</rscale>
<asrwt>0</asrwt>
<pdfrwt beam="1">  1        2 0.56644063E+00 0.15695871E+04</pdfrwt>
<pdfrwt beam="2">  1       -2 0.25048788E+00 0.15695871E+04</pdfrwt>
<totfact> 0.36065313E-02</totfact>
</mgrwt>
</event>
<event>
 4    1  0.2878104E-007  0.6629093E+03  0.7818608E-02  0.1021356E+00
         -2   -1    0    0    0  501 -0.00000000000E+00  0.00000000000E+00  0.56967236989E+03  0.56967236990E+03  0.25500000000E-02 0.  1.
          2   -1    0    0  501    0  0.00000000000E+00 -0.00000000000E+00 -0.20112096994E+04  0.20112096995E+04  0.25500000000E-02 0. -1.
    8880023    1    1    2    0    0 -0.89493561260E+01  0.74554726955E+02  0.37146488777E+03  0.75989135236E+03  0.65864270000E+03 0.  1.
    8880022    1    1    2    0    0  0.89493561260E+01 -0.74554726955E+02 -0.18130022173E+04  0.18209907170E+04  0.15294330000E+03 0.  0.
<mgrwt>
<rscale>  0 0.47200515E+03</rscale>
<asrwt>0</asrwt>
<pdfrwt beam="1">  1        2 0.30941687E+00 0.66290927E+03</pdfrwt>
<pdfrwt beam="2">  1       -2 0.87641904E-01 0.66290927E+03</pdfrwt>
<totfact> 0.77777093E+00</totfact>
</mgrwt>
</event>
<event>
 4    1  0.2878104E-007  0.7477200E+03  0.7818608E-02  0.9838004E-01
         -2   -1    0    0    0  501 -0.00000000000E+00  0.00000000000E+00  0.56177728020E+03  0.56177728020E+03  0.25500000000E-02 0.  1.
          2   -1    0    0  501    0  0.00000000000E+00 -0.00000000000E+00 -0.15516714652E+04  0.15516714652E+04  0.25500000000E-02 0. -1.
    8880023    1    1    2    0    0 -0.22785545672E+03  0.27084469314E+03  0.27069452249E+03  0.79521109633E+03  0.65864270000E+03 0.  1.
    8880022    1    1    2    0    0  0.22785545672E+03 -0.27084469314E+03 -0.12605887075E+04  0.13182376491E+04  0.15294330000E+03 0.  0.
<mgrwt>
<rscale>  0 0.63362298E+03</rscale>
<asrwt>0</asrwt>
<pdfrwt beam="1">  1        2 0.23871869E+00 0.74771998E+03</pdfrwt>
<pdfrwt beam="2">  1       -2 0.86427274E-01 0.74771998E+03</pdfrwt>
<totfact> 0.14121768E+01</totfact>
</mgrwt>
</event>
<event>
 4    1  0.2878104E-007  0.2098454E+04  0.7818608E-02  0.8573255E-01
         -2   -1    0    0    0  501 -0.00000000000E+00  0.00000000000E+00  0.13963665834E+04  0.13963665834E+04  0.25500000000E-02 0.  1.
          2   -1    0    0  501    0  0.00000000000E+00 -0.00000000000E+00 -0.37752155165E+04  0.37752155166E+04  0.25500000000E-02 0. -1.
    8880023    1    1    2    0    0 -0.97271317991E+03 -0.17388299520E+04 -0.44734153104E+02  0.20989311287E+04  0.65864270000E+03 0.  1.
    8880022    1    1    2    0    0  0.97271317991E+03  0.17388299520E+04 -0.23341147800E+04  0.30726509713E+04  0.15294330000E+03 0.  0.
<mgrwt>
<rscale>  0 0.20729476E+04</rscale>
<asrwt>0</asrwt>
<pdfrwt beam="1">  1        2 0.58080238E+00 0.20984544E+04</pdfrwt>
<pdfrwt beam="2">  1       -2 0.21482563E+00 0.20984544E+04</pdfrwt>
<totfact> 0.48328114E-02</totfact>
</mgrwt>
</event>
<event>
 4    1  0.2878104E-007  0.8311816E+03  0.7818608E-02  0.9647038E-01
         -2   -1    0    0    0  501 -0.00000000000E+00  0.00000000000E+00  0.33944061298E+03  0.33944061299E+03  0.25500000000E-02 0.  1.
          2   -1    0    0  501    0  0.00000000000E+00 -0.00000000000E+00 -0.16167881861E+04  0.16167881861E+04  0.25500000000E-02 0. -1.
    8880023    1    1    2    0    0  0.48626199133E+03  0.14353383801E+03 -0.37922990362E+03  0.91360725311E+03  0.65864270000E+03 0.  1.
    8880022    1    1    2    0    0 -0.48626199133E+03 -0.14353383801E+03 -0.89811766945E+03  0.10426215459E+04  0.15294330000E+03 0.  0.
<mgrwt>
<rscale>  0 0.74259631E+03</rscale>
<asrwt>0</asrwt>
<pdfrwt beam="1">  1        2 0.24873664E+00 0.83118162E+03</pdfrwt>
<pdfrwt beam="2">  1       -2 0.52221634E-01 0.83118162E+03</pdfrwt>
<totfact> 0.38362609E+01</totfact>
</mgrwt>
</event>
<event>
 4    1  0.2878104E-007  0.8958851E+03  0.7818608E-02  0.9532670E-01
          2   -1    0    0  501    0  0.00000000000E+00  0.00000000000E+00  0.17215777284E+04  0.17215777284E+04  0.25500000000E-02 0. -1.
         -2   -1    0    0    0  501 -0.00000000000E+00 -0.00000000000E+00 -0.80062408777E+03  0.80062408778E+03  0.25500000000E-02 0.  1.
    8880023    1    1    2    0    0  0.52671557894E+03  0.30227565909E+03 -0.45912402213E+03  0.10066801623E+04  0.65864270000E+03 0.  1.
    8880022    1    1    2    0    0 -0.52671557894E+03 -0.30227565909E+03  0.13800776628E+04  0.15155216539E+04  0.15294330000E+03 0.  0.
<mgrwt>
<rscale>  0 0.81917465E+03</rscale>
<asrwt>0</asrwt>
<pdfrwt beam="1">  1        2 0.26485811E+00 0.89588508E+03</pdfrwt>
<pdfrwt beam="2">  1       -2 0.12317294E+00 0.89588508E+03</pdfrwt>
<totfact> 0.47864867E+00</totfact>
</mgrwt>
</event>
<event>
 4    1  0.2878104E-007  0.7731922E+03  0.7818608E-02  0.9772079E-01
          2   -1    0    0  501    0  0.00000000000E+00  0.00000000000E+00  0.14973754605E+04  0.14973754605E+04  0.25500000000E-02 0. -1.
         -2   -1    0    0    0  501 -0.00000000000E+00 -0.00000000000E+00 -0.28825051695E+03  0.28825051696E+03  0.25500000000E-02 0.  1.
    8880023    1    1    2    0    0  0.23790739426E+03  0.32774390149E+03  0.40611659938E+03  0.87335954324E+03  0.65864270000E+03 0.  1.
    8880022    1    1    2    0    0 -0.23790739426E+03 -0.32774390149E+03  0.80300834421E+03  0.91226643427E+03  0.15294330000E+03 0.  0.
<mgrwt>
<rscale>  0 0.66882734E+03</rscale>
<asrwt>0</asrwt>
<pdfrwt beam="1">  1        2 0.23036546E+00 0.77319221E+03</pdfrwt>
<pdfrwt beam="2">  1       -2 0.44346233E-01 0.77319221E+03</pdfrwt>
<totfact> 0.62551940E+01</totfact>
</mgrwt>
</event>
<event>
 4    1  0.2878104E-007  0.7164727E+03  0.7818608E-02  0.9934707E-01
         -2   -1    0    0    0  501 -0.00000000000E+00  0.00000000000E+00  0.53865063063E+03  0.53865063063E+03  0.25500000000E-02 0.  1.
          2   -1    0    0  501    0  0.00000000000E+00 -0.00000000000E+00 -0.94442540458E+03  0.94442540458E+03  0.25500000000E-02 0. -1.
    8880023    1    1    2    0    0  0.12429232645E+03  0.25312907645E+03  0.24526393822E+03  0.75728958623E+03  0.65864270000E+03 0.  1.
    8880022    1    1    2    0    0 -0.12429232645E+03 -0.25312907645E+03 -0.65103871218E+03  0.72578644898E+03  0.15294330000E+03 0.  0.
<mgrwt>
<rscale>  0 0.58608329E+03</rscale>
<asrwt>0</asrwt>
<pdfrwt beam="1">  1        2 0.14529622E+00 0.71647269E+03</pdfrwt>
<pdfrwt beam="2">  1       -2 0.82869328E-01 0.71647269E+03</pdfrwt>
<totfact> 0.35599478E+01</totfact>
</mgrwt>
</event>
<event>
 4    1  0.2878104E-007  0.7754754E+03  0.7818608E-02  0.9766575E-01
          2   -1    0    0  501    0  0.00000000000E+00  0.00000000000E+00  0.11578153191E+04  0.11578153191E+04  0.25500000000E-02 0. -1.
         -2   -1    0    0    0  501 -0.00000000000E+00 -0.00000000000E+00 -0.64546986424E+03  0.64546986424E+03  0.25500000000E-02 0.  1.
    8880023    1    1    2    0    0 -0.47417913357E+02  0.40657526602E+03 -0.33900842681E+03  0.84633848143E+03  0.65864270000E+03 0.  0.
    8880022    1    1    2    0    0  0.47417913357E+02 -0.40657526602E+03  0.85135388162E+03  0.95694670187E+03  0.15294330000E+03 0.  0.
<mgrwt>
<rscale>  0 0.67187603E+03</rscale>
<asrwt>0</asrwt>
<pdfrwt beam="1">  1        2 0.17812543E+00 0.77547541E+03</pdfrwt>
<pdfrwt beam="2">  1       -2 0.99303056E-01 0.77547541E+03</pdfrwt>
<totfact> 0.17130759E+01</totfact>
</mgrwt>
</event>
<event>
 4    1  0.2878104E-007  0.7251401E+03  0.7818608E-02  0.9905563E-01
         -2   -1    0    0    0  501 -0.00000000000E+00  0.00000000000E+00  0.56519288999E+03  0.56519289000E+03  0.25500000000E-02 0.  1.
          2   -1    0    0  501    0  0.00000000000E+00 -0.00000000000E+00 -0.18394198825E+04  0.18394198825E+04  0.25500000000E-02 0. -1.
    8880023    1    1    2    0    0 -0.22870159931E+01  0.30333589632E+03  0.30689326624E+03  0.78740814040E+03  0.65864270000E+03 0.  1.
    8880022    1    1    2    0    0  0.22870159931E+01 -0.30333589632E+03 -0.15811202587E+04  0.16172046321E+04  0.15294330000E+03 0.  0.
<mgrwt>
<rscale>  0 0.59992456E+03</rscale>
<asrwt>0</asrwt>
<pdfrwt beam="1">  1        2 0.28298767E+00 0.72514006E+03</pdfrwt>
<pdfrwt beam="2">  1       -2 0.86952753E-01 0.72514006E+03</pdfrwt>
<totfact> 0.97190875E+00</totfact>
</mgrwt>
</event>
<event>
 4    1  0.2878104E-007  0.7360678E+03  0.7818608E-02  0.9871553E-01
         -2   -1    0    0    0  501 -0.00000000000E+00  0.00000000000E+00  0.47734472707E+03  0.47734472707E+03  0.25500000000E-02 0.  1.
          2   -1    0    0  501    0  0.00000000000E+00 -0.00000000000E+00 -0.12757932135E+04  0.12757932135E+04  0.25500000000E-02 0. -1.
    8880023    1    1    2    0    0 -0.24998179172E+03 -0.21329503303E+03  0.13808735497E+03  0.74890853325E+03  0.65864270000E+03 0.  1.
    8880022    1    1    2    0    0  0.24998179172E+03  0.21329503303E+03 -0.93653584138E+03  0.10042294073E+04  0.15294330000E+03 0.  0.
<mgrwt>
<rscale>  0 0.61659988E+03</rscale>
<asrwt>0</asrwt>
<pdfrwt beam="1">  1        2 0.19627588E+00 0.73606785E+03</pdfrwt>
<pdfrwt beam="2">  1       -2 0.73437651E-01 0.73606785E+03</pdfrwt>
<totfact> 0.29184060E+01</totfact>
</mgrwt>
</event>
<event>
 4    1  0.2878104E-007  0.8689738E+03  0.7818608E-02  0.9577796E-01
         -2   -1    0    0    0  501 -0.00000000000E+00  0.00000000000E+00  0.29398799172E+03  0.29398799173E+03  0.25500000000E-02 0.  1.
          2   -1    0    0  501    0  0.00000000000E+00 -0.00000000000E+00 -0.24377158238E+04  0.24377158238E+04  0.25500000000E-02 0. -1.
    8880023    1    1    2    0    0 -0.42460849131E+03  0.37551678460E+03 -0.53806929432E+03  0.10220733820E+04  0.65864270000E+03 0.  1.
    8880022    1    1    2    0    0  0.42460849131E+03 -0.37551678460E+03 -0.16056585377E+04  0.17096304335E+04  0.15294330000E+03 0.  0.
<mgrwt>
<rscale>  0 0.78783392E+03</rscale>
<asrwt>0</asrwt>
<pdfrwt beam="1">  1        2 0.37503319E+00 0.86897378E+03</pdfrwt>
<pdfrwt beam="2">  1       -2 0.45228923E-01 0.86897378E+03</pdfrwt>
<totfact> 0.18008934E+01</totfact>
</mgrwt>
</event>
<event>
 4    1  0.2878104E-007  0.1047188E+04  0.7818608E-02  0.9322269E-01
         -2   -1    0    0    0  501 -0.00000000000E+00  0.00000000000E+00  0.74918192389E+03  0.74918192389E+03  0.25500000000E-02 0.  1.
          2   -1    0    0  501    0  0.00000000000E+00 -0.00000000000E+00 -0.17294861635E+04  0.17294861635E+04  0.25500000000E-02 0. -1.
    8880023    1    1    2    0    0 -0.70811665419E+03  0.40170073238E+03  0.17025044091E+03  0.10609373654E+04  0.65864270000E+03 0.  1.
    8880022    1    1    2    0    0  0.70811665419E+03 -0.40170073238E+03 -0.11505546806E+04  0.14177307221E+04  0.15294330000E+03 0.  0.
<mgrwt>
<rscale>  0 0.98758303E+03</rscale>
<asrwt>0</asrwt>
<pdfrwt beam="1">  1        2 0.26607479E+00 0.10471881E+04</pdfrwt>
<pdfrwt beam="2">  1       -2 0.11525876E+00 0.10471881E+04</pdfrwt>
<totfact> 0.54877290E+00</totfact>
</mgrwt>
</event>
<event>
 4    1  0.2878104E-007  0.9174688E+03  0.7818608E-02  0.9498551E-01
          2   -1    0    0  501    0  0.00000000000E+00  0.00000000000E+00  0.29988758428E+04  0.29988758428E+04  0.25500000000E-02 0. -1.
         -2   -1    0    0    0  501 -0.00000000000E+00 -0.00000000000E+00 -0.21567259779E+03  0.21567259780E+03  0.25500000000E-02 0.  1.
    8880023    1    1    2    0    0 -0.56326704037E+03 -0.30111312344E+03  0.19377831735E+04  0.21440038959E+04  0.65864270000E+03 0.  0.
    8880022    1    1    2    0    0  0.56326704037E+03  0.30111312344E+03  0.84542007157E+03  0.10705445448E+04  0.15294330000E+03 0.  0.
<mgrwt>
<rscale>  0 0.84390735E+03</rscale>
<asrwt>0</asrwt>
<pdfrwt beam="1">  1        2 0.46136545E+00 0.91746884E+03</pdfrwt>
<pdfrwt beam="2">  1       -2 0.33180404E-01 0.91746884E+03</pdfrwt>
<totfact> 0.15291026E+01</totfact>
</mgrwt>
</event>
<event>
 4    1  0.2878104E-007  0.1106918E+04  0.7818608E-02  0.9253393E-01
         -2   -1    0    0    0  501 -0.00000000000E+00  0.00000000000E+00  0.44335853245E+03  0.44335853246E+03  0.25500000000E-02 0.  1.
          2   -1    0    0  501    0  0.00000000000E+00 -0.00000000000E+00 -0.27121316936E+04  0.27121316936E+04  0.25500000000E-02 0. -1.
    8880023    1    1    2    0    0  0.17477631505E+03  0.87230195725E+03 -0.60213567298E+03  0.12600932663E+04  0.65864270000E+03 0.  0.
    8880022    1    1    2    0    0 -0.17477631505E+03 -0.87230195725E+03 -0.16666374882E+04  0.18953969597E+04  0.15294330000E+03 0.  0.
<mgrwt>
<rscale>  0 0.10518923E+04</rscale>
<asrwt>0</asrwt>
<pdfrwt beam="1">  1        2 0.41725102E+00 0.11069181E+04</pdfrwt>
<pdfrwt beam="2">  1       -2 0.68209007E-01 0.11069181E+04</pdfrwt>
<totfact> 0.51456271E+00</totfact>
</mgrwt>
</event>
<event>
 4    1  0.2878104E-007  0.7468791E+03  0.7818608E-02  0.9840344E-01
          2   -1    0    0  501    0  0.00000000000E+00  0.00000000000E+00  0.40996508523E+03  0.40996508523E+03  0.25500000000E-02 0. -1.
         -2   -1    0    0    0  501 -0.00000000000E+00 -0.00000000000E+00 -0.93255527114E+03  0.93255527114E+03  0.25500000000E-02 0.  1.
    8880023    1    1    2    0    0 -0.30216457842E+03 -0.18087217566E+03 -0.59113894198E+03  0.95250912403E+03  0.65864270000E+03 0.  0.
    8880022    1    1    2    0    0  0.30216457842E+03  0.18087217566E+03  0.68548756066E+02  0.39001123234E+03  0.15294330000E+03 0.  0.
<mgrwt>
<rscale>  0 0.63241700E+03</rscale>
<asrwt>0</asrwt>
<pdfrwt beam="1">  1        2 0.63071552E-01 0.74687910E+03</pdfrwt>
<pdfrwt beam="2">  1       -2 0.14347004E+00 0.74687910E+03</pdfrwt>
<totfact> 0.26388747E+01</totfact>
</mgrwt>
</event>
<event>
 4    1  0.2878104E-007  0.1037561E+04  0.7818608E-02  0.9333986E-01
          2   -1    0    0  501    0  0.00000000000E+00  0.00000000000E+00  0.53640493205E+03  0.53640493205E+03  0.25500000000E-02 0. -1.
         -2   -1    0    0    0  501 -0.00000000000E+00 -0.00000000000E+00 -0.20788149318E+04  0.20788149318E+04  0.25500000000E-02 0.  1.
    8880023    1    1    2    0    0 -0.27781925953E+03  0.75202385755E+03 -0.21906606742E+03  0.10604355574E+04  0.65864270000E+03 0.  0.
    8880022    1    1    2    0    0  0.27781925953E+03 -0.75202385755E+03 -0.13233439323E+04  0.15547843064E+04  0.15294330000E+03 0.  0.
<mgrwt>
<rscale>  0 0.97713374E+03</rscale>
<asrwt>0</asrwt>
<pdfrwt beam="1">  1        2 0.82523837E-01 0.10375614E+04</pdfrwt>
<pdfrwt beam="2">  1       -2 0.31981768E+00 0.10375614E+04</pdfrwt>
<totfact> 0.13682674E+00</totfact>
</mgrwt>
</event>
<event>
 4    1  0.2878104E-007  0.8403828E+03  0.7818608E-02  0.9629459E-01
         -2   -1    0    0    0  501 -0.00000000000E+00  0.00000000000E+00  0.78388796351E+03  0.78388796352E+03  0.25500000000E-02 0.  1.
          2   -1    0    0  501    0  0.00000000000E+00 -0.00000000000E+00 -0.18145522398E+04  0.18145522398E+04  0.25500000000E-02 0. -1.
    8880023    1    1    2    0    0  0.27692552843E+03  0.44243118159E+03  0.49734103442E+03  0.97652005075E+03  0.65864270000E+03 0.  0.
    8880022    1    1    2    0    0 -0.27692552843E+03 -0.44243118159E+03 -0.15280053108E+04  0.16219201526E+04  0.15294330000E+03 0.  0.
<mgrwt>
<rscale>  0 0.75376713E+03</rscale>
<asrwt>0</asrwt>
<pdfrwt beam="1">  1        2 0.27916188E+00 0.84038283E+03</pdfrwt>
<pdfrwt beam="2">  1       -2 0.12059815E+00 0.84038283E+03</pdfrwt>
<totfact> 0.45211295E+00</totfact>
</mgrwt>
</event>
<event>
 4    1  0.2878104E-007  0.8189785E+03  0.7818608E-02  0.9671170E-01
         -2   -1    0    0    0  501 -0.00000000000E+00  0.00000000000E+00  0.68610211615E+03  0.68610211615E+03  0.25500000000E-02 0.  1.
          2   -1    0    0  501    0  0.00000000000E+00 -0.00000000000E+00 -0.12019192922E+04  0.12019192922E+04  0.25500000000E-02 0. -1.
    8880023    1    1    2    0    0  0.35128196252E+03 -0.33692222861E+03 -0.92394371125E+03  0.12346650530E+04  0.65864270000E+03 0. -1.
    8880022    1    1    2    0    0 -0.35128196252E+03  0.33692222861E+03  0.40812653520E+03  0.65335635534E+03  0.15294330000E+03 0.  0.
<mgrwt>
<rscale>  0 0.72759577E+03</rscale>
<asrwt>0</asrwt>
<pdfrwt beam="1">  1        2 0.18491066E+00 0.81897852E+03</pdfrwt>
<pdfrwt beam="2">  1       -2 0.10555417E+00 0.81897852E+03</pdfrwt>
<totfact> 0.13869655E+01</totfact>
</mgrwt>
</event>
<event>
 4    1  0.2878104E-007  0.7750499E+03  0.7818608E-02  0.9767596E-01
         -2   -1    0    0    0  501 -0.00000000000E+00  0.00000000000E+00  0.53826353881E+03  0.53826353882E+03  0.25500000000E-02 0.  1.
          2   -1    0    0  501    0  0.00000000000E+00 -0.00000000000E+00 -0.29965894191E+04  0.29965894191E+04  0.25500000000E-02 0. -1.
    8880023    1    1    2    0    0 -0.27610500044E+02  0.40759016236E+03  0.23228576667E+03  0.80910998253E+03  0.65864270000E+03 0.  0.
    8880022    1    1    2    0    0  0.27610500044E+02 -0.40759016236E+03 -0.26906116469E+04  0.27257429754E+04  0.15294330000E+03 0.  0.
<mgrwt>
<rscale>  0 0.67130895E+03</rscale>
<asrwt>0</asrwt>
<pdfrwt beam="1">  1        2 0.46101375E+00 0.77504986E+03</pdfrwt>
<pdfrwt beam="2">  1       -2 0.82809777E-01 0.77504986E+03</pdfrwt>
<totfact> 0.23754832E+00</totfact>
</mgrwt>
</event>
<event>
 4    1  0.2878104E-007  0.6614695E+03  0.7818608E-02  0.1022699E+00
          2   -1    0    0  501    0  0.00000000000E+00  0.00000000000E+00  0.58217613922E+03  0.58217613923E+03  0.25500000000E-02 0. -1.
         -2   -1    0    0    0  501 -0.00000000000E+00 -0.00000000000E+00 -0.37474253599E+03  0.37474253600E+03  0.25500000000E-02 0.  1.
    8880023    1    1    2    0    0 -0.25569323941E+02  0.55479266755E+02 -0.36633729943E+02  0.66248318907E+03  0.65864270000E+03 0.  1.
    8880022    1    1    2    0    0  0.25569323941E+02 -0.55479266755E+02  0.24406733318E+03  0.29443548615E+03  0.15294330000E+03 0.  0.
<mgrwt>
<rscale>  0 0.46725116E+03</rscale>
<asrwt>0</asrwt>
<pdfrwt beam="1">  1        2 0.89565559E-01 0.66146953E+03</pdfrwt>
<pdfrwt beam="2">  1       -2 0.57652698E-01 0.66146953E+03</pdfrwt>
<totfact> 0.14711210E+02</totfact>
</mgrwt>
</event>
<event>
 4    1  0.2878104E-007  0.7231871E+03  0.7818608E-02  0.9911946E-01
          2   -1    0    0  501    0  0.00000000000E+00  0.00000000000E+00  0.10155266341E+04  0.10155266341E+04  0.25500000000E-02 0. -1.
         -2   -1    0    0    0  501 -0.00000000000E+00 -0.00000000000E+00 -0.56168981268E+03  0.56168981268E+03  0.25500000000E-02 0.  1.
    8880023    1    1    2    0    0  0.21166602992E+03  0.21068204913E+03 -0.27590670166E+03  0.77403110295E+03  0.65864270000E+03 0.  0.
    8880022    1    1    2    0    0 -0.21166602992E+03 -0.21068204913E+03  0.72974352313E+03  0.80318534388E+03  0.15294330000E+03 0.  0.
<mgrwt>
<rscale>  0 0.59685825E+03</rscale>
<asrwt>0</asrwt>
<pdfrwt beam="1">  1        2 0.15623486E+00 0.72318714E+03</pdfrwt>
<pdfrwt beam="2">  1       -2 0.86413819E-01 0.72318714E+03</pdfrwt>
<totfact> 0.29109573E+01</totfact>
</mgrwt>
</event>
<event>
 4    1  0.2878104E-007  0.9043432E+03  0.7818608E-02  0.9519095E-01
         -2   -1    0    0    0  501 -0.00000000000E+00  0.00000000000E+00  0.43011061104E+03  0.43011061105E+03  0.25500000000E-02 0.  1.
          2   -1    0    0  501    0  0.00000000000E+00 -0.00000000000E+00 -0.17056918160E+04  0.17056918160E+04  0.25500000000E-02 0. -1.
    8880023    1    1    2    0    0  0.47146914286E+03 -0.40217316344E+03 -0.26828488712E+03  0.94329920650E+03  0.65864270000E+03 0.  0.
    8880022    1    1    2    0    0 -0.47146914286E+03  0.40217316344E+03 -0.10072963179E+04  0.11925032206E+04  0.15294330000E+03 0.  0.
<mgrwt>
<rscale>  0 0.82890544E+03</rscale>
<asrwt>0</asrwt>
<pdfrwt beam="1">  1        2 0.26241412E+00 0.90434319E+03</pdfrwt>
<pdfrwt beam="2">  1       -2 0.66170864E-01 0.90434319E+03</pdfrwt>
<totfact> 0.20645858E+01</totfact>
</mgrwt>
</event>
<event>
 4    1  0.2878104E-007  0.7167599E+03  0.7818608E-02  0.9933706E-01
          2   -1    0    0  501    0  0.00000000000E+00  0.00000000000E+00  0.14986326558E+04  0.14986326558E+04  0.25500000000E-02 0. -1.
         -2   -1    0    0    0  501 -0.00000000000E+00 -0.00000000000E+00 -0.16508216521E+04  0.16508216521E+04  0.25500000000E-02 0.  1.
    8880023    1    1    2    0    0  0.26849348739E+02 -0.28144912104E+03 -0.15539617027E+04  0.17112982425E+04  0.65864270000E+03 0.  1.
    8880022    1    1    2    0    0 -0.26849348739E+02  0.28144912104E+03  0.14017727063E+04  0.14381560654E+04  0.15294330000E+03 0.  0.
<mgrwt>
<rscale>  0 0.58655203E+03</rscale>
<asrwt>0</asrwt>
<pdfrwt beam="1">  1        2 0.23055887E+00 0.71675986E+03</pdfrwt>
<pdfrwt beam="2">  1       -2 0.25397256E+00 0.71675986E+03</pdfrwt>
<totfact> 0.81143510E-01</totfact>
</mgrwt>
</event>
<event>
 4    1  0.2878104E-007  0.2041611E+04  0.7818608E-02  0.8599487E-01
         -2   -1    0    0    0  501 -0.00000000000E+00  0.00000000000E+00  0.13133163165E+04  0.13133163165E+04  0.25500000000E-02 0.  1.
          2   -1    0    0  501    0  0.00000000000E+00 -0.00000000000E+00 -0.34189897969E+04  0.34189897969E+04  0.25500000000E-02 0. -1.
    8880023    1    1    2    0    0 -0.61307515726E+03  0.18326225443E+04 -0.26428875909E+03  0.20586464710E+04  0.65864270000E+03 0.  0.
    8880022    1    1    2    0    0  0.61307515726E+03 -0.18326225443E+04 -0.18413847213E+04  0.26736596423E+04  0.15294330000E+03 0.  0.
<mgrwt>
<rscale>  0 0.20153288E+04</rscale>
<asrwt>0</asrwt>
<pdfrwt beam="1">  1        2 0.52599843E+00 0.20416113E+04</pdfrwt>
<pdfrwt beam="2">  1       -2 0.20204866E+00 0.20416113E+04</pdfrwt>
<totfact> 0.10618617E-01</totfact>
</mgrwt>
</event>
<event>
 4    1  0.2878104E-007  0.8424198E+03  0.7818608E-02  0.9625634E-01
         -2   -1    0    0    0  501 -0.00000000000E+00  0.00000000000E+00  0.12701413054E+04  0.12701413054E+04  0.25500000000E-02 0.  1.
          2   -1    0    0  501    0  0.00000000000E+00 -0.00000000000E+00 -0.24421840307E+04  0.24421840307E+04  0.25500000000E-02 0. -1.
    8880023    1    1    2    0    0  0.32815657043E+03  0.41009049682E+03  0.10942406127E+04  0.13809539004E+04  0.65864270000E+03 0.  1.
    8880022    1    1    2    0    0 -0.32815657043E+03 -0.41009049682E+03 -0.22662833380E+04  0.23313714358E+04  0.15294330000E+03 0.  0.
<mgrwt>
<rscale>  0 0.75622525E+03</rscale>
<asrwt>0</asrwt>
<pdfrwt beam="1">  1        2 0.37572062E+00 0.84241982E+03</pdfrwt>
<pdfrwt beam="2">  1       -2 0.19540635E+00 0.84241982E+03</pdfrwt>
<totfact> 0.55498197E-01</totfact>
</mgrwt>
</event>
<event>
 4    1  0.2878104E-007  0.2136461E+04  0.7818608E-02  0.8556218E-01
         -2   -1    0    0    0  501 -0.00000000000E+00  0.00000000000E+00  0.10346279659E+04  0.10346279660E+04  0.25500000000E-02 0.  1.
          2   -1    0    0  501    0  0.00000000000E+00 -0.00000000000E+00 -0.48660917711E+04  0.48660917711E+04  0.25500000000E-02 0. -1.
    8880023    1    1    2    0    0 -0.16359002566E+04 -0.12060202077E+04 -0.87253064737E+03  0.23077639238E+04  0.65864270000E+03 0.  0.
    8880022    1    1    2    0    0  0.16359002566E+04  0.12060202077E+04 -0.29589331577E+04  0.35929558133E+04  0.15294330000E+03 0.  0.
<mgrwt>
<rscale>  0 0.21114466E+04</rscale>
<asrwt>0</asrwt>
<pdfrwt beam="1">  1        2 0.74862949E+00 0.21364608E+04</pdfrwt>
<pdfrwt beam="2">  1       -2 0.15917354E+00 0.21364608E+04</pdfrwt>
<totfact> 0.11440831E-02</totfact>
</mgrwt>
</event>
<event>
 4    1  0.2878104E-007  0.1324737E+04  0.7818608E-02  0.9044487E-01
          2   -1    0    0  501    0  0.00000000000E+00  0.00000000000E+00  0.13081440484E+04  0.13081440484E+04  0.25500000000E-02 0. -1.
         -2   -1    0    0    0  501 -0.00000000000E+00 -0.00000000000E+00 -0.13784386808E+04  0.13784386808E+04  0.25500000000E-02 0.  1.
    8880023    1    1    2    0    0  0.66554761028E+03 -0.93710350572E+03 -0.54655361180E+03  0.14330553579E+04  0.65864270000E+03 0.  0.
    8880022    1    1    2    0    0 -0.66554761028E+03  0.93710350572E+03  0.47625897944E+03  0.12535273713E+04  0.15294330000E+03 0.  0.
<mgrwt>
<rscale>  0 0.12813494E+04</rscale>
<asrwt>0</asrwt>
<pdfrwt beam="1">  1        2 0.20125293E+00 0.13247365E+04</pdfrwt>
<pdfrwt beam="2">  1       -2 0.21206749E+00 0.13247365E+04</pdfrwt>
<totfact> 0.17407113E+00</totfact>
</mgrwt>
</event>
<event>
 4    1  0.2878104E-007  0.1127044E+04  0.7818608E-02  0.9231527E-01
          2   -1    0    0  501    0  0.00000000000E+00  0.00000000000E+00  0.17722618721E+04  0.17722618721E+04  0.25500000000E-02 0. -1.
         -2   -1    0    0    0  501 -0.00000000000E+00 -0.00000000000E+00 -0.10742343857E+04  0.10742343857E+04  0.25500000000E-02 0.  1.
    8880023    1    1    2    0    0  0.89024537403E+03  0.20947940740E+03 -0.57999365880E+03  0.12675256599E+04  0.65864270000E+03 0.  1.
    8880022    1    1    2    0    0 -0.89024537403E+03 -0.20947940740E+03  0.12780211453E+04  0.15789705979E+04  0.15294330000E+03 0.  0.
<mgrwt>
<rscale>  0 0.10733863E+04</rscale>
<asrwt>0</asrwt>
<pdfrwt beam="1">  1        2 0.27265567E+00 0.11270442E+04</pdfrwt>
<pdfrwt beam="2">  1       -2 0.16526683E+00 0.11270442E+04</pdfrwt>
<totfact> 0.20181184E+00</totfact>
</mgrwt>
</event>
<event>
 4    1  0.2878104E-007  0.1170955E+04  0.7818608E-02  0.9185887E-01
         -2   -1    0    0    0  501 -0.00000000000E+00  0.00000000000E+00  0.15876250252E+04  0.15876250252E+04  0.25500000000E-02 0.  1.
          2   -1    0    0  501    0  0.00000000000E+00 -0.00000000000E+00 -0.21575233722E+04  0.21575233722E+04  0.25500000000E-02 0. -1.
    8880023    1    1    2    0    0 -0.92788890739E+03  0.27630960114E+03  0.12283947157E+04  0.16970823798E+04  0.65864270000E+03 0.  1.
    8880022    1    1    2    0    0  0.92788890739E+03 -0.27630960114E+03 -0.17982930627E+04  0.20480660176E+04  0.15294330000E+03 0.  0.
<mgrwt>
<rscale>  0 0.11200296E+04</rscale>
<asrwt>0</asrwt>
<pdfrwt beam="1">  1        2 0.33192667E+00 0.11709547E+04</pdfrwt>
<pdfrwt beam="2">  1       -2 0.24425001E+00 0.11709547E+04</pdfrwt>
<totfact> 0.37197533E-01</totfact>
</mgrwt>
</event>
<event>
 4    1  0.2878104E-007  0.7007588E+03  0.7818608E-02  0.9994068E-01
          2   -1    0    0  501    0  0.00000000000E+00  0.00000000000E+00  0.22431709901E+04  0.22431709901E+04  0.25500000000E-02 0. -1.
         -2   -1    0    0    0  501 -0.00000000000E+00 -0.00000000000E+00 -0.64174362471E+03  0.64174362471E+03  0.25500000000E-02 0.  1.
    8880023    1    1    2    0    0  0.10311535618E+03  0.21591654590E+03 -0.43762441816E+03  0.82618283032E+03  0.65864270000E+03 0.  1.
    8880022    1    1    2    0    0 -0.10311535618E+03 -0.21591654590E+03  0.20390517836E+04  0.20587317845E+04  0.15294330000E+03 0.  0.
<mgrwt>
<rscale>  0 0.55911121E+03</rscale>
<asrwt>0</asrwt>
<pdfrwt beam="1">  1        2 0.34510323E+00 0.70075883E+03</pdfrwt>
<pdfrwt beam="2">  1       -2 0.98729788E-01 0.70075883E+03</pdfrwt>
<totfact> 0.43723315E+00</totfact>
</mgrwt>
</event>
<event>
 4    1  0.2878104E-007  0.1038519E+04  0.7818608E-02  0.9332813E-01
         -2   -1    0    0    0  501 -0.00000000000E+00  0.00000000000E+00  0.15533384623E+04  0.15533384623E+04  0.25500000000E-02 0.  1.
          2   -1    0    0  501    0  0.00000000000E+00 -0.00000000000E+00 -0.76880660946E+03  0.76880660946E+03  0.25500000000E-02 0. -1.
    8880023    1    1    2    0    0  0.18467646284E+03 -0.78141227283E+03  0.10360545845E+04  0.14669457537E+04  0.65864270000E+03 0.  0.
    8880022    1    1    2    0    0 -0.18467646284E+03  0.78141227283E+03 -0.25152273163E+03  0.85519931805E+03  0.15294330000E+03 0.  0.
<mgrwt>
<rscale>  0 0.97817385E+03</rscale>
<asrwt>0</asrwt>
<pdfrwt beam="1">  1        2 0.11827794E+00 0.10385185E+04</pdfrwt>
<pdfrwt beam="2">  1       -2 0.23897515E+00 0.10385185E+04</pdfrwt>
<totfact> 0.27077719E+00</totfact>
</mgrwt>
</event>
<event>
 4    1  0.2878104E-007  0.1251868E+04  0.7818608E-02  0.9108281E-01
          2   -1    0    0  501    0  0.00000000000E+00  0.00000000000E+00  0.25344095990E+04  0.25344095990E+04  0.25500000000E-02 0. -1.
         -2   -1    0    0    0  501 -0.00000000000E+00 -0.00000000000E+00 -0.73702382192E+03  0.73702382193E+03  0.25500000000E-02 0.  1.
    8880023    1    1    2    0    0 -0.10569236953E+04 -0.12757686476E+03  0.92024555200E+02  0.12552459038E+04  0.65864270000E+03 0.  0.
    8880022    1    1    2    0    0  0.10569236953E+04  0.12757686476E+03  0.17053612218E+04  0.20161875171E+04  0.15294330000E+03 0.  0.
<mgrwt>
<rscale>  0 0.12052416E+04</rscale>
<asrwt>0</asrwt>
<pdfrwt beam="1">  1        2 0.38990917E+00 0.12518681E+04</pdfrwt>
<pdfrwt beam="2">  1       -2 0.11338828E+00 0.12518681E+04</pdfrwt>
<totfact> 0.19801921E+00</totfact>
</mgrwt>
</event>
<event>
 4    1  0.2878104E-007  0.1127552E+04  0.7818608E-02  0.9230983E-01
          2   -1    0    0  501    0  0.00000000000E+00  0.00000000000E+00  0.28533476346E+04  0.28533476346E+04  0.25500000000E-02 0. -1.
         -2   -1    0    0    0  501 -0.00000000000E+00 -0.00000000000E+00 -0.12002741542E+04  0.12002741542E+04  0.25500000000E-02 0.  1.
    8880023    1    1    2    0    0 -0.88283112965E+03  0.24118960201E+03 -0.83179672743E+03  0.14011635271E+04  0.65864270000E+03 0.  1.
    8880022    1    1    2    0    0  0.88283112965E+03 -0.24118960201E+03  0.24848702078E+04  0.26524582618E+04  0.15294330000E+03 0.  0.
<mgrwt>
<rscale>  0 0.10739275E+04</rscale>
<asrwt>0</asrwt>
<pdfrwt beam="1">  1        2 0.43897655E+00 0.11275520E+04</pdfrwt>
<pdfrwt beam="2">  1       -2 0.18465756E+00 0.11275520E+04</pdfrwt>
<totfact> 0.35851769E-01</totfact>
</mgrwt>
</event>
<event>
 4    1  0.2878104E-007  0.9046593E+03  0.7818608E-02  0.9518593E-01
         -2   -1    0    0    0  501 -0.00000000000E+00  0.00000000000E+00  0.39818316423E+03  0.39818316424E+03  0.25500000000E-02 0.  1.
          2   -1    0    0  501    0  0.00000000000E+00 -0.00000000000E+00 -0.15781646814E+04  0.15781646814E+04  0.25500000000E-02 0. -1.
    8880023    1    1    2    0    0  0.28456429477E+03  0.55101856459E+03 -0.90915179686E+03  0.12825620813E+04  0.65864270000E+03 0. -1.
    8880022    1    1    2    0    0 -0.28456429477E+03 -0.55101856459E+03 -0.27082972030E+03  0.69378576434E+03  0.15294330000E+03 0.  0.
<mgrwt>
<rscale>  0 0.82926814E+03</rscale>
<asrwt>0</asrwt>
<pdfrwt beam="1">  1        2 0.24279456E+00 0.90465933E+03</pdfrwt>
<pdfrwt beam="2">  1       -2 0.61258949E-01 0.90465933E+03</pdfrwt>
<totfact> 0.28652297E+01</totfact>
</mgrwt>
</event>
<event>
 4    1  0.2878104E-007  0.6942745E+03  0.7818608E-02  0.1002184E+00
         -2   -1    0    0    0  501 -0.00000000000E+00  0.00000000000E+00  0.81640147361E+03  0.81640147361E+03  0.25500000000E-02 0.  1.
          2   -1    0    0  501    0  0.00000000000E+00 -0.00000000000E+00 -0.24642449602E+04  0.24642449602E+04  0.25500000000E-02 0. -1.
    8880023    1    1    2    0    0  0.50974253678E+02  0.21356161456E+03  0.65965484697E+03  0.95768557531E+03  0.65864270000E+03 0.  1.
    8880022    1    1    2    0    0 -0.50974253678E+02 -0.21356161456E+03 -0.23074983336E+04  0.23229608586E+04  0.15294330000E+03 0.  0.
<mgrwt>
<rscale>  0 0.54703044E+03</rscale>
<asrwt>0</asrwt>
<pdfrwt beam="1">  1        2 0.37911461E+00 0.69427455E+03</pdfrwt>
<pdfrwt beam="2">  1       -2 0.12560023E+00 0.69427455E+03</pdfrwt>
<totfact> 0.18371076E+00</totfact>
</mgrwt>
</event>
<event>
 4    1  0.2878104E-007  0.1181149E+04  0.7818608E-02  0.9175668E-01
          2   -1    0    0  501    0  0.00000000000E+00  0.00000000000E+00  0.38640730783E+04  0.38640730783E+04  0.25500000000E-02 0. -1.
         -2   -1    0    0    0  501 -0.00000000000E+00 -0.00000000000E+00 -0.35537041221E+03  0.35537041222E+03  0.25500000000E-02 0.  1.
    8880023    1    1    2    0    0 -0.70802623895E+03  0.67823457329E+03  0.10987359892E+04  0.16131752142E+04  0.65864270000E+03 0.  1.
    8880022    1    1    2    0    0  0.70802623895E+03 -0.67823457329E+03  0.24099666769E+04  0.26062682763E+04  0.15294330000E+03 0.  0.
<mgrwt>
<rscale>  0 0.11308143E+04</rscale>
<asrwt>0</asrwt>
<pdfrwt beam="1">  1        2 0.59447277E+00 0.11811492E+04</pdfrwt>
<pdfrwt beam="2">  1       -2 0.54672372E-01 0.11811492E+04</pdfrwt>
<totfact> 0.14070383E+00</totfact>
</mgrwt>
</event>
<event>
 4    1  0.2878104E-007  0.7074362E+03  0.7818608E-02  0.9967647E-01
         -2   -1    0    0    0  501 -0.00000000000E+00  0.00000000000E+00  0.46901899327E+03  0.46901899328E+03  0.25500000000E-02 0.  1.
          2   -1    0    0  501    0  0.00000000000E+00 -0.00000000000E+00 -0.70047329863E+03  0.70047329863E+03  0.25500000000E-02 0. -1.
    8880023    1    1    2    0    0  0.11054407802E+02  0.25794096680E+03  0.10887122639E+03  0.71576455101E+03  0.65864270000E+03 0.  1.
    8880022    1    1    2    0    0 -0.11054407802E+02 -0.25794096680E+03 -0.34032553174E+03  0.45372774090E+03  0.15294330000E+03 0.  0.
<mgrwt>
<rscale>  0 0.57091880E+03</rscale>
<asrwt>0</asrwt>
<pdfrwt beam="1">  1        2 0.10776512E+00 0.70743618E+03</pdfrwt>
<pdfrwt beam="2">  1       -2 0.72156768E-01 0.70743618E+03</pdfrwt>
<totfact> 0.72303023E+01</totfact>
</mgrwt>
</event>
<event>
 4    1  0.2878104E-007  0.1578621E+04  0.7818608E-02  0.8856026E-01
         -2   -1    0    0    0  501 -0.00000000000E+00  0.00000000000E+00  0.29302295138E+04  0.29302295138E+04  0.25500000000E-02 0.  1.
          2   -1    0    0  501    0  0.00000000000E+00 -0.00000000000E+00 -0.13525408802E+04  0.13525408802E+04  0.25500000000E-02 0. -1.
    8880023    1    1    2    0    0  0.13995385462E+04  0.31547580932E+03  0.22030785175E+04  0.27102764230E+04  0.65864270000E+03 0.  0.
    8880022    1    1    2    0    0 -0.13995385462E+04 -0.31547580932E+03 -0.62538988394E+03  0.15724939709E+04  0.15294330000E+03 0.  0.
<mgrwt>
<rscale>  0 0.15435072E+04</rscale>
<asrwt>0</asrwt>
<pdfrwt beam="1">  1        2 0.20808321E+00 0.15786207E+04</pdfrwt>
<pdfrwt beam="2">  1       -2 0.45080454E+00 0.15786207E+04</pdfrwt>
<totfact> 0.49304289E-02</totfact>
</mgrwt>
</event>
<event>
 4    1  0.2878104E-007  0.6627476E+03  0.7818608E-02  0.1021503E+00
         -2   -1    0    0    0  501 -0.00000000000E+00  0.00000000000E+00  0.26950839672E+03  0.26950839673E+03  0.25500000000E-02 0.  1.
          2   -1    0    0  501    0  0.00000000000E+00 -0.00000000000E+00 -0.19905315980E+04  0.19905315980E+04  0.25500000000E-02 0. -1.
    8880023    1    1    2    0    0 -0.52535541298E+02 -0.51616125057E+02 -0.14953225836E+03  0.67940732261E+03  0.65864270000E+03 0.  1.
    8880022    1    1    2    0    0  0.52535541298E+02  0.51616125057E+02 -0.15714909429E+04  0.15806326721E+04  0.15294330000E+03 0.  0.
<mgrwt>
<rscale>  0 0.47148196E+03</rscale>
<asrwt>0</asrwt>
<pdfrwt beam="1">  1        2 0.30623562E+00 0.66274762E+03</pdfrwt>
<pdfrwt beam="2">  1       -2 0.41462832E-01 0.66274762E+03</pdfrwt>
<totfact> 0.38879989E+01</totfact>
</mgrwt>
</event>
<event>
 4    1  0.2878104E-007  0.8587456E+03  0.7818608E-02  0.9595799E-01
         -2   -1    0    0    0  501 -0.00000000000E+00  0.00000000000E+00  0.16625392597E+04  0.16625392597E+04  0.25500000000E-02 0.  1.
          2   -1    0    0  501    0  0.00000000000E+00 -0.00000000000E+00 -0.67573338467E+03  0.67573338468E+03  0.25500000000E-02 0. -1.
    8880023    1    1    2    0    0 -0.45373616898E+03 -0.31266148341E+03  0.13932831784E+04  0.16366679369E+04  0.65864270000E+03 0.  1.
    8880022    1    1    2    0    0  0.45373616898E+03  0.31266148341E+03 -0.40647730343E+03  0.70160470741E+03  0.15294330000E+03 0.  0.
<mgrwt>
<rscale>  0 0.77574870E+03</rscale>
<asrwt>0</asrwt>
<pdfrwt beam="1">  1        2 0.10395898E+00 0.85874555E+03</pdfrwt>
<pdfrwt beam="2">  1       -2 0.25577527E+00 0.85874555E+03</pdfrwt>
<totfact> 0.25780349E+00</totfact>
</mgrwt>
</event>
<event>
 4    1  0.3857995E-007  0.9104861E+03  0.7818608E-02  0.9509403E-01
         -2   -1    0    0    0  501 -0.00000000000E+00  0.00000000000E+00  0.17033195416E+04  0.17033195416E+04  0.25500000000E-02 0.  1.
          2   -1    0    0  501    0  0.00000000000E+00 -0.00000000000E+00 -0.20780052614E+04  0.20780052614E+04  0.25500000000E-02 0. -1.
    8880023    1    1    2    0    0  0.39436861624E+03  0.48953861298E+03  0.15240977338E+04  0.17753475061E+04  0.65864270000E+03 0.  0.
    8880022    1    1    2    0    0 -0.39436861624E+03 -0.48953861298E+03 -0.18987834535E+04  0.20059772969E+04  0.15294330000E+03 0.  0.
<mgrwt>
<rscale>  0 0.83594078E+03</rscale>
<asrwt>0</asrwt>
<pdfrwt beam="1">  1        2 0.31969312E+00 0.91048606E+03</pdfrwt>
<pdfrwt beam="2">  1       -2 0.26204916E+00 0.91048606E+03</pdfrwt>
<totfact> 0.33510513E-01</totfact>
</mgrwt>
</event>
<event>
 4    1  0.2878104E-007  0.9801839E+03  0.7818608E-02  0.9407955E-01
         -2   -1    0    0    0  501 -0.00000000000E+00  0.00000000000E+00  0.71962912660E+03  0.71962912660E+03  0.25500000000E-02 0.  1.
          2   -1    0    0  501    0  0.00000000000E+00 -0.00000000000E+00 -0.12001707245E+04  0.12001707245E+04  0.25500000000E-02 0. -1.
    8880023    1    1    2    0    0  0.36571403011E+03  0.62705937401E+03  0.89456303682E+02  0.98425751045E+03  0.65864270000E+03 0.  1.
    8880022    1    1    2    0    0 -0.36571403011E+03 -0.62705937401E+03 -0.56999790163E+03  0.93554234069E+03  0.15294330000E+03 0. -1.
<mgrwt>
<rscale>  0 0.91423898E+03</rscale>
<asrwt>0</asrwt>
<pdfrwt beam="1">  1        2 0.18464165E+00 0.98018387E+03</pdfrwt>
<pdfrwt beam="2">  1       -2 0.11071217E+00 0.98018387E+03</pdfrwt>
<totfact> 0.12188855E+01</totfact>
</mgrwt>
</event>
<event>
 4    1  0.2878104E-007  0.7320417E+03  0.7818608E-02  0.9883766E-01
          2   -1    0    0  501    0  0.00000000000E+00  0.00000000000E+00  0.25408796884E+04  0.25408796884E+04  0.25500000000E-02 0. -1.
         -2   -1    0    0    0  501 -0.00000000000E+00 -0.00000000000E+00 -0.33680144560E+03  0.33680144561E+03  0.25500000000E-02 0.  1.
    8880023    1    1    2    0    0 -0.82411663410E+02  0.30867973206E+03  0.93968647921E+02  0.73804821814E+03  0.65864270000E+03 0.  0.
    8880022    1    1    2    0    0  0.82411663410E+02 -0.30867973206E+03  0.21101095949E+04  0.21396329159E+04  0.15294330000E+03 0.  0.
<mgrwt>
<rscale>  0 0.61054524E+03</rscale>
<asrwt>0</asrwt>
<pdfrwt beam="1">  1        2 0.39090458E+00 0.73204171E+03</pdfrwt>
<pdfrwt beam="2">  1       -2 0.51815605E-01 0.73204171E+03</pdfrwt>
<totfact> 0.12196504E+01</totfact>
</mgrwt>
</event>
<event>
 4    1  0.2878104E-007  0.7878212E+03  0.7818608E-02  0.9737775E-01
         -2   -1    0    0    0  501 -0.00000000000E+00  0.00000000000E+00  0.42808005131E+03  0.42808005132E+03  0.25500000000E-02 0.  1.
          2   -1    0    0  501    0  0.00000000000E+00 -0.00000000000E+00 -0.92293935204E+03  0.92293935205E+03  0.25500000000E-02 0. -1.
    8880023    1    1    2    0    0 -0.21691567731E+03  0.37389790607E+03 -0.39688697952E+03  0.88214598338E+03  0.65864270000E+03 0.  0.
    8880022    1    1    2    0    0  0.21691567731E+03 -0.37389790607E+03 -0.97972321212E+02  0.46887341998E+03  0.15294330000E+03 0.  0.
<mgrwt>
<rscale>  0 0.68811516E+03</rscale>
<asrwt>0</asrwt>
<pdfrwt beam="1">  1        2 0.14199067E+00 0.78782121E+03</pdfrwt>
<pdfrwt beam="2">  1       -2 0.65858470E-01 0.78782121E+03</pdfrwt>
<totfact> 0.60737544E+01</totfact>
</mgrwt>
</event>
<event>
 4    1  0.2878104E-007  0.1009133E+04  0.7818608E-02  0.9369706E-01
         -2   -1    0    0    0  501 -0.00000000000E+00  0.00000000000E+00  0.34796751981E+03  0.34796751981E+03  0.25500000000E-02 0.  1.
          2   -1    0    0  501    0  0.00000000000E+00 -0.00000000000E+00 -0.23190346744E+04  0.23190346744E+04  0.25500000000E-02 0. -1.
    8880023    1    1    2    0    0 -0.31319489897E+03  0.69745791538E+03 -0.98793432891E+03  0.14122191873E+04  0.65864270000E+03 0.  1.
    8880022    1    1    2    0    0  0.31319489897E+03 -0.69745791538E+03 -0.98313282565E+03  0.12547830069E+04  0.15294330000E+03 0. -1.
<mgrwt>
<rscale>  0 0.94611282E+03</rscale>
<asrwt>0</asrwt>
<pdfrwt beam="1">  1        2 0.35677456E+00 0.10091327E+04</pdfrwt>
<pdfrwt beam="2">  1       -2 0.53533466E-01 0.10091327E+04</pdfrwt>
<totfact> 0.14654067E+01</totfact>
</mgrwt>
</event>
<event>
 4    1  0.2878104E-007  0.6815015E+03  0.7818608E-02  0.1008487E+00
         -2   -1    0    0    0  501 -0.00000000000E+00  0.00000000000E+00  0.57233961992E+03  0.57233961993E+03  0.25500000000E-02 0.  1.
          2   -1    0    0  501    0  0.00000000000E+00 -0.00000000000E+00 -0.11129085182E+04  0.11129085182E+04  0.25500000000E-02 0. -1.
    8880023    1    1    2    0    0 -0.11562100311E+03  0.13139968041E+03  0.34910379139E+03  0.76571388638E+03  0.65864270000E+03 0.  1.
    8880022    1    1    2    0    0  0.11562100311E+03 -0.13139968041E+03 -0.88967268970E+03  0.91953425177E+03  0.15294330000E+03 0.  0.
<mgrwt>
<rscale>  0 0.52080508E+03</rscale>
<asrwt>0</asrwt>
<pdfrwt beam="1">  1        2 0.17121669E+00 0.68150150E+03</pdfrwt>
<pdfrwt beam="2">  1       -2 0.88052250E-01 0.68150150E+03</pdfrwt>
<totfact> 0.24379423E+01</totfact>
</mgrwt>
</event>
<event>
 4    1  0.2878104E-007  0.7025829E+03  0.7818608E-02  0.9986650E-01
         -2   -1    0    0    0  501 -0.00000000000E+00  0.00000000000E+00  0.57086218480E+03  0.57086218481E+03  0.25500000000E-02 0.  1.
          2   -1    0    0  501    0  0.00000000000E+00 -0.00000000000E+00 -0.12248955770E+04  0.12248955770E+04  0.25500000000E-02 0. -1.
    8880023    1    1    2    0    0 -0.23972176473E+03 -0.48435376731E+02  0.32572825684E+03  0.77441695085E+03  0.65864270000E+03 0.  1.
    8880022    1    1    2    0    0  0.23972176473E+03  0.48435376731E+02 -0.97976164900E+03  0.10213408109E+04  0.15294330000E+03 0.  0.
<mgrwt>
<rscale>  0 0.56239482E+03</rscale>
<asrwt>0</asrwt>
<pdfrwt beam="1">  1        2 0.18844547E+00 0.70258289E+03</pdfrwt>
<pdfrwt beam="2">  1       -2 0.87824952E-01 0.70258289E+03</pdfrwt>
<totfact> 0.20977451E+01</totfact>
</mgrwt>
</event>
<event>
 4    1  0.2878104E-007  0.8571451E+03  0.7818608E-02  0.9598662E-01
          2   -1    0    0  501    0  0.00000000000E+00  0.00000000000E+00  0.37837373961E+03  0.37837373962E+03  0.25500000000E-02 0. -1.
         -2   -1    0    0    0  501 -0.00000000000E+00 -0.00000000000E+00 -0.17720602089E+04  0.17720602089E+04  0.25500000000E-02 0.  1.
    8880023    1    1    2    0    0 -0.44014626976E+03 -0.32735112351E+03 -0.13232955002E+04  0.15766447552E+04  0.65864270000E+03 0.  1.
    8880022    1    1    2    0    0  0.44014626976E+03  0.32735112351E+03 -0.70390969054E+02  0.57378919334E+03  0.15294330000E+03 0.  0.
<mgrwt>
<rscale>  0 0.77384795E+03</rscale>
<asrwt>0</asrwt>
<pdfrwt beam="1">  1        2 0.58211345E-01 0.85714509E+03</pdfrwt>
<pdfrwt beam="2">  1       -2 0.27262464E+00 0.85714509E+03</pdfrwt>
<totfact> 0.40333594E+00</totfact>
</mgrwt>
</event>
<event>
 4    1  0.2878104E-007  0.6971059E+03  0.7818608E-02  0.1000943E+00
         -2   -1    0    0    0  501 -0.00000000000E+00  0.00000000000E+00  0.11398089787E+03  0.11398089790E+03  0.25500000000E-02 0.  1.
          2   -1    0    0  501    0  0.00000000000E+00 -0.00000000000E+00 -0.33139274667E+04  0.33139274667E+04  0.25500000000E-02 0. -1.
    8880023    1    1    2    0    0  0.21346621327E+03  0.81108275017E+02 -0.10492090287E+04  0.12596809789E+04  0.65864270000E+03 0.  0.
    8880022    1    1    2    0    0 -0.21346621327E+03 -0.81108275017E+02 -0.21507375402E+04  0.21682273857E+04  0.15294330000E+03 0.  0.
<mgrwt>
<rscale>  0 0.55238866E+03</rscale>
<asrwt>0</asrwt>
<pdfrwt beam="1">  1        2 0.50983492E+00 0.69710586E+03</pdfrwt>
<pdfrwt beam="2">  1       -2 0.17535525E-01 0.69710586E+03</pdfrwt>
<totfact> 0.31521682E+01</totfact>
</mgrwt>
</event>
<event>
 4    1  0.2878104E-007  0.1520502E+04  0.7818608E-02  0.8895293E-01
          2   -1    0    0  501    0  0.00000000000E+00  0.00000000000E+00  0.27502899068E+04  0.27502899068E+04  0.25500000000E-02 0. -1.
         -2   -1    0    0    0  501 -0.00000000000E+00 -0.00000000000E+00 -0.15945414706E+04  0.15945414706E+04  0.25500000000E-02 0.  1.
    8880023    1    1    2    0    0  0.13357021353E+04 -0.30661803744E+03 -0.97539764790E+03  0.18064677115E+04  0.65864270000E+03 0.  0.
    8880022    1    1    2    0    0 -0.13357021353E+04  0.30661803744E+03  0.21311460842E+04  0.25383636659E+04  0.15294330000E+03 0.  0.
<mgrwt>
<rscale>  0 0.14838069E+04</rscale>
<asrwt>0</asrwt>
<pdfrwt beam="1">  1        2 0.42312152E+00 0.15205016E+04</pdfrwt>
<pdfrwt beam="2">  1       -2 0.24531408E+00 0.15205016E+04</pdfrwt>
<totfact> 0.15936936E-01</totfact>
</mgrwt>
</event>
<event>
 4    1  0.2878104E-007  0.2860400E+04  0.7818608E-02  0.8290329E-01
         -2   -1    0    0    0  501 -0.00000000000E+00  0.00000000000E+00  0.29407126974E+04  0.29407126974E+04  0.25500000000E-02 0.  1.
          2   -1    0    0  501    0  0.00000000000E+00 -0.00000000000E+00 -0.34038967248E+04  0.34038967248E+04  0.25500000000E-02 0. -1.
    8880023    1    1    2    0    0  0.23152778916E+04 -0.15451746169E+04 -0.16640556777E+04  0.33092246549E+04  0.65864270000E+03 0.  0.
    8880022    1    1    2    0    0 -0.23152778916E+04  0.15451746169E+04  0.12008716503E+04  0.30353847673E+04  0.15294330000E+03 0.  0.
<mgrwt>
<rscale>  0 0.28420579E+04</rscale>
<asrwt>0</asrwt>
<pdfrwt beam="1">  1        2 0.52367642E+00 0.28603997E+04</pdfrwt>
<pdfrwt beam="2">  1       -2 0.45241734E+00 0.28603997E+04</pdfrwt>
<totfact> 0.25342512E-03</totfact>
</mgrwt>
</event>
<event>
 4    1  0.2878104E-007  0.9291326E+03  0.7818608E-02  0.9480796E-01
          2   -1    0    0  501    0  0.00000000000E+00  0.00000000000E+00  0.52809081273E+04  0.52809081273E+04  0.25500000000E-02 0. -1.
         -2   -1    0    0    0  501 -0.00000000000E+00 -0.00000000000E+00 -0.24065073136E+03  0.24065073137E+03  0.25500000000E-02 0.  1.
    8880023    1    1    2    0    0  0.39820259912E+03  0.52049198668E+03  0.79362518182E+03  0.12219363132E+04  0.65864270000E+03 0.  0.
    8880022    1    1    2    0    0 -0.39820259912E+03 -0.52049198668E+03  0.42466322141E+04  0.42996225454E+04  0.15294330000E+03 0.  0.
<mgrwt>
<rscale>  0 0.85714607E+03</rscale>
<asrwt>0</asrwt>
<pdfrwt beam="1">  1        2 0.81244729E+00 0.92913262E+03</pdfrwt>
<pdfrwt beam="2">  1       -2 0.37023195E-01 0.92913262E+03</pdfrwt>
<totfact> 0.11008749E-01</totfact>
</mgrwt>
</event>
<event>
 4    1  0.2878104E-007  0.1308614E+04  0.7818608E-02  0.9058157E-01
          2   -1    0    0  501    0  0.00000000000E+00  0.00000000000E+00  0.38434441957E+04  0.38434441957E+04  0.25500000000E-02 0. -1.
         -2   -1    0    0    0  501 -0.00000000000E+00 -0.00000000000E+00 -0.85878137707E+03  0.85878137708E+03  0.25500000000E-02 0.  1.
    8880023    1    1    2    0    0 -0.62977735536E+03 -0.93917013466E+03 -0.19587429582E+03  0.13231919759E+04  0.65864270000E+03 0.  0.
    8880022    1    1    2    0    0  0.62977735536E+03  0.93917013466E+03  0.31805371144E+04  0.33790335968E+04  0.15294330000E+03 0.  0.
<mgrwt>
<rscale>  0 0.12645534E+04</rscale>
<asrwt>0</asrwt>
<pdfrwt beam="1">  1        2 0.59129911E+00 0.13086139E+04</pdfrwt>
<pdfrwt beam="2">  1       -2 0.13212021E+00 0.13086139E+04</pdfrwt>
<totfact> 0.18726668E-01</totfact>
</mgrwt>
</event>
<event>
 4    1  0.2878104E-007  0.1428902E+04  0.7818608E-02  0.8961544E-01
          2   -1    0    0  501    0  0.00000000000E+00  0.00000000000E+00  0.39750163825E+04  0.39750163825E+04  0.25500000000E-02 0. -1.
         -2   -1    0    0    0  501 -0.00000000000E+00 -0.00000000000E+00 -0.11508321008E+04  0.11508321008E+04  0.25500000000E-02 0.  1.
    8880023    1    1    2    0    0  0.12673244270E+04  0.42886147825E+02 -0.53986928062E+03  0.15274879611E+04  0.65864270000E+03 0.  1.
    8880022    1    1    2    0    0 -0.12673244270E+04 -0.42886147825E+02  0.33640535623E+04  0.35983605222E+04  0.15294330000E+03 0.  0.
<mgrwt>
<rscale>  0 0.13893765E+04</rscale>
<asrwt>0</asrwt>
<pdfrwt beam="1">  1        2 0.61154098E+00 0.14289019E+04</pdfrwt>
<pdfrwt beam="2">  1       -2 0.17705109E+00 0.14289019E+04</pdfrwt>
<totfact> 0.65917482E-02</totfact>
</mgrwt>
</event>
<event>
 4    1  0.2878104E-007  0.9755422E+03  0.7818608E-02  0.9414279E-01
          2   -1    0    0  501    0  0.00000000000E+00  0.00000000000E+00  0.24304866368E+04  0.24304866368E+04  0.25500000000E-02 0. -1.
         -2   -1    0    0    0  501 -0.00000000000E+00 -0.00000000000E+00 -0.38698585081E+03  0.38698585082E+03  0.25500000000E-02 0.  1.
    8880023    1    1    2    0    0 -0.71586630312E+03 -0.73537789387E+02  0.47508004228E+03  0.10850730958E+04  0.65864270000E+03 0.  1.
    8880022    1    1    2    0    0  0.71586630312E+03  0.73537789387E+02  0.15684207437E+04  0.17323993918E+04  0.15294330000E+03 0. -1.
<mgrwt>
<rscale>  0 0.90909797E+03</rscale>
<asrwt>0</asrwt>
<pdfrwt beam="1">  1        2 0.37392102E+00 0.97554220E+03</pdfrwt>
<pdfrwt beam="2">  1       -2 0.59536285E-01 0.97554220E+03</pdfrwt>
<totfact> 0.10189008E+01</totfact>
</mgrwt>
</event>
<event>
 4    1  0.2878104E-007  0.1223722E+04  0.7818608E-02  0.9134400E-01
         -2   -1    0    0    0  501 -0.00000000000E+00  0.00000000000E+00  0.15376049824E+04  0.15376049824E+04  0.25500000000E-02 0.  1.
          2   -1    0    0  501    0  0.00000000000E+00 -0.00000000000E+00 -0.20963426537E+04  0.20963426537E+04  0.25500000000E-02 0. -1.
    8880023    1    1    2    0    0  0.96575978263E+03 -0.36193143895E+03 -0.16957990447E+04  0.20912271351E+04  0.65864270000E+03 0.  0.
    8880022    1    1    2    0    0 -0.96575978263E+03  0.36193143895E+03  0.11370613734E+04  0.15427205010E+04  0.15294330000E+03 0.  0.
<mgrwt>
<rscale>  0 0.11756953E+04</rscale>
<asrwt>0</asrwt>
<pdfrwt beam="1">  1        2 0.32251426E+00 0.12237224E+04</pdfrwt>
<pdfrwt beam="2">  1       -2 0.23655461E+00 0.12237224E+04</pdfrwt>
<totfact> 0.44546298E-01</totfact>
</mgrwt>
</event>
<event>
 4    1  0.2878104E-007  0.7652664E+03  0.7818608E-02  0.9791659E-01
          2   -1    0    0  501    0  0.00000000000E+00  0.00000000000E+00  0.54585966434E+03  0.54585966435E+03  0.25500000000E-02 0. -1.
         -2   -1    0    0    0  501 -0.00000000000E+00 -0.00000000000E+00 -0.66303665935E+03  0.66303665936E+03  0.25500000000E-02 0.  1.
    8880023    1    1    2    0    0  0.30653669425E+03  0.24053644067E+03  0.28194565536E+02  0.76578565147E+03  0.65864270000E+03 0.  1.
    8880022    1    1    2    0    0 -0.30653669425E+03 -0.24053644067E+03 -0.14537156055E+03  0.44311067223E+03  0.15294330000E+03 0. -1.
<mgrwt>
<rscale>  0 0.65812086E+03</rscale>
<asrwt>0</asrwt>
<pdfrwt beam="1">  1        2 0.83978410E-01 0.76526644E+03</pdfrwt>
<pdfrwt beam="2">  1       -2 0.10200564E+00 0.76526644E+03</pdfrwt>
<totfact> 0.44243434E+01</totfact>
</mgrwt>
</event>
<event>
 4    1  0.2878104E-007  0.9116144E+03  0.7818608E-02  0.9507638E-01
         -2   -1    0    0    0  501 -0.00000000000E+00  0.00000000000E+00  0.98405532063E+03  0.98405532063E+03  0.25500000000E-02 0.  1.
          2   -1    0    0  501    0  0.00000000000E+00 -0.00000000000E+00 -0.12528682016E+04  0.12528682016E+04  0.25500000000E-02 0. -1.
    8880023    1    1    2    0    0 -0.62859085095E+03  0.45871231081E+02  0.64473645121E+03  0.11165688181E+04  0.65864270000E+03 0.  0.
    8880022    1    1    2    0    0  0.62859085095E+03 -0.45871231081E+02 -0.91354933217E+03  0.11203547041E+04  0.15294330000E+03 0.  0.
<mgrwt>
<rscale>  0 0.83723027E+03</rscale>
<asrwt>0</asrwt>
<pdfrwt beam="1">  1        2 0.19274896E+00 0.91161441E+03</pdfrwt>
<pdfrwt beam="2">  1       -2 0.15139313E+00 0.91161441E+03</pdfrwt>
<totfact> 0.51572229E+00</totfact>
</mgrwt>
</event>
<event>
 4    1  0.2878104E-007  0.6643465E+03  0.7818608E-02  0.1020088E+00
          2   -1    0    0  501    0  0.00000000000E+00  0.00000000000E+00  0.23964500606E+04  0.23964500607E+04  0.25500000000E-02 0. -1.
         -2   -1    0    0    0  501 -0.00000000000E+00 -0.00000000000E+00 -0.12155474008E+03  0.12155474011E+03  0.25500000000E-02 0.  1.
    8880023    1    1    2    0    0  0.47531381905E+01  0.86738155964E+02  0.22429073659E+04  0.23392284537E+04  0.65864270000E+03 0. -1.
    8880022    1    1    2    0    0 -0.47531381905E+01 -0.86738155964E+02  0.31987954634E+02  0.17877634709E+03  0.15294330000E+03 0.  0.
<mgrwt>
<rscale>  0 0.47654849E+03</rscale>
<asrwt>0</asrwt>
<pdfrwt beam="1">  1        2 0.36868461E+00 0.66434653E+03</pdfrwt>
<pdfrwt beam="2">  1       -2 0.18700730E-01 0.66434653E+03</pdfrwt>
<totfact> 0.10030223E+02</totfact>
</mgrwt>
</event>
<event>
 4    1  0.2878104E-007  0.1140386E+04  0.7818608E-02  0.9217369E-01
          2   -1    0    0  501    0  0.00000000000E+00  0.00000000000E+00  0.14160145001E+04  0.14160145001E+04  0.25500000000E-02 0. -1.
         -2   -1    0    0    0  501 -0.00000000000E+00 -0.00000000000E+00 -0.23133954364E+04  0.23133954364E+04  0.25500000000E-02 0.  1.
    8880023    1    1    2    0    0 -0.20193806875E+03  0.90878582962E+03 -0.19852263590E+04  0.22894550815E+04  0.65864270000E+03 0.  0.
    8880022    1    1    2    0    0  0.20193806875E+03 -0.90878582962E+03  0.10878454227E+04  0.14399548550E+04  0.15294330000E+03 0.  0.
<mgrwt>
<rscale>  0 0.10875933E+04</rscale>
<asrwt>0</asrwt>
<pdfrwt beam="1">  1        2 0.21784838E+00 0.11403863E+04</pdfrwt>
<pdfrwt beam="2">  1       -2 0.35590699E+00 0.11403863E+04</pdfrwt>
<totfact> 0.20019723E-01</totfact>
</mgrwt>
</event>
<event>
 4    1  0.2878104E-007  0.8509516E+03  0.7818608E-02  0.9609866E-01
         -2   -1    0    0    0  501 -0.00000000000E+00  0.00000000000E+00  0.62391331300E+03  0.62391331300E+03  0.25500000000E-02 0.  1.
          2   -1    0    0  501    0  0.00000000000E+00 -0.00000000000E+00 -0.98429254936E+03  0.98429254937E+03  0.25500000000E-02 0. -1.
    8880023    1    1    2    0    0 -0.53227824769E+03 -0.83596382853E+02  0.13363283432E+03  0.86138053662E+03  0.65864270000E+03 0.  0.
    8880022    1    1    2    0    0  0.53227824769E+03  0.83596382853E+02 -0.49401207069E+03  0.74682532575E+03  0.15294330000E+03 0.  0.
<mgrwt>
<rscale>  0 0.76646618E+03</rscale>
<asrwt>0</asrwt>
<pdfrwt beam="1">  1        2 0.15142962E+00 0.85095164E+03</pdfrwt>
<pdfrwt beam="2">  1       -2 0.95986664E-01 0.85095164E+03</pdfrwt>
<totfact> 0.23609732E+01</totfact>
</mgrwt>
</event>
<event>
 4    1  0.2878104E-007  0.1281008E+04  0.7818608E-02  0.9082137E-01
          2   -1    0    0  501    0  0.00000000000E+00  0.00000000000E+00  0.18829316561E+04  0.18829316561E+04  0.25500000000E-02 0. -1.
         -2   -1    0    0    0  501 -0.00000000000E+00 -0.00000000000E+00 -0.10559866374E+04  0.10559866374E+04  0.25500000000E-02 0.  1.
    8880023    1    1    2    0    0 -0.99263874355E+03 -0.47099778808E+03 -0.34354845645E+03  0.13262753635E+04  0.65864270000E+03 0.  1.
    8880022    1    1    2    0    0  0.99263874355E+03  0.47099778808E+03  0.11704934752E+04  0.16126429301E+04  0.15294330000E+03 0.  0.
<mgrwt>
<rscale>  0 0.12357390E+04</rscale>
<asrwt>0</asrwt>
<pdfrwt beam="1">  1        2 0.28968179E+00 0.12810077E+04</pdfrwt>
<pdfrwt beam="2">  1       -2 0.16245948E+00 0.12810077E+04</pdfrwt>
<totfact> 0.18064301E+00</totfact>
</mgrwt>
</event>
<event>
 4    1  0.2878104E-007  0.9363839E+03  0.7818608E-02  0.9469981E-01
          2   -1    0    0  501    0  0.00000000000E+00  0.00000000000E+00  0.98565311466E+03  0.98565311467E+03  0.25500000000E-02 0. -1.
         -2   -1    0    0    0  501 -0.00000000000E+00 -0.00000000000E+00 -0.25950211290E+04  0.25950211290E+04  0.25500000000E-02 0.  1.
    8880023    1    1    2    0    0 -0.14628331861E+03  0.64931184681E+03 -0.23760669527E+04  0.25539203303E+04  0.65864270000E+03 0.  0.
    8880022    1    1    2    0    0  0.14628331861E+03 -0.64931184681E+03  0.76669893829E+03  0.10267539134E+04  0.15294330000E+03 0.  0.
<mgrwt>
<rscale>  0 0.86533618E+03</rscale>
<asrwt>0</asrwt>
<pdfrwt beam="1">  1        2 0.15163894E+00 0.93638394E+03</pdfrwt>
<pdfrwt beam="2">  1       -2 0.39923402E+00 0.93638394E+03</pdfrwt>
<totfact> 0.19869344E-01</totfact>
</mgrwt>
</event>
<event>
 4    1  0.2878104E-007  0.7026349E+03  0.7818608E-02  0.9986441E-01
         -2   -1    0    0    0  501 -0.00000000000E+00  0.00000000000E+00  0.95290027358E+03  0.95290027359E+03  0.25500000000E-02 0.  1.
          2   -1    0    0  501    0  0.00000000000E+00 -0.00000000000E+00 -0.21024871940E+04  0.21024871940E+04  0.25500000000E-02 0. -1.
    8880023    1    1    2    0    0 -0.28272224187E+02 -0.24307673425E+03  0.81136418545E+03  0.10733162000E+04  0.65864270000E+03 0.  1.
    8880022    1    1    2    0    0  0.28272224187E+02  0.24307673425E+03 -0.19609511059E+04  0.19820712677E+04  0.15294330000E+03 0.  0.
<mgrwt>
<rscale>  0 0.56248780E+03</rscale>
<asrwt>0</asrwt>
<pdfrwt beam="1">  1        2 0.32345957E+00 0.70263491E+03</pdfrwt>
<pdfrwt beam="2">  1       -2 0.14660004E+00 0.70263491E+03</pdfrwt>
<totfact> 0.19580281E+00</totfact>
</mgrwt>
</event>
<event>
 4    1  0.2878104E-007  0.7717353E+03  0.7818608E-02  0.9775622E-01
         -2   -1    0    0    0  501 -0.00000000000E+00  0.00000000000E+00  0.45618546036E+03  0.45618546037E+03  0.25500000000E-02 0.  1.
          2   -1    0    0  501    0  0.00000000000E+00 -0.00000000000E+00 -0.10106445745E+04  0.10106445745E+04  0.25500000000E-02 0. -1.
    8880023    1    1    2    0    0  0.20319640588E+03  0.34709708363E+03 -0.86268623186E+01  0.77178351488E+03  0.65864270000E+03 0.  0.
    8880022    1    1    2    0    0 -0.20319640588E+03 -0.34709708363E+03 -0.54583225186E+03  0.69504652004E+03  0.15294330000E+03 0.  0.
<mgrwt>
<rscale>  0 0.66687393E+03</rscale>
<asrwt>0</asrwt>
<pdfrwt beam="1">  1        2 0.15548378E+00 0.77173530E+03</pdfrwt>
<pdfrwt beam="2">  1       -2 0.70182378E-01 0.77173530E+03</pdfrwt>
<totfact> 0.46462203E+01</totfact>
</mgrwt>
</event>
<event>
 4    1  0.2878104E-007  0.1600248E+04  0.7818608E-02  0.8841910E-01
          2   -1    0    0  501    0  0.00000000000E+00  0.00000000000E+00  0.26391313439E+04  0.26391313439E+04  0.25500000000E-02 0. -1.
         -2   -1    0    0    0  501 -0.00000000000E+00 -0.00000000000E+00 -0.10812547088E+04  0.10812547088E+04  0.25500000000E-02 0.  1.
    8880023    1    1    2    0    0  0.43871992173E+03 -0.13908663305E+04  0.26980183273E+02  0.16004756966E+04  0.65864270000E+03 0.  0.
    8880022    1    1    2    0    0 -0.43871992173E+03  0.13908663305E+04  0.15308964518E+04  0.21199103561E+04  0.15294330000E+03 0.  0.
<mgrwt>
<rscale>  0 0.15656866E+04</rscale>
<asrwt>0</asrwt>
<pdfrwt beam="1">  1        2 0.40602021E+00 0.16002483E+04</pdfrwt>
<pdfrwt beam="2">  1       -2 0.16634688E+00 0.16002483E+04</pdfrwt>
<totfact> 0.60988149E-01</totfact>
</mgrwt>
</event>
<event>
 4    1  0.2878104E-007  0.7542835E+03  0.7818608E-02  0.9820138E-01
         -2   -1    0    0    0  501 -0.00000000000E+00  0.00000000000E+00  0.10190246891E+04  0.10190246891E+04  0.25500000000E-02 0.  1.
          2   -1    0    0  501    0  0.00000000000E+00 -0.00000000000E+00 -0.65975497655E+03  0.65975497655E+03  0.25500000000E-02 0. -1.
    8880023    1    1    2    0    0 -0.13562957964E+03  0.34166941291E+03  0.78996809548E+03  0.10922422665E+04  0.65864270000E+03 0.  1.
    8880022    1    1    2    0    0  0.13562957964E+03 -0.34166941291E+03 -0.43069838290E+03  0.58653739918E+03  0.15294330000E+03 0.  0.
<mgrwt>
<rscale>  0 0.64292924E+03</rscale>
<asrwt>0</asrwt>
<pdfrwt beam="1">  1        2 0.10150077E+00 0.75428349E+03</pdfrwt>
<pdfrwt beam="2">  1       -2 0.15677303E+00 0.75428349E+03</pdfrwt>
<totfact> 0.11926561E+01</totfact>
</mgrwt>
</event>
<event>
 4    1  0.2878104E-007  0.7728201E+03  0.7818608E-02  0.9772981E-01
          2   -1    0    0  501    0  0.00000000000E+00  0.00000000000E+00  0.31101925667E+04  0.31101925667E+04  0.25500000000E-02 0. -1.
         -2   -1    0    0    0  501 -0.00000000000E+00 -0.00000000000E+00 -0.13024938462E+04  0.13024938462E+04  0.25500000000E-02 0.  1.
    8880023    1    1    2    0    0 -0.65066003446E+02 -0.39900768466E+03 -0.11708685002E+04  0.14029198010E+04  0.65864270000E+03 0.  1.
    8880022    1    1    2    0    0  0.65066003446E+02  0.39900768466E+03  0.29785672206E+04  0.30097666119E+04  0.15294330000E+03 0.  0.
<mgrwt>
<rscale>  0 0.66832903E+03</rscale>
<asrwt>0</asrwt>
<pdfrwt beam="1">  1        2 0.47849116E+00 0.77282011E+03</pdfrwt>
<pdfrwt beam="2">  1       -2 0.20038367E+00 0.77282011E+03</pdfrwt>
<totfact> 0.21050238E-01</totfact>
</mgrwt>
</event>
<event>
 4    1  0.2878104E-007  0.8606683E+03  0.7818608E-02  0.9592376E-01
          2   -1    0    0  501    0  0.00000000000E+00  0.00000000000E+00  0.96450281523E+03  0.96450281524E+03  0.25500000000E-02 0. -1.
         -2   -1    0    0    0  501 -0.00000000000E+00 -0.00000000000E+00 -0.14232776376E+04  0.14232776376E+04  0.25500000000E-02 0.  1.
    8880023    1    1    2    0    0  0.17552734834E+03  0.52548055111E+03 -0.11831588624E+04  0.14630839892E+04  0.65864270000E+03 0.  0.
    8880022    1    1    2    0    0 -0.17552734834E+03 -0.52548055111E+03  0.72438403995E+03  0.92469646369E+03  0.15294330000E+03 0.  0.
<mgrwt>
<rscale>  0 0.77802860E+03</rscale>
<asrwt>0</asrwt>
<pdfrwt beam="1">  1        2 0.14838505E+00 0.86066827E+03</pdfrwt>
<pdfrwt beam="2">  1       -2 0.21896579E+00 0.86066827E+03</pdfrwt>
<totfact> 0.26939753E+00</totfact>
</mgrwt>
</event>
<event>
 4    1  0.2878104E-007  0.9041796E+03  0.7818608E-02  0.9519355E-01
          2   -1    0    0  501    0  0.00000000000E+00  0.00000000000E+00  0.11169711678E+04  0.11169711678E+04  0.25500000000E-02 0. -1.
         -2   -1    0    0    0  501 -0.00000000000E+00 -0.00000000000E+00 -0.62300864491E+03  0.62300864492E+03  0.25500000000E-02 0.  1.
    8880023    1    1    2    0    0 -0.32040028411E+03 -0.53016425615E+03 -0.44214999544E+02  0.90525999194E+03  0.65864270000E+03 0.  1.
    8880022    1    1    2    0    0  0.32040028411E+03  0.53016425615E+03  0.53817752246E+03  0.83471982081E+03  0.15294330000E+03 0.  0.
<mgrwt>
<rscale>  0 0.82871768E+03</rscale>
<asrwt>0</asrwt>
<pdfrwt beam="1">  1        2 0.17184172E+00 0.90417957E+03</pdfrwt>
<pdfrwt beam="2">  1       -2 0.95847484E-01 0.90417957E+03</pdfrwt>
<totfact> 0.19463249E+01</totfact>
</mgrwt>
</event>
<event>
 4    1  0.2878104E-007  0.7666818E+03  0.7818608E-02  0.9788106E-01
         -2   -1    0    0    0  501 -0.00000000000E+00  0.00000000000E+00  0.10916897733E+04  0.10916897733E+04  0.25500000000E-02 0.  1.
          2   -1    0    0  501    0  0.00000000000E+00 -0.00000000000E+00 -0.93099176448E+03  0.93099176448E+03  0.25500000000E-02 0. -1.
    8880023    1    1    2    0    0 -0.90612791094E+02  0.38181150740E+03  0.89357689835E+03  0.11774041722E+04  0.65864270000E+03 0.  1.
    8880022    1    1    2    0    0  0.90612791094E+02 -0.38181150740E+03 -0.73287888953E+03  0.84527736562E+03  0.15294330000E+03 0.  0.
<mgrwt>
<rscale>  0 0.66004744E+03</rscale>
<asrwt>0</asrwt>
<pdfrwt beam="1">  1        2 0.14322950E+00 0.76668175E+03</pdfrwt>
<pdfrwt beam="2">  1       -2 0.16795227E+00 0.76668175E+03</pdfrwt>
<totfact> 0.62657855E+00</totfact>
</mgrwt>
</event>
<event>
 4    1  0.2878104E-007  0.6816967E+03  0.7818608E-02  0.1008380E+00
         -2   -1    0    0    0  501 -0.00000000000E+00  0.00000000000E+00  0.17725640852E+03  0.17725640853E+03  0.25500000000E-02 0.  1.
          2   -1    0    0  501    0  0.00000000000E+00 -0.00000000000E+00 -0.33580922907E+04  0.33580922907E+04  0.25500000000E-02 0. -1.
    8880023    1    1    2    0    0 -0.61284788201E+02 -0.16475539994E+03 -0.50247486015E+03  0.84687151235E+03  0.65864270000E+03 0.  1.
    8880022    1    1    2    0    0  0.61284788201E+02  0.16475539994E+03 -0.26783610220E+04  0.26884771869E+04  0.15294330000E+03 0.  0.
<mgrwt>
<rscale>  0 0.52123694E+03</rscale>
<asrwt>0</asrwt>
<pdfrwt beam="1">  1        2 0.51662954E+00 0.68169669E+03</pdfrwt>
<pdfrwt beam="2">  1       -2 0.27270219E-01 0.68169669E+03</pdfrwt>
<totfact> 0.13540226E+01</totfact>
</mgrwt>
</event>
<event>
 4    1  0.2878104E-007  0.7134271E+03  0.7818608E-02  0.9945488E-01
          2   -1    0    0  501    0  0.00000000000E+00  0.00000000000E+00  0.17231452794E+04  0.17231452794E+04  0.25500000000E-02 0. -1.
         -2   -1    0    0    0  501 -0.00000000000E+00 -0.00000000000E+00 -0.18588165169E+03  0.18588165171E+03  0.25500000000E-02 0.  1.
    8880023    1    1    2    0    0  0.24082253789E+03  0.13104395991E+03  0.63999503853E+03  0.95842155119E+03  0.65864270000E+03 0.  1.
    8880022    1    1    2    0    0 -0.24082253789E+03 -0.13104395991E+03  0.89726858915E+03  0.95060537988E+03  0.15294330000E+03 0.  0.
<mgrwt>
<rscale>  0 0.58106485E+03</rscale>
<asrwt>0</asrwt>
<pdfrwt beam="1">  1        2 0.26509927E+00 0.71342710E+03</pdfrwt>
<pdfrwt beam="2">  1       -2 0.28597178E-01 0.71342710E+03</pdfrwt>
<totfact> 0.10930230E+02</totfact>
</mgrwt>
</event>
<event>
 4    1  0.2878104E-007  0.7841715E+03  0.7818608E-02  0.9746128E-01
          2   -1    0    0  501    0  0.00000000000E+00  0.00000000000E+00  0.28950264957E+04  0.28950264957E+04  0.25500000000E-02 0. -1.
         -2   -1    0    0    0  501 -0.00000000000E+00 -0.00000000000E+00 -0.11953445405E+04  0.11953445405E+04  0.25500000000E-02 0.  1.
    8880023    1    1    2    0    0  0.28054153676E+03 -0.32001746336E+03 -0.10462204412E+04  0.13074793109E+04  0.65864270000E+03 0.  1.
    8880022    1    1    2    0    0 -0.28054153676E+03  0.32001746336E+03  0.27459023964E+04  0.27828917253E+04  0.15294330000E+03 0.  0.
<mgrwt>
<rscale>  0 0.68335543E+03</rscale>
<asrwt>0</asrwt>
<pdfrwt beam="1">  1        2 0.44538869E+00 0.78417150E+03</pdfrwt>
<pdfrwt beam="2">  1       -2 0.18389916E+00 0.78417150E+03</pdfrwt>
<totfact> 0.36587466E-01</totfact>
</mgrwt>
</event>
<event>
 4    1  0.3289914E-007  0.1093419E+04  0.7818608E-02  0.9268419E-01
         -2   -1    0    0    0  501 -0.00000000000E+00  0.00000000000E+00  0.13908320699E+04  0.13908320699E+04  0.25500000000E-02 0.  1.
          2   -1    0    0  501    0  0.00000000000E+00 -0.00000000000E+00 -0.21918281361E+04  0.21918281361E+04  0.25500000000E-02 0. -1.
    8880023    1    1    2    0    0  0.87229676477E+03 -0.29191934476E+02  0.10591260267E+04  0.15222719736E+04  0.65864270000E+03 0.  1.
    8880022    1    1    2    0    0 -0.87229676477E+03  0.29191934476E+02 -0.18601220929E+04  0.20603882324E+04  0.15294330000E+03 0.  0.
<mgrwt>
<rscale>  0 0.10374295E+04</rscale>
<asrwt>0</asrwt>
<pdfrwt beam="1">  1        2 0.33720433E+00 0.10934185E+04</pdfrwt>
<pdfrwt beam="2">  1       -2 0.21397417E+00 0.10934185E+04</pdfrwt>
<totfact> 0.55656364E-01</totfact>
</mgrwt>
</event>
<event>
 4    1  0.2878104E-007  0.8581721E+03  0.7818608E-02  0.9596823E-01
         -2   -1    0    0    0  501 -0.00000000000E+00  0.00000000000E+00  0.64991802203E+03  0.64991802203E+03  0.25500000000E-02 0.  1.
          2   -1    0    0  501    0  0.00000000000E+00 -0.00000000000E+00 -0.28482222011E+04  0.28482222011E+04  0.25500000000E-02 0. -1.
    8880023    1    1    2    0    0  0.12577089287E+03  0.53556591871E+03  0.32001544793E+03  0.91589806417E+03  0.65864270000E+03 0.  1.
    8880022    1    1    2    0    0 -0.12577089287E+03 -0.53556591871E+03 -0.25183196269E+04  0.25822421589E+04  0.15294330000E+03 0.  0.
<mgrwt>
<rscale>  0 0.77506798E+03</rscale>
<asrwt>0</asrwt>
<pdfrwt beam="1">  1        2 0.43818802E+00 0.85817211E+03</pdfrwt>
<pdfrwt beam="2">  1       -2 0.99987389E-01 0.85817211E+03</pdfrwt>
<totfact> 0.18575233E+00</totfact>
</mgrwt>
</event>
<event>
 4    1  0.2878104E-007  0.1087900E+04  0.7818608E-02  0.9274648E-01
          2   -1    0    0  501    0  0.00000000000E+00  0.00000000000E+00  0.90731331138E+03  0.90731331138E+03  0.25500000000E-02 0. -1.
         -2   -1    0    0    0  501 -0.00000000000E+00 -0.00000000000E+00 -0.11441881815E+04  0.11441881815E+04  0.25500000000E-02 0.  1.
    8880023    1    1    2    0    0 -0.85912632169E+03 -0.10779250949E+03  0.13613715302E+03  0.10963853303E+04  0.65864270000E+03 0.  0.
    8880022    1    1    2    0    0  0.85912632169E+03  0.10779250949E+03 -0.37301202316E+03  0.95511616265E+03  0.15294330000E+03 0.  0.
<mgrwt>
<rscale>  0 0.10315065E+04</rscale>
<asrwt>0</asrwt>
<pdfrwt beam="1">  1        2 0.13958666E+00 0.10879005E+04</pdfrwt>
<pdfrwt beam="2">  1       -2 0.17602895E+00 0.10879005E+04</pdfrwt>
<totfact> 0.55088672E+00</totfact>
</mgrwt>
</event>
<event>
 4    1  0.2878104E-007  0.9421014E+03  0.7818608E-02  0.9461571E-01
         -2   -1    0    0    0  501 -0.00000000000E+00  0.00000000000E+00  0.82766591590E+03  0.82766591590E+03  0.25500000000E-02 0.  1.
          2   -1    0    0  501    0  0.00000000000E+00 -0.00000000000E+00 -0.24699155529E+04  0.24699155529E+04  0.25500000000E-02 0. -1.
    8880023    1    1    2    0    0 -0.16521570026E+03  0.65303031366E+03  0.48597924171E+03  0.10600617189E+04  0.65864270000E+03 0.  1.
    8880022    1    1    2    0    0  0.16521570026E+03 -0.65303031366E+03 -0.21282288787E+04  0.22375197500E+04  0.15294330000E+03 0.  0.
<mgrwt>
<rscale>  0 0.87177329E+03</rscale>
<asrwt>0</asrwt>
<pdfrwt beam="1">  1        2 0.37998701E+00 0.94210139E+03</pdfrwt>
<pdfrwt beam="2">  1       -2 0.12733322E+00 0.94210139E+03</pdfrwt>
<totfact> 0.16834026E+00</totfact>
</mgrwt>
</event>
<event>
 4    1  0.2878104E-007  0.1199688E+04  0.7818608E-02  0.9157426E-01
         -2   -1    0    0    0  501 -0.00000000000E+00  0.00000000000E+00  0.13491496968E+04  0.13491496968E+04  0.25500000000E-02 0.  1.
          2   -1    0    0  501    0  0.00000000000E+00 -0.00000000000E+00 -0.17553193859E+04  0.17553193859E+04  0.25500000000E-02 0. -1.
    8880023    1    1    2    0    0 -0.33749057296E+03  0.94421425218E+03  0.86441640553E+03  0.14786704735E+04  0.65864270000E+03 0.  0.
    8880022    1    1    2    0    0  0.33749057296E+03 -0.94421425218E+03 -0.12705860946E+04  0.16257986092E+04  0.15294330000E+03 0.  0.
<mgrwt>
<rscale>  0 0.11503877E+04</rscale>
<asrwt>0</asrwt>
<pdfrwt beam="1">  1        2 0.27004914E+00 0.11996877E+04</pdfrwt>
<pdfrwt beam="2">  1       -2 0.20756149E+00 0.11996877E+04</pdfrwt>
<totfact> 0.10526536E+00</totfact>
</mgrwt>
</event>
<event>
 4    1  0.2878104E-007  0.1359257E+04  0.7818608E-02  0.9016006E-01
          2   -1    0    0  501    0  0.00000000000E+00  0.00000000000E+00  0.36047053728E+04  0.36047053728E+04  0.25500000000E-02 0. -1.
         -2   -1    0    0    0  501 -0.00000000000E+00 -0.00000000000E+00 -0.92214859461E+03  0.92214859461E+03  0.25500000000E-02 0.  1.
    8880023    1    1    2    0    0  0.13072641002E+02  0.11889484511E+04 -0.22876137027E+03  0.13783726942E+04  0.65864270000E+03 0.  0.
    8880022    1    1    2    0    0 -0.13072641002E+02 -0.11889484511E+04  0.29113181484E+04  0.31484812732E+04  0.15294330000E+03 0.  0.
<mgrwt>
<rscale>  0 0.13172383E+04</rscale>
<asrwt>0</asrwt>
<pdfrwt beam="1">  1        2 0.55457005E+00 0.13592570E+04</pdfrwt>
<pdfrwt beam="2">  1       -2 0.14186902E+00 0.13592570E+04</pdfrwt>
<totfact> 0.23153142E-01</totfact>
</mgrwt>
</event>
<event>
 4    1  0.2878104E-007  0.9078164E+03  0.7818608E-02  0.9513598E-01
          2   -1    0    0  501    0  0.00000000000E+00  0.00000000000E+00  0.25825999056E+04  0.25825999056E+04  0.25500000000E-02 0. -1.
         -2   -1    0    0    0  501 -0.00000000000E+00 -0.00000000000E+00 -0.12347893958E+04  0.12347893958E+04  0.25500000000E-02 0.  1.
    8880023    1    1    2    0    0 -0.59741382119E+03  0.18280350252E+03 -0.10190032267E+04  0.13647337383E+04  0.65864270000E+03 0.  1.
    8880022    1    1    2    0    0  0.59741382119E+03 -0.18280350252E+03  0.23668137365E+04  0.24526555630E+04  0.15294330000E+03 0.  0.
<mgrwt>
<rscale>  0 0.83288643E+03</rscale>
<asrwt>0</asrwt>
<pdfrwt beam="1">  1        2 0.39732306E+00 0.90781639E+03</pdfrwt>
<pdfrwt beam="2">  1       -2 0.18996760E+00 0.90781639E+03</pdfrwt>
<totfact> 0.49514218E-01</totfact>
</mgrwt>
</event>
<event>
 4    1  0.2878104E-007  0.1333771E+04  0.7818608E-02  0.9036932E-01
          2   -1    0    0  501    0  0.00000000000E+00  0.00000000000E+00  0.13202715041E+04  0.13202715041E+04  0.25500000000E-02 0. -1.
         -2   -1    0    0    0  501 -0.00000000000E+00 -0.00000000000E+00 -0.17479036168E+04  0.17479036168E+04  0.25500000000E-02 0.  1.
    8880023    1    1    2    0    0 -0.10725452476E+04 -0.44134062925E+03 -0.10911731316E+04  0.17232538608E+04  0.65864270000E+03 0.  0.
    8880022    1    1    2    0    0  0.10725452476E+04  0.44134062925E+03  0.66354101883E+03  0.13449212601E+04  0.15294330000E+03 0.  0.
<mgrwt>
<rscale>  0 0.12907514E+04</rscale>
<asrwt>0</asrwt>
<pdfrwt beam="1">  1        2 0.20311869E+00 0.13337710E+04</pdfrwt>
<pdfrwt beam="2">  1       -2 0.26890825E+00 0.13337710E+04</pdfrwt>
<totfact> 0.75899320E-01</totfact>
</mgrwt>
</event>
<event>
 4    1  0.2878104E-007  0.1478979E+04  0.7818608E-02  0.8924624E-01
         -2   -1    0    0    0  501 -0.00000000000E+00  0.00000000000E+00  0.22611837932E+04  0.22611837932E+04  0.25500000000E-02 0.  1.
          2   -1    0    0  501    0  0.00000000000E+00 -0.00000000000E+00 -0.19417223748E+04  0.19417223748E+04  0.25500000000E-02 0. -1.
    8880023    1    1    2    0    0 -0.13222954043E+04  0.71448876215E+02 -0.13937222108E+04  0.20322012414E+04  0.65864270000E+03 0. -1.
    8880022    1    1    2    0    0  0.13222954043E+04 -0.71448876215E+02  0.17131836292E+04  0.21707049267E+04  0.15294330000E+03 0.  0.
<mgrwt>
<rscale>  0 0.14410577E+04</rscale>
<asrwt>0</asrwt>
<pdfrwt beam="1">  1        2 0.29872652E+00 0.14789795E+04</pdfrwt>
<pdfrwt beam="2">  1       -2 0.34787443E+00 0.14789795E+04</pdfrwt>
<totfact> 0.10880844E-01</totfact>
</mgrwt>
</event>
<event>
 4    1  0.2878104E-007  0.1156946E+04  0.7818608E-02  0.9200154E-01
          2   -1    0    0  501    0  0.00000000000E+00  0.00000000000E+00  0.11531577488E+04  0.11531577488E+04  0.25500000000E-02 0. -1.
         -2   -1    0    0    0  501 -0.00000000000E+00 -0.00000000000E+00 -0.23354905680E+04  0.23354905680E+04  0.25500000000E-02 0.  1.
    8880023    1    1    2    0    0  0.72233696588E+03 -0.61882483251E+03 -0.19428628078E+04  0.22612476560E+04  0.65864270000E+03 0.  0.
    8880022    1    1    2    0    0 -0.72233696588E+03  0.61882483251E+03  0.76052998857E+03  0.12274006608E+04  0.15294330000E+03 0.  0.
<mgrwt>
<rscale>  0 0.11051842E+04</rscale>
<asrwt>0</asrwt>
<pdfrwt beam="1">  1        2 0.17740888E+00 0.11569464E+04</pdfrwt>
<pdfrwt beam="2">  1       -2 0.35930624E+00 0.11569464E+04</pdfrwt>
<totfact> 0.27136898E-01</totfact>
</mgrwt>
</event>
<event>
 4    1  0.2878104E-007  0.7168779E+03  0.7818608E-02  0.9933295E-01
         -2   -1    0    0    0  501 -0.00000000000E+00  0.00000000000E+00  0.58361960517E+03  0.58361960517E+03  0.25500000000E-02 0.  1.
          2   -1    0    0  501    0  0.00000000000E+00 -0.00000000000E+00 -0.13739707439E+04  0.13739707439E+04  0.25500000000E-02 0. -1.
    8880023    1    1    2    0    0 -0.23803728149E+03 -0.15310782371E+03  0.33201352663E+03  0.79002970906E+03  0.65864270000E+03 0.  1.
    8880022    1    1    2    0    0  0.23803728149E+03  0.15310782371E+03 -0.11223646654E+04  0.11675606401E+04  0.15294330000E+03 0.  0.
<mgrwt>
<rscale>  0 0.58674452E+03</rscale>
<asrwt>0</asrwt>
<pdfrwt beam="1">  1        2 0.21138011E+00 0.71687792E+03</pdfrwt>
<pdfrwt beam="2">  1       -2 0.89787632E-01 0.71687792E+03</pdfrwt>
<totfact> 0.16332146E+01</totfact>
</mgrwt>
</event>
<event>
 4    1  0.2878104E-007  0.8793152E+03  0.7818608E-02  0.9560088E-01
          2   -1    0    0  501    0  0.00000000000E+00  0.00000000000E+00  0.26999260959E+04  0.26999260959E+04  0.25500000000E-02 0. -1.
         -2   -1    0    0    0  501 -0.00000000000E+00 -0.00000000000E+00 -0.64941005546E+03  0.64941005546E+03  0.25500000000E-02 0.  1.
    8880023    1    1    2    0    0  0.56712626719E+03 -0.13323966370E+03 -0.29518649302E+03  0.92753990903E+03  0.65864270000E+03 0.  0.
    8880022    1    1    2    0    0 -0.56712626719E+03  0.13323966370E+03  0.23457025335E+04  0.24217962423E+04  0.15294330000E+03 0.  0.
<mgrwt>
<rscale>  0 0.79995094E+03</rscale>
<asrwt>0</asrwt>
<pdfrwt beam="1">  1        2 0.41537325E+00 0.87931520E+03</pdfrwt>
<pdfrwt beam="2">  1       -2 0.99909239E-01 0.87931520E+03</pdfrwt>
<totfact> 0.22689431E+00</totfact>
</mgrwt>
</event>
<event>
 4    1  0.2878104E-007  0.1170976E+04  0.7818608E-02  0.9185865E-01
          2   -1    0    0  501    0  0.00000000000E+00  0.00000000000E+00  0.14838837788E+04  0.14838837788E+04  0.25500000000E-02 0. -1.
         -2   -1    0    0    0  501 -0.00000000000E+00 -0.00000000000E+00 -0.10242637030E+04  0.10242637030E+04  0.25500000000E-02 0.  1.
    8880023    1    1    2    0    0  0.61836932300E+03  0.74497886824E+03 -0.36572277335E+03  0.12267589360E+04  0.65864270000E+03 0.  0.
    8880022    1    1    2    0    0 -0.61836932300E+03 -0.74497886824E+03  0.82534284912E+03  0.12813885458E+04  0.15294330000E+03 0.  0.
<mgrwt>
<rscale>  0 0.11200519E+04</rscale>
<asrwt>0</asrwt>
<pdfrwt beam="1">  1        2 0.22828981E+00 0.11709758E+04</pdfrwt>
<pdfrwt beam="2">  1       -2 0.15757903E+00 0.11709758E+04</pdfrwt>
<totfact> 0.33160292E+00</totfact>
</mgrwt>
</event>
<event>
 4    1  0.2878104E-007  0.1046021E+04  0.7818608E-02  0.9323681E-01
          2   -1    0    0  501    0  0.00000000000E+00  0.00000000000E+00  0.12418661663E+04  0.12418661663E+04  0.25500000000E-02 0. -1.
         -2   -1    0    0    0  501 -0.00000000000E+00 -0.00000000000E+00 -0.10259984283E+04  0.10259984283E+04  0.25500000000E-02 0.  1.
    8880023    1    1    2    0    0  0.81231998757E+03 -0.22021528965E+02 -0.51350390325E+03  0.11652661391E+04  0.65864270000E+03 0.  0.
    8880022    1    1    2    0    0 -0.81231998757E+03  0.22021528965E+02  0.72937164127E+03  0.11025984555E+04  0.15294330000E+03 0.  0.
<mgrwt>
<rscale>  0 0.98631708E+03</rscale>
<asrwt>0</asrwt>
<pdfrwt beam="1">  1        2 0.19105633E+00 0.10460205E+04</pdfrwt>
<pdfrwt beam="2">  1       -2 0.15784591E+00 0.10460205E+04</pdfrwt>
<totfact> 0.46113309E+00</totfact>
</mgrwt>
</event>
<event>
 4    1  0.2878104E-007  0.6756432E+03  0.7818608E-02  0.1011904E+00
         -2   -1    0    0    0  501 -0.00000000000E+00  0.00000000000E+00  0.63419846122E+03  0.63419846123E+03  0.25500000000E-02 0.  1.
          2   -1    0    0  501    0  0.00000000000E+00 -0.00000000000E+00 -0.11366976530E+04  0.11366976530E+04  0.25500000000E-02 0. -1.
    8880023    1    1    2    0    0 -0.49670629543E+02  0.14218405319E+03  0.43867050032E+03  0.80555911672E+03  0.65864270000E+03 0.  0.
    8880022    1    1    2    0    0  0.49670629543E+02 -0.14218405319E+03 -0.94116969206E+03  0.96533699747E+03  0.15294330000E+03 0.  0.
<mgrwt>
<rscale>  0 0.50724919E+03</rscale>
<asrwt>0</asrwt>
<pdfrwt beam="1">  1        2 0.17487656E+00 0.67564316E+03</pdfrwt>
<pdfrwt beam="2">  1       -2 0.97568994E-01 0.67564316E+03</pdfrwt>
<totfact> 0.18601034E+01</totfact>
</mgrwt>
</event>
<event>
 4    1  0.2878104E-007  0.7242626E+03  0.7818608E-02  0.9908418E-01
          2   -1    0    0  501    0  0.00000000000E+00  0.00000000000E+00  0.20620410246E+04  0.20620410246E+04  0.25500000000E-02 0. -1.
         -2   -1    0    0    0  501 -0.00000000000E+00 -0.00000000000E+00 -0.14184061706E+03  0.14184061708E+03  0.25500000000E-02 0.  1.
    8880023    1    1    2    0    0 -0.12263849781E+01  0.30123846342E+03  0.14915864794E+04  0.16581274220E+04  0.65864270000E+03 0. -1.
    8880022    1    1    2    0    0  0.12263849781E+01 -0.30123846342E+03  0.42861392813E+03  0.54575421965E+03  0.15294330000E+03 0.  1.
<mgrwt>
<rscale>  0 0.59855039E+03</rscale>
<asrwt>0</asrwt>
<pdfrwt beam="1">  1        2 0.31723705E+00 0.72426261E+03</pdfrwt>
<pdfrwt beam="2">  1       -2 0.21821636E-01 0.72426261E+03</pdfrwt>
<totfact> 0.11622770E+02</totfact>
</mgrwt>
</event>
<event>
 4    1  0.2878104E-007  0.1136165E+04  0.7818608E-02  0.9221820E-01
         -2   -1    0    0    0  501 -0.00000000000E+00  0.00000000000E+00  0.48592283052E+03  0.48592283053E+03  0.25500000000E-02 0.  1.
          2   -1    0    0  501    0  0.00000000000E+00 -0.00000000000E+00 -0.31532732400E+04  0.31532732400E+04  0.25500000000E-02 0. -1.
    8880023    1    1    2    0    0  0.72719863438E+03 -0.57292577161E+03 -0.43311234401E+03  0.12159187072E+04  0.65864270000E+03 0.  1.
    8880022    1    1    2    0    0 -0.72719863438E+03  0.57292577161E+03 -0.22342380654E+04  0.24232773633E+04  0.15294330000E+03 0.  0.
<mgrwt>
<rscale>  0 0.10831023E+04</rscale>
<asrwt>0</asrwt>
<pdfrwt beam="1">  1        2 0.48511895E+00 0.11361655E+04</pdfrwt>
<pdfrwt beam="2">  1       -2 0.74757360E-01 0.11361655E+04</pdfrwt>
<totfact> 0.22490481E+00</totfact>
</mgrwt>
</event>
<event>
 4    1  0.2878104E-007  0.1125046E+04  0.7818608E-02  0.9233670E-01
         -2   -1    0    0    0  501 -0.00000000000E+00  0.00000000000E+00  0.56097053589E+03  0.56097053590E+03  0.25500000000E-02 0.  1.
          2   -1    0    0  501    0  0.00000000000E+00 -0.00000000000E+00 -0.32604982270E+04  0.32604982270E+04  0.25500000000E-02 0. -1.
    8880023    1    1    2    0    0  0.38852989079E+03  0.82520418549E+03 -0.26686723732E+04  0.28961249741E+04  0.65864270000E+03 0.  0.
    8880022    1    1    2    0    0 -0.38852989079E+03 -0.82520418549E+03 -0.30855317879E+02  0.92534378878E+03  0.15294330000E+03 0.  0.
<mgrwt>
<rscale>  0 0.10712553E+04</rscale>
<asrwt>0</asrwt>
<pdfrwt beam="1">  1        2 0.50161510E+00 0.11250456E+04</pdfrwt>
<pdfrwt beam="2">  1       -2 0.86303161E-01 0.11250456E+04</pdfrwt>
<totfact> 0.13879846E+00</totfact>
</mgrwt>
</event>
<event>
 4    1  0.2878104E-007  0.7335440E+03  0.7818608E-02  0.9879168E-01
          2   -1    0    0  501    0  0.00000000000E+00  0.00000000000E+00  0.45496165981E+03  0.45496165982E+03  0.25500000000E-02 0. -1.
         -2   -1    0    0    0  501 -0.00000000000E+00 -0.00000000000E+00 -0.11542980934E+04  0.11542980934E+04  0.25500000000E-02 0.  1.
    8880023    1    1    2    0    0 -0.45983005152E+02  0.31962826444E+03 -0.92961529860E+03  0.11841754405E+04  0.65864270000E+03 0.  1.
    8880022    1    1    2    0    0  0.45983005152E+02 -0.31962826444E+03  0.23027886505E+03  0.42508431269E+03  0.15294330000E+03 0.  0.
<mgrwt>
<rscale>  0 0.61281592E+03</rscale>
<asrwt>0</asrwt>
<pdfrwt beam="1">  1        2 0.69994102E-01 0.73354405E+03</pdfrwt>
<pdfrwt beam="2">  1       -2 0.17758432E+00 0.73354405E+03</pdfrwt>
<totfact> 0.13171092E+01</totfact>
</mgrwt>
</event>
<event>
 4    1  0.2878104E-007  0.6827168E+03  0.7818608E-02  0.1007827E+00
         -2   -1    0    0    0  501 -0.00000000000E+00  0.00000000000E+00  0.33748986373E+03  0.33748986374E+03  0.25500000000E-02 0.  1.
          2   -1    0    0  501    0  0.00000000000E+00 -0.00000000000E+00 -0.10104822704E+04  0.10104822704E+04  0.25500000000E-02 0. -1.
    8880023    1    1    2    0    0 -0.13508724814E+03 -0.11850495039E+03 -0.53209652390E+02  0.68478716493E+03  0.65864270000E+03 0.  1.
    8880022    1    1    2    0    0  0.13508724814E+03  0.11850495039E+03 -0.61978275426E+03  0.66318496920E+03  0.15294330000E+03 0.  0.
<mgrwt>
<rscale>  0 0.52347553E+03</rscale>
<asrwt>0</asrwt>
<pdfrwt beam="1">  1        2 0.15545881E+00 0.68271677E+03</pdfrwt>
<pdfrwt beam="2">  1       -2 0.51921518E-01 0.68271677E+03</pdfrwt>
<totfact> 0.88567460E+01</totfact>
</mgrwt>
</event>
<event>
 4    1  0.2878104E-007  0.7541252E+03  0.7818608E-02  0.9820561E-01
         -2   -1    0    0    0  501 -0.00000000000E+00  0.00000000000E+00  0.15602706814E+04  0.15602706814E+04  0.25500000000E-02 0.  1.
          2   -1    0    0  501    0  0.00000000000E+00 -0.00000000000E+00 -0.11193845154E+04  0.11193845154E+04  0.25500000000E-02 0. -1.
    8880023    1    1    2    0    0 -0.36248607435E+03  0.59147812600E+02  0.14282676243E+04  0.16151325737E+04  0.65864270000E+03 0.  1.
    8880022    1    1    2    0    0  0.36248607435E+03 -0.59147812600E+02 -0.98738145830E+03  0.10645226231E+04  0.15294330000E+03 0.  0.
<mgrwt>
<rscale>  0 0.64270695E+03</rscale>
<asrwt>0</asrwt>
<pdfrwt beam="1">  1        2 0.17221300E+00 0.75412520E+03</pdfrwt>
<pdfrwt beam="2">  1       -2 0.24004165E+00 0.75412520E+03</pdfrwt>
<totfact> 0.16204821E+00</totfact>
</mgrwt>
</event>
<event>
 4    1  0.2878104E-007  0.9813595E+03  0.7818608E-02  0.9406362E-01
         -2   -1    0    0    0  501 -0.00000000000E+00  0.00000000000E+00  0.14687494066E+04  0.14687494066E+04  0.25500000000E-02 0.  1.
          2   -1    0    0  501    0  0.00000000000E+00 -0.00000000000E+00 -0.70339767483E+03  0.70339767484E+03  0.25500000000E-02 0. -1.
    8880023    1    1    2    0    0  0.16899727108E+03  0.70759885975E+03  0.99156637353E+03  0.13950879196E+04  0.65864270000E+03 0.  0.
    8880022    1    1    2    0    0 -0.16899727108E+03 -0.70759885975E+03 -0.22621464173E+03  0.77705916190E+03  0.15294330000E+03 0.  0.
<mgrwt>
<rscale>  0 0.91553965E+03</rscale>
<asrwt>0</asrwt>
<pdfrwt beam="1">  1        2 0.10821503E+00 0.98135948E+03</pdfrwt>
<pdfrwt beam="2">  1       -2 0.22596145E+00 0.98135948E+03</pdfrwt>
<totfact> 0.36812855E+00</totfact>
</mgrwt>
</event>
<event>
 4    1  0.2878104E-007  0.8933739E+03  0.7818608E-02  0.9536753E-01
          2   -1    0    0  501    0  0.00000000000E+00  0.00000000000E+00  0.33966551156E+03  0.33966551157E+03  0.25500000000E-02 0. -1.
         -2   -1    0    0    0  501 -0.00000000000E+00 -0.00000000000E+00 -0.19663787449E+04  0.19663787449E+04  0.25500000000E-02 0.  1.
    8880023    1    1    2    0    0 -0.54890663038E+03  0.25101444081E+03 -0.13633534240E+04  0.16299845102E+04  0.65864270000E+03 0.  0.
    8880022    1    1    2    0    0  0.54890663038E+03 -0.25101444081E+03 -0.26335980930E+03  0.67605974628E+03  0.15294330000E+03 0.  0.
<mgrwt>
<rscale>  0 0.81627538E+03</rscale>
<asrwt>0</asrwt>
<pdfrwt beam="1">  1        2 0.52256234E-01 0.89337391E+03</pdfrwt>
<pdfrwt beam="2">  1       -2 0.30251980E+00 0.89337391E+03</pdfrwt>
<totfact> 0.29944736E+00</totfact>
</mgrwt>
</event>
<event>
 4    1  0.9108876E-007  0.2018322E+04  0.7818608E-02  0.8610508E-01
          2   -1    0    0  501    0  0.00000000000E+00  0.00000000000E+00  0.21366517930E+04  0.21366517930E+04  0.25500000000E-02 0. -1.
         -2   -1    0    0    0  501 -0.00000000000E+00 -0.00000000000E+00 -0.45662755490E+04  0.45662755490E+04  0.25500000000E-02 0.  1.
    8880023    1    1    2    0    0 -0.11029398845E+04 -0.15567071477E+04 -0.38314312808E+04  0.43305299212E+04  0.65864270000E+03 0.  0.
    8880022    1    1    2    0    0  0.11029398845E+04  0.15567071477E+04  0.14018075248E+04  0.23723974208E+04  0.15294330000E+03 0.  0.
<mgrwt>
<rscale>  0 0.19917072E+04</rscale>
<asrwt>0</asrwt>
<pdfrwt beam="1">  1        2 0.32871566E+00 0.20183220E+04</pdfrwt>
<pdfrwt beam="2">  1       -2 0.70250393E+00 0.20183220E+04</pdfrwt>
<totfact> 0.10786143E-03</totfact>
</mgrwt>
</event>
<event>
 4    1  0.2878104E-007  0.1498606E+04  0.7818608E-02  0.8910621E-01
         -2   -1    0    0    0  501 -0.00000000000E+00  0.00000000000E+00  0.24195001266E+04  0.24195001266E+04  0.25500000000E-02 0.  1.
          2   -1    0    0  501    0  0.00000000000E+00 -0.00000000000E+00 -0.11893035307E+04  0.11893035307E+04  0.25500000000E-02 0. -1.
    8880023    1    1    2    0    0  0.57224809327E+03  0.12184183712E+04  0.16122679438E+04  0.22011881647E+04  0.65864270000E+03 0.  1.
    8880022    1    1    2    0    0 -0.57224809327E+03 -0.12184183712E+04 -0.38207134789E+03  0.14076154927E+04  0.15294330000E+03 0.  0.
<mgrwt>
<rscale>  0 0.14612756E+04</rscale>
<asrwt>0</asrwt>
<pdfrwt beam="1">  1        2 0.18296978E+00 0.14986065E+04</pdfrwt>
<pdfrwt beam="2">  1       -2 0.37223078E+00 0.14986065E+04</pdfrwt>
<totfact> 0.20440945E-01</totfact>
</mgrwt>
</event>
<event>
 4    1  0.2878104E-007  0.9926365E+03  0.7818608E-02  0.9391255E-01
          2   -1    0    0  501    0  0.00000000000E+00  0.00000000000E+00  0.90550755984E+03  0.90550755984E+03  0.25500000000E-02 0. -1.
         -2   -1    0    0    0  501 -0.00000000000E+00 -0.00000000000E+00 -0.15509751980E+04  0.15509751980E+04  0.25500000000E-02 0.  1.
    8880023    1    1    2    0    0 -0.48320314791E+03  0.56394310399E+03 -0.11701170584E+04  0.15344384130E+04  0.65864270000E+03 0.  0.
    8880022    1    1    2    0    0  0.48320314791E+03 -0.56394310399E+03  0.52464942023E+03  0.92204434484E+03  0.15294330000E+03 0.  0.
<mgrwt>
<rscale>  0 0.92798843E+03</rscale>
<asrwt>0</asrwt>
<pdfrwt beam="1">  1        2 0.13930886E+00 0.99263655E+03</pdfrwt>
<pdfrwt beam="2">  1       -2 0.23861157E+00 0.99263655E+03</pdfrwt>
<totfact> 0.21890847E+00</totfact>
</mgrwt>
</event>
<event>
 4    1  0.2878104E-007  0.7647726E+03  0.7818608E-02  0.9792905E-01
          2   -1    0    0  501    0  0.00000000000E+00  0.00000000000E+00  0.47094080710E+03  0.47094080710E+03  0.25500000000E-02 0. -1.
         -2   -1    0    0    0  501 -0.00000000000E+00 -0.00000000000E+00 -0.98489423139E+03  0.98489423139E+03  0.25500000000E-02 0.  1.
    8880023    1    1    2    0    0  0.20502860596E+02  0.38813216870E+03  0.35562003236E+02  0.76559898773E+03  0.65864270000E+03 0. -1.
    8880022    1    1    2    0    0 -0.20502860596E+02 -0.38813216870E+03 -0.54951542753E+03  0.69023605077E+03  0.15294330000E+03 0.  0.
<mgrwt>
<rscale>  0 0.65744707E+03</rscale>
<asrwt>0</asrwt>
<pdfrwt beam="1">  1        2 0.72452432E-01 0.76477262E+03</pdfrwt>
<pdfrwt beam="2">  1       -2 0.15152219E+00 0.76477262E+03</pdfrwt>
<totfact> 0.19489100E+01</totfact>
</mgrwt>
</event>
<event>
 4    1  0.2878104E-007  0.7919407E+03  0.7818608E-02  0.9728501E-01
         -2   -1    0    0    0  501 -0.00000000000E+00  0.00000000000E+00  0.49639949201E+03  0.49639949202E+03  0.25500000000E-02 0.  1.
          2   -1    0    0  501    0  0.00000000000E+00 -0.00000000000E+00 -0.25775847561E+04  0.25775847561E+04  0.25500000000E-02 0. -1.
    8880023    1    1    2    0    0  0.42787139268E+03  0.10141981647E+03  0.14027005036E+03  0.80426724485E+03  0.65864270000E+03 0.  1.
    8880022    1    1    2    0    0 -0.42787139268E+03 -0.10141981647E+03 -0.22214553145E+04  0.22697170033E+04  0.15294330000E+03 0.  0.
<mgrwt>
<rscale>  0 0.69344942E+03</rscale>
<asrwt>0</asrwt>
<pdfrwt beam="1">  1        2 0.39655149E+00 0.79194073E+03</pdfrwt>
<pdfrwt beam="2">  1       -2 0.76369154E-01 0.79194073E+03</pdfrwt>
<totfact> 0.50253451E+00</totfact>
</mgrwt>
</event>
<event>
 4    1  0.2878104E-007  0.1087319E+04  0.7818608E-02  0.9275308E-01
          2   -1    0    0  501    0  0.00000000000E+00  0.00000000000E+00  0.25846901831E+04  0.25846901831E+04  0.25500000000E-02 0. -1.
         -2   -1    0    0    0  501 -0.00000000000E+00 -0.00000000000E+00 -0.70829693414E+03  0.70829693414E+03  0.25500000000E-02 0.  1.
    8880023    1    1    2    0    0 -0.76220668510E+03 -0.40925972359E+03 -0.13733321576E+03  0.10959576500E+04  0.65864270000E+03 0.  1.
    8880022    1    1    2    0    0  0.76220668510E+03  0.40925972359E+03  0.20137264647E+04  0.21970294672E+04  0.15294330000E+03 0.  0.
<mgrwt>
<rscale>  0 0.10308820E+04</rscale>
<asrwt>0</asrwt>
<pdfrwt beam="1">  1        2 0.39764464E+00 0.10873191E+04</pdfrwt>
<pdfrwt beam="2">  1       -2 0.10896876E+00 0.10873191E+04</pdfrwt>
<totfact> 0.20827859E+00</totfact>
</mgrwt>
</event>
<event>
 4    1  0.2878104E-007  0.7748856E+03  0.7818608E-02  0.9767991E-01
          2   -1    0    0  501    0  0.00000000000E+00  0.00000000000E+00  0.16405057310E+04  0.16405057310E+04  0.25500000000E-02 0. -1.
         -2   -1    0    0    0  501 -0.00000000000E+00 -0.00000000000E+00 -0.11506790297E+04  0.11506790297E+04  0.25500000000E-02 0.  1.
    8880023    1    1    2    0    0 -0.35770768878E+03 -0.19667922747E+03 -0.98501020567E+03  0.12532728437E+04  0.65864270000E+03 0.  0.
    8880022    1    1    2    0    0  0.35770768878E+03  0.19667922747E+03  0.14748369070E+04  0.15379119170E+04  0.15294330000E+03 0.  0.
<mgrwt>
<rscale>  0 0.67108994E+03</rscale>
<asrwt>0</asrwt>
<pdfrwt beam="1">  1        2 0.25238549E+00 0.77488561E+03</pdfrwt>
<pdfrwt beam="2">  1       -2 0.17702754E+00 0.77488561E+03</pdfrwt>
<totfact> 0.20685262E+00</totfact>
</mgrwt>
</event>
<event>
 4    1  0.2878104E-007  0.1476477E+04  0.7818608E-02  0.8926427E-01
         -2   -1    0    0    0  501 -0.00000000000E+00  0.00000000000E+00  0.92600867048E+03  0.92600867048E+03  0.25500000000E-02 0.  1.
          2   -1    0    0  501    0  0.00000000000E+00 -0.00000000000E+00 -0.24118356460E+04  0.24118356460E+04  0.25500000000E-02 0. -1.
    8880023    1    1    2    0    0  0.12280032517E+04 -0.48803909644E+03 -0.20398915974E+03  0.14905019052E+04  0.65864270000E+03 0.  0.
    8880022    1    1    2    0    0 -0.12280032517E+04  0.48803909644E+03 -0.12818378158E+04  0.18473424114E+04  0.15294330000E+03 0.  0.
<mgrwt>
<rscale>  0 0.14384784E+04</rscale>
<asrwt>0</asrwt>
<pdfrwt beam="1">  1        2 0.37105163E+00 0.14764770E+04</pdfrwt>
<pdfrwt beam="2">  1       -2 0.14246287E+00 0.14764770E+04</pdfrwt>
<totfact> 0.12732550E+00</totfact>
</mgrwt>
</event>
<event>
 4    1  0.2878104E-007  0.7224325E+03  0.7818608E-02  0.9914440E-01
         -2   -1    0    0    0  501 -0.00000000000E+00  0.00000000000E+00  0.53265327775E+03  0.53265327776E+03  0.25500000000E-02 0.  1.
          2   -1    0    0  501    0  0.00000000000E+00 -0.00000000000E+00 -0.10092382922E+04  0.10092382922E+04  0.25500000000E-02 0. -1.
    8880023    1    1    2    0    0  0.28954097184E+03  0.65303121059E+02  0.23183951372E+03  0.75872144980E+03  0.65864270000E+03 0.  1.
    8880022    1    1    2    0    0 -0.28954097184E+03 -0.65303121059E+02 -0.70842452815E+03  0.78317012015E+03  0.15294330000E+03 0.  0.
<mgrwt>
<rscale>  0 0.59566557E+03</rscale>
<asrwt>0</asrwt>
<pdfrwt beam="1">  1        2 0.15526743E+00 0.72243247E+03</pdfrwt>
<pdfrwt beam="2">  1       -2 0.81946658E-01 0.72243247E+03</pdfrwt>
<totfact> 0.33144624E+01</totfact>
</mgrwt>
</event>
<event>
 4    1  0.2878104E-007  0.7319143E+03  0.7818608E-02  0.9884159E-01
         -2   -1    0    0    0  501 -0.00000000000E+00  0.00000000000E+00  0.30621765887E+03  0.30621765888E+03  0.25500000000E-02 0.  1.
          2   -1    0    0  501    0  0.00000000000E+00 -0.00000000000E+00 -0.16443426913E+04  0.16443426913E+04  0.25500000000E-02 0. -1.
    8880023    1    1    2    0    0 -0.26950794489E+03  0.17103750875E+03 -0.20011652224E+03  0.75877874937E+03  0.65864270000E+03 0.  0.
    8880022    1    1    2    0    0  0.26950794489E+03 -0.17103750875E+03 -0.11380085102E+04  0.11917816008E+04  0.15294330000E+03 0.  0.
<mgrwt>
<rscale>  0 0.61035205E+03</rscale>
<asrwt>0</asrwt>
<pdfrwt beam="1">  1        2 0.25297579E+00 0.73191432E+03</pdfrwt>
<pdfrwt beam="2">  1       -2 0.47110410E-01 0.73191432E+03</pdfrwt>
<totfact> 0.46168127E+01</totfact>
</mgrwt>
</event>
<event>
 4    1  0.2878104E-007  0.6854009E+03  0.7818608E-02  0.1006420E+00
          2   -1    0    0  501    0  0.00000000000E+00  0.00000000000E+00  0.50817174877E+03  0.50817174877E+03  0.25500000000E-02 0. -1.
         -2   -1    0    0    0  501 -0.00000000000E+00 -0.00000000000E+00 -0.90486567113E+03  0.90486567113E+03  0.25500000000E-02 0.  1.
    8880023    1    1    2    0    0  0.10903256633E+03  0.15516456515E+03 -0.72924912169E+03  0.10007890040E+04  0.65864270000E+03 0.  1.
    8880022    1    1    2    0    0 -0.10903256633E+03 -0.15516456515E+03  0.33255519932E+03  0.41224841590E+03  0.15294330000E+03 0.  0.
<mgrwt>
<rscale>  0 0.52922625E+03</rscale>
<asrwt>0</asrwt>
<pdfrwt beam="1">  1        2 0.78180269E-01 0.68540087E+03</pdfrwt>
<pdfrwt beam="2">  1       -2 0.13921010E+00 0.68540087E+03</pdfrwt>
<totfact> 0.22438845E+01</totfact>
</mgrwt>
</event>
<event>
 4    1  0.2878104E-007  0.8012818E+03  0.7818608E-02  0.9708031E-01
          2   -1    0    0  501    0  0.00000000000E+00  0.00000000000E+00  0.37032605815E+04  0.37032605815E+04  0.25500000000E-02 0. -1.
         -2   -1    0    0    0  501 -0.00000000000E+00 -0.00000000000E+00 -0.23503928531E+03  0.23503928532E+03  0.25500000000E-02 0.  1.
    8880023    1    1    2    0    0 -0.32869537457E+03 -0.31654641687E+03  0.52949938590E+03  0.96042807603E+03  0.65864270000E+03 0.  1.
    8880022    1    1    2    0    0  0.32869537457E+03  0.31654641687E+03  0.29387219103E+04  0.29778717908E+04  0.15294330000E+03 0.  0.
<mgrwt>
<rscale>  0 0.70540612E+03</rscale>
<asrwt>0</asrwt>
<pdfrwt beam="1">  1        2 0.56973236E+00 0.80128178E+03</pdfrwt>
<pdfrwt beam="2">  1       -2 0.36159892E-01 0.80128178E+03</pdfrwt>
<totfact> 0.45140952E+00</totfact>
</mgrwt>
</event>
<event>
 4    1  0.2878104E-007  0.1023313E+04  0.7818608E-02  0.9351674E-01
         -2   -1    0    0    0  501 -0.00000000000E+00  0.00000000000E+00  0.55697110789E+03  0.55697110790E+03  0.25500000000E-02 0.  1.
          2   -1    0    0  501    0  0.00000000000E+00 -0.00000000000E+00 -0.27269097985E+04  0.27269097985E+04  0.25500000000E-02 0. -1.
    8880023    1    1    2    0    0 -0.69050384791E+03  0.36954394765E+03 -0.56562271387E+02  0.10248745240E+04  0.65864270000E+03 0.  0.
    8880022    1    1    2    0    0  0.69050384791E+03 -0.36954394765E+03 -0.21133764192E+04  0.22590063824E+04  0.15294330000E+03 0.  0.
<mgrwt>
<rscale>  0 0.96161743E+03</rscale>
<asrwt>0</asrwt>
<pdfrwt beam="1">  1        2 0.41952458E+00 0.10233125E+04</pdfrwt>
<pdfrwt beam="2">  1       -2 0.85687864E-01 0.10233125E+04</pdfrwt>
<totfact> 0.30606113E+00</totfact>
</mgrwt>
</event>
<event>
 4    1  0.2878104E-007  0.1223800E+04  0.7818608E-02  0.9134327E-01
          2   -1    0    0  501    0  0.00000000000E+00  0.00000000000E+00  0.22064326634E+04  0.22064326634E+04  0.25500000000E-02 0. -1.
         -2   -1    0    0    0  501 -0.00000000000E+00 -0.00000000000E+00 -0.77841632369E+03  0.77841632369E+03  0.25500000000E-02 0.  1.
    8880023    1    1    2    0    0 -0.10285232993E+04 -0.77566702441E+02  0.88931833189E+01  0.12238325316E+04  0.65864270000E+03 0.  0.
    8880022    1    1    2    0    0  0.10285232993E+04  0.77566702441E+02  0.14191231564E+04  0.17610164554E+04  0.15294330000E+03 0.  0.
<mgrwt>
<rscale>  0 0.11757771E+04</rscale>
<asrwt>0</asrwt>
<pdfrwt beam="1">  1        2 0.33945117E+00 0.12238002E+04</pdfrwt>
<pdfrwt beam="2">  1       -2 0.11975636E+00 0.12238002E+04</pdfrwt>
<totfact> 0.26653357E+00</totfact>
</mgrwt>
</event>
<event>
 4    1  0.2878104E-007  0.6945231E+03  0.7818608E-02  0.1002073E+00
          2   -1    0    0  501    0  0.00000000000E+00  0.00000000000E+00  0.21814724894E+03  0.21814724896E+03  0.25500000000E-02 0. -1.
         -2   -1    0    0    0  501 -0.00000000000E+00 -0.00000000000E+00 -0.37590829226E+04  0.37590829226E+04  0.25500000000E-02 0.  1.
    8880023    1    1    2    0    0  0.96196309470E+02 -0.19823836502E+03 -0.36290448344E+04  0.36949057898E+04  0.65864270000E+03 0.  1.
    8880022    1    1    2    0    0 -0.96196309470E+02  0.19823836502E+03  0.88109160720E+02  0.28232438176E+03  0.15294330000E+03 0.  0.
<mgrwt>
<rscale>  0 0.54750644E+03</rscale>
<asrwt>0</asrwt>
<pdfrwt beam="1">  1        2 0.33561118E-01 0.69452314E+03</pdfrwt>
<pdfrwt beam="2">  1       -2 0.57832040E+00 0.69452314E+03</pdfrwt>
<totfact> 0.10130266E-01</totfact>
</mgrwt>
</event>
<event>
 4    1  0.2878104E-007  0.7924699E+03  0.7818608E-02  0.9727321E-01
         -2   -1    0    0    0  501 -0.00000000000E+00  0.00000000000E+00  0.80168909910E+03  0.80168909910E+03  0.25500000000E-02 0.  1.
          2   -1    0    0  501    0  0.00000000000E+00 -0.00000000000E+00 -0.26374244843E+04  0.26374244843E+04  0.25500000000E-02 0. -1.
    8880023    1    1    2    0    0 -0.35703785629E+03 -0.25830658992E+03  0.57790765338E+03  0.98080874146E+03  0.65864270000E+03 0.  1.
    8880022    1    1    2    0    0  0.35703785629E+03  0.25830658992E+03 -0.24136430385E+04  0.24583048419E+04  0.15294330000E+03 0.  0.
<mgrwt>
<rscale>  0 0.69413180E+03</rscale>
<asrwt>0</asrwt>
<pdfrwt beam="1">  1        2 0.40575761E+00 0.79246989E+03</pdfrwt>
<pdfrwt beam="2">  1       -2 0.12333679E+00 0.79246989E+03</pdfrwt>
<totfact> 0.15010022E+00</totfact>
</mgrwt>
</event>
<event>
 4    1  0.2878104E-007  0.7392158E+03  0.7818608E-02  0.9862237E-01
          2   -1    0    0  501    0  0.00000000000E+00  0.00000000000E+00  0.10847973561E+04  0.10847973561E+04  0.25500000000E-02 0. -1.
         -2   -1    0    0    0  501 -0.00000000000E+00 -0.00000000000E+00 -0.35644592151E+03  0.35644592152E+03  0.25500000000E-02 0.  1.
    8880023    1    1    2    0    0 -0.13040705512E+03 -0.30923088954E+03  0.14841459840E+03  0.75396740139E+03  0.65864270000E+03 0.  1.
    8880022    1    1    2    0    0  0.13040705512E+03  0.30923088954E+03  0.57993683618E+03  0.68727587623E+03  0.15294330000E+03 0. -1.
<mgrwt>
<rscale>  0 0.62126848E+03</rscale>
<asrwt>0</asrwt>
<pdfrwt beam="1">  1        2 0.16689190E+00 0.73921577E+03</pdfrwt>
<pdfrwt beam="2">  1       -2 0.54837834E-01 0.73921577E+03</pdfrwt>
<totfact> 0.70785719E+01</totfact>
</mgrwt>
</event>
<event>
 4    1  0.2878104E-007  0.8969895E+03  0.7818608E-02  0.9530882E-01
          2   -1    0    0  501    0  0.00000000000E+00  0.00000000000E+00  0.50825250378E+03  0.50825250379E+03  0.25500000000E-02 0. -1.
         -2   -1    0    0    0  501 -0.00000000000E+00 -0.00000000000E+00 -0.13955689888E+04  0.13955689888E+04  0.25500000000E-02 0.  1.
    8880023    1    1    2    0    0  0.10688165726E+02 -0.60882325652E+03 -0.90706632841E+03  0.12756800245E+04  0.65864270000E+03 0.  1.
    8880022    1    1    2    0    0 -0.10688165726E+02  0.60882325652E+03  0.19749843403E+02  0.62814146806E+03  0.15294330000E+03 0.  0.
<mgrwt>
<rscale>  0 0.82044826E+03</rscale>
<asrwt>0</asrwt>
<pdfrwt beam="1">  1        2 0.78192693E-01 0.89698952E+03</pdfrwt>
<pdfrwt beam="2">  1       -2 0.21470292E+00 0.89698952E+03</pdfrwt>
<totfact> 0.64913608E+00</totfact>
</mgrwt>
</event>
<event>
 4    1  0.2878104E-007  0.7083423E+03  0.7818608E-02  0.9964209E-01
         -2   -1    0    0    0  501 -0.00000000000E+00  0.00000000000E+00  0.40293311875E+03  0.40293311876E+03  0.25500000000E-02 0.  1.
          2   -1    0    0  501    0  0.00000000000E+00 -0.00000000000E+00 -0.23611036387E+04  0.23611036387E+04  0.25500000000E-02 0. -1.
    8880023    1    1    2    0    0  0.25744570677E+03 -0.40746699391E+02  0.71545016712E+02  0.71194626281E+03  0.65864270000E+03 0.  1.
    8880022    1    1    2    0    0 -0.25744570677E+03  0.40746699391E+02 -0.20297155366E+04  0.20520904946E+04  0.15294330000E+03 0.  0.
<mgrwt>
<rscale>  0 0.57247852E+03</rscale>
<asrwt>0</asrwt>
<pdfrwt beam="1">  1        2 0.36324671E+00 0.70834228E+03</pdfrwt>
<pdfrwt beam="2">  1       -2 0.61989712E-01 0.70834228E+03</pdfrwt>
<totfact> 0.10636035E+01</totfact>
</mgrwt>
</event>
<event>
 4    1  0.2878104E-007  0.6758588E+03  0.7818608E-02  0.1011770E+00
         -2   -1    0    0    0  501 -0.00000000000E+00  0.00000000000E+00  0.10885329997E+04  0.10885329997E+04  0.25500000000E-02 0.  1.
          2   -1    0    0  501    0  0.00000000000E+00 -0.00000000000E+00 -0.67672388771E+03  0.67672388772E+03  0.25500000000E-02 0. -1.
    8880023    1    1    2    0    0 -0.83357468919E+02  0.12659561096E+03  0.96128396464E+03  0.11750965847E+04  0.65864270000E+03 0.  0.
    8880022    1    1    2    0    0  0.83357468919E+02 -0.12659561096E+03 -0.54947485261E+03  0.59016030281E+03  0.15294330000E+03 0. -1.
<mgrwt>
<rscale>  0 0.50777066E+03</rscale>
<asrwt>0</asrwt>
<pdfrwt beam="1">  1        2 0.10411137E+00 0.67585880E+03</pdfrwt>
<pdfrwt beam="2">  1       -2 0.16746661E+00 0.67585880E+03</pdfrwt>
<totfact> 0.97430143E+00</totfact>
</mgrwt>
</event>
<event>
 4    1  0.2878104E-007  0.1387008E+04  0.7818608E-02  0.8993844E-01
         -2   -1    0    0    0  501 -0.00000000000E+00  0.00000000000E+00  0.13473610211E+04  0.13473610211E+04  0.25500000000E-02 0.  1.
          2   -1    0    0  501    0  0.00000000000E+00 -0.00000000000E+00 -0.29091250114E+04  0.29091250114E+04  0.25500000000E-02 0. -1.
    8880023    1    1    2    0    0 -0.85575419630E+03  0.87044027987E+03 -0.23971241051E+04  0.27694757098E+04  0.65864270000E+03 0.  0.
    8880022    1    1    2    0    0  0.85575419630E+03 -0.87044027987E+03  0.83536011488E+03  0.14870103227E+04  0.15294330000E+03 0.  0.
<mgrwt>
<rscale>  0 0.13460231E+04</rscale>
<asrwt>0</asrwt>
<pdfrwt beam="1">  1        2 0.44755769E+00 0.13870082E+04</pdfrwt>
<pdfrwt beam="2">  1       -2 0.20728631E+00 0.13870082E+04</pdfrwt>
<totfact> 0.22585797E-01</totfact>
</mgrwt>
</event>
<event>
 4    1  0.2878104E-007  0.9548656E+03  0.7818608E-02  0.9443148E-01
         -2   -1    0    0    0  501 -0.00000000000E+00  0.00000000000E+00  0.11187326017E+04  0.11187326017E+04  0.25500000000E-02 0.  1.
          2   -1    0    0  501    0  0.00000000000E+00 -0.00000000000E+00 -0.15063432367E+04  0.15063432367E+04  0.25500000000E-02 0. -1.
    8880023    1    1    2    0    0  0.38602698670E+03 -0.57353402810E+03  0.79780635484E+03  0.12442922896E+04  0.65864270000E+03 0.  0.
    8880022    1    1    2    0    0 -0.38602698670E+03  0.57353402810E+03 -0.11854169898E+04  0.13807835488E+04  0.15294330000E+03 0.  0.
<mgrwt>
<rscale>  0 0.88608277E+03</rscale>
<asrwt>0</asrwt>
<pdfrwt beam="1">  1        2 0.23174511E+00 0.95486560E+03</pdfrwt>
<pdfrwt beam="2">  1       -2 0.17211271E+00 0.95486560E+03</pdfrwt>
<totfact> 0.25879256E+00</totfact>
</mgrwt>
</event>
<event>
 4    1  0.2878104E-007  0.2336392E+04  0.7818608E-02  0.8472548E-01
         -2   -1    0    0    0  501 -0.00000000000E+00  0.00000000000E+00  0.23024331370E+04  0.23024331370E+04  0.25500000000E-02 0.  1.
          2   -1    0    0  501    0  0.00000000000E+00 -0.00000000000E+00 -0.36848365473E+04  0.36848365473E+04  0.25500000000E-02 0. -1.
    8880023    1    1    2    0    0  0.15297046376E+04  0.16385724011E+04  0.11480876341E+04  0.26032347597E+04  0.65864270000E+03 0.  0.
    8880022    1    1    2    0    0 -0.15297046376E+04 -0.16385724011E+04 -0.25304910444E+04  0.33840349246E+04  0.15294330000E+03 0.  0.
<mgrwt>
<rscale>  0 0.23136756E+04</rscale>
<asrwt>0</asrwt>
<pdfrwt beam="1">  1        2 0.56689793E+00 0.23363917E+04</pdfrwt>
<pdfrwt beam="2">  1       -2 0.35422048E+00 0.23363917E+04</pdfrwt>
<totfact> 0.74380803E-03</totfact>
</mgrwt>
</event>
<event>
 4    1  0.2878104E-007  0.6933529E+03  0.7818608E-02  0.1002598E+00
          2   -1    0    0  501    0  0.00000000000E+00  0.00000000000E+00  0.39560452747E+04  0.39560452747E+04  0.25500000000E-02 0. -1.
         -2   -1    0    0    0  501 -0.00000000000E+00 -0.00000000000E+00 -0.34103885177E+03  0.34103885178E+03  0.25500000000E-02 0.  1.
    8880023    1    1    2    0    0  0.17296677312E+03  0.13042451885E+03  0.21375274866E+02  0.69368232525E+03  0.65864270000E+03 0.  1.
    8880022    1    1    2    0    0 -0.17296677312E+03 -0.13042451885E+03  0.35936311481E+04  0.36034018012E+04  0.15294330000E+03 0.  0.
<mgrwt>
<rscale>  0 0.54525593E+03</rscale>
<asrwt>0</asrwt>
<pdfrwt beam="1">  1        2 0.60862234E+00 0.69335292E+03</pdfrwt>
<pdfrwt beam="2">  1       -2 0.52467516E-01 0.69335292E+03</pdfrwt>
<totfact> 0.14316094E+00</totfact>
</mgrwt>
</event>
<event>
 4    1  0.2878104E-007  0.7069987E+03  0.7818608E-02  0.9969319E-01
          2   -1    0    0  501    0  0.00000000000E+00  0.00000000000E+00  0.17547211475E+04  0.17547211475E+04  0.25500000000E-02 0. -1.
         -2   -1    0    0    0  501 -0.00000000000E+00 -0.00000000000E+00 -0.31329282328E+03  0.31329282329E+03  0.25500000000E-02 0.  1.
    8880023    1    1    2    0    0  0.23089303009E+03  0.11280692268E+03  0.12489693073E+03  0.71794598872E+03  0.65864270000E+03 0.  0.
    8880022    1    1    2    0    0 -0.23089303009E+03 -0.11280692268E+03  0.13165313935E+04  0.13500679821E+04  0.15294330000E+03 0. -1.
<mgrwt>
<rscale>  0 0.57016238E+03</rscale>
<asrwt>0</asrwt>
<pdfrwt beam="1">  1        2 0.26995710E+00 0.70699873E+03</pdfrwt>
<pdfrwt beam="2">  1       -2 0.48198896E-01 0.70699873E+03</pdfrwt>
<totfact> 0.38485844E+01</totfact>
</mgrwt>
</event>
<event>
 4    1  0.2878104E-007  0.9980523E+03  0.7818608E-02  0.9384110E-01
         -2   -1    0    0    0  501 -0.00000000000E+00  0.00000000000E+00  0.14491167374E+04  0.14491167374E+04  0.25500000000E-02 0.  1.
          2   -1    0    0  501    0  0.00000000000E+00 -0.00000000000E+00 -0.15474263799E+04  0.15474263800E+04  0.25500000000E-02 0. -1.
    8880023    1    1    2    0    0  0.31494266620E+03  0.68052139014E+03  0.11559759075E+04  0.15272160130E+04  0.65864270000E+03 0.  0.
    8880022    1    1    2    0    0 -0.31494266620E+03 -0.68052139014E+03 -0.12542855501E+04  0.14693271043E+04  0.15294330000E+03 0.  0.
<mgrwt>
<rscale>  0 0.93394962E+03</rscale>
<asrwt>0</asrwt>
<pdfrwt beam="1">  1        2 0.23806560E+00 0.99805233E+03</pdfrwt>
<pdfrwt beam="2">  1       -2 0.22294104E+00 0.99805233E+03</pdfrwt>
<totfact> 0.11256311E+00</totfact>
</mgrwt>
</event>
<event>
 4    1  0.2878104E-007  0.8087842E+03  0.7818608E-02  0.9692115E-01
         -2   -1    0    0    0  501 -0.00000000000E+00  0.00000000000E+00  0.29323641406E+03  0.29323641408E+03  0.25500000000E-02 0.  1.
          2   -1    0    0  501    0  0.00000000000E+00 -0.00000000000E+00 -0.32860786462E+04  0.32860786462E+04  0.25500000000E-02 0. -1.
    8880023    1    1    2    0    0 -0.46576309301E+03  0.58192980579E+02 -0.33400914924E+03  0.87503942759E+03  0.65864270000E+03 0.  1.
    8880022    1    1    2    0    0  0.46576309301E+03 -0.58192980579E+02 -0.26588330829E+04  0.27042756327E+04  0.15294330000E+03 0.  0.
<mgrwt>
<rscale>  0 0.71488207E+03</rscale>
<asrwt>0</asrwt>
<pdfrwt beam="1">  1        2 0.50555053E+00 0.80878420E+03</pdfrwt>
<pdfrwt beam="2">  1       -2 0.45113297E-01 0.80878420E+03</pdfrwt>
<totfact> 0.56389096E+00</totfact>
</mgrwt>
</event>
<event>
 4    1  0.2878104E-007  0.6594420E+03  0.7818608E-02  0.1024736E+00
          2   -1    0    0  501    0  0.00000000000E+00  0.00000000000E+00  0.94956970589E+03  0.94956970589E+03  0.25500000000E-02 0. -1.
         -2   -1    0    0    0  501 -0.00000000000E+00 -0.00000000000E+00 -0.11202746893E+04  0.11202746893E+04  0.25500000000E-02 0.  1.
    8880023    1    1    2    0    0 -0.31713008887E+02 -0.69152781359E+01 -0.10154315367E+04  0.12107703944E+04  0.65864270000E+03 0.  1.
    8880022    1    1    2    0    0  0.31713008887E+02  0.69152781359E+01  0.84472655328E+03  0.85907400079E+03  0.15294330000E+03 0.  0.
<mgrwt>
<rscale>  0 0.46015763E+03</rscale>
<asrwt>0</asrwt>
<pdfrwt beam="1">  1        2 0.14608765E+00 0.65944199E+03</pdfrwt>
<pdfrwt beam="2">  1       -2 0.17234995E+00 0.65944199E+03</pdfrwt>
<totfact> 0.57561615E+00</totfact>
</mgrwt>
</event>
<event>
 4    1  0.2878104E-007  0.1096108E+04  0.7818608E-02  0.9265402E-01
          2   -1    0    0  501    0  0.00000000000E+00  0.00000000000E+00  0.14044409056E+04  0.14044409056E+04  0.25500000000E-02 0. -1.
         -2   -1    0    0    0  501 -0.00000000000E+00 -0.00000000000E+00 -0.96783604167E+03  0.96783604167E+03  0.25500000000E-02 0.  1.
    8880023    1    1    2    0    0 -0.80494572986E+03 -0.34598465816E+03 -0.38470980854E+03  0.11616603870E+04  0.65864270000E+03 0.  0.
    8880022    1    1    2    0    0  0.80494572986E+03  0.34598465816E+03  0.82131467243E+03  0.12106165602E+04  0.15294330000E+03 0.  0.
<mgrwt>
<rscale>  0 0.10403142E+04</rscale>
<asrwt>0</asrwt>
<pdfrwt beam="1">  1        2 0.21606783E+00 0.10961082E+04</pdfrwt>
<pdfrwt beam="2">  1       -2 0.14889785E+00 0.10961082E+04</pdfrwt>
<totfact> 0.43167108E+00</totfact>
</mgrwt>
</event>
<event>
 4    1  0.2878104E-007  0.1125066E+04  0.7818608E-02  0.9233649E-01
         -2   -1    0    0    0  501 -0.00000000000E+00  0.00000000000E+00  0.11137913230E+04  0.11137913230E+04  0.25500000000E-02 0.  1.
          2   -1    0    0  501    0  0.00000000000E+00 -0.00000000000E+00 -0.22889909393E+04  0.22889909393E+04  0.25500000000E-02 0. -1.
    8880023    1    1    2    0    0  0.75001345294E+03 -0.51907807459E+03  0.69075992146E+03  0.13201975998E+04  0.65864270000E+03 0.  0.
    8880022    1    1    2    0    0 -0.75001345294E+03  0.51907807459E+03 -0.18659595377E+04  0.20825846625E+04  0.15294330000E+03 0.  0.
<mgrwt>
<rscale>  0 0.10712765E+04</rscale>
<asrwt>0</asrwt>
<pdfrwt beam="1">  1        2 0.35215245E+00 0.11250655E+04</pdfrwt>
<pdfrwt beam="2">  1       -2 0.17135251E+00 0.11250655E+04</pdfrwt>
<totfact> 0.94339659E-01</totfact>
</mgrwt>
</event>
<event>
 4    1  0.2878104E-007  0.8633909E+03  0.7818608E-02  0.9587560E-01
          2   -1    0    0  501    0  0.00000000000E+00  0.00000000000E+00  0.35175633719E+04  0.35175633719E+04  0.25500000000E-02 0. -1.
         -2   -1    0    0    0  501 -0.00000000000E+00 -0.00000000000E+00 -0.30933024299E+03  0.30933024300E+03  0.25500000000E-02 0.  1.
    8880023    1    1    2    0    0  0.45232539683E+03  0.32716257718E+03  0.38570449128E+03  0.94562771606E+03  0.65864270000E+03 0.  1.
    8880022    1    1    2    0    0 -0.45232539683E+03 -0.32716257718E+03  0.28225286376E+04  0.28812658988E+04  0.15294330000E+03 0.  0.
<mgrwt>
<rscale>  0 0.78125047E+03</rscale>
<asrwt>0</asrwt>
<pdfrwt beam="1">  1        2 0.54116364E+00 0.86339089E+03</pdfrwt>
<pdfrwt beam="2">  1       -2 0.47589264E-01 0.86339089E+03</pdfrwt>
<totfact> 0.35114289E+00</totfact>
</mgrwt>
</event>
<event>
 4    1  0.2878104E-007  0.1220244E+04  0.7818608E-02  0.9137691E-01
         -2   -1    0    0    0  501 -0.00000000000E+00  0.00000000000E+00  0.73392020266E+03  0.73392020267E+03  0.25500000000E-02 0.  1.
          2   -1    0    0  501    0  0.00000000000E+00 -0.00000000000E+00 -0.19198881178E+04  0.19198881178E+04  0.25500000000E-02 0. -1.
    8880023    1    1    2    0    0 -0.14065141856E+03  0.10175468854E+04 -0.10434160043E+04  0.16055253501E+04  0.65864270000E+03 0.  0.
    8880022    1    1    2    0    0  0.14065141856E+03 -0.10175468854E+04 -0.14255191079E+03  0.10482829703E+04  0.15294330000E+03 0.  0.
<mgrwt>
<rscale>  0 0.11720369E+04</rscale>
<asrwt>0</asrwt>
<pdfrwt beam="1">  1        2 0.29536740E+00 0.12202437E+04</pdfrwt>
<pdfrwt beam="2">  1       -2 0.11291080E+00 0.12202437E+04</pdfrwt>
<totfact> 0.44496935E+00</totfact>
</mgrwt>
</event>
<event>
 4    1  0.2878104E-007  0.1008543E+04  0.7818608E-02  0.9370465E-01
          2   -1    0    0  501    0  0.00000000000E+00  0.00000000000E+00  0.10130807652E+04  0.10130807652E+04  0.25500000000E-02 0. -1.
         -2   -1    0    0    0  501 -0.00000000000E+00 -0.00000000000E+00 -0.15950201752E+04  0.15950201752E+04  0.25500000000E-02 0.  1.
    8880023    1    1    2    0    0  0.69424574859E+03  0.31838998160E+03 -0.12329779986E+04  0.15929200517E+04  0.65864270000E+03 0.  1.
    8880022    1    1    2    0    0 -0.69424574859E+03 -0.31838998160E+03  0.65103858858E+03  0.10151808886E+04  0.15294330000E+03 0.  0.
<mgrwt>
<rscale>  0 0.94546688E+03</rscale>
<asrwt>0</asrwt>
<pdfrwt beam="1">  1        2 0.15585858E+00 0.10085433E+04</pdfrwt>
<pdfrwt beam="2">  1       -2 0.24538772E+00 0.10085433E+04</pdfrwt>
<totfact> 0.16869000E+00</totfact>
</mgrwt>
</event>
<event>
 4    1  0.2878104E-007  0.9905903E+03  0.7818608E-02  0.9393973E-01
          2   -1    0    0  501    0  0.00000000000E+00  0.00000000000E+00  0.14798086118E+04  0.14798086118E+04  0.25500000000E-02 0. -1.
         -2   -1    0    0    0  501 -0.00000000000E+00 -0.00000000000E+00 -0.84686855467E+03  0.84686855467E+03  0.25500000000E-02 0.  1.
    8880023    1    1    2    0    0  0.54488173932E+03 -0.50056260171E+03 -0.38173789609E+03  0.10615992915E+04  0.65864270000E+03 0.  1.
    8880022    1    1    2    0    0 -0.54488173932E+03  0.50056260171E+03  0.10146779532E+04  0.12650778750E+04  0.15294330000E+03 0.  0.
<mgrwt>
<rscale>  0 0.92573330E+03</rscale>
<asrwt>0</asrwt>
<pdfrwt beam="1">  1        2 0.22766286E+00 0.99059035E+03</pdfrwt>
<pdfrwt beam="2">  1       -2 0.13028747E+00 0.99059035E+03</pdfrwt>
<totfact> 0.55964270E+00</totfact>
</mgrwt>
</event>
<event>
 4    1  0.2878104E-007  0.9644556E+03  0.7818608E-02  0.9429614E-01
         -2   -1    0    0    0  501 -0.00000000000E+00  0.00000000000E+00  0.25908795553E+03  0.25908795555E+03  0.25500000000E-02 0.  1.
          2   -1    0    0  501    0  0.00000000000E+00 -0.00000000000E+00 -0.37901732782E+04  0.37901732782E+04  0.25500000000E-02 0. -1.
    8880023    1    1    2    0    0  0.59360125240E+03  0.37947579139E+03 -0.89282990026E+03  0.13142753746E+04  0.65864270000E+03 0.  0.
    8880022    1    1    2    0    0 -0.59360125240E+03 -0.37947579139E+03 -0.26382554224E+04  0.27349858592E+04  0.15294330000E+03 0.  0.
<mgrwt>
<rscale>  0 0.89678142E+03</rscale>
<asrwt>0</asrwt>
<pdfrwt beam="1">  1        2 0.58310354E+00 0.96445556E+03</pdfrwt>
<pdfrwt beam="2">  1       -2 0.39859688E-01 0.96445556E+03</pdfrwt>
<totfact> 0.31332975E+00</totfact>
</mgrwt>
</event>
<event>
 4    1  0.2878104E-007  0.7321567E+03  0.7818608E-02  0.9883413E-01
         -2   -1    0    0    0  501 -0.00000000000E+00  0.00000000000E+00  0.50991373804E+03  0.50991373805E+03  0.25500000000E-02 0.  1.
          2   -1    0    0  501    0  0.00000000000E+00 -0.00000000000E+00 -0.82374410449E+03  0.82374410449E+03  0.25500000000E-02 0. -1.
    8880023    1    1    2    0    0  0.64772261813E+02 -0.31312591726E+03  0.15254121267E+03  0.74787854214E+03  0.65864270000E+03 0.  1.
    8880022    1    1    2    0    0 -0.64772261813E+02  0.31312591726E+03 -0.46637157912E+03  0.58577930041E+03  0.15294330000E+03 0.  0.
<mgrwt>
<rscale>  0 0.61071959E+03</rscale>
<asrwt>0</asrwt>
<pdfrwt beam="1">  1        2 0.12672986E+00 0.73215674E+03</pdfrwt>
<pdfrwt beam="2">  1       -2 0.78448267E-01 0.73215674E+03</pdfrwt>
<totfact> 0.48577384E+01</totfact>
</mgrwt>
</event>
<event>
 4    1  0.2878104E-007  0.9698644E+03  0.7818608E-02  0.9422092E-01
         -2   -1    0    0    0  501 -0.00000000000E+00  0.00000000000E+00  0.14359305451E+04  0.14359305451E+04  0.25500000000E-02 0.  1.
          2   -1    0    0  501    0  0.00000000000E+00 -0.00000000000E+00 -0.94477769263E+03  0.94477769264E+03  0.25500000000E-02 0. -1.
    8880023    1    1    2    0    0 -0.51684585231E+03  0.48958874997E+03  0.10746605520E+04  0.14475953466E+04  0.65864270000E+03 0.  0.
    8880022    1    1    2    0    0  0.51684585231E+03 -0.48958874997E+03 -0.58350769956E+03  0.93311289114E+03  0.15294330000E+03 0.  0.
<mgrwt>
<rscale>  0 0.90279703E+03</rscale>
<asrwt>0</asrwt>
<pdfrwt beam="1">  1        2 0.14535041E+00 0.96986442E+03</pdfrwt>
<pdfrwt beam="2">  1       -2 0.22091239E+00 0.96986442E+03</pdfrwt>
<totfact> 0.26618576E+00</totfact>
</mgrwt>
</event>
<event>
 4    1  0.2878104E-007  0.7542530E+03  0.7818608E-02  0.9820220E-01
         -2   -1    0    0    0  501 -0.00000000000E+00  0.00000000000E+00  0.12135636778E+04  0.12135636778E+04  0.25500000000E-02 0.  1.
          2   -1    0    0  501    0  0.00000000000E+00 -0.00000000000E+00 -0.28171964471E+03  0.28171964472E+03  0.25500000000E-02 0. -1.
    8880023    1    1    2    0    0 -0.14969466612E+03  0.33567682460E+03  0.48451866601E+03  0.89646860938E+03  0.65864270000E+03 0.  1.
    8880022    1    1    2    0    0  0.14969466612E+03 -0.33567682460E+03  0.44732536712E+03  0.59881471318E+03  0.15294330000E+03 0.  0.
<mgrwt>
<rscale>  0 0.64288647E+03</rscale>
<asrwt>0</asrwt>
<pdfrwt beam="1">  1        2 0.43341483E-01 0.75425303E+03</pdfrwt>
<pdfrwt beam="2">  1       -2 0.18670211E+00 0.75425303E+03</pdfrwt>
<totfact> 0.19501140E+01</totfact>
</mgrwt>
</event>
<event>
 4    1  0.2878104E-007  0.6637366E+03  0.7818608E-02  0.1020618E+00
         -2   -1    0    0    0  501 -0.00000000000E+00  0.00000000000E+00  0.15030736339E+03  0.15030736341E+03  0.25500000000E-02 0.  1.
          2   -1    0    0  501    0  0.00000000000E+00 -0.00000000000E+00 -0.12418630304E+04  0.12418630304E+04  0.25500000000E-02 0. -1.
    8880023    1    1    2    0    0 -0.69587913578E+02  0.43515408530E+02 -0.70418275252E+03  0.96768777181E+03  0.65864270000E+03 0.  1.
    8880022    1    1    2    0    0  0.69587913578E+02 -0.43515408530E+02 -0.38737291453E+03  0.42448262205E+03  0.15294330000E+03 0.  0.
<mgrwt>
<rscale>  0 0.47464358E+03</rscale>
<asrwt>0</asrwt>
<pdfrwt beam="1">  1        2 0.19105584E+00 0.66373660E+03</pdfrwt>
<pdfrwt beam="2">  1       -2 0.23124211E-01 0.66373660E+03</pdfrwt>
<totfact> 0.29956107E+02</totfact>
</mgrwt>
</event>
<event>
 4    1  0.2878104E-007  0.1069185E+04  0.7818608E-02  0.9296167E-01
          2   -1    0    0  501    0  0.00000000000E+00  0.00000000000E+00  0.28968279118E+04  0.28968279118E+04  0.25500000000E-02 0. -1.
         -2   -1    0    0    0  501 -0.00000000000E+00 -0.00000000000E+00 -0.86858557526E+03  0.86858557526E+03  0.25500000000E-02 0.  1.
    8880023    1    1    2    0    0 -0.81085595058E+03  0.22772336025E+03 -0.43756128529E+03  0.11552555501E+04  0.65864270000E+03 0.  1.
    8880022    1    1    2    0    0  0.81085595058E+03 -0.22772336025E+03  0.24658036218E+04  0.26101579370E+04  0.15294330000E+03 0.  0.
<mgrwt>
<rscale>  0 0.10113652E+04</rscale>
<asrwt>0</asrwt>
<pdfrwt beam="1">  1        2 0.44566584E+00 0.10691845E+04</pdfrwt>
<pdfrwt beam="2">  1       -2 0.13362855E+00 0.10691845E+04</pdfrwt>
<totfact> 0.82012886E-01</totfact>
</mgrwt>
</event>
<event>
 4    1  0.2878104E-007  0.8374899E+03  0.7818608E-02  0.9634932E-01
          2   -1    0    0  501    0  0.00000000000E+00  0.00000000000E+00  0.13440549663E+04  0.13440549663E+04  0.25500000000E-02 0. -1.
         -2   -1    0    0    0  501 -0.00000000000E+00 -0.00000000000E+00 -0.74795146826E+03  0.74795146827E+03  0.25500000000E-02 0.  1.
    8880023    1    1    2    0    0  0.51251949608E+03  0.70020700284E+02 -0.42352109963E+03  0.93848785843E+03  0.65864270000E+03 0.  1.
    8880022    1    1    2    0    0 -0.51251949608E+03 -0.70020700284E+02  0.10196245977E+04  0.11535185762E+04  0.15294330000E+03 0.  0.
<mgrwt>
<rscale>  0 0.75026702E+03</rscale>
<asrwt>0</asrwt>
<pdfrwt beam="1">  1        2 0.20677769E+00 0.83748990E+03</pdfrwt>
<pdfrwt beam="2">  1       -2 0.11506946E+00 0.83748990E+03</pdfrwt>
<totfact> 0.92766550E+00</totfact>
</mgrwt>
</event>
<event>
 4    1  0.2878104E-007  0.6971683E+03  0.7818608E-02  0.1000916E+00
         -2   -1    0    0    0  501 -0.00000000000E+00  0.00000000000E+00  0.38535645929E+03  0.38535645930E+03  0.25500000000E-02 0.  1.
          2   -1    0    0  501    0  0.00000000000E+00 -0.00000000000E+00 -0.36619949169E+04  0.36619949169E+04  0.25500000000E-02 0. -1.
    8880023    1    1    2    0    0  0.20937540580E+03  0.91626150031E+02  0.59680429261E+02  0.69971806596E+03  0.65864270000E+03 0.  0.
    8880022    1    1    2    0    0 -0.20937540580E+03 -0.91626150031E+02 -0.33363188869E+04  0.33476333103E+04  0.15294330000E+03 0. -1.
<mgrwt>
<rscale>  0 0.55250529E+03</rscale>
<asrwt>0</asrwt>
<pdfrwt beam="1">  1        2 0.56338381E+00 0.69716829E+03</pdfrwt>
<pdfrwt beam="2">  1       -2 0.59285612E-01 0.69716829E+03</pdfrwt>
<totfact> 0.18332118E+00</totfact>
</mgrwt>
</event>
<event>
 4    1  0.2878104E-007  0.7153496E+03  0.7818608E-02  0.9938647E-01
         -2   -1    0    0    0  501 -0.00000000000E+00  0.00000000000E+00  0.22571694359E+03  0.22571694361E+03  0.25500000000E-02 0.  1.
          2   -1    0    0  501    0  0.00000000000E+00 -0.00000000000E+00 -0.12795254775E+04  0.12795254775E+04  0.25500000000E-02 0. -1.
    8880023    1    1    2    0    0 -0.15223649524E+03 -0.23396334578E+03 -0.52234631553E+03  0.88575994336E+03  0.65864270000E+03 0.  0.
    8880022    1    1    2    0    0  0.15223649524E+03  0.23396334578E+03 -0.53146221834E+03  0.61948247771E+03  0.15294330000E+03 0.  0.
<mgrwt>
<rscale>  0 0.58424281E+03</rscale>
<asrwt>0</asrwt>
<pdfrwt beam="1">  1        2 0.19685007E+00 0.71534957E+03</pdfrwt>
<pdfrwt beam="2">  1       -2 0.34725685E-01 0.71534957E+03</pdfrwt>
<totfact> 0.13440516E+02</totfact>
</mgrwt>
</event>
<event>
 4    1  0.2878104E-007  0.6590704E+03  0.7818608E-02  0.1025130E+00
          2   -1    0    0  501    0  0.00000000000E+00  0.00000000000E+00  0.39224380750E+03  0.39224380751E+03  0.25500000000E-02 0. -1.
         -2   -1    0    0    0  501 -0.00000000000E+00 -0.00000000000E+00 -0.48447536224E+03  0.48447536225E+03  0.25500000000E-02 0.  1.
    8880023    1    1    2    0    0  0.21746558161E+02  0.95231840754E+01 -0.19927085987E+03  0.68853662625E+03  0.65864270000E+03 0.  0.
    8880022    1    1    2    0    0 -0.21746558161E+02 -0.95231840754E+01  0.10703930512E+03  0.18818254351E+03  0.15294330000E+03 0.  0.
<mgrwt>
<rscale>  0 0.45880059E+03</rscale>
<asrwt>0</asrwt>
<pdfrwt beam="1">  1        2 0.60345201E-01 0.65907041E+03</pdfrwt>
<pdfrwt beam="2">  1       -2 0.74534671E-01 0.65907041E+03</pdfrwt>
<totfact> 0.13350318E+02</totfact>
</mgrwt>
</event>
<event>
 4    1  0.2878104E-007  0.7762423E+03  0.7818608E-02  0.9764739E-01
          2   -1    0    0  501    0  0.00000000000E+00  0.00000000000E+00  0.33076325651E+04  0.33076325651E+04  0.25500000000E-02 0. -1.
         -2   -1    0    0    0  501 -0.00000000000E+00 -0.00000000000E+00 -0.23924558625E+03  0.23924558626E+03  0.25500000000E-02 0.  1.
    8880023    1    1    2    0    0  0.37249574904E+03 -0.17317264415E+03  0.46081111151E+03  0.90271752752E+03  0.65864270000E+03 0.  1.
    8880022    1    1    2    0    0 -0.37249574904E+03  0.17317264415E+03  0.26075758674E+04  0.26441606239E+04  0.15294330000E+03 0.  0.
<mgrwt>
<rscale>  0 0.67289663E+03</rscale>
<asrwt>0</asrwt>
<pdfrwt beam="1">  1        2 0.50886649E+00 0.77624227E+03</pdfrwt>
<pdfrwt beam="2">  1       -2 0.36807017E-01 0.77624227E+03</pdfrwt>
<totfact> 0.81824311E+00</totfact>
</mgrwt>
</event>
<event>
 4    1  0.2878104E-007  0.1220557E+04  0.7818608E-02  0.9137394E-01
         -2   -1    0    0    0  501 -0.00000000000E+00  0.00000000000E+00  0.74078635712E+03  0.74078635712E+03  0.25500000000E-02 0.  1.
          2   -1    0    0  501    0  0.00000000000E+00 -0.00000000000E+00 -0.21962733979E+04  0.21962733979E+04  0.25500000000E-02 0. -1.
    8880023    1    1    2    0    0  0.98922841000E+03  0.27816766181E+03 -0.93594923233E+02  0.12241406419E+04  0.65864270000E+03 0.  0.
    8880022    1    1    2    0    0 -0.98922841000E+03 -0.27816766181E+03 -0.13618921175E+04  0.17129191131E+04  0.15294330000E+03 0.  0.
<mgrwt>
<rscale>  0 0.11723668E+04</rscale>
<asrwt>0</asrwt>
<pdfrwt beam="1">  1        2 0.33788821E+00 0.12205574E+04</pdfrwt>
<pdfrwt beam="2">  1       -2 0.11396713E+00 0.12205574E+04</pdfrwt>
<totfact> 0.30534994E+00</totfact>
</mgrwt>
</event>
<event>
 4    1  0.2878104E-007  0.9723132E+03  0.7818608E-02  0.9418712E-01
         -2   -1    0    0    0  501 -0.00000000000E+00  0.00000000000E+00  0.24656993969E+03  0.24656993970E+03  0.25500000000E-02 0.  1.
          2   -1    0    0  501    0  0.00000000000E+00 -0.00000000000E+00 -0.32503088982E+04  0.32503088982E+04  0.25500000000E-02 0. -1.
    8880023    1    1    2    0    0 -0.14298447559E+03  0.70081248428E+03 -0.11614905950E+04  0.15147452944E+04  0.65864270000E+03 0.  1.
    8880022    1    1    2    0    0  0.14298447559E+03 -0.70081248428E+03 -0.18422483635E+04  0.19821335435E+04  0.15294330000E+03 0.  0.
<mgrwt>
<rscale>  0 0.90551625E+03</rscale>
<asrwt>0</asrwt>
<pdfrwt beam="1">  1        2 0.50004749E+00 0.97231317E+03</pdfrwt>
<pdfrwt beam="2">  1       -2 0.37933839E-01 0.97231317E+03</pdfrwt>
<totfact> 0.81475289E+00</totfact>
</mgrwt>
</event>
<event>
 4    1  0.2878104E-007  0.9064885E+03  0.7818608E-02  0.9515695E-01
          2   -1    0    0  501    0  0.00000000000E+00  0.00000000000E+00  0.22990866507E+04  0.22990866507E+04  0.25500000000E-02 0. -1.
         -2   -1    0    0    0  501 -0.00000000000E+00 -0.00000000000E+00 -0.58212482413E+03  0.58212482413E+03  0.25500000000E-02 0.  1.
    8880023    1    1    2    0    0  0.49803962675E+03 -0.37398905417E+03 -0.13944114052E+03  0.91715065305E+03  0.65864270000E+03 0.  0.
    8880022    1    1    2    0    0 -0.49803962675E+03  0.37398905417E+03  0.18564029671E+04  0.19640608218E+04  0.15294330000E+03 0.  0.
<mgrwt>
<rscale>  0 0.83136544E+03</rscale>
<asrwt>0</asrwt>
<pdfrwt beam="1">  1        2 0.35370563E+00 0.90648855E+03</pdfrwt>
<pdfrwt beam="2">  1       -2 0.89557666E-01 0.90648855E+03</pdfrwt>
<totfact> 0.49421336E+00</totfact>
</mgrwt>
</event>
<event>
 4    1  0.2878104E-007  0.8179580E+03  0.7818608E-02  0.9673233E-01
         -2   -1    0    0    0  501 -0.00000000000E+00  0.00000000000E+00  0.70374110979E+03  0.70374110979E+03  0.25500000000E-02 0.  1.
          2   -1    0    0  501    0  0.00000000000E+00 -0.00000000000E+00 -0.15826146941E+04  0.15826146941E+04  0.25500000000E-02 0. -1.
    8880023    1    1    2    0    0  0.32197902636E+03  0.36273222792E+03  0.39966981498E+03  0.91037977232E+03  0.65864270000E+03 0.  1.
    8880022    1    1    2    0    0 -0.32197902636E+03 -0.36273222792E+03 -0.12785433993E+04  0.13759760315E+04  0.15294330000E+03 0.  0.
<mgrwt>
<rscale>  0 0.72633098E+03</rscale>
<asrwt>0</asrwt>
<pdfrwt beam="1">  1        2 0.24347918E+00 0.81795805E+03</pdfrwt>
<pdfrwt beam="2">  1       -2 0.10826786E+00 0.81795805E+03</pdfrwt>
<totfact> 0.79189549E+00</totfact>
</mgrwt>
</event>
<event>
 4    1  0.2878104E-007  0.6622982E+03  0.7818608E-02  0.1021916E+00
          2   -1    0    0  501    0  0.00000000000E+00  0.00000000000E+00  0.92619743311E+03  0.92619743311E+03  0.25500000000E-02 0. -1.
         -2   -1    0    0    0  501 -0.00000000000E+00 -0.00000000000E+00 -0.35140499152E+03  0.35140499153E+03  0.25500000000E-02 0.  1.
    8880023    1    1    2    0    0  0.14662130008E+02  0.67924723259E+02 -0.16911233582E+02  0.66251410715E+03  0.65864270000E+03 0.  1.
    8880022    1    1    2    0    0 -0.14662130008E+02 -0.67924723259E+02  0.59170367517E+03  0.61508831749E+03  0.15294330000E+03 0.  0.
<mgrwt>
<rscale>  0 0.47001378E+03</rscale>
<asrwt>0</asrwt>
<pdfrwt beam="1">  1        2 0.14249191E+00 0.66229824E+03</pdfrwt>
<pdfrwt beam="2">  1       -2 0.54062307E-01 0.66229824E+03</pdfrwt>
<totfact> 0.92549838E+01</totfact>
</mgrwt>
</event>
<event>
 4    1  0.2878104E-007  0.9163636E+03  0.7818608E-02  0.9500257E-01
          2   -1    0    0  501    0  0.00000000000E+00  0.00000000000E+00  0.21107058320E+04  0.21107058320E+04  0.25500000000E-02 0. -1.
         -2   -1    0    0    0  501 -0.00000000000E+00 -0.00000000000E+00 -0.86597356121E+03  0.86597356122E+03  0.25500000000E-02 0.  1.
    8880023    1    1    2    0    0 -0.19959836872E+03  0.60503932446E+03 -0.54816819313E+03  0.10678064746E+04  0.65864270000E+03 0.  1.
    8880022    1    1    2    0    0  0.19959836872E+03 -0.60503932446E+03  0.17929004639E+04  0.19088729186E+04  0.15294330000E+03 0.  0.
<mgrwt>
<rscale>  0 0.84264853E+03</rscale>
<asrwt>0</asrwt>
<pdfrwt beam="1">  1        2 0.32472397E+00 0.91636363E+03</pdfrwt>
<pdfrwt beam="2">  1       -2 0.13322670E+00 0.91636363E+03</pdfrwt>
<totfact> 0.23927238E+00</totfact>
</mgrwt>
</event>
<event>
 4    1  0.2878104E-007  0.1175719E+04  0.7818608E-02  0.9181094E-01
          2   -1    0    0  501    0  0.00000000000E+00  0.00000000000E+00  0.97157918127E+03  0.97157918127E+03  0.25500000000E-02 0. -1.
         -2   -1    0    0    0  501 -0.00000000000E+00 -0.00000000000E+00 -0.16414674931E+04  0.16414674931E+04  0.25500000000E-02 0.  1.
    8880023    1    1    2    0    0  0.25689653492E+03 -0.93941994480E+03 -0.10304060287E+04  0.15633465555E+04  0.65864270000E+03 0.  1.
    8880022    1    1    2    0    0 -0.25689653492E+03  0.93941994480E+03  0.36051771689E+03  0.10497001189E+04  0.15294330000E+03 0.  0.
<mgrwt>
<rscale>  0 0.11250719E+04</rscale>
<asrwt>0</asrwt>
<pdfrwt beam="1">  1        2 0.14947372E+00 0.11757193E+04</pdfrwt>
<pdfrwt beam="2">  1       -2 0.25253346E+00 0.11757193E+04</pdfrwt>
<totfact> 0.15920566E+00</totfact>
</mgrwt>
</event>
<event>
 4    1  0.2878104E-007  0.8348510E+03  0.7818608E-02  0.9639967E-01
         -2   -1    0    0    0  501 -0.00000000000E+00  0.00000000000E+00  0.66166742591E+03  0.66166742591E+03  0.25500000000E-02 0.  1.
          2   -1    0    0  501    0  0.00000000000E+00 -0.00000000000E+00 -0.24718362460E+04  0.24718362460E+04  0.25500000000E-02 0. -1.
    8880023    1    1    2    0    0 -0.35814981332E+03 -0.36728017395E+03  0.35202183463E+03  0.90603288752E+03  0.65864270000E+03 0.  1.
    8880022    1    1    2    0    0  0.35814981332E+03  0.36728017395E+03 -0.21621906547E+04  0.22274707844E+04  0.15294330000E+03 0.  0.
<mgrwt>
<rscale>  0 0.74706474E+03</rscale>
<asrwt>0</asrwt>
<pdfrwt beam="1">  1        2 0.38028250E+00 0.83485102E+03</pdfrwt>
<pdfrwt beam="2">  1       -2 0.10179499E+00 0.83485102E+03</pdfrwt>
<totfact> 0.29581371E+00</totfact>
</mgrwt>
</event>
<event>
 4    1  0.2878104E-007  0.1402838E+04  0.7818608E-02  0.8981480E-01
         -2   -1    0    0    0  501 -0.00000000000E+00  0.00000000000E+00  0.14874429889E+04  0.14874429889E+04  0.25500000000E-02 0.  1.
          2   -1    0    0  501    0  0.00000000000E+00 -0.00000000000E+00 -0.24520248183E+04  0.24520248183E+04  0.25500000000E-02 0. -1.
    8880023    1    1    2    0    0 -0.10278741427E+04  0.69110057498E+03  0.92109439560E+03  0.16782045018E+04  0.65864270000E+03 0.  0.
    8880022    1    1    2    0    0  0.10278741427E+04 -0.69110057498E+03 -0.18856762250E+04  0.22612633054E+04  0.15294330000E+03 0.  0.
<mgrwt>
<rscale>  0 0.13624185E+04</rscale>
<asrwt>0</asrwt>
<pdfrwt beam="1">  1        2 0.37723459E+00 0.14028384E+04</pdfrwt>
<pdfrwt beam="2">  1       -2 0.22883738E+00 0.14028384E+04</pdfrwt>
<totfact> 0.30626732E-01</totfact>
</mgrwt>
</event>
<event>
 4    1  0.2878104E-007  0.6660222E+03  0.7818608E-02  0.1018691E+00
          2   -1    0    0  501    0  0.00000000000E+00  0.00000000000E+00  0.25391619082E+04  0.25391619082E+04  0.25500000000E-02 0. -1.
         -2   -1    0    0    0  501 -0.00000000000E+00 -0.00000000000E+00 -0.14910049475E+03  0.14910049478E+03  0.25500000000E-02 0.  1.
    8880023    1    1    2    0    0 -0.84722711907E+02  0.50964618932E+02  0.62345864095E+03  0.91229721776E+03  0.65864270000E+03 0.  1.
    8880022    1    1    2    0    0  0.84722711907E+02 -0.50964618932E+02  0.17666027725E+04  0.17759651852E+04  0.15294330000E+03 0.  0.
<mgrwt>
<rscale>  0 0.48162028E+03</rscale>
<asrwt>0</asrwt>
<pdfrwt beam="1">  1        2 0.39064028E+00 0.66602217E+03</pdfrwt>
<pdfrwt beam="2">  1       -2 0.22938538E-01 0.66602217E+03</pdfrwt>
<totfact> 0.58238887E+01</totfact>
</mgrwt>
</event>
<event>
 4    1  0.2878104E-007  0.1179037E+04  0.7818608E-02  0.9177774E-01
          2   -1    0    0  501    0  0.00000000000E+00  0.00000000000E+00  0.67692102551E+03  0.67692102551E+03  0.25500000000E-02 0. -1.
         -2   -1    0    0    0  501 -0.00000000000E+00 -0.00000000000E+00 -0.18268141063E+04  0.18268141063E+04  0.25500000000E-02 0.  1.
    8880023    1    1    2    0    0 -0.70113568739E+03  0.68170902027E+03 -0.89886862174E+03  0.14825968589E+04  0.65864270000E+03 0. -1.
    8880022    1    1    2    0    0  0.70113568739E+03 -0.68170902027E+03 -0.25102445906E+03  0.10211382730E+04  0.15294330000E+03 0.  1.
<mgrwt>
<rscale>  0 0.11285812E+04</rscale>
<asrwt>0</asrwt>
<pdfrwt beam="1">  1        2 0.10414170E+00 0.11790372E+04</pdfrwt>
<pdfrwt beam="2">  1       -2 0.28104832E+00 0.11790372E+04</pdfrwt>
<totfact> 0.17435322E+00</totfact>
</mgrwt>
</event>
<event>
 4    1  0.2878104E-007  0.6705032E+03  0.7818608E-02  0.1015305E+00
         -2   -1    0    0    0  501 -0.00000000000E+00  0.00000000000E+00  0.11077477718E+03  0.11077477721E+03  0.25500000000E-02 0.  1.
          2   -1    0    0  501    0  0.00000000000E+00 -0.00000000000E+00 -0.21373699269E+04  0.21373699269E+04  0.25500000000E-02 0. -1.
    8880023    1    1    2    0    0 -0.93692601753E+02  0.83582514580E+02 -0.10088638409E+04  0.12113549423E+04  0.65864270000E+03 0.  0.
    8880022    1    1    2    0    0  0.93692601753E+02 -0.83582514580E+02 -0.10177313087E+04  0.10367897618E+04  0.15294330000E+03 0. -1.
<mgrwt>
<rscale>  0 0.49419736E+03</rscale>
<asrwt>0</asrwt>
<pdfrwt beam="1">  1        2 0.32882611E+00 0.67050320E+03</pdfrwt>
<pdfrwt beam="2">  1       -2 0.17042275E-01 0.67050320E+03</pdfrwt>
<totfact> 0.16348772E+02</totfact>
</mgrwt>
</event>
<event>
 4    1  0.2878104E-007  0.7326911E+03  0.7818608E-02  0.9881773E-01
          2   -1    0    0  501    0  0.00000000000E+00  0.00000000000E+00  0.14824726936E+04  0.14824726936E+04  0.25500000000E-02 0. -1.
         -2   -1    0    0    0  501 -0.00000000000E+00 -0.00000000000E+00 -0.36241602197E+03  0.36241602198E+03  0.25500000000E-02 0.  1.
    8880023    1    1    2    0    0  0.21712646946E+02  0.32024143973E+03  0.69715913699E+02  0.73600036253E+03  0.65864270000E+03 0.  1.
    8880022    1    1    2    0    0 -0.21712646946E+02 -0.32024143973E+03  0.10503407579E+04  0.11088883530E+04  0.15294330000E+03 0.  0.
<mgrwt>
<rscale>  0 0.61152843E+03</rscale>
<asrwt>0</asrwt>
<pdfrwt beam="1">  1        2 0.22807272E+00 0.73269108E+03</pdfrwt>
<pdfrwt beam="2">  1       -2 0.55756311E-01 0.73269108E+03</pdfrwt>
<totfact> 0.40190757E+01</totfact>
</mgrwt>
</event>
<event>
 4    1  0.2878104E-007  0.7303905E+03  0.7818608E-02  0.9888878E-01
         -2   -1    0    0    0  501 -0.00000000000E+00  0.00000000000E+00  0.10864102776E+04  0.10864102776E+04  0.25500000000E-02 0.  1.
          2   -1    0    0  501    0  0.00000000000E+00 -0.00000000000E+00 -0.49418616949E+03  0.49418616950E+03  0.25500000000E-02 0. -1.
    8880023    1    1    2    0    0  0.89295029190E+02 -0.30279785790E+03  0.86797969695E+03  0.11343981248E+04  0.65864270000E+03 0.  1.
    8880022    1    1    2    0    0 -0.89295029190E+02  0.30279785790E+03 -0.27575558887E+03  0.44619832227E+03  0.15294330000E+03 0.  0.
<mgrwt>
<rscale>  0 0.60803328E+03</rscale>
<asrwt>0</asrwt>
<pdfrwt beam="1">  1        2 0.76028642E-01 0.73039055E+03</pdfrwt>
<pdfrwt beam="2">  1       -2 0.16714004E+00 0.73039055E+03</pdfrwt>
<totfact> 0.14184151E+01</totfact>
</mgrwt>
</event>
<event>
 4    1  0.2878104E-007  0.1328577E+04  0.7818608E-02  0.9041267E-01
          2   -1    0    0  501    0  0.00000000000E+00  0.00000000000E+00  0.14213444640E+04  0.14213444640E+04  0.25500000000E-02 0. -1.
         -2   -1    0    0    0  501 -0.00000000000E+00 -0.00000000000E+00 -0.11630859412E+04  0.11630859412E+04  0.25500000000E-02 0.  1.
    8880023    1    1    2    0    0 -0.11515216067E+04  0.72829611150E+02  0.45433721838E+03  0.14041149089E+04  0.65864270000E+03 0.  0.
    8880022    1    1    2    0    0  0.11515216067E+04 -0.72829611150E+02 -0.19607869554E+03  0.11803154963E+04  0.15294330000E+03 0.  0.
<mgrwt>
<rscale>  0 0.12853468E+04</rscale>
<asrwt>0</asrwt>
<pdfrwt beam="1">  1        2 0.21866838E+00 0.13285768E+04</pdfrwt>
<pdfrwt beam="2">  1       -2 0.17893630E+00 0.13285768E+04</pdfrwt>
<totfact> 0.24877538E+00</totfact>
</mgrwt>
</event>
<event>
 4    1  0.2878104E-007  0.1178441E+04  0.7818608E-02  0.9178369E-01
          2   -1    0    0  501    0  0.00000000000E+00  0.00000000000E+00  0.16706938489E+04  0.16706938489E+04  0.25500000000E-02 0. -1.
         -2   -1    0    0    0  501 -0.00000000000E+00 -0.00000000000E+00 -0.84702824392E+03  0.84702824392E+03  0.25500000000E-02 0.  1.
    8880023    1    1    2    0    0  0.24662258742E+03 -0.94556350980E+03 -0.75705359262E+02  0.11808702551E+04  0.65864270000E+03 0.  0.
    8880022    1    1    2    0    0 -0.24662258742E+03  0.94556350980E+03  0.89937096426E+03  0.13368518377E+04  0.15294330000E+03 0.  0.
<mgrwt>
<rscale>  0 0.11279508E+04</rscale>
<asrwt>0</asrwt>
<pdfrwt beam="1">  1        2 0.25702982E+00 0.11784410E+04</pdfrwt>
<pdfrwt beam="2">  1       -2 0.13031204E+00 0.11784410E+04</pdfrwt>
<totfact> 0.42898884E+00</totfact>
</mgrwt>
</event>
<event>
 4    1  0.2878104E-007  0.6779517E+03  0.7818608E-02  0.1010507E+00
         -2   -1    0    0    0  501 -0.00000000000E+00  0.00000000000E+00  0.20858865325E+03  0.20858865326E+03  0.25500000000E-02 0.  1.
          2   -1    0    0  501    0  0.00000000000E+00 -0.00000000000E+00 -0.26969502535E+04  0.26969502535E+04  0.25500000000E-02 0. -1.
    8880023    1    1    2    0    0  0.11272605405E+03 -0.11446037670E+03 -0.36373364887E+03  0.76936383765E+03  0.65864270000E+03 0.  1.
    8880022    1    1    2    0    0 -0.11272605405E+03  0.11446037670E+03 -0.21246279513E+04  0.21361750691E+04  0.15294330000E+03 0.  0.
<mgrwt>
<rscale>  0 0.51273706E+03</rscale>
<asrwt>0</asrwt>
<pdfrwt beam="1">  1        2 0.41491540E+00 0.67795173E+03</pdfrwt>
<pdfrwt beam="2">  1       -2 0.32090564E-01 0.67795173E+03</pdfrwt>
<totfact> 0.25577074E+01</totfact>
</mgrwt>
</event>
<event>
 4    1  0.2878104E-007  0.6743929E+03  0.7818608E-02  0.1012692E+00
         -2   -1    0    0    0  501 -0.00000000000E+00  0.00000000000E+00  0.12806818041E+04  0.12806818042E+04  0.25500000000E-02 0.  1.
          2   -1    0    0  501    0  0.00000000000E+00 -0.00000000000E+00 -0.39839979272E+03  0.39839979273E+03  0.25500000000E-02 0. -1.
    8880023    1    1    2    0    0 -0.46213141864E+01 -0.14482500028E+03  0.11531802676E+04  0.13359006599E+04  0.65864270000E+03 0.  1.
    8880022    1    1    2    0    0  0.46213141864E+01  0.14482500028E+03 -0.27089825621E+03  0.34318093695E+03  0.15294330000E+03 0.  0.
<mgrwt>
<rscale>  0 0.50418752E+03</rscale>
<asrwt>0</asrwt>
<pdfrwt beam="1">  1        2 0.61292275E-01 0.67439294E+03</pdfrwt>
<pdfrwt beam="2">  1       -2 0.19702797E+00 0.67439294E+03</pdfrwt>
<totfact> 0.11406051E+01</totfact>
</mgrwt>
</event>
<event>
 4    1  0.2878104E-007  0.8286375E+03  0.7818608E-02  0.9651989E-01
          2   -1    0    0  501    0  0.00000000000E+00  0.00000000000E+00  0.17554919087E+04  0.17554919087E+04  0.25500000000E-02 0. -1.
         -2   -1    0    0    0  501 -0.00000000000E+00 -0.00000000000E+00 -0.92435131763E+03  0.92435131763E+03  0.25500000000E-02 0.  1.
    8880023    1    1    2    0    0 -0.27735740375E+03  0.41940761244E+03 -0.68505112634E+03  0.10751442353E+04  0.65864270000E+03 0.  0.
    8880022    1    1    2    0    0  0.27735740375E+03 -0.41940761244E+03  0.15161917174E+04  0.16046989910E+04  0.15294330000E+03 0.  0.
<mgrwt>
<rscale>  0 0.73948713E+03</rscale>
<asrwt>0</asrwt>
<pdfrwt beam="1">  1        2 0.27007568E+00 0.82863748E+03</pdfrwt>
<pdfrwt beam="2">  1       -2 0.14220790E+00 0.82863748E+03</pdfrwt>
<totfact> 0.32083441E+00</totfact>
</mgrwt>
</event>
<event>
 4    1  0.2878104E-007  0.1470443E+04  0.7818608E-02  0.8930794E-01
          2   -1    0    0  501    0  0.00000000000E+00  0.00000000000E+00  0.88966996399E+03  0.88966996399E+03  0.25500000000E-02 0. -1.
         -2   -1    0    0    0  501 -0.00000000000E+00 -0.00000000000E+00 -0.40050204377E+04  0.40050204377E+04  0.25500000000E-02 0.  1.
    8880023    1    1    2    0    0  0.52121231687E+03  0.12069502493E+04 -0.32471711831E+04  0.35645928354E+04  0.65864270000E+03 0.  0.
    8880022    1    1    2    0    0 -0.52121231687E+03 -0.12069502493E+04  0.13182070937E+03  0.13300975663E+04  0.15294330000E+03 0.  0.
<mgrwt>
<rscale>  0 0.14322574E+04</rscale>
<asrwt>0</asrwt>
<pdfrwt beam="1">  1        2 0.13687230E+00 0.14704426E+04</pdfrwt>
<pdfrwt beam="2">  1       -2 0.61615698E+00 0.14704426E+04</pdfrwt>
<totfact> 0.12109360E-02</totfact>
</mgrwt>
</event>
<event>
 4    1  0.2878104E-007  0.9478156E+03  0.7818608E-02  0.9453264E-01
          2   -1    0    0  501    0  0.00000000000E+00  0.00000000000E+00  0.11719279390E+04  0.11719279390E+04  0.25500000000E-02 0. -1.
         -2   -1    0    0    0  501 -0.00000000000E+00 -0.00000000000E+00 -0.10647403424E+04  0.10647403424E+04  0.25500000000E-02 0.  1.
    8880023    1    1    2    0    0  0.68153827642E+03 -0.70502298640E+01  0.80925774670E+03  0.12462954846E+04  0.65864270000E+03 0. -1.
    8880022    1    1    2    0    0 -0.68153827642E+03  0.70502298640E+01 -0.70207015009E+03  0.99037279680E+03  0.15294330000E+03 0.  0.
<mgrwt>
<rscale>  0 0.87818944E+03</rscale>
<asrwt>0</asrwt>
<pdfrwt beam="1">  1        2 0.18029661E+00 0.94781556E+03</pdfrwt>
<pdfrwt beam="2">  1       -2 0.16380621E+00 0.94781556E+03</pdfrwt>
<totfact> 0.46361878E+00</totfact>
</mgrwt>
</event>
<event>
 4    1  0.2878104E-007  0.6776037E+03  0.7818608E-02  0.1010713E+00
         -2   -1    0    0    0  501 -0.00000000000E+00  0.00000000000E+00  0.19488804650E+04  0.19488804650E+04  0.25500000000E-02 0.  1.
          2   -1    0    0  501    0  0.00000000000E+00 -0.00000000000E+00 -0.36385481515E+03  0.36385481516E+03  0.25500000000E-02 0. -1.
    8880023    1    1    2    0    0 -0.15566483681E+03 -0.33242600562E+02  0.18486342641E+04  0.19689071742E+04  0.65864270000E+03 0.  1.
    8880022    1    1    2    0    0  0.15566483681E+03  0.33242600562E+02 -0.26360861427E+03  0.34382810596E+03  0.15294330000E+03 0.  0.
<mgrwt>
<rscale>  0 0.51192279E+03</rscale>
<asrwt>0</asrwt>
<pdfrwt beam="1">  1        2 0.55977663E-01 0.67760373E+03</pdfrwt>
<pdfrwt beam="2">  1       -2 0.29982777E+00 0.67760373E+03</pdfrwt>
<totfact> 0.29646062E+00</totfact>
</mgrwt>
</event>
<event>
 4    1  0.2878104E-007  0.1112346E+04  0.7818608E-02  0.9247434E-01
          2   -1    0    0  501    0  0.00000000000E+00  0.00000000000E+00  0.22116335660E+04  0.22116335660E+04  0.25500000000E-02 0. -1.
         -2   -1    0    0    0  501 -0.00000000000E+00 -0.00000000000E+00 -0.68652770918E+03  0.68652770919E+03  0.25500000000E-02 0.  1.
    8880023    1    1    2    0    0 -0.28874168257E+03 -0.84860549934E+03 -0.11780374202E+02  0.11124082147E+04  0.65864270000E+03 0.  1.
    8880022    1    1    2    0    0  0.28874168257E+03  0.84860549934E+03  0.15368862310E+04  0.17857530604E+04  0.15294330000E+03 0.  0.
<mgrwt>
<rscale>  0 0.10576967E+04</rscale>
<asrwt>0</asrwt>
<pdfrwt beam="1">  1        2 0.34025131E+00 0.11123458E+04</pdfrwt>
<pdfrwt beam="2">  1       -2 0.10561965E+00 0.11123458E+04</pdfrwt>
<totfact> 0.36472341E+00</totfact>
</mgrwt>
</event>
<event>
 4    1  0.2878104E-007  0.7675579E+03  0.7818608E-02  0.9785920E-01
         -2   -1    0    0    0  501 -0.00000000000E+00  0.00000000000E+00  0.16075530161E+04  0.16075530161E+04  0.25500000000E-02 0.  1.
          2   -1    0    0  501    0  0.00000000000E+00 -0.00000000000E+00 -0.71558024083E+03  0.71558024084E+03  0.25500000000E-02 0. -1.
    8880023    1    1    2    0    0 -0.34222479594E+03  0.19549214652E+03  0.14395217006E+04  0.16313699528E+04  0.65864270000E+03 0.  1.
    8880022    1    1    2    0    0  0.34222479594E+03 -0.19549214652E+03 -0.54754892530E+03  0.69176330412E+03  0.15294330000E+03 0.  0.
<mgrwt>
<rscale>  0 0.66123684E+03</rscale>
<asrwt>0</asrwt>
<pdfrwt beam="1">  1        2 0.11008927E+00 0.76755794E+03</pdfrwt>
<pdfrwt beam="2">  1       -2 0.24731584E+00 0.76755794E+03</pdfrwt>
<totfact> 0.27331253E+00</totfact>
</mgrwt>
</event>
<event>
 4    1  0.2878104E-007  0.7054329E+03  0.7818608E-02  0.9975368E-01
          2   -1    0    0  501    0  0.00000000000E+00  0.00000000000E+00  0.12914154699E+04  0.12914154699E+04  0.25500000000E-02 0. -1.
         -2   -1    0    0    0  501 -0.00000000000E+00 -0.00000000000E+00 -0.44581234088E+03  0.44581234088E+03  0.25500000000E-02 0.  1.
    8880023    1    1    2    0    0  0.23922406501E+03 -0.81223336136E+02 -0.13052153433E+03  0.71740606409E+03  0.65864270000E+03 0.  1.
    8880022    1    1    2    0    0 -0.23922406501E+03  0.81223336136E+02  0.97612466339E+03  0.10198217467E+04  0.15294330000E+03 0.  0.
<mgrwt>
<rscale>  0 0.56743609E+03</rscale>
<asrwt>0</asrwt>
<pdfrwt beam="1">  1        2 0.19867930E+00 0.70543291E+03</pdfrwt>
<pdfrwt beam="2">  1       -2 0.68586515E-01 0.70543291E+03</pdfrwt>
<totfact> 0.33307373E+01</totfact>
</mgrwt>
</event>
<event>
 4    1  0.2878104E-007  0.7959411E+03  0.7818608E-02  0.9719642E-01
         -2   -1    0    0    0  501 -0.00000000000E+00  0.00000000000E+00  0.36410474780E+03  0.36410474781E+03  0.25500000000E-02 0.  1.
          2   -1    0    0  501    0  0.00000000000E+00 -0.00000000000E+00 -0.36599589646E+04  0.36599589646E+04  0.25500000000E-02 0. -1.
    8880023    1    1    2    0    0 -0.19258344693E+03  0.40326615354E+03 -0.11014207791E+03  0.80352564254E+03  0.65864270000E+03 0.  1.
    8880022    1    1    2    0    0  0.19258344693E+03 -0.40326615354E+03 -0.31857121389E+04  0.32205380699E+04  0.15294330000E+03 0.  0.
<mgrwt>
<rscale>  0 0.69859265E+03</rscale>
<asrwt>0</asrwt>
<pdfrwt beam="1">  1        2 0.56307058E+00 0.79594107E+03</pdfrwt>
<pdfrwt beam="2">  1       -2 0.56016118E-01 0.79594107E+03</pdfrwt>
<totfact> 0.20248001E+00</totfact>
</mgrwt>
</event>
<event>
 4    1  0.2878104E-007  0.1056293E+04  0.7818608E-02  0.9311355E-01
         -2   -1    0    0    0  501 -0.00000000000E+00  0.00000000000E+00  0.67597116201E+03  0.67597116201E+03  0.25500000000E-02 0.  1.
          2   -1    0    0  501    0  0.00000000000E+00 -0.00000000000E+00 -0.31215567606E+04  0.31215567606E+04  0.25500000000E-02 0. -1.
    8880023    1    1    2    0    0 -0.58159156079E+03 -0.58625532713E+03  0.15234335214E+03  0.10672219804E+04  0.65864270000E+03 0.  1.
    8880022    1    1    2    0    0  0.58159156079E+03  0.58625532713E+03 -0.25979289508E+04  0.27303059423E+04  0.15294330000E+03 0.  0.
<mgrwt>
<rscale>  0 0.99744209E+03</rscale>
<asrwt>0</asrwt>
<pdfrwt beam="1">  1        2 0.48023949E+00 0.10562927E+04</pdfrwt>
<pdfrwt beam="2">  1       -2 0.10399557E+00 0.10562927E+04</pdfrwt>
<totfact> 0.11108771E+00</totfact>
</mgrwt>
</event>
<event>
 4    1  0.2878104E-007  0.7099833E+03  0.7818608E-02  0.9958063E-01
          2   -1    0    0  501    0  0.00000000000E+00  0.00000000000E+00  0.17081245568E+04  0.17081245568E+04  0.25500000000E-02 0. -1.
         -2   -1    0    0    0  501 -0.00000000000E+00 -0.00000000000E+00 -0.39230258183E+03  0.39230258184E+03  0.25500000000E-02 0.  1.
    8880023    1    1    2    0    0  0.20517889467E+03 -0.16783231895E+03 -0.39404585969E+02  0.71107594092E+03  0.65864270000E+03 0.  1.
    8880022    1    1    2    0    0 -0.20517889467E+03  0.16783231895E+03  0.13552265609E+04  0.13893511977E+04  0.15294330000E+03 0.  0.
<mgrwt>
<rscale>  0 0.57527969E+03</rscale>
<asrwt>0</asrwt>
<pdfrwt beam="1">  1        2 0.26278840E+00 0.70998329E+03</pdfrwt>
<pdfrwt beam="2">  1       -2 0.60354242E-01 0.70998329E+03</pdfrwt>
<totfact> 0.25634781E+01</totfact>
</mgrwt>
</event>
<event>
 4    1  0.2878104E-007  0.7205965E+03  0.7818608E-02  0.9920573E-01
          2   -1    0    0  501    0  0.00000000000E+00  0.00000000000E+00  0.17297726860E+04  0.17297726860E+04  0.25500000000E-02 0. -1.
         -2   -1    0    0    0  501 -0.00000000000E+00 -0.00000000000E+00 -0.29840642965E+03  0.29840642966E+03  0.25500000000E-02 0.  1.
    8880023    1    1    2    0    0 -0.22252836127E+02  0.29146853541E+03  0.19211608338E+03  0.74576664689E+03  0.65864270000E+03 0.  0.
    8880022    1    1    2    0    0  0.22252836127E+02 -0.29146853541E+03  0.12392501730E+04  0.12824124688E+04  0.15294330000E+03 0.  0.
<mgrwt>
<rscale>  0 0.59274520E+03</rscale>
<asrwt>0</asrwt>
<pdfrwt beam="1">  1        2 0.26611887E+00 0.72059649E+03</pdfrwt>
<pdfrwt beam="2">  1       -2 0.45908682E-01 0.72059649E+03</pdfrwt>
<totfact> 0.43718897E+01</totfact>
</mgrwt>
</event>
<event>
 4    1  0.2878104E-007  0.9006887E+03  0.7818608E-02  0.9524927E-01
         -2   -1    0    0    0  501 -0.00000000000E+00  0.00000000000E+00  0.98980055719E+03  0.98980055719E+03  0.25500000000E-02 0.  1.
          2   -1    0    0  501    0  0.00000000000E+00 -0.00000000000E+00 -0.14425948444E+04  0.14425948444E+04  0.25500000000E-02 0. -1.
    8880023    1    1    2    0    0 -0.19986426578E+03 -0.58093384937E+03  0.68415123314E+03  0.11310627649E+04  0.65864270000E+03 0.  1.
    8880022    1    1    2    0    0  0.19986426578E+03  0.58093384937E+03 -0.11369455204E+04  0.13013326367E+04  0.15294330000E+03 0.  0.
<mgrwt>
<rscale>  0 0.82470742E+03</rscale>
<asrwt>0</asrwt>
<pdfrwt beam="1">  1        2 0.22193767E+00 0.90068866E+03</pdfrwt>
<pdfrwt beam="2">  1       -2 0.15227701E+00 0.90068866E+03</pdfrwt>
<totfact> 0.39551533E+00</totfact>
</mgrwt>
</event>
<event>
 4    1  0.2878104E-007  0.1072123E+04  0.7818608E-02  0.9292747E-01
          2   -1    0    0  501    0  0.00000000000E+00  0.00000000000E+00  0.31928431662E+04  0.31928431662E+04  0.25500000000E-02 0. -1.
         -2   -1    0    0    0  501 -0.00000000000E+00 -0.00000000000E+00 -0.55975171741E+03  0.55975171741E+03  0.25500000000E-02 0.  1.
    8880023    1    1    2    0    0 -0.30474623023E+03 -0.78915617731E+03  0.99033012636E+02  0.10766872716E+04  0.65864270000E+03 0.  0.
    8880022    1    1    2    0    0  0.30474623023E+03  0.78915617731E+03  0.25340584361E+04  0.26759076120E+04  0.15294330000E+03 0.  0.
<mgrwt>
<rscale>  0 0.10145331E+04</rscale>
<asrwt>0</asrwt>
<pdfrwt beam="1">  1        2 0.49120664E+00 0.10721231E+04</pdfrwt>
<pdfrwt beam="2">  1       -2 0.86115648E-01 0.10721231E+04</pdfrwt>
<totfact> 0.15548350E+00</totfact>
</mgrwt>
</event>
<event>
 4    1  0.2878104E-007  0.1136322E+04  0.7818608E-02  0.9221654E-01
         -2   -1    0    0    0  501 -0.00000000000E+00  0.00000000000E+00  0.15886799956E+04  0.15886799956E+04  0.25500000000E-02 0.  1.
          2   -1    0    0  501    0  0.00000000000E+00 -0.00000000000E+00 -0.98930976290E+03  0.98930976290E+03  0.25500000000E-02 0. -1.
    8880023    1    1    2    0    0  0.41375933727E+03 -0.82838463457E+03 -0.40221571248E+03  0.12054068100E+04  0.65864270000E+03 0. -1.
    8880022    1    1    2    0    0 -0.41375933727E+03  0.82838463457E+03  0.10015859452E+04  0.13725829485E+04  0.15294330000E+03 0.  0.
<mgrwt>
<rscale>  0 0.10832691E+04</rscale>
<asrwt>0</asrwt>
<pdfrwt beam="1">  1        2 0.15220150E+00 0.11363222E+04</pdfrwt>
<pdfrwt beam="2">  1       -2 0.24441230E+00 0.11363222E+04</pdfrwt>
<totfact> 0.17457195E+00</totfact>
</mgrwt>
</event>
<event>
 4    1  0.2878104E-007  0.9155247E+03  0.7818608E-02  0.9501555E-01
         -2   -1    0    0    0  501 -0.00000000000E+00  0.00000000000E+00  0.53567187559E+03  0.53567187560E+03  0.25500000000E-02 0.  1.
          2   -1    0    0  501    0  0.00000000000E+00 -0.00000000000E+00 -0.24763009796E+04  0.24763009796E+04  0.25500000000E-02 0. -1.
    8880023    1    1    2    0    0  0.43676089285E+03  0.46218519303E+03  0.49763660666E+02  0.91687614123E+03  0.65864270000E+03 0.  0.
    8880022    1    1    2    0    0 -0.43676089285E+03 -0.46218519303E+03 -0.19903927647E+04  0.20950967140E+04  0.15294330000E+03 0. -1.
<mgrwt>
<rscale>  0 0.84169246E+03</rscale>
<asrwt>0</asrwt>
<pdfrwt beam="1">  1        2 0.38096937E+00 0.91552468E+03</pdfrwt>
<pdfrwt beam="2">  1       -2 0.82411059E-01 0.91552468E+03</pdfrwt>
<totfact> 0.47443032E+00</totfact>
</mgrwt>
</event>
<event>
 4    1  0.2878104E-007  0.7426683E+03  0.7818608E-02  0.9852241E-01
          2   -1    0    0  501    0  0.00000000000E+00  0.00000000000E+00  0.85433270218E+03  0.85433270218E+03  0.25500000000E-02 0. -1.
         -2   -1    0    0    0  501 -0.00000000000E+00 -0.00000000000E+00 -0.42230911441E+03  0.42230911442E+03  0.25500000000E-02 0.  1.
    8880023    1    1    2    0    0  0.68870083526E+02  0.33615914614E+03  0.49940417323E+03  0.89496413026E+03  0.65864270000E+03 0.  0.
    8880022    1    1    2    0    0 -0.68870083526E+02 -0.33615914614E+03 -0.67380585471E+02  0.38167768634E+03  0.15294330000E+03 0.  0.
<mgrwt>
<rscale>  0 0.62632763E+03</rscale>
<asrwt>0</asrwt>
<pdfrwt beam="1">  1        2 0.13143580E+00 0.74266834E+03</pdfrwt>
<pdfrwt beam="2">  1       -2 0.64970633E-01 0.74266834E+03</pdfrwt>
<totfact> 0.69848488E+01</totfact>
</mgrwt>
</event>
<event>
 4    1  0.2878104E-007  0.7873065E+03  0.7818608E-02  0.9738945E-01
         -2   -1    0    0    0  501 -0.00000000000E+00  0.00000000000E+00  0.31294734046E+03  0.31294734047E+03  0.25500000000E-02 0.  1.
          2   -1    0    0  501    0  0.00000000000E+00 -0.00000000000E+00 -0.23980100715E+04  0.23980100715E+04  0.25500000000E-02 0. -1.
    8880023    1    1    2    0    0 -0.38144668542E+03 -0.20134502094E+03 -0.25959586869E+03  0.82900036947E+03  0.65864270000E+03 0.  1.
    8880022    1    1    2    0    0  0.38144668542E+03  0.20134502094E+03 -0.18254668623E+04  0.18819570425E+04  0.15294330000E+03 0.  0.
<mgrwt>
<rscale>  0 0.68744593E+03</rscale>
<asrwt>0</asrwt>
<pdfrwt beam="1">  1        2 0.36892461E+00 0.78730655E+03</pdfrwt>
<pdfrwt beam="2">  1       -2 0.48145746E-01 0.78730655E+03</pdfrwt>
<totfact> 0.16912397E+01</totfact>
</mgrwt>
</event>
<event>
 4    1  0.2878104E-007  0.9295108E+03  0.7818608E-02  0.9480227E-01
          2   -1    0    0  501    0  0.00000000000E+00  0.00000000000E+00  0.19002751904E+04  0.19002751904E+04  0.25500000000E-02 0. -1.
         -2   -1    0    0    0  501 -0.00000000000E+00 -0.00000000000E+00 -0.12255793533E+04  0.12255793533E+04  0.25500000000E-02 0.  1.
    8880023    1    1    2    0    0  0.43748409073E+03  0.48865926020E+03 -0.97312383427E+03  0.13457192892E+04  0.65864270000E+03 0.  0.
    8880022    1    1    2    0    0 -0.43748409073E+03 -0.48865926020E+03  0.16478196713E+04  0.17801352545E+04  0.15294330000E+03 0. -1.
<mgrwt>
<rscale>  0 0.85757400E+03</rscale>
<asrwt>0</asrwt>
<pdfrwt beam="1">  1        2 0.29235003E+00 0.92951084E+03</pdfrwt>
<pdfrwt beam="2">  1       -2 0.18855067E+00 0.92951084E+03</pdfrwt>
<totfact> 0.12122699E+00</totfact>
</mgrwt>
</event>
<event>
 4    1  0.2878104E-007  0.1832557E+04  0.7818608E-02  0.8704738E-01
          2   -1    0    0  501    0  0.00000000000E+00  0.00000000000E+00  0.30432545727E+04  0.30432545727E+04  0.25500000000E-02 0. -1.
         -2   -1    0    0    0  501 -0.00000000000E+00 -0.00000000000E+00 -0.14500532782E+04  0.14500532782E+04  0.25500000000E-02 0.  1.
    8880023    1    1    2    0    0 -0.99679856139E+03 -0.13895496303E+04 -0.38642496531E+03  0.18728561096E+04  0.65864270000E+03 0.  0.
    8880022    1    1    2    0    0  0.99679856139E+03  0.13895496303E+04  0.19796262598E+04  0.26204517414E+04  0.15294330000E+03 0.  0.
<mgrwt>
<rscale>  0 0.18029400E+04</rscale>
<asrwt>0</asrwt>
<pdfrwt beam="1">  1        2 0.46819301E+00 0.18325572E+04</pdfrwt>
<pdfrwt beam="2">  1       -2 0.22308512E+00 0.18325572E+04</pdfrwt>
<totfact> 0.13996540E-01</totfact>
</mgrwt>
</event>
<event>
 4    1  0.2878104E-007  0.1136218E+04  0.7818608E-02  0.9221764E-01
         -2   -1    0    0    0  501 -0.00000000000E+00  0.00000000000E+00  0.12630535699E+04  0.12630535699E+04  0.25500000000E-02 0.  1.
          2   -1    0    0  501    0  0.00000000000E+00 -0.00000000000E+00 -0.13671614150E+04  0.13671614150E+04  0.25500000000E-02 0. -1.
    8880023    1    1    2    0    0  0.36325387608E+01 -0.92583343484E+03  0.74991737896E+03  0.13613842316E+04  0.65864270000E+03 0.  1.
    8880022    1    1    2    0    0 -0.36325387608E+01  0.92583343484E+03 -0.85402522408E+03  0.12688307534E+04  0.15294330000E+03 0.  0.
<mgrwt>
<rscale>  0 0.10831581E+04</rscale>
<asrwt>0</asrwt>
<pdfrwt beam="1">  1        2 0.21033252E+00 0.11362178E+04</pdfrwt>
<pdfrwt beam="2">  1       -2 0.19431593E+00 0.11362178E+04</pdfrwt>
<totfact> 0.21413671E+00</totfact>
</mgrwt>
</event>
<event>
 4    1  0.2878104E-007  0.9832240E+03  0.7818608E-02  0.9403842E-01
         -2   -1    0    0    0  501 -0.00000000000E+00  0.00000000000E+00  0.87685169910E+03  0.87685169911E+03  0.25500000000E-02 0.  1.
          2   -1    0    0  501    0  0.00000000000E+00 -0.00000000000E+00 -0.10017592935E+04  0.10017592935E+04  0.25500000000E-02 0. -1.
    8880023    1    1    2    0    0 -0.42380879715E+03 -0.59439493884E+03  0.29001697131E+03  0.10251045263E+04  0.65864270000E+03 0.  0.
    8880022    1    1    2    0    0  0.42380879715E+03  0.59439493884E+03 -0.41492456572E+03  0.85350646636E+03  0.15294330000E+03 0.  1.
<mgrwt>
<rscale>  0 0.91760136E+03</rscale>
<asrwt>0</asrwt>
<pdfrwt beam="1">  1        2 0.15411681E+00 0.98322401E+03</pdfrwt>
<pdfrwt beam="2">  1       -2 0.13490026E+00 0.98322401E+03</pdfrwt>
<totfact> 0.98634213E+00</totfact>
</mgrwt>
</event>
<event>
 4    1  0.2878104E-007  0.9361092E+03  0.7818608E-02  0.9470388E-01
          2   -1    0    0  501    0  0.00000000000E+00  0.00000000000E+00  0.22756709876E+04  0.22756709876E+04  0.25500000000E-02 0. -1.
         -2   -1    0    0    0  501 -0.00000000000E+00 -0.00000000000E+00 -0.58748872732E+03  0.58748872732E+03  0.25500000000E-02 0.  1.
    8880023    1    1    2    0    0 -0.63709142485E+03  0.19132360035E+03 -0.10737428727E+03  0.94224712656E+03  0.65864270000E+03 0.  1.
    8880022    1    1    2    0    0  0.63709142485E+03 -0.19132360035E+03  0.17955565475E+04  0.19209125883E+04  0.15294330000E+03 0.  0.
<mgrwt>
<rscale>  0 0.86502639E+03</rscale>
<asrwt>0</asrwt>
<pdfrwt beam="1">  1        2 0.35010324E+00 0.93610919E+03</pdfrwt>
<pdfrwt beam="2">  1       -2 0.90382880E-01 0.93610919E+03</pdfrwt>
<totfact> 0.49657834E+00</totfact>
</mgrwt>
</event>
<event>
 4    1  0.2878104E-007  0.9839192E+03  0.7818608E-02  0.9402905E-01
         -2   -1    0    0    0  501 -0.00000000000E+00  0.00000000000E+00  0.10261290548E+04  0.10261290548E+04  0.25500000000E-02 0.  1.
          2   -1    0    0  501    0  0.00000000000E+00 -0.00000000000E+00 -0.23497243556E+04  0.23497243556E+04  0.25500000000E-02 0. -1.
    8880023    1    1    2    0    0  0.62511317718E+03 -0.37884076043E+03  0.70746268101E+03  0.12118582662E+04  0.65864270000E+03 0.  0.
    8880022    1    1    2    0    0 -0.62511317718E+03  0.37884076043E+03 -0.20310579818E+04  0.21639951443E+04  0.15294330000E+03 0.  0.
<mgrwt>
<rscale>  0 0.91836974E+03</rscale>
<asrwt>0</asrwt>
<pdfrwt beam="1">  1        2 0.36149605E+00 0.98391921E+03</pdfrwt>
<pdfrwt beam="2">  1       -2 0.15786601E+00 0.98391921E+03</pdfrwt>
<totfact> 0.11157701E+00</totfact>
</mgrwt>
</event>
<event>
 4    1  0.2878104E-007  0.8725881E+03  0.7818608E-02  0.9571552E-01
          2   -1    0    0  501    0  0.00000000000E+00  0.00000000000E+00  0.25939315975E+04  0.25939315975E+04  0.25500000000E-02 0. -1.
         -2   -1    0    0    0  501 -0.00000000000E+00 -0.00000000000E+00 -0.44792316660E+03  0.44792316661E+03  0.25500000000E-02 0.  1.
    8880023    1    1    2    0    0  0.24633744320E+03 -0.51664067236E+03  0.61457340292E+02  0.87474963915E+03  0.65864270000E+03 0.  0.
    8880022    1    1    2    0    0 -0.24633744320E+03  0.51664067236E+03  0.20845510906E+04  0.21671051250E+04  0.15294330000E+03 0.  0.
<mgrwt>
<rscale>  0 0.79207992E+03</rscale>
<asrwt>0</asrwt>
<pdfrwt beam="1">  1        2 0.39906639E+00 0.87258806E+03</pdfrwt>
<pdfrwt beam="2">  1       -2 0.68911257E-01 0.87258806E+03</pdfrwt>
<totfact> 0.60872906E+00</totfact>
</mgrwt>
</event>
<event>
 4    1  0.2878104E-007  0.8241205E+03  0.7818608E-02  0.9660882E-01
          2   -1    0    0  501    0  0.00000000000E+00  0.00000000000E+00  0.57890913742E+03  0.57890913742E+03  0.25500000000E-02 0. -1.
         -2   -1    0    0    0  501 -0.00000000000E+00 -0.00000000000E+00 -0.22850101744E+04  0.22850101744E+04  0.25500000000E-02 0.  1.
    8880023    1    1    2    0    0  0.49271628653E+03 -0.50941833486E+02 -0.20716699010E+04  0.22295718859E+04  0.65864270000E+03 0.  1.
    8880022    1    1    2    0    0 -0.49271628653E+03  0.50941833486E+02  0.36556886402E+03  0.63434742592E+03  0.15294330000E+03 0.  0.
<mgrwt>
<rscale>  0 0.73394383E+03</rscale>
<asrwt>0</asrwt>
<pdfrwt beam="1">  1        2 0.89062946E-01 0.82412051E+03</pdfrwt>
<pdfrwt beam="2">  1       -2 0.35154002E+00 0.82412051E+03</pdfrwt>
<totfact> 0.82042141E-01</totfact>
</mgrwt>
</event>
<event>
 4    1  0.2878104E-007  0.8673469E+03  0.7818608E-02  0.9580626E-01
          2   -1    0    0  501    0  0.00000000000E+00  0.00000000000E+00  0.96312995252E+03  0.96312995252E+03  0.25500000000E-02 0. -1.
         -2   -1    0    0    0  501 -0.00000000000E+00 -0.00000000000E+00 -0.19056302691E+04  0.19056302691E+04  0.25500000000E-02 0.  1.
    8880023    1    1    2    0    0 -0.56385302143E+03  0.23457803338E+02 -0.17020031092E+04  0.19102631463E+04  0.65864270000E+03 0.  0.
    8880022    1    1    2    0    0  0.56385302143E+03 -0.23457803338E+02  0.75950279261E+03  0.95849707528E+03  0.15294330000E+03 0.  0.
<mgrwt>
<rscale>  0 0.78591866E+03</rscale>
<asrwt>0</asrwt>
<pdfrwt beam="1">  1        2 0.14817384E+00 0.86734693E+03</pdfrwt>
<pdfrwt beam="2">  1       -2 0.29317389E+00 0.86734693E+03</pdfrwt>
<totfact> 0.95271798E-01</totfact>
</mgrwt>
</event>
<event>
 4    1  0.2878104E-007  0.1208849E+04  0.7818608E-02  0.9148568E-01
          2   -1    0    0  501    0  0.00000000000E+00  0.00000000000E+00  0.19471614493E+04  0.19471614493E+04  0.25500000000E-02 0. -1.
         -2   -1    0    0    0  501 -0.00000000000E+00 -0.00000000000E+00 -0.14541178549E+04  0.14541178549E+04  0.25500000000E-02 0.  1.
    8880023    1    1    2    0    0 -0.39153593275E+03  0.93498985165E+03 -0.10145466510E+04  0.15781703085E+04  0.65864270000E+03 0.  0.
    8880022    1    1    2    0    0  0.39153593275E+03 -0.93498985165E+03  0.15075902453E+04  0.18231089957E+04  0.15294330000E+03 0.  0.
<mgrwt>
<rscale>  0 0.11600433E+04</rscale>
<asrwt>0</asrwt>
<pdfrwt beam="1">  1        2 0.29956330E+00 0.12088493E+04</pdfrwt>
<pdfrwt beam="2">  1       -2 0.22371044E+00 0.12088493E+04</pdfrwt>
<totfact> 0.64956534E-01</totfact>
</mgrwt>
</event>
<event>
 4    1  0.2878104E-007  0.1361143E+04  0.7818608E-02  0.9014479E-01
          2   -1    0    0  501    0  0.00000000000E+00  0.00000000000E+00  0.32068304363E+04  0.32068304363E+04  0.25500000000E-02 0. -1.
         -2   -1    0    0    0  501 -0.00000000000E+00 -0.00000000000E+00 -0.11789659630E+04  0.11789659630E+04  0.25500000000E-02 0.  1.
    8880023    1    1    2    0    0  0.10555136098E+03 -0.11864899940E+04  0.26897378789E+04  0.30145314162E+04  0.65864270000E+03 0.  0.
    8880022    1    1    2    0    0 -0.10555136098E+03  0.11864899940E+04 -0.66187340566E+03  0.13712649831E+04  0.15294330000E+03 0.  0.
<mgrwt>
<rscale>  0 0.13191962E+04</rscale>
<asrwt>0</asrwt>
<pdfrwt beam="1">  1        2 0.49335853E+00 0.13611428E+04</pdfrwt>
<pdfrwt beam="2">  1       -2 0.18137938E+00 0.13611428E+04</pdfrwt>
<totfact> 0.21939535E-01</totfact>
</mgrwt>
</event>
<event>
 4    1  0.2878104E-007  0.7775929E+03  0.7818608E-02  0.9761522E-01
          2   -1    0    0  501    0  0.00000000000E+00  0.00000000000E+00  0.95941578306E+03  0.95941578306E+03  0.25500000000E-02 0. -1.
         -2   -1    0    0    0  501 -0.00000000000E+00 -0.00000000000E+00 -0.44931700144E+03  0.44931700145E+03  0.25500000000E-02 0.  1.
    8880023    1    1    2    0    0  0.31924397528E+03 -0.26253332871E+03  0.61743982929E+02  0.78004037724E+03  0.65864270000E+03 0.  1.
    8880022    1    1    2    0    0 -0.31924397528E+03  0.26253332871E+03  0.44835479869E+03  0.62869240727E+03  0.15294330000E+03 0.  0.
<mgrwt>
<rscale>  0 0.67469009E+03</rscale>
<asrwt>0</asrwt>
<pdfrwt beam="1">  1        2 0.14760243E+00 0.77759287E+03</pdfrwt>
<pdfrwt beam="2">  1       -2 0.69125693E-01 0.77759287E+03</pdfrwt>
<totfact> 0.51787872E+01</totfact>
</mgrwt>
</event>
<event>
 4    1  0.2878104E-007  0.1190212E+04  0.7818608E-02  0.9166696E-01
          2   -1    0    0  501    0  0.00000000000E+00  0.00000000000E+00  0.13923509076E+04  0.13923509076E+04  0.25500000000E-02 0. -1.
         -2   -1    0    0    0  501 -0.00000000000E+00 -0.00000000000E+00 -0.16122109090E+04  0.16122109090E+04  0.25500000000E-02 0.  1.
    8880023    1    1    2    0    0  0.37278200935E+03  0.91860138064E+03 -0.11365445271E+04  0.16457030690E+04  0.65864270000E+03 0.  1.
    8880022    1    1    2    0    0 -0.37278200935E+03 -0.91860138064E+03  0.91668452571E+03  0.13588587475E+04  0.15294330000E+03 0.  0.
<mgrwt>
<rscale>  0 0.11403893E+04</rscale>
<asrwt>0</asrwt>
<pdfrwt beam="1">  1        2 0.21420783E+00 0.11902122E+04</pdfrwt>
<pdfrwt beam="2">  1       -2 0.24803245E+00 0.11902122E+04</pdfrwt>
<totfact> 0.93974786E-01</totfact>
</mgrwt>
</event>
<event>
 4    1  0.2878104E-007  0.1089219E+04  0.7818608E-02  0.9273155E-01
         -2   -1    0    0    0  501 -0.00000000000E+00  0.00000000000E+00  0.11808605197E+04  0.11808605197E+04  0.25500000000E-02 0.  1.
          2   -1    0    0  501    0  0.00000000000E+00 -0.00000000000E+00 -0.21916947692E+04  0.21916947692E+04  0.25500000000E-02 0. -1.
    8880023    1    1    2    0    0  0.58384445756E+03 -0.64164964289E+03  0.80494694232E+03  0.13543774958E+04  0.65864270000E+03 0.  1.
    8880022    1    1    2    0    0 -0.58384445756E+03  0.64164964289E+03 -0.18157811918E+04  0.20181777931E+04  0.15294330000E+03 0.  0.
<mgrwt>
<rscale>  0 0.10329228E+04</rscale>
<asrwt>0</asrwt>
<pdfrwt beam="1">  1        2 0.33718381E+00 0.10892194E+04</pdfrwt>
<pdfrwt beam="2">  1       -2 0.18167085E+00 0.10892194E+04</pdfrwt>
<totfact> 0.91017403E-01</totfact>
</mgrwt>
</event>
<event>
 4    1  0.2878104E-007  0.8720734E+03  0.7818608E-02  0.9572438E-01
          2   -1    0    0  501    0  0.00000000000E+00  0.00000000000E+00  0.22063811196E+04  0.22063811196E+04  0.25500000000E-02 0. -1.
         -2   -1    0    0    0  501 -0.00000000000E+00 -0.00000000000E+00 -0.62058742209E+03  0.62058742210E+03  0.25500000000E-02 0.  1.
    8880023    1    1    2    0    0 -0.15766711724E+03 -0.54940224673E+03 -0.24262572332E+03  0.90519566749E+03  0.65864270000E+03 0.  1.
    8880022    1    1    2    0    0  0.15766711724E+03  0.54940224673E+03  0.18284194208E+04  0.19217728742E+04  0.15294330000E+03 0.  0.
<mgrwt>
<rscale>  0 0.79147601E+03</rscale>
<asrwt>0</asrwt>
<pdfrwt beam="1">  1        2 0.33944325E+00 0.87207337E+03</pdfrwt>
<pdfrwt beam="2">  1       -2 0.95474988E-01 0.87207337E+03</pdfrwt>
<totfact> 0.48188000E+00</totfact>
</mgrwt>
</event>
<event>
 4    1  0.2878104E-007  0.9032320E+03  0.7818608E-02  0.9520863E-01
          2   -1    0    0  501    0  0.00000000000E+00  0.00000000000E+00  0.12291467826E+04  0.12291467826E+04  0.25500000000E-02 0. -1.
         -2   -1    0    0    0  501 -0.00000000000E+00 -0.00000000000E+00 -0.67397677046E+03  0.67397677047E+03  0.25500000000E-02 0.  1.
    8880023    1    1    2    0    0  0.10517503911E+03 -0.60906168156E+03 -0.18997633631E+03  0.92299465622E+03  0.65864270000E+03 0.  1.
    8880022    1    1    2    0    0 -0.10517503911E+03  0.60906168156E+03  0.74514634843E+03  0.98012889683E+03  0.15294330000E+03 0.  0.
<mgrwt>
<rscale>  0 0.82763005E+03</rscale>
<asrwt>0</asrwt>
<pdfrwt beam="1">  1        2 0.18909951E+00 0.90323204E+03</pdfrwt>
<pdfrwt beam="2">  1       -2 0.10368873E+00 0.90323204E+03</pdfrwt>
<totfact> 0.13827973E+01</totfact>
</mgrwt>
</event>
<event>
 4    1  0.2878104E-007  0.8079790E+03  0.7818608E-02  0.9693802E-01
          2   -1    0    0  501    0  0.00000000000E+00  0.00000000000E+00  0.63742125621E+03  0.63742125621E+03  0.25500000000E-02 0. -1.
         -2   -1    0    0    0  501 -0.00000000000E+00 -0.00000000000E+00 -0.85241505268E+03  0.85241505268E+03  0.25500000000E-02 0.  1.
    8880023    1    1    2    0    0 -0.36651097467E+03 -0.29101480459E+03 -0.47065235725E+03  0.93506350517E+03  0.65864270000E+03 0.  0.
    8880022    1    1    2    0    0  0.36651097467E+03  0.29101480459E+03  0.25565856078E+03  0.55477280373E+03  0.15294330000E+03 0.  0.
<mgrwt>
<rscale>  0 0.71387017E+03</rscale>
<asrwt>0</asrwt>
<pdfrwt beam="1">  1        2 0.98064808E-01 0.80797903E+03</pdfrwt>
<pdfrwt beam="2">  1       -2 0.13114078E+00 0.80797903E+03</pdfrwt>
<totfact> 0.19731889E+01</totfact>
</mgrwt>
</event>
<event>
 4    1  0.2878104E-007  0.8440893E+03  0.7818608E-02  0.9622517E-01
          2   -1    0    0  501    0  0.00000000000E+00  0.00000000000E+00  0.33734197283E+04  0.33734197283E+04  0.25500000000E-02 0. -1.
         -2   -1    0    0    0  501 -0.00000000000E+00 -0.00000000000E+00 -0.22507764282E+03  0.22507764283E+03  0.25500000000E-02 0.  1.
    8880023    1    1    2    0    0 -0.38093536370E+02  0.52652196161E+03  0.72220305810E+03  0.11108843130E+04  0.65864270000E+03 0.  0.
    8880022    1    1    2    0    0  0.38093536370E+02 -0.52652196161E+03  0.24261390274E+04  0.24876130581E+04  0.15294330000E+03 0.  0.
<mgrwt>
<rscale>  0 0.75823600E+03</rscale>
<asrwt>0</asrwt>
<pdfrwt beam="1">  1        2 0.51898764E+00 0.84408927E+03</pdfrwt>
<pdfrwt beam="2">  1       -2 0.34627330E-01 0.84408927E+03</pdfrwt>
<totfact> 0.82239661E+00</totfact>
</mgrwt>
</event>
<event>
 4    1  0.2878104E-007  0.8487893E+03  0.7818608E-02  0.9613825E-01
          2   -1    0    0  501    0  0.00000000000E+00  0.00000000000E+00  0.13151459770E+04  0.13151459770E+04  0.25500000000E-02 0. -1.
         -2   -1    0    0    0  501 -0.00000000000E+00 -0.00000000000E+00 -0.14138398554E+04  0.14138398554E+04  0.25500000000E-02 0.  1.
    8880023    1    1    2    0    0  0.37881526932E+02 -0.53403931308E+03 -0.12146539538E+04  0.14818324574E+04  0.65864270000E+03 0.  1.
    8880022    1    1    2    0    0 -0.37881526932E+02  0.53403931308E+03  0.11159600754E+04  0.12471533750E+04  0.15294330000E+03 0.  0.
<mgrwt>
<rscale>  0 0.76387876E+03</rscale>
<asrwt>0</asrwt>
<pdfrwt beam="1">  1        2 0.20233015E+00 0.84878926E+03</pdfrwt>
<pdfrwt beam="2">  1       -2 0.21751382E+00 0.84878926E+03</pdfrwt>
<totfact> 0.16857632E+00</totfact>
</mgrwt>
</event>
<event>
 4    1  0.2878104E-007  0.7289378E+03  0.7818608E-02  0.9893428E-01
         -2   -1    0    0    0  501 -0.00000000000E+00  0.00000000000E+00  0.53983925190E+03  0.53983925190E+03  0.25500000000E-02 0.  1.
          2   -1    0    0  501    0  0.00000000000E+00 -0.00000000000E+00 -0.13739975997E+04  0.13739975997E+04  0.25500000000E-02 0. -1.
    8880023    1    1    2    0    0 -0.28495797498E+03  0.12782453884E+03  0.25363956176E+03  0.77180528230E+03  0.65864270000E+03 0.  1.
    8880022    1    1    2    0    0  0.28495797498E+03 -0.12782453884E+03 -0.10877979096E+04  0.11420315693E+04  0.15294330000E+03 0.  0.
<mgrwt>
<rscale>  0 0.60580861E+03</rscale>
<asrwt>0</asrwt>
<pdfrwt beam="1">  1        2 0.21138424E+00 0.72893783E+03</pdfrwt>
<pdfrwt beam="2">  1       -2 0.83052193E-01 0.72893783E+03</pdfrwt>
<totfact> 0.19486564E+01</totfact>
</mgrwt>
</event>
<event>
 4    1  0.2878104E-007  0.7686814E+03  0.7818608E-02  0.9783129E-01
          2   -1    0    0  501    0  0.00000000000E+00  0.00000000000E+00  0.61997872887E+03  0.61997872887E+03  0.25500000000E-02 0. -1.
         -2   -1    0    0    0  501 -0.00000000000E+00 -0.00000000000E+00 -0.17931598455E+04  0.17931598455E+04  0.25500000000E-02 0.  1.
    8880023    1    1    2    0    0  0.27930134477E+03 -0.28116131608E+03 -0.16221475288E+04  0.17950581434E+04  0.65864270000E+03 0.  0.
    8880022    1    1    2    0    0 -0.27930134477E+03  0.28116131608E+03  0.44896641217E+03  0.61808043094E+03  0.15294330000E+03 0.  0.
<mgrwt>
<rscale>  0 0.66275830E+03</rscale>
<asrwt>0</asrwt>
<pdfrwt beam="1">  1        2 0.95381344E-01 0.76868142E+03</pdfrwt>
<pdfrwt beam="2">  1       -2 0.27587074E+00 0.76868142E+03</pdfrwt>
<totfact> 0.21977794E+00</totfact>
</mgrwt>
</event>
<event>
 4    1  0.2878104E-007  0.7119263E+03  0.7818608E-02  0.9950916E-01
          2   -1    0    0  501    0  0.00000000000E+00  0.00000000000E+00  0.68498300529E+03  0.68498300529E+03  0.25500000000E-02 0. -1.
         -2   -1    0    0    0  501 -0.00000000000E+00 -0.00000000000E+00 -0.10369462493E+04  0.10369462493E+04  0.25500000000E-02 0.  1.
    8880023    1    1    2    0    0  0.23579642504E+02 -0.26920782972E+03 -0.86619376212E+03  0.11212183975E+04  0.65864270000E+03 0.  0.
    8880022    1    1    2    0    0 -0.23579642504E+02  0.26920782972E+03  0.51423051807E+03  0.60071085711E+03  0.15294330000E+03 0. -1.
<mgrwt>
<rscale>  0 0.57855874E+03</rscale>
<asrwt>0</asrwt>
<pdfrwt beam="1">  1        2 0.10538200E+00 0.71192630E+03</pdfrwt>
<pdfrwt beam="2">  1       -2 0.15953019E+00 0.71192630E+03</pdfrwt>
<totfact> 0.10908531E+01</totfact>
</mgrwt>
</event>
<event>
 4    1  0.2878104E-007  0.7773481E+03  0.7818608E-02  0.9762104E-01
         -2   -1    0    0    0  501 -0.00000000000E+00  0.00000000000E+00  0.90013349493E+03  0.90013349494E+03  0.25500000000E-02 0.  1.
          2   -1    0    0  501    0  0.00000000000E+00 -0.00000000000E+00 -0.53372618858E+03  0.53372618858E+03  0.25500000000E-02 0. -1.
    8880023    1    1    2    0    0 -0.25252903249E+03 -0.32663278827E+03  0.55473474115E+03  0.95498729307E+03  0.65864270000E+03 0.  0.
    8880022    1    1    2    0    0  0.25252903249E+03  0.32663278827E+03 -0.18832743480E+03  0.47887239045E+03  0.15294330000E+03 0.  0.
<mgrwt>
<rscale>  0 0.67436547E+03</rscale>
<asrwt>0</asrwt>
<pdfrwt beam="1">  1        2 0.82111722E-01 0.77734812E+03</pdfrwt>
<pdfrwt beam="2">  1       -2 0.13848208E+00 0.77734812E+03</pdfrwt>
<totfact> 0.21304565E+01</totfact>
</mgrwt>
</event>
<event>
 4    1  0.2878104E-007  0.1251045E+04  0.7818608E-02  0.9109032E-01
          2   -1    0    0  501    0  0.00000000000E+00  0.00000000000E+00  0.12814486158E+04  0.12814486158E+04  0.25500000000E-02 0. -1.
         -2   -1    0    0    0  501 -0.00000000000E+00 -0.00000000000E+00 -0.18880795137E+04  0.18880795137E+04  0.25500000000E-02 0.  1.
    8880023    1    1    2    0    0 -0.99546719434E+03  0.37463241292E+03 -0.13670724391E+04  0.18531059440E+04  0.65864270000E+03 0.  1.
    8880022    1    1    2    0    0  0.99546719434E+03 -0.37463241292E+03  0.76044154121E+03  0.13164221855E+04  0.15294330000E+03 0.  0.
<mgrwt>
<rscale>  0 0.12043792E+04</rscale>
<asrwt>0</asrwt>
<pdfrwt beam="1">  1        2 0.19714594E+00 0.12510454E+04</pdfrwt>
<pdfrwt beam="2">  1       -2 0.29047377E+00 0.12510454E+04</pdfrwt>
<totfact> 0.59708615E-01</totfact>
</mgrwt>
</event>
<event>
 4    1  0.2878104E-007  0.8992877E+03  0.7818608E-02  0.9527176E-01
         -2   -1    0    0    0  501 -0.00000000000E+00  0.00000000000E+00  0.26325400490E+04  0.26325400490E+04  0.25500000000E-02 0.  1.
          2   -1    0    0  501    0  0.00000000000E+00 -0.00000000000E+00 -0.69118523096E+03  0.69118523096E+03  0.25500000000E-02 0. -1.
    8880023    1    1    2    0    0 -0.60662995392E+03  0.83115542131E+02  0.23872319959E+04  0.25509988050E+04  0.65864270000E+03 0.  1.
    8880022    1    1    2    0    0  0.60662995392E+03 -0.83115542131E+02 -0.44587717790E+03  0.77272647497E+03  0.15294330000E+03 0.  0.
<mgrwt>
<rscale>  0 0.82309551E+03</rscale>
<asrwt>0</asrwt>
<pdfrwt beam="1">  1        2 0.10633619E+00 0.89928766E+03</pdfrwt>
<pdfrwt beam="2">  1       -2 0.40500615E+00 0.89928766E+03</pdfrwt>
<totfact> 0.29681177E-01</totfact>
</mgrwt>
</event>
<event>
 4    1  0.3676223E-007  0.1073448E+04  0.7818608E-02  0.9291210E-01
          2   -1    0    0  501    0  0.00000000000E+00  0.00000000000E+00  0.17838126390E+04  0.17838126390E+04  0.25500000000E-02 0. -1.
         -2   -1    0    0    0  501 -0.00000000000E+00 -0.00000000000E+00 -0.20137571329E+04  0.20137571329E+04  0.25500000000E-02 0.  1.
    8880023    1    1    2    0    0 -0.61448585666E+03 -0.58385627444E+03 -0.17485195755E+04  0.20517338837E+04  0.65864270000E+03 0.  1.
    8880022    1    1    2    0    0  0.61448585666E+03  0.58385627444E+03  0.15185750816E+04  0.17458358883E+04  0.15294330000E+03 0.  0.
<mgrwt>
<rscale>  0 0.10159610E+04</rscale>
<asrwt>0</asrwt>
<pdfrwt beam="1">  1        2 0.27443271E+00 0.10734483E+04</pdfrwt>
<pdfrwt beam="2">  1       -2 0.30980879E+00 0.10734483E+04</pdfrwt>
<totfact> 0.24289191E-01</totfact>
</mgrwt>
</event>
<event>
 4    1  0.2878104E-007  0.7336946E+03  0.7818608E-02  0.9878710E-01
          2   -1    0    0  501    0  0.00000000000E+00  0.00000000000E+00  0.18655609516E+04  0.18655609516E+04  0.25500000000E-02 0. -1.
         -2   -1    0    0    0  501 -0.00000000000E+00 -0.00000000000E+00 -0.27381771569E+03  0.27381771570E+03  0.25500000000E-02 0.  1.
    8880023    1    1    2    0    0 -0.32307188900E+03  0.11052570938E+02  0.28919904899E+03  0.78863419973E+03  0.65864270000E+03 0.  1.
    8880022    1    1    2    0    0  0.32307188900E+03 -0.11052570938E+02  0.13025441869E+04  0.13507444676E+04  0.15294330000E+03 0.  0.
<mgrwt>
<rscale>  0 0.61304275E+03</rscale>
<asrwt>0</asrwt>
<pdfrwt beam="1">  1        2 0.28700937E+00 0.73369463E+03</pdfrwt>
<pdfrwt beam="2">  1       -2 0.42125803E-01 0.73369463E+03</pdfrwt>
<totfact> 0.43661462E+01</totfact>
</mgrwt>
</event>
<event>
 4    1  0.2878104E-007  0.7167065E+03  0.7818608E-02  0.9933892E-01
         -2   -1    0    0    0  501 -0.00000000000E+00  0.00000000000E+00  0.36368929436E+03  0.36368929437E+03  0.25500000000E-02 0.  1.
          2   -1    0    0  501    0  0.00000000000E+00 -0.00000000000E+00 -0.13039540900E+04  0.13039540900E+04  0.25500000000E-02 0. -1.
    8880023    1    1    2    0    0  0.26762863077E+03 -0.90735180174E+02 -0.46889330922E+02  0.71823865988E+03  0.65864270000E+03 0.  1.
    8880022    1    1    2    0    0 -0.26762863077E+03  0.90735180174E+02 -0.89337546473E+03  0.94940472451E+03  0.15294330000E+03 0.  0.
<mgrwt>
<rscale>  0 0.58646493E+03</rscale>
<asrwt>0</asrwt>
<pdfrwt beam="1">  1        2 0.20060832E+00 0.71670647E+03</pdfrwt>
<pdfrwt beam="2">  1       -2 0.55952200E-01 0.71670647E+03</pdfrwt>
<totfact> 0.50430128E+01</totfact>
</mgrwt>
</event>
<event>
 4    1  0.2878104E-007  0.2441205E+04  0.7818608E-02  0.8432229E-01
          2   -1    0    0  501    0  0.00000000000E+00  0.00000000000E+00  0.17474643914E+04  0.17474643914E+04  0.25500000000E-02 0. -1.
         -2   -1    0    0    0  501 -0.00000000000E+00 -0.00000000000E+00 -0.40594405208E+04  0.40594405208E+04  0.25500000000E-02 0.  1.
    8880023    1    1    2    0    0 -0.11182294553E+04 -0.20676635578E+04  0.89648966081E+02  0.24428501482E+04  0.65864270000E+03 0.  0.
    8880022    1    1    2    0    0  0.11182294553E+04  0.20676635578E+04 -0.24016250955E+04  0.33640547641E+04  0.15294330000E+03 0.  0.
<mgrwt>
<rscale>  0 0.24195276E+04</rscale>
<asrwt>0</asrwt>
<pdfrwt beam="1">  1        2 0.26884068E+00 0.24412046E+04</pdfrwt>
<pdfrwt beam="2">  1       -2 0.62452931E+00 0.24412046E+04</pdfrwt>
<totfact> 0.31431484E-03</totfact>
</mgrwt>
</event>
<event>
 4    1  0.2878104E-007  0.8667774E+03  0.7818608E-02  0.9581620E-01
         -2   -1    0    0    0  501 -0.00000000000E+00  0.00000000000E+00  0.50473359651E+03  0.50473359652E+03  0.25500000000E-02 0.  1.
          2   -1    0    0  501    0  0.00000000000E+00 -0.00000000000E+00 -0.34820953586E+04  0.34820953586E+04  0.25500000000E-02 0. -1.
    8880023    1    1    2    0    0  0.48025112107E+03  0.29470628807E+03  0.83490900010E+02  0.87078922373E+03  0.65864270000E+03 0.  1.
    8880022    1    1    2    0    0 -0.48025112107E+03 -0.29470628807E+03 -0.30608526621E+04  0.31160397314E+04  0.15294330000E+03 0.  0.
<mgrwt>
<rscale>  0 0.78524761E+03</rscale>
<asrwt>0</asrwt>
<pdfrwt beam="1">  1        2 0.53570696E+00 0.86677745E+03</pdfrwt>
<pdfrwt beam="2">  1       -2 0.77651325E-01 0.86677745E+03</pdfrwt>
<totfact> 0.13112744E+00</totfact>
</mgrwt>
</event>
<event>
 4    1  0.2878104E-007  0.1867207E+04  0.7818608E-02  0.8686244E-01
          2   -1    0    0  501    0  0.00000000000E+00  0.00000000000E+00  0.37555366234E+04  0.37555366234E+04  0.25500000000E-02 0. -1.
         -2   -1    0    0    0  501 -0.00000000000E+00 -0.00000000000E+00 -0.10874590581E+04  0.10874590581E+04  0.25500000000E-02 0.  1.
    8880023    1    1    2    0    0  0.15020673704E+04  0.89243757721E+03  0.29226535582E+03  0.18899419194E+04  0.65864270000E+03 0.  0.
    8880022    1    1    2    0    0 -0.15020673704E+04 -0.89243757721E+03  0.23758122094E+04  0.29530537621E+04  0.15294330000E+03 0.  0.
<mgrwt>
<rscale>  0 0.18382026E+04</rscale>
<asrwt>0</asrwt>
<pdfrwt beam="1">  1        2 0.57777486E+00 0.18672068E+04</pdfrwt>
<pdfrwt beam="2">  1       -2 0.16730140E+00 0.18672068E+04</pdfrwt>
<totfact> 0.10794170E-01</totfact>
</mgrwt>
</event>
<event>
 4    1  0.2878104E-007  0.6793682E+03  0.7818608E-02  0.1009683E+00
         -2   -1    0    0    0  501 -0.00000000000E+00  0.00000000000E+00  0.25439294760E+03  0.25439294761E+03  0.25500000000E-02 0.  1.
          2   -1    0    0  501    0  0.00000000000E+00 -0.00000000000E+00 -0.23517922207E+04  0.23517922207E+04  0.25500000000E-02 0. -1.
    8880023    1    1    2    0    0 -0.91591315480E+02  0.13907544732E+03 -0.21836975925E+03  0.71360108404E+03  0.65864270000E+03 0.  1.
    8880022    1    1    2    0    0  0.91591315480E+02 -0.13907544732E+03 -0.18790295138E+04  0.18925840843E+04  0.15294330000E+03 0.  0.
<mgrwt>
<rscale>  0 0.51600693E+03</rscale>
<asrwt>0</asrwt>
<pdfrwt beam="1">  1        2 0.36181417E+00 0.67936820E+03</pdfrwt>
<pdfrwt beam="2">  1       -2 0.39137378E-01 0.67936820E+03</pdfrwt>
<totfact> 0.27495328E+01</totfact>
</mgrwt>
</event>
<event>
 4    1  0.2878104E-007  0.1482771E+04  0.7818608E-02  0.8921899E-01
          2   -1    0    0  501    0  0.00000000000E+00  0.00000000000E+00  0.28959249388E+04  0.28959249388E+04  0.25500000000E-02 0. -1.
         -2   -1    0    0    0  501 -0.00000000000E+00 -0.00000000000E+00 -0.89533994684E+03  0.89533994684E+03  0.25500000000E-02 0.  1.
    8880023    1    1    2    0    0  0.11438075607E+04 -0.67565059573E+03  0.19544194084E+04  0.24532355969E+04  0.65864270000E+03 0.  0.
    8880022    1    1    2    0    0 -0.11438075607E+04  0.67565059573E+03  0.46165583498E+02  0.13380292887E+04  0.15294330000E+03 0.  0.
<mgrwt>
<rscale>  0 0.14449649E+04</rscale>
<asrwt>0</asrwt>
<pdfrwt beam="1">  1        2 0.44552691E+00 0.14827709E+04</pdfrwt>
<pdfrwt beam="2">  1       -2 0.13774461E+00 0.14827709E+04</pdfrwt>
<totfact> 0.71960476E-01</totfact>
</mgrwt>
</event>
<event>
 4    1  0.2878104E-007  0.7461730E+03  0.7818608E-02  0.9842317E-01
         -2   -1    0    0    0  501 -0.00000000000E+00  0.00000000000E+00  0.54758571152E+03  0.54758571152E+03  0.25500000000E-02 0.  1.
          2   -1    0    0  501    0  0.00000000000E+00 -0.00000000000E+00 -0.91212353026E+03  0.91212353026E+03  0.25500000000E-02 0. -1.
    8880023    1    1    2    0    0  0.32639562158E+03  0.12817919712E+03  0.20480923917E+03  0.77377066310E+03  0.65864270000E+03 0.  0.
    8880022    1    1    2    0    0 -0.32639562158E+03 -0.12817919712E+03 -0.56934705791E+03  0.68593857869E+03  0.15294330000E+03 0.  0.
<mgrwt>
<rscale>  0 0.63140186E+03</rscale>
<asrwt>0</asrwt>
<pdfrwt beam="1">  1        2 0.14032670E+00 0.74617305E+03</pdfrwt>
<pdfrwt beam="2">  1       -2 0.84243956E-01 0.74617305E+03</pdfrwt>
<totfact> 0.35926408E+01</totfact>
</mgrwt>
</event>
<event>
 4    1  0.2878104E-007  0.1276177E+04  0.7818608E-02  0.9086411E-01
         -2   -1    0    0    0  501 -0.00000000000E+00  0.00000000000E+00  0.12458901154E+04  0.12458901154E+04  0.25500000000E-02 0.  1.
          2   -1    0    0  501    0  0.00000000000E+00 -0.00000000000E+00 -0.23195374704E+04  0.23195374704E+04  0.25500000000E-02 0. -1.
    8880023    1    1    2    0    0 -0.87056785386E+03  0.66100534519E+03  0.71561730480E+03  0.14631250076E+04  0.65864270000E+03 0.  0.
    8880022    1    1    2    0    0  0.87056785386E+03 -0.66100534519E+03 -0.17892646599E+04  0.21023025783E+04  0.15294330000E+03 0.  0.
<mgrwt>
<rscale>  0 0.12306888E+04</rscale>
<asrwt>0</asrwt>
<pdfrwt beam="1">  1        2 0.35685192E+00 0.12761766E+04</pdfrwt>
<pdfrwt beam="2">  1       -2 0.19167540E+00 0.12761766E+04</pdfrwt>
<totfact> 0.64367058E-01</totfact>
</mgrwt>
</event>
<event>
 4    1  0.2878104E-007  0.1144408E+04  0.7818608E-02  0.9213153E-01
         -2   -1    0    0    0  501 -0.00000000000E+00  0.00000000000E+00  0.79028151386E+03  0.79028151386E+03  0.25500000000E-02 0.  1.
          2   -1    0    0  501    0  0.00000000000E+00 -0.00000000000E+00 -0.14052069955E+04  0.14052069955E+04  0.25500000000E-02 0. -1.
    8880023    1    1    2    0    0  0.29570226116E+03 -0.88792962821E+03 -0.20605771643E+03  0.11628107502E+04  0.65864270000E+03 0.  0.
    8880022    1    1    2    0    0 -0.29570226116E+03  0.88792962821E+03 -0.40886776519E+03  0.10326777592E+04  0.15294330000E+03 0.  0.
<mgrwt>
<rscale>  0 0.10918693E+04</rscale>
<asrwt>0</asrwt>
<pdfrwt beam="1">  1        2 0.21618569E+00 0.11444077E+04</pdfrwt>
<pdfrwt beam="2">  1       -2 0.12158177E+00 0.11444077E+04</pdfrwt>
<totfact> 0.72365571E+00</totfact>
</mgrwt>
</event>
<event>
 4    1  0.2878104E-007  0.1102308E+04  0.7818608E-02  0.9258491E-01
         -2   -1    0    0    0  501 -0.00000000000E+00  0.00000000000E+00  0.54487856497E+03  0.54487856497E+03  0.25500000000E-02 0.  1.
          2   -1    0    0  501    0  0.00000000000E+00 -0.00000000000E+00 -0.24408762509E+04  0.24408762509E+04  0.25500000000E-02 0. -1.
    8880023    1    1    2    0    0 -0.15722890217E+03  0.86979998208E+03 -0.27973290631E+03  0.11372482762E+04  0.65864270000E+03 0.  1.
    8880022    1    1    2    0    0  0.15722890217E+03 -0.86979998208E+03 -0.16162647796E+04  0.18485065397E+04  0.15294330000E+03 0.  0.
<mgrwt>
<rscale>  0 0.10469576E+04</rscale>
<asrwt>0</asrwt>
<pdfrwt beam="1">  1        2 0.37551942E+00 0.11023081E+04</pdfrwt>
<pdfrwt beam="2">  1       -2 0.83827473E-01 0.11023081E+04</pdfrwt>
<totfact> 0.46649865E+00</totfact>
</mgrwt>
</event>
<event>
 4    1  0.2878104E-007  0.1558629E+04  0.7818608E-02  0.8869308E-01
          2   -1    0    0  501    0  0.00000000000E+00  0.00000000000E+00  0.22100353404E+04  0.22100353404E+04  0.25500000000E-02 0. -1.
         -2   -1    0    0    0  501 -0.00000000000E+00 -0.00000000000E+00 -0.12513753272E+04  0.12513753272E+04  0.25500000000E-02 0.  1.
    8880023    1    1    2    0    0  0.78133611812E+03 -0.11768718872E+04 -0.27137598171E+03  0.15820773363E+04  0.65864270000E+03 0.  0.
    8880022    1    1    2    0    0 -0.78133611812E+03  0.11768718872E+04  0.12300359949E+04  0.18793333313E+04  0.15294330000E+03 0.  0.
<mgrwt>
<rscale>  0 0.15229881E+04</rscale>
<asrwt>0</asrwt>
<pdfrwt beam="1">  1        2 0.34000544E+00 0.15586288E+04</pdfrwt>
<pdfrwt beam="2">  1       -2 0.19251928E+00 0.15586288E+04</pdfrwt>
<totfact> 0.70990489E-01</totfact>
</mgrwt>
</event>
<event>
 4    1  0.2878104E-007  0.1452265E+04  0.7818608E-02  0.8944100E-01
          2   -1    0    0  501    0  0.00000000000E+00  0.00000000000E+00  0.38846104740E+04  0.38846104740E+04  0.25500000000E-02 0. -1.
         -2   -1    0    0    0  501 -0.00000000000E+00 -0.00000000000E+00 -0.51774768423E+03  0.51774768424E+03  0.25500000000E-02 0.  1.
    8880023    1    1    2    0    0  0.60448221274E+03  0.11444931300E+04  0.12484451091E+04  0.19151210580E+04  0.65864270000E+03 0.  0.
    8880022    1    1    2    0    0 -0.60448221274E+03 -0.11444931300E+04  0.21184176807E+04  0.24872371003E+04  0.15294330000E+03 0.  0.
<mgrwt>
<rscale>  0 0.14135056E+04</rscale>
<asrwt>0</asrwt>
<pdfrwt beam="1">  1        2 0.59763239E+00 0.14522649E+04</pdfrwt>
<pdfrwt beam="2">  1       -2 0.79653489E-01 0.14522649E+04</pdfrwt>
<totfact> 0.57712473E-01</totfact>
</mgrwt>
</event>
<event>
 4    1  0.2878104E-007  0.9779007E+03  0.7818608E-02  0.9411059E-01
         -2   -1    0    0    0  501 -0.00000000000E+00  0.00000000000E+00  0.11921746852E+04  0.11921746852E+04  0.25500000000E-02 0.  1.
          2   -1    0    0  501    0  0.00000000000E+00 -0.00000000000E+00 -0.75728928016E+03  0.75728928017E+03  0.25500000000E-02 0. -1.
    8880023    1    1    2    0    0  0.80113941468E+02 -0.71837413421E+03  0.65683408495E+03  0.11780156458E+04  0.65864270000E+03 0.  0.
    8880022    1    1    2    0    0 -0.80113941468E+02  0.71837413421E+03 -0.22194867988E+03  0.77144831961E+03  0.15294330000E+03 0.  0.
<mgrwt>
<rscale>  0 0.91171135E+03</rscale>
<asrwt>0</asrwt>
<pdfrwt beam="1">  1        2 0.11650604E+00 0.97790073E+03</pdfrwt>
<pdfrwt beam="2">  1       -2 0.18341149E+00 0.97790073E+03</pdfrwt>
<totfact> 0.63259966E+00</totfact>
</mgrwt>
</event>
<event>
 4    1  0.2878104E-007  0.7057820E+03  0.7818608E-02  0.9974011E-01
         -2   -1    0    0    0  501 -0.00000000000E+00  0.00000000000E+00  0.43244535576E+03  0.43244535576E+03  0.25500000000E-02 0.  1.
          2   -1    0    0  501    0  0.00000000000E+00 -0.00000000000E+00 -0.72272968002E+03  0.72272968003E+03  0.25500000000E-02 0. -1.
    8880023    1    1    2    0    0  0.19242768969E+02 -0.25287901020E+03  0.45744716825E+02  0.70726293791E+03  0.65864270000E+03 0.  1.
    8880022    1    1    2    0    0 -0.19242768969E+02  0.25287901020E+03 -0.33602904109E+03  0.44791209788E+03  0.15294330000E+03 0.  0.
<mgrwt>
<rscale>  0 0.56804655E+03</rscale>
<asrwt>0</asrwt>
<pdfrwt beam="1">  1        2 0.11118918E+00 0.70578204E+03</pdfrwt>
<pdfrwt beam="2">  1       -2 0.66530055E-01 0.70578204E+03</pdfrwt>
<totfact> 0.82933550E+01</totfact>
</mgrwt>
</event>
<event>
 4    1  0.2878104E-007  0.7351639E+03  0.7818608E-02  0.9874265E-01
         -2   -1    0    0    0  501 -0.00000000000E+00  0.00000000000E+00  0.14152470302E+04  0.14152470302E+04  0.25500000000E-02 0.  1.
          2   -1    0    0  501    0  0.00000000000E+00 -0.00000000000E+00 -0.42531134107E+03  0.42531134107E+03  0.25500000000E-02 0. -1.
    8880023    1    1    2    0    0  0.32288276151E+03 -0.49014328096E+02  0.12116466972E+04  0.14172344927E+04  0.65864270000E+03 0.  1.
    8880022    1    1    2    0    0 -0.32288276151E+03  0.49014328096E+02 -0.22171100812E+03  0.42332387858E+03  0.15294330000E+03 0.  0.
<mgrwt>
<rscale>  0 0.61524882E+03</rscale>
<asrwt>0</asrwt>
<pdfrwt beam="1">  1        2 0.65432514E-01 0.73516385E+03</pdfrwt>
<pdfrwt beam="2">  1       -2 0.21773031E+00 0.73516385E+03</pdfrwt>
<totfact> 0.77570861E+00</totfact>
</mgrwt>
</event>
<event>
 4    1  0.2878104E-007  0.9642100E+03  0.7818608E-02  0.9429957E-01
         -2   -1    0    0    0  501 -0.00000000000E+00  0.00000000000E+00  0.44970665304E+03  0.44970665305E+03  0.25500000000E-02 0.  1.
          2   -1    0    0  501    0  0.00000000000E+00 -0.00000000000E+00 -0.37730119494E+04  0.37730119494E+04  0.25500000000E-02 0. -1.
    8880023    1    1    2    0    0 -0.68848065953E+03 -0.14793600716E+03 -0.15879622325E+03  0.97719861213E+03  0.65864270000E+03 0.  1.
    8880022    1    1    2    0    0  0.68848065953E+03  0.14793600716E+03 -0.31645090731E+04  0.32455199903E+04  0.15294330000E+03 0.  0.
<mgrwt>
<rscale>  0 0.89650798E+03</rscale>
<asrwt>0</asrwt>
<pdfrwt beam="1">  1        2 0.58046336E+00 0.96420998E+03</pdfrwt>
<pdfrwt beam="2">  1       -2 0.69185641E-01 0.96420998E+03</pdfrwt>
<totfact> 0.10329496E+00</totfact>
</mgrwt>
</event>
<event>
 4    1  0.2878104E-007  0.8535225E+03  0.7818608E-02  0.9605191E-01
         -2   -1    0    0    0  501 -0.00000000000E+00  0.00000000000E+00  0.25717762036E+03  0.25717762037E+03  0.25500000000E-02 0.  1.
          2   -1    0    0  501    0  0.00000000000E+00 -0.00000000000E+00 -0.30496667530E+04  0.30496667530E+04  0.25500000000E-02 0. -1.
    8880023    1    1    2    0    0 -0.44386892858E+03 -0.31252334549E+03 -0.60085043926E+03  0.10438016688E+04  0.65864270000E+03 0.  0.
    8880022    1    1    2    0    0  0.44386892858E+03  0.31252334549E+03 -0.21916386933E+04  0.22630427045E+04  0.15294330000E+03 0.  0.
<mgrwt>
<rscale>  0 0.76953547E+03</rscale>
<asrwt>0</asrwt>
<pdfrwt beam="1">  1        2 0.46917947E+00 0.85352251E+03</pdfrwt>
<pdfrwt beam="2">  1       -2 0.39565790E-01 0.85352251E+03</pdfrwt>
<totfact> 0.10239800E+01</totfact>
</mgrwt>
</event>
<event>
 4    1  0.2878104E-007  0.7290267E+03  0.7818608E-02  0.9893148E-01
         -2   -1    0    0    0  501 -0.00000000000E+00  0.00000000000E+00  0.14638451310E+04  0.14638451310E+04  0.25500000000E-02 0.  1.
          2   -1    0    0  501    0  0.00000000000E+00 -0.00000000000E+00 -0.87441214739E+03  0.87441214739E+03  0.25500000000E-02 0. -1.
    8880023    1    1    2    0    0  0.48614169556E+02  0.30871724074E+03  0.13318664547E+04  0.15183372918E+04  0.65864270000E+03 0.  1.
    8880022    1    1    2    0    0 -0.48614169556E+02 -0.30871724074E+03 -0.74243347116E+03  0.81991998654E+03  0.15294330000E+03 0.  0.
<mgrwt>
<rscale>  0 0.60594504E+03</rscale>
<asrwt>0</asrwt>
<pdfrwt beam="1">  1        2 0.13452495E+00 0.72902667E+03</pdfrwt>
<pdfrwt beam="2">  1       -2 0.22520694E+00 0.72902667E+03</pdfrwt>
<totfact> 0.28822495E+00</totfact>
</mgrwt>
</event>
<event>
 4    1  0.2878104E-007  0.7041851E+03  0.7818608E-02  0.9980264E-01
         -2   -1    0    0    0  501 -0.00000000000E+00  0.00000000000E+00  0.62872582716E+03  0.62872582717E+03  0.25500000000E-02 0.  1.
          2   -1    0    0  501    0  0.00000000000E+00 -0.00000000000E+00 -0.12078174864E+04  0.12078174864E+04  0.25500000000E-02 0. -1.
    8880023    1    1    2    0    0  0.51593648723E+02 -0.24373040191E+03  0.40335642043E+03  0.81152512073E+03  0.65864270000E+03 0.  0.
    8880022    1    1    2    0    0 -0.51593648723E+02  0.24373040191E+03 -0.98244807963E+03  0.10250181928E+04  0.15294330000E+03 0.  0.
<mgrwt>
<rscale>  0 0.56524177E+03</rscale>
<asrwt>0</asrwt>
<pdfrwt beam="1">  1        2 0.18581807E+00 0.70418507E+03</pdfrwt>
<pdfrwt beam="2">  1       -2 0.96727051E-01 0.70418507E+03</pdfrwt>
<totfact> 0.17159248E+01</totfact>
</mgrwt>
</event>
<event>
 4    1  0.2878104E-007  0.1184809E+04  0.7818608E-02  0.9172032E-01
          2   -1    0    0  501    0  0.00000000000E+00  0.00000000000E+00  0.16788004602E+04  0.16788004602E+04  0.25500000000E-02 0. -1.
         -2   -1    0    0    0  501 -0.00000000000E+00 -0.00000000000E+00 -0.12678917681E+04  0.12678917681E+04  0.25500000000E-02 0.  1.
    8880023    1    1    2    0    0 -0.37551548238E+03  0.91046690235E+03 -0.76109519573E+03  0.14082038066E+04  0.65864270000E+03 0.  0.
    8880022    1    1    2    0    0  0.37551548238E+03 -0.91046690235E+03  0.11720038878E+04  0.15384884217E+04  0.15294330000E+03 0.  0.
<mgrwt>
<rscale>  0 0.11346821E+04</rscale>
<asrwt>0</asrwt>
<pdfrwt beam="1">  1        2 0.25827699E+00 0.11848089E+04</pdfrwt>
<pdfrwt beam="2">  1       -2 0.19506027E+00 0.11848089E+04</pdfrwt>
<totfact> 0.14042938E+00</totfact>
</mgrwt>
</event>
<event>
 4    1  0.2878104E-007  0.1526478E+04  0.7818608E-02  0.8891162E-01
          2   -1    0    0  501    0  0.00000000000E+00  0.00000000000E+00  0.31218243198E+04  0.31218243198E+04  0.25500000000E-02 0. -1.
         -2   -1    0    0    0  501 -0.00000000000E+00 -0.00000000000E+00 -0.92642361000E+03  0.92642361001E+03  0.25500000000E-02 0.  1.
    8880023    1    1    2    0    0 -0.10351096486E+04  0.90822531298E+03  0.91654434920E+02  0.15292272380E+04  0.65864270000E+03 0.  0.
    8880022    1    1    2    0    0  0.10351096486E+04 -0.90822531298E+03  0.21037462749E+04  0.25190206919E+04  0.15294330000E+03 0.  0.
<mgrwt>
<rscale>  0 0.14899530E+04</rscale>
<asrwt>0</asrwt>
<pdfrwt beam="1">  1        2 0.48028067E+00 0.15264781E+04</pdfrwt>
<pdfrwt beam="2">  1       -2 0.14252671E+00 0.15264781E+04</pdfrwt>
<totfact> 0.47303340E-01</totfact>
</mgrwt>
</event>
<event>
 4    1  0.2959313E-007  0.1164125E+04  0.7818608E-02  0.9192809E-01
         -2   -1    0    0    0  501 -0.00000000000E+00  0.00000000000E+00  0.18234584651E+04  0.18234584651E+04  0.25500000000E-02 0.  1.
          2   -1    0    0  501    0  0.00000000000E+00 -0.00000000000E+00 -0.19845114404E+04  0.19845114404E+04  0.25500000000E-02 0. -1.
    8880023    1    1    2    0    0  0.82895423309E+03  0.48395409083E+03  0.14907323862E+04  0.18914200845E+04  0.65864270000E+03 0.  0.
    8880022    1    1    2    0    0 -0.82895423309E+03 -0.48395409083E+03 -0.16517853615E+04  0.19165498209E+04  0.15294330000E+03 0.  0.
<mgrwt>
<rscale>  0 0.11127955E+04</rscale>
<asrwt>0</asrwt>
<pdfrwt beam="1">  1        2 0.30530945E+00 0.11641249E+04</pdfrwt>
<pdfrwt beam="2">  1       -2 0.28053207E+00 0.11641249E+04</pdfrwt>
<totfact> 0.27928344E-01</totfact>
</mgrwt>
</event>
<event>
 4    1  0.2878104E-007  0.7023046E+03  0.7818608E-02  0.9987772E-01
         -2   -1    0    0    0  501 -0.00000000000E+00  0.00000000000E+00  0.30146139383E+03  0.30146139384E+03  0.25500000000E-02 0.  1.
          2   -1    0    0  501    0  0.00000000000E+00 -0.00000000000E+00 -0.33062410374E+04  0.33062410374E+04  0.25500000000E-02 0. -1.
    8880023    1    1    2    0    0 -0.23581603111E+03 -0.61744205822E+02 -0.12470957547E+03  0.71329112707E+03  0.65864270000E+03 0.  1.
    8880022    1    1    2    0    0  0.23581603111E+03  0.61744205822E+02 -0.28800700681E+04  0.28944113042E+04  0.15294330000E+03 0.  0.
<mgrwt>
<rscale>  0 0.56189683E+03</rscale>
<asrwt>0</asrwt>
<pdfrwt beam="1">  1        2 0.50865244E+00 0.70230460E+03</pdfrwt>
<pdfrwt beam="2">  1       -2 0.46378678E-01 0.70230460E+03</pdfrwt>
<totfact> 0.52868271E+00</totfact>
</mgrwt>
</event>
<event>
 4    1  0.2878104E-007  0.6914266E+03  0.7818608E-02  0.1003482E+00
          2   -1    0    0  501    0  0.00000000000E+00  0.00000000000E+00  0.29672496115E+04  0.29672496115E+04  0.25500000000E-02 0. -1.
         -2   -1    0    0    0  501 -0.00000000000E+00 -0.00000000000E+00 -0.17447402741E+03  0.17447402743E+03  0.25500000000E-02 0.  1.
    8880023    1    1    2    0    0  0.60682918353E+02 -0.20144019818E+03  0.54887662388E+03  0.88280027443E+03  0.65864270000E+03 0.  1.
    8880022    1    1    2    0    0 -0.60682918353E+02  0.20144019818E+03  0.22438989603E+04  0.22589233645E+04  0.15294330000E+03 0.  0.
<mgrwt>
<rscale>  0 0.54149548E+03</rscale>
<asrwt>0</asrwt>
<pdfrwt beam="1">  1        2 0.45649988E+00 0.69142662E+03</pdfrwt>
<pdfrwt beam="2">  1       -2 0.26842162E-01 0.69142662E+03</pdfrwt>
<totfact> 0.24539247E+01</totfact>
</mgrwt>
</event>
<event>
 4    1  0.2878104E-007  0.8997795E+03  0.7818608E-02  0.9526386E-01
         -2   -1    0    0    0  501 -0.00000000000E+00  0.00000000000E+00  0.13443088397E+04  0.13443088397E+04  0.25500000000E-02 0.  1.
          2   -1    0    0  501    0  0.00000000000E+00 -0.00000000000E+00 -0.15397168978E+04  0.15397168978E+04  0.25500000000E-02 0. -1.
    8880023    1    1    2    0    0 -0.34200351532E+03 -0.50874999182E+03  0.11129071138E+04  0.14311412959E+04  0.65864270000E+03 0.  0.
    8880022    1    1    2    0    0  0.34200351532E+03  0.50874999182E+03 -0.13083151718E+04  0.14528844416E+04  0.15294330000E+03 0.  0.
<mgrwt>
<rscale>  0 0.82366156E+03</rscale>
<asrwt>0</asrwt>
<pdfrwt beam="1">  1        2 0.23687952E+00 0.89977951E+03</pdfrwt>
<pdfrwt beam="2">  1       -2 0.20681674E+00 0.89977951E+03</pdfrwt>
<totfact> 0.14600044E+00</totfact>
</mgrwt>
</event>
<event>
 4    1  0.2878104E-007  0.7310744E+03  0.7818608E-02  0.9886754E-01
          2   -1    0    0  501    0  0.00000000000E+00  0.00000000000E+00  0.26560797454E+04  0.26560797454E+04  0.25500000000E-02 0. -1.
         -2   -1    0    0    0  501 -0.00000000000E+00 -0.00000000000E+00 -0.13020072940E+03  0.13020072942E+03  0.25500000000E-02 0.  1.
    8880023    1    1    2    0    0 -0.16779113815E+03 -0.26926889795E+03  0.11240297043E+04  0.13408626282E+04  0.65864270000E+03 0.  1.
    8880022    1    1    2    0    0  0.16779113815E+03  0.26926889795E+03  0.14018493117E+04  0.14454178466E+04  0.15294330000E+03 0.  1.
<mgrwt>
<rscale>  0 0.60907579E+03</rscale>
<asrwt>0</asrwt>
<pdfrwt beam="1">  1        2 0.40862767E+00 0.73107442E+03</pdfrwt>
<pdfrwt beam="2">  1       -2 0.20030881E-01 0.73107442E+03</pdfrwt>
<totfact> 0.62818165E+01</totfact>
</mgrwt>
</event>
<event>
 4    1  0.2878104E-007  0.9251163E+03  0.7818608E-02  0.9486858E-01
          2   -1    0    0  501    0  0.00000000000E+00  0.00000000000E+00  0.86582543613E+03  0.86582543614E+03  0.25500000000E-02 0. -1.
         -2   -1    0    0    0  501 -0.00000000000E+00 -0.00000000000E+00 -0.13465705635E+04  0.13465705635E+04  0.25500000000E-02 0.  1.
    8880023    1    1    2    0    0  0.53171797227E+03  0.37323715278E+03 -0.10033328804E+04  0.13647406528E+04  0.65864270000E+03 0.  1.
    8880022    1    1    2    0    0 -0.53171797227E+03 -0.37323715278E+03  0.52258775310E+03  0.84765534679E+03  0.15294330000E+03 0.  0.
<mgrwt>
<rscale>  0 0.85259673E+03</rscale>
<asrwt>0</asrwt>
<pdfrwt beam="1">  1        2 0.13320391E+00 0.92511631E+03</pdfrwt>
<pdfrwt beam="2">  1       -2 0.20716470E+00 0.92511631E+03</pdfrwt>
<totfact> 0.37003814E+00</totfact>
</mgrwt>
</event>
<event>
 4    1  0.2878104E-007  0.7974240E+03  0.7818608E-02  0.9716394E-01
          2   -1    0    0  501    0  0.00000000000E+00  0.00000000000E+00  0.21015224975E+04  0.21015224975E+04  0.25500000000E-02 0. -1.
         -2   -1    0    0    0  501 -0.00000000000E+00 -0.00000000000E+00 -0.48246654179E+03  0.48246654180E+03  0.25500000000E-02 0.  1.
    8880023    1    1    2    0    0  0.38168474591E+03 -0.23746927919E+03 -0.97137658089E+02  0.80331863834E+03  0.65864270000E+03 0.  0.
    8880022    1    1    2    0    0 -0.38168474591E+03  0.23746927919E+03  0.17161936138E+04  0.17806704009E+04  0.15294330000E+03 0.  0.
<mgrwt>
<rscale>  0 0.70049052E+03</rscale>
<asrwt>0</asrwt>
<pdfrwt beam="1">  1        2 0.32331115E+00 0.79742405E+03</pdfrwt>
<pdfrwt beam="2">  1       -2 0.74225623E-01 0.79742405E+03</pdfrwt>
<totfact> 0.98751921E+00</totfact>
</mgrwt>
</event>
<event>
 4    1  0.2878104E-007  0.9021247E+03  0.7818608E-02  0.9522629E-01
         -2   -1    0    0    0  501 -0.00000000000E+00  0.00000000000E+00  0.66771576638E+03  0.66771576638E+03  0.25500000000E-02 0.  1.
          2   -1    0    0  501    0  0.00000000000E+00 -0.00000000000E+00 -0.13219848029E+04  0.13219848029E+04  0.25500000000E-02 0. -1.
    8880023    1    1    2    0    0  0.42834629978E+03  0.44332629048E+03  0.20113739398E+03  0.92427550540E+03  0.65864270000E+03 0.  1.
    8880022    1    1    2    0    0 -0.42834629978E+03 -0.44332629048E+03 -0.85540643048E+03  0.10654250639E+04  0.15294330000E+03 0.  0.
<mgrwt>
<rscale>  0 0.82635815E+03</rscale>
<asrwt>0</asrwt>
<pdfrwt beam="1">  1        2 0.20338228E+00 0.90212469E+03</pdfrwt>
<pdfrwt beam="2">  1       -2 0.10272550E+00 0.90212469E+03</pdfrwt>
<totfact> 0.12483233E+01</totfact>
</mgrwt>
</event>
<event>
 4    1  0.2878104E-007  0.9652178E+03  0.7818608E-02  0.9428549E-01
          2   -1    0    0  501    0  0.00000000000E+00  0.00000000000E+00  0.23685615308E+04  0.23685615308E+04  0.25500000000E-02 0. -1.
         -2   -1    0    0    0  501 -0.00000000000E+00 -0.00000000000E+00 -0.62518957465E+03  0.62518957465E+03  0.25500000000E-02 0.  1.
    8880023    1    1    2    0    0  0.63740936612E+03  0.30256333005E+03 -0.14132288384E+03  0.97550890948E+03  0.65864270000E+03 0.  1.
    8880022    1    1    2    0    0 -0.63740936612E+03 -0.30256333005E+03  0.18846948400E+04  0.20182421960E+04  0.15294330000E+03 0.  0.
<mgrwt>
<rscale>  0 0.89763000E+03</rscale>
<asrwt>0</asrwt>
<pdfrwt beam="1">  1        2 0.36439408E+00 0.96521784E+03</pdfrwt>
<pdfrwt beam="2">  1       -2 0.96183012E-01 0.96521784E+03</pdfrwt>
<totfact> 0.37939755E+00</totfact>
</mgrwt>
</event>
<event>
 4    1  0.2878104E-007  0.9383515E+03  0.7818608E-02  0.9467076E-01
         -2   -1    0    0    0  501 -0.00000000000E+00  0.00000000000E+00  0.21987275889E+03  0.21987275891E+03  0.25500000000E-02 0.  1.
          2   -1    0    0  501    0  0.00000000000E+00 -0.00000000000E+00 -0.40356096723E+04  0.40356096723E+04  0.25500000000E-02 0. -1.
    8880023    1    1    2    0    0 -0.50354390515E+03  0.43947347888E+03 -0.10596826188E+04  0.14154260355E+04  0.65864270000E+03 0.  1.
    8880022    1    1    2    0    0  0.50354390515E+03 -0.43947347888E+03 -0.27560542946E+04  0.28400563957E+04  0.15294330000E+03 0.  0.
<mgrwt>
<rscale>  0 0.86755343E+03</rscale>
<asrwt>0</asrwt>
<pdfrwt beam="1">  1        2 0.62086297E+00 0.93835154E+03</pdfrwt>
<pdfrwt beam="2">  1       -2 0.33826581E-01 0.93835154E+03</pdfrwt>
<totfact> 0.27923800E+00</totfact>
</mgrwt>
</event>
<event>
 4    1  0.2878104E-007  0.2069016E+04  0.7818608E-02  0.8586725E-01
         -2   -1    0    0    0  501 -0.00000000000E+00  0.00000000000E+00  0.12542582427E+04  0.12542582427E+04  0.25500000000E-02 0.  1.
          2   -1    0    0  501    0  0.00000000000E+00 -0.00000000000E+00 -0.34354007656E+04  0.34354007656E+04  0.25500000000E-02 0. -1.
    8880023    1    1    2    0    0 -0.18695996021E+04  0.59297128701E+03 -0.16649599432E+04  0.26557333145E+04  0.65864270000E+03 0.  0.
    8880022    1    1    2    0    0  0.18695996021E+04 -0.59297128701E+03 -0.51618257963E+03  0.20339256938E+04  0.15294330000E+03 0.  0.
<mgrwt>
<rscale>  0 0.20431136E+04</rscale>
<asrwt>0</asrwt>
<pdfrwt beam="1">  1        2 0.52852319E+00 0.20690161E+04</pdfrwt>
<pdfrwt beam="2">  1       -2 0.19296281E+00 0.20690161E+04</pdfrwt>
<totfact> 0.11868456E-01</totfact>
</mgrwt>
</event>
<event>
 4    1  0.2878104E-007  0.6860867E+03  0.7818608E-02  0.1006071E+00
          2   -1    0    0  501    0  0.00000000000E+00  0.00000000000E+00  0.84563530271E+03  0.84563530271E+03  0.25500000000E-02 0. -1.
         -2   -1    0    0    0  501 -0.00000000000E+00 -0.00000000000E+00 -0.11809969604E+04  0.11809969604E+04  0.25500000000E-02 0.  1.
    8880023    1    1    2    0    0 -0.13074754218E+03 -0.14074718755E+03 -0.10593607408E+04  0.12621252220E+04  0.65864270000E+03 0.  1.
    8880022    1    1    2    0    0  0.13074754218E+03  0.14074718755E+03  0.72399908310E+03  0.76450704113E+03  0.15294330000E+03 0.  0.
<mgrwt>
<rscale>  0 0.53066519E+03</rscale>
<asrwt>0</asrwt>
<pdfrwt beam="1">  1        2 0.13009774E+00 0.68608665E+03</pdfrwt>
<pdfrwt beam="2">  1       -2 0.18169184E+00 0.68608665E+03</pdfrwt>
<totfact> 0.58036396E+00</totfact>
</mgrwt>
</event>
<event>
 4    1  0.2878104E-007  0.9872522E+03  0.7818608E-02  0.9398429E-01
         -2   -1    0    0    0  501 -0.00000000000E+00  0.00000000000E+00  0.11513459049E+04  0.11513459049E+04  0.25500000000E-02 0.  1.
          2   -1    0    0  501    0  0.00000000000E+00 -0.00000000000E+00 -0.18040574455E+04  0.18040574455E+04  0.25500000000E-02 0. -1.
    8880023    1    1    2    0    0 -0.64673220457E+03 -0.35013462328E+03  0.83226412852E+03  0.12912515575E+04  0.65864270000E+03 0.  1.
    8880022    1    1    2    0    0  0.64673220457E+03  0.35013462328E+03 -0.14849756691E+04  0.16641517929E+04  0.15294330000E+03 0.  0.
<mgrwt>
<rscale>  0 0.92205090E+03</rscale>
<asrwt>0</asrwt>
<pdfrwt beam="1">  1        2 0.27754730E+00 0.98725225E+03</pdfrwt>
<pdfrwt beam="2">  1       -2 0.17713014E+00 0.98725225E+03</pdfrwt>
<totfact> 0.16249847E+00</totfact>
</mgrwt>
</event>
<event>
 4    1  0.2878104E-007  0.7267772E+03  0.7818608E-02  0.9900288E-01
          2   -1    0    0  501    0  0.00000000000E+00  0.00000000000E+00  0.18289961478E+04  0.18289961478E+04  0.25500000000E-02 0. -1.
         -2   -1    0    0    0  501 -0.00000000000E+00 -0.00000000000E+00 -0.81830752031E+03  0.81830752031E+03  0.25500000000E-02 0.  1.
    8880023    1    1    2    0    0  0.30185544833E+03  0.57254869913E+02 -0.63567392541E+03  0.96554977993E+03  0.65864270000E+03 0.  1.
    8880022    1    1    2    0    0 -0.30185544833E+03 -0.57254869913E+02  0.16463625529E+04  0.16817538882E+04  0.15294330000E+03 0.  0.
<mgrwt>
<rscale>  0 0.60247341E+03</rscale>
<asrwt>0</asrwt>
<pdfrwt beam="1">  1        2 0.28138402E+00 0.72677716E+03</pdfrwt>
<pdfrwt beam="2">  1       -2 0.12589347E+00 0.72677716E+03</pdfrwt>
<totfact> 0.40586974E+00</totfact>
</mgrwt>
</event>
<event>
 4    1  0.2878104E-007  0.1204613E+04  0.7818608E-02  0.9152652E-01
         -2   -1    0    0    0  501 -0.00000000000E+00  0.00000000000E+00  0.18172618006E+04  0.18172618006E+04  0.25500000000E-02 0.  1.
          2   -1    0    0  501    0  0.00000000000E+00 -0.00000000000E+00 -0.71009618043E+03  0.71009618044E+03  0.25500000000E-02 0. -1.
    8880023    1    1    2    0    0 -0.98329413449E+03 -0.22453036997E+03  0.34220995390E+03  0.12522775654E+04  0.65864270000E+03 0.  0.
    8880022    1    1    2    0    0  0.98329413449E+03  0.22453036997E+03  0.76495566623E+03  0.12750804156E+04  0.15294330000E+03 0.  0.
<mgrwt>
<rscale>  0 0.11555795E+04</rscale>
<asrwt>0</asrwt>
<pdfrwt beam="1">  1        2 0.10924557E+00 0.12046126E+04</pdfrwt>
<pdfrwt beam="2">  1       -2 0.27957874E+00 0.12046126E+04</pdfrwt>
<totfact> 0.16698965E+00</totfact>
</mgrwt>
</event>
<event>
 4    1  0.2878104E-007  0.7549390E+03  0.7818608E-02  0.9818390E-01
         -2   -1    0    0    0  501 -0.00000000000E+00  0.00000000000E+00  0.31309390168E+03  0.31309390169E+03  0.25500000000E-02 0.  1.
          2   -1    0    0  501    0  0.00000000000E+00 -0.00000000000E+00 -0.24279954369E+04  0.24279954369E+04  0.25500000000E-02 0. -1.
    8880023    1    1    2    0    0 -0.30819822794E+03  0.20282148230E+03 -0.19449415496E+03  0.77959020258E+03  0.65864270000E+03 0.  1.
    8880022    1    1    2    0    0  0.30819822794E+03 -0.20282148230E+03 -0.19204073803E+04  0.19614991360E+04  0.15294330000E+03 0.  0.
<mgrwt>
<rscale>  0 0.64384877E+03</rscale>
<asrwt>0</asrwt>
<pdfrwt beam="1">  1        2 0.37353775E+00 0.75493901E+03</pdfrwt>
<pdfrwt beam="2">  1       -2 0.48168294E-01 0.75493901E+03</pdfrwt>
<totfact> 0.16331849E+01</totfact>
</mgrwt>
</event>
<event>
 4    1  0.2878104E-007  0.7033266E+03  0.7818608E-02  0.9983671E-01
         -2   -1    0    0    0  501 -0.00000000000E+00  0.00000000000E+00  0.75710909356E+03  0.75710909357E+03  0.25500000000E-02 0.  1.
          2   -1    0    0  501    0  0.00000000000E+00 -0.00000000000E+00 -0.15087975704E+04  0.15087975704E+04  0.25500000000E-02 0. -1.
    8880023    1    1    2    0    0  0.22849741143E+03  0.92989048401E+02  0.57461541558E+03  0.90821314251E+03  0.65864270000E+03 0.  1.
    8880022    1    1    2    0    0 -0.22849741143E+03 -0.92989048401E+02 -0.13263038924E+04  0.13576935215E+04  0.15294330000E+03 0.  0.
<mgrwt>
<rscale>  0 0.56372045E+03</rscale>
<asrwt>0</asrwt>
<pdfrwt beam="1">  1        2 0.23212270E+00 0.70332655E+03</pdfrwt>
<pdfrwt beam="2">  1       -2 0.11647832E+00 0.70332655E+03</pdfrwt>
<totfact> 0.74030720E+00</totfact>
</mgrwt>
</event>
<event>
 4    1  0.2878104E-007  0.6992356E+03  0.7818608E-02  0.1000039E+00
         -2   -1    0    0    0  501 -0.00000000000E+00  0.00000000000E+00  0.62601668706E+03  0.62601668706E+03  0.25500000000E-02 0.  1.
          2   -1    0    0  501    0  0.00000000000E+00 -0.00000000000E+00 -0.29940859431E+04  0.29940859431E+04  0.25500000000E-02 0. -1.
    8880023    1    1    2    0    0 -0.17201660023E+03  0.15978263323E+03  0.42152980014E+03  0.81646664311E+03  0.65864270000E+03 0.  1.
    8880022    1    1    2    0    0  0.17201660023E+03 -0.15978263323E+03 -0.27895990562E+04  0.28036359871E+04  0.15294330000E+03 0.  0.
<mgrwt>
<rscale>  0 0.55633265E+03</rscale>
<asrwt>0</asrwt>
<pdfrwt beam="1">  1        2 0.46062860E+00 0.69923559E+03</pdfrwt>
<pdfrwt beam="2">  1       -2 0.96310261E-01 0.69923559E+03</pdfrwt>
<totfact> 0.17111273E+00</totfact>
</mgrwt>
</event>
<event>
 4    1  0.2878104E-007  0.1102437E+04  0.7818608E-02  0.9258347E-01
         -2   -1    0    0    0  501 -0.00000000000E+00  0.00000000000E+00  0.80130598296E+03  0.80130598296E+03  0.25500000000E-02 0.  1.
          2   -1    0    0  501    0  0.00000000000E+00 -0.00000000000E+00 -0.31431702003E+04  0.31431702003E+04  0.25500000000E-02 0. -1.
    8880023    1    1    2    0    0 -0.80964154936E+03 -0.35501847773E+03  0.30980222531E+03  0.11451398094E+04  0.65864270000E+03 0.  1.
    8880022    1    1    2    0    0  0.80964154936E+03  0.35501847773E+03 -0.26516664426E+04  0.27993363738E+04  0.15294330000E+03 0.  0.
<mgrwt>
<rscale>  0 0.10470959E+04</rscale>
<asrwt>0</asrwt>
<pdfrwt beam="1">  1        2 0.48356464E+00 0.11024372E+04</pdfrwt>
<pdfrwt beam="2">  1       -2 0.12327785E+00 0.11024372E+04</pdfrwt>
<totfact> 0.70404657E-01</totfact>
</mgrwt>
</event>
<event>
 4    1  0.2878104E-007  0.8933328E+03  0.7818608E-02  0.9536820E-01
         -2   -1    0    0    0  501 -0.00000000000E+00  0.00000000000E+00  0.33705389010E+03  0.33705389011E+03  0.25500000000E-02 0.  1.
          2   -1    0    0  501    0  0.00000000000E+00 -0.00000000000E+00 -0.27098144237E+04  0.27098144237E+04  0.25500000000E-02 0. -1.
    8880023    1    1    2    0    0 -0.59226235766E+03 -0.11601116008E+03 -0.40110548776E+03  0.97924925741E+03  0.65864270000E+03 0.  0.
    8880022    1    1    2    0    0  0.59226235766E+03  0.11601116008E+03 -0.19716550458E+04  0.20676190564E+04  0.15294330000E+03 0.  0.
<mgrwt>
<rscale>  0 0.81622788E+03</rscale>
<asrwt>0</asrwt>
<pdfrwt beam="1">  1        2 0.41689451E+00 0.89333280E+03</pdfrwt>
<pdfrwt beam="2">  1       -2 0.51854446E-01 0.89333280E+03</pdfrwt>
<totfact> 0.94875849E+00</totfact>
</mgrwt>
</event>
<event>
 4    1  0.2878104E-007  0.8910961E+03  0.7818608E-02  0.9540479E-01
         -2   -1    0    0    0  501 -0.00000000000E+00  0.00000000000E+00  0.69403296286E+03  0.69403296286E+03  0.25500000000E-02 0.  1.
          2   -1    0    0  501    0  0.00000000000E+00 -0.00000000000E+00 -0.31468377210E+04  0.31468377210E+04  0.25500000000E-02 0. -1.
    8880023    1    1    2    0    0  0.56446906846E+03  0.20400198125E+03  0.35971179551E+03  0.96096041526E+03  0.65864270000E+03 0.  1.
    8880022    1    1    2    0    0 -0.56446906846E+03 -0.20400198125E+03 -0.28125165537E+04  0.28799102686E+04  0.15294330000E+03 0.  0.
<mgrwt>
<rscale>  0 0.81364139E+03</rscale>
<asrwt>0</asrwt>
<pdfrwt beam="1">  1        2 0.48412887E+00 0.89109615E+03</pdfrwt>
<pdfrwt beam="2">  1       -2 0.10677430E+00 0.89109615E+03</pdfrwt>
<totfact> 0.10337004E+00</totfact>
</mgrwt>
</event>
<event>
 4    1  0.2878104E-007  0.1563570E+04  0.7818608E-02  0.8866004E-01
          2   -1    0    0  501    0  0.00000000000E+00  0.00000000000E+00  0.19749656837E+04  0.19749656837E+04  0.25500000000E-02 0. -1.
         -2   -1    0    0    0  501 -0.00000000000E+00 -0.00000000000E+00 -0.15060995173E+04  0.15060995173E+04  0.25500000000E-02 0.  1.
    8880023    1    1    2    0    0 -0.13878683832E+04 -0.29114083789E+03 -0.62473823753E+03  0.16837605852E+04  0.65864270000E+03 0.  0.
    8880022    1    1    2    0    0  0.13878683832E+04  0.29114083789E+03  0.10936044040E+04  0.17973046158E+04  0.15294330000E+03 0.  0.
<mgrwt>
<rscale>  0 0.15280614E+04</rscale>
<asrwt>0</asrwt>
<pdfrwt beam="1">  1        2 0.30384088E+00 0.15635702E+04</pdfrwt>
<pdfrwt beam="2">  1       -2 0.23170762E+00 0.15635702E+04</pdfrwt>
<totfact> 0.53629489E-01</totfact>
</mgrwt>
</event>
<event>
 4    1  0.2878104E-007  0.8819730E+03  0.7818608E-02  0.9555613E-01
          2   -1    0    0  501    0  0.00000000000E+00  0.00000000000E+00  0.23277473410E+04  0.23277473410E+04  0.25500000000E-02 0. -1.
         -2   -1    0    0    0  501 -0.00000000000E+00 -0.00000000000E+00 -0.82033325803E+03  0.82033325804E+03  0.25500000000E-02 0.  1.
    8880023    1    1    2    0    0  0.43666624994E+03 -0.39164879771E+03 -0.52553788671E+03  0.10266773939E+04  0.65864270000E+03 0.  1.
    8880022    1    1    2    0    0 -0.43666624994E+03  0.39164879771E+03  0.20329519697E+04  0.21214032051E+04  0.15294330000E+03 0.  0.
<mgrwt>
<rscale>  0 0.80304968E+03</rscale>
<asrwt>0</asrwt>
<pdfrwt beam="1">  1        2 0.35811497E+00 0.88197302E+03</pdfrwt>
<pdfrwt beam="2">  1       -2 0.12620512E+00 0.88197302E+03</pdfrwt>
<totfact> 0.20906588E+00</totfact>
</mgrwt>
</event>
<event>
 4    1  0.2878104E-007  0.1386769E+04  0.7818608E-02  0.8994032E-01
          2   -1    0    0  501    0  0.00000000000E+00  0.00000000000E+00  0.16885008353E+04  0.16885008354E+04  0.25500000000E-02 0. -1.
         -2   -1    0    0    0  501 -0.00000000000E+00 -0.00000000000E+00 -0.17089187892E+04  0.17089187892E+04  0.25500000000E-02 0.  1.
    8880023    1    1    2    0    0  0.11606753207E+04  0.37703003974E+03 -0.10928297269E+04  0.17656177019E+04  0.65864270000E+03 0.  0.
    8880022    1    1    2    0    0 -0.11606753207E+04 -0.37703003974E+03  0.10724117730E+04  0.16318019227E+04  0.15294330000E+03 0.  0.
<mgrwt>
<rscale>  0 0.13457756E+04</rscale>
<asrwt>0</asrwt>
<pdfrwt beam="1">  1        2 0.25976936E+00 0.13867693E+04</pdfrwt>
<pdfrwt beam="2">  1       -2 0.26291059E+00 0.13867693E+04</pdfrwt>
<totfact> 0.50665938E-01</totfact>
</mgrwt>
</event>
<event>
 4    1  0.2878104E-007  0.1757023E+04  0.7818608E-02  0.8746690E-01
         -2   -1    0    0    0  501 -0.00000000000E+00  0.00000000000E+00  0.24988400504E+04  0.24988400504E+04  0.25500000000E-02 0.  1.
          2   -1    0    0  501    0  0.00000000000E+00 -0.00000000000E+00 -0.13292105388E+04  0.13292105388E+04  0.25500000000E-02 0. -1.
    8880023    1    1    2    0    0  0.13744509241E+04 -0.87418733295E+03 -0.95920043515E+02  0.17596390814E+04  0.65864270000E+03 0.  0.
    8880022    1    1    2    0    0 -0.13744509241E+04  0.87418733295E+03  0.12655495551E+04  0.20684115077E+04  0.15294330000E+03 0.  0.
<mgrwt>
<rscale>  0 0.17259699E+04</rscale>
<asrwt>0</asrwt>
<pdfrwt beam="1">  1        2 0.20449393E+00 0.17570228E+04</pdfrwt>
<pdfrwt beam="2">  1       -2 0.38443693E+00 0.17570228E+04</pdfrwt>
<totfact> 0.13688367E-01</totfact>
</mgrwt>
</event>
<event>
 4    1  0.2878104E-007  0.1146794E+04  0.7818608E-02  0.9210662E-01
          2   -1    0    0  501    0  0.00000000000E+00  0.00000000000E+00  0.12551529661E+04  0.12551529661E+04  0.25500000000E-02 0. -1.
         -2   -1    0    0    0  501 -0.00000000000E+00 -0.00000000000E+00 -0.20862966128E+04  0.20862966128E+04  0.25500000000E-02 0.  1.
    8880023    1    1    2    0    0  0.28536318237E+03 -0.89436772324E+03 -0.17016895387E+04  0.20520436795E+04  0.65864270000E+03 0.  0.
    8880022    1    1    2    0    0 -0.28536318237E+03  0.89436772324E+03  0.87054589197E+03  0.12894058993E+04  0.15294330000E+03 0.  0.
<mgrwt>
<rscale>  0 0.10944051E+04</rscale>
<asrwt>0</asrwt>
<pdfrwt beam="1">  1        2 0.19310046E+00 0.11467938E+04</pdfrwt>
<pdfrwt beam="2">  1       -2 0.32096871E+00 0.11467938E+04</pdfrwt>
<totfact> 0.40875127E-01</totfact>
</mgrwt>
</event>
<event>
 4    1  0.2878104E-007  0.9103916E+03  0.7818608E-02  0.9509552E-01
         -2   -1    0    0    0  501 -0.00000000000E+00  0.00000000000E+00  0.17575936088E+04  0.17575936088E+04  0.25500000000E-02 0.  1.
          2   -1    0    0  501    0  0.00000000000E+00 -0.00000000000E+00 -0.62421232649E+03  0.62421232649E+03  0.25500000000E-02 0. -1.
    8880023    1    1    2    0    0 -0.62649147785E+03 -0.50109924187E+02 -0.17057331920E+03  0.92623325345E+03  0.65864270000E+03 0. -1.
    8880022    1    1    2    0    0  0.62649147785E+03  0.50109924187E+02  0.13039546015E+04  0.14555726819E+04  0.15294330000E+03 0.  0.
<mgrwt>
<rscale>  0 0.83583273E+03</rscale>
<asrwt>0</asrwt>
<pdfrwt beam="1">  1        2 0.96032665E-01 0.91039155E+03</pdfrwt>
<pdfrwt beam="2">  1       -2 0.27039902E+00 0.91039155E+03</pdfrwt>
<totfact> 0.23057132E+00</totfact>
</mgrwt>
</event>
<event>
 4    1  0.2878104E-007  0.1560301E+04  0.7818608E-02  0.8868189E-01
         -2   -1    0    0    0  501 -0.00000000000E+00  0.00000000000E+00  0.84353254805E+03  0.84353254806E+03  0.25500000000E-02 0.  1.
          2   -1    0    0  501    0  0.00000000000E+00 -0.00000000000E+00 -0.30180288746E+04  0.30180288746E+04  0.25500000000E-02 0. -1.
    8880023    1    1    2    0    0 -0.11572349483E+04  0.81334804211E+03 -0.44587899866E+03  0.16227587778E+04  0.65864270000E+03 0.  0.
    8880022    1    1    2    0    0  0.11572349483E+04 -0.81334804211E+03 -0.17286173279E+04  0.22388026449E+04  0.15294330000E+03 0.  0.
<mgrwt>
<rscale>  0 0.15247046E+04</rscale>
<asrwt>0</asrwt>
<pdfrwt beam="1">  1        2 0.46431213E+00 0.15603006E+04</pdfrwt>
<pdfrwt beam="2">  1       -2 0.12977424E+00 0.15603006E+04</pdfrwt>
<totfact> 0.69919927E-01</totfact>
</mgrwt>
</event>
<event>
 4    1  0.2878104E-007  0.8953871E+03  0.7818608E-02  0.9533478E-01
         -2   -1    0    0    0  501 -0.00000000000E+00  0.00000000000E+00  0.12474111634E+04  0.12474111634E+04  0.25500000000E-02 0.  1.
          2   -1    0    0  501    0  0.00000000000E+00 -0.00000000000E+00 -0.91142030639E+03  0.91142030639E+03  0.25500000000E-02 0. -1.
    8880023    1    1    2    0    0  0.71447584235E+02 -0.60233134199E+03  0.93369771633E+03  0.12936419267E+04  0.65864270000E+03 0.  1.
    8880022    1    1    2    0    0 -0.71447584235E+02  0.60233134199E+03 -0.59770685928E+03  0.86518954310E+03  0.15294330000E+03 0.  0.
<mgrwt>
<rscale>  0 0.81860006E+03</rscale>
<asrwt>0</asrwt>
<pdfrwt beam="1">  1        2 0.14021851E+00 0.89538707E+03</pdfrwt>
<pdfrwt beam="2">  1       -2 0.19190941E+00 0.89538707E+03</pdfrwt>
<totfact> 0.43495694E+00</totfact>
</mgrwt>
</event>
<event>
 4    1  0.2878104E-007  0.7804464E+03  0.7818608E-02  0.9754790E-01
         -2   -1    0    0    0  501 -0.00000000000E+00  0.00000000000E+00  0.38132136599E+03  0.38132136600E+03  0.25500000000E-02 0.  1.
          2   -1    0    0  501    0  0.00000000000E+00 -0.00000000000E+00 -0.25938043373E+04  0.25938043373E+04  0.25500000000E-02 0. -1.
    8880023    1    1    2    0    0  0.24089547618E+03 -0.34242619482E+03 -0.66425705277E+02  0.78326809582E+03  0.65864270000E+03 0.  1.
    8880022    1    1    2    0    0 -0.24089547618E+03  0.34242619482E+03 -0.21460572661E+04  0.21918576075E+04  0.15294330000E+03 0.  0.
<mgrwt>
<rscale>  0 0.67846276E+03</rscale>
<asrwt>0</asrwt>
<pdfrwt beam="1">  1        2 0.39904681E+00 0.78044637E+03</pdfrwt>
<pdfrwt beam="2">  1       -2 0.58664827E-01 0.78044637E+03</pdfrwt>
<totfact> 0.87206521E+00</totfact>
</mgrwt>
</event>
<event>
 4    1  0.2878104E-007  0.1232826E+04  0.7818608E-02  0.9125856E-01
         -2   -1    0    0    0  501 -0.00000000000E+00  0.00000000000E+00  0.11549308949E+04  0.11549308949E+04  0.25500000000E-02 0.  1.
          2   -1    0    0  501    0  0.00000000000E+00 -0.00000000000E+00 -0.14507303405E+04  0.14507303405E+04  0.25500000000E-02 0. -1.
    8880023    1    1    2    0    0 -0.15695397470E+03  0.10302495631E+04  0.45289557366E+03  0.13133823965E+04  0.65864270000E+03 0.  0.
    8880022    1    1    2    0    0  0.15695397470E+03 -0.10302495631E+04 -0.74869501925E+03  0.12922788389E+04  0.15294330000E+03 0.  0.
<mgrwt>
<rscale>  0 0.11852616E+04</rscale>
<asrwt>0</asrwt>
<pdfrwt beam="1">  1        2 0.22318928E+00 0.12328256E+04</pdfrwt>
<pdfrwt beam="2">  1       -2 0.17768168E+00 0.12328256E+04</pdfrwt>
<totfact> 0.24641513E+00</totfact>
</mgrwt>
</event>
<event>
 4    1  0.5254543E-007  0.9101967E+03  0.7818608E-02  0.9509857E-01
         -2   -1    0    0    0  501 -0.00000000000E+00  0.00000000000E+00  0.15719791276E+04  0.15719791276E+04  0.25500000000E-02 0.  1.
          2   -1    0    0  501    0  0.00000000000E+00 -0.00000000000E+00 -0.24375778180E+04  0.24375778180E+04  0.25500000000E-02 0. -1.
    8880023    1    1    2    0    0 -0.49854307204E+03  0.38223379348E+03  0.13909052195E+04  0.16622501025E+04  0.65864270000E+03 0.  0.
    8880022    1    1    2    0    0  0.49854307204E+03 -0.38223379348E+03 -0.22565039098E+04  0.23473068431E+04  0.15294330000E+03 0.  0.
<mgrwt>
<rscale>  0 0.83560998E+03</rscale>
<asrwt>0</asrwt>
<pdfrwt beam="1">  1        2 0.37501197E+00 0.91019672E+03</pdfrwt>
<pdfrwt beam="2">  1       -2 0.24184294E+00 0.91019672E+03</pdfrwt>
<totfact> 0.28028656E-01</totfact>
</mgrwt>
</event>
<event>
 4    1  0.2878104E-007  0.6798786E+03  0.7818608E-02  0.1009392E+00
         -2   -1    0    0    0  501 -0.00000000000E+00  0.00000000000E+00  0.49447692089E+03  0.49447692090E+03  0.25500000000E-02 0.  1.
          2   -1    0    0  501    0  0.00000000000E+00 -0.00000000000E+00 -0.31282135290E+04  0.31282135290E+04  0.25500000000E-02 0. -1.
    8880023    1    1    2    0    0 -0.16767750749E+03 -0.17575499367E+02  0.25416326798E+03  0.72583318865E+03  0.65864270000E+03 0.  1.
    8880022    1    1    2    0    0  0.16767750749E+03  0.17575499367E+02 -0.28878998761E+04  0.28968572613E+04  0.15294330000E+03 0.  0.
<mgrwt>
<rscale>  0 0.51716819E+03</rscale>
<asrwt>0</asrwt>
<pdfrwt beam="1">  1        2 0.48126361E+00 0.67987856E+03</pdfrwt>
<pdfrwt beam="2">  1       -2 0.76073374E-01 0.67987856E+03</pdfrwt>
<totfact> 0.24319747E+00</totfact>
</mgrwt>
</event>
<event>
 4    1  0.2878104E-007  0.1029142E+04  0.7818608E-02  0.9344387E-01
          2   -1    0    0  501    0  0.00000000000E+00  0.00000000000E+00  0.16760237050E+04  0.16760237050E+04  0.25500000000E-02 0. -1.
         -2   -1    0    0    0  501 -0.00000000000E+00 -0.00000000000E+00 -0.11959288710E+04  0.11959288710E+04  0.25500000000E-02 0.  1.
    8880023    1    1    2    0    0  0.10386078011E+03 -0.78392312078E+03 -0.83805866360E+03  0.13272057304E+04  0.65864270000E+03 0. -1.
    8880022    1    1    2    0    0 -0.10386078011E+03  0.78392312078E+03  0.13181534976E+04  0.15447468457E+04  0.15294330000E+03 0.  0.
<mgrwt>
<rscale>  0 0.96797261E+03</rscale>
<asrwt>0</asrwt>
<pdfrwt beam="1">  1        2 0.25784980E+00 0.10291417E+04</pdfrwt>
<pdfrwt beam="2">  1       -2 0.18398906E+00 0.10291417E+04</pdfrwt>
<totfact> 0.17051258E+00</totfact>
</mgrwt>
</event>
<event>
 4    1  0.2878104E-007  0.1018211E+04  0.7818608E-02  0.9358110E-01
         -2   -1    0    0    0  501 -0.00000000000E+00  0.00000000000E+00  0.14470290373E+04  0.14470290373E+04  0.25500000000E-02 0.  1.
          2   -1    0    0  501    0  0.00000000000E+00 -0.00000000000E+00 -0.10426798655E+04  0.10426798655E+04  0.25500000000E-02 0. -1.
    8880023    1    1    2    0    0  0.42002336241E+03 -0.65308839948E+03  0.10542293369E+04  0.14656581401E+04  0.65864270000E+03 0.  0.
    8880022    1    1    2    0    0 -0.42002336241E+03  0.65308839948E+03 -0.64988016513E+03  0.10240507627E+04  0.15294330000E+03 0.  0.
<mgrwt>
<rscale>  0 0.95604721E+03</rscale>
<asrwt>0</asrwt>
<pdfrwt beam="1">  1        2 0.16041229E+00 0.10182113E+04</pdfrwt>
<pdfrwt beam="2">  1       -2 0.22261985E+00 0.10182113E+04</pdfrwt>
<totfact> 0.22320481E+00</totfact>
</mgrwt>
</event>
<event>
 4    1  0.2878104E-007  0.6676111E+03  0.7818608E-02  0.1017436E+00
         -2   -1    0    0    0  501 -0.00000000000E+00  0.00000000000E+00  0.54206363189E+03  0.54206363190E+03  0.25500000000E-02 0.  1.
          2   -1    0    0  501    0  0.00000000000E+00 -0.00000000000E+00 -0.33359637953E+04  0.33359637953E+04  0.25500000000E-02 0. -1.
    8880023    1    1    2    0    0 -0.12711504053E+02 -0.10831825798E+03  0.33261087568E+03  0.74587842725E+03  0.65864270000E+03 0.  1.
    8880022    1    1    2    0    0  0.12711504053E+02  0.10831825798E+03 -0.31265110390E+04  0.31321489999E+04  0.15294330000E+03 0.  0.
<mgrwt>
<rscale>  0 0.48623152E+03</rscale>
<asrwt>0</asrwt>
<pdfrwt beam="1">  1        2 0.51322519E+00 0.66761114E+03</pdfrwt>
<pdfrwt beam="2">  1       -2 0.83394407E-01 0.66761114E+03</pdfrwt>
<totfact> 0.14621168E+00</totfact>
</mgrwt>
</event>
<event>
 4    1  0.2878104E-007  0.9685530E+03  0.7818608E-02  0.9423908E-01
         -2   -1    0    0    0  501 -0.00000000000E+00  0.00000000000E+00  0.96221854099E+03  0.96221854100E+03  0.25500000000E-02 0.  1.
          2   -1    0    0  501    0  0.00000000000E+00 -0.00000000000E+00 -0.16776883862E+04  0.16776883862E+04  0.25500000000E-02 0. -1.
    8880023    1    1    2    0    0  0.25961298155E+03 -0.66097339097E+03  0.59847101294E+03  0.11385352359E+04  0.65864270000E+03 0.  0.
    8880022    1    1    2    0    0 -0.25961298155E+03  0.66097339097E+03 -0.13139408582E+04  0.15013716913E+04  0.15294330000E+03 0.  0.
<mgrwt>
<rscale>  0 0.90133970E+03</rscale>
<asrwt>0</asrwt>
<pdfrwt beam="1">  1        2 0.25810590E+00 0.96855301E+03</pdfrwt>
<pdfrwt beam="2">  1       -2 0.14803362E+00 0.96855301E+03</pdfrwt>
<totfact> 0.31251940E+00</totfact>
</mgrwt>
</event>
<event>
 4    1  0.2878104E-007  0.1239292E+04  0.7818608E-02  0.9119843E-01
         -2   -1    0    0    0  501 -0.00000000000E+00  0.00000000000E+00  0.16632800917E+04  0.16632800917E+04  0.25500000000E-02 0.  1.
          2   -1    0    0  501    0  0.00000000000E+00 -0.00000000000E+00 -0.10808263286E+04  0.10808263286E+04  0.25500000000E-02 0. -1.
    8880023    1    1    2    0    0 -0.36989557942E+03  0.98245131342E+03  0.10115895325E+04  0.15997365131E+04  0.65864270000E+03 0.  0.
    8880022    1    1    2    0    0  0.36989557942E+03 -0.98245131342E+03 -0.42913576935E+03  0.11443699072E+04  0.15294330000E+03 0.  0.
<mgrwt>
<rscale>  0 0.11920506E+04</rscale>
<asrwt>0</asrwt>
<pdfrwt beam="1">  1        2 0.16628097E+00 0.12392915E+04</pdfrwt>
<pdfrwt beam="2">  1       -2 0.25588924E+00 0.12392915E+04</pdfrwt>
<totfact> 0.12838162E+00</totfact>
</mgrwt>
</event>
<event>
 4    1  0.2878104E-007  0.7565539E+03  0.7818608E-02  0.9814112E-01
          2   -1    0    0  501    0  0.00000000000E+00  0.00000000000E+00  0.18673930349E+04  0.18673930349E+04  0.25500000000E-02 0. -1.
         -2   -1    0    0    0  501 -0.00000000000E+00 -0.00000000000E+00 -0.36071717935E+03  0.36071717936E+03  0.25500000000E-02 0.  1.
    8880023    1    1    2    0    0  0.70120379026E+02  0.36557728650E+03  0.97757479067E+02  0.76284359533E+03  0.65864270000E+03 0.  0.
    8880022    1    1    2    0    0 -0.70120379026E+02 -0.36557728650E+03  0.14089183765E+04  0.14652666189E+04  0.15294330000E+03 0.  0.
<mgrwt>
<rscale>  0 0.64610678E+03</rscale>
<asrwt>0</asrwt>
<pdfrwt beam="1">  1        2 0.28729124E+00 0.75655391E+03</pdfrwt>
<pdfrwt beam="2">  1       -2 0.55494950E-01 0.75655391E+03</pdfrwt>
<totfact> 0.24874717E+01</totfact>
</mgrwt>
</event>
<event>
 4    1  0.2878104E-007  0.7206896E+03  0.7818608E-02  0.9920259E-01
          2   -1    0    0  501    0  0.00000000000E+00  0.00000000000E+00  0.63151967944E+03  0.63151967945E+03  0.25500000000E-02 0. -1.
         -2   -1    0    0    0  501 -0.00000000000E+00 -0.00000000000E+00 -0.80152381928E+03  0.80152381929E+03  0.25500000000E-02 0.  1.
    8880023    1    1    2    0    0 -0.27633860678E+03  0.96022346301E+02 -0.56680715772E+03  0.91687724200E+03  0.65864270000E+03 0.  0.
    8880022    1    1    2    0    0  0.27633860678E+03 -0.96022346301E+02  0.39680301787E+03  0.51616625674E+03  0.15294330000E+03 0.  0.
<mgrwt>
<rscale>  0 0.59289398E+03</rscale>
<asrwt>0</asrwt>
<pdfrwt beam="1">  1        2 0.97156873E-01 0.72068962E+03</pdfrwt>
<pdfrwt beam="2">  1       -2 0.12331136E+00 0.72068962E+03</pdfrwt>
<totfact> 0.23483908E+01</totfact>
</mgrwt>
</event>
<event>
 4    1  0.2878104E-007  0.1552164E+04  0.7818608E-02  0.8873653E-01
          2   -1    0    0  501    0  0.00000000000E+00  0.00000000000E+00  0.21303016972E+04  0.21303016972E+04  0.25500000000E-02 0. -1.
         -2   -1    0    0    0  501 -0.00000000000E+00 -0.00000000000E+00 -0.14408670871E+04  0.14408670871E+04  0.25500000000E-02 0.  1.
    8880023    1    1    2    0    0  0.39859055810E+03  0.13477868394E+04 -0.59378338897E+03  0.16618642294E+04  0.65864270000E+03 0.  0.
    8880022    1    1    2    0    0 -0.39859055810E+03 -0.13477868394E+04  0.12832179991E+04  0.19093045550E+04  0.15294330000E+03 0.  0.
<mgrwt>
<rscale>  0 0.15163495E+04</rscale>
<asrwt>0</asrwt>
<pdfrwt beam="1">  1        2 0.32773872E+00 0.15521643E+04</pdfrwt>
<pdfrwt beam="2">  1       -2 0.22167186E+00 0.15521643E+04</pdfrwt>
<totfact> 0.50847217E-01</totfact>
</mgrwt>
</event>
<event>
 4    1  0.2878104E-007  0.1231546E+04  0.7818608E-02  0.9127052E-01
          2   -1    0    0  501    0  0.00000000000E+00  0.00000000000E+00  0.16068378136E+04  0.16068378136E+04  0.25500000000E-02 0. -1.
         -2   -1    0    0    0  501 -0.00000000000E+00 -0.00000000000E+00 -0.11176726864E+04  0.11176726864E+04  0.25500000000E-02 0.  1.
    8880023    1    1    2    0    0  0.18547576602E+03  0.10239594648E+04 -0.45321396775E+03  0.13122908794E+04  0.65864270000E+03 0.  0.
    8880022    1    1    2    0    0 -0.18547576602E+03 -0.10239594648E+04  0.94237909501E+03  0.14122196207E+04  0.15294330000E+03 0.  0.
<mgrwt>
<rscale>  0 0.11839171E+04</rscale>
<asrwt>0</asrwt>
<pdfrwt beam="1">  1        2 0.24720582E+00 0.12315456E+04</pdfrwt>
<pdfrwt beam="2">  1       -2 0.17194964E+00 0.12315456E+04</pdfrwt>
<totfact> 0.22079618E+00</totfact>
</mgrwt>
</event>
<event>
 4    1  0.2878104E-007  0.7020246E+03  0.7818608E-02  0.9988904E-01
         -2   -1    0    0    0  501 -0.00000000000E+00  0.00000000000E+00  0.49242568668E+03  0.49242568669E+03  0.25500000000E-02 0.  1.
          2   -1    0    0  501    0  0.00000000000E+00 -0.00000000000E+00 -0.20329904377E+04  0.20329904377E+04  0.25500000000E-02 0. -1.
    8880023    1    1    2    0    0 -0.41227293062E+02  0.23943410984E+03  0.22458423630E+03  0.73707304123E+03  0.65864270000E+03 0.  1.
    8880022    1    1    2    0    0  0.41227293062E+02 -0.23943410984E+03 -0.17651489874E+04  0.17883430832E+04  0.15294330000E+03 0.  0.
<mgrwt>
<rscale>  0 0.56139477E+03</rscale>
<asrwt>0</asrwt>
<pdfrwt beam="1">  1        2 0.31276776E+00 0.70202464E+03</pdfrwt>
<pdfrwt beam="2">  1       -2 0.75757799E-01 0.70202464E+03</pdfrwt>
<totfact> 0.10440682E+01</totfact>
</mgrwt>
</event>
<event>
 4    1  0.2878104E-007  0.1075715E+04  0.7818608E-02  0.9288588E-01
          2   -1    0    0  501    0  0.00000000000E+00  0.00000000000E+00  0.14422091681E+04  0.14422091681E+04  0.25500000000E-02 0. -1.
         -2   -1    0    0    0  501 -0.00000000000E+00 -0.00000000000E+00 -0.29800749625E+04  0.29800749625E+04  0.25500000000E-02 0.  1.
    8880023    1    1    2    0    0 -0.60338576371E+03 -0.59939851624E+03 -0.27389614724E+04  0.29426303055E+04  0.65864270000E+03 0.  1.
    8880022    1    1    2    0    0  0.60338576371E+03  0.59939851624E+03  0.12010956781E+04  0.14796538251E+04  0.15294330000E+03 0.  0.
<mgrwt>
<rscale>  0 0.10184026E+04</rscale>
<asrwt>0</asrwt>
<pdfrwt beam="1">  1        2 0.22187833E+00 0.10757152E+04</pdfrwt>
<pdfrwt beam="2">  1       -2 0.45847307E+00 0.10757152E+04</pdfrwt>
<totfact> 0.41909576E-02</totfact>
</mgrwt>
</event>
<event>
 4    1  0.2878104E-007  0.1010240E+04  0.7818608E-02  0.9368282E-01
         -2   -1    0    0    0  501 -0.00000000000E+00  0.00000000000E+00  0.81138825019E+03  0.81138825019E+03  0.25500000000E-02 0.  1.
          2   -1    0    0  501    0  0.00000000000E+00 -0.00000000000E+00 -0.10420450052E+04  0.10420450052E+04  0.25500000000E-02 0. -1.
    8880023    1    1    2    0    0 -0.30449117131E+03  0.70289372298E+03  0.78639871896E+02  0.10132960549E+04  0.65864270000E+03 0. -1.
    8880022    1    1    2    0    0  0.30449117131E+03 -0.70289372298E+03 -0.30929662693E+03  0.84013720049E+03  0.15294330000E+03 0.  1.
<mgrwt>
<rscale>  0 0.94732588E+03</rscale>
<asrwt>0</asrwt>
<pdfrwt beam="1">  1        2 0.16031462E+00 0.10102399E+04</pdfrwt>
<pdfrwt beam="2">  1       -2 0.12482896E+00 0.10102399E+04</pdfrwt>
<totfact> 0.11295336E+01</totfact>
</mgrwt>
</event>
<event>
 4    1  0.2878104E-007  0.9097682E+03  0.7818608E-02  0.9510529E-01
         -2   -1    0    0    0  501 -0.00000000000E+00  0.00000000000E+00  0.60182800945E+03  0.60182800945E+03  0.25500000000E-02 0.  1.
          2   -1    0    0  501    0  0.00000000000E+00 -0.00000000000E+00 -0.24003667611E+04  0.24003667611E+04  0.25500000000E-02 0. -1.
    8880023    1    1    2    0    0  0.55897488196E+03 -0.28533310117E+03  0.17428445396E+03  0.92631159684E+03  0.65864270000E+03 0.  1.
    8880022    1    1    2    0    0 -0.55897488196E+03  0.28533310117E+03 -0.19728232056E+04  0.20758831737E+04  0.15294330000E+03 0.  0.
<mgrwt>
<rscale>  0 0.83511991E+03</rscale>
<asrwt>0</asrwt>
<pdfrwt beam="1">  1        2 0.36928719E+00 0.90976816E+03</pdfrwt>
<pdfrwt beam="2">  1       -2 0.92588926E-01 0.90976816E+03</pdfrwt>
<totfact> 0.40115577E+00</totfact>
</mgrwt>
</event>
<event>
 4    1  0.2878104E-007  0.1039338E+04  0.7818608E-02  0.9331810E-01
          2   -1    0    0  501    0  0.00000000000E+00  0.00000000000E+00  0.14017889256E+04  0.14017889256E+04  0.25500000000E-02 0. -1.
         -2   -1    0    0    0  501 -0.00000000000E+00 -0.00000000000E+00 -0.89353009506E+03  0.89353009507E+03  0.25500000000E-02 0.  1.
    8880023    1    1    2    0    0  0.24347778486E+03 -0.76624477311E+03 -0.36210180648E+03  0.11006091080E+04  0.65864270000E+03 0.  1.
    8880022    1    1    2    0    0 -0.24347778486E+03  0.76624477311E+03  0.87036063702E+03  0.11947099127E+04  0.15294330000E+03 0.  0.
<mgrwt>
<rscale>  0 0.97906373E+03</rscale>
<asrwt>0</asrwt>
<pdfrwt beam="1">  1        2 0.21565983E+00 0.10393376E+04</pdfrwt>
<pdfrwt beam="2">  1       -2 0.13746617E+00 0.10393376E+04</pdfrwt>
<totfact> 0.53733962E+00</totfact>
</mgrwt>
</event>
<event>
 4    1  0.2878104E-007  0.9583491E+03  0.7818608E-02  0.9438202E-01
         -2   -1    0    0    0  501 -0.00000000000E+00  0.00000000000E+00  0.38497019796E+03  0.38497019797E+03  0.25500000000E-02 0.  1.
          2   -1    0    0  501    0  0.00000000000E+00 -0.00000000000E+00 -0.32649886330E+04  0.32649886330E+04  0.25500000000E-02 0. -1.
    8880023    1    1    2    0    0 -0.65718175347E+03 -0.22964091512E+03 -0.34806811179E+03  0.10196001293E+04  0.65864270000E+03 0.  1.
    8880022    1    1    2    0    0  0.65718175347E+03  0.22964091512E+03 -0.25319503232E+04  0.26303587016E+04  0.15294330000E+03 0.  0.
<mgrwt>
<rscale>  0 0.88997399E+03</rscale>
<asrwt>0</asrwt>
<pdfrwt beam="1">  1        2 0.50230593E+00 0.95834911E+03</pdfrwt>
<pdfrwt beam="2">  1       -2 0.59226186E-01 0.95834911E+03</pdfrwt>
<totfact> 0.32428400E+00</totfact>
</mgrwt>
</event>
<event>
 4    1  0.2878104E-007  0.9018211E+03  0.7818608E-02  0.9523114E-01
         -2   -1    0    0    0  501 -0.00000000000E+00  0.00000000000E+00  0.59120284502E+03  0.59120284503E+03  0.25500000000E-02 0.  1.
          2   -1    0    0  501    0  0.00000000000E+00 -0.00000000000E+00 -0.26573218215E+04  0.26573218215E+04  0.25500000000E-02 0. -1.
    8880023    1    1    2    0    0 -0.60033112161E+03  0.13810736659E+03  0.17553393349E+03  0.91874559501E+03  0.65864270000E+03 0.  1.
    8880022    1    1    2    0    0  0.60033112161E+03 -0.13810736659E+03 -0.22416529100E+04  0.23297790715E+04  0.15294330000E+03 0.  0.
<mgrwt>
<rscale>  0 0.82600930E+03</rscale>
<asrwt>0</asrwt>
<pdfrwt beam="1">  1        2 0.40881873E+00 0.90182111E+03</pdfrwt>
<pdfrwt beam="2">  1       -2 0.90954286E-01 0.90182111E+03</pdfrwt>
<totfact> 0.29835103E+00</totfact>
</mgrwt>
</event>
<event>
 4    1  0.2878104E-007  0.1160293E+04  0.7818608E-02  0.9196722E-01
          2   -1    0    0  501    0  0.00000000000E+00  0.00000000000E+00  0.30692510961E+04  0.30692510961E+04  0.25500000000E-02 0. -1.
         -2   -1    0    0    0  501 -0.00000000000E+00 -0.00000000000E+00 -0.69587522412E+03  0.69587522412E+03  0.25500000000E-02 0.  1.
    8880023    1    1    2    0    0 -0.93856760631E+03 -0.17764950653E+03 -0.44248147579E+02  0.11611359109E+04  0.65864270000E+03 0.  0.
    8880022    1    1    2    0    0  0.93856760631E+03  0.17764950653E+03  0.24176240196E+04  0.26039904093E+04  0.15294330000E+03 0.  0.
<mgrwt>
<rscale>  0 0.11087330E+04</rscale>
<asrwt>0</asrwt>
<pdfrwt beam="1">  1        2 0.47219248E+00 0.11602925E+04</pdfrwt>
<pdfrwt beam="2">  1       -2 0.10705773E+00 0.11602925E+04</pdfrwt>
<totfact> 0.11003264E+00</totfact>
</mgrwt>
</event>
<event>
 4    1  0.2878104E-007  0.8039410E+03  0.7818608E-02  0.9702339E-01
         -2   -1    0    0    0  501 -0.00000000000E+00  0.00000000000E+00  0.39261334644E+03  0.39261334645E+03  0.25500000000E-02 0.  1.
          2   -1    0    0  501    0  0.00000000000E+00 -0.00000000000E+00 -0.34089084257E+04  0.34089084257E+04  0.25500000000E-02 0. -1.
    8880023    1    1    2    0    0 -0.13337645670E+03 -0.44127278964E+03 -0.60639155263E+02  0.80622470038E+03  0.65864270000E+03 0.  1.
    8880022    1    1    2    0    0  0.13337645670E+03  0.44127278964E+03 -0.29556559240E+04  0.29952970718E+04  0.15294330000E+03 0.  0.
<mgrwt>
<rscale>  0 0.70877719E+03</rscale>
<asrwt>0</asrwt>
<pdfrwt beam="1">  1        2 0.52444743E+00 0.80394102E+03</pdfrwt>
<pdfrwt beam="2">  1       -2 0.60402055E-01 0.80394102E+03</pdfrwt>
<totfact> 0.25708032E+00</totfact>
</mgrwt>
</event>
<event>
 4    1  0.2878104E-007  0.1103579E+04  0.7818608E-02  0.9257082E-01
         -2   -1    0    0    0  501 -0.00000000000E+00  0.00000000000E+00  0.77751512572E+03  0.77751512572E+03  0.25500000000E-02 0.  1.
          2   -1    0    0  501    0  0.00000000000E+00 -0.00000000000E+00 -0.17920529074E+04  0.17920529074E+04  0.25500000000E-02 0. -1.
    8880023    1    1    2    0    0 -0.43309592351E+03 -0.77233648008E+03  0.13355379005E+03  0.11116305765E+04  0.65864270000E+03 0.  0.
    8880022    1    1    2    0    0  0.43309592351E+03  0.77233648008E+03 -0.11480915717E+04  0.14579374566E+04  0.15294330000E+03 0.  0.
<mgrwt>
<rscale>  0 0.10483181E+04</rscale>
<asrwt>0</asrwt>
<pdfrwt beam="1">  1        2 0.27570045E+00 0.11035787E+04</pdfrwt>
<pdfrwt beam="2">  1       -2 0.11961771E+00 0.11035787E+04</pdfrwt>
<totfact> 0.45958507E+00</totfact>
</mgrwt>
</event>
<event>
 4    1  0.2878104E-007  0.1451034E+04  0.7818608E-02  0.8945009E-01
         -2   -1    0    0    0  501 -0.00000000000E+00  0.00000000000E+00  0.66875984296E+03  0.66875984297E+03  0.25500000000E-02 0.  1.
          2   -1    0    0  501    0  0.00000000000E+00 -0.00000000000E+00 -0.30671101619E+04  0.30671101619E+04  0.25500000000E-02 0. -1.
    8880023    1    1    2    0    0 -0.77661446569E+03  0.10337116463E+04 -0.74401914283E+03  0.16306638180E+04  0.65864270000E+03 0.  0.
    8880022    1    1    2    0    0  0.77661446569E+03 -0.10337116463E+04 -0.16543311761E+04  0.21052061869E+04  0.15294330000E+03 0.  0.
<mgrwt>
<rscale>  0 0.14122352E+04</rscale>
<asrwt>0</asrwt>
<pdfrwt beam="1">  1        2 0.47186309E+00 0.14510341E+04</pdfrwt>
<pdfrwt beam="2">  1       -2 0.10288613E+00 0.14510341E+04</pdfrwt>
<totfact> 0.11721987E+00</totfact>
</mgrwt>
</event>
<event>
 4    1  0.2878104E-007  0.8471417E+03  0.7818608E-02  0.9616858E-01
          2   -1    0    0  501    0  0.00000000000E+00  0.00000000000E+00  0.51330090411E+03  0.51330090412E+03  0.25500000000E-02 0. -1.
         -2   -1    0    0    0  501 -0.00000000000E+00 -0.00000000000E+00 -0.11352701417E+04  0.11352701417E+04  0.25500000000E-02 0.  1.
    8880023    1    1    2    0    0  0.33485007490E+03 -0.41438414030E+03 -0.44764224328E+02  0.84832354113E+03  0.65864270000E+03 0.  0.
    8880022    1    1    2    0    0 -0.33485007490E+03  0.41438414030E+03 -0.57720501322E+03  0.80024750464E+03  0.15294330000E+03 0.  0.
<mgrwt>
<rscale>  0 0.76190366E+03</rscale>
<asrwt>0</asrwt>
<pdfrwt beam="1">  1        2 0.78969370E-01 0.84714166E+03</pdfrwt>
<pdfrwt beam="2">  1       -2 0.17465694E+00 0.84714166E+03</pdfrwt>
<totfact> 0.11878860E+01</totfact>
</mgrwt>
</event>
<event>
 4    1  0.2878104E-007  0.8748949E+03  0.7818608E-02  0.9567598E-01
         -2   -1    0    0    0  501 -0.00000000000E+00  0.00000000000E+00  0.11657019218E+04  0.11657019218E+04  0.25500000000E-02 0.  1.
          2   -1    0    0  501    0  0.00000000000E+00 -0.00000000000E+00 -0.83399990942E+03  0.83399990942E+03  0.25500000000E-02 0. -1.
    8880023    1    1    2    0    0 -0.31159851874E+03  0.48429044669E+03  0.84271390548E+03  0.12147459843E+04  0.65864270000E+03 0.  0.
    8880022    1    1    2    0    0  0.31159851874E+03 -0.48429044669E+03 -0.51101189313E+03  0.78495584689E+03  0.15294330000E+03 0. -1.
<mgrwt>
<rscale>  0 0.79478361E+03</rscale>
<asrwt>0</asrwt>
<pdfrwt beam="1">  1        2 0.12830768E+00 0.87489490E+03</pdfrwt>
<pdfrwt beam="2">  1       -2 0.17933876E+00 0.87489490E+03</pdfrwt>
<totfact> 0.59953723E+00</totfact>
</mgrwt>
</event>
<event>
 4    1  0.2878104E-007  0.1099508E+04  0.7818608E-02  0.9261604E-01
          2   -1    0    0  501    0  0.00000000000E+00  0.00000000000E+00  0.16790361780E+04  0.16790361780E+04  0.25500000000E-02 0. -1.
         -2   -1    0    0    0  501 -0.00000000000E+00 -0.00000000000E+00 -0.25659802108E+04  0.25659802108E+04  0.25500000000E-02 0.  1.
    8880023    1    1    2    0    0 -0.40655372678E+03  0.78091048476E+03 -0.23136223349E+04  0.25615943536E+04  0.65864270000E+03 0.  1.
    8880022    1    1    2    0    0  0.40655372678E+03 -0.78091048476E+03  0.14266783020E+04  0.16834220351E+04  0.15294330000E+03 0.  0.
<mgrwt>
<rscale>  0 0.10439580E+04</rscale>
<asrwt>0</asrwt>
<pdfrwt beam="1">  1        2 0.25831326E+00 0.10995078E+04</pdfrwt>
<pdfrwt beam="2">  1       -2 0.39476618E+00 0.10995078E+04</pdfrwt>
<totfact> 0.80928850E-02</totfact>
</mgrwt>
</event>
<event>
 4    1  0.2878104E-007  0.1016782E+04  0.7818608E-02  0.9359924E-01
          2   -1    0    0  501    0  0.00000000000E+00  0.00000000000E+00  0.20787607057E+04  0.20787607057E+04  0.25500000000E-02 0. -1.
         -2   -1    0    0    0  501 -0.00000000000E+00 -0.00000000000E+00 -0.62219324822E+03  0.62219324823E+03  0.25500000000E-02 0.  1.
    8880023    1    1    2    0    0 -0.62709031358E+03  0.45474501199E+03 -0.30532048472E+02  0.10172402369E+04  0.65864270000E+03 0.  0.
    8880022    1    1    2    0    0  0.62709031358E+03 -0.45474501199E+03  0.14870995060E+04  0.16837137170E+04  0.15294330000E+03 0.  1.
<mgrwt>
<rscale>  0 0.95448490E+03</rscale>
<asrwt>0</asrwt>
<pdfrwt beam="1">  1        2 0.31980934E+00 0.10167819E+04</pdfrwt>
<pdfrwt beam="2">  1       -2 0.95722039E-01 0.10167819E+04</pdfrwt>
<totfact> 0.55285900E+00</totfact>
</mgrwt>
</event>
<event>
 4    1  0.2878104E-007  0.8934621E+03  0.7818608E-02  0.9536610E-01
         -2   -1    0    0    0  501 -0.00000000000E+00  0.00000000000E+00  0.15744795531E+04  0.15744795531E+04  0.25500000000E-02 0.  1.
          2   -1    0    0  501    0  0.00000000000E+00 -0.00000000000E+00 -0.73771269686E+03  0.73771269687E+03  0.25500000000E-02 0. -1.
    8880023    1    1    2    0    0  0.58768512229E+03 -0.13816859717E+03  0.12705387135E+04  0.15532363610E+04  0.65864270000E+03 0.  1.
    8880022    1    1    2    0    0 -0.58768512229E+03  0.13816859717E+03 -0.43377185731E+03  0.75895588898E+03  0.15294330000E+03 0.  0.
<mgrwt>
<rscale>  0 0.81637731E+03</rscale>
<asrwt>0</asrwt>
<pdfrwt beam="1">  1        2 0.11349426E+00 0.89346213E+03</pdfrwt>
<pdfrwt beam="2">  1       -2 0.24222762E+00 0.89346213E+03</pdfrwt>
<totfact> 0.27752983E+00</totfact>
</mgrwt>
</event>
<event>
 4    1  0.2878104E-007  0.1160828E+04  0.7818608E-02  0.9196174E-01
          2   -1    0    0  501    0  0.00000000000E+00  0.00000000000E+00  0.91016609359E+03  0.91016609359E+03  0.25500000000E-02 0. -1.
         -2   -1    0    0    0  501 -0.00000000000E+00 -0.00000000000E+00 -0.20934168867E+04  0.20934168867E+04  0.25500000000E-02 0.  1.
    8880023    1    1    2    0    0  0.42737300730E+03 -0.85502298000E+03 -0.15772973029E+04  0.19584149131E+04  0.65864270000E+03 0.  0.
    8880022    1    1    2    0    0 -0.42737300730E+03  0.85502298000E+03  0.39404650986E+03  0.10451680672E+04  0.15294330000E+03 0.  0.
<mgrwt>
<rscale>  0 0.11093011E+04</rscale>
<asrwt>0</asrwt>
<pdfrwt beam="1">  1        2 0.14002555E+00 0.11608282E+04</pdfrwt>
<pdfrwt beam="2">  1       -2 0.32206413E+00 0.11608282E+04</pdfrwt>
<totfact> 0.66160646E-01</totfact>
</mgrwt>
</event>
<event>
 4    1  0.2878104E-007  0.6705246E+03  0.7818608E-02  0.1015290E+00
          2   -1    0    0  501    0  0.00000000000E+00  0.00000000000E+00  0.14286818290E+04  0.14286818290E+04  0.25500000000E-02 0. -1.
         -2   -1    0    0    0  501 -0.00000000000E+00 -0.00000000000E+00 -0.60669146376E+03  0.60669146376E+03  0.25500000000E-02 0.  1.
    8880023    1    1    2    0    0  0.12378459633E+03 -0.21688334539E+02 -0.41108663739E+03  0.78650838511E+03  0.65864270000E+03 0.  1.
    8880022    1    1    2    0    0 -0.12378459633E+03  0.21688334539E+02  0.12330770026E+04  0.12488649076E+04  0.15294330000E+03 0.  0.
<mgrwt>
<rscale>  0 0.49425440E+03</rscale>
<asrwt>0</asrwt>
<pdfrwt beam="1">  1        2 0.21979720E+00 0.67052458E+03</pdfrwt>
<pdfrwt beam="2">  1       -2 0.93337149E-01 0.67052458E+03</pdfrwt>
<totfact> 0.13994906E+01</totfact>
</mgrwt>
</event>
<event>
 4    1  0.2878104E-007  0.9924153E+03  0.7818608E-02  0.9391549E-01
          2   -1    0    0  501    0  0.00000000000E+00  0.00000000000E+00  0.25382013188E+04  0.25382013188E+04  0.25500000000E-02 0. -1.
         -2   -1    0    0    0  501 -0.00000000000E+00 -0.00000000000E+00 -0.60688704716E+03  0.60688704716E+03  0.25500000000E-02 0.  1.
    8880023    1    1    2    0    0 -0.74096199128E+03 -0.45312349088E+02 -0.80068041461E+02  0.99563998465E+03  0.65864270000E+03 0.  0.
    8880022    1    1    2    0    0  0.74096199128E+03  0.45312349088E+02  0.20113823131E+04  0.21494483813E+04  0.15294330000E+03 0.  0.
<mgrwt>
<rscale>  0 0.92774465E+03</rscale>
<asrwt>0</asrwt>
<pdfrwt beam="1">  1        2 0.39049250E+00 0.99241528E+03</pdfrwt>
<pdfrwt beam="2">  1       -2 0.93367240E-01 0.99241528E+03</pdfrwt>
<totfact> 0.32451601E+00</totfact>
</mgrwt>
</event>
<event>
 4    1  0.2878104E-007  0.9618701E+03  0.7818608E-02  0.9433237E-01
         -2   -1    0    0    0  501 -0.00000000000E+00  0.00000000000E+00  0.72739201169E+03  0.72739201169E+03  0.25500000000E-02 0.  1.
          2   -1    0    0  501    0  0.00000000000E+00 -0.00000000000E+00 -0.12333022613E+04  0.12333022613E+04  0.25500000000E-02 0. -1.
    8880023    1    1    2    0    0 -0.67036131235E+03  0.20493795068E+03  0.16790695471E+03  0.97641528277E+03  0.65864270000E+03 0.  0.
    8880022    1    1    2    0    0  0.67036131235E+03 -0.20493795068E+03 -0.67381720429E+03  0.98427899019E+03  0.15294330000E+03 0.  0.
<mgrwt>
<rscale>  0 0.89390126E+03</rscale>
<asrwt>0</asrwt>
<pdfrwt beam="1">  1        2 0.18973881E+00 0.96187008E+03</pdfrwt>
<pdfrwt beam="2">  1       -2 0.11190646E+00 0.96187008E+03</pdfrwt>
<totfact> 0.11367672E+01</totfact>
</mgrwt>
</event>
<event>
 4    1  0.2878104E-007  0.1196081E+04  0.7818608E-02  0.9160942E-01
          2   -1    0    0  501    0  0.00000000000E+00  0.00000000000E+00  0.16908749423E+04  0.16908749423E+04  0.25500000000E-02 0. -1.
         -2   -1    0    0    0  501 -0.00000000000E+00 -0.00000000000E+00 -0.81991497909E+03  0.81991497910E+03  0.25500000000E-02 0.  1.
    8880023    1    1    2    0    0 -0.94361306487E+03 -0.32617926428E+03  0.29958006359E+02  0.11964556895E+04  0.65864270000E+03 0.  0.
    8880022    1    1    2    0    0  0.94361306487E+03  0.32617926428E+03  0.84100195689E+03  0.13143342319E+04  0.15294330000E+03 0.  0.
<mgrwt>
<rscale>  0 0.11465829E+04</rscale>
<asrwt>0</asrwt>
<pdfrwt beam="1">  1        2 0.26013461E+00 0.11960806E+04</pdfrwt>
<pdfrwt beam="2">  1       -2 0.12614077E+00 0.11960806E+04</pdfrwt>
<totfact> 0.45328019E+00</totfact>
</mgrwt>
</event>
<event>
 4    1  0.2878104E-007  0.1131452E+04  0.7818608E-02  0.9226821E-01
         -2   -1    0    0    0  501 -0.00000000000E+00  0.00000000000E+00  0.16445331399E+04  0.16445331399E+04  0.25500000000E-02 0.  1.
          2   -1    0    0  501    0  0.00000000000E+00 -0.00000000000E+00 -0.75837263025E+03  0.75837263025E+03  0.25500000000E-02 0. -1.
    8880023    1    1    2    0    0 -0.26520750368E+03  0.88093034967E+03  0.22290360736E+02  0.11316714927E+04  0.65864270000E+03 0. -1.
    8880022    1    1    2    0    0  0.26520750368E+03 -0.88093034967E+03  0.86387014895E+03  0.12712342775E+04  0.15294330000E+03 0.  1.
<mgrwt>
<rscale>  0 0.10780833E+04</rscale>
<asrwt>0</asrwt>
<pdfrwt beam="1">  1        2 0.11667271E+00 0.11314519E+04</pdfrwt>
<pdfrwt beam="2">  1       -2 0.25300510E+00 0.11314519E+04</pdfrwt>
<totfact> 0.22400085E+00</totfact>
</mgrwt>
</event>
<event>
 4    1  0.2878104E-007  0.8835851E+03  0.7818608E-02  0.9552914E-01
         -2   -1    0    0    0  501 -0.00000000000E+00  0.00000000000E+00  0.78956358197E+03  0.78956358198E+03  0.25500000000E-02 0.  1.
          2   -1    0    0  501    0  0.00000000000E+00 -0.00000000000E+00 -0.18309063940E+04  0.18309063940E+04  0.25500000000E-02 0. -1.
    8880023    1    1    2    0    0  0.54969641213E+03 -0.21153296229E+03  0.46311991662E+03  0.99759841774E+03  0.65864270000E+03 0.  0.
    8880022    1    1    2    0    0 -0.54969641213E+03  0.21153296229E+03 -0.15044627287E+04  0.16228715582E+04  0.15294330000E+03 0.  0.
<mgrwt>
<rscale>  0 0.80492621E+03</rscale>
<asrwt>0</asrwt>
<pdfrwt beam="1">  1        2 0.28167791E+00 0.88358505E+03</pdfrwt>
<pdfrwt beam="2">  1       -2 0.12147132E+00 0.88358505E+03</pdfrwt>
<totfact> 0.43234948E+00</totfact>
</mgrwt>
</event>
<event>
 4    1  0.2878104E-007  0.8315246E+03  0.7818608E-02  0.9646373E-01
         -2   -1    0    0    0  501 -0.00000000000E+00  0.00000000000E+00  0.95340831296E+03  0.95340831296E+03  0.25500000000E-02 0.  1.
          2   -1    0    0  501    0  0.00000000000E+00 -0.00000000000E+00 -0.22372349866E+04  0.22372349866E+04  0.25500000000E-02 0. -1.
    8880023    1    1    2    0    0 -0.45988433588E+03  0.21477747350E+03  0.73105583686E+03  0.11071927603E+04  0.65864270000E+03 0.  0.
    8880022    1    1    2    0    0  0.45988433588E+03 -0.21477747350E+03 -0.20148825105E+04  0.20834505393E+04  0.15294330000E+03 0.  0.
<mgrwt>
<rscale>  0 0.74301476E+03</rscale>
<asrwt>0</asrwt>
<pdfrwt beam="1">  1        2 0.34419000E+00 0.83152461E+03</pdfrwt>
<pdfrwt beam="2">  1       -2 0.14667820E+00 0.83152461E+03</pdfrwt>
<totfact> 0.16087261E+00</totfact>
</mgrwt>
</event>
<event>
 4    1  0.2878104E-007  0.7220020E+03  0.7818608E-02  0.9915869E-01
         -2   -1    0    0    0  501 -0.00000000000E+00  0.00000000000E+00  0.35797720679E+03  0.35797720680E+03  0.25500000000E-02 0.  1.
          2   -1    0    0  501    0  0.00000000000E+00 -0.00000000000E+00 -0.20176975111E+04  0.20176975111E+04  0.25500000000E-02 0. -1.
    8880023    1    1    2    0    0 -0.11356037177E+03 -0.27309458649E+03 -0.41110101809E+02  0.72317138905E+03  0.65864270000E+03 0.  1.
    8880022    1    1    2    0    0  0.11356037177E+03  0.27309458649E+03 -0.16186102025E+04  0.16525033288E+04  0.15294330000E+03 0.  0.
<mgrwt>
<rscale>  0 0.59498317E+03</rscale>
<asrwt>0</asrwt>
<pdfrwt beam="1">  1        2 0.31041499E+00 0.72200195E+03</pdfrwt>
<pdfrwt beam="2">  1       -2 0.55073418E-01 0.72200195E+03</pdfrwt>
<totfact> 0.21025300E+01</totfact>
</mgrwt>
</event>
<event>
 4    1  0.2878104E-007  0.8172731E+03  0.7818608E-02  0.9674622E-01
         -2   -1    0    0    0  501 -0.00000000000E+00  0.00000000000E+00  0.30770173230E+03  0.30770173231E+03  0.25500000000E-02 0.  1.
          2   -1    0    0  501    0  0.00000000000E+00 -0.00000000000E+00 -0.16653660985E+04  0.16653660985E+04  0.25500000000E-02 0. -1.
    8880023    1    1    2    0    0  0.22902011367E+03 -0.42623342153E+03 -0.44947160263E+03  0.93271650030E+03  0.65864270000E+03 0.  1.
    8880022    1    1    2    0    0 -0.22902011367E+03  0.42623342153E+03 -0.90819276354E+03  0.10403513305E+04  0.15294330000E+03 0.  0.
<mgrwt>
<rscale>  0 0.72548110E+03</rscale>
<asrwt>0</asrwt>
<pdfrwt beam="1">  1        2 0.25621016E+00 0.81727312E+03</pdfrwt>
<pdfrwt beam="2">  1       -2 0.47338729E-01 0.81727312E+03</pdfrwt>
<totfact> 0.44113193E+01</totfact>
</mgrwt>
</event>
<event>
 4    1  0.2878104E-007  0.1538425E+04  0.7818608E-02  0.8882969E-01
         -2   -1    0    0    0  501 -0.00000000000E+00  0.00000000000E+00  0.89285415284E+03  0.89285415284E+03  0.25500000000E-02 0.  1.
          2   -1    0    0  501    0  0.00000000000E+00 -0.00000000000E+00 -0.30958901514E+04  0.30958901514E+04  0.25500000000E-02 0. -1.
    8880023    1    1    2    0    0 -0.10611699010E+04  0.89825382975E+03 -0.20825115412E+03  0.15524561993E+04  0.65864270000E+03 0.  0.
    8880022    1    1    2    0    0  0.10611699010E+04 -0.89825382975E+03 -0.19947848445E+04  0.24362881049E+04  0.15294330000E+03 0.  0.
<mgrwt>
<rscale>  0 0.15022341E+04</rscale>
<asrwt>0</asrwt>
<pdfrwt beam="1">  1        2 0.47629079E+00 0.15384251E+04</pdfrwt>
<pdfrwt beam="2">  1       -2 0.13736218E+00 0.15384251E+04</pdfrwt>
<totfact> 0.54063706E-01</totfact>
</mgrwt>
</event>
<event>
 4    1  0.2878104E-007  0.6703338E+03  0.7818608E-02  0.1015425E+00
          2   -1    0    0  501    0  0.00000000000E+00  0.00000000000E+00  0.33238751465E+04  0.33238751465E+04  0.25500000000E-02 0. -1.
         -2   -1    0    0    0  501 -0.00000000000E+00 -0.00000000000E+00 -0.12920232021E+04  0.12920232021E+04  0.25500000000E-02 0.  1.
    8880023    1    1    2    0    0  0.61841842255E+02  0.10822546289E+03 -0.12018671232E+04  0.13761656704E+04  0.65864270000E+03 0.  1.
    8880022    1    1    2    0    0 -0.61841842255E+02 -0.10822546289E+03  0.32337190677E+04  0.32397326782E+04  0.15294330000E+03 0.  0.
<mgrwt>
<rscale>  0 0.49374445E+03</rscale>
<asrwt>0</asrwt>
<pdfrwt beam="1">  1        2 0.51136541E+00 0.67033378E+03</pdfrwt>
<pdfrwt beam="2">  1       -2 0.19877280E+00 0.67033378E+03</pdfrwt>
<totfact> 0.16218265E-01</totfact>
</mgrwt>
</event>
<event>
 4    1  0.2878104E-007  0.7518312E+03  0.7818608E-02  0.9826734E-01
         -2   -1    0    0    0  501 -0.00000000000E+00  0.00000000000E+00  0.31750564230E+03  0.31750564231E+03  0.25500000000E-02 0.  1.
          2   -1    0    0  501    0  0.00000000000E+00 -0.00000000000E+00 -0.12216283917E+04  0.12216283917E+04  0.25500000000E-02 0. -1.
    8880023    1    1    2    0    0  0.32988100490E+03 -0.15039443437E+03 -0.28192174552E+03  0.80295083295E+03  0.65864270000E+03 0.  1.
    8880022    1    1    2    0    0 -0.32988100490E+03  0.15039443437E+03 -0.62220100392E+03  0.73618320109E+03  0.15294330000E+03 0.  0.
<mgrwt>
<rscale>  0 0.63947375E+03</rscale>
<asrwt>0</asrwt>
<pdfrwt beam="1">  1        2 0.18794283E+00 0.75183121E+03</pdfrwt>
<pdfrwt beam="2">  1       -2 0.48847023E-01 0.75183121E+03</pdfrwt>
<totfact> 0.74171303E+01</totfact>
</mgrwt>
</event>
<event>
 4    1  0.2878104E-007  0.6690580E+03  0.7818608E-02  0.1016347E+00
          2   -1    0    0  501    0  0.00000000000E+00  0.00000000000E+00  0.89488539554E+03  0.89488539554E+03  0.25500000000E-02 0. -1.
         -2   -1    0    0    0  501 -0.00000000000E+00 -0.00000000000E+00 -0.46725846566E+03  0.46725846567E+03  0.25500000000E-02 0.  1.
    8880023    1    1    2    0    0 -0.41894652940E+02  0.10987821357E+03 -0.20579524844E+03  0.69999305304E+03  0.65864270000E+03 0.  1.
    8880022    1    1    2    0    0  0.41894652940E+02 -0.10987821357E+03  0.63342217831E+03  0.66215080817E+03  0.15294330000E+03 0.  0.
<mgrwt>
<rscale>  0 0.49028084E+03</rscale>
<asrwt>0</asrwt>
<pdfrwt beam="1">  1        2 0.13767467E+00 0.66905799E+03</pdfrwt>
<pdfrwt beam="2">  1       -2 0.71885919E-01 0.66905799E+03</pdfrwt>
<totfact> 0.52948102E+01</totfact>
</mgrwt>
</event>
<event>
 4    1  0.2878104E-007  0.7242214E+03  0.7818608E-02  0.9908553E-01
         -2   -1    0    0    0  501 -0.00000000000E+00  0.00000000000E+00  0.91810800179E+03  0.91810800180E+03  0.25500000000E-02 0.  1.
          2   -1    0    0  501    0  0.00000000000E+00 -0.00000000000E+00 -0.64300012976E+03  0.64300012977E+03  0.25500000000E-02 0. -1.
    8880023    1    1    2    0    0  0.47740743834E+02  0.29733359747E+03  0.70749131573E+03  0.10124428946E+04  0.65864270000E+03 0.  1.
    8880022    1    1    2    0    0 -0.47740743834E+02 -0.29733359747E+03 -0.43238344370E+03  0.54866523692E+03  0.15294330000E+03 0.  0.
<mgrwt>
<rscale>  0 0.59848574E+03</rscale>
<asrwt>0</asrwt>
<pdfrwt beam="1">  1        2 0.98923097E-01 0.72422141E+03</pdfrwt>
<pdfrwt beam="2">  1       -2 0.14124738E+00 0.72422141E+03</pdfrwt>
<totfact> 0.16260921E+01</totfact>
</mgrwt>
</event>
<event>
 4    1  0.2878104E-007  0.6754787E+03  0.7818608E-02  0.1012006E+00
          2   -1    0    0  501    0  0.00000000000E+00  0.00000000000E+00  0.13522606816E+04  0.13522606816E+04  0.25500000000E-02 0. -1.
         -2   -1    0    0    0  501 -0.00000000000E+00 -0.00000000000E+00 -0.39782075668E+03  0.39782075669E+03  0.25500000000E-02 0.  1.
    8880023    1    1    2    0    0 -0.24169334403E+02 -0.14790916680E+03 -0.92217136924E+02  0.68174444255E+03  0.65864270000E+03 0.  1.
    8880022    1    1    2    0    0  0.24169334403E+02  0.14790916680E+03  0.10466570618E+04  0.10683369957E+04  0.15294330000E+03 0.  0.
<mgrwt>
<rscale>  0 0.50685022E+03</rscale>
<asrwt>0</asrwt>
<pdfrwt beam="1">  1        2 0.20804011E+00 0.67547871E+03</pdfrwt>
<pdfrwt beam="2">  1       -2 0.61203193E-01 0.67547871E+03</pdfrwt>
<totfact> 0.39379131E+01</totfact>
</mgrwt>
</event>
<event>
 4    1  0.2878104E-007  0.7231519E+03  0.7818608E-02  0.9912062E-01
          2   -1    0    0  501    0  0.00000000000E+00  0.00000000000E+00  0.13230293166E+04  0.13230293166E+04  0.25500000000E-02 0. -1.
         -2   -1    0    0    0  501 -0.00000000000E+00 -0.00000000000E+00 -0.16278185066E+04  0.16278185066E+04  0.25500000000E-02 0.  1.
    8880023    1    1    2    0    0 -0.27531384418E+03 -0.11550242405E+03 -0.15237117896E+04  0.16866079410E+04  0.65864270000E+03 0.  1.
    8880022    1    1    2    0    0  0.27531384418E+03  0.11550242405E+03  0.12189225996E+04  0.12642398822E+04  0.15294330000E+03 0.  0.
<mgrwt>
<rscale>  0 0.59680272E+03</rscale>
<asrwt>0</asrwt>
<pdfrwt beam="1">  1        2 0.20354297E+00 0.72315194E+03</pdfrwt>
<pdfrwt beam="2">  1       -2 0.25043362E+00 0.72315194E+03</pdfrwt>
<totfact> 0.10692739E+00</totfact>
</mgrwt>
</event>
<event>
 4    1  0.2878104E-007  0.1446596E+04  0.7818608E-02  0.8948297E-01
          2   -1    0    0  501    0  0.00000000000E+00  0.00000000000E+00  0.31269717873E+04  0.31269717873E+04  0.25500000000E-02 0. -1.
         -2   -1    0    0    0  501 -0.00000000000E+00 -0.00000000000E+00 -0.78937894640E+03  0.78937894640E+03  0.25500000000E-02 0.  1.
    8880023    1    1    2    0    0  0.11016943681E+04 -0.66715843471E+03  0.26392926926E+03  0.14704760192E+04  0.65864270000E+03 0.  0.
    8880022    1    1    2    0    0 -0.11016943681E+04  0.66715843471E+03  0.20736635716E+04  0.24458747145E+04  0.15294330000E+03 0.  0.
<mgrwt>
<rscale>  0 0.14076541E+04</rscale>
<asrwt>0</asrwt>
<pdfrwt beam="1">  1        2 0.48107258E+00 0.14465964E+04</pdfrwt>
<pdfrwt beam="2">  1       -2 0.12144291E+00 0.14465964E+04</pdfrwt>
<totfact> 0.71504652E-01</totfact>
</mgrwt>
</event>
<event>
 4    1  0.2878104E-007  0.1493519E+04  0.7818608E-02  0.8914226E-01
         -2   -1    0    0    0  501 -0.00000000000E+00  0.00000000000E+00  0.20068326120E+04  0.20068326120E+04  0.25500000000E-02 0.  1.
          2   -1    0    0  501    0  0.00000000000E+00 -0.00000000000E+00 -0.15928938178E+04  0.15928938178E+04  0.25500000000E-02 0. -1.
    8880023    1    1    2    0    0 -0.13373912288E+04  0.90402376735E+02  0.13046283465E+04  0.19830918328E+04  0.65864270000E+03 0.  0.
    8880022    1    1    2    0    0  0.13373912288E+04 -0.90402376735E+02 -0.89068955239E+03  0.16166345970E+04  0.15294330000E+03 0.  0.
<mgrwt>
<rscale>  0 0.14560365E+04</rscale>
<asrwt>0</asrwt>
<pdfrwt beam="1">  1        2 0.24506059E+00 0.14935187E+04</pdfrwt>
<pdfrwt beam="2">  1       -2 0.30874348E+00 0.14935187E+04</pdfrwt>
<totfact> 0.29748905E-01</totfact>
</mgrwt>
</event>
<event>
 4    1  0.2878104E-007  0.1560699E+04  0.7818608E-02  0.8867922E-01
         -2   -1    0    0    0  501 -0.00000000000E+00  0.00000000000E+00  0.11094246264E+04  0.11094246264E+04  0.25500000000E-02 0.  1.
          2   -1    0    0  501    0  0.00000000000E+00 -0.00000000000E+00 -0.26496541350E+04  0.26496541350E+04  0.25500000000E-02 0. -1.
    8880023    1    1    2    0    0  0.88951708588E+03  0.11003326170E+04  0.12840738375E+03  0.15659729169E+04  0.65864270000E+03 0.  0.
    8880022    1    1    2    0    0 -0.88951708588E+03 -0.11003326170E+04 -0.16686368923E+04  0.21931058445E+04  0.15294330000E+03 0.  0.
<mgrwt>
<rscale>  0 0.15251141E+04</rscale>
<asrwt>0</asrwt>
<pdfrwt beam="1">  1        2 0.40763910E+00 0.15606994E+04</pdfrwt>
<pdfrwt beam="2">  1       -2 0.17068071E+00 0.15606994E+04</pdfrwt>
<totfact> 0.56169699E-01</totfact>
</mgrwt>
</event>
<event>
 4    1  0.2878104E-007  0.1206871E+04  0.7818608E-02  0.9150472E-01
          2   -1    0    0  501    0  0.00000000000E+00  0.00000000000E+00  0.14915903062E+04  0.14915903062E+04  0.25500000000E-02 0. -1.
         -2   -1    0    0    0  501 -0.00000000000E+00 -0.00000000000E+00 -0.10639972980E+04  0.10639972980E+04  0.25500000000E-02 0.  1.
    8880023    1    1    2    0    0  0.68294396336E+03 -0.74586458897E+03 -0.36585784367E+03  0.12611061058E+04  0.65864270000E+03 0.  1.
    8880022    1    1    2    0    0 -0.68294396336E+03  0.74586458897E+03  0.79345085189E+03  0.12944814983E+04  0.15294330000E+03 0.  0.
<mgrwt>
<rscale>  0 0.11579588E+04</rscale>
<asrwt>0</asrwt>
<pdfrwt beam="1">  1        2 0.22947543E+00 0.12068706E+04</pdfrwt>
<pdfrwt beam="2">  1       -2 0.16369189E+00 0.12068706E+04</pdfrwt>
<totfact> 0.29473442E+00</totfact>
</mgrwt>
</event>
<event>
 4    1  0.2878104E-007  0.1111898E+04  0.7818608E-02  0.9247924E-01
          2   -1    0    0  501    0  0.00000000000E+00  0.00000000000E+00  0.24323249948E+04  0.24323249948E+04  0.25500000000E-02 0. -1.
         -2   -1    0    0    0  501 -0.00000000000E+00 -0.00000000000E+00 -0.50898052364E+03  0.50898052365E+03  0.25500000000E-02 0.  1.
    8880023    1    1    2    0    0  0.85985753417E+03  0.25129897690E+03  0.42793141398E+03  0.11914032299E+04  0.65864270000E+03 0.  1.
    8880022    1    1    2    0    0 -0.85985753417E+03 -0.25129897690E+03  0.14954130571E+04  0.17499022885E+04  0.15294330000E+03 0.  0.
<mgrwt>
<rscale>  0 0.10572176E+04</rscale>
<asrwt>0</asrwt>
<pdfrwt beam="1">  1        2 0.37420385E+00 0.11118976E+04</pdfrwt>
<pdfrwt beam="2">  1       -2 0.78304694E-01 0.11118976E+04</pdfrwt>
<totfact> 0.54997070E+00</totfact>
</mgrwt>
</event>
<event>
 4    1  0.3139256E-007  0.9188201E+03  0.7818608E-02  0.9496471E-01
         -2   -1    0    0    0  501 -0.00000000000E+00  0.00000000000E+00  0.22377043999E+04  0.22377043999E+04  0.25500000000E-02 0.  1.
          2   -1    0    0  501    0  0.00000000000E+00 -0.00000000000E+00 -0.17249753501E+04  0.17249753501E+04  0.25500000000E-02 0. -1.
    8880023    1    1    2    0    0  0.26778178300E+03  0.58199063411E+03  0.20738640644E+04  0.22682906660E+04  0.65864270000E+03 0.  1.
    8880022    1    1    2    0    0 -0.26778178300E+03 -0.58199063411E+03 -0.15611350146E+04  0.16943890841E+04  0.15294330000E+03 0.  0.
<mgrwt>
<rscale>  0 0.84544535E+03</rscale>
<asrwt>0</asrwt>
<pdfrwt beam="1">  1        2 0.26538082E+00 0.91882011E+03</pdfrwt>
<pdfrwt beam="2">  1       -2 0.34426221E+00 0.91882011E+03</pdfrwt>
<totfact> 0.16545049E-01</totfact>
</mgrwt>
</event>
<event>
 4    1  0.2878104E-007  0.9481150E+03  0.7818608E-02  0.9452831E-01
         -2   -1    0    0    0  501 -0.00000000000E+00  0.00000000000E+00  0.13250284717E+04  0.13250284717E+04  0.25500000000E-02 0.  1.
          2   -1    0    0  501    0  0.00000000000E+00 -0.00000000000E+00 -0.68415147307E+03  0.68415147307E+03  0.25500000000E-02 0. -1.
    8880023    1    1    2    0    0 -0.34701633999E+03  0.58710435684E+03 -0.14313325648E+03  0.95885828015E+03  0.65864270000E+03 0.  0.
    8880022    1    1    2    0    0  0.34701633999E+03 -0.58710435684E+03  0.78401025512E+03  0.10503216646E+04  0.15294330000E+03 0.  0.
<mgrwt>
<rscale>  0 0.87852521E+03</rscale>
<asrwt>0</asrwt>
<pdfrwt beam="1">  1        2 0.10525407E+00 0.94811501E+03</pdfrwt>
<pdfrwt beam="2">  1       -2 0.20385053E+00 0.94811501E+03</pdfrwt>
<totfact> 0.52874739E+00</totfact>
</mgrwt>
</event>
<event>
 4    1  0.2878104E-007  0.7889331E+03  0.7818608E-02  0.9735256E-01
          2   -1    0    0  501    0  0.00000000000E+00  0.00000000000E+00  0.33508348577E+04  0.33508348577E+04  0.25500000000E-02 0. -1.
         -2   -1    0    0    0  501 -0.00000000000E+00 -0.00000000000E+00 -0.95563249690E+03  0.95563249690E+03  0.25500000000E-02 0.  1.
    8880023    1    1    2    0    0 -0.42222423081E+03  0.10164630988E+03 -0.77327928947E+03  0.11047064493E+04  0.65864270000E+03 0.  1.
    8880022    1    1    2    0    0  0.42222423081E+03 -0.10164630988E+03  0.31684816503E+04  0.32017609053E+04  0.15294330000E+03 0.  0.
<mgrwt>
<rscale>  0 0.68955886E+03</rscale>
<asrwt>0</asrwt>
<pdfrwt beam="1">  1        2 0.51551305E+00 0.78893313E+03</pdfrwt>
<pdfrwt beam="2">  1       -2 0.14702038E+00 0.78893313E+03</pdfrwt>
<totfact> 0.34925161E-01</totfact>
</mgrwt>
</event>
<event>
 4    1  0.2878104E-007  0.1574694E+04  0.7818608E-02  0.8858616E-01
         -2   -1    0    0    0  501 -0.00000000000E+00  0.00000000000E+00  0.16080364184E+04  0.16080364184E+04  0.25500000000E-02 0.  1.
          2   -1    0    0  501    0  0.00000000000E+00 -0.00000000000E+00 -0.20771438933E+04  0.20771438933E+04  0.25500000000E-02 0. -1.
    8880023    1    1    2    0    0  0.85012637900E+03  0.11502767796E+04 -0.12840771025E+04  0.20318749325E+04  0.65864270000E+03 0.  0.
    8880022    1    1    2    0    0 -0.85012637900E+03 -0.11502767796E+04  0.81496962756E+03  0.16533053792E+04  0.15294330000E+03 0.  0.
<mgrwt>
<rscale>  0 0.15394784E+04</rscale>
<asrwt>0</asrwt>
<pdfrwt beam="1">  1        2 0.31956060E+00 0.15746942E+04</pdfrwt>
<pdfrwt beam="2">  1       -2 0.24739022E+00 0.15746942E+04</pdfrwt>
<totfact> 0.37524013E-01</totfact>
</mgrwt>
</event>
<event>
 4    1  0.2878104E-007  0.1255279E+04  0.7818608E-02  0.9105175E-01
         -2   -1    0    0    0  501 -0.00000000000E+00  0.00000000000E+00  0.93147212980E+03  0.93147212980E+03  0.25500000000E-02 0.  1.
          2   -1    0    0  501    0  0.00000000000E+00 -0.00000000000E+00 -0.18863945031E+04  0.18863945031E+04  0.25500000000E-02 0. -1.
    8880023    1    1    2    0    0  0.94073534264E+03  0.50688443271E+03 -0.11713264063E+04  0.17168956198E+04  0.65864270000E+03 0. -1.
    8880022    1    1    2    0    0 -0.94073534264E+03 -0.50688443271E+03  0.21640403305E+03  0.11009710130E+04  0.15294330000E+03 0.  0.
<mgrwt>
<rscale>  0 0.12088159E+04</rscale>
<asrwt>0</asrwt>
<pdfrwt beam="1">  1        2 0.29021454E+00 0.12552789E+04</pdfrwt>
<pdfrwt beam="2">  1       -2 0.14330340E+00 0.12552789E+04</pdfrwt>
<totfact> 0.25267965E+00</totfact>
</mgrwt>
</event>
<event>
 4    1  0.2878104E-007  0.6665358E+03  0.7818608E-02  0.1018278E+00
          2   -1    0    0  501    0  0.00000000000E+00  0.00000000000E+00  0.73523053966E+03  0.73523053966E+03  0.25500000000E-02 0. -1.
         -2   -1    0    0    0  501 -0.00000000000E+00 -0.00000000000E+00 -0.15562589557E+04  0.15562589557E+04  0.25500000000E-02 0.  1.
    8880023    1    1    2    0    0 -0.85513107177E+02  0.56100507176E+02 -0.14715414929E+04  0.16154579320E+04  0.65864270000E+03 0.  1.
    8880022    1    1    2    0    0  0.85513107177E+02 -0.56100507176E+02  0.65051307690E+03  0.67603156334E+03  0.15294330000E+03 0.  0.
<mgrwt>
<rscale>  0 0.48313078E+03</rscale>
<asrwt>0</asrwt>
<pdfrwt beam="1">  1        2 0.11311239E+00 0.66653579E+03</pdfrwt>
<pdfrwt beam="2">  1       -2 0.23942445E+00 0.66653579E+03</pdfrwt>
<totfact> 0.29954632E+00</totfact>
</mgrwt>
</event>
<event>
 4    1  0.2878104E-007  0.1877731E+04  0.7818608E-02  0.8680715E-01
          2   -1    0    0  501    0  0.00000000000E+00  0.00000000000E+00  0.35754774439E+04  0.35754774439E+04  0.25500000000E-02 0. -1.
         -2   -1    0    0    0  501 -0.00000000000E+00 -0.00000000000E+00 -0.14963671097E+04  0.14963671097E+04  0.25500000000E-02 0.  1.
    8880023    1    1    2    0    0  0.13010031108E+04 -0.11829846953E+04 -0.50315838726E+03  0.19439754249E+04  0.65864270000E+03 0.  1.
    8880022    1    1    2    0    0 -0.13010031108E+04  0.11829846953E+04  0.25822687215E+04  0.31278691287E+04  0.15294330000E+03 0.  0.
<mgrwt>
<rscale>  0 0.18489072E+04</rscale>
<asrwt>0</asrwt>
<pdfrwt beam="1">  1        2 0.55007345E+00 0.18777306E+04</pdfrwt>
<pdfrwt beam="2">  1       -2 0.23021033E+00 0.18777306E+04</pdfrwt>
<totfact> 0.55304587E-02</totfact>
</mgrwt>
</event>
<event>
 4    1  0.2878104E-007  0.6938875E+03  0.7818608E-02  0.1002357E+00
          2   -1    0    0  501    0  0.00000000000E+00  0.00000000000E+00  0.65393541055E+03  0.65393541056E+03  0.25500000000E-02 0. -1.
         -2   -1    0    0    0  501 -0.00000000000E+00 -0.00000000000E+00 -0.66380486260E+03  0.66380486260E+03  0.25500000000E-02 0.  1.
    8880023    1    1    2    0    0 -0.21310196180E+03  0.47510611861E+02 -0.43280679033E+03  0.81780292759E+03  0.65864270000E+03 0.  1.
    8880022    1    1    2    0    0  0.21310196180E+03 -0.47510611861E+02  0.42293733828E+03  0.49993734556E+03  0.15294330000E+03 0.  0.
<mgrwt>
<rscale>  0 0.54628717E+03</rscale>
<asrwt>0</asrwt>
<pdfrwt beam="1">  1        2 0.10060545E+00 0.69388753E+03</pdfrwt>
<pdfrwt beam="2">  1       -2 0.10212383E+00 0.69388753E+03</pdfrwt>
<totfact> 0.35681331E+01</totfact>
</mgrwt>
</event>
<event>
 4    1  0.2878104E-007  0.9061545E+03  0.7818608E-02  0.9516223E-01
         -2   -1    0    0    0  501 -0.00000000000E+00  0.00000000000E+00  0.14310640321E+04  0.14310640321E+04  0.25500000000E-02 0.  1.
          2   -1    0    0  501    0  0.00000000000E+00 -0.00000000000E+00 -0.89837075577E+03  0.89837075577E+03  0.25500000000E-02 0. -1.
    8880023    1    1    2    0    0 -0.31011003591E+03  0.53957170113E+03  0.11333664142E+04  0.14510808007E+04  0.65864270000E+03 0.  1.
    8880022    1    1    2    0    0  0.31011003591E+03 -0.53957170113E+03 -0.60067313794E+03  0.87835398712E+03  0.15294330000E+03 0.  0.
<mgrwt>
<rscale>  0 0.83098266E+03</rscale>
<asrwt>0</asrwt>
<pdfrwt beam="1">  1        2 0.13821089E+00 0.90615455E+03</pdfrwt>
<pdfrwt beam="2">  1       -2 0.22016369E+00 0.90615455E+03</pdfrwt>
<totfact> 0.29126576E+00</totfact>
</mgrwt>
</event>
<event>
 4    1  0.2878104E-007  0.6952843E+03  0.7818608E-02  0.1001736E+00
          2   -1    0    0  501    0  0.00000000000E+00  0.00000000000E+00  0.16844824471E+04  0.16844824471E+04  0.25500000000E-02 0. -1.
         -2   -1    0    0    0  501 -0.00000000000E+00 -0.00000000000E+00 -0.22637812693E+03  0.22637812695E+03  0.25500000000E-02 0.  1.
    8880023    1    1    2    0    0  0.12239497437E+02 -0.22239647529E+03  0.36580748979E+03  0.78564325452E+03  0.65864270000E+03 0.  1.
    8880022    1    1    2    0    0 -0.12239497437E+02  0.22239647529E+03  0.10922968304E+04  0.11252173196E+04  0.15294330000E+03 0.  0.
<mgrwt>
<rscale>  0 0.54895707E+03</rscale>
<asrwt>0</asrwt>
<pdfrwt beam="1">  1        2 0.25915114E+00 0.69528426E+03</pdfrwt>
<pdfrwt beam="2">  1       -2 0.34827405E-01 0.69528426E+03</pdfrwt>
<totfact> 0.79525811E+01</totfact>
</mgrwt>
</event>
<event>
 4    1  0.2878104E-007  0.8784245E+03  0.7818608E-02  0.9561595E-01
          2   -1    0    0  501    0  0.00000000000E+00  0.00000000000E+00  0.17514967464E+04  0.17514967464E+04  0.25500000000E-02 0. -1.
         -2   -1    0    0    0  501 -0.00000000000E+00 -0.00000000000E+00 -0.41547622544E+03  0.41547622545E+03  0.25500000000E-02 0.  1.
    8880023    1    1    2    0    0 -0.33057598171E+03 -0.47805744574E+03  0.22972726114E+03  0.90796708194E+03  0.65864270000E+03 0.  0.
    8880022    1    1    2    0    0  0.33057598171E+03  0.47805744574E+03  0.11062932598E+04  0.12590058899E+04  0.15294330000E+03 0.  0.
<mgrwt>
<rscale>  0 0.79891111E+03</rscale>
<asrwt>0</asrwt>
<pdfrwt beam="1">  1        2 0.26946104E+00 0.87842450E+03</pdfrwt>
<pdfrwt beam="2">  1       -2 0.63919418E-01 0.87842450E+03</pdfrwt>
<totfact> 0.21049013E+01</totfact>
</mgrwt>
</event>
<event>
 4    1  0.2878104E-007  0.7992095E+03  0.7818608E-02  0.9712508E-01
         -2   -1    0    0    0  501 -0.00000000000E+00  0.00000000000E+00  0.16990858859E+03  0.16990858861E+03  0.25500000000E-02 0.  1.
          2   -1    0    0  501    0  0.00000000000E+00 -0.00000000000E+00 -0.26883795561E+04  0.26883795561E+04  0.25500000000E-02 0. -1.
    8880023    1    1    2    0    0  0.60897715129E+02  0.44857219292E+03 -0.10870908077E+04  0.13492598617E+04  0.65864270000E+03 0.  1.
    8880022    1    1    2    0    0 -0.60897715129E+02 -0.44857219292E+03 -0.14313801598E+04  0.15090282830E+04  0.15294330000E+03 0.  0.
<mgrwt>
<rscale>  0 0.70276931E+03</rscale>
<asrwt>0</asrwt>
<pdfrwt beam="1">  1        2 0.41359682E+00 0.79920945E+03</pdfrwt>
<pdfrwt beam="2">  1       -2 0.26139785E-01 0.79920945E+03</pdfrwt>
<totfact> 0.37090211E+01</totfact>
</mgrwt>
</event>
<event>
 4    1  0.2878104E-007  0.1136155E+04  0.7818608E-02  0.9221831E-01
         -2   -1    0    0    0  501 -0.00000000000E+00  0.00000000000E+00  0.38387868427E+03  0.38387868428E+03  0.25500000000E-02 0.  1.
          2   -1    0    0  501    0  0.00000000000E+00 -0.00000000000E+00 -0.34755308786E+04  0.34755308786E+04  0.25500000000E-02 0. -1.
    8880023    1    1    2    0    0 -0.91804606217E+03 -0.11928520816E+03 -0.81870481158E+03  0.14004018380E+04  0.65864270000E+03 0.  1.
    8880022    1    1    2    0    0  0.91804606217E+03  0.11928520816E+03 -0.22729473827E+04  0.24590077249E+04  0.15294330000E+03 0.  0.
<mgrwt>
<rscale>  0 0.10830910E+04</rscale>
<asrwt>0</asrwt>
<pdfrwt beam="1">  1        2 0.53469704E+00 0.11361548E+04</pdfrwt>
<pdfrwt beam="2">  1       -2 0.59058261E-01 0.11361548E+04</pdfrwt>
<totfact> 0.22984952E+00</totfact>
</mgrwt>
</event>
<event>
 4    1  0.2878104E-007  0.1625300E+04  0.7818608E-02  0.8825877E-01
         -2   -1    0    0    0  501 -0.00000000000E+00  0.00000000000E+00  0.16411865909E+04  0.16411865909E+04  0.25500000000E-02 0.  1.
          2   -1    0    0  501    0  0.00000000000E+00 -0.00000000000E+00 -0.17740135116E+04  0.17740135116E+04  0.25500000000E-02 0. -1.
    8880023    1    1    2    0    0  0.62430614000E+02  0.14845509467E+04  0.62366088148E+03  0.17408481256E+04  0.65864270000E+03 0.  0.
    8880022    1    1    2    0    0 -0.62430614000E+02 -0.14845509467E+04 -0.75648780211E+03  0.16743519769E+04  0.15294330000E+03 0.  0.
<mgrwt>
<rscale>  0 0.15913545E+04</rscale>
<asrwt>0</asrwt>
<pdfrwt beam="1">  1        2 0.27292515E+00 0.16252998E+04</pdfrwt>
<pdfrwt beam="2">  1       -2 0.25249025E+00 0.16252998E+04</pdfrwt>
<totfact> 0.51283872E-01</totfact>
</mgrwt>
</event>
<event>
 4    1  0.2878104E-007  0.7403808E+03  0.7818608E-02  0.9858839E-01
          2   -1    0    0  501    0  0.00000000000E+00  0.00000000000E+00  0.17781639733E+04  0.17781639733E+04  0.25500000000E-02 0. -1.
         -2   -1    0    0    0  501 -0.00000000000E+00 -0.00000000000E+00 -0.27332192916E+03  0.27332192918E+03  0.25500000000E-02 0.  1.
    8880023    1    1    2    0    0  0.20270826306E+03  0.27067107932E+03  0.31411507243E+03  0.80425863880E+03  0.65864270000E+03 0.  0.
    8880022    1    1    2    0    0 -0.20270826306E+03 -0.27067107932E+03  0.11907269717E+04  0.12472272637E+04  0.15294330000E+03 0.  0.
<mgrwt>
<rscale>  0 0.62298254E+03</rscale>
<asrwt>0</asrwt>
<pdfrwt beam="1">  1        2 0.27356368E+00 0.74038077E+03</pdfrwt>
<pdfrwt beam="2">  1       -2 0.42049529E-01 0.74038077E+03</pdfrwt>
<totfact> 0.48857184E+01</totfact>
</mgrwt>
</event>
<event>
 4    1  0.2878104E-007  0.6658815E+03  0.7818608E-02  0.1018805E+00
         -2   -1    0    0    0  501 -0.00000000000E+00  0.00000000000E+00  0.24827553773E+03  0.24827553774E+03  0.25500000000E-02 0.  1.
          2   -1    0    0  501    0  0.00000000000E+00 -0.00000000000E+00 -0.11764794934E+04  0.11764794934E+04  0.25500000000E-02 0. -1.
    8880023    1    1    2    0    0  0.95611864561E+02  0.21127765782E+02 -0.23181898853E+03  0.70508032226E+03  0.65864270000E+03 0.  1.
    8880022    1    1    2    0    0 -0.95611864561E+02 -0.21127765782E+02 -0.69638496713E+03  0.71967470887E+03  0.15294330000E+03 0.  0.
<mgrwt>
<rscale>  0 0.48120320E+03</rscale>
<asrwt>0</asrwt>
<pdfrwt beam="1">  1        2 0.18099684E+00 0.66588153E+03</pdfrwt>
<pdfrwt beam="2">  1       -2 0.38196237E-01 0.66588153E+03</pdfrwt>
<totfact> 0.12921470E+02</totfact>
</mgrwt>
</event>
<event>
 4    1  0.2878104E-007  0.6611127E+03  0.7818608E-02  0.1023044E+00
         -2   -1    0    0    0  501 -0.00000000000E+00  0.00000000000E+00  0.24476713525E+03  0.24476713526E+03  0.25500000000E-02 0.  1.
          2   -1    0    0  501    0  0.00000000000E+00 -0.00000000000E+00 -0.13946560300E+04  0.13946560300E+04  0.25500000000E-02 0. -1.
    8880023    1    1    2    0    0 -0.30701719584E+02  0.48137038647E+02 -0.22216271036E+03  0.69744264726E+03  0.65864270000E+03 0.  1.
    8880022    1    1    2    0    0  0.30701719584E+02 -0.48137038647E+02 -0.92772618436E+03  0.94198051797E+03  0.15294330000E+03 0.  0.
<mgrwt>
<rscale>  0 0.46603836E+03</rscale>
<asrwt>0</asrwt>
<pdfrwt beam="1">  1        2 0.21456246E+00 0.66111268E+03</pdfrwt>
<pdfrwt beam="2">  1       -2 0.37656483E-01 0.66111268E+03</pdfrwt>
<totfact> 0.99434023E+01</totfact>
</mgrwt>
</event>
<event>
 4    1  0.2878104E-007  0.9822068E+03  0.7818608E-02  0.9405216E-01
          2   -1    0    0  501    0  0.00000000000E+00  0.00000000000E+00  0.91648156266E+03  0.91648156266E+03  0.25500000000E-02 0. -1.
         -2   -1    0    0    0  501 -0.00000000000E+00 -0.00000000000E+00 -0.11280632833E+04  0.11280632833E+04  0.25500000000E-02 0.  1.
    8880023    1    1    2    0    0 -0.23107990683E+03 -0.69102966515E+03 -0.65256548796E+03  0.11792251031E+04  0.65864270000E+03 0.  1.
    8880022    1    1    2    0    0  0.23107990683E+03  0.69102966515E+03  0.44098376727E+03  0.86531974291E+03  0.15294330000E+03 0.  0.
<mgrwt>
<rscale>  0 0.91647671E+03</rscale>
<asrwt>0</asrwt>
<pdfrwt beam="1">  1        2 0.14099716E+00 0.98220676E+03</pdfrwt>
<pdfrwt beam="2">  1       -2 0.17354820E+00 0.98220676E+03</pdfrwt>
<totfact> 0.57097489E+00</totfact>
</mgrwt>
</event>
<event>
 4    1  0.2933716E-007  0.1954885E+04  0.7818608E-02  0.8641376E-01
         -2   -1    0    0    0  501 -0.00000000000E+00  0.00000000000E+00  0.31119146131E+04  0.31119146131E+04  0.25500000000E-02 0.  1.
          2   -1    0    0  501    0  0.00000000000E+00 -0.00000000000E+00 -0.20508952016E+04  0.20508952016E+04  0.25500000000E-02 0. -1.
    8880023    1    1    2    0    0 -0.18154942228E+04  0.30289764990E+03  0.22389011906E+04  0.29722474673E+04  0.65864270000E+03 0.  0.
    8880022    1    1    2    0    0  0.18154942228E+04 -0.30289764990E+03 -0.11778817791E+04  0.21905623474E+04  0.15294330000E+03 0.  0.
<mgrwt>
<rscale>  0 0.19273194E+04</rscale>
<asrwt>0</asrwt>
<pdfrwt beam="1">  1        2 0.31552234E+00 0.19548853E+04</pdfrwt>
<pdfrwt beam="2">  1       -2 0.47875609E+00 0.19548853E+04</pdfrwt>
<totfact> 0.12432794E-02</totfact>
</mgrwt>
</event>
<event>
 4    1  0.2878104E-007  0.7621002E+03  0.7818608E-02  0.9799700E-01
         -2   -1    0    0    0  501 -0.00000000000E+00  0.00000000000E+00  0.28942831794E+04  0.28942831794E+04  0.25500000000E-02 0.  1.
          2   -1    0    0  501    0  0.00000000000E+00 -0.00000000000E+00 -0.33675228691E+03  0.33675228692E+03  0.25500000000E-02 0. -1.
    8880023    1    1    2    0    0 -0.26536942652E+03 -0.27670481299E+03  0.26913076583E+04  0.27971295294E+04  0.65864270000E+03 0.  1.
    8880022    1    1    2    0    0  0.26536942652E+03  0.27670481299E+03 -0.13377676580E+03  0.43390593698E+03  0.15294330000E+03 0.  0.
<mgrwt>
<rscale>  0 0.65378625E+03</rscale>
<asrwt>0</asrwt>
<pdfrwt beam="1">  1        2 0.51808044E-01 0.76210019E+03</pdfrwt>
<pdfrwt beam="2">  1       -2 0.44527434E+00 0.76210019E+03</pdfrwt>
<totfact> 0.38256758E-01</totfact>
</mgrwt>
</event>
<event>
 4    1  0.2878104E-007  0.6815874E+03  0.7818608E-02  0.1008440E+00
          2   -1    0    0  501    0  0.00000000000E+00  0.00000000000E+00  0.20499196540E+04  0.20499196540E+04  0.25500000000E-02 0. -1.
         -2   -1    0    0    0  501 -0.00000000000E+00 -0.00000000000E+00 -0.11840480098E+03  0.11840480101E+03  0.25500000000E-02 0.  1.
    8880023    1    1    2    0    0  0.11850848912E+03 -0.12925525948E+03  0.10141458437E+04  0.12219055539E+04  0.65864270000E+03 0.  1.
    8880022    1    1    2    0    0 -0.11850848912E+03  0.12925525948E+03  0.91736900927E+03  0.94641890106E+03  0.15294330000E+03 0.  0.
<mgrwt>
<rscale>  0 0.52099529E+03</rscale>
<asrwt>0</asrwt>
<pdfrwt beam="1">  1        2 0.31537225E+00 0.68158740E+03</pdfrwt>
<pdfrwt beam="2">  1       -2 0.18216123E-01 0.68158740E+03</pdfrwt>
<totfact> 0.16254701E+02</totfact>
</mgrwt>
</event>
<event>
 4    1  0.2878104E-007  0.1788569E+04  0.7818608E-02  0.8728886E-01
          2   -1    0    0  501    0  0.00000000000E+00  0.00000000000E+00  0.18683392621E+04  0.18683392621E+04  0.25500000000E-02 0. -1.
         -2   -1    0    0    0  501 -0.00000000000E+00 -0.00000000000E+00 -0.18581660513E+04  0.18581660513E+04  0.25500000000E-02 0.  1.
    8880023    1    1    2    0    0 -0.13406693281E+04 -0.98375590339E+03 -0.68826848284E+03  0.19164273103E+04  0.65864270000E+03 0.  1.
    8880022    1    1    2    0    0  0.13406693281E+04  0.98375590339E+03  0.69844169368E+03  0.18100780031E+04  0.15294330000E+03 0.  0.
<mgrwt>
<rscale>  0 0.17581335E+04</rscale>
<asrwt>0</asrwt>
<pdfrwt beam="1">  1        2 0.28743681E+00 0.17885693E+04</pdfrwt>
<pdfrwt beam="2">  1       -2 0.28587170E+00 0.17885693E+04</pdfrwt>
<totfact> 0.27917428E-01</totfact>
</mgrwt>
</event>
<event>
 4    1  0.2878104E-007  0.8052769E+03  0.7818608E-02  0.9699500E-01
          2   -1    0    0  501    0  0.00000000000E+00  0.00000000000E+00  0.25578735992E+04  0.25578735992E+04  0.25500000000E-02 0. -1.
         -2   -1    0    0    0  501 -0.00000000000E+00 -0.00000000000E+00 -0.34375789491E+03  0.34375789492E+03  0.25500000000E-02 0.  1.
    8880023    1    1    2    0    0 -0.40189229806E+03 -0.23052813719E+03  0.20065602059E+03  0.82989980488E+03  0.65864270000E+03 0.  1.
    8880022    1    1    2    0    0  0.40189229806E+03  0.23052813719E+03  0.20134596837E+04  0.20717316892E+04  0.15294330000E+03 0.  0.
<mgrwt>
<rscale>  0 0.71046546E+03</rscale>
<asrwt>0</asrwt>
<pdfrwt beam="1">  1        2 0.39351901E+00 0.80527688E+03</pdfrwt>
<pdfrwt beam="2">  1       -2 0.52885831E-01 0.80527688E+03</pdfrwt>
<totfact> 0.11303347E+01</totfact>
</mgrwt>
</event>
<event>
 4    1  0.2878104E-007  0.7819916E+03  0.7818608E-02  0.9751179E-01
         -2   -1    0    0    0  501 -0.00000000000E+00  0.00000000000E+00  0.51303507660E+03  0.51303507660E+03  0.25500000000E-02 0.  1.
          2   -1    0    0  501    0  0.00000000000E+00 -0.00000000000E+00 -0.14354821342E+04  0.14354821342E+04  0.25500000000E-02 0. -1.
    8880023    1    1    2    0    0 -0.42079575900E+03  0.25130528563E+02  0.14080644523E+03  0.79456735117E+03  0.65864270000E+03 0.  0.
    8880022    1    1    2    0    0  0.42079575900E+03 -0.25130528563E+02 -0.10632535028E+04  0.11539498596E+04  0.15294330000E+03 0.  0.
<mgrwt>
<rscale>  0 0.68049663E+03</rscale>
<asrwt>0</asrwt>
<pdfrwt beam="1">  1        2 0.22084340E+00 0.78199157E+03</pdfrwt>
<pdfrwt beam="2">  1       -2 0.78928474E-01 0.78199157E+03</pdfrwt>
<totfact> 0.20051639E+01</totfact>
</mgrwt>
</event>
<event>
 4    1  0.2878104E-007  0.9383143E+03  0.7818608E-02  0.9467130E-01
         -2   -1    0    0    0  501 -0.00000000000E+00  0.00000000000E+00  0.34906491091E+03  0.34906491092E+03  0.25500000000E-02 0.  1.
          2   -1    0    0  501    0  0.00000000000E+00 -0.00000000000E+00 -0.27718063818E+04  0.27718063818E+04  0.25500000000E-02 0. -1.
    8880023    1    1    2    0    0  0.66414590901E+03 -0.74389322339E+02 -0.46631132650E+03  0.10477976996E+04  0.65864270000E+03 0.  1.
    8880022    1    1    2    0    0 -0.66414590901E+03  0.74389322339E+02 -0.19564301444E+04  0.20730735932E+04  0.15294330000E+03 0.  0.
<mgrwt>
<rscale>  0 0.86751151E+03</rscale>
<asrwt>0</asrwt>
<pdfrwt beam="1">  1        2 0.42643174E+00 0.93831432E+03</pdfrwt>
<pdfrwt beam="2">  1       -2 0.53702296E-01 0.93831432E+03</pdfrwt>
<totfact> 0.80630578E+00</totfact>
</mgrwt>
</event>
<event>
 4    1  0.2878104E-007  0.7552209E+03  0.7818608E-02  0.9817641E-01
          2   -1    0    0  501    0  0.00000000000E+00  0.00000000000E+00  0.11019955307E+04  0.11019955307E+04  0.25500000000E-02 0. -1.
         -2   -1    0    0    0  501 -0.00000000000E+00 -0.00000000000E+00 -0.56804897867E+03  0.56804897868E+03  0.25500000000E-02 0.  1.
    8880023    1    1    2    0    0 -0.36636408301E+03  0.48225618140E+02  0.86685271029E+03  0.11496922106E+04  0.65864270000E+03 0. -1.
    8880022    1    1    2    0    0  0.36636408301E+03 -0.48225618140E+02 -0.33290615829E+03  0.52035229874E+03  0.15294330000E+03 0.  0.
<mgrwt>
<rscale>  0 0.64424362E+03</rscale>
<asrwt>0</asrwt>
<pdfrwt beam="1">  1        2 0.16953777E+00 0.75522087E+03</pdfrwt>
<pdfrwt beam="2">  1       -2 0.87392151E-01 0.75522087E+03</pdfrwt>
<totfact> 0.24984134E+01</totfact>
</mgrwt>
</event>
<event>
 4    1  0.3263835E-007  0.1550724E+04  0.7818608E-02  0.8874624E-01
          2   -1    0    0  501    0  0.00000000000E+00  0.00000000000E+00  0.31363525210E+04  0.31363525210E+04  0.25500000000E-02 0. -1.
         -2   -1    0    0    0  501 -0.00000000000E+00 -0.00000000000E+00 -0.15732595246E+04  0.15732595246E+04  0.25500000000E-02 0.  1.
    8880023    1    1    2    0    0  0.24485206253E+03 -0.13823824972E+04 -0.95596771285E+03  0.18217075438E+04  0.65864270000E+03 0.  0.
    8880022    1    1    2    0    0 -0.24485206253E+03  0.13823824972E+04  0.25190607093E+04  0.28879045017E+04  0.15294330000E+03 0.  0.
<mgrwt>
<rscale>  0 0.15148699E+04</rscale>
<asrwt>0</asrwt>
<pdfrwt beam="1">  1        2 0.48251577E+00 0.15507237E+04</pdfrwt>
<pdfrwt beam="2">  1       -2 0.24203993E+00 0.15507237E+04</pdfrwt>
<totfact> 0.96005265E-02</totfact>
</mgrwt>
</event>
<event>
 4    1  0.3903497E-007  0.1093785E+04  0.7818608E-02  0.9268008E-01
          2   -1    0    0  501    0  0.00000000000E+00  0.00000000000E+00  0.25251811918E+04  0.25251811918E+04  0.25500000000E-02 0. -1.
         -2   -1    0    0    0  501 -0.00000000000E+00 -0.00000000000E+00 -0.15889405585E+04  0.15889405585E+04  0.25500000000E-02 0.  1.
    8880023    1    1    2    0    0  0.65437248186E+03  0.57823138626E+03 -0.13056799532E+04  0.17032807248E+04  0.65864270000E+03 0.  1.
    8880022    1    1    2    0    0 -0.65437248186E+03 -0.57823138626E+03  0.22419205864E+04  0.24108410255E+04  0.15294330000E+03 0.  0.
<mgrwt>
<rscale>  0 0.10378224E+04</rscale>
<asrwt>0</asrwt>
<pdfrwt beam="1">  1        2 0.38848941E+00 0.10937848E+04</pdfrwt>
<pdfrwt beam="2">  1       -2 0.24445240E+00 0.10937848E+04</pdfrwt>
<totfact> 0.23269387E-01</totfact>
</mgrwt>
</event>
<event>
 4    1  0.2878104E-007  0.8041995E+03  0.7818608E-02  0.9701788E-01
         -2   -1    0    0    0  501 -0.00000000000E+00  0.00000000000E+00  0.19928595328E+03  0.19928595329E+03  0.25500000000E-02 0.  1.
          2   -1    0    0  501    0  0.00000000000E+00 -0.00000000000E+00 -0.36522220469E+04  0.36522220469E+04  0.25500000000E-02 0. -1.
    8880023    1    1    2    0    0  0.44867464590E+03  0.10778572944E+03 -0.73190064912E+03  0.10873892899E+04  0.65864270000E+03 0.  1.
    8880022    1    1    2    0    0 -0.44867464590E+03 -0.10778572944E+03 -0.27210354445E+04  0.27641187103E+04  0.15294330000E+03 0.  0.
<mgrwt>
<rscale>  0 0.70910419E+03</rscale>
<asrwt>0</asrwt>
<pdfrwt beam="1">  1        2 0.56188027E+00 0.80419954E+03</pdfrwt>
<pdfrwt beam="2">  1       -2 0.30659380E-01 0.80419954E+03</pdfrwt>
<totfact> 0.67045488E+00</totfact>
</mgrwt>
</event>
<event>
 4    1  0.2878104E-007  0.6940201E+03  0.7818608E-02  0.1002297E+00
          2   -1    0    0  501    0  0.00000000000E+00  0.00000000000E+00  0.19588216465E+04  0.19588216465E+04  0.25500000000E-02 0. -1.
         -2   -1    0    0    0  501 -0.00000000000E+00 -0.00000000000E+00 -0.36430100118E+03  0.36430100119E+03  0.25500000000E-02 0.  1.
    8880023    1    1    2    0    0 -0.21729046821E+03  0.25270025115E+02 -0.12453426086E+02  0.69413184326E+03  0.65864270000E+03 0.  1.
    8880022    1    1    2    0    0  0.21729046821E+03 -0.25270025115E+02  0.16069740714E+04  0.16289908044E+04  0.15294330000E+03 0.  0.
<mgrwt>
<rscale>  0 0.54654211E+03</rscale>
<asrwt>0</asrwt>
<pdfrwt beam="1">  1        2 0.30135718E+00 0.69402012E+03</pdfrwt>
<pdfrwt beam="2">  1       -2 0.56046308E-01 0.69402012E+03</pdfrwt>
<totfact> 0.21917188E+01</totfact>
</mgrwt>
</event>
<event>
 4    1  0.2878104E-007  0.6634811E+03  0.7818608E-02  0.1020843E+00
          2   -1    0    0  501    0  0.00000000000E+00  0.00000000000E+00  0.14539192376E+04  0.14539192376E+04  0.25500000000E-02 0. -1.
         -2   -1    0    0    0  501 -0.00000000000E+00 -0.00000000000E+00 -0.13580850101E+03  0.13580850104E+03  0.25500000000E-02 0.  1.
    8880023    1    1    2    0    0  0.43820987258E+02 -0.66907584221E+02  0.12261860973E+04  0.13941805677E+04  0.65864270000E+03 0. -1.
    8880022    1    1    2    0    0 -0.43820987258E+02  0.66907584221E+02  0.91924639239E+02  0.19554717095E+03  0.15294330000E+03 0.  1.
<mgrwt>
<rscale>  0 0.47383548E+03</rscale>
<asrwt>0</asrwt>
<pdfrwt beam="1">  1        2 0.22367990E+00 0.66348105E+03</pdfrwt>
<pdfrwt beam="2">  1       -2 0.20893614E-01 0.66348105E+03</pdfrwt>
<totfact> 0.27147675E+02</totfact>
</mgrwt>
</event>
