<event>
 4    5  0.2025789E-007  0.6926008E+03  0.7818608E-02  0.1002940E+00
          2   -1    0    0  501    0  0.00000000000E+00  0.00000000000E+00  0.88578906241E+03  0.88578906242E+03  0.25500000000E-02 0. -1.
         -2   -1    0    0    0  501 -0.00000000000E+00 -0.00000000000E+00 -0.84256307211E+03  0.84256307212E+03  0.25500000000E-02 0.  1.
    8880023    1    1    2    0    0 -0.19034614702E+03 -0.98254533046E+02  0.72190538899E+03  0.10004215141E+04  0.65864270000E+03 0. -1.
    8880022    1    1    2    0    0  0.19034614702E+03  0.98254533046E+02 -0.67867939869E+03  0.72793062044E+03  0.15294330000E+03 0.  0.
<mgrwt>
<rscale>  0 0.54379607E+03</rscale>
<asrwt>0</asrwt>
<pdfrwt beam="1">  1        2 0.13627524E+00 0.69260076E+03</pdfrwt>
<pdfrwt beam="2">  1       -2 0.12962509E+00 0.69260076E+03</pdfrwt>
<totfact> 0.13413086E+01</totfact>
</mgrwt>
</event>
<event>
 4    5  0.2025789E-007  0.8882905E+03  0.7818608E-02  0.9545097E-01
          2   -1    0    0  501    0  0.00000000000E+00  0.00000000000E+00  0.90533041255E+03  0.90533041256E+03  0.25500000000E-02 0. -1.
         -2   -1    0    0    0  501 -0.00000000000E+00 -0.00000000000E+00 -0.13469615932E+04  0.13469615932E+04  0.25500000000E-02 0.  1.
    8880023    1    1    2    0    0 -0.58251455315E+03 -0.12620038021E+03  0.57913239679E+03  0.10604028856E+04  0.65864270000E+03 0. -1.
    8880022    1    1    2    0    0  0.58251455315E+03  0.12620038021E+03 -0.10207635774E+04  0.11918891201E+04  0.15294330000E+03 0.  0.
<mgrwt>
<rscale>  0 0.81039128E+03</rscale>
<asrwt>0</asrwt>
<pdfrwt beam="1">  1        2 0.13928160E+00 0.88829046E+03</pdfrwt>
<pdfrwt beam="2">  1       -2 0.20722486E+00 0.88829046E+03</pdfrwt>
<totfact> 0.34894114E+00</totfact>
</mgrwt>
</event>
<event>
 4    5  0.2025789E-007  0.1109649E+04  0.7818608E-02  0.9250388E-01
          2   -1    0    0  501    0  0.00000000000E+00  0.00000000000E+00  0.10440875098E+04  0.10440875098E+04  0.25500000000E-02 0. -1.
         -2   -1    0    0    0  501 -0.00000000000E+00 -0.00000000000E+00 -0.13662871239E+04  0.13662871239E+04  0.25500000000E-02 0.  1.
    8880023    1    1    2    0    0 -0.30671711301E+03 -0.83871082873E+03  0.47168092346E+03  0.12057380899E+04  0.65864270000E+03 0.  0.
    8880022    1    1    2    0    0  0.30671711301E+03  0.83871082873E+03 -0.79388053761E+03  0.12046365438E+04  0.15294330000E+03 0.  0.
<mgrwt>
<rscale>  0 0.10548137E+04</rscale>
<asrwt>0</asrwt>
<pdfrwt beam="1">  1        2 0.16062885E+00 0.11096492E+04</pdfrwt>
<pdfrwt beam="2">  1       -2 0.21019802E+00 0.11096492E+04</pdfrwt>
<totfact> 0.26445229E+00</totfact>
</mgrwt>
</event>
<event>
 4    5  0.2025789E-007  0.7718818E+03  0.7818608E-02  0.9775264E-01
          2   -1    0    0  501    0  0.00000000000E+00  0.00000000000E+00  0.53355674984E+03  0.53355674984E+03  0.25500000000E-02 0. -1.
         -2   -1    0    0    0  501 -0.00000000000E+00 -0.00000000000E+00 -0.19519320598E+04  0.19519320598E+04  0.25500000000E-02 0.  1.
    8880023    1    1    2    0    0 -0.35160357376E+03  0.19587295949E+03  0.21098706615E+03  0.80019812402E+03  0.65864270000E+03 0. -1.
    8880022    1    1    2    0    0  0.35160357376E+03 -0.19587295949E+03 -0.16293623761E+04  0.16852906856E+04  0.15294330000E+03 0.  0.
<mgrwt>
<rscale>  0 0.66707063E+03</rscale>
<asrwt>0</asrwt>
<pdfrwt beam="1">  1        2 0.82085655E-01 0.77188179E+03</pdfrwt>
<pdfrwt beam="2">  1       -2 0.30029724E+00 0.77188179E+03</pdfrwt>
<totfact> 0.18752795E+00</totfact>
</mgrwt>
</event>
<event>
 4    5  0.2025789E-007  0.9649726E+03  0.7818608E-02  0.9428891E-01
          2   -1    0    0  501    0  0.00000000000E+00  0.00000000000E+00  0.13484667672E+04  0.13484667672E+04  0.25500000000E-02 0. -1.
         -2   -1    0    0    0  501 -0.00000000000E+00 -0.00000000000E+00 -0.72891800683E+03  0.72891800684E+03  0.25500000000E-02 0.  1.
    8880023    1    1    2    0    0  0.64164812197E+03 -0.29265957186E+03  0.88414539207E+03  0.13087724088E+04  0.65864270000E+03 0.  0.
    8880022    1    1    2    0    0 -0.64164812197E+03  0.29265957186E+03 -0.26459663174E+03  0.76861236522E+03  0.15294330000E+03 0.  0.
<mgrwt>
<rscale>  0 0.89735704E+03</rscale>
<asrwt>0</asrwt>
<pdfrwt beam="1">  1        2 0.20745642E+00 0.96497261E+03</pdfrwt>
<pdfrwt beam="2">  1       -2 0.11214123E+00 0.96497261E+03</pdfrwt>
<totfact> 0.96866791E+00</totfact>
</mgrwt>
</event>
<event>
 4    5  0.2025789E-007  0.6725865E+03  0.7818608E-02  0.1013873E+00
         -2   -1    0    0    0  501 -0.00000000000E+00  0.00000000000E+00  0.36711734090E+03  0.36711734091E+03  0.25500000000E-02 0.  1.
          2   -1    0    0  501    0  0.00000000000E+00 -0.00000000000E+00 -0.61639596017E+03  0.61639596017E+03  0.25500000000E-02 0. -1.
    8880023    1    1    2    0    0 -0.19010470767E+02  0.13491124413E+03 -0.34671403878E+03  0.75669232370E+03  0.65864270000E+03 0.  0.
    8880022    1    1    2    0    0  0.19010470767E+02 -0.13491124413E+03  0.97435419514E+02  0.22682097739E+03  0.15294330000E+03 0.  0.
<mgrwt>
<rscale>  0 0.49964083E+03</rscale>
<asrwt>0</asrwt>
<pdfrwt beam="1">  1        2 0.94830148E-01 0.67258654E+03</pdfrwt>
<pdfrwt beam="2">  1       -2 0.56479591E-01 0.67258654E+03</pdfrwt>
<totfact> 0.14327629E+02</totfact>
</mgrwt>
</event>
<event>
 4    5  0.2025789E-007  0.8095665E+03  0.7818608E-02  0.9690481E-01
         -2   -1    0    0    0  501 -0.00000000000E+00  0.00000000000E+00  0.26379442534E+03  0.26379442535E+03  0.25500000000E-02 0.  1.
          2   -1    0    0  501    0  0.00000000000E+00 -0.00000000000E+00 -0.19218327556E+04  0.19218327556E+04  0.25500000000E-02 0. -1.
    8880023    1    1    2    0    0  0.44530484887E+03 -0.15261465347E+03 -0.14242042847E+04  0.16382172297E+04  0.65864270000E+03 0.  0.
    8880022    1    1    2    0    0 -0.44530484887E+03  0.15261465347E+03 -0.23383404561E+03  0.54740995130E+03  0.15294330000E+03 0.  0.
<mgrwt>
<rscale>  0 0.71586405E+03</rscale>
<asrwt>0</asrwt>
<pdfrwt beam="1">  1        2 0.29566657E+00 0.80956646E+03</pdfrwt>
<pdfrwt beam="2">  1       -2 0.40583759E-01 0.80956646E+03</pdfrwt>
<totfact> 0.43389388E+01</totfact>
</mgrwt>
</event>
<event>
 4    5  0.2025789E-007  0.7144799E+03  0.7818608E-02  0.9941727E-01
          2   -1    0    0  501    0  0.00000000000E+00  0.00000000000E+00  0.96734130938E+03  0.96734130939E+03  0.25500000000E-02 0. -1.
         -2   -1    0    0    0  501 -0.00000000000E+00 -0.00000000000E+00 -0.11493138131E+04  0.11493138131E+04  0.25500000000E-02 0.  1.
    8880023    1    1    2    0    0  0.27589437238E+03 -0.23530556326E+02  0.80728733127E+03  0.10780512202E+04  0.65864270000E+03 0. -1.
    8880022    1    1    2    0    0 -0.27589437238E+03  0.23530556326E+02 -0.98925983495E+03  0.10386039023E+04  0.15294330000E+03 0.  0.
<mgrwt>
<rscale>  0 0.58280967E+03</rscale>
<asrwt>0</asrwt>
<pdfrwt beam="1">  1        2 0.14882174E+00 0.71447995E+03</pdfrwt>
<pdfrwt beam="2">  1       -2 0.17681751E+00 0.71447995E+03</pdfrwt>
<totfact> 0.51753914E+00</totfact>
</mgrwt>
</event>
<event>
 4    5  0.2025789E-007  0.1339313E+04  0.7818608E-02  0.9032333E-01
         -2   -1    0    0    0  501 -0.00000000000E+00  0.00000000000E+00  0.59461079794E+03  0.59461079794E+03  0.25500000000E-02 0.  1.
          2   -1    0    0  501    0  0.00000000000E+00 -0.00000000000E+00 -0.29426034773E+04  0.29426034773E+04  0.25500000000E-02 0. -1.
    8880023    1    1    2    0    0  0.11642385045E+04  0.67068127006E+02 -0.69616652588E+03  0.15094394546E+04  0.65864270000E+03 0. -1.
    8880022    1    1    2    0    0 -0.11642385045E+04 -0.67068127006E+02 -0.16518261535E+04  0.20277748207E+04  0.15294330000E+03 0.  0.
<mgrwt>
<rscale>  0 0.12965156E+04</rscale>
<asrwt>0</asrwt>
<pdfrwt beam="1">  1        2 0.45270822E+00 0.13393131E+04</pdfrwt>
<pdfrwt beam="2">  1       -2 0.91478586E-01 0.13393131E+04</pdfrwt>
<totfact> 0.18751495E+00</totfact>
</mgrwt>
</event>
<event>
 4    5  0.2025789E-007  0.1295924E+04  0.7818608E-02  0.9069088E-01
          2   -1    0    0  501    0  0.00000000000E+00  0.00000000000E+00  0.24125891950E+04  0.24125891950E+04  0.25500000000E-02 0. -1.
         -2   -1    0    0    0  501 -0.00000000000E+00 -0.00000000000E+00 -0.82029346270E+03  0.82029346270E+03  0.25500000000E-02 0.  1.
    8880023    1    1    2    0    0 -0.54390677797E+02  0.11147421090E+04  0.16735185898E+02  0.12960318623E+04  0.65864270000E+03 0.  0.
    8880022    1    1    2    0    0  0.54390677797E+02 -0.11147421090E+04  0.15755605464E+04  0.19368507955E+04  0.15294330000E+03 0.  0.
<mgrwt>
<rscale>  0 0.12513169E+04</rscale>
<asrwt>0</asrwt>
<pdfrwt beam="1">  1        2 0.37116756E+00 0.12959238E+04</pdfrwt>
<pdfrwt beam="2">  1       -2 0.12619900E+00 0.12959238E+04</pdfrwt>
<totfact> 0.17722524E+00</totfact>
</mgrwt>
</event>
<event>
 4    5  0.2025789E-007  0.1150221E+04  0.7818608E-02  0.9207099E-01
          2   -1    0    0  501    0  0.00000000000E+00  0.00000000000E+00  0.15760283822E+04  0.15760283822E+04  0.25500000000E-02 0. -1.
         -2   -1    0    0    0  501 -0.00000000000E+00 -0.00000000000E+00 -0.93374283576E+03  0.93374283576E+03  0.25500000000E-02 0.  1.
    8880023    1    1    2    0    0  0.85665320004E+03 -0.39413503564E+03  0.96503023593E+03  0.15014295501E+04  0.65864270000E+03 0.  0.
    8880022    1    1    2    0    0 -0.85665320004E+03  0.39413503564E+03 -0.32274468951E+03  0.10083416678E+04  0.15294330000E+03 0.  0.
<mgrwt>
<rscale>  0 0.10980452E+04</rscale>
<asrwt>0</asrwt>
<pdfrwt beam="1">  1        2 0.24246590E+00 0.11502206E+04</pdfrwt>
<pdfrwt beam="2">  1       -2 0.14365275E+00 0.11502206E+04</pdfrwt>
<totfact> 0.37750199E+00</totfact>
</mgrwt>
</event>
<event>
 4    5  0.2025789E-007  0.8917923E+03  0.7818608E-02  0.9539338E-01
          2   -1    0    0  501    0  0.00000000000E+00  0.00000000000E+00  0.96941037294E+03  0.96941037295E+03  0.25500000000E-02 0. -1.
         -2   -1    0    0    0  501 -0.00000000000E+00 -0.00000000000E+00 -0.67238024872E+03  0.67238024872E+03  0.25500000000E-02 0.  1.
    8880023    1    1    2    0    0 -0.53387245961E+03  0.27652037131E+03  0.45564504281E+03  0.10014519111E+04  0.65864270000E+03 0.  0.
    8880022    1    1    2    0    0  0.53387245961E+03 -0.27652037131E+03 -0.15861491858E+03  0.64033871060E+03  0.15294330000E+03 0.  0.
<mgrwt>
<rscale>  0 0.81444686E+03</rscale>
<asrwt>0</asrwt>
<pdfrwt beam="1">  1        2 0.14914006E+00 0.89179231E+03</pdfrwt>
<pdfrwt beam="2">  1       -2 0.10344312E+00 0.89179231E+03</pdfrwt>
<totfact> 0.20141153E+01</totfact>
</mgrwt>
</event>
<event>
 4    5  0.2025789E-007  0.6969569E+03  0.7818608E-02  0.1001007E+00
         -2   -1    0    0    0  501 -0.00000000000E+00  0.00000000000E+00  0.10974295084E+04  0.10974295084E+04  0.25500000000E-02 0.  1.
          2   -1    0    0  501    0  0.00000000000E+00 -0.00000000000E+00 -0.65689716813E+03  0.65689716814E+03  0.25500000000E-02 0. -1.
    8880023    1    1    2    0    0  0.22134840626E+03 -0.54255366846E+02 -0.44522049647E+03  0.82702494432E+03  0.65864270000E+03 0. -1.
    8880022    1    1    2    0    0 -0.22134840626E+03  0.54255366846E+02  0.88575283671E+03  0.92730173220E+03  0.15294330000E+03 0.  0.
<mgrwt>
<rscale>  0 0.55211018E+03</rscale>
<asrwt>0</asrwt>
<pdfrwt beam="1">  1        2 0.10106110E+00 0.69695693E+03</pdfrwt>
<pdfrwt beam="2">  1       -2 0.16883531E+00 0.69695693E+03</pdfrwt>
<totfact> 0.98597543E+00</totfact>
</mgrwt>
</event>
<event>
 4    5  0.2025789E-007  0.9690973E+03  0.7818608E-02  0.9423154E-01
         -2   -1    0    0    0  501 -0.00000000000E+00  0.00000000000E+00  0.13725217939E+04  0.13725217939E+04  0.25500000000E-02 0.  1.
          2   -1    0    0  501    0  0.00000000000E+00 -0.00000000000E+00 -0.11340509558E+04  0.11340509558E+04  0.25500000000E-02 0. -1.
    8880023    1    1    2    0    0 -0.59692201297E+03  0.38603553334E+03 -0.78773146301E+03  0.12488676418E+04  0.65864270000E+03 0. -1.
    8880022    1    1    2    0    0  0.59692201297E+03 -0.38603553334E+03  0.10262023011E+04  0.12577051079E+04  0.15294330000E+03 0.  0.
<mgrwt>
<rscale>  0 0.90194462E+03</rscale>
<asrwt>0</asrwt>
<pdfrwt beam="1">  1        2 0.17446938E+00 0.96909728E+03</pdfrwt>
<pdfrwt beam="2">  1       -2 0.21115720E+00 0.96909728E+03</pdfrwt>
<totfact> 0.23291595E+00</totfact>
</mgrwt>
</event>
<event>
 4    5  0.2025789E-007  0.8753065E+03  0.7818608E-02  0.9566895E-01
         -2   -1    0    0    0  501 -0.00000000000E+00  0.00000000000E+00  0.41762188208E+03  0.41762188209E+03  0.25500000000E-02 0.  1.
          2   -1    0    0  501    0  0.00000000000E+00 -0.00000000000E+00 -0.21958706198E+04  0.21958706198E+04  0.25500000000E-02 0. -1.
    8880023    1    1    2    0    0 -0.46623251471E+03 -0.33908480075E+03 -0.16129732103E+03  0.89004398313E+03  0.65864270000E+03 0.  1.
    8880022    1    1    2    0    0  0.46623251471E+03  0.33908480075E+03 -0.16169514167E+04  0.17234485188E+04  0.15294330000E+03 0.  0.
<mgrwt>
<rscale>  0 0.79526551E+03</rscale>
<asrwt>0</asrwt>
<pdfrwt beam="1">  1        2 0.33782624E+00 0.87530650E+03</pdfrwt>
<pdfrwt beam="2">  1       -2 0.64249522E-01 0.87530650E+03</pdfrwt>
<totfact> 0.11871231E+01</totfact>
</mgrwt>
</event>
<event>
 4    5  0.2025789E-007  0.1281011E+04  0.7818608E-02  0.9082134E-01
         -2   -1    0    0    0  501 -0.00000000000E+00  0.00000000000E+00  0.63209307419E+03  0.63209307420E+03  0.25500000000E-02 0.  1.
          2   -1    0    0  501    0  0.00000000000E+00 -0.00000000000E+00 -0.35947431059E+04  0.35947431059E+04  0.25500000000E-02 0. -1.
    8880023    1    1    2    0    0  0.89584163170E+03 -0.63611900070E+03 -0.26240928462E+03  0.13076117356E+04  0.65864270000E+03 0.  1.
    8880022    1    1    2    0    0 -0.89584163170E+03  0.63611900070E+03 -0.27002407470E+04  0.29192244445E+04  0.15294330000E+03 0.  0.
<mgrwt>
<rscale>  0 0.12357427E+04</rscale>
<asrwt>0</asrwt>
<pdfrwt beam="1">  1        2 0.55303739E+00 0.12810112E+04</pdfrwt>
<pdfrwt beam="2">  1       -2 0.97245091E-01 0.12810112E+04</pdfrwt>
<totfact> 0.60914150E-01</totfact>
</mgrwt>
</event>
<event>
 4    5  0.3161440E-007  0.1157532E+04  0.7818608E-02  0.9199552E-01
         -2   -1    0    0    0  501 -0.00000000000E+00  0.00000000000E+00  0.10993304120E+04  0.10993304120E+04  0.25500000000E-02 0.  1.
          2   -1    0    0  501    0  0.00000000000E+00 -0.00000000000E+00 -0.25323738878E+04  0.25323738878E+04  0.25500000000E-02 0. -1.
    8880023    1    1    2    0    0 -0.91111423138E+03  0.27557237594E+03 -0.21421707293E+04  0.24349075787E+04  0.65864270000E+03 0.  0.
    8880022    1    1    2    0    0  0.91111423138E+03 -0.27557237594E+03  0.70912725349E+03  0.11967967211E+04  0.15294330000E+03 0.  0.
<mgrwt>
<rscale>  0 0.11058050E+04</rscale>
<asrwt>0</asrwt>
<pdfrwt beam="1">  1        2 0.38959598E+00 0.11575316E+04</pdfrwt>
<pdfrwt beam="2">  1       -2 0.16912776E+00 0.11575316E+04</pdfrwt>
<totfact> 0.70823884E-01</totfact>
</mgrwt>
</event>
<event>
 4    5  0.2025789E-007  0.6605964E+03  0.7818608E-02  0.1023553E+00
         -2   -1    0    0    0  501 -0.00000000000E+00  0.00000000000E+00  0.11056857702E+04  0.11056857702E+04  0.25500000000E-02 0.  1.
          2   -1    0    0  501    0  0.00000000000E+00 -0.00000000000E+00 -0.55471107967E+03  0.55471107968E+03  0.25500000000E-02 0. -1.
    8880023    1    1    2    0    0  0.40139142463E+02  0.31085506439E+02 -0.34830262942E+03  0.74679474248E+03  0.65864270000E+03 0. -1.
    8880022    1    1    2    0    0 -0.40139142463E+02 -0.31085506439E+02  0.89927731993E+03  0.91360210739E+03  0.15294330000E+03 0.  0.
<mgrwt>
<rscale>  0 0.46425791E+03</rscale>
<asrwt>0</asrwt>
<pdfrwt beam="1">  1        2 0.85340166E-01 0.66059645E+03</pdfrwt>
<pdfrwt beam="2">  1       -2 0.17010550E+00 0.66059645E+03</pdfrwt>
<totfact> 0.11893842E+01</totfact>
</mgrwt>
</event>
<event>
 4    5  0.2025789E-007  0.6643296E+03  0.7818608E-02  0.1020103E+00
          2   -1    0    0  501    0  0.00000000000E+00  0.00000000000E+00  0.42253529225E+03  0.42253529225E+03  0.25500000000E-02 0. -1.
         -2   -1    0    0    0  501 -0.00000000000E+00 -0.00000000000E+00 -0.13570057561E+04  0.13570057561E+04  0.25500000000E-02 0.  1.
    8880023    1    1    2    0    0 -0.49061469689E+02 -0.71530631953E+02  0.14988064263E+03  0.68102721856E+03  0.65864270000E+03 0. -1.
    8880022    1    1    2    0    0  0.49061469689E+02  0.71530631953E+02 -0.10843511065E+04  0.10985138298E+04  0.15294330000E+03 0.  0.
<mgrwt>
<rscale>  0 0.47649618E+03</rscale>
<asrwt>0</asrwt>
<pdfrwt beam="1">  1        2 0.65005430E-01 0.66432964E+03</pdfrwt>
<pdfrwt beam="2">  1       -2 0.20877011E+00 0.66432964E+03</pdfrwt>
<totfact> 0.89784718E+00</totfact>
</mgrwt>
</event>
<event>
 4    5  0.2025789E-007  0.1020866E+04  0.7818608E-02  0.9354754E-01
         -2   -1    0    0    0  501 -0.00000000000E+00  0.00000000000E+00  0.31337352204E+03  0.31337352205E+03  0.25500000000E-02 0.  1.
          2   -1    0    0  501    0  0.00000000000E+00 -0.00000000000E+00 -0.26476430692E+04  0.26476430692E+04  0.25500000000E-02 0. -1.
    8880023    1    1    2    0    0 -0.58652487489E+03  0.51414490924E+03 -0.11916705122E+04  0.15691543049E+04  0.65864270000E+03 0.  0.
    8880022    1    1    2    0    0  0.58652487489E+03 -0.51414490924E+03 -0.11425990350E+04  0.13918622864E+04  0.15294330000E+03 0.  0.
<mgrwt>
<rscale>  0 0.95894660E+03</rscale>
<asrwt>0</asrwt>
<pdfrwt beam="1">  1        2 0.40732969E+00 0.10208656E+04</pdfrwt>
<pdfrwt beam="2">  1       -2 0.48211313E-01 0.10208656E+04</pdfrwt>
<totfact> 0.11771923E+01</totfact>
</mgrwt>
</event>
<event>
 4    5  0.2025789E-007  0.8668778E+03  0.7818608E-02  0.9581444E-01
         -2   -1    0    0    0  501 -0.00000000000E+00  0.00000000000E+00  0.77934962612E+03  0.77934962612E+03  0.25500000000E-02 0.  1.
          2   -1    0    0  501    0  0.00000000000E+00 -0.00000000000E+00 -0.77980284590E+03  0.77980284591E+03  0.25500000000E-02 0. -1.
    8880023    1    1    2    0    0 -0.41608896775E+03 -0.38018012639E+03 -0.28096742623E+03  0.91127375605E+03  0.65864270000E+03 0. -1.
    8880022    1    1    2    0    0  0.41608896775E+03  0.38018012639E+03  0.28051420645E+03  0.64787871598E+03  0.15294330000E+03 0.  0.
<mgrwt>
<rscale>  0 0.78536591E+03</rscale>
<asrwt>0</asrwt>
<pdfrwt beam="1">  1        2 0.11996967E+00 0.86687783E+03</pdfrwt>
<pdfrwt beam="2">  1       -2 0.11989994E+00 0.86687783E+03</pdfrwt>
<totfact> 0.19033043E+01</totfact>
</mgrwt>
</event>
<event>
 4    5  0.2025789E-007  0.6974808E+03  0.7818608E-02  0.1000782E+00
          2   -1    0    0  501    0  0.00000000000E+00  0.00000000000E+00  0.27688871717E+04  0.27688871717E+04  0.25500000000E-02 0. -1.
         -2   -1    0    0    0  501 -0.00000000000E+00 -0.00000000000E+00 -0.41890089536E+03  0.41890089536E+03  0.25500000000E-02 0.  1.
    8880023    1    1    2    0    0 -0.22707511053E+03  0.33258493241E+02  0.26733205098E+04  0.27628105233E+04  0.65864270000E+03 0. -1.
    8880022    1    1    2    0    0  0.22707511053E+03 -0.33258493241E+02 -0.32333423345E+03  0.42497754379E+03  0.15294330000E+03 0.  0.
<mgrwt>
<rscale>  0 0.55308815E+03</rscale>
<asrwt>0</asrwt>
<pdfrwt beam="1">  1        2 0.42598264E+00 0.69748078E+03</pdfrwt>
<pdfrwt beam="2">  1       -2 0.64446292E-01 0.69748078E+03</pdfrwt>
<totfact> 0.57386553E+00</totfact>
</mgrwt>
</event>
<event>
 4    5  0.2025789E-007  0.7962482E+03  0.7818608E-02  0.9718968E-01
          2   -1    0    0  501    0  0.00000000000E+00  0.00000000000E+00  0.16572469390E+04  0.16572469390E+04  0.25500000000E-02 0. -1.
         -2   -1    0    0    0  501 -0.00000000000E+00 -0.00000000000E+00 -0.63863179974E+03  0.63863179975E+03  0.25500000000E-02 0.  1.
    8880023    1    1    2    0    0  0.37511373372E+03 -0.24390717391E+03  0.14510132194E+04  0.16551285726E+04  0.65864270000E+03 0. -1.
    8880022    1    1    2    0    0 -0.37511373372E+03  0.24390717391E+03 -0.43239808014E+03  0.64075016615E+03  0.15294330000E+03 0.  0.
<mgrwt>
<rscale>  0 0.69898612E+03</rscale>
<asrwt>0</asrwt>
<pdfrwt beam="1">  1        2 0.25496106E+00 0.79624822E+03</pdfrwt>
<pdfrwt beam="2">  1       -2 0.98251048E-01 0.79624822E+03</pdfrwt>
<totfact> 0.91115954E+00</totfact>
</mgrwt>
</event>
<event>
 4    5  0.2025789E-007  0.8024730E+03  0.7818608E-02  0.9705474E-01
         -2   -1    0    0    0  501 -0.00000000000E+00  0.00000000000E+00  0.99178601420E+03  0.99178601420E+03  0.25500000000E-02 0.  1.
          2   -1    0    0  501    0  0.00000000000E+00 -0.00000000000E+00 -0.49307936197E+03  0.49307936198E+03  0.25500000000E-02 0. -1.
    8880023    1    1    2    0    0  0.30326924123E+02  0.45741993874E+03  0.17184146769E+02  0.80265697770E+03  0.65864270000E+03 0. -1.
    8880022    1    1    2    0    0 -0.30326924123E+02 -0.45741993874E+03  0.48152250546E+03  0.68220839848E+03  0.15294330000E+03 0.  0.
<mgrwt>
<rscale>  0 0.70691794E+03</rscale>
<asrwt>0</asrwt>
<pdfrwt beam="1">  1        2 0.75858364E-01 0.80247301E+03</pdfrwt>
<pdfrwt beam="2">  1       -2 0.15258246E+00 0.80247301E+03</pdfrwt>
<totfact> 0.18085016E+01</totfact>
</mgrwt>
</event>
<event>
 4    5  0.2025789E-007  0.1257002E+04  0.7818608E-02  0.9103610E-01
         -2   -1    0    0    0  501 -0.00000000000E+00  0.00000000000E+00  0.13638827064E+04  0.13638827064E+04  0.25500000000E-02 0.  1.
          2   -1    0    0  501    0  0.00000000000E+00 -0.00000000000E+00 -0.11419476956E+04  0.11419476956E+04  0.25500000000E-02 0. -1.
    8880023    1    1    2    0    0  0.51384424160E+03 -0.93925894999E+03 -0.31863786218E+03  0.12967588724E+04  0.65864270000E+03 0. -1.
    8880022    1    1    2    0    0 -0.51384424160E+03  0.93925894999E+03  0.54057287295E+03  0.12090715296E+04  0.15294330000E+03 0.  0.
<mgrwt>
<rscale>  0 0.12106210E+04</rscale>
<asrwt>0</asrwt>
<pdfrwt beam="1">  1        2 0.17568426E+00 0.12570018E+04</pdfrwt>
<pdfrwt beam="2">  1       -2 0.20982811E+00 0.12570018E+04</pdfrwt>
<totfact> 0.22773811E+00</totfact>
</mgrwt>
</event>
<event>
 4    5  0.2025789E-007  0.7079715E+03  0.7818608E-02  0.9965612E-01
          2   -1    0    0  501    0  0.00000000000E+00  0.00000000000E+00  0.67882054368E+03  0.67882054369E+03  0.25500000000E-02 0. -1.
         -2   -1    0    0    0  501 -0.00000000000E+00 -0.00000000000E+00 -0.13091665580E+04  0.13091665580E+04  0.25500000000E-02 0.  1.
    8880023    1    1    2    0    0 -0.13544063708E+03  0.22151591766E+03  0.46825048894E+03  0.84881222576E+03  0.65864270000E+03 0. -1.
    8880022    1    1    2    0    0  0.13544063708E+03 -0.22151591766E+03 -0.10985965032E+04  0.11391748759E+04  0.15294330000E+03 0.  0.
<mgrwt>
<rscale>  0 0.57184145E+03</rscale>
<asrwt>0</asrwt>
<pdfrwt beam="1">  1        2 0.10443393E+00 0.70797152E+03</pdfrwt>
<pdfrwt beam="2">  1       -2 0.20141024E+00 0.70797152E+03</pdfrwt>
<totfact> 0.56929041E+00</totfact>
</mgrwt>
</event>
<event>
 4    5  0.2025789E-007  0.9821151E+03  0.7818608E-02  0.9405340E-01
          2   -1    0    0  501    0  0.00000000000E+00  0.00000000000E+00  0.14875212080E+04  0.14875212080E+04  0.25500000000E-02 0. -1.
         -2   -1    0    0    0  501 -0.00000000000E+00 -0.00000000000E+00 -0.63684747616E+03  0.63684747616E+03  0.25500000000E-02 0.  1.
    8880023    1    1    2    0    0 -0.21529615995E+03 -0.69597947294E+03  0.95835281017E+03  0.13722208927E+04  0.65864270000E+03 0.  0.
    8880022    1    1    2    0    0  0.21529615995E+03  0.69597947294E+03 -0.10767907838E+03  0.75214779145E+03  0.15294330000E+03 0.  0.
<mgrwt>
<rscale>  0 0.91637535E+03</rscale>
<asrwt>0</asrwt>
<pdfrwt beam="1">  1        2 0.22884942E+00 0.98211510E+03</pdfrwt>
<pdfrwt beam="2">  1       -2 0.97976535E-01 0.98211510E+03</pdfrwt>
<totfact> 0.11154607E+01</totfact>
</mgrwt>
</event>
<event>
 4    5  0.2025789E-007  0.7832097E+03  0.7818608E-02  0.9748351E-01
          2   -1    0    0  501    0  0.00000000000E+00  0.00000000000E+00  0.71516678828E+03  0.71516678828E+03  0.25500000000E-02 0. -1.
         -2   -1    0    0    0  501 -0.00000000000E+00 -0.00000000000E+00 -0.81567030176E+03  0.81567030177E+03  0.25500000000E-02 0.  1.
    8880023    1    1    2    0    0  0.10082107534E+03 -0.41163374182E+03 -0.49956275436E+03  0.92896737211E+03  0.65864270000E+03 0.  0.
    8880022    1    1    2    0    0 -0.10082107534E+03  0.41163374182E+03  0.39905924087E+03  0.60186971794E+03  0.15294330000E+03 0.  0.
<mgrwt>
<rscale>  0 0.68209560E+03</rscale>
<asrwt>0</asrwt>
<pdfrwt beam="1">  1        2 0.11002566E+00 0.78320970E+03</pdfrwt>
<pdfrwt beam="2">  1       -2 0.12548774E+00 0.78320970E+03</pdfrwt>
<totfact> 0.19138030E+01</totfact>
</mgrwt>
</event>
<event>
 4    5  0.2025789E-007  0.2012960E+04  0.7818608E-02  0.8613068E-01
          2   -1    0    0  501    0  0.00000000000E+00  0.00000000000E+00  0.26760873896E+04  0.26760873896E+04  0.25500000000E-02 0. -1.
         -2   -1    0    0    0  501 -0.00000000000E+00 -0.00000000000E+00 -0.17546199561E+04  0.17546199561E+04  0.25500000000E-02 0.  1.
    8880023    1    1    2    0    0 -0.68194802038E+03  0.17757095272E+04  0.14138976614E+04  0.24599012644E+04  0.65864270000E+03 0.  0.
    8880022    1    1    2    0    0  0.68194802038E+03 -0.17757095272E+04 -0.49243022793E+03  0.19708060813E+04  0.15294330000E+03 0.  0.
<mgrwt>
<rscale>  0 0.19862674E+04</rscale>
<asrwt>0</asrwt>
<pdfrwt beam="1">  1        2 0.41170575E+00 0.20129599E+04</pdfrwt>
<pdfrwt beam="2">  1       -2 0.26994153E+00 0.20129599E+04</pdfrwt>
<totfact> 0.11798723E-01</totfact>
</mgrwt>
</event>
<event>
 4    5  0.2025789E-007  0.2352512E+04  0.7818608E-02  0.8466200E-01
          2   -1    0    0  501    0  0.00000000000E+00  0.00000000000E+00  0.32031032880E+04  0.32031032880E+04  0.25500000000E-02 0. -1.
         -2   -1    0    0    0  501 -0.00000000000E+00 -0.00000000000E+00 -0.21405462129E+04  0.21405462129E+04  0.25500000000E-02 0.  1.
    8880023    1    1    2    0    0 -0.44046290328E+03 -0.22150612518E+04  0.18008780144E+04  0.29626805004E+04  0.65864270000E+03 0.  0.
    8880022    1    1    2    0    0  0.44046290328E+03  0.22150612518E+04 -0.73832093934E+03  0.23809690004E+04  0.15294330000E+03 0.  0.
<mgrwt>
<rscale>  0 0.23299627E+04</rscale>
<asrwt>0</asrwt>
<pdfrwt beam="1">  1        2 0.49278512E+00 0.23525123E+04</pdfrwt>
<pdfrwt beam="2">  1       -2 0.32931480E+00 0.23525123E+04</pdfrwt>
<totfact> 0.23023828E-02</totfact>
</mgrwt>
</event>
<event>
 4    5  0.2025789E-007  0.7382073E+03  0.7818608E-02  0.9865200E-01
          2   -1    0    0  501    0  0.00000000000E+00  0.00000000000E+00  0.11405017924E+04  0.11405017924E+04  0.25500000000E-02 0. -1.
         -2   -1    0    0    0  501 -0.00000000000E+00 -0.00000000000E+00 -0.13846122391E+04  0.13846122391E+04  0.25500000000E-02 0.  1.
    8880023    1    1    2    0    0  0.29366108141E+03 -0.15780686893E+03  0.99154627358E+03  0.12361691056E+04  0.65864270000E+03 0. -1.
    8880022    1    1    2    0    0 -0.29366108141E+03  0.15780686893E+03 -0.12356567203E+04  0.12889449259E+04  0.15294330000E+03 0.  0.
<mgrwt>
<rscale>  0 0.61977885E+03</rscale>
<asrwt>0</asrwt>
<pdfrwt beam="1">  1        2 0.17546182E+00 0.73820732E+03</pdfrwt>
<pdfrwt beam="2">  1       -2 0.21301727E+00 0.73820732E+03</pdfrwt>
<totfact> 0.23213617E+00</totfact>
</mgrwt>
</event>
<event>
 4    5  0.2025789E-007  0.1097818E+04  0.7818608E-02  0.9263489E-01
         -2   -1    0    0    0  501 -0.00000000000E+00  0.00000000000E+00  0.75645782544E+03  0.75645782544E+03  0.25500000000E-02 0.  1.
          2   -1    0    0  501    0  0.00000000000E+00 -0.00000000000E+00 -0.24809577994E+04  0.24809577994E+04  0.25500000000E-02 0. -1.
    8880023    1    1    2    0    0  0.76633138668E+03 -0.42910524740E+03 -0.20193005693E+04  0.22984299213E+04  0.65864270000E+03 0. -1.
    8880022    1    1    2    0    0 -0.76633138668E+03  0.42910524740E+03  0.29480059531E+03  0.93898570360E+03  0.15294330000E+03 0.  0.
<mgrwt>
<rscale>  0 0.10421476E+04</rscale>
<asrwt>0</asrwt>
<pdfrwt beam="1">  1        2 0.38168581E+00 0.10978184E+04</pdfrwt>
<pdfrwt beam="2">  1       -2 0.11637813E+00 0.10978184E+04</pdfrwt>
<totfact> 0.20318062E+00</totfact>
</mgrwt>
</event>
<event>
 4    5  0.2025789E-007  0.1328683E+04  0.7818608E-02  0.9041178E-01
         -2   -1    0    0    0  501 -0.00000000000E+00  0.00000000000E+00  0.15381062095E+04  0.15381062095E+04  0.25500000000E-02 0.  1.
          2   -1    0    0  501    0  0.00000000000E+00 -0.00000000000E+00 -0.12437540213E+04  0.12437540213E+04  0.25500000000E-02 0. -1.
    8880023    1    1    2    0    0 -0.11505025595E+04 -0.89057778869E+02 -0.44692518528E+03  0.14018344249E+04  0.65864270000E+03 0.  0.
    8880022    1    1    2    0    0  0.11505025595E+04  0.89057778869E+02  0.74127737346E+03  0.13800258058E+04  0.15294330000E+03 0.  0.
<mgrwt>
<rscale>  0 0.12854569E+04</rscale>
<asrwt>0</asrwt>
<pdfrwt beam="1">  1        2 0.19134677E+00 0.13286827E+04</pdfrwt>
<pdfrwt beam="2">  1       -2 0.23663173E+00 0.13286827E+04</pdfrwt>
<totfact> 0.13294353E+00</totfact>
</mgrwt>
</event>
<event>
 4    5  0.2025789E-007  0.7814935E+03  0.7818608E-02  0.9752340E-01
         -2   -1    0    0    0  501 -0.00000000000E+00  0.00000000000E+00  0.82706163929E+03  0.82706163929E+03  0.25500000000E-02 0.  1.
          2   -1    0    0  501    0  0.00000000000E+00 -0.00000000000E+00 -0.22355416652E+04  0.22355416652E+04  0.25500000000E-02 0. -1.
    8880023    1    1    2    0    0 -0.65207353812E+02 -0.41553560258E+03 -0.20989783714E+04  0.22397415579E+04  0.65864270000E+03 0. -1.
    8880022    1    1    2    0    0  0.65207353812E+02  0.41553560258E+03  0.69049834549E+03  0.82286174667E+03  0.15294330000E+03 0.  0.
<mgrwt>
<rscale>  0 0.67984168E+03</rscale>
<asrwt>0</asrwt>
<pdfrwt beam="1">  1        2 0.34392948E+00 0.78149347E+03</pdfrwt>
<pdfrwt beam="2">  1       -2 0.12724025E+00 0.78149347E+03</pdfrwt>
<totfact> 0.23448787E+00</totfact>
</mgrwt>
</event>
<event>
 4    5  0.2025789E-007  0.6979961E+03  0.7818608E-02  0.1000562E+00
          2   -1    0    0  501    0  0.00000000000E+00  0.00000000000E+00  0.77925097726E+03  0.77925097727E+03  0.25500000000E-02 0. -1.
         -2   -1    0    0    0  501 -0.00000000000E+00 -0.00000000000E+00 -0.14569472471E+04  0.14569472471E+04  0.25500000000E-02 0.  1.
    8880023    1    1    2    0    0  0.90787049499E+02 -0.21247601108E+03  0.60513051228E+03  0.92378649416E+03  0.65864270000E+03 0. -1.
    8880022    1    1    2    0    0 -0.90787049499E+02  0.21247601108E+03 -0.12828267821E+04  0.13124117302E+04  0.15294330000E+03 0.  0.
<mgrwt>
<rscale>  0 0.55404591E+03</rscale>
<asrwt>0</asrwt>
<pdfrwt beam="1">  1        2 0.11988477E+00 0.69799610E+03</pdfrwt>
<pdfrwt beam="2">  1       -2 0.22414573E+00 0.69799610E+03</pdfrwt>
<totfact> 0.34316485E+00</totfact>
</mgrwt>
</event>
<event>
 4    5  0.2025789E-007  0.7894482E+03  0.7818608E-02  0.9734094E-01
         -2   -1    0    0    0  501 -0.00000000000E+00  0.00000000000E+00  0.37839198731E+03  0.37839198732E+03  0.25500000000E-02 0.  1.
          2   -1    0    0  501    0  0.00000000000E+00 -0.00000000000E+00 -0.12239356672E+04  0.12239356672E+04  0.25500000000E-02 0. -1.
    8880023    1    1    2    0    0  0.26376316786E+03  0.34618950612E+03 -0.20980599527E+03  0.81685184996E+03  0.65864270000E+03 0.  0.
    8880022    1    1    2    0    0 -0.26376316786E+03 -0.34618950612E+03 -0.63573768459E+03  0.78547580452E+03  0.15294330000E+03 0.  0.
<mgrwt>
<rscale>  0 0.69022657E+03</rscale>
<asrwt>0</asrwt>
<pdfrwt beam="1">  1        2 0.18829779E+00 0.78944815E+03</pdfrwt>
<pdfrwt beam="2">  1       -2 0.58214152E-01 0.78944815E+03</pdfrwt>
<totfact> 0.51315192E+01</totfact>
</mgrwt>
</event>
<event>
 4    5  0.2025789E-007  0.8620034E+03  0.7818608E-02  0.9590010E-01
         -2   -1    0    0    0  501 -0.00000000000E+00  0.00000000000E+00  0.21373955556E+03  0.21373955557E+03  0.25500000000E-02 0.  1.
          2   -1    0    0  501    0  0.00000000000E+00 -0.00000000000E+00 -0.39969638362E+04  0.39969638362E+04  0.25500000000E-02 0. -1.
    8880023    1    1    2    0    0 -0.38164726723E+03  0.40445652387E+03 -0.34249026598E+04  0.35317146193E+04  0.65864270000E+03 0.  0.
    8880022    1    1    2    0    0  0.38164726723E+03 -0.40445652387E+03 -0.35832162086E+03  0.67898877257E+03  0.15294330000E+03 0.  0.
<mgrwt>
<rscale>  0 0.77960955E+03</rscale>
<asrwt>0</asrwt>
<pdfrwt beam="1">  1        2 0.61491746E+00 0.86200344E+03</pdfrwt>
<pdfrwt beam="2">  1       -2 0.32883011E-01 0.86200344E+03</pdfrwt>
<totfact> 0.32078019E+00</totfact>
</mgrwt>
</event>
<event>
 4    5  0.2025789E-007  0.1012779E+04  0.7818608E-02  0.9365027E-01
          2   -1    0    0  501    0  0.00000000000E+00  0.00000000000E+00  0.67104806667E+03  0.67104806668E+03  0.25500000000E-02 0. -1.
         -2   -1    0    0    0  501 -0.00000000000E+00 -0.00000000000E+00 -0.16386395159E+04  0.16386395159E+04  0.25500000000E-02 0.  1.
    8880023    1    1    2    0    0  0.57786613018E+03 -0.50791885030E+03  0.62764688055E+02  0.10147218512E+04  0.65864270000E+03 0.  0.
    8880022    1    1    2    0    0 -0.57786613018E+03  0.50791885030E+03 -0.10303561373E+04  0.12949657314E+04  0.15294330000E+03 0.  0.
<mgrwt>
<rscale>  0 0.95010599E+03</rscale>
<asrwt>0</asrwt>
<pdfrwt beam="1">  1        2 0.10323816E+00 0.10127789E+04</pdfrwt>
<pdfrwt beam="2">  1       -2 0.25209838E+00 0.10127789E+04</pdfrwt>
<totfact> 0.26881561E+00</totfact>
</mgrwt>
</event>
<event>
 4    5  0.2025789E-007  0.1032461E+04  0.7818608E-02  0.9340269E-01
         -2   -1    0    0    0  501 -0.00000000000E+00  0.00000000000E+00  0.46847754704E+03  0.46847754704E+03  0.25500000000E-02 0.  1.
          2   -1    0    0  501    0  0.00000000000E+00 -0.00000000000E+00 -0.41371395788E+04  0.41371395788E+04  0.25500000000E-02 0. -1.
    8880023    1    1    2    0    0  0.79505950260E+03 -0.67048377016E+01 -0.36526820686E+04  0.37957951826E+04  0.65864270000E+03 0.  0.
    8880022    1    1    2    0    0 -0.79505950260E+03  0.67048377016E+01 -0.15979963137E+02  0.80982194324E+03  0.15294330000E+03 0.  0.
<mgrwt>
<rscale>  0 0.97158621E+03</rscale>
<asrwt>0</asrwt>
<pdfrwt beam="1">  1        2 0.63648299E+00 0.10324605E+04</pdfrwt>
<pdfrwt beam="2">  1       -2 0.72073472E-01 0.10324605E+04</pdfrwt>
<totfact> 0.48311589E-01</totfact>
</mgrwt>
</event>
<event>
 4    5  0.2025789E-007  0.1064829E+04  0.7818608E-02  0.9301264E-01
         -2   -1    0    0    0  501 -0.00000000000E+00  0.00000000000E+00  0.76138061050E+03  0.76138061050E+03  0.25500000000E-02 0.  1.
          2   -1    0    0  501    0  0.00000000000E+00 -0.00000000000E+00 -0.22313556470E+04  0.22313556470E+04  0.25500000000E-02 0. -1.
    8880023    1    1    2    0    0  0.34904528097E+03 -0.76040603268E+03 -0.17909835407E+04  0.20836223727E+04  0.65864270000E+03 0.  0.
    8880022    1    1    2    0    0 -0.34904528097E+03  0.76040603268E+03  0.32100850422E+03  0.90911388478E+03  0.15294330000E+03 0.  0.
<mgrwt>
<rscale>  0 0.10066656E+04</rscale>
<asrwt>0</asrwt>
<pdfrwt beam="1">  1        2 0.34328548E+00 0.10648287E+04</pdfrwt>
<pdfrwt beam="2">  1       -2 0.11713548E+00 0.10648287E+04</pdfrwt>
<totfact> 0.27781965E+00</totfact>
</mgrwt>
</event>
<event>
 4    5  0.2025789E-007  0.9589870E+03  0.7818608E-02  0.9437300E-01
         -2   -1    0    0    0  501 -0.00000000000E+00  0.00000000000E+00  0.15306193668E+04  0.15306193668E+04  0.25500000000E-02 0.  1.
          2   -1    0    0  501    0  0.00000000000E+00 -0.00000000000E+00 -0.52223115628E+04  0.52223115628E+04  0.25500000000E-02 0. -1.
    8880023    1    1    2    0    0  0.24147611861E+03  0.65386177052E+03 -0.50918712356E+04  0.51813906258E+04  0.65864270000E+03 0.  0.
    8880022    1    1    2    0    0 -0.24147611861E+03 -0.65386177052E+03  0.14001790395E+04  0.15715403038E+04  0.15294330000E+03 0.  0.
<mgrwt>
<rscale>  0 0.89068596E+03</rscale>
<asrwt>0</asrwt>
<pdfrwt beam="1">  1        2 0.80343254E+00 0.95898704E+03</pdfrwt>
<pdfrwt beam="2">  1       -2 0.23547990E+00 0.95898704E+03</pdfrwt>
<totfact> 0.15326932E-03</totfact>
</mgrwt>
</event>
<event>
 4    5  0.2025789E-007  0.8733513E+03  0.7818608E-02  0.9570242E-01
         -2   -1    0    0    0  501 -0.00000000000E+00  0.00000000000E+00  0.11155903106E+04  0.11155903106E+04  0.25500000000E-02 0.  1.
          2   -1    0    0  501    0  0.00000000000E+00 -0.00000000000E+00 -0.17247893453E+04  0.17247893453E+04  0.25500000000E-02 0. -1.
    8880023    1    1    2    0    0 -0.41123521482E+02 -0.57204996653E+03 -0.15201158112E+04  0.17531384982E+04  0.65864270000E+03 0.  0.
    8880022    1    1    2    0    0  0.41123521482E+02  0.57204996653E+03  0.91091677649E+03  0.10872411577E+04  0.15294330000E+03 0.  1.
<mgrwt>
<rscale>  0 0.79297502E+03</rscale>
<asrwt>0</asrwt>
<pdfrwt beam="1">  1        2 0.26535220E+00 0.87335131E+03</pdfrwt>
<pdfrwt beam="2">  1       -2 0.17162928E+00 0.87335131E+03</pdfrwt>
<totfact> 0.19961437E+00</totfact>
</mgrwt>
</event>
<event>
 4    5  0.2025789E-007  0.1035545E+04  0.7818608E-02  0.9336463E-01
         -2   -1    0    0    0  501 -0.00000000000E+00  0.00000000000E+00  0.11979243228E+04  0.11979243228E+04  0.25500000000E-02 0.  1.
          2   -1    0    0  501    0  0.00000000000E+00 -0.00000000000E+00 -0.18367478528E+04  0.18367478528E+04  0.25500000000E-02 0. -1.
    8880023    1    1    2    0    0  0.69975897670E+03 -0.38585087564E+03 -0.15175069238E+04  0.18371665667E+04  0.65864270000E+03 0. -1.
    8880022    1    1    2    0    0 -0.69975897670E+03  0.38585087564E+03  0.87868339383E+03  0.11975056089E+04  0.15294330000E+03 0.  0.
<mgrwt>
<rscale>  0 0.97494184E+03</rscale>
<asrwt>0</asrwt>
<pdfrwt beam="1">  1        2 0.28257659E+00 0.10355451E+04</pdfrwt>
<pdfrwt beam="2">  1       -2 0.18429605E+00 0.10355451E+04</pdfrwt>
<totfact> 0.13822057E+00</totfact>
</mgrwt>
</event>
<event>
 4    5  0.2025789E-007  0.1859810E+04  0.7818608E-02  0.8690154E-01
          2   -1    0    0  501    0  0.00000000000E+00  0.00000000000E+00  0.26328580446E+04  0.26328580446E+04  0.25500000000E-02 0. -1.
         -2   -1    0    0    0  501 -0.00000000000E+00 -0.00000000000E+00 -0.13464650091E+04  0.13464650091E+04  0.25500000000E-02 0.  1.
    8880023    1    1    2    0    0 -0.16832670225E+04  0.43783093806E+03  0.12351229411E+04  0.22325820669E+04  0.65864270000E+03 0. -1.
    8880022    1    1    2    0    0  0.16832670225E+04 -0.43783093806E+03  0.51270094367E+02  0.17467409868E+04  0.15294330000E+03 0.  0.
<mgrwt>
<rscale>  0 0.18306773E+04</rscale>
<asrwt>0</asrwt>
<pdfrwt beam="1">  1        2 0.40505508E+00 0.18598102E+04</pdfrwt>
<pdfrwt beam="2">  1       -2 0.20714847E+00 0.18598102E+04</pdfrwt>
<totfact> 0.31478565E-01</totfact>
</mgrwt>
</event>
<event>
 4    5  0.2025789E-007  0.6737605E+03  0.7818608E-02  0.1013099E+00
          2   -1    0    0  501    0  0.00000000000E+00  0.00000000000E+00  0.15427113548E+04  0.15427113548E+04  0.25500000000E-02 0. -1.
         -2   -1    0    0    0  501 -0.00000000000E+00 -0.00000000000E+00 -0.22155760641E+03  0.22155760642E+03  0.25500000000E-02 0.  1.
    8880023    1    1    2    0    0  0.45866237532E+02 -0.13431029341E+03  0.13898920680E+04  0.15445883379E+04  0.65864270000E+03 0. -1.
    8880022    1    1    2    0    0 -0.45866237532E+02  0.13431029341E+03 -0.68738319610E+02  0.21968062331E+03  0.15294330000E+03 0.  0.
<mgrwt>
<rscale>  0 0.50261274E+03</rscale>
<asrwt>0</asrwt>
<pdfrwt beam="1">  1        2 0.23734021E+00 0.67376047E+03</pdfrwt>
<pdfrwt beam="2">  1       -2 0.34085785E-01 0.67376047E+03</pdfrwt>
<totfact> 0.99323931E+01</totfact>
</mgrwt>
</event>
<event>
 4    5  0.2025789E-007  0.9593332E+03  0.7818608E-02  0.9436811E-01
          2   -1    0    0  501    0  0.00000000000E+00  0.00000000000E+00  0.40989051889E+04  0.40989051889E+04  0.25500000000E-02 0. -1.
         -2   -1    0    0    0  501 -0.00000000000E+00 -0.00000000000E+00 -0.32809634770E+03  0.32809634771E+03  0.25500000000E-02 0.  1.
    8880023    1    1    2    0    0 -0.53546463665E+03  0.44697616212E+03  0.35533159346E+04  0.36805399609E+04  0.65864270000E+03 0. -1.
    8880022    1    1    2    0    0  0.53546463665E+03 -0.44697616212E+03  0.21749290667E+03  0.74646157575E+03  0.15294330000E+03 0.  0.
<mgrwt>
<rscale>  0 0.89107227E+03</rscale>
<asrwt>0</asrwt>
<pdfrwt beam="1">  1        2 0.63060084E+00 0.95933324E+03</pdfrwt>
<pdfrwt beam="2">  1       -2 0.50476358E-01 0.95933324E+03</pdfrwt>
<totfact> 0.11230487E+00</totfact>
</mgrwt>
</event>
<event>
 4    5  0.2025789E-007  0.7038164E+03  0.7818608E-02  0.9981723E-01
         -2   -1    0    0    0  501 -0.00000000000E+00  0.00000000000E+00  0.40404486245E+03  0.40404486246E+03  0.25500000000E-02 0.  1.
          2   -1    0    0  501    0  0.00000000000E+00 -0.00000000000E+00 -0.15999583201E+04  0.15999583201E+04  0.25500000000E-02 0. -1.
    8880023    1    1    2    0    0 -0.11954940514E+03  0.21738280262E+03 -0.14535683521E+04  0.16149979887E+04  0.65864270000E+03 0. -1.
    8880022    1    1    2    0    0  0.11954940514E+03 -0.21738280262E+03  0.25765489447E+03  0.38900519380E+03  0.15294330000E+03 0.  0.
<mgrwt>
<rscale>  0 0.56458968E+03</rscale>
<asrwt>0</asrwt>
<pdfrwt beam="1">  1        2 0.24614743E+00 0.70381642E+03</pdfrwt>
<pdfrwt beam="2">  1       -2 0.62160749E-01 0.70381642E+03</pdfrwt>
<totfact> 0.27624518E+01</totfact>
</mgrwt>
</event>
<event>
 4    5  0.2356129E-007  0.7466855E+03  0.7818608E-02  0.9840884E-01
         -2   -1    0    0    0  501 -0.00000000000E+00  0.00000000000E+00  0.97474113979E+03  0.97474113979E+03  0.25500000000E-02 0.  1.
          2   -1    0    0  501    0  0.00000000000E+00 -0.00000000000E+00 -0.25481746641E+04  0.25481746641E+04  0.25500000000E-02 0. -1.
    8880023    1    1    2    0    0 -0.26828539242E+03  0.22749045298E+03 -0.24525875508E+04  0.25637326028E+04  0.65864270000E+03 0.  0.
    8880022    1    1    2    0    0  0.26828539242E+03 -0.22749045298E+03  0.87915402649E+03  0.95918320111E+03  0.15294330000E+03 0.  0.
<mgrwt>
<rscale>  0 0.63213881E+03</rscale>
<asrwt>0</asrwt>
<pdfrwt beam="1">  1        2 0.39202687E+00 0.74668545E+03</pdfrwt>
<pdfrwt beam="2">  1       -2 0.14996018E+00 0.74668545E+03</pdfrwt>
<totfact> 0.10320134E+00</totfact>
</mgrwt>
</event>
<event>
 4    5  0.2025789E-007  0.1093392E+04  0.7818608E-02  0.9268449E-01
          2   -1    0    0  501    0  0.00000000000E+00  0.00000000000E+00  0.22042744685E+04  0.22042744685E+04  0.25500000000E-02 0. -1.
         -2   -1    0    0    0  501 -0.00000000000E+00 -0.00000000000E+00 -0.65289746040E+03  0.65289746041E+03  0.25500000000E-02 0.  1.
    8880023    1    1    2    0    0  0.89389657276E+02 -0.86816252808E+03  0.16352953307E+04  0.19671547246E+04  0.65864270000E+03 0.  0.
    8880022    1    1    2    0    0 -0.89389657276E+02  0.86816252808E+03 -0.83918322566E+02  0.89001720425E+03  0.15294330000E+03 0.  0.
<mgrwt>
<rscale>  0 0.10374014E+04</rscale>
<asrwt>0</asrwt>
<pdfrwt beam="1">  1        2 0.33911915E+00 0.10933924E+04</pdfrwt>
<pdfrwt beam="2">  1       -2 0.10044576E+00 0.10933924E+04</pdfrwt>
<totfact> 0.41636378E+00</totfact>
</mgrwt>
</event>
<event>
 4    5  0.2025789E-007  0.9318477E+03  0.7818608E-02  0.9476727E-01
         -2   -1    0    0    0  501 -0.00000000000E+00  0.00000000000E+00  0.24200071649E+03  0.24200071650E+03  0.25500000000E-02 0.  1.
          2   -1    0    0  501    0  0.00000000000E+00 -0.00000000000E+00 -0.32025934202E+04  0.32025934202E+04  0.25500000000E-02 0. -1.
    8880023    1    1    2    0    0 -0.29673298098E+03 -0.58862511272E+03 -0.23692815398E+04  0.25459448553E+04  0.65864270000E+03 0. -1.
    8880022    1    1    2    0    0  0.29673298098E+03  0.58862511272E+03 -0.59131116395E+03  0.89864928140E+03  0.15294330000E+03 0.  0.
<mgrwt>
<rscale>  0 0.86021618E+03</rscale>
<asrwt>0</asrwt>
<pdfrwt beam="1">  1        2 0.49270665E+00 0.93184773E+03</pdfrwt>
<pdfrwt beam="2">  1       -2 0.37230882E-01 0.93184773E+03</pdfrwt>
<totfact> 0.91212375E+00</totfact>
</mgrwt>
</event>
<event>
 4    5  0.2025789E-007  0.7631545E+03  0.7818608E-02  0.9797008E-01
          2   -1    0    0  501    0  0.00000000000E+00  0.00000000000E+00  0.13680505885E+04  0.13680505885E+04  0.25500000000E-02 0. -1.
         -2   -1    0    0    0  501 -0.00000000000E+00 -0.00000000000E+00 -0.12440229113E+04  0.12440229113E+04  0.25500000000E-02 0.  1.
    8880023    1    1    2    0    0 -0.37817853645E+03  0.74670035072E+02  0.12206915313E+04  0.14396154488E+04  0.65864270000E+03 0. -1.
    8880022    1    1    2    0    0  0.37817853645E+03 -0.74670035072E+02 -0.10966638541E+04  0.11724580510E+04  0.15294330000E+03 0.  0.
<mgrwt>
<rscale>  0 0.65523349E+03</rscale>
<asrwt>0</asrwt>
<pdfrwt beam="1">  1        2 0.21046932E+00 0.76315452E+03</pdfrwt>
<pdfrwt beam="2">  1       -2 0.19138814E+00 0.76315452E+03</pdfrwt>
<totfact> 0.23505612E+00</totfact>
</mgrwt>
</event>
<event>
 4    5  0.2025789E-007  0.8532738E+03  0.7818608E-02  0.9605642E-01
         -2   -1    0    0    0  501 -0.00000000000E+00  0.00000000000E+00  0.62872388099E+03  0.62872388100E+03  0.25500000000E-02 0.  1.
          2   -1    0    0  501    0  0.00000000000E+00 -0.00000000000E+00 -0.24855391042E+04  0.24855391042E+04  0.25500000000E-02 0. -1.
    8880023    1    1    2    0    0 -0.78758708056E+02 -0.53671505857E+03 -0.22636681556E+04  0.24191464844E+04  0.65864270000E+03 0.  0.
    8880022    1    1    2    0    0  0.78758708056E+02  0.53671505857E+03  0.40685293232E+03  0.69511650084E+03  0.15294330000E+03 0.  0.
<mgrwt>
<rscale>  0 0.76923888E+03</rscale>
<asrwt>0</asrwt>
<pdfrwt beam="1">  1        2 0.38239063E+00 0.85327381E+03</pdfrwt>
<pdfrwt beam="2">  1       -2 0.96726752E-01 0.85327381E+03</pdfrwt>
<totfact> 0.32692081E+00</totfact>
</mgrwt>
</event>
<event>
 4    5  0.2025789E-007  0.8299075E+03  0.7818608E-02  0.9649512E-01
         -2   -1    0    0    0  501 -0.00000000000E+00  0.00000000000E+00  0.49815182998E+03  0.49815182999E+03  0.25500000000E-02 0.  1.
          2   -1    0    0  501    0  0.00000000000E+00 -0.00000000000E+00 -0.24305597748E+04  0.24305597748E+04  0.25500000000E-02 0. -1.
    8880023    1    1    2    0    0  0.12780951799E+03 -0.48846795109E+03 -0.21897385574E+04  0.23417304217E+04  0.65864270000E+03 0.  0.
    8880022    1    1    2    0    0 -0.12780951799E+03  0.48846795109E+03  0.25733061254E+03  0.58698118308E+03  0.15294330000E+03 0.  0.
<mgrwt>
<rscale>  0 0.74104033E+03</rscale>
<asrwt>0</asrwt>
<pdfrwt beam="1">  1        2 0.37393227E+00 0.82990748E+03</pdfrwt>
<pdfrwt beam="2">  1       -2 0.76638745E-01 0.82990748E+03</pdfrwt>
<totfact> 0.60069503E+00</totfact>
</mgrwt>
</event>
<event>
 4    5  0.2025789E-007  0.1266792E+04  0.7818608E-02  0.9094781E-01
         -2   -1    0    0    0  501 -0.00000000000E+00  0.00000000000E+00  0.25488504133E+04  0.25488504133E+04  0.25500000000E-02 0.  1.
          2   -1    0    0  501    0  0.00000000000E+00 -0.00000000000E+00 -0.13902847738E+04  0.13902847738E+04  0.25500000000E-02 0. -1.
    8880023    1    1    2    0    0  0.54272691702E+03  0.93616250373E+03 -0.93703341159E+03  0.15756885989E+04  0.65864270000E+03 0.  0.
    8880022    1    1    2    0    0 -0.54272691702E+03 -0.93616250373E+03  0.20955990511E+04  0.23634465883E+04  0.15294330000E+03 0.  0.
<mgrwt>
<rscale>  0 0.12208724E+04</rscale>
<asrwt>0</asrwt>
<pdfrwt beam="1">  1        2 0.21388997E+00 0.12667924E+04</pdfrwt>
<pdfrwt beam="2">  1       -2 0.39213083E+00 0.12667924E+04</pdfrwt>
<totfact> 0.11919244E-01</totfact>
</mgrwt>
</event>
<event>
 4    5  0.2025789E-007  0.1021682E+04  0.7818608E-02  0.9353725E-01
          2   -1    0    0  501    0  0.00000000000E+00  0.00000000000E+00  0.73575768248E+03  0.73575768248E+03  0.25500000000E-02 0. -1.
         -2   -1    0    0    0  501 -0.00000000000E+00 -0.00000000000E+00 -0.13768421613E+04  0.13768421613E+04  0.25500000000E-02 0.  1.
    8880023    1    1    2    0    0  0.69650300467E+03  0.35342132432E+03  0.98138015457E+02  0.10263841115E+04  0.65864270000E+03 0.  0.
    8880022    1    1    2    0    0 -0.69650300467E+03 -0.35342132432E+03 -0.73922249430E+03  0.10862157323E+04  0.15294330000E+03 0.  0.
<mgrwt>
<rscale>  0 0.95983746E+03</rscale>
<asrwt>0</asrwt>
<pdfrwt beam="1">  1        2 0.11319349E+00 0.10216816E+04</pdfrwt>
<pdfrwt beam="2">  1       -2 0.21182187E+00 0.10216816E+04</pdfrwt>
<totfact> 0.42500576E+00</totfact>
</mgrwt>
</event>
<event>
 4    5  0.2025789E-007  0.1086492E+04  0.7818608E-02  0.9276247E-01
          2   -1    0    0  501    0  0.00000000000E+00  0.00000000000E+00  0.16639251239E+04  0.16639251239E+04  0.25500000000E-02 0. -1.
         -2   -1    0    0    0  501 -0.00000000000E+00 -0.00000000000E+00 -0.20758017797E+04  0.20758017797E+04  0.25500000000E-02 0.  1.
    8880023    1    1    2    0    0  0.40934618122E+03  0.76097917501E+03  0.13729504266E+04  0.17508445622E+04  0.65864270000E+03 0. -1.
    8880022    1    1    2    0    0 -0.40934618122E+03 -0.76097917501E+03 -0.17848270824E+04  0.19888823414E+04  0.15294330000E+03 0.  0.
<mgrwt>
<rscale>  0 0.10299930E+04</rscale>
<asrwt>0</asrwt>
<pdfrwt beam="1">  1        2 0.25598848E+00 0.10864915E+04</pdfrwt>
<pdfrwt beam="2">  1       -2 0.31935412E+00 0.10864915E+04</pdfrwt>
<totfact> 0.24691451E-01</totfact>
</mgrwt>
</event>
<event>
 4    5  0.2025789E-007  0.6860174E+03  0.7818608E-02  0.1006106E+00
         -2   -1    0    0    0  501 -0.00000000000E+00  0.00000000000E+00  0.26552248196E+03  0.26552248197E+03  0.25500000000E-02 0.  1.
          2   -1    0    0  501    0  0.00000000000E+00 -0.00000000000E+00 -0.13843674402E+04  0.13843674402E+04  0.25500000000E-02 0. -1.
    8880023    1    1    2    0    0 -0.73545153340E+01 -0.19171729175E+03 -0.12076960147E+04  0.13889382560E+04  0.65864270000E+03 0.  0.
    8880022    1    1    2    0    0  0.73545153340E+01  0.19171729175E+03  0.88851056416E+02  0.26095166620E+03  0.15294330000E+03 0.  0.
<mgrwt>
<rscale>  0 0.53052033E+03</rscale>
<asrwt>0</asrwt>
<pdfrwt beam="1">  1        2 0.21297960E+00 0.68601736E+03</pdfrwt>
<pdfrwt beam="2">  1       -2 0.40849613E-01 0.68601736E+03</pdfrwt>
<totfact> 0.85841084E+01</totfact>
</mgrwt>
</event>
<event>
 4    5  0.2025789E-007  0.1648749E+04  0.7818608E-02  0.8811167E-01
         -2   -1    0    0    0  501 -0.00000000000E+00  0.00000000000E+00  0.83241341061E+03  0.83241341061E+03  0.25500000000E-02 0.  1.
          2   -1    0    0  501    0  0.00000000000E+00 -0.00000000000E+00 -0.32082104965E+04  0.32082104965E+04  0.25500000000E-02 0. -1.
    8880023    1    1    2    0    0 -0.11090284894E+04  0.10269471523E+04 -0.73696846700E+03  0.18059616196E+04  0.65864270000E+03 0.  0.
    8880022    1    1    2    0    0  0.11090284894E+04 -0.10269471523E+04 -0.16388286189E+04  0.22346622875E+04  0.15294330000E+03 0.  0.
<mgrwt>
<rscale>  0 0.16153605E+04</rscale>
<asrwt>0</asrwt>
<pdfrwt beam="1">  1        2 0.49357084E+00 0.16487495E+04</pdfrwt>
<pdfrwt beam="2">  1       -2 0.12806360E+00 0.16487495E+04</pdfrwt>
<totfact> 0.54191690E-01</totfact>
</mgrwt>
</event>
<event>
 4    5  0.2025789E-007  0.8059966E+03  0.7818608E-02  0.9697977E-01
         -2   -1    0    0    0  501 -0.00000000000E+00  0.00000000000E+00  0.58924099100E+03  0.58924099101E+03  0.25500000000E-02 0.  1.
          2   -1    0    0  501    0  0.00000000000E+00 -0.00000000000E+00 -0.26304346426E+04  0.26304346426E+04  0.25500000000E-02 0. -1.
    8880023    1    1    2    0    0  0.37546219344E+03  0.27358444476E+03 -0.24519215350E+04  0.25809978162E+04  0.65864270000E+03 0. -1.
    8880022    1    1    2    0    0 -0.37546219344E+03 -0.27358444476E+03  0.41072788347E+03  0.63867781736E+03  0.15294330000E+03 0.  0.
<mgrwt>
<rscale>  0 0.71137364E+03</rscale>
<asrwt>0</asrwt>
<pdfrwt beam="1">  1        2 0.40468225E+00 0.80599660E+03</pdfrwt>
<pdfrwt beam="2">  1       -2 0.90652462E-01 0.80599660E+03</pdfrwt>
<totfact> 0.31671811E+00</totfact>
</mgrwt>
</event>
<event>
 4    5  0.2025789E-007  0.9860282E+03  0.7818608E-02  0.9400070E-01
         -2   -1    0    0    0  501 -0.00000000000E+00  0.00000000000E+00  0.87613563195E+03  0.87613563195E+03  0.25500000000E-02 0.  1.
          2   -1    0    0  501    0  0.00000000000E+00 -0.00000000000E+00 -0.18923893740E+04  0.18923893740E+04  0.25500000000E-02 0. -1.
    8880023    1    1    2    0    0  0.46145254144E+03 -0.57052872619E+03 -0.15579189610E+04  0.18437361988E+04  0.65864270000E+03 0.  0.
    8880022    1    1    2    0    0 -0.46145254144E+03  0.57052872619E+03  0.54166521894E+03  0.92478880716E+03  0.15294330000E+03 0.  0.
<mgrwt>
<rscale>  0 0.92069955E+03</rscale>
<asrwt>0</asrwt>
<pdfrwt beam="1">  1        2 0.29113683E+00 0.98602824E+03</pdfrwt>
<pdfrwt beam="2">  1       -2 0.13479010E+00 0.98602824E+03</pdfrwt>
<totfact> 0.30330605E+00</totfact>
</mgrwt>
</event>
<event>
 4    5  0.2025789E-007  0.9287255E+03  0.7818608E-02  0.9481408E-01
          2   -1    0    0  501    0  0.00000000000E+00  0.00000000000E+00  0.29777707203E+04  0.29777707203E+04  0.25500000000E-02 0. -1.
         -2   -1    0    0    0  501 -0.00000000000E+00 -0.00000000000E+00 -0.28435914500E+03  0.28435914501E+03  0.25500000000E-02 0.  1.
    8880023    1    1    2    0    0  0.60789228506E+03 -0.24328527929E+03  0.23062803957E+04  0.24862542563E+04  0.65864270000E+03 0. -1.
    8880022    1    1    2    0    0 -0.60789228506E+03  0.24328527929E+03  0.38713117962E+03  0.77587560898E+03  0.15294330000E+03 0.  0.
<mgrwt>
<rscale>  0 0.85668530E+03</rscale>
<asrwt>0</asrwt>
<pdfrwt beam="1">  1        2 0.45811856E+00 0.92872545E+03</pdfrwt>
<pdfrwt beam="2">  1       -2 0.43747562E-01 0.92872545E+03</pdfrwt>
<totfact> 0.91997639E+00</totfact>
</mgrwt>
</event>
<event>
 4    5  0.2025789E-007  0.1058304E+04  0.7818608E-02  0.9308965E-01
         -2   -1    0    0    0  501 -0.00000000000E+00  0.00000000000E+00  0.54528781165E+03  0.54528781166E+03  0.25500000000E-02 0.  1.
          2   -1    0    0  501    0  0.00000000000E+00 -0.00000000000E+00 -0.20542363245E+04  0.20542363245E+04  0.25500000000E-02 0. -1.
    8880023    1    1    2    0    0 -0.85824575600E+02 -0.82391245683E+03 -0.13926882702E+04  0.17491679218E+04  0.65864270000E+03 0.  1.
    8880022    1    1    2    0    0  0.85824575600E+02  0.82391245683E+03 -0.11626024262E+03  0.85035621438E+03  0.15294330000E+03 0.  0.
<mgrwt>
<rscale>  0 0.99961732E+03</rscale>
<asrwt>0</asrwt>
<pdfrwt beam="1">  1        2 0.31603635E+00 0.10583042E+04</pdfrwt>
<pdfrwt beam="2">  1       -2 0.83890434E-01 0.10583042E+04</pdfrwt>
<totfact> 0.77056777E+00</totfact>
</mgrwt>
</event>
<event>
 4    5  0.2025789E-007  0.7283038E+03  0.7818608E-02  0.9895429E-01
         -2   -1    0    0    0  501 -0.00000000000E+00  0.00000000000E+00  0.64020844816E+03  0.64020844817E+03  0.25500000000E-02 0.  1.
          2   -1    0    0  501    0  0.00000000000E+00 -0.00000000000E+00 -0.11065966982E+04  0.11065966982E+04  0.25500000000E-02 0. -1.
    8880023    1    1    2    0    0  0.19381420642E+03 -0.24300679082E+03 -0.92168311504E+03  0.11747026082E+04  0.65864270000E+03 0.  0.
    8880022    1    1    2    0    0 -0.19381420642E+03  0.24300679082E+03  0.45529486502E+03  0.57210253812E+03  0.15294330000E+03 0.  0.
<mgrwt>
<rscale>  0 0.60483327E+03</rscale>
<asrwt>0</asrwt>
<pdfrwt beam="1">  1        2 0.17024565E+00 0.72830382E+03</pdfrwt>
<pdfrwt beam="2">  1       -2 0.98493607E-01 0.72830382E+03</pdfrwt>
<totfact> 0.18854817E+01</totfact>
</mgrwt>
</event>
<event>
 4    5  0.2102577E-007  0.2123464E+04  0.7818608E-02  0.8562000E-01
         -2   -1    0    0    0  501 -0.00000000000E+00  0.00000000000E+00  0.18834974289E+04  0.18834974289E+04  0.25500000000E-02 0.  1.
          2   -1    0    0  501    0  0.00000000000E+00 -0.00000000000E+00 -0.37749838076E+04  0.37749838076E+04  0.25500000000E-02 0. -1.
    8880023    1    1    2    0    0 -0.15607139296E+04 -0.12804148427E+04 -0.27373016713E+04  0.34643788456E+04  0.65864270000E+03 0.  0.
    8880022    1    1    2    0    0  0.15607139296E+04  0.12804148427E+04  0.84581529258E+03  0.21941023909E+04  0.15294330000E+03 0.  0.
<mgrwt>
<rscale>  0 0.20982838E+04</rscale>
<asrwt>0</asrwt>
<pdfrwt beam="1">  1        2 0.58076674E+00 0.21234642E+04</pdfrwt>
<pdfrwt beam="2">  1       -2 0.28976884E+00 0.21234642E+04</pdfrwt>
<totfact> 0.16455059E-02</totfact>
</mgrwt>
</event>
<event>
 4    5  0.2025789E-007  0.7396777E+03  0.7818608E-02  0.9860887E-01
         -2   -1    0    0    0  501 -0.00000000000E+00  0.00000000000E+00  0.20034469228E+04  0.20034469228E+04  0.25500000000E-02 0.  1.
          2   -1    0    0  501    0  0.00000000000E+00 -0.00000000000E+00 -0.74879930791E+03  0.74879930792E+03  0.25500000000E-02 0. -1.
    8880023    1    1    2    0    0 -0.27348359870E+03 -0.19626416111E+03 -0.54260467419E+03  0.91735649472E+03  0.65864270000E+03 0. -1.
    8880022    1    1    2    0    0  0.27348359870E+03  0.19626416111E+03  0.17972522891E+04  0.18348897360E+04  0.15294330000E+03 0.  0.
<mgrwt>
<rscale>  0 0.62194899E+03</rscale>
<asrwt>0</asrwt>
<pdfrwt beam="1">  1        2 0.11519989E+00 0.73967770E+03</pdfrwt>
<pdfrwt beam="2">  1       -2 0.30822260E+00 0.73967770E+03</pdfrwt>
<totfact> 0.11140698E+00</totfact>
</mgrwt>
</event>
<event>
 4    5  0.2025789E-007  0.9396586E+03  0.7818608E-02  0.9465152E-01
         -2   -1    0    0    0  501 -0.00000000000E+00  0.00000000000E+00  0.47349546443E+03  0.47349546443E+03  0.25500000000E-02 0.  1.
          2   -1    0    0  501    0  0.00000000000E+00 -0.00000000000E+00 -0.20397216885E+04  0.20397216885E+04  0.25500000000E-02 0. -1.
    8880023    1    1    2    0    0  0.64111334054E+03 -0.19524778842E+03 -0.15654369580E+04  0.18258014925E+04  0.65864270000E+03 0. -1.
    8880022    1    1    2    0    0 -0.64111334054E+03  0.19524778842E+03 -0.78926611987E+00  0.68741566047E+03  0.15294330000E+03 0.  0.
<mgrwt>
<rscale>  0 0.86902514E+03</rscale>
<asrwt>0</asrwt>
<pdfrwt beam="1">  1        2 0.31380333E+00 0.93965857E+03</pdfrwt>
<pdfrwt beam="2">  1       -2 0.72845457E-01 0.93965857E+03</pdfrwt>
<totfact> 0.10925300E+01</totfact>
</mgrwt>
</event>
<event>
 4    5  0.2025789E-007  0.7644846E+03  0.7818608E-02  0.9793633E-01
          2   -1    0    0  501    0  0.00000000000E+00  0.00000000000E+00  0.78786896488E+03  0.78786896489E+03  0.25500000000E-02 0. -1.
         -2   -1    0    0    0  501 -0.00000000000E+00 -0.00000000000E+00 -0.10351085400E+04  0.10351085400E+04  0.25500000000E-02 0.  1.
    8880023    1    1    2    0    0  0.37735645923E+03  0.90711892921E+02  0.53731002291E+03  0.93441897017E+03  0.65864270000E+03 0.  0.
    8880022    1    1    2    0    0 -0.37735645923E+03 -0.90711892921E+02 -0.78454959802E+03  0.88855853471E+03  0.15294330000E+03 0.  0.
<mgrwt>
<rscale>  0 0.65705376E+03</rscale>
<asrwt>0</asrwt>
<pdfrwt beam="1">  1        2 0.12121061E+00 0.76448463E+03</pdfrwt>
<pdfrwt beam="2">  1       -2 0.15924747E+00 0.76448463E+03</pdfrwt>
<totfact> 0.91047401E+00</totfact>
</mgrwt>
</event>
<event>
 4    5  0.2025789E-007  0.1136184E+04  0.7818608E-02  0.9221801E-01
         -2   -1    0    0    0  501 -0.00000000000E+00  0.00000000000E+00  0.60224083512E+03  0.60224083512E+03  0.25500000000E-02 0.  1.
          2   -1    0    0  501    0  0.00000000000E+00 -0.00000000000E+00 -0.37507266010E+04  0.37507266010E+04  0.25500000000E-02 0. -1.
    8880023    1    1    2    0    0  0.79808098492E+03  0.46922236899E+03 -0.32173720779E+04  0.34120955707E+04  0.65864270000E+03 0.  0.
    8880022    1    1    2    0    0 -0.79808098492E+03 -0.46922236899E+03  0.68886312010E+02  0.94087186537E+03  0.15294330000E+03 0.  0.
<mgrwt>
<rscale>  0 0.10831216E+04</rscale>
<asrwt>0</asrwt>
<pdfrwt beam="1">  1        2 0.57703485E+00 0.11361836E+04</pdfrwt>
<pdfrwt beam="2">  1       -2 0.92652439E-01 0.11361836E+04</pdfrwt>
<totfact> 0.53817259E-01</totfact>
</mgrwt>
</event>
<event>
 4    5  0.2025789E-007  0.6699089E+03  0.7818608E-02  0.1015728E+00
          2   -1    0    0  501    0  0.00000000000E+00  0.00000000000E+00  0.17877544865E+04  0.17877544865E+04  0.25500000000E-02 0. -1.
         -2   -1    0    0    0  501 -0.00000000000E+00 -0.00000000000E+00 -0.13895232110E+03  0.13895232112E+03  0.25500000000E-02 0.  1.
    8880023    1    1    2    0    0 -0.80838618137E+02 -0.91830214637E+02  0.15849423966E+04  0.17207034251E+04  0.65864270000E+03 0. -1.
    8880022    1    1    2    0    0  0.80838618137E+02  0.91830214637E+02  0.63859768784E+02  0.20600338246E+03  0.15294330000E+03 0.  0.
<mgrwt>
<rscale>  0 0.49260142E+03</rscale>
<asrwt>0</asrwt>
<pdfrwt beam="1">  1        2 0.27503913E+00 0.66990886E+03</pdfrwt>
<pdfrwt beam="2">  1       -2 0.21377282E-01 0.66990886E+03</pdfrwt>
<totfact> 0.17090824E+02</totfact>
</mgrwt>
</event>
<event>
 4    5  0.2025789E-007  0.1491168E+04  0.7818608E-02  0.8915898E-01
          2   -1    0    0  501    0  0.00000000000E+00  0.00000000000E+00  0.31575193381E+04  0.31575193381E+04  0.25500000000E-02 0. -1.
         -2   -1    0    0    0  501 -0.00000000000E+00 -0.00000000000E+00 -0.99586011933E+03  0.99586011934E+03  0.25500000000E-02 0.  1.
    8880023    1    1    2    0    0  0.10336775359E+04 -0.84928344866E+03  0.23606916970E+04  0.27922118686E+04  0.65864270000E+03 0.  0.
    8880022    1    1    2    0    0 -0.10336775359E+04  0.84928344866E+03 -0.19903247826E+03  0.13611675888E+04  0.15294330000E+03 0.  0.
<mgrwt>
<rscale>  0 0.14536155E+04</rscale>
<asrwt>0</asrwt>
<pdfrwt beam="1">  1        2 0.48577220E+00 0.14911679E+04</pdfrwt>
<pdfrwt beam="2">  1       -2 0.15320925E+00 0.14911679E+04</pdfrwt>
<totfact> 0.37168618E-01</totfact>
</mgrwt>
</event>
<event>
 4    5  0.2025789E-007  0.1501729E+04  0.7818608E-02  0.8908416E-01
         -2   -1    0    0    0  501 -0.00000000000E+00  0.00000000000E+00  0.13548686540E+04  0.13548686540E+04  0.25500000000E-02 0.  1.
          2   -1    0    0  501    0  0.00000000000E+00 -0.00000000000E+00 -0.28573590564E+04  0.28573590564E+04  0.25500000000E-02 0. -1.
    8880023    1    1    2    0    0 -0.52178850763E+03 -0.12446349615E+04 -0.22168400083E+04  0.26776051357E+04  0.65864270000E+03 0.  0.
    8880022    1    1    2    0    0  0.52178850763E+03  0.12446349615E+04  0.71434960588E+03  0.15346225747E+04  0.15294330000E+03 0.  0.
<mgrwt>
<rscale>  0 0.14644902E+04</rscale>
<asrwt>0</asrwt>
<pdfrwt beam="1">  1        2 0.43959370E+00 0.15017289E+04</pdfrwt>
<pdfrwt beam="2">  1       -2 0.20844133E+00 0.15017289E+04</pdfrwt>
<totfact> 0.23524494E-01</totfact>
</mgrwt>
</event>
<event>
 4    5  0.2025789E-007  0.7224319E+03  0.7818608E-02  0.9914441E-01
          2   -1    0    0  501    0  0.00000000000E+00  0.00000000000E+00  0.15193482701E+04  0.15193482701E+04  0.25500000000E-02 0. -1.
         -2   -1    0    0    0  501 -0.00000000000E+00 -0.00000000000E+00 -0.36092244761E+03  0.36092244762E+03  0.25500000000E-02 0.  1.
    8880023    1    1    2    0    0 -0.17112564261E+03 -0.24251539405E+03  0.13234705915E+04  0.15078071212E+04  0.65864270000E+03 0.  0.
    8880022    1    1    2    0    0  0.17112564261E+03  0.24251539405E+03 -0.16504476904E+03  0.37246359649E+03  0.15294330000E+03 0.  0.
<mgrwt>
<rscale>  0 0.59566472E+03</rscale>
<asrwt>0</asrwt>
<pdfrwt beam="1">  1        2 0.23374588E+00 0.72243194E+03</pdfrwt>
<pdfrwt beam="2">  1       -2 0.55526532E-01 0.72243194E+03</pdfrwt>
<totfact> 0.38711409E+01</totfact>
</mgrwt>
</event>
<event>
 4    5  0.2025789E-007  0.7013956E+03  0.7818608E-02  0.9991460E-01
          2   -1    0    0  501    0  0.00000000000E+00  0.00000000000E+00  0.24379167468E+03  0.24379167469E+03  0.25500000000E-02 0. -1.
         -2   -1    0    0    0  501 -0.00000000000E+00 -0.00000000000E+00 -0.26423447253E+04  0.26423447253E+04  0.25500000000E-02 0.  1.
    8880023    1    1    2    0    0 -0.23544262424E+03 -0.52080388854E+02 -0.29106383336E+03  0.75939051717E+03  0.65864270000E+03 0. -1.
    8880022    1    1    2    0    0  0.23544262424E+03  0.52080388854E+02 -0.21074892173E+04  0.21267458828E+04  0.15294330000E+03 0.  0.
<mgrwt>
<rscale>  0 0.56026280E+03</rscale>
<asrwt>0</asrwt>
<pdfrwt beam="1">  1        2 0.37506413E-01 0.70139561E+03</pdfrwt>
<pdfrwt beam="2">  1       -2 0.40651455E+00 0.70139561E+03</pdfrwt>
<totfact> 0.99735147E-01</totfact>
</mgrwt>
</event>
<event>
 4    5  0.2025789E-007  0.6959081E+03  0.7818608E-02  0.1001462E+00
          2   -1    0    0  501    0  0.00000000000E+00  0.00000000000E+00  0.94872118364E+03  0.94872118365E+03  0.25500000000E-02 0. -1.
         -2   -1    0    0    0  501 -0.00000000000E+00 -0.00000000000E+00 -0.87112231536E+03  0.87112231536E+03  0.25500000000E-02 0.  1.
    8880023    1    1    2    0    0  0.13187627196E+03  0.18189705960E+03  0.79270390086E+03  0.10548305893E+04  0.65864270000E+03 0. -1.
    8880022    1    1    2    0    0 -0.13187627196E+03 -0.18189705960E+03 -0.71510503258E+03  0.76501290972E+03  0.15294330000E+03 0.  0.
<mgrwt>
<rscale>  0 0.55013858E+03</rscale>
<asrwt>0</asrwt>
<pdfrwt beam="1">  1        2 0.14595711E+00 0.69590811E+03</pdfrwt>
<pdfrwt beam="2">  1       -2 0.13401882E+00 0.69590811E+03</pdfrwt>
<totfact> 0.11190341E+01</totfact>
</mgrwt>
</event>
<event>
 4    5  0.2025789E-007  0.1450712E+04  0.7818608E-02  0.8945247E-01
         -2   -1    0    0    0  501 -0.00000000000E+00  0.00000000000E+00  0.18388809296E+04  0.18388809296E+04  0.25500000000E-02 0.  1.
          2   -1    0    0  501    0  0.00000000000E+00 -0.00000000000E+00 -0.18438783660E+04  0.18438783660E+04  0.25500000000E-02 0. -1.
    8880023    1    1    2    0    0 -0.91358513428E+03  0.91439506944E+03 -0.12250404247E+04  0.18987602242E+04  0.65864270000E+03 0. -1.
    8880022    1    1    2    0    0  0.91358513428E+03 -0.91439506944E+03  0.12200429882E+04  0.17839990714E+04  0.15294330000E+03 0.  0.
<mgrwt>
<rscale>  0 0.14119031E+04</rscale>
<asrwt>0</asrwt>
<pdfrwt beam="1">  1        2 0.28367360E+00 0.14507124E+04</pdfrwt>
<pdfrwt beam="2">  1       -2 0.28290476E+00 0.14507124E+04</pdfrwt>
<totfact> 0.31121761E-01</totfact>
</mgrwt>
</event>
<event>
 4    5  0.2025789E-007  0.8009741E+03  0.7818608E-02  0.9708694E-01
         -2   -1    0    0    0  501 -0.00000000000E+00  0.00000000000E+00  0.14975033057E+04  0.14975033057E+04  0.25500000000E-02 0.  1.
          2   -1    0    0  501    0  0.00000000000E+00 -0.00000000000E+00 -0.87565269515E+03  0.87565269516E+03  0.25500000000E-02 0. -1.
    8880023    1    1    2    0    0  0.29018283667E+03 -0.35148716141E+03 -0.63843345803E+03  0.10242835496E+04  0.65864270000E+03 0. -1.
    8880022    1    1    2    0    0 -0.29018283667E+03  0.35148716141E+03  0.12602840686E+04  0.13488724513E+04  0.15294330000E+03 0.  0.
<mgrwt>
<rscale>  0 0.70501518E+03</rscale>
<asrwt>0</asrwt>
<pdfrwt beam="1">  1        2 0.13471580E+00 0.80097410E+03</pdfrwt>
<pdfrwt beam="2">  1       -2 0.23038512E+00 0.80097410E+03</pdfrwt>
<totfact> 0.26434933E+00</totfact>
</mgrwt>
</event>
<event>
 4    5  0.2025789E-007  0.1678088E+04  0.7818608E-02  0.8793152E-01
          2   -1    0    0  501    0  0.00000000000E+00  0.00000000000E+00  0.26914031069E+04  0.26914031069E+04  0.25500000000E-02 0. -1.
         -2   -1    0    0    0  501 -0.00000000000E+00 -0.00000000000E+00 -0.11674145214E+04  0.11674145214E+04  0.25500000000E-02 0.  1.
    8880023    1    1    2    0    0 -0.57206650820E+03 -0.14334950561E+04 -0.89559383348E+01  0.16781116115E+04  0.65864270000E+03 0.  1.
    8880022    1    1    2    0    0  0.57206650820E+03  0.14334950561E+04  0.15329445238E+04  0.21807060168E+04  0.15294330000E+03 0.  0.
<mgrwt>
<rscale>  0 0.16453679E+04</rscale>
<asrwt>0</asrwt>
<pdfrwt beam="1">  1        2 0.41406201E+00 0.16780877E+04</pdfrwt>
<pdfrwt beam="2">  1       -2 0.17960224E+00 0.16780877E+04</pdfrwt>
<totfact> 0.45339447E-01</totfact>
</mgrwt>
</event>
<event>
 4    5  0.2025789E-007  0.1211488E+04  0.7818608E-02  0.9146035E-01
          2   -1    0    0  501    0  0.00000000000E+00  0.00000000000E+00  0.29210575029E+04  0.29210575029E+04  0.25500000000E-02 0. -1.
         -2   -1    0    0    0  501 -0.00000000000E+00 -0.00000000000E+00 -0.56418649578E+03  0.56418649579E+03  0.25500000000E-02 0.  1.
    8880023    1    1    2    0    0  0.61982848277E+03 -0.80604297168E+03  0.40200128611E+03  0.12764434420E+04  0.65864270000E+03 0. -1.
    8880022    1    1    2    0    0 -0.61982848277E+03  0.80604297168E+03  0.19548697210E+04  0.22088005568E+04  0.15294330000E+03 0.  0.
<mgrwt>
<rscale>  0 0.11628221E+04</rscale>
<asrwt>0</asrwt>
<pdfrwt beam="1">  1        2 0.44939346E+00 0.12114879E+04</pdfrwt>
<pdfrwt beam="2">  1       -2 0.86797923E-01 0.12114879E+04</pdfrwt>
<totfact> 0.22166808E+00</totfact>
</mgrwt>
</event>
<event>
 4    5  0.2025789E-007  0.8096733E+03  0.7818608E-02  0.9690258E-01
         -2   -1    0    0    0  501 -0.00000000000E+00  0.00000000000E+00  0.59633819316E+03  0.59633819316E+03  0.25500000000E-02 0.  1.
          2   -1    0    0  501    0  0.00000000000E+00 -0.00000000000E+00 -0.11170708802E+04  0.11170708802E+04  0.25500000000E-02 0. -1.
    8880023    1    1    2    0    0 -0.22774683148E+03  0.41217965490E+03 -0.80560536452E+03  0.11421781371E+04  0.65864270000E+03 0. -1.
    8880022    1    1    2    0    0  0.22774683148E+03 -0.41217965490E+03  0.28487267750E+03  0.57123093628E+03  0.15294330000E+03 0.  0.
<mgrwt>
<rscale>  0 0.71599812E+03</rscale>
<asrwt>0</asrwt>
<pdfrwt beam="1">  1        2 0.17185706E+00 0.80967333E+03</pdfrwt>
<pdfrwt beam="2">  1       -2 0.91744337E-01 0.80967333E+03</pdfrwt>
<totfact> 0.21746671E+01</totfact>
</mgrwt>
</event>
<event>
 4    5  0.2025789E-007  0.8108843E+03  0.7818608E-02  0.9687738E-01
         -2   -1    0    0    0  501 -0.00000000000E+00  0.00000000000E+00  0.51723150099E+03  0.51723150099E+03  0.25500000000E-02 0.  1.
          2   -1    0    0  501    0  0.00000000000E+00 -0.00000000000E+00 -0.11827125672E+04  0.11827125672E+04  0.25500000000E-02 0. -1.
    8880023    1    1    2    0    0 -0.30637591196E+03  0.36035673355E+03 -0.84526428973E+03  0.11713262144E+04  0.65864270000E+03 0.  0.
    8880022    1    1    2    0    0  0.30637591196E+03 -0.36035673355E+03  0.17978322352E+03  0.52861785377E+03  0.15294330000E+03 0.  0.
<mgrwt>
<rscale>  0 0.71751590E+03</rscale>
<asrwt>0</asrwt>
<pdfrwt beam="1">  1        2 0.18195578E+00 0.81088432E+03</pdfrwt>
<pdfrwt beam="2">  1       -2 0.79574077E-01 0.81088432E+03</pdfrwt>
<totfact> 0.27472584E+01</totfact>
</mgrwt>
</event>
<event>
 4    5  0.2025789E-007  0.7939131E+03  0.7818608E-02  0.9724115E-01
         -2   -1    0    0    0  501 -0.00000000000E+00  0.00000000000E+00  0.80291256197E+03  0.80291256197E+03  0.25500000000E-02 0.  1.
          2   -1    0    0  501    0  0.00000000000E+00 -0.00000000000E+00 -0.17382714539E+04  0.17382714539E+04  0.25500000000E-02 0. -1.
    8880023    1    1    2    0    0  0.42370272138E+03 -0.13024500459E+03 -0.15657448866E+04  0.17555212939E+04  0.65864270000E+03 0.  0.
    8880022    1    1    2    0    0 -0.42370272138E+03  0.13024500459E+03  0.63038599467E+03  0.78566272192E+03  0.15294330000E+03 0.  0.
<mgrwt>
<rscale>  0 0.69598966E+03</rscale>
<asrwt>0</asrwt>
<pdfrwt beam="1">  1        2 0.26742638E+00 0.79391307E+03</pdfrwt>
<pdfrwt beam="2">  1       -2 0.12352501E+00 0.79391307E+03</pdfrwt>
<totfact> 0.47201347E+00</totfact>
</mgrwt>
</event>
<event>
 4    5  0.2025789E-007  0.7052292E+03  0.7818608E-02  0.9976163E-01
         -2   -1    0    0    0  501 -0.00000000000E+00  0.00000000000E+00  0.34374801410E+03  0.34374801411E+03  0.25500000000E-02 0.  1.
          2   -1    0    0  501    0  0.00000000000E+00 -0.00000000000E+00 -0.27474752359E+04  0.27474752359E+04  0.25500000000E-02 0. -1.
    8880023    1    1    2    0    0 -0.14083978796E+03  0.20905067307E+03 -0.26278729006E+04  0.27208572579E+04  0.65864270000E+03 0.  0.
    8880022    1    1    2    0    0  0.14083978796E+03 -0.20905067307E+03  0.22414567881E+03  0.37036599213E+03  0.15294330000E+03 0.  0.
<mgrwt>
<rscale>  0 0.56707922E+03</rscale>
<asrwt>0</asrwt>
<pdfrwt beam="1">  1        2 0.42268848E+00 0.70522921E+03</pdfrwt>
<pdfrwt beam="2">  1       -2 0.52884312E-01 0.70522921E+03</pdfrwt>
<totfact> 0.89311001E+00</totfact>
</mgrwt>
</event>
<event>
 4    5  0.2025789E-007  0.8608210E+03  0.7818608E-02  0.9592105E-01
          2   -1    0    0  501    0  0.00000000000E+00  0.00000000000E+00  0.15470088036E+04  0.15470088036E+04  0.25500000000E-02 0. -1.
         -2   -1    0    0    0  501 -0.00000000000E+00 -0.00000000000E+00 -0.82523425967E+03  0.82523425968E+03  0.25500000000E-02 0.  1.
    8880023    1    1    2    0    0 -0.74136116017E+02 -0.54927802276E+03  0.12984663510E+04  0.15578920313E+04  0.65864270000E+03 0.  0.
    8880022    1    1    2    0    0  0.74136116017E+02  0.54927802276E+03 -0.57669180711E+03  0.81435103204E+03  0.15294330000E+03 0.  0.
<mgrwt>
<rscale>  0 0.77820949E+03</rscale>
<asrwt>0</asrwt>
<pdfrwt beam="1">  1        2 0.23800135E+00 0.86082095E+03</pdfrwt>
<pdfrwt beam="2">  1       -2 0.12695912E+00 0.86082095E+03</pdfrwt>
<totfact> 0.55645945E+00</totfact>
</mgrwt>
</event>
<event>
 4    5  0.2025789E-007  0.1244631E+04  0.7818608E-02  0.9114913E-01
         -2   -1    0    0    0  501 -0.00000000000E+00  0.00000000000E+00  0.14717029921E+04  0.14717029921E+04  0.25500000000E-02 0.  1.
          2   -1    0    0  501    0  0.00000000000E+00 -0.00000000000E+00 -0.19077243304E+04  0.19077243304E+04  0.25500000000E-02 0. -1.
    8880023    1    1    2    0    0 -0.18951502131E+03  0.10389325286E+04 -0.14475742369E+04  0.19090778192E+04  0.65864270000E+03 0. -1.
    8880022    1    1    2    0    0  0.18951502131E+03 -0.10389325286E+04  0.10115528986E+04  0.14703495033E+04  0.15294330000E+03 0.  0.
<mgrwt>
<rscale>  0 0.11976534E+04</rscale>
<asrwt>0</asrwt>
<pdfrwt beam="1">  1        2 0.29349605E+00 0.12446313E+04</pdfrwt>
<pdfrwt beam="2">  1       -2 0.22641585E+00 0.12446313E+04</pdfrwt>
<totfact> 0.65384349E-01</totfact>
</mgrwt>
</event>
<event>
 4    5  0.2025789E-007  0.1540040E+04  0.7818608E-02  0.8881868E-01
          2   -1    0    0  501    0  0.00000000000E+00  0.00000000000E+00  0.23817893952E+04  0.23817893952E+04  0.25500000000E-02 0. -1.
         -2   -1    0    0    0  501 -0.00000000000E+00 -0.00000000000E+00 -0.99214423862E+03  0.99214423862E+03  0.25500000000E-02 0.  1.
    8880023    1    1    2    0    0 -0.35784022555E+03 -0.13453111937E+04  0.12170177688E+04  0.19628688929E+04  0.65864270000E+03 0.  0.
    8880022    1    1    2    0    0  0.35784022555E+03  0.13453111937E+04  0.17262738777E+03  0.14110647409E+04  0.15294330000E+03 0.  0.
<mgrwt>
<rscale>  0 0.15038933E+04</rscale>
<asrwt>0</asrwt>
<pdfrwt beam="1">  1        2 0.36642913E+00 0.15400396E+04</pdfrwt>
<pdfrwt beam="2">  1       -2 0.15263758E+00 0.15400396E+04</pdfrwt>
<totfact> 0.10954672E+00</totfact>
</mgrwt>
</event>
<event>
 4    5  0.2025789E-007  0.9460850E+03  0.7818608E-02  0.9455769E-01
         -2   -1    0    0    0  501 -0.00000000000E+00  0.00000000000E+00  0.69042105491E+03  0.69042105491E+03  0.25500000000E-02 0.  1.
          2   -1    0    0  501    0  0.00000000000E+00 -0.00000000000E+00 -0.16920508683E+04  0.16920508683E+04  0.25500000000E-02 0. -1.
    8880023    1    1    2    0    0  0.49692175636E+03 -0.46296361790E+03 -0.13142225385E+04  0.16193386398E+04  0.65864270000E+03 0. -1.
    8880022    1    1    2    0    0 -0.49692175636E+03  0.46296361790E+03  0.31259272510E+03  0.76313328341E+03  0.15294330000E+03 0.  0.
<mgrwt>
<rscale>  0 0.87624802E+03</rscale>
<asrwt>0</asrwt>
<pdfrwt beam="1">  1        2 0.26031552E+00 0.94608496E+03</pdfrwt>
<pdfrwt beam="2">  1       -2 0.10621862E+00 0.94608496E+03</pdfrwt>
<totfact> 0.71022082E+00</totfact>
</mgrwt>
</event>
<event>
 4    5  0.2025789E-007  0.2319181E+04  0.7818608E-02  0.8479388E-01
         -2   -1    0    0    0  501 -0.00000000000E+00  0.00000000000E+00  0.28693547389E+04  0.28693547389E+04  0.25500000000E-02 0.  1.
          2   -1    0    0  501    0  0.00000000000E+00 -0.00000000000E+00 -0.20748713426E+04  0.20748713426E+04  0.25500000000E-02 0. -1.
    8880023    1    1    2    0    0  0.19986890925E+04 -0.97469594195E+03 -0.49181622241E+03  0.23707559281E+04  0.65864270000E+03 0.  0.
    8880022    1    1    2    0    0 -0.19986890925E+04  0.97469594195E+03  0.12862996188E+04  0.25734701533E+04  0.15294330000E+03 0.  0.
<mgrwt>
<rscale>  0 0.22962844E+04</rscale>
<asrwt>0</asrwt>
<pdfrwt beam="1">  1        2 0.31921098E+00 0.23191810E+04</pdfrwt>
<pdfrwt beam="2">  1       -2 0.44143919E+00 0.23191810E+04</pdfrwt>
<totfact> 0.20534014E-02</totfact>
</mgrwt>
</event>
<event>
 4    5  0.2025789E-007  0.8384566E+03  0.7818608E-02  0.9633097E-01
          2   -1    0    0  501    0  0.00000000000E+00  0.00000000000E+00  0.11103936725E+04  0.11103936725E+04  0.25500000000E-02 0. -1.
         -2   -1    0    0    0  501 -0.00000000000E+00 -0.00000000000E+00 -0.48172116440E+03  0.48172116441E+03  0.25500000000E-02 0.  1.
    8880023    1    1    2    0    0 -0.51881485159E+03  0.55214861316E+01  0.63399736471E+03  0.10511718231E+04  0.65864270000E+03 0.  0.
    8880022    1    1    2    0    0  0.51881485159E+03 -0.55214861316E+01 -0.53248566072E+01  0.54094301378E+03  0.15294330000E+03 0.  0.
<mgrwt>
<rscale>  0 0.75143787E+03</rscale>
<asrwt>0</asrwt>
<pdfrwt beam="1">  1        2 0.17082979E+00 0.83845664E+03</pdfrwt>
<pdfrwt beam="2">  1       -2 0.74110949E-01 0.83845664E+03</pdfrwt>
<totfact> 0.35513700E+01</totfact>
</mgrwt>
</event>
<event>
 4    5  0.2025789E-007  0.6718225E+03  0.7818608E-02  0.1014389E+00
          2   -1    0    0  501    0  0.00000000000E+00  0.00000000000E+00  0.10576874226E+04  0.10576874226E+04  0.25500000000E-02 0. -1.
         -2   -1    0    0    0  501 -0.00000000000E+00 -0.00000000000E+00 -0.32012601419E+03  0.32012601420E+03  0.25500000000E-02 0.  1.
    8880023    1    1    2    0    0  0.68016861048E+02  0.11361742100E+03  0.89667551449E+03  0.11204340214E+04  0.65864270000E+03 0. -1.
    8880022    1    1    2    0    0 -0.68016861048E+02 -0.11361742100E+03 -0.15911410604E+03  0.25737941545E+03  0.15294330000E+03 0.  0.
<mgrwt>
<rscale>  0 0.49767056E+03</rscale>
<asrwt>0</asrwt>
<pdfrwt beam="1">  1        2 0.16272114E+00 0.67182246E+03</pdfrwt>
<pdfrwt beam="2">  1       -2 0.49250155E-01 0.67182246E+03</pdfrwt>
<totfact> 0.92223682E+01</totfact>
</mgrwt>
</event>
<event>
 4    5  0.2025789E-007  0.9042142E+03  0.7818608E-02  0.9519300E-01
          2   -1    0    0  501    0  0.00000000000E+00  0.00000000000E+00  0.41760698773E+04  0.41760698773E+04  0.25500000000E-02 0. -1.
         -2   -1    0    0    0  501 -0.00000000000E+00 -0.00000000000E+00 -0.25412038803E+03  0.25412038804E+03  0.25500000000E-02 0.  1.
    8880023    1    1    2    0    0  0.57519430403E+03 -0.23009713017E+03  0.36069600086E+04  0.37185701401E+04  0.65864270000E+03 0.  0.
    8880022    1    1    2    0    0 -0.57519430403E+03  0.23009713017E+03  0.31498948062E+03  0.71162012522E+03  0.15294330000E+03 0.  0.
<mgrwt>
<rscale>  0 0.82875747E+03</rscale>
<asrwt>0</asrwt>
<pdfrwt beam="1">  1        2 0.64247223E+00 0.90421424E+03</pdfrwt>
<pdfrwt beam="2">  1       -2 0.39095448E-01 0.90421424E+03</pdfrwt>
<totfact> 0.16309766E+00</totfact>
</mgrwt>
</event>
<event>
 4    5  0.2025789E-007  0.8268352E+03  0.7818608E-02  0.9655522E-01
          2   -1    0    0  501    0  0.00000000000E+00  0.00000000000E+00  0.16290336261E+04  0.16290336261E+04  0.25500000000E-02 0. -1.
         -2   -1    0    0    0  501 -0.00000000000E+00 -0.00000000000E+00 -0.84016819926E+03  0.84016819927E+03  0.25500000000E-02 0.  1.
    8880023    1    1    2    0    0  0.27845183637E+02  0.49907002359E+03  0.14239886962E+04  0.16466330058E+04  0.65864270000E+03 0. -1.
    8880022    1    1    2    0    0 -0.27845183637E+02 -0.49907002359E+03 -0.63512326932E+03  0.82256881958E+03  0.15294330000E+03 0.  0.
<mgrwt>
<rscale>  0 0.73727895E+03</rscale>
<asrwt>0</asrwt>
<pdfrwt beam="1">  1        2 0.25062056E+00 0.82683520E+03</pdfrwt>
<pdfrwt beam="2">  1       -2 0.12925664E+00 0.82683520E+03</pdfrwt>
<totfact> 0.48119283E+00</totfact>
</mgrwt>
</event>
<event>
 4    5  0.2025789E-007  0.1428012E+04  0.7818608E-02  0.8962217E-01
         -2   -1    0    0    0  501 -0.00000000000E+00  0.00000000000E+00  0.31723939849E+04  0.31723939849E+04  0.25500000000E-02 0.  1.
          2   -1    0    0  501    0  0.00000000000E+00 -0.00000000000E+00 -0.12016984857E+04  0.12016984857E+04  0.25500000000E-02 0. -1.
    8880023    1    1    2    0    0  0.43811619991E+03 -0.11888908677E+04 -0.56469207009E+03  0.15356088825E+04  0.65864270000E+03 0. -1.
    8880022    1    1    2    0    0 -0.43811619991E+03  0.11888908677E+04  0.25353875693E+04  0.28384835880E+04  0.15294330000E+03 0.  0.
<mgrwt>
<rscale>  0 0.13884565E+04</rscale>
<asrwt>0</asrwt>
<pdfrwt beam="1">  1        2 0.18487669E+00 0.14280117E+04</pdfrwt>
<pdfrwt beam="2">  1       -2 0.48806061E+00 0.14280117E+04</pdfrwt>
<totfact> 0.35122455E-02</totfact>
</mgrwt>
</event>
<event>
 4    5  0.2025789E-007  0.7713069E+03  0.7818608E-02  0.9776668E-01
          2   -1    0    0  501    0  0.00000000000E+00  0.00000000000E+00  0.89579998878E+03  0.89579998878E+03  0.25500000000E-02 0. -1.
         -2   -1    0    0    0  501 -0.00000000000E+00 -0.00000000000E+00 -0.14767635234E+04  0.14767635234E+04  0.25500000000E-02 0.  1.
    8880023    1    1    2    0    0 -0.40037028616E+03 -0.28420281449E+02  0.68757191287E+03  0.10332809009E+04  0.65864270000E+03 0. -1.
    8880022    1    1    2    0    0  0.40037028616E+03  0.28420281449E+02 -0.12685354475E+04  0.13392826113E+04  0.15294330000E+03 0.  0.
<mgrwt>
<rscale>  0 0.66629828E+03</rscale>
<asrwt>0</asrwt>
<pdfrwt beam="1">  1        2 0.13781538E+00 0.77130687E+03</pdfrwt>
<pdfrwt beam="2">  1       -2 0.22719439E+00 0.77130687E+03</pdfrwt>
<totfact> 0.26922269E+00</totfact>
</mgrwt>
</event>
<event>
 4    5  0.2025789E-007  0.1704382E+04  0.7818608E-02  0.8777358E-01
          2   -1    0    0  501    0  0.00000000000E+00  0.00000000000E+00  0.26074226217E+04  0.26074226217E+04  0.25500000000E-02 0. -1.
         -2   -1    0    0    0  501 -0.00000000000E+00 -0.00000000000E+00 -0.11178019303E+04  0.11178019303E+04  0.25500000000E-02 0.  1.
    8880023    1    1    2    0    0 -0.15210584745E+03  0.15645999377E+04  0.26106110122E+03  0.17242599162E+04  0.65864270000E+03 0. -1.
    8880022    1    1    2    0    0  0.15210584745E+03 -0.15645999377E+04  0.12285595902E+04  0.20009646358E+04  0.15294330000E+03 0.  0.
<mgrwt>
<rscale>  0 0.16722386E+04</rscale>
<asrwt>0</asrwt>
<pdfrwt beam="1">  1        2 0.40114194E+00 0.17043824E+04</pdfrwt>
<pdfrwt beam="2">  1       -2 0.17196953E+00 0.17043824E+04</pdfrwt>
<totfact> 0.57409393E-01</totfact>
</mgrwt>
</event>
<event>
 4    5  0.2025789E-007  0.7518030E+03  0.7818608E-02  0.9826810E-01
         -2   -1    0    0    0  501 -0.00000000000E+00  0.00000000000E+00  0.25213221478E+03  0.25213221479E+03  0.25500000000E-02 0.  1.
          2   -1    0    0  501    0  0.00000000000E+00 -0.00000000000E+00 -0.23411691328E+04  0.23411691328E+04  0.25500000000E-02 0. -1.
    8880023    1    1    2    0    0  0.20465272420E+03  0.29919033903E+03 -0.20667459389E+04  0.21992377268E+04  0.65864270000E+03 0. -1.
    8880022    1    1    2    0    0 -0.20465272420E+03 -0.29919033903E+03 -0.22290979087E+02  0.39406362083E+03  0.15294330000E+03 0.  0.
<mgrwt>
<rscale>  0 0.63943390E+03</rscale>
<asrwt>0</asrwt>
<pdfrwt beam="1">  1        2 0.36017985E+00 0.75180303E+03</pdfrwt>
<pdfrwt beam="2">  1       -2 0.38789573E-01 0.75180303E+03</pdfrwt>
<totfact> 0.28054402E+01</totfact>
</mgrwt>
</event>
<event>
 4    5  0.2570608E-007  0.1004816E+04  0.7818608E-02  0.9375284E-01
         -2   -1    0    0    0  501 -0.00000000000E+00  0.00000000000E+00  0.20311674966E+04  0.20311674966E+04  0.25500000000E-02 0.  1.
          2   -1    0    0  501    0  0.00000000000E+00 -0.00000000000E+00 -0.25493058508E+04  0.25493058508E+04  0.25500000000E-02 0. -1.
    8880023    1    1    2    0    0 -0.69474395605E+03  0.30524798172E+03 -0.23695221593E+04  0.25737697964E+04  0.65864270000E+03 0. -1.
    8880022    1    1    2    0    0  0.69474395605E+03 -0.30524798172E+03  0.18513838052E+04  0.20067035511E+04  0.15294330000E+03 0.  0.
<mgrwt>
<rscale>  0 0.94137970E+03</rscale>
<asrwt>0</asrwt>
<pdfrwt beam="1">  1        2 0.39220090E+00 0.10048163E+04</pdfrwt>
<pdfrwt beam="2">  1       -2 0.31248731E+00 0.10048163E+04</pdfrwt>
<totfact> 0.88581148E-02</totfact>
</mgrwt>
</event>
<event>
 4    5  0.2025789E-007  0.1154002E+04  0.7818608E-02  0.9203187E-01
         -2   -1    0    0    0  501 -0.00000000000E+00  0.00000000000E+00  0.14210192246E+04  0.14210192246E+04  0.25500000000E-02 0.  1.
          2   -1    0    0  501    0  0.00000000000E+00 -0.00000000000E+00 -0.29501229446E+04  0.29501229446E+04  0.25500000000E-02 0. -1.
    8880023    1    1    2    0    0 -0.65808433697E+03  0.68178756689E+03 -0.26530228568E+04  0.28931383939E+04  0.65864270000E+03 0.  0.
    8880022    1    1    2    0    0  0.65808433697E+03 -0.68178756689E+03  0.11239191368E+04  0.14780037754E+04  0.15294330000E+03 0.  0.
<mgrwt>
<rscale>  0 0.11020593E+04</rscale>
<asrwt>0</asrwt>
<pdfrwt beam="1">  1        2 0.45386507E+00 0.11540015E+04</pdfrwt>
<pdfrwt beam="2">  1       -2 0.21861834E+00 0.11540015E+04</pdfrwt>
<totfact> 0.18673079E-01</totfact>
</mgrwt>
</event>
<event>
 4    5  0.2025789E-007  0.9737548E+03  0.7818608E-02  0.9416730E-01
          2   -1    0    0  501    0  0.00000000000E+00  0.00000000000E+00  0.13433813205E+04  0.13433813205E+04  0.25500000000E-02 0. -1.
         -2   -1    0    0    0  501 -0.00000000000E+00 -0.00000000000E+00 -0.11798258555E+04  0.11798258555E+04  0.25500000000E-02 0.  1.
    8880023    1    1    2    0    0  0.52279605667E+03 -0.49099127817E+03  0.10102130371E+04  0.14031139436E+04  0.65864270000E+03 0.  0.
    8880022    1    1    2    0    0 -0.52279605667E+03  0.49099127817E+03 -0.84665757209E+03  0.11200932325E+04  0.15294330000E+03 0.  0.
<mgrwt>
<rscale>  0 0.90711586E+03</rscale>
<asrwt>0</asrwt>
<pdfrwt beam="1">  1        2 0.20667405E+00 0.97375477E+03</pdfrwt>
<pdfrwt beam="2">  1       -2 0.18151167E+00 0.97375477E+03</pdfrwt>
<totfact> 0.27478859E+00</totfact>
</mgrwt>
</event>
<event>
 4    5  0.2025789E-007  0.1073429E+04  0.7818608E-02  0.9291232E-01
         -2   -1    0    0    0  501 -0.00000000000E+00  0.00000000000E+00  0.34595677812E+03  0.34595677813E+03  0.25500000000E-02 0.  1.
          2   -1    0    0  501    0  0.00000000000E+00 -0.00000000000E+00 -0.28016615291E+04  0.28016615291E+04  0.25500000000E-02 0. -1.
    8880023    1    1    2    0    0  0.51089705285E+03 -0.67633154270E+03 -0.10671092623E+04  0.15135958966E+04  0.65864270000E+03 0. -1.
    8880022    1    1    2    0    0 -0.51089705285E+03  0.67633154270E+03 -0.13885954886E+04  0.16340224106E+04  0.15294330000E+03 0.  0.
<mgrwt>
<rscale>  0 0.10159404E+04</rscale>
<asrwt>0</asrwt>
<pdfrwt beam="1">  1        2 0.43102484E+00 0.10734293E+04</pdfrwt>
<pdfrwt beam="2">  1       -2 0.53224121E-01 0.10734293E+04</pdfrwt>
<totfact> 0.77462519E+00</totfact>
</mgrwt>
</event>
<event>
 4    5  0.2025789E-007  0.9026143E+03  0.7818608E-02  0.9521848E-01
          2   -1    0    0  501    0  0.00000000000E+00  0.00000000000E+00  0.85024295446E+03  0.85024295446E+03  0.25500000000E-02 0. -1.
         -2   -1    0    0    0  501 -0.00000000000E+00 -0.00000000000E+00 -0.17534616479E+04  0.17534616479E+04  0.25500000000E-02 0.  1.
    8880023    1    1    2    0    0 -0.14696884591E+03 -0.59941842996E+03  0.52227938729E+03  0.10428270521E+04  0.65864270000E+03 0.  0.
    8880022    1    1    2    0    0  0.14696884591E+03  0.59941842996E+03 -0.14254980807E+04  0.15608775503E+04  0.15294330000E+03 0.  0.
<mgrwt>
<rscale>  0 0.82692058E+03</rscale>
<asrwt>0</asrwt>
<pdfrwt beam="1">  1        2 0.13080661E+00 0.90261426E+03</pdfrwt>
<pdfrwt beam="2">  1       -2 0.26976333E+00 0.90261426E+03</pdfrwt>
<totfact> 0.15626263E+00</totfact>
</mgrwt>
</event>
<event>
 4    5  0.2025789E-007  0.1122946E+04  0.7818608E-02  0.9235929E-01
          2   -1    0    0  501    0  0.00000000000E+00  0.00000000000E+00  0.16558693313E+04  0.16558693313E+04  0.25500000000E-02 0. -1.
         -2   -1    0    0    0  501 -0.00000000000E+00 -0.00000000000E+00 -0.12221492546E+04  0.12221492546E+04  0.25500000000E-02 0.  1.
    8880023    1    1    2    0    0 -0.27130173985E+03  0.86809676973E+03 -0.77001168200E+03  0.13615890835E+04  0.65864270000E+03 0.  1.
    8880022    1    1    2    0    0  0.27130173985E+03 -0.86809676973E+03  0.12037317587E+04  0.15164295024E+04  0.15294330000E+03 0.  0.
<mgrwt>
<rscale>  0 0.10690154E+04</rscale>
<asrwt>0</asrwt>
<pdfrwt beam="1">  1        2 0.25474913E+00 0.11229456E+04</pdfrwt>
<pdfrwt beam="2">  1       -2 0.18802296E+00 0.11229456E+04</pdfrwt>
<totfact> 0.16237133E+00</totfact>
</mgrwt>
</event>
<event>
 4    5  0.2025789E-007  0.9837791E+03  0.7818608E-02  0.9403094E-01
         -2   -1    0    0    0  501 -0.00000000000E+00  0.00000000000E+00  0.25352742875E+03  0.25352742877E+03  0.25500000000E-02 0.  1.
          2   -1    0    0  501    0  0.00000000000E+00 -0.00000000000E+00 -0.37988318974E+04  0.37988318974E+04  0.25500000000E-02 0. -1.
    8880023    1    1    2    0    0 -0.57099450774E+03 -0.45604428281E+03 -0.29108391781E+04  0.30725894687E+04  0.65864270000E+03 0.  0.
    8880022    1    1    2    0    0  0.57099450774E+03  0.45604428281E+03 -0.63446529048E+03  0.97976985746E+03  0.15294330000E+03 0.  0.
<mgrwt>
<rscale>  0 0.91821490E+03</rscale>
<asrwt>0</asrwt>
<pdfrwt beam="1">  1        2 0.58443564E+00 0.98377910E+03</pdfrwt>
<pdfrwt beam="2">  1       -2 0.39004222E-01 0.98377910E+03</pdfrwt>
<totfact> 0.32102702E+00</totfact>
</mgrwt>
</event>
<event>
 4    5  0.2025789E-007  0.7257241E+03  0.7818608E-02  0.9903673E-01
          2   -1    0    0  501    0  0.00000000000E+00  0.00000000000E+00  0.12231207139E+04  0.12231207139E+04  0.25500000000E-02 0. -1.
         -2   -1    0    0    0  501 -0.00000000000E+00 -0.00000000000E+00 -0.90444620066E+03  0.90444620066E+03  0.25500000000E-02 0.  1.
    8880023    1    1    2    0    0 -0.11794007574E+03 -0.28099003248E+03  0.10755182930E+04  0.12974648607E+04  0.65864270000E+03 0. -1.
    8880022    1    1    2    0    0  0.11794007574E+03  0.28099003248E+03 -0.75684377979E+03  0.83010205386E+03  0.15294330000E+03 0.  0.
<mgrwt>
<rscale>  0 0.60083608E+03</rscale>
<asrwt>0</asrwt>
<pdfrwt beam="1">  1        2 0.18817242E+00 0.72572410E+03</pdfrwt>
<pdfrwt beam="2">  1       -2 0.13914557E+00 0.72572410E+03</pdfrwt>
<totfact> 0.68589404E+00</totfact>
</mgrwt>
</event>
<event>
 4    5  0.2025789E-007  0.1173581E+04  0.7818608E-02  0.9183241E-01
          2   -1    0    0  501    0  0.00000000000E+00  0.00000000000E+00  0.20062027202E+04  0.20062027202E+04  0.25500000000E-02 0. -1.
         -2   -1    0    0    0  501 -0.00000000000E+00 -0.00000000000E+00 -0.75426725395E+03  0.75426725396E+03  0.25500000000E-02 0.  1.
    8880023    1    1    2    0    0  0.77755047092E+03 -0.58214874081E+03  0.13303954478E+04  0.17740473908E+04  0.65864270000E+03 0.  0.
    8880022    1    1    2    0    0 -0.77755047092E+03  0.58214874081E+03 -0.78459981468E+02  0.98642258336E+03  0.15294330000E+03 0.  0.
<mgrwt>
<rscale>  0 0.11228092E+04</rscale>
<asrwt>0</asrwt>
<pdfrwt beam="1">  1        2 0.30864657E+00 0.11735809E+04</pdfrwt>
<pdfrwt beam="2">  1       -2 0.11604112E+00 0.11735809E+04</pdfrwt>
<totfact> 0.37450381E+00</totfact>
</mgrwt>
</event>
<event>
 4    5  0.2025789E-007  0.7312961E+03  0.7818608E-02  0.9886067E-01
         -2   -1    0    0    0  501 -0.00000000000E+00  0.00000000000E+00  0.79387380221E+03  0.79387380221E+03  0.25500000000E-02 0.  1.
          2   -1    0    0  501    0  0.00000000000E+00 -0.00000000000E+00 -0.13113988846E+04  0.13113988846E+04  0.25500000000E-02 0. -1.
    8880023    1    1    2    0    0  0.24780907599E+03 -0.19893338774E+03 -0.11606346077E+04  0.13718114775E+04  0.65864270000E+03 0. -1.
    8880022    1    1    2    0    0 -0.24780907599E+03  0.19893338774E+03  0.64310952536E+03  0.73346120928E+03  0.15294330000E+03 0.  0.
<mgrwt>
<rscale>  0 0.60941313E+03</rscale>
<asrwt>0</asrwt>
<pdfrwt beam="1">  1        2 0.20175367E+00 0.73129614E+03</pdfrwt>
<pdfrwt beam="2">  1       -2 0.12213443E+00 0.73129614E+03</pdfrwt>
<totfact> 0.84737891E+00</totfact>
</mgrwt>
</event>
<event>
 4    5  0.2025789E-007  0.1396411E+04  0.7818608E-02  0.8986476E-01
          2   -1    0    0  501    0  0.00000000000E+00  0.00000000000E+00  0.26033194305E+04  0.26033194305E+04  0.25500000000E-02 0. -1.
         -2   -1    0    0    0  501 -0.00000000000E+00 -0.00000000000E+00 -0.12572950945E+04  0.12572950945E+04  0.25500000000E-02 0.  1.
    8880023    1    1    2    0    0 -0.57862887327E+03  0.10868957371E+04  0.20145447215E+04  0.24511944757E+04  0.65864270000E+03 0.  0.
    8880022    1    1    2    0    0  0.57862887327E+03 -0.10868957371E+04 -0.66852038558E+03  0.14094200493E+04  0.15294330000E+03 0.  0.
<mgrwt>
<rscale>  0 0.13557638E+04</rscale>
<asrwt>0</asrwt>
<pdfrwt beam="1">  1        2 0.40051068E+00 0.13964111E+04</pdfrwt>
<pdfrwt beam="2">  1       -2 0.19343002E+00 0.13964111E+04</pdfrwt>
<totfact> 0.42407099E-01</totfact>
</mgrwt>
</event>
<event>
 4    5  0.2025789E-007  0.9271419E+03  0.7818608E-02  0.9483794E-01
         -2   -1    0    0    0  501 -0.00000000000E+00  0.00000000000E+00  0.73925733049E+03  0.73925733049E+03  0.25500000000E-02 0.  1.
          2   -1    0    0  501    0  0.00000000000E+00 -0.00000000000E+00 -0.24852623735E+04  0.24852623735E+04  0.25500000000E-02 0. -1.
    8880023    1    1    2    0    0 -0.45427143631E+03 -0.46842218573E+03 -0.22185426333E+04  0.24044798822E+04  0.65864270000E+03 0. -1.
    8880022    1    1    2    0    0  0.45427143631E+03  0.46842218573E+03  0.47253759033E+03  0.82003982173E+03  0.15294330000E+03 0.  0.
<mgrwt>
<rscale>  0 0.85489234E+03</rscale>
<asrwt>0</asrwt>
<pdfrwt beam="1">  1        2 0.38234805E+00 0.92714189E+03</pdfrwt>
<pdfrwt beam="2">  1       -2 0.11373190E+00 0.92714189E+03</pdfrwt>
<totfact> 0.21903171E+00</totfact>
</mgrwt>
</event>
<event>
 4    5  0.2025789E-007  0.1096507E+04  0.7818608E-02  0.9264956E-01
          2   -1    0    0  501    0  0.00000000000E+00  0.00000000000E+00  0.20632717979E+04  0.20632717979E+04  0.25500000000E-02 0. -1.
         -2   -1    0    0    0  501 -0.00000000000E+00 -0.00000000000E+00 -0.93364655023E+03  0.93364655023E+03  0.25500000000E-02 0.  1.
    8880023    1    1    2    0    0 -0.87628682575E+03 -0.25253814287E+02  0.16386906705E+04  0.19717083141E+04  0.65864270000E+03 0. -1.
    8880022    1    1    2    0    0  0.87628682575E+03  0.25253814287E+02 -0.50906542283E+03  0.10252100340E+04  0.15294330000E+03 0.  0.
<mgrwt>
<rscale>  0 0.10407412E+04</rscale>
<asrwt>0</asrwt>
<pdfrwt beam="1">  1        2 0.31742643E+00 0.10965065E+04</pdfrwt>
<pdfrwt beam="2">  1       -2 0.14363793E+00 0.10965065E+04</pdfrwt>
<totfact> 0.20407435E+00</totfact>
</mgrwt>
</event>
<event>
 4    5  0.2025789E-007  0.1241958E+04  0.7818608E-02  0.9117377E-01
         -2   -1    0    0    0  501 -0.00000000000E+00  0.00000000000E+00  0.13845157852E+04  0.13845157852E+04  0.25500000000E-02 0.  1.
          2   -1    0    0  501    0  0.00000000000E+00 -0.00000000000E+00 -0.26162350508E+04  0.26162350508E+04  0.25500000000E-02 0. -1.
    8880023    1    1    2    0    0  0.35574408777E+03 -0.99100780917E+03 -0.22230964162E+04  0.25464913539E+04  0.65864270000E+03 0.  0.
    8880022    1    1    2    0    0 -0.35574408777E+03  0.99100780917E+03  0.99137715052E+03  0.14542594821E+04  0.15294330000E+03 0.  0.
<mgrwt>
<rscale>  0 0.11948492E+04</rscale>
<asrwt>0</asrwt>
<pdfrwt beam="1">  1        2 0.40249770E+00 0.12419583E+04</pdfrwt>
<pdfrwt beam="2">  1       -2 0.21300243E+00 0.12419583E+04</pdfrwt>
<totfact> 0.31671296E-01</totfact>
</mgrwt>
</event>
<event>
 4    5  0.2431653E-007  0.1159668E+04  0.7818608E-02  0.9197361E-01
         -2   -1    0    0    0  501 -0.00000000000E+00  0.00000000000E+00  0.40406185304E+04  0.40406185304E+04  0.25500000000E-02 0.  1.
          2   -1    0    0  501    0  0.00000000000E+00 -0.00000000000E+00 -0.16431806194E+04  0.16431806194E+04  0.25500000000E-02 0. -1.
    8880023    1    1    2    0    0 -0.67848463958E+03  0.67132602846E+03 -0.13696583239E+04  0.17946571186E+04  0.65864270000E+03 0. -1.
    8880022    1    1    2    0    0  0.67848463958E+03 -0.67132602846E+03  0.37670962349E+04  0.38891420312E+04  0.15294330000E+03 0.  0.
<mgrwt>
<rscale>  0 0.11080710E+04</rscale>
<asrwt>0</asrwt>
<pdfrwt beam="1">  1        2 0.25279702E+00 0.11596682E+04</pdfrwt>
<pdfrwt beam="2">  1       -2 0.62163362E+00 0.11596682E+04</pdfrwt>
<totfact> 0.42400927E-03</totfact>
</mgrwt>
</event>
<event>
 4    5  0.2025789E-007  0.7169920E+03  0.7818608E-02  0.9932898E-01
         -2   -1    0    0    0  501 -0.00000000000E+00  0.00000000000E+00  0.11464566675E+03  0.11464566678E+03  0.25500000000E-02 0.  1.
          2   -1    0    0  501    0  0.00000000000E+00 -0.00000000000E+00 -0.39695546507E+04  0.39695546507E+04  0.25500000000E-02 0. -1.
    8880023    1    1    2    0    0  0.26389549124E+03  0.10308521382E+03 -0.36077609265E+04  0.36783170745E+04  0.65864270000E+03 0.  0.
    8880022    1    1    2    0    0 -0.26389549124E+03 -0.10308521382E+03 -0.24714805743E+03  0.40588324296E+03  0.15294330000E+03 0.  0.
<mgrwt>
<rscale>  0 0.58693047E+03</rscale>
<asrwt>0</asrwt>
<pdfrwt beam="1">  1        2 0.61070061E+00 0.71699205E+03</pdfrwt>
<pdfrwt beam="2">  1       -2 0.17637798E-01 0.71699205E+03</pdfrwt>
<totfact> 0.10647041E+01</totfact>
</mgrwt>
</event>
<event>
 4    5  0.2025789E-007  0.7053043E+03  0.7818608E-02  0.9975870E-01
         -2   -1    0    0    0  501 -0.00000000000E+00  0.00000000000E+00  0.31645648397E+03  0.31645648398E+03  0.25500000000E-02 0.  1.
          2   -1    0    0  501    0  0.00000000000E+00 -0.00000000000E+00 -0.26175194030E+04  0.26175194030E+04  0.25500000000E-02 0. -1.
    8880023    1    1    2    0    0 -0.20540789256E+01 -0.25226917476E+03 -0.24871171555E+04  0.25851897237E+04  0.65864270000E+03 0. -1.
    8880022    1    1    2    0    0  0.20540789256E+01  0.25226917476E+03  0.18605423651E+03  0.34878616330E+03  0.15294330000E+03 0.  0.
<mgrwt>
<rscale>  0 0.56721084E+03</rscale>
<asrwt>0</asrwt>
<pdfrwt beam="1">  1        2 0.40269528E+00 0.70530430E+03</pdfrwt>
<pdfrwt beam="2">  1       -2 0.48685615E-01 0.70530430E+03</pdfrwt>
<totfact> 0.12575011E+01</totfact>
</mgrwt>
</event>
<event>
 4    5  0.2025789E-007  0.9594986E+03  0.7818608E-02  0.9436577E-01
         -2   -1    0    0    0  501 -0.00000000000E+00  0.00000000000E+00  0.46332261685E+03  0.46332261685E+03  0.25500000000E-02 0.  1.
          2   -1    0    0  501    0  0.00000000000E+00 -0.00000000000E+00 -0.23030264469E+04  0.23030264469E+04  0.25500000000E-02 0. -1.
    8880023    1    1    2    0    0 -0.46629756842E+03  0.51903178971E+03 -0.18133645973E+04  0.20515673984E+04  0.65864270000E+03 0. -1.
    8880022    1    1    2    0    0  0.46629756842E+03 -0.51903178971E+03 -0.26339232808E+02  0.71478166544E+03  0.15294330000E+03 0.  0.
<mgrwt>
<rscale>  0 0.89125680E+03</rscale>
<asrwt>0</asrwt>
<pdfrwt beam="1">  1        2 0.35431175E+00 0.95949863E+03</pdfrwt>
<pdfrwt beam="2">  1       -2 0.71280404E-01 0.95949863E+03</pdfrwt>
<totfact> 0.81684786E+00</totfact>
</mgrwt>
</event>
<event>
 4    5  0.2025789E-007  0.6844117E+03  0.7818608E-02  0.1006931E+00
          2   -1    0    0  501    0  0.00000000000E+00  0.00000000000E+00  0.13680336444E+04  0.13680336444E+04  0.25500000000E-02 0. -1.
         -2   -1    0    0    0  501 -0.00000000000E+00 -0.00000000000E+00 -0.10872800266E+04  0.10872800266E+04  0.25500000000E-02 0.  1.
    8880023    1    1    2    0    0  0.18586628721E+03 -0.79342647261E+01  0.12670272911E+04  0.14400616625E+04  0.65864270000E+03 0. -1.
    8880022    1    1    2    0    0 -0.18586628721E+03  0.79342647261E+01 -0.98627367326E+03  0.10152520085E+04  0.15294330000E+03 0.  0.
<mgrwt>
<rscale>  0 0.52712961E+03</rscale>
<asrwt>0</asrwt>
<pdfrwt beam="1">  1        2 0.21046672E+00 0.68441174E+03</pdfrwt>
<pdfrwt beam="2">  1       -2 0.16727385E+00 0.68441174E+03</pdfrwt>
<totfact> 0.34888399E+00</totfact>
</mgrwt>
</event>
<event>
 4    5  0.2025789E-007  0.8963509E+03  0.7818608E-02  0.9531915E-01
          2   -1    0    0  501    0  0.00000000000E+00  0.00000000000E+00  0.24716548209E+04  0.24716548209E+04  0.25500000000E-02 0. -1.
         -2   -1    0    0    0  501 -0.00000000000E+00 -0.00000000000E+00 -0.54502282120E+03  0.54502282120E+03  0.25500000000E-02 0.  1.
    8880023    1    1    2    0    0 -0.59925453789E+03 -0.10260959676E+03  0.21671505306E+04  0.23452049716E+04  0.65864270000E+03 0. -1.
    8880022    1    1    2    0    0  0.59925453789E+03  0.10260959676E+03 -0.24051853085E+03  0.67147267050E+03  0.15294330000E+03 0.  0.
<mgrwt>
<rscale>  0 0.81971193E+03</rscale>
<asrwt>0</asrwt>
<pdfrwt beam="1">  1        2 0.38025459E+00 0.89635090E+03</pdfrwt>
<pdfrwt beam="2">  1       -2 0.83849665E-01 0.89635090E+03</pdfrwt>
<totfact> 0.46020187E+00</totfact>
</mgrwt>
</event>
<event>
 4    5  0.2025789E-007  0.1047781E+04  0.7818608E-02  0.9321554E-01
         -2   -1    0    0    0  501 -0.00000000000E+00  0.00000000000E+00  0.10971796211E+04  0.10971796211E+04  0.25500000000E-02 0.  1.
          2   -1    0    0  501    0  0.00000000000E+00 -0.00000000000E+00 -0.29652572190E+04  0.29652572190E+04  0.25500000000E-02 0. -1.
    8880023    1    1    2    0    0  0.36414620353E+03  0.72899358137E+03 -0.26949550033E+04  0.28914748443E+04  0.65864270000E+03 0. -1.
    8880022    1    1    2    0    0 -0.36414620353E+03 -0.72899358137E+03  0.82687740540E+03  0.11709619959E+04  0.15294330000E+03 0.  0.
<mgrwt>
<rscale>  0 0.98822539E+03</rscale>
<asrwt>0</asrwt>
<pdfrwt beam="1">  1        2 0.45619341E+00 0.10477807E+04</pdfrwt>
<pdfrwt beam="2">  1       -2 0.16879687E+00 0.10477807E+04</pdfrwt>
<totfact> 0.40076490E-01</totfact>
</mgrwt>
</event>
<event>
 4    5  0.2025789E-007  0.6783581E+03  0.7818608E-02  0.1010268E+00
         -2   -1    0    0    0  501 -0.00000000000E+00  0.00000000000E+00  0.13084253538E+03  0.13084253541E+03  0.25500000000E-02 0.  1.
          2   -1    0    0  501    0  0.00000000000E+00 -0.00000000000E+00 -0.15713869875E+04  0.15713869875E+04  0.25500000000E-02 0. -1.
    8880023    1    1    2    0    0  0.13867293435E+02 -0.16176262867E+03 -0.11603992879E+04  0.13441339827E+04  0.65864270000E+03 0. -1.
    8880022    1    1    2    0    0 -0.13867293435E+02  0.16176262867E+03 -0.28014516427E+03  0.35809554024E+03  0.15294330000E+03 0. -1.
<mgrwt>
<rscale>  0 0.51368228E+03</rscale>
<asrwt>0</asrwt>
<pdfrwt beam="1">  1        2 0.24175183E+00 0.67835806E+03</pdfrwt>
<pdfrwt beam="2">  1       -2 0.20129622E-01 0.67835806E+03</pdfrwt>
<totfact> 0.24916903E+02</totfact>
</mgrwt>
</event>
<event>
 4    5  0.2025789E-007  0.8535060E+03  0.7818608E-02  0.9605221E-01
         -2   -1    0    0    0  501 -0.00000000000E+00  0.00000000000E+00  0.21426031436E+04  0.21426031436E+04  0.25500000000E-02 0.  1.
          2   -1    0    0  501    0  0.00000000000E+00 -0.00000000000E+00 -0.86192253934E+03  0.86192253934E+03  0.25500000000E-02 0. -1.
    8880023    1    1    2    0    0  0.49966271244E+03  0.21213063136E+03 -0.59856966156E+03  0.10424768952E+04  0.65864270000E+03 0.  0.
    8880022    1    1    2    0    0 -0.49966271244E+03 -0.21213063136E+03  0.18792502658E+04  0.19620487878E+04  0.15294330000E+03 0.  0.
<mgrwt>
<rscale>  0 0.76951574E+03</rscale>
<asrwt>0</asrwt>
<pdfrwt beam="1">  1        2 0.13260347E+00 0.85350597E+03</pdfrwt>
<pdfrwt beam="2">  1       -2 0.32963125E+00 0.85350597E+03</pdfrwt>
<totfact> 0.67086276E-01</totfact>
</mgrwt>
</event>
<event>
 4    5  0.2025789E-007  0.8846297E+03  0.7818608E-02  0.9551170E-01
         -2   -1    0    0    0  501 -0.00000000000E+00  0.00000000000E+00  0.65285868632E+03  0.65285868633E+03  0.25500000000E-02 0.  1.
          2   -1    0    0  501    0  0.00000000000E+00 -0.00000000000E+00 -0.13329556112E+04  0.13329556112E+04  0.25500000000E-02 0. -1.
    8880023    1    1    2    0    0  0.14420115883E+03  0.57268277663E+03 -0.96792739845E+03  0.13112792196E+04  0.65864270000E+03 0. -1.
    8880022    1    1    2    0    0 -0.14420115883E+03 -0.57268277663E+03  0.28783047354E+03  0.67453507794E+03  0.15294330000E+03 0.  0.
<mgrwt>
<rscale>  0 0.80614111E+03</rscale>
<asrwt>0</asrwt>
<pdfrwt beam="1">  1        2 0.20507009E+00 0.88462972E+03</pdfrwt>
<pdfrwt beam="2">  1       -2 0.10043980E+00 0.88462972E+03</pdfrwt>
<totfact> 0.13005968E+01</totfact>
</mgrwt>
</event>
<event>
 4    5  0.2025789E-007  0.9714744E+03  0.7818608E-02  0.9419868E-01
          2   -1    0    0  501    0  0.00000000000E+00  0.00000000000E+00  0.15985310673E+04  0.15985310673E+04  0.25500000000E-02 0. -1.
         -2   -1    0    0    0  501 -0.00000000000E+00 -0.00000000000E+00 -0.98394038108E+03  0.98394038108E+03  0.25500000000E-02 0.  1.
    8880023    1    1    2    0    0 -0.20802505152E+03  0.68313820157E+03  0.12715295596E+04  0.16001718195E+04  0.65864270000E+03 0.  0.
    8880022    1    1    2    0    0  0.20802505152E+03 -0.68313820157E+03 -0.65693887343E+03  0.98229962890E+03  0.15294330000E+03 0.  0.
<mgrwt>
<rscale>  0 0.90458508E+03</rscale>
<asrwt>0</asrwt>
<pdfrwt beam="1">  1        2 0.24592786E+00 0.97147436E+03</pdfrwt>
<pdfrwt beam="2">  1       -2 0.15137544E+00 0.97147436E+03</pdfrwt>
<totfact> 0.32572755E+00</totfact>
</mgrwt>
</event>
<event>
 4    5  0.2025789E-007  0.1017923E+04  0.7818608E-02  0.9358475E-01
          2   -1    0    0  501    0  0.00000000000E+00  0.00000000000E+00  0.13704063211E+04  0.13704063211E+04  0.25500000000E-02 0. -1.
         -2   -1    0    0    0  501 -0.00000000000E+00 -0.00000000000E+00 -0.19436566233E+04  0.19436566233E+04  0.25500000000E-02 0.  1.
    8880023    1    1    2    0    0  0.25178819460E+03 -0.73413910010E+03  0.10782842438E+04  0.14828569148E+04  0.65864270000E+03 0. -1.
    8880022    1    1    2    0    0 -0.25178819460E+03  0.73413910010E+03 -0.16515345459E+04  0.18312060296E+04  0.15294330000E+03 0.  0.
<mgrwt>
<rscale>  0 0.95573239E+03</rscale>
<asrwt>0</asrwt>
<pdfrwt beam="1">  1        2 0.21083174E+00 0.10179232E+04</pdfrwt>
<pdfrwt beam="2">  1       -2 0.29902410E+00 0.10179232E+04</pdfrwt>
<totfact> 0.48566531E-01</totfact>
</mgrwt>
</event>
<event>
 4    5  0.2025789E-007  0.7845906E+03  0.7818608E-02  0.9745162E-01
          2   -1    0    0  501    0  0.00000000000E+00  0.00000000000E+00  0.18329910256E+04  0.18329910256E+04  0.25500000000E-02 0. -1.
         -2   -1    0    0    0  501 -0.00000000000E+00 -0.00000000000E+00 -0.46934770093E+03  0.46934770093E+03  0.25500000000E-02 0.  1.
    8880023    1    1    2    0    0  0.40954289297E+03  0.11851953943E+03  0.16068902786E+04  0.17882054792E+04  0.65864270000E+03 0. -1.
    8880022    1    1    2    0    0 -0.40954289297E+03 -0.11851953943E+03 -0.24324695387E+03  0.51413324731E+03  0.15294330000E+03 0.  0.
<mgrwt>
<rscale>  0 0.68390372E+03</rscale>
<asrwt>0</asrwt>
<pdfrwt beam="1">  1        2 0.28199862E+00 0.78459064E+03</pdfrwt>
<pdfrwt beam="2">  1       -2 0.72207340E-01 0.78459064E+03</pdfrwt>
<totfact> 0.14741740E+01</totfact>
</mgrwt>
</event>
<event>
 4    5  0.2025789E-007  0.1517865E+04  0.7818608E-02  0.8897123E-01
          2   -1    0    0  501    0  0.00000000000E+00  0.00000000000E+00  0.14033843194E+04  0.14033843194E+04  0.25500000000E-02 0. -1.
         -2   -1    0    0    0  501 -0.00000000000E+00 -0.00000000000E+00 -0.24900743038E+04  0.24900743038E+04  0.25500000000E-02 0.  1.
    8880023    1    1    2    0    0  0.11726106307E+04  0.70362530413E+03  0.67237316674E+03  0.16601205201E+04  0.65864270000E+03 0.  0.
    8880022    1    1    2    0    0 -0.11726106307E+04 -0.70362530413E+03 -0.17590631511E+04  0.22333381030E+04  0.15294330000E+03 0.  0.
<mgrwt>
<rscale>  0 0.14810950E+04</rscale>
<asrwt>0</asrwt>
<pdfrwt beam="1">  1        2 0.21590528E+00 0.15178651E+04</pdfrwt>
<pdfrwt beam="2">  1       -2 0.38308835E+00 0.15178651E+04</pdfrwt>
<totfact> 0.12972829E-01</totfact>
</mgrwt>
</event>
<event>
 4    5  0.2025789E-007  0.8543741E+03  0.7818608E-02  0.9603650E-01
          2   -1    0    0  501    0  0.00000000000E+00  0.00000000000E+00  0.21631584059E+04  0.21631584059E+04  0.25500000000E-02 0. -1.
         -2   -1    0    0    0  501 -0.00000000000E+00 -0.00000000000E+00 -0.27336270362E+03  0.27336270363E+03  0.25500000000E-02 0.  1.
    8880023    1    1    2    0    0 -0.29890758221E+03  0.45475169430E+03  0.15690647437E+04  0.17865943083E+04  0.65864270000E+03 0. -1.
    8880022    1    1    2    0    0  0.29890758221E+03 -0.45475169430E+03  0.32073095856E+03  0.64992680123E+03  0.15294330000E+03 0.  1.
<mgrwt>
<rscale>  0 0.77055049E+03</rscale>
<asrwt>0</asrwt>
<pdfrwt beam="1">  1        2 0.33279360E+00 0.85437407E+03</pdfrwt>
<pdfrwt beam="2">  1       -2 0.42055801E-01 0.85437407E+03</pdfrwt>
<totfact> 0.29669466E+01</totfact>
</mgrwt>
</event>
<event>
 4    5  0.2025789E-007  0.1792716E+04  0.7818608E-02  0.8726576E-01
         -2   -1    0    0    0  501 -0.00000000000E+00  0.00000000000E+00  0.91244523117E+03  0.91244523117E+03  0.25500000000E-02 0.  1.
          2   -1    0    0  501    0  0.00000000000E+00 -0.00000000000E+00 -0.51533361068E+04  0.51533361068E+04  0.25500000000E-02 0. -1.
    8880023    1    1    2    0    0 -0.16632886046E+04  0.11615885921E+03 -0.39880528490E+04  0.43724589872E+04  0.65864270000E+03 0.  0.
    8880022    1    1    2    0    0  0.16632886046E+04 -0.11615885921E+03 -0.25283802665E+03  0.16933223507E+04  0.15294330000E+03 0.  0.
<mgrwt>
<rscale>  0 0.17623598E+04</rscale>
<asrwt>0</asrwt>
<pdfrwt beam="1">  1        2 0.79282092E+00 0.17927164E+04</pdfrwt>
<pdfrwt beam="2">  1       -2 0.14037619E+00 0.17927164E+04</pdfrwt>
<totfact> 0.72545386E-03</totfact>
</mgrwt>
</event>
<event>
 4    5  0.2025789E-007  0.9699877E+03  0.7818608E-02  0.9421921E-01
         -2   -1    0    0    0  501 -0.00000000000E+00  0.00000000000E+00  0.15153476025E+04  0.15153476025E+04  0.25500000000E-02 0.  1.
          2   -1    0    0  501    0  0.00000000000E+00 -0.00000000000E+00 -0.87310264102E+03  0.87310264103E+03  0.25500000000E-02 0. -1.
    8880023    1    1    2    0    0 -0.37304618519E+02  0.71110777268E+03 -0.45506441418E+03  0.10714288246E+04  0.65864270000E+03 0.  0.
    8880022    1    1    2    0    0  0.37304618519E+02 -0.71110777268E+03  0.10973093757E+04  0.13170214189E+04  0.15294330000E+03 0.  0.
<mgrwt>
<rscale>  0 0.90293397E+03</rscale>
<asrwt>0</asrwt>
<pdfrwt beam="1">  1        2 0.13432348E+00 0.96998768E+03</pdfrwt>
<pdfrwt beam="2">  1       -2 0.23313040E+00 0.96998768E+03</pdfrwt>
<totfact> 0.24969116E+00</totfact>
</mgrwt>
</event>
<event>
 4    5  0.2025789E-007  0.7126955E+03  0.7818608E-02  0.9948124E-01
          2   -1    0    0  501    0  0.00000000000E+00  0.00000000000E+00  0.13466444904E+04  0.13466444904E+04  0.25500000000E-02 0. -1.
         -2   -1    0    0    0  501 -0.00000000000E+00 -0.00000000000E+00 -0.19967524289E+03  0.19967524290E+03  0.25500000000E-02 0.  1.
    8880023    1    1    2    0    0  0.20478064696E+03  0.17941462176E+03  0.90105015770E+03  0.11488369392E+04  0.65864270000E+03 0. -1.
    8880022    1    1    2    0    0 -0.20478064696E+03 -0.17941462176E+03  0.24591908980E+03  0.39748279411E+03  0.15294330000E+03 0. -1.
<mgrwt>
<rscale>  0 0.57984607E+03</rscale>
<asrwt>0</asrwt>
<pdfrwt beam="1">  1        2 0.20717608E+00 0.71269554E+03</pdfrwt>
<pdfrwt beam="2">  1       -2 0.30719268E-01 0.71269554E+03</pdfrwt>
<totfact> 0.15492101E+02</totfact>
</mgrwt>
</event>
<event>
 4    5  0.2025789E-007  0.7420735E+03  0.7818608E-02  0.9853948E-01
          2   -1    0    0  501    0  0.00000000000E+00  0.00000000000E+00  0.30242487046E+03  0.30242487047E+03  0.25500000000E-02 0. -1.
         -2   -1    0    0    0  501 -0.00000000000E+00 -0.00000000000E+00 -0.11026859303E+04  0.11026859303E+04  0.25500000000E-02 0.  1.
    8880023    1    1    2    0    0  0.18419509695E+03 -0.28798455227E+03 -0.35298389932E+03  0.82174860847E+03  0.65864270000E+03 0.  1.
    8880022    1    1    2    0    0 -0.18419509695E+03  0.28798455227E+03 -0.44727716055E+03  0.58336219234E+03  0.15294330000E+03 0.  0.
<mgrwt>
<rscale>  0 0.62546044E+03</rscale>
<asrwt>0</asrwt>
<pdfrwt beam="1">  1        2 0.46526904E-01 0.74207354E+03</pdfrwt>
<pdfrwt beam="2">  1       -2 0.16964399E+00 0.74207354E+03</pdfrwt>
<totfact> 0.23656923E+01</totfact>
</mgrwt>
</event>
<event>
 4    5  0.2025789E-007  0.7037666E+03  0.7818608E-02  0.9981920E-01
          2   -1    0    0  501    0  0.00000000000E+00  0.00000000000E+00  0.57381249740E+03  0.57381249740E+03  0.25500000000E-02 0. -1.
         -2   -1    0    0    0  501 -0.00000000000E+00 -0.00000000000E+00 -0.10495073890E+04  0.10495073890E+04  0.25500000000E-02 0.  1.
    8880023    1    1    2    0    0 -0.23589750713E+03  0.76352173297E+02  0.32211851760E+03  0.77398180462E+03  0.65864270000E+03 0. -1.
    8880022    1    1    2    0    0  0.23589750713E+03 -0.76352173297E+02 -0.79781340917E+03  0.84933808175E+03  0.15294330000E+03 0.  0.
<mgrwt>
<rscale>  0 0.56450151E+03</rscale>
<asrwt>0</asrwt>
<pdfrwt beam="1">  1        2 0.88278846E-01 0.70376665E+03</pdfrwt>
<pdfrwt beam="2">  1       -2 0.16146267E+00 0.70376665E+03</pdfrwt>
<totfact> 0.13117036E+01</totfact>
</mgrwt>
</event>
<event>
 4    5  0.2025789E-007  0.1189802E+04  0.7818608E-02  0.9167100E-01
          2   -1    0    0  501    0  0.00000000000E+00  0.00000000000E+00  0.12280204698E+04  0.12280204698E+04  0.25500000000E-02 0. -1.
         -2   -1    0    0    0  501 -0.00000000000E+00 -0.00000000000E+00 -0.12910956932E+04  0.12910956932E+04  0.25500000000E-02 0.  1.
    8880023    1    1    2    0    0  0.44899029876E+03 -0.88330426174E+03  0.58444392431E+03  0.13255955696E+04  0.65864270000E+03 0.  0.
    8880022    1    1    2    0    0 -0.44899029876E+03  0.88330426174E+03 -0.64751914775E+03  0.11935205934E+04  0.15294330000E+03 0.  1.
<mgrwt>
<rscale>  0 0.11399562E+04</rscale>
<asrwt>0</asrwt>
<pdfrwt beam="1">  1        2 0.18892623E+00 0.11898020E+04</pdfrwt>
<pdfrwt beam="2">  1       -2 0.19863011E+00 0.11898020E+04</pdfrwt>
<totfact> 0.24054050E+00</totfact>
</mgrwt>
</event>
<event>
 4    5  0.2025789E-007  0.1068589E+04  0.7818608E-02  0.9296861E-01
         -2   -1    0    0    0  501 -0.00000000000E+00  0.00000000000E+00  0.23020159027E+03  0.23020159028E+03  0.25500000000E-02 0.  1.
          2   -1    0    0  501    0  0.00000000000E+00 -0.00000000000E+00 -0.45941606259E+04  0.45941606259E+04  0.25500000000E-02 0. -1.
    8880023    1    1    2    0    0  0.53039784852E+03 -0.65326150854E+03 -0.32421927911E+04  0.34137511299E+04  0.65864270000E+03 0.  0.
    8880022    1    1    2    0    0 -0.53039784852E+03  0.65326150854E+03 -0.11217662446E+04  0.14106110863E+04  0.15294330000E+03 0.  0.
<mgrwt>
<rscale>  0 0.10107231E+04</rscale>
<asrwt>0</asrwt>
<pdfrwt beam="1">  1        2 0.70679388E+00 0.10685891E+04</pdfrwt>
<pdfrwt beam="2">  1       -2 0.35415632E-01 0.10685891E+04</pdfrwt>
<totfact> 0.79145665E-01</totfact>
</mgrwt>
</event>
<event>
 4    5  0.2025789E-007  0.6920284E+03  0.7818608E-02  0.1003203E+00
          2   -1    0    0  501    0  0.00000000000E+00  0.00000000000E+00  0.14697145014E+04  0.14697145014E+04  0.25500000000E-02 0. -1.
         -2   -1    0    0    0  501 -0.00000000000E+00 -0.00000000000E+00 -0.10881907682E+04  0.10881907682E+04  0.25500000000E-02 0.  1.
    8880023    1    1    2    0    0  0.88357696330E+02  0.19309580431E+03  0.13702750720E+04  0.15351081563E+04  0.65864270000E+03 0.  0.
    8880022    1    1    2    0    0 -0.88357696330E+02 -0.19309580431E+03 -0.98875133878E+03  0.10227971134E+04  0.15294330000E+03 0.  1.
<mgrwt>
<rscale>  0 0.54267791E+03</rscale>
<asrwt>0</asrwt>
<pdfrwt beam="1">  1        2 0.22610992E+00 0.69202838E+03</pdfrwt>
<pdfrwt beam="2">  1       -2 0.16741396E+00 0.69202838E+03</pdfrwt>
<totfact> 0.30476055E+00</totfact>
</mgrwt>
</event>
<event>
 4    5  0.2025789E-007  0.1196852E+04  0.7818608E-02  0.9160188E-01
         -2   -1    0    0    0  501 -0.00000000000E+00  0.00000000000E+00  0.19232925434E+04  0.19232925434E+04  0.25500000000E-02 0.  1.
          2   -1    0    0  501    0  0.00000000000E+00 -0.00000000000E+00 -0.22101718652E+04  0.22101718652E+04  0.25500000000E-02 0. -1.
    8880023    1    1    2    0    0 -0.25608748260E+03 -0.96595252451E+03 -0.18906578092E+04  0.22376421153E+04  0.65864270000E+03 0. -1.
    8880022    1    1    2    0    0  0.25608748260E+03  0.96595252451E+03  0.16037784874E+04  0.18958222933E+04  0.15294330000E+03 0.  0.
<mgrwt>
<rscale>  0 0.11473970E+04</rscale>
<asrwt>0</asrwt>
<pdfrwt beam="1">  1        2 0.34002644E+00 0.11968522E+04</pdfrwt>
<pdfrwt beam="2">  1       -2 0.29589116E+00 0.11968522E+04</pdfrwt>
<totfact> 0.16794898E-01</totfact>
</mgrwt>
</event>
<event>
 4    5  0.2025789E-007  0.1014347E+04  0.7818608E-02  0.9363023E-01
          2   -1    0    0  501    0  0.00000000000E+00  0.00000000000E+00  0.37427566001E+04  0.37427566001E+04  0.25500000000E-02 0. -1.
         -2   -1    0    0    0  501 -0.00000000000E+00 -0.00000000000E+00 -0.41248916735E+03  0.41248916736E+03  0.25500000000E-02 0.  1.
    8880023    1    1    2    0    0  0.22870279862E+03 -0.73673951948E+03  0.32014864951E+04  0.33583353129E+04  0.65864270000E+03 0. -1.
    8880022    1    1    2    0    0 -0.22870279862E+03  0.73673951948E+03  0.12878093770E+03  0.79691045457E+03  0.15294330000E+03 0.  0.
<mgrwt>
<rscale>  0 0.95182223E+03</rscale>
<asrwt>0</asrwt>
<pdfrwt beam="1">  1        2 0.57580870E+00 0.10143472E+04</pdfrwt>
<pdfrwt beam="2">  1       -2 0.63459873E-01 0.10143472E+04</pdfrwt>
<totfact> 0.12992287E+00</totfact>
</mgrwt>
</event>
<event>
 4    5  0.2025789E-007  0.7867715E+03  0.7818608E-02  0.9740165E-01
          2   -1    0    0  501    0  0.00000000000E+00  0.00000000000E+00  0.25435198875E+04  0.25435198875E+04  0.25500000000E-02 0. -1.
         -2   -1    0    0    0  501 -0.00000000000E+00 -0.00000000000E+00 -0.23972746843E+03  0.23972746844E+03  0.25500000000E-02 0.  1.
    8880023    1    1    2    0    0  0.39530028786E+03 -0.17010822948E+03  0.21686466860E+04  0.23069542219E+04  0.65864270000E+03 0.  0.
    8880022    1    1    2    0    0 -0.39530028786E+03  0.17010822948E+03  0.13514573314E+03  0.47629313403E+03  0.15294330000E+03 0.  0.
<mgrwt>
<rscale>  0 0.68674948E+03</rscale>
<asrwt>0</asrwt>
<pdfrwt beam="1">  1        2 0.39131075E+00 0.78677146E+03</pdfrwt>
<pdfrwt beam="2">  1       -2 0.36881149E-01 0.78677146E+03</pdfrwt>
<totfact> 0.23662896E+01</totfact>
</mgrwt>
</event>
<event>
 4    5  0.2025789E-007  0.8548290E+03  0.7818608E-02  0.9602829E-01
          2   -1    0    0  501    0  0.00000000000E+00  0.00000000000E+00  0.17972544986E+04  0.17972544986E+04  0.25500000000E-02 0. -1.
         -2   -1    0    0    0  501 -0.00000000000E+00 -0.00000000000E+00 -0.41543450945E+03  0.41543450946E+03  0.25500000000E-02 0.  1.
    8880023    1    1    2    0    0 -0.39156612002E+01 -0.54489174737E+03  0.14068249015E+04  0.16461740061E+04  0.65864270000E+03 0. -1.
    8880022    1    1    2    0    0  0.39156612002E+01  0.54489174737E+03 -0.25004912337E+02  0.56651500193E+03  0.15294330000E+03 0.  0.
<mgrwt>
<rscale>  0 0.77109238E+03</rscale>
<asrwt>0</asrwt>
<pdfrwt beam="1">  1        2 0.27650069E+00 0.85482896E+03</pdfrwt>
<pdfrwt beam="2">  1       -2 0.63913002E-01 0.85482896E+03</pdfrwt>
<totfact> 0.19924476E+01</totfact>
</mgrwt>
</event>
<event>
 4    5  0.2025789E-007  0.1112797E+04  0.7818608E-02  0.9246940E-01
          2   -1    0    0  501    0  0.00000000000E+00  0.00000000000E+00  0.14268903844E+04  0.14268903844E+04  0.25500000000E-02 0. -1.
         -2   -1    0    0    0  501 -0.00000000000E+00 -0.00000000000E+00 -0.12940555005E+04  0.12940555005E+04  0.25500000000E-02 0.  1.
    8880023    1    1    2    0    0 -0.89580830280E+03 -0.45116631880E+02  0.97621224130E+03  0.14803069182E+04  0.65864270000E+03 0.  0.
    8880022    1    1    2    0    0  0.89580830280E+03  0.45116631880E+02 -0.84337735737E+03  0.12406389667E+04  0.15294330000E+03 0.  0.
<mgrwt>
<rscale>  0 0.10581794E+04</rscale>
<asrwt>0</asrwt>
<pdfrwt beam="1">  1        2 0.21952160E+00 0.11127975E+04</pdfrwt>
<pdfrwt beam="2">  1       -2 0.19908546E+00 0.11127975E+04</pdfrwt>
<totfact> 0.18451101E+00</totfact>
</mgrwt>
</event>
<event>
 4    5  0.2025789E-007  0.1075058E+04  0.7818608E-02  0.9289348E-01
          2   -1    0    0  501    0  0.00000000000E+00  0.00000000000E+00  0.17658496099E+04  0.17658496099E+04  0.25500000000E-02 0. -1.
         -2   -1    0    0    0  501 -0.00000000000E+00 -0.00000000000E+00 -0.88753409317E+03  0.88753409318E+03  0.25500000000E-02 0.  1.
    8880023    1    1    2    0    0  0.84198967601E+03 -0.11398551432E+03  0.13046553837E+04  0.16905251221E+04  0.65864270000E+03 0.  0.
    8880022    1    1    2    0    0 -0.84198967601E+03  0.11398551432E+03 -0.42633986690E+03  0.96285858105E+03  0.15294330000E+03 0.  0.
<mgrwt>
<rscale>  0 0.10176948E+04</rscale>
<asrwt>0</asrwt>
<pdfrwt beam="1">  1        2 0.27166917E+00 0.10750579E+04</pdfrwt>
<pdfrwt beam="2">  1       -2 0.13654371E+00 0.10750579E+04</pdfrwt>
<totfact> 0.34077618E+00</totfact>
</mgrwt>
</event>
<event>
 4    5  0.2025789E-007  0.7582686E+03  0.7818608E-02  0.9809611E-01
         -2   -1    0    0    0  501 -0.00000000000E+00  0.00000000000E+00  0.15787892760E+04  0.15787892760E+04  0.25500000000E-02 0.  1.
          2   -1    0    0  501    0  0.00000000000E+00 -0.00000000000E+00 -0.28306400677E+03  0.28306400678E+03  0.25500000000E-02 0. -1.
    8880023    1    1    2    0    0  0.37490404622E+03 -0.24659030166E+02  0.35471929983E+03  0.83713624911E+03  0.65864270000E+03 0. -1.
    8880022    1    1    2    0    0 -0.37490404622E+03  0.24659030166E+02  0.94100596941E+03  0.10247170337E+04  0.15294330000E+03 0.  0.
<mgrwt>
<rscale>  0 0.64849326E+03</rscale>
<asrwt>0</asrwt>
<pdfrwt beam="1">  1        2 0.43548309E-01 0.75826863E+03</pdfrwt>
<pdfrwt beam="2">  1       -2 0.24289066E+00 0.75826863E+03</pdfrwt>
<totfact> 0.85317943E+00</totfact>
</mgrwt>
</event>
<event>
 4    5  0.2025789E-007  0.6911824E+03  0.7818608E-02  0.1003596E+00
         -2   -1    0    0    0  501 -0.00000000000E+00  0.00000000000E+00  0.19993081929E+04  0.19993081929E+04  0.25500000000E-02 0.  1.
          2   -1    0    0  501    0  0.00000000000E+00 -0.00000000000E+00 -0.40941159533E+03  0.40941159534E+03  0.25500000000E-02 0. -1.
    8880023    1    1    2    0    0  0.18117872579E+03 -0.10534335919E+03 -0.10056842313E+03  0.69846057011E+03  0.65864270000E+03 0. -1.
    8880022    1    1    2    0    0 -0.18117872579E+03  0.10534335919E+03  0.16904650207E+04  0.17102592181E+04  0.15294330000E+03 0.  0.
<mgrwt>
<rscale>  0 0.54101360E+03</rscale>
<asrwt>0</asrwt>
<pdfrwt beam="1">  1        2 0.62986400E-01 0.69118244E+03</pdfrwt>
<pdfrwt beam="2">  1       -2 0.30758587E+00 0.69118244E+03</pdfrwt>
<totfact> 0.23277043E+00</totfact>
</mgrwt>
</event>
<event>
 4    5  0.2025789E-007  0.7221351E+03  0.7818608E-02  0.9915427E-01
          2   -1    0    0  501    0  0.00000000000E+00  0.00000000000E+00  0.16535760173E+04  0.16535760173E+04  0.25500000000E-02 0. -1.
         -2   -1    0    0    0  501 -0.00000000000E+00 -0.00000000000E+00 -0.57503169723E+03  0.57503169724E+03  0.25500000000E-02 0.  1.
    8880023    1    1    2    0    0  0.29027448354E+03 -0.58392257937E+02  0.15156857896E+04  0.16789230330E+04  0.65864270000E+03 0. -1.
    8880022    1    1    2    0    0 -0.29027448354E+03  0.58392257937E+02 -0.43714146962E+03  0.54968468148E+03  0.15294330000E+03 0.  0.
<mgrwt>
<rscale>  0 0.59519441E+03</rscale>
<asrwt>0</asrwt>
<pdfrwt beam="1">  1        2 0.25439631E+00 0.72213512E+03</pdfrwt>
<pdfrwt beam="2">  1       -2 0.88466415E-01 0.72213512E+03</pdfrwt>
<totfact> 0.11805222E+01</totfact>
</mgrwt>
</event>
<event>
 4    5  0.2025789E-007  0.9279168E+03  0.7818608E-02  0.9482625E-01
          2   -1    0    0  501    0  0.00000000000E+00  0.00000000000E+00  0.11050139824E+04  0.11050139824E+04  0.25500000000E-02 0. -1.
         -2   -1    0    0    0  501 -0.00000000000E+00 -0.00000000000E+00 -0.78458259309E+03  0.78458259309E+03  0.25500000000E-02 0.  1.
    8880023    1    1    2    0    0 -0.63914171695E+03 -0.13681065209E+03  0.65866502148E+03  0.11379231545E+04  0.65864270000E+03 0.  0.
    8880022    1    1    2    0    0  0.63914171695E+03  0.13681065209E+03 -0.33823363214E+03  0.75167342097E+03  0.15294330000E+03 0.  0.
<mgrwt>
<rscale>  0 0.85576984E+03</rscale>
<asrwt>0</asrwt>
<pdfrwt beam="1">  1        2 0.17000215E+00 0.92791675E+03</pdfrwt>
<pdfrwt beam="2">  1       -2 0.12070501E+00 0.92791675E+03</pdfrwt>
<totfact> 0.11310549E+01</totfact>
</mgrwt>
</event>
<event>
 4    5  0.2025789E-007  0.6755287E+03  0.7818608E-02  0.1011975E+00
          2   -1    0    0  501    0  0.00000000000E+00  0.00000000000E+00  0.84679986252E+03  0.84679986252E+03  0.25500000000E-02 0. -1.
         -2   -1    0    0    0  501 -0.00000000000E+00 -0.00000000000E+00 -0.21518309496E+04  0.21518309496E+04  0.25500000000E-02 0.  1.
    8880023    1    1    2    0    0  0.31785400204E+02  0.14669181006E+03  0.70546930469E+03  0.97674251721E+03  0.65864270000E+03 0. -1.
    8880022    1    1    2    0    0 -0.31785400204E+02 -0.14669181006E+03 -0.20105003918E+04  0.20218882949E+04  0.15294330000E+03 0.  0.
<mgrwt>
<rscale>  0 0.50697158E+03</rscale>
<asrwt>0</asrwt>
<pdfrwt beam="1">  1        2 0.13027690E+00 0.67552869E+03</pdfrwt>
<pdfrwt beam="2">  1       -2 0.33105091E+00 0.67552869E+03</pdfrwt>
<totfact> 0.69740411E-01</totfact>
</mgrwt>
</event>
<event>
 4    5  0.2025789E-007  0.9790232E+03  0.7818608E-02  0.9409531E-01
          2   -1    0    0  501    0  0.00000000000E+00  0.00000000000E+00  0.13331592435E+04  0.13331592435E+04  0.25500000000E-02 0. -1.
         -2   -1    0    0    0  501 -0.00000000000E+00 -0.00000000000E+00 -0.74818651225E+03  0.74818651225E+03  0.25500000000E-02 0.  1.
    8880023    1    1    2    0    0  0.53721579312E+03  0.48587593439E+03 -0.20333194284E+03  0.99991515502E+03  0.65864270000E+03 0.  0.
    8880022    1    1    2    0    0 -0.53721579312E+03 -0.48587593439E+03  0.78830467410E+03  0.10814306007E+04  0.15294330000E+03 0.  0.
<mgrwt>
<rscale>  0 0.91295429E+03</rscale>
<asrwt>0</asrwt>
<pdfrwt beam="1">  1        2 0.20510142E+00 0.97902321E+03</pdfrwt>
<pdfrwt beam="2">  1       -2 0.11510562E+00 0.97902321E+03</pdfrwt>
<totfact> 0.92614152E+00</totfact>
</mgrwt>
</event>
<event>
 4    5  0.2025789E-007  0.8103503E+03  0.7818608E-02  0.9688848E-01
          2   -1    0    0  501    0  0.00000000000E+00  0.00000000000E+00  0.12984064569E+04  0.12984064569E+04  0.25500000000E-02 0. -1.
         -2   -1    0    0    0  501 -0.00000000000E+00 -0.00000000000E+00 -0.15966905844E+04  0.15966905844E+04  0.25500000000E-02 0.  1.
    8880023    1    1    2    0    0  0.11705083557E+02  0.47193265084E+03  0.11257507977E+04  0.13870769628E+04  0.65864270000E+03 0.  0.
    8880022    1    1    2    0    0 -0.11705083557E+02 -0.47193265084E+03 -0.14240349252E+04  0.15080200785E+04  0.15294330000E+03 0.  1.
<mgrwt>
<rscale>  0 0.71684694E+03</rscale>
<asrwt>0</asrwt>
<pdfrwt beam="1">  1        2 0.19975484E+00 0.81035032E+03</pdfrwt>
<pdfrwt beam="2">  1       -2 0.24564471E+00 0.81035032E+03</pdfrwt>
<totfact> 0.11623330E+00</totfact>
</mgrwt>
</event>
<event>
 4    5  0.2025789E-007  0.9010488E+03  0.7818608E-02  0.9524350E-01
          2   -1    0    0  501    0  0.00000000000E+00  0.00000000000E+00  0.17991192800E+04  0.17991192800E+04  0.25500000000E-02 0. -1.
         -2   -1    0    0    0  501 -0.00000000000E+00 -0.00000000000E+00 -0.81221527355E+03  0.81221527356E+03  0.25500000000E-02 0.  1.
    8880023    1    1    2    0    0 -0.34302010877E+03  0.51030962078E+03  0.15307966138E+04  0.17762959165E+04  0.65864270000E+03 0. -1.
    8880022    1    1    2    0    0  0.34302010877E+03 -0.51030962078E+03 -0.54389260730E+03  0.83503863705E+03  0.15294330000E+03 0.  0.
<mgrwt>
<rscale>  0 0.82512152E+03</rscale>
<asrwt>0</asrwt>
<pdfrwt beam="1">  1        2 0.27678758E+00 0.90104878E+03</pdfrwt>
<pdfrwt beam="2">  1       -2 0.12495620E+00 0.90104878E+03</pdfrwt>
<totfact> 0.41827118E+00</totfact>
</mgrwt>
</event>
<event>
 4    5  0.2025789E-007  0.1435581E+04  0.7818608E-02  0.8956517E-01
         -2   -1    0    0    0  501 -0.00000000000E+00  0.00000000000E+00  0.10132043153E+04  0.10132043153E+04  0.25500000000E-02 0.  1.
          2   -1    0    0  501    0  0.00000000000E+00 -0.00000000000E+00 -0.27524618331E+04  0.27524618331E+04  0.25500000000E-02 0. -1.
    8880023    1    1    2    0    0 -0.10844965995E+04 -0.67152740182E+03 -0.19929356767E+04  0.24561524267E+04  0.65864270000E+03 0. -1.
    8880022    1    1    2    0    0  0.10844965995E+04  0.67152740182E+03  0.25367815890E+03  0.13095137216E+04  0.15294330000E+03 0.  0.
<mgrwt>
<rscale>  0 0.13962777E+04</rscale>
<asrwt>0</asrwt>
<pdfrwt beam="1">  1        2 0.42345566E+00 0.14355808E+04</pdfrwt>
<pdfrwt beam="2">  1       -2 0.15587759E+00 0.14355808E+04</pdfrwt>
<totfact> 0.63590554E-01</totfact>
</mgrwt>
</event>
<event>
 4    5  0.2025789E-007  0.6954328E+03  0.7818608E-02  0.1001670E+00
          2   -1    0    0  501    0  0.00000000000E+00  0.00000000000E+00  0.22229771178E+04  0.22229771178E+04  0.25500000000E-02 0. -1.
         -2   -1    0    0    0  501 -0.00000000000E+00 -0.00000000000E+00 -0.68024022804E+03  0.68024022805E+03  0.25500000000E-02 0.  1.
    8880023    1    1    2    0    0  0.53429636784E+02 -0.21670682513E+03  0.21385842457E+04  0.22488151005E+04  0.65864270000E+03 0.  0.
    8880022    1    1    2    0    0 -0.53429636784E+02  0.21670682513E+03 -0.59584735592E+03  0.65440224535E+03  0.15294330000E+03 0.  0.
<mgrwt>
<rscale>  0 0.54923900E+03</rscale>
<asrwt>0</asrwt>
<pdfrwt beam="1">  1        2 0.34199649E+00 0.69543280E+03</pdfrwt>
<pdfrwt beam="2">  1       -2 0.10465234E+00 0.69543280E+03</pdfrwt>
<totfact> 0.39092669E+00</totfact>
</mgrwt>
</event>
<event>
 4    5  0.2025789E-007  0.1611910E+04  0.7818608E-02  0.8834405E-01
          2   -1    0    0  501    0  0.00000000000E+00  0.00000000000E+00  0.11857339082E+04  0.11857339082E+04  0.25500000000E-02 0. -1.
         -2   -1    0    0    0  501 -0.00000000000E+00 -0.00000000000E+00 -0.22682878227E+04  0.22682878227E+04  0.25500000000E-02 0.  1.
    8880023    1    1    2    0    0  0.34450817114E+03 -0.14303001166E+04  0.15294705342E+02  0.16119827659E+04  0.65864270000E+03 0.  0.
    8880022    1    1    2    0    0 -0.34450817114E+03  0.14303001166E+04 -0.10978486198E+04  0.18420389650E+04  0.15294330000E+03 0.  0.
<mgrwt>
<rscale>  0 0.15776384E+04</rscale>
<asrwt>0</asrwt>
<pdfrwt beam="1">  1        2 0.18242060E+00 0.16119102E+04</pdfrwt>
<pdfrwt beam="2">  1       -2 0.34896736E+00 0.16119102E+04</pdfrwt>
<totfact> 0.28530293E-01</totfact>
</mgrwt>
</event>
<event>
 4    5  0.2025789E-007  0.1137681E+04  0.7818608E-02  0.9220218E-01
          2   -1    0    0  501    0  0.00000000000E+00  0.00000000000E+00  0.15030150432E+04  0.15030150432E+04  0.25500000000E-02 0. -1.
         -2   -1    0    0    0  501 -0.00000000000E+00 -0.00000000000E+00 -0.11219018581E+04  0.11219018581E+04  0.25500000000E-02 0.  1.
    8880023    1    1    2    0    0 -0.84579238776E+03 -0.38097777353E+03  0.98723892430E+03  0.15063066511E+04  0.65864270000E+03 0.  0.
    8880022    1    1    2    0    0  0.84579238776E+03  0.38097777353E+03 -0.60612573916E+03  0.11186102502E+04  0.15294330000E+03 0.  0.
<mgrwt>
<rscale>  0 0.10847157E+04</rscale>
<asrwt>0</asrwt>
<pdfrwt beam="1">  1        2 0.23123308E+00 0.11376814E+04</pdfrwt>
<pdfrwt beam="2">  1       -2 0.17260029E+00 0.11376814E+04</pdfrwt>
<totfact> 0.25236072E+00</totfact>
</mgrwt>
</event>
<event>
 4    5  0.2025789E-007  0.1026032E+04  0.7818608E-02  0.9348265E-01
          2   -1    0    0  501    0  0.00000000000E+00  0.00000000000E+00  0.33302980059E+04  0.33302980059E+04  0.25500000000E-02 0. -1.
         -2   -1    0    0    0  501 -0.00000000000E+00 -0.00000000000E+00 -0.13552385069E+04  0.13552385069E+04  0.25500000000E-02 0.  1.
    8880023    1    1    2    0    0  0.35259065282E+02  0.78593196681E+03  0.31220255480E+04  0.32863027838E+04  0.65864270000E+03 0.  0.
    8880022    1    1    2    0    0 -0.35259065282E+02 -0.78593196681E+03 -0.11469660489E+04  0.13992337291E+04  0.15294330000E+03 0.  0.
<mgrwt>
<rscale>  0 0.96458402E+03</rscale>
<asrwt>0</asrwt>
<pdfrwt beam="1">  1        2 0.51235354E+00 0.10260324E+04</pdfrwt>
<pdfrwt beam="2">  1       -2 0.20849823E+00 0.10260324E+04</pdfrwt>
<totfact> 0.12714298E-01</totfact>
</mgrwt>
</event>
<event>
 4    5  0.2025789E-007  0.6634621E+03  0.7818608E-02  0.1020860E+00
          2   -1    0    0  501    0  0.00000000000E+00  0.00000000000E+00  0.13028463708E+04  0.13028463708E+04  0.25500000000E-02 0. -1.
         -2   -1    0    0    0  501 -0.00000000000E+00 -0.00000000000E+00 -0.28615957415E+03  0.28615957416E+03  0.25500000000E-02 0.  1.
    8880023    1    1    2    0    0  0.26465495885E+01 -0.79779222790E+02  0.11785343197E+04  0.13524515066E+04  0.65864270000E+03 0. -1.
    8880022    1    1    2    0    0 -0.26465495885E+01  0.79779222790E+02 -0.16184752304E+03  0.23655443843E+03  0.15294330000E+03 0.  0.
<mgrwt>
<rscale>  0 0.47377524E+03</rscale>
<asrwt>0</asrwt>
<pdfrwt beam="1">  1        2 0.20043790E+00 0.66346208E+03</pdfrwt>
<pdfrwt beam="2">  1       -2 0.44024550E-01 0.66346208E+03</pdfrwt>
<totfact> 0.82620916E+01</totfact>
</mgrwt>
</event>
<event>
 4    5  0.2025789E-007  0.7675080E+03  0.7818608E-02  0.9786044E-01
          2   -1    0    0  501    0  0.00000000000E+00  0.00000000000E+00  0.38232465284E+04  0.38232465284E+04  0.25500000000E-02 0. -1.
         -2   -1    0    0    0  501 -0.00000000000E+00 -0.00000000000E+00 -0.29326048187E+03  0.29326048188E+03  0.25500000000E-02 0.  1.
    8880023    1    1    2    0    0  0.38141712449E+03  0.98890235241E+02  0.36062439405E+04  0.36870128649E+04  0.65864270000E+03 0. -1.
    8880022    1    1    2    0    0 -0.38141712449E+03 -0.98890235241E+02 -0.76257893979E+02  0.42949414535E+03  0.15294330000E+03 0.  0.
<mgrwt>
<rscale>  0 0.66116909E+03</rscale>
<asrwt>0</asrwt>
<pdfrwt beam="1">  1        2 0.58819174E+00 0.76750799E+03</pdfrwt>
<pdfrwt beam="2">  1       -2 0.45117000E-01 0.76750799E+03</pdfrwt>
<totfact> 0.24081527E+00</totfact>
</mgrwt>
</event>
<event>
 4    5  0.2025789E-007  0.1256053E+04  0.7818608E-02  0.9104472E-01
         -2   -1    0    0    0  501 -0.00000000000E+00  0.00000000000E+00  0.70925155933E+03  0.70925155933E+03  0.25500000000E-02 0.  1.
          2   -1    0    0  501    0  0.00000000000E+00 -0.00000000000E+00 -0.38377698912E+04  0.38377698912E+04  0.25500000000E-02 0. -1.
    8880023    1    1    2    0    0  0.70668412768E+03 -0.80277985508E+03 -0.32263331033E+04  0.34622093310E+04  0.65864270000E+03 0.  0.
    8880022    1    1    2    0    0 -0.70668412768E+03  0.80277985508E+03  0.97814771473E+02  0.10848121195E+04  0.15294330000E+03 0.  0.
<mgrwt>
<rscale>  0 0.12096266E+04</rscale>
<asrwt>0</asrwt>
<pdfrwt beam="1">  1        2 0.59042612E+00 0.12560526E+04</pdfrwt>
<pdfrwt beam="2">  1       -2 0.10911563E+00 0.12560526E+04</pdfrwt>
<totfact> 0.30746069E-01</totfact>
</mgrwt>
</event>
<event>
 4    5  0.2025789E-007  0.7804323E+03  0.7818608E-02  0.9754823E-01
         -2   -1    0    0    0  501 -0.00000000000E+00  0.00000000000E+00  0.68879320925E+03  0.68879320926E+03  0.25500000000E-02 0.  1.
          2   -1    0    0  501    0  0.00000000000E+00 -0.00000000000E+00 -0.69335032336E+03  0.69335032337E+03  0.25500000000E-02 0. -1.
    8880023    1    1    2    0    0  0.70099741379E+02 -0.41273517811E+03 -0.31221099087E+03  0.84056541094E+03  0.65864270000E+03 0.  0.
    8880022    1    1    2    0    0 -0.70099741379E+02  0.41273517811E+03  0.30765387676E+03  0.54157812169E+03  0.15294330000E+03 0.  0.
<mgrwt>
<rscale>  0 0.67844416E+03</rscale>
<asrwt>0</asrwt>
<pdfrwt beam="1">  1        2 0.10666928E+00 0.78043226E+03</pdfrwt>
<pdfrwt beam="2">  1       -2 0.10596819E+00 0.78043226E+03</pdfrwt>
<totfact> 0.30141634E+01</totfact>
</mgrwt>
</event>
<event>
 4    5  0.2025789E-007  0.1676970E+04  0.7818608E-02  0.8793830E-01
         -2   -1    0    0    0  501 -0.00000000000E+00  0.00000000000E+00  0.12931876315E+04  0.12931876315E+04  0.25500000000E-02 0.  1.
          2   -1    0    0  501    0  0.00000000000E+00 -0.00000000000E+00 -0.32043372568E+04  0.32043372568E+04  0.25500000000E-02 0. -1.
    8880023    1    1    2    0    0 -0.93384437760E+03  0.12273354233E+04 -0.23498327066E+04  0.28868566847E+04  0.65864270000E+03 0.  0.
    8880022    1    1    2    0    0  0.93384437760E+03 -0.12273354233E+04  0.43868308135E+03  0.16106682035E+04  0.15294330000E+03 0.  0.
<mgrwt>
<rscale>  0 0.16442250E+04</rscale>
<asrwt>0</asrwt>
<pdfrwt beam="1">  1        2 0.49297496E+00 0.16769698E+04</pdfrwt>
<pdfrwt beam="2">  1       -2 0.19895194E+00 0.16769698E+04</pdfrwt>
<totfact> 0.16094347E-01</totfact>
</mgrwt>
</event>
<event>
 4    5  0.2025789E-007  0.8482645E+03  0.7818608E-02  0.9614789E-01
          2   -1    0    0  501    0  0.00000000000E+00  0.00000000000E+00  0.20520108179E+04  0.20520108179E+04  0.25500000000E-02 0. -1.
         -2   -1    0    0    0  501 -0.00000000000E+00 -0.00000000000E+00 -0.40499172375E+03  0.40499172375E+03  0.25500000000E-02 0.  1.
    8880023    1    1    2    0    0 -0.49417319820E+03  0.20380208825E+03  0.16985869220E+04  0.18986179655E+04  0.65864270000E+03 0. -1.
    8880022    1    1    2    0    0  0.49417319820E+03 -0.20380208825E+03 -0.51567827870E+02  0.55838457615E+03  0.15294330000E+03 0.  0.
<mgrwt>
<rscale>  0 0.76325003E+03</rscale>
<asrwt>0</asrwt>
<pdfrwt beam="1">  1        2 0.31569397E+00 0.84826449E+03</pdfrwt>
<pdfrwt beam="2">  1       -2 0.62306419E-01 0.84826449E+03</pdfrwt>
<totfact> 0.15270651E+01</totfact>
</mgrwt>
</event>
<event>
 4    5  0.2025789E-007  0.7896600E+03  0.7818608E-02  0.9733616E-01
          2   -1    0    0  501    0  0.00000000000E+00  0.00000000000E+00  0.23873441650E+04  0.23873441650E+04  0.25500000000E-02 0. -1.
         -2   -1    0    0    0  501 -0.00000000000E+00 -0.00000000000E+00 -0.79953234079E+03  0.79953234079E+03  0.25500000000E-02 0.  1.
    8880023    1    1    2    0    0  0.31588863060E+03  0.29994508178E+03  0.22472148941E+04  0.23819189040E+04  0.65864270000E+03 0. -1.
    8880022    1    1    2    0    0 -0.31588863060E+03 -0.29994508178E+03 -0.65940306987E+03  0.80495760174E+03  0.15294330000E+03 0.  0.
<mgrwt>
<rscale>  0 0.69050101E+03</rscale>
<asrwt>0</asrwt>
<pdfrwt beam="1">  1        2 0.36728371E+00 0.78965998E+03</pdfrwt>
<pdfrwt beam="2">  1       -2 0.12300498E+00 0.78965998E+03</pdfrwt>
<totfact> 0.20981010E+00</totfact>
</mgrwt>
</event>
<event>
 4    5  0.2025789E-007  0.7055830E+03  0.7818608E-02  0.9974784E-01
          2   -1    0    0  501    0  0.00000000000E+00  0.00000000000E+00  0.20062019125E+04  0.20062019125E+04  0.25500000000E-02 0. -1.
         -2   -1    0    0    0  501 -0.00000000000E+00 -0.00000000000E+00 -0.22028855226E+03  0.22028855227E+03  0.25500000000E-02 0.  1.
    8880023    1    1    2    0    0  0.27528085716E+02 -0.25155388326E+03  0.17970418311E+04  0.19305974984E+04  0.65864270000E+03 0. -1.
    8880022    1    1    2    0    0 -0.27528085716E+02  0.25155388326E+03 -0.11128470873E+02  0.29589296640E+03  0.15294330000E+03 0.  0.
<mgrwt>
<rscale>  0 0.56769869E+03</rscale>
<asrwt>0</asrwt>
<pdfrwt beam="1">  1        2 0.30864645E+00 0.70558299E+03</pdfrwt>
<pdfrwt beam="2">  1       -2 0.33890546E-01 0.70558299E+03</pdfrwt>
<totfact> 0.55885428E+01</totfact>
</mgrwt>
</event>
<event>
 4    5  0.2025789E-007  0.8414548E+03  0.7818608E-02  0.9627443E-01
          2   -1    0    0  501    0  0.00000000000E+00  0.00000000000E+00  0.12764965363E+04  0.12764965363E+04  0.25500000000E-02 0. -1.
         -2   -1    0    0    0  501 -0.00000000000E+00 -0.00000000000E+00 -0.47248507560E+03  0.47248507560E+03  0.25500000000E-02 0.  1.
    8880023    1    1    2    0    0  0.25372128462E+03 -0.45810636904E+03  0.85678093987E+03  0.12008828922E+04  0.65864270000E+03 0. -1.
    8880022    1    1    2    0    0 -0.25372128462E+03  0.45810636904E+03 -0.52769479130E+02  0.54809871973E+03  0.15294330000E+03 0.  0.
<mgrwt>
<rscale>  0 0.75506134E+03</rscale>
<asrwt>0</asrwt>
<pdfrwt beam="1">  1        2 0.19638408E+00 0.84145478E+03</pdfrwt>
<pdfrwt beam="2">  1       -2 0.72690012E-01 0.84145478E+03</pdfrwt>
<totfact> 0.29503567E+01</totfact>
</mgrwt>
</event>
<event>
 4    5  0.3529355E-007  0.9361862E+03  0.7818608E-02  0.9470274E-01
          2   -1    0    0  501    0  0.00000000000E+00  0.00000000000E+00  0.17026999064E+04  0.17026999064E+04  0.25500000000E-02 0. -1.
         -2   -1    0    0    0  501 -0.00000000000E+00 -0.00000000000E+00 -0.16346194936E+04  0.16346194936E+04  0.25500000000E-02 0.  1.
    8880023    1    1    2    0    0  0.65993609088E+03  0.84372934129E+02  0.14901814992E+04  0.17598538413E+04  0.65864270000E+03 0.  0.
    8880022    1    1    2    0    0 -0.65993609088E+03 -0.84372934129E+02 -0.14221010864E+04  0.15774655587E+04  0.15294330000E+03 0.  0.
<mgrwt>
<rscale>  0 0.86511325E+03</rscale>
<asrwt>0</asrwt>
<pdfrwt beam="1">  1        2 0.26195383E+00 0.93618622E+03</pdfrwt>
<pdfrwt beam="2">  1       -2 0.25147992E+00 0.93618622E+03</pdfrwt>
<totfact> 0.62151568E-01</totfact>
</mgrwt>
</event>
<event>
 4    5  0.2025789E-007  0.1023673E+04  0.7818608E-02  0.9351221E-01
          2   -1    0    0  501    0  0.00000000000E+00  0.00000000000E+00  0.25455243904E+04  0.25455243904E+04  0.25500000000E-02 0. -1.
         -2   -1    0    0    0  501 -0.00000000000E+00 -0.00000000000E+00 -0.40580763943E+03  0.40580763943E+03  0.25500000000E-02 0.  1.
    8880023    1    1    2    0    0  0.78000235449E+03 -0.75444277662E+02  0.18262301949E+04  0.20935669187E+04  0.65864270000E+03 0. -1.
    8880022    1    1    2    0    0 -0.78000235449E+03  0.75444277662E+02  0.31348655608E+03  0.85776511115E+03  0.15294330000E+03 0.  1.
<mgrwt>
<rscale>  0 0.96201038E+03</rscale>
<asrwt>0</asrwt>
<pdfrwt beam="1">  1        2 0.39161913E+00 0.10236727E+04</pdfrwt>
<pdfrwt beam="2">  1       -2 0.62431945E-01 0.10236727E+04</pdfrwt>
<totfact> 0.78693610E+00</totfact>
</mgrwt>
</event>
<event>
 4    5  0.2025789E-007  0.1707285E+04  0.7818608E-02  0.8775634E-01
          2   -1    0    0  501    0  0.00000000000E+00  0.00000000000E+00  0.16570360050E+04  0.16570360050E+04  0.25500000000E-02 0. -1.
         -2   -1    0    0    0  501 -0.00000000000E+00 -0.00000000000E+00 -0.18253751409E+04  0.18253751409E+04  0.25500000000E-02 0.  1.
    8880023    1    1    2    0    0  0.10919790012E+04 -0.11351628944E+04  0.47806389804E+03  0.17729546618E+04  0.65864270000E+03 0.  0.
    8880022    1    1    2    0    0 -0.10919790012E+04  0.11351628944E+04 -0.64640303396E+03  0.17094564841E+04  0.15294330000E+03 0.  0.
<mgrwt>
<rscale>  0 0.16752038E+04</rscale>
<asrwt>0</asrwt>
<pdfrwt beam="1">  1        2 0.25492862E+00 0.17072853E+04</pdfrwt>
<pdfrwt beam="2">  1       -2 0.28082694E+00 0.17072853E+04</pdfrwt>
<totfact> 0.39684539E-01</totfact>
</mgrwt>
</event>
<event>
 4    5  0.2025789E-007  0.1029848E+04  0.7818608E-02  0.9343509E-01
         -2   -1    0    0    0  501 -0.00000000000E+00  0.00000000000E+00  0.42454671595E+03  0.42454671595E+03  0.25500000000E-02 0.  1.
          2   -1    0    0  501    0  0.00000000000E+00 -0.00000000000E+00 -0.23790560583E+04  0.23790560583E+04  0.25500000000E-02 0. -1.
    8880023    1    1    2    0    0  0.35770517830E+02  0.79088344740E+03 -0.16432278936E+04  0.19392741616E+04  0.65864270000E+03 0.  0.
    8880022    1    1    2    0    0 -0.35770517830E+02 -0.79088344740E+03 -0.31128144878E+03  0.86432861268E+03  0.15294330000E+03 0.  0.
<mgrwt>
<rscale>  0 0.96874160E+03</rscale>
<asrwt>0</asrwt>
<pdfrwt beam="1">  1        2 0.36600862E+00 0.10298477E+04</pdfrwt>
<pdfrwt beam="2">  1       -2 0.65314881E-01 0.10298477E+04</pdfrwt>
<totfact> 0.88789395E+00</totfact>
</mgrwt>
</event>
<event>
 4    5  0.2025789E-007  0.1082507E+04  0.7818608E-02  0.9280787E-01
          2   -1    0    0  501    0  0.00000000000E+00  0.00000000000E+00  0.88215568388E+03  0.88215568389E+03  0.25500000000E-02 0. -1.
         -2   -1    0    0    0  501 -0.00000000000E+00 -0.00000000000E+00 -0.14051097273E+04  0.14051097273E+04  0.25500000000E-02 0.  1.
    8880023    1    1    2    0    0 -0.39552139571E+03  0.76260943947E+03  0.26179107528E+03  0.11137123080E+04  0.65864270000E+03 0.  0.
    8880022    1    1    2    0    0  0.39552139571E+03 -0.76260943947E+03 -0.78474511867E+03  0.11735531032E+04  0.15294330000E+03 0.  0.
<mgrwt>
<rscale>  0 0.10257102E+04</rscale>
<asrwt>0</asrwt>
<pdfrwt beam="1">  1        2 0.13571626E+00 0.10825066E+04</pdfrwt>
<pdfrwt beam="2">  1       -2 0.21617073E+00 0.10825066E+04</pdfrwt>
<totfact> 0.31050696E+00</totfact>
</mgrwt>
</event>
<event>
 4    5  0.2025789E-007  0.8301115E+03  0.7818608E-02  0.9649115E-01
          2   -1    0    0  501    0  0.00000000000E+00  0.00000000000E+00  0.10941565611E+04  0.10941565611E+04  0.25500000000E-02 0. -1.
         -2   -1    0    0    0  501 -0.00000000000E+00 -0.00000000000E+00 -0.64183831219E+03  0.64183831219E+03  0.25500000000E-02 0.  1.
    8880023    1    1    2    0    0  0.44282821966E+03 -0.24326539981E+03  0.75958649374E+03  0.11251918657E+04  0.65864270000E+03 0. -1.
    8880022    1    1    2    0    0 -0.44282821966E+03  0.24326539981E+03 -0.30726824479E+03  0.61080300765E+03  0.15294330000E+03 0.  0.
<mgrwt>
<rscale>  0 0.74128963E+03</rscale>
<asrwt>0</asrwt>
<pdfrwt beam="1">  1        2 0.16833178E+00 0.83011149E+03</pdfrwt>
<pdfrwt beam="2">  1       -2 0.98744357E-01 0.83011149E+03</pdfrwt>
<totfact> 0.18870483E+01</totfact>
</mgrwt>
</event>
<event>
 4    5  0.2025789E-007  0.1328745E+04  0.7818608E-02  0.9041126E-01
         -2   -1    0    0    0  501 -0.00000000000E+00  0.00000000000E+00  0.12933366037E+04  0.12933366038E+04  0.25500000000E-02 0.  1.
          2   -1    0    0  501    0  0.00000000000E+00 -0.00000000000E+00 -0.16990547704E+04  0.16990547704E+04  0.25500000000E-02 0. -1.
    8880023    1    1    2    0    0 -0.76650340572E+03 -0.86268509264E+03  0.59631424360E+03  0.14564181829E+04  0.65864270000E+03 0.  1.
    8880022    1    1    2    0    0  0.76650340572E+03  0.86268509264E+03 -0.10020324102E+04  0.15359731912E+04  0.15294330000E+03 0.  0.
<mgrwt>
<rscale>  0 0.12855218E+04</rscale>
<asrwt>0</asrwt>
<pdfrwt beam="1">  1        2 0.26139304E+00 0.13287450E+04</pdfrwt>
<pdfrwt beam="2">  1       -2 0.19897486E+00 0.13287450E+04</pdfrwt>
<totfact> 0.12688111E+00</totfact>
</mgrwt>
</event>
<event>
 4    5  0.2025789E-007  0.8281829E+03  0.7818608E-02  0.9652878E-01
          2   -1    0    0  501    0  0.00000000000E+00  0.00000000000E+00  0.18674354446E+04  0.18674354446E+04  0.25500000000E-02 0. -1.
         -2   -1    0    0    0  501 -0.00000000000E+00 -0.00000000000E+00 -0.10860980339E+04  0.10860980339E+04  0.25500000000E-02 0.  1.
    8880023    1    1    2    0    0  0.46459230351E+03  0.19034379498E+03  0.17025515905E+04  0.18932957755E+04  0.65864270000E+03 0. -1.
    8880022    1    1    2    0    0 -0.46459230351E+03 -0.19034379498E+03 -0.92121417988E+03  0.10602377031E+04  0.15294330000E+03 0.  0.
<mgrwt>
<rscale>  0 0.73893066E+03</rscale>
<asrwt>0</asrwt>
<pdfrwt beam="1">  1        2 0.28729776E+00 0.82818294E+03</pdfrwt>
<pdfrwt beam="2">  1       -2 0.16709201E+00 0.82818294E+03</pdfrwt>
<totfact> 0.18090905E+00</totfact>
</mgrwt>
</event>
<event>
 4    5  0.2025789E-007  0.1108622E+04  0.7818608E-02  0.9251517E-01
          2   -1    0    0  501    0  0.00000000000E+00  0.00000000000E+00  0.21365093022E+04  0.21365093022E+04  0.25500000000E-02 0. -1.
         -2   -1    0    0    0  501 -0.00000000000E+00 -0.00000000000E+00 -0.64654506493E+03  0.64654506494E+03  0.25500000000E-02 0.  1.
    8880023    1    1    2    0    0 -0.83348672724E+03 -0.31706851814E+03  0.15157497816E+04  0.18779084580E+04  0.65864270000E+03 0. -1.
    8880022    1    1    2    0    0  0.83348672724E+03  0.31706851814E+03 -0.25785544312E+02  0.90514590923E+03  0.15294330000E+03 0.  0.
<mgrwt>
<rscale>  0 0.10537151E+04</rscale>
<asrwt>0</asrwt>
<pdfrwt beam="1">  1        2 0.32869374E+00 0.11086220E+04</pdfrwt>
<pdfrwt beam="2">  1       -2 0.99468472E-01 0.11086220E+04</pdfrwt>
<totfact> 0.46405737E+00</totfact>
</mgrwt>
</event>
<event>
 4    5  0.2025789E-007  0.6839812E+03  0.7818608E-02  0.1007156E+00
         -2   -1    0    0    0  501 -0.00000000000E+00  0.00000000000E+00  0.70520494964E+03  0.70520494964E+03  0.25500000000E-02 0.  1.
          2   -1    0    0  501    0  0.00000000000E+00 -0.00000000000E+00 -0.19713878874E+04  0.19713878874E+04  0.25500000000E-02 0. -1.
    8880023    1    1    2    0    0 -0.72198219635E+02 -0.16972755882E+03 -0.18891375764E+04  0.20091468378E+04  0.65864270000E+03 0. -1.
    8880022    1    1    2    0    0  0.72198219635E+02  0.16972755882E+03  0.62295463860E+03  0.66744599925E+03  0.15294330000E+03 0.  0.
<mgrwt>
<rscale>  0 0.52620884E+03</rscale>
<asrwt>0</asrwt>
<pdfrwt beam="1">  1        2 0.30329044E+00 0.68398116E+03</pdfrwt>
<pdfrwt beam="2">  1       -2 0.10849307E+00 0.68398116E+03</pdfrwt>
<totfact> 0.49311230E+00</totfact>
</mgrwt>
</event>
<event>
 4    5  0.2025789E-007  0.6846165E+03  0.7818608E-02  0.1006824E+00
          2   -1    0    0  501    0  0.00000000000E+00  0.00000000000E+00  0.10929976949E+04  0.10929976949E+04  0.25500000000E-02 0. -1.
         -2   -1    0    0    0  501 -0.00000000000E+00 -0.00000000000E+00 -0.79499467270E+03  0.79499467270E+03  0.25500000000E-02 0.  1.
    8880023    1    1    2    0    0 -0.15862334698E+03  0.98631192936E+02  0.96241712273E+03  0.11810784914E+04  0.65864270000E+03 0. -1.
    8880022    1    1    2    0    0  0.15862334698E+03 -0.98631192936E+02 -0.66441410052E+03  0.70691387623E+03  0.15294330000E+03 0.  0.
<mgrwt>
<rscale>  0 0.52756563E+03</rscale>
<asrwt>0</asrwt>
<pdfrwt beam="1">  1        2 0.16815349E+00 0.68461645E+03</pdfrwt>
<pdfrwt beam="2">  1       -2 0.12230687E+00 0.68461645E+03</pdfrwt>
<totfact> 0.11439734E+01</totfact>
</mgrwt>
</event>
<event>
 4    5  0.2360486E-007  0.9188276E+03  0.7818608E-02  0.9496459E-01
          2   -1    0    0  501    0  0.00000000000E+00  0.00000000000E+00  0.20755667791E+04  0.20755667791E+04  0.25500000000E-02 0. -1.
         -2   -1    0    0    0  501 -0.00000000000E+00 -0.00000000000E+00 -0.22886263243E+04  0.22886263243E+04  0.25500000000E-02 0.  1.
    8880023    1    1    2    0    0  0.26305143691E+03 -0.58415569570E+03  0.19217369177E+04  0.21300978668E+04  0.65864270000E+03 0. -1.
    8880022    1    1    2    0    0 -0.26305143691E+03  0.58415569570E+03 -0.21347964628E+04  0.22340952366E+04  0.15294330000E+03 0.  0.
<mgrwt>
<rscale>  0 0.84545387E+03</rscale>
<asrwt>0</asrwt>
<pdfrwt beam="1">  1        2 0.31931797E+00 0.91882759E+03</pdfrwt>
<pdfrwt beam="2">  1       -2 0.35209636E+00 0.91882759E+03</pdfrwt>
<totfact> 0.94910587E-02</totfact>
</mgrwt>
</event>
<event>
 4    5  0.2025789E-007  0.9810208E+03  0.7818608E-02  0.9406821E-01
          2   -1    0    0  501    0  0.00000000000E+00  0.00000000000E+00  0.12131235743E+04  0.12131235743E+04  0.25500000000E-02 0. -1.
         -2   -1    0    0    0  501 -0.00000000000E+00 -0.00000000000E+00 -0.75089231067E+03  0.75089231067E+03  0.25500000000E-02 0.  1.
    8880023    1    1    2    0    0 -0.71238133698E+03  0.14527354376E+03  0.67545651872E+03  0.11910681285E+04  0.65864270000E+03 0.  0.
    8880022    1    1    2    0    0  0.71238133698E+03 -0.14527354376E+03 -0.21322525509E+03  0.77294775646E+03  0.15294330000E+03 0.  0.
<mgrwt>
<rscale>  0 0.91516498E+03</rscale>
<asrwt>0</asrwt>
<pdfrwt beam="1">  1        2 0.18663439E+00 0.98102078E+03</pdfrwt>
<pdfrwt beam="2">  1       -2 0.11552190E+00 0.98102078E+03</pdfrwt>
<totfact> 0.10791259E+01</totfact>
</mgrwt>
</event>
<event>
 4    5  0.2025789E-007  0.9120524E+03  0.7818608E-02  0.9506954E-01
          2   -1    0    0  501    0  0.00000000000E+00  0.00000000000E+00  0.53608160472E+03  0.53608160472E+03  0.25500000000E-02 0. -1.
         -2   -1    0    0    0  501 -0.00000000000E+00 -0.00000000000E+00 -0.21556672350E+04  0.21556672350E+04  0.25500000000E-02 0.  1.
    8880023    1    1    2    0    0  0.54275609479E+03  0.32162891416E+03  0.36697054010E+02  0.91279034663E+03  0.65864270000E+03 0. -1.
    8880022    1    1    2    0    0 -0.54275609479E+03 -0.32162891416E+03 -0.16562826843E+04  0.17789584931E+04  0.15294330000E+03 0.  0.
<mgrwt>
<rscale>  0 0.83773055E+03</rscale>
<asrwt>0</asrwt>
<pdfrwt beam="1">  1        2 0.82474094E-01 0.91205238E+03</pdfrwt>
<pdfrwt beam="2">  1       -2 0.33164111E+00 0.91205238E+03</pdfrwt>
<totfact> 0.11777902E+00</totfact>
</mgrwt>
</event>
<event>
 4    5  0.2025789E-007  0.9888711E+03  0.7818608E-02  0.9396265E-01
         -2   -1    0    0    0  501 -0.00000000000E+00  0.00000000000E+00  0.10499738753E+04  0.10499738753E+04  0.25500000000E-02 0.  1.
          2   -1    0    0  501    0  0.00000000000E+00 -0.00000000000E+00 -0.19911197406E+04  0.19911197406E+04  0.25500000000E-02 0. -1.
    8880023    1    1    2    0    0  0.73667175533E+03 -0.37020629605E+02  0.71593328305E+03  0.12208302397E+04  0.65864270000E+03 0.  0.
    8880022    1    1    2    0    0 -0.73667175533E+03  0.37020629605E+02 -0.16570791483E+04  0.18202633762E+04  0.15294330000E+03 0.  0.
<mgrwt>
<rscale>  0 0.92383724E+03</rscale>
<asrwt>0</asrwt>
<pdfrwt beam="1">  1        2 0.30632611E+00 0.98887108E+03</pdfrwt>
<pdfrwt beam="2">  1       -2 0.16153444E+00 0.98887108E+03</pdfrwt>
<totfact> 0.16568144E+00</totfact>
</mgrwt>
</event>
<event>
 4    5  0.2025789E-007  0.8441801E+03  0.7818608E-02  0.9622348E-01
          2   -1    0    0  501    0  0.00000000000E+00  0.00000000000E+00  0.18175395774E+04  0.18175395774E+04  0.25500000000E-02 0. -1.
         -2   -1    0    0    0  501 -0.00000000000E+00 -0.00000000000E+00 -0.27370559593E+03  0.27370559595E+03  0.25500000000E-02 0.  1.
    8880023    1    1    2    0    0  0.34839553014E+03 -0.39680017600E+03  0.10880359755E+04  0.13771210243E+04  0.65864270000E+03 0.  1.
    8880022    1    1    2    0    0 -0.34839553014E+03  0.39680017600E+03  0.45579800590E+03  0.71412414907E+03  0.15294330000E+03 0. -1.
<mgrwt>
<rscale>  0 0.75834529E+03</rscale>
<asrwt>0</asrwt>
<pdfrwt beam="1">  1        2 0.27962148E+00 0.84418009E+03</pdfrwt>
<pdfrwt beam="2">  1       -2 0.42108552E-01 0.84418009E+03</pdfrwt>
<totfact> 0.45846849E+01</totfact>
</mgrwt>
</event>
<event>
 4    5  0.2025789E-007  0.6625405E+03  0.7818608E-02  0.1021693E+00
         -2   -1    0    0    0  501 -0.00000000000E+00  0.00000000000E+00  0.56404448700E+03  0.56404448700E+03  0.25500000000E-02 0.  1.
          2   -1    0    0  501    0  0.00000000000E+00 -0.00000000000E+00 -0.84285075481E+03  0.84285075481E+03  0.25500000000E-02 0. -1.
    8880023    1    1    2    0    0 -0.61248940894E+02 -0.37392704875E+02 -0.69349641854E+03  0.95911268156E+03  0.65864270000E+03 0. -1.
    8880022    1    1    2    0    0  0.61248940894E+02  0.37392704875E+02  0.41469015073E+03  0.44778256025E+03  0.15294330000E+03 0.  0.
<mgrwt>
<rscale>  0 0.47080766E+03</rscale>
<asrwt>0</asrwt>
<pdfrwt beam="1">  1        2 0.12966935E+00 0.66254045E+03</pdfrwt>
<pdfrwt beam="2">  1       -2 0.86776075E-01 0.66254045E+03</pdfrwt>
<totfact> 0.37731167E+01</totfact>
</mgrwt>
</event>
<event>
 4    5  0.2025789E-007  0.7668434E+03  0.7818608E-02  0.9787702E-01
          2   -1    0    0  501    0  0.00000000000E+00  0.00000000000E+00  0.66762709727E+03  0.66762709728E+03  0.25500000000E-02 0. -1.
         -2   -1    0    0    0  501 -0.00000000000E+00 -0.00000000000E+00 -0.14189304234E+04  0.14189304234E+04  0.25500000000E-02 0.  1.
    8880023    1    1    2    0    0 -0.29402421656E+03 -0.26036207319E+03  0.39688383449E+03  0.86346142556E+03  0.65864270000E+03 0.  0.
    8880022    1    1    2    0    0  0.29402421656E+03  0.26036207319E+03 -0.11481871606E+04  0.12230960951E+04  0.15294330000E+03 0.  0.
<mgrwt>
<rscale>  0 0.66026710E+03</rscale>
<asrwt>0</asrwt>
<pdfrwt beam="1">  1        2 0.10271186E+00 0.76684344E+03</pdfrwt>
<pdfrwt beam="2">  1       -2 0.21829699E+00 0.76684344E+03</pdfrwt>
<totfact> 0.45019051E+00</totfact>
</mgrwt>
</event>
<event>
 4    5  0.2025789E-007  0.6798708E+03  0.7818608E-02  0.1009397E+00
         -2   -1    0    0    0  501 -0.00000000000E+00  0.00000000000E+00  0.23935741252E+03  0.23935741253E+03  0.25500000000E-02 0.  1.
          2   -1    0    0  501    0  0.00000000000E+00 -0.00000000000E+00 -0.11714376374E+04  0.11714376375E+04  0.25500000000E-02 0. -1.
    8880023    1    1    2    0    0  0.11474753727E+03 -0.12347906265E+03 -0.96538842740E+03  0.11807620837E+04  0.65864270000E+03 0. -1.
    8880022    1    1    2    0    0 -0.11474753727E+03  0.12347906265E+03  0.33308202466E+02  0.23003296631E+03  0.15294330000E+03 0.  0.
<mgrwt>
<rscale>  0 0.51715057E+03</rscale>
<asrwt>0</asrwt>
<pdfrwt beam="1">  1        2 0.18022117E+00 0.67987078E+03</pdfrwt>
<pdfrwt beam="2">  1       -2 0.36824218E-01 0.67987078E+03</pdfrwt>
<totfact> 0.13943831E+02</totfact>
</mgrwt>
</event>
<event>
 4    5  0.2025789E-007  0.1066305E+04  0.7818608E-02  0.9299532E-01
         -2   -1    0    0    0  501 -0.00000000000E+00  0.00000000000E+00  0.87010214501E+03  0.87010214501E+03  0.25500000000E-02 0.  1.
          2   -1    0    0  501    0  0.00000000000E+00 -0.00000000000E+00 -0.26274673422E+04  0.26274673422E+04  0.25500000000E-02 0. -1.
    8880023    1    1    2    0    0 -0.46562735588E+03 -0.69741517622E+03 -0.22664226053E+04  0.25047312021E+04  0.65864270000E+03 0.  0.
    8880022    1    1    2    0    0  0.46562735588E+03  0.69741517622E+03  0.50905740815E+03  0.99283828511E+03  0.15294330000E+03 0.  0.
<mgrwt>
<rscale>  0 0.10082593E+04</rscale>
<asrwt>0</asrwt>
<pdfrwt beam="1">  1        2 0.40422574E+00 0.10663053E+04</pdfrwt>
<pdfrwt beam="2">  1       -2 0.13386187E+00 0.10663053E+04</pdfrwt>
<totfact> 0.11806008E+00</totfact>
</mgrwt>
</event>
<event>
 4    5  0.2025789E-007  0.7569784E+03  0.7818608E-02  0.9812994E-01
          2   -1    0    0  501    0  0.00000000000E+00  0.00000000000E+00  0.25195953573E+04  0.25195953573E+04  0.25500000000E-02 0. -1.
         -2   -1    0    0    0  501 -0.00000000000E+00 -0.00000000000E+00 -0.39923224941E+03  0.39923224942E+03  0.25500000000E-02 0.  1.
    8880023    1    1    2    0    0 -0.32575076864E+03  0.18191357707E+03  0.23401839139E+04  0.24595684723E+04  0.65864270000E+03 0. -1.
    8880022    1    1    2    0    0  0.32575076864E+03 -0.18191357707E+03 -0.21982080600E+03  0.45925913443E+03  0.15294330000E+03 0.  1.
<mgrwt>
<rscale>  0 0.64669863E+03</rscale>
<asrwt>0</asrwt>
<pdfrwt beam="1">  1        2 0.38763006E+00 0.75697841E+03</pdfrwt>
<pdfrwt beam="2">  1       -2 0.61420345E-01 0.75697841E+03</pdfrwt>
<totfact> 0.87602480E+00</totfact>
</mgrwt>
</event>
<event>
 4    5  0.2025789E-007  0.6609700E+03  0.7818608E-02  0.1023184E+00
         -2   -1    0    0    0  501 -0.00000000000E+00  0.00000000000E+00  0.15367556883E+04  0.15367556883E+04  0.25500000000E-02 0.  1.
          2   -1    0    0  501    0  0.00000000000E+00 -0.00000000000E+00 -0.91667348046E+03  0.91667348046E+03  0.25500000000E-02 0. -1.
    8880023    1    1    2    0    0  0.19239916827E+01 -0.55384338023E+02 -0.79224614295E+03  0.10317631918E+04  0.65864270000E+03 0. -1.
    8880022    1    1    2    0    0 -0.19239916827E+01  0.55384338023E+02  0.14123283508E+04  0.14216659770E+04  0.15294330000E+03 0.  0.
<mgrwt>
<rscale>  0 0.46554937E+03</rscale>
<asrwt>0</asrwt>
<pdfrwt beam="1">  1        2 0.14102669E+00 0.66096999E+03</pdfrwt>
<pdfrwt beam="2">  1       -2 0.23642395E+00 0.66096999E+03</pdfrwt>
<totfact> 0.23292915E+00</totfact>
</mgrwt>
</event>
<event>
 4    5  0.2025789E-007  0.8184243E+03  0.7818608E-02  0.9672289E-01
         -2   -1    0    0    0  501 -0.00000000000E+00  0.00000000000E+00  0.18745393786E+04  0.18745393786E+04  0.25500000000E-02 0.  1.
          2   -1    0    0  501    0  0.00000000000E+00 -0.00000000000E+00 -0.92663825286E+03  0.92663825286E+03  0.25500000000E-02 0. -1.
    8880023    1    1    2    0    0 -0.81546475483E+02 -0.47891368427E+03 -0.69963655844E+03  0.10767124337E+04  0.65864270000E+03 0. -1.
    8880022    1    1    2    0    0  0.81546475483E+02  0.47891368427E+03  0.16475376842E+04  0.17244651978E+04  0.15294330000E+03 0.  0.
<mgrwt>
<rscale>  0 0.72690908E+03</rscale>
<asrwt>0</asrwt>
<pdfrwt beam="1">  1        2 0.14255973E+00 0.81842431E+03</pdfrwt>
<pdfrwt beam="2">  1       -2 0.28839067E+00 0.81842431E+03</pdfrwt>
<totfact> 0.10847499E+00</totfact>
</mgrwt>
</event>
<event>
 4    5  0.3071505E-007  0.1570203E+04  0.7818608E-02  0.8861591E-01
         -2   -1    0    0    0  501 -0.00000000000E+00  0.00000000000E+00  0.39615154781E+04  0.39615154781E+04  0.25500000000E-02 0.  1.
          2   -1    0    0  501    0  0.00000000000E+00 -0.00000000000E+00 -0.16129902858E+04  0.16129902858E+04  0.25500000000E-02 0. -1.
    8880023    1    1    2    0    0 -0.12424716844E+04  0.69856355692E+03 -0.10480179395E+04  0.18878238100E+04  0.65864270000E+03 0.  0.
    8880022    1    1    2    0    0  0.12424716844E+04 -0.69856355692E+03  0.33965431318E+04  0.36866819539E+04  0.15294330000E+03 0.  0.
<mgrwt>
<rscale>  0 0.15348694E+04</rscale>
<asrwt>0</asrwt>
<pdfrwt beam="1">  1        2 0.24815236E+00 0.15702029E+04</pdfrwt>
<pdfrwt beam="2">  1       -2 0.60946391E+00 0.15702029E+04</pdfrwt>
<totfact> 0.46143134E-03</totfact>
</mgrwt>
</event>
<event>
 4    5  0.2025789E-007  0.7498870E+03  0.7818608E-02  0.9832030E-01
         -2   -1    0    0    0  501 -0.00000000000E+00  0.00000000000E+00  0.61362309451E+03  0.61362309452E+03  0.25500000000E-02 0.  1.
          2   -1    0    0  501    0  0.00000000000E+00 -0.00000000000E+00 -0.70595665354E+03  0.70595665355E+03  0.25500000000E-02 0. -1.
    8880023    1    1    2    0    0  0.19260293676E+03 -0.30236469756E+03  0.26049331077E+03  0.79384335533E+03  0.65864270000E+03 0.  0.
    8880022    1    1    2    0    0 -0.19260293676E+03  0.30236469756E+03 -0.35282686980E+03  0.52573639274E+03  0.15294330000E+03 0.  0.
<mgrwt>
<rscale>  0 0.63671614E+03</rscale>
<asrwt>0</asrwt>
<pdfrwt beam="1">  1        2 0.10860872E+00 0.74988700E+03</pdfrwt>
<pdfrwt beam="2">  1       -2 0.94403553E-01 0.74988700E+03</pdfrwt>
<totfact> 0.38845177E+01</totfact>
</mgrwt>
</event>
<event>
 4    5  0.2025789E-007  0.6771497E+03  0.7818608E-02  0.1010984E+00
         -2   -1    0    0    0  501 -0.00000000000E+00  0.00000000000E+00  0.25308653275E+03  0.25308653277E+03  0.25500000000E-02 0.  1.
          2   -1    0    0  501    0  0.00000000000E+00 -0.00000000000E+00 -0.12949575814E+04  0.12949575814E+04  0.25500000000E-02 0. -1.
    8880023    1    1    2    0    0  0.91680804506E+02  0.12773482247E+03 -0.11253312843E+04  0.13133553443E+04  0.65864270000E+03 0. -1.
    8880022    1    1    2    0    0 -0.91680804506E+02 -0.12773482247E+03  0.83460235578E+02  0.23468876991E+03  0.15294330000E+03 0.  0.
<mgrwt>
<rscale>  0 0.51085373E+03</rscale>
<asrwt>0</asrwt>
<pdfrwt beam="1">  1        2 0.19922424E+00 0.67714973E+03</pdfrwt>
<pdfrwt beam="2">  1       -2 0.38936390E-01 0.67714973E+03</pdfrwt>
<totfact> 0.10606526E+02</totfact>
</mgrwt>
</event>
<event>
 4    5  0.2025789E-007  0.8004948E+03  0.7818608E-02  0.9709727E-01
         -2   -1    0    0    0  501 -0.00000000000E+00  0.00000000000E+00  0.62852664386E+03  0.62852664386E+03  0.25500000000E-02 0.  1.
          2   -1    0    0  501    0  0.00000000000E+00 -0.00000000000E+00 -0.14917913732E+04  0.14917913732E+04  0.25500000000E-02 0. -1.
    8880023    1    1    2    0    0  0.42356105602E+03  0.16606530941E+03 -0.12632531669E+04  0.14955268052E+04  0.65864270000E+03 0. -1.
    8880022    1    1    2    0    0 -0.42356105602E+03 -0.16606530941E+03  0.39998843758E+03  0.62479121183E+03  0.15294330000E+03 0.  0.
<mgrwt>
<rscale>  0 0.70440575E+03</rscale>
<asrwt>0</asrwt>
<pdfrwt beam="1">  1        2 0.22950636E+00 0.80049476E+03</pdfrwt>
<pdfrwt beam="2">  1       -2 0.96696407E-01 0.80049476E+03</pdfrwt>
<totfact> 0.11675945E+01</totfact>
</mgrwt>
</event>
<event>
 4    5  0.2025789E-007  0.8261526E+03  0.7818608E-02  0.9656865E-01
          2   -1    0    0  501    0  0.00000000000E+00  0.00000000000E+00  0.19280490160E+04  0.19280490160E+04  0.25500000000E-02 0. -1.
         -2   -1    0    0    0  501 -0.00000000000E+00 -0.00000000000E+00 -0.88596654931E+03  0.88596654932E+03  0.25500000000E-02 0.  1.
    8880023    1    1    2    0    0  0.17237642484E+03 -0.46797890777E+03  0.17496828204E+04  0.19349206879E+04  0.65864270000E+03 0.  0.
    8880022    1    1    2    0    0 -0.17237642484E+03  0.46797890777E+03 -0.70760035373E+03  0.87909487746E+03  0.15294330000E+03 0.  0.
<mgrwt>
<rscale>  0 0.73644136E+03</rscale>
<asrwt>0</asrwt>
<pdfrwt beam="1">  1        2 0.29662292E+00 0.82615259E+03</pdfrwt>
<pdfrwt beam="2">  1       -2 0.13630255E+00 0.82615259E+03</pdfrwt>
<totfact> 0.28827955E+00</totfact>
</mgrwt>
</event>
<event>
 4    5  0.2025789E-007  0.7275968E+03  0.7818608E-02  0.9897672E-01
         -2   -1    0    0    0  501 -0.00000000000E+00  0.00000000000E+00  0.45368837642E+03  0.45368837643E+03  0.25500000000E-02 0.  1.
          2   -1    0    0  501    0  0.00000000000E+00 -0.00000000000E+00 -0.19666257443E+04  0.19666257444E+04  0.25500000000E-02 0. -1.
    8880023    1    1    2    0    0  0.21422450572E+03  0.22292306682E+03 -0.18190310381E+04  0.19591505701E+04  0.65864270000E+03 0. -1.
    8880022    1    1    2    0    0 -0.21422450572E+03 -0.22292306682E+03  0.30609367013E+03  0.46116355069E+03  0.15294330000E+03 0.  0.
<mgrwt>
<rscale>  0 0.60374232E+03</rscale>
<asrwt>0</asrwt>
<pdfrwt beam="1">  1        2 0.30255780E+00 0.72759676E+03</pdfrwt>
<pdfrwt beam="2">  1       -2 0.69798213E-01 0.72759676E+03</pdfrwt>
<totfact> 0.13534357E+01</totfact>
</mgrwt>
</event>
<event>
 4    5  0.2025789E-007  0.6834569E+03  0.7818608E-02  0.1007432E+00
         -2   -1    0    0    0  501 -0.00000000000E+00  0.00000000000E+00  0.76075925363E+03  0.76075925364E+03  0.25500000000E-02 0.  1.
          2   -1    0    0  501    0  0.00000000000E+00 -0.00000000000E+00 -0.10935194994E+04  0.10935194994E+04  0.25500000000E-02 0. -1.
    8880023    1    1    2    0    0  0.18048841947E+03 -0.26965062820E+02 -0.96281606219E+03  0.11807320441E+04  0.65864270000E+03 0. -1.
    8880022    1    1    2    0    0 -0.18048841947E+03  0.26965062820E+02  0.63005581646E+03  0.67354670888E+03  0.15294330000E+03 0.  0.
<mgrwt>
<rscale>  0 0.52508101E+03</rscale>
<asrwt>0</asrwt>
<pdfrwt beam="1">  1        2 0.16823377E+00 0.68345694E+03</pdfrwt>
<pdfrwt beam="2">  1       -2 0.11703989E+00 0.68345694E+03</pdfrwt>
<totfact> 0.12748136E+01</totfact>
</mgrwt>
</event>
<event>
 4    5  0.2025789E-007  0.1226585E+04  0.7818608E-02  0.9131703E-01
         -2   -1    0    0    0  501 -0.00000000000E+00  0.00000000000E+00  0.97942164340E+03  0.97942164340E+03  0.25500000000E-02 0.  1.
          2   -1    0    0  501    0  0.00000000000E+00 -0.00000000000E+00 -0.18804943409E+04  0.18804943409E+04  0.25500000000E-02 0. -1.
    8880023    1    1    2    0    0 -0.53513421772E+02 -0.10333622807E+04 -0.12557817384E+04  0.17554199698E+04  0.65864270000E+03 0.  0.
    8880022    1    1    2    0    0  0.53513421772E+02  0.10333622807E+04  0.35470904089E+03  0.11044960146E+04  0.15294330000E+03 0.  0.
<mgrwt>
<rscale>  0 0.11787049E+04</rscale>
<asrwt>0</asrwt>
<pdfrwt beam="1">  1        2 0.28930682E+00 0.12265853E+04</pdfrwt>
<pdfrwt beam="2">  1       -2 0.15068025E+00 0.12265853E+04</pdfrwt>
<totfact> 0.22353170E+00</totfact>
</mgrwt>
</event>
<event>
 4    5  0.2025789E-007  0.7361007E+03  0.7818608E-02  0.9871455E-01
         -2   -1    0    0    0  501 -0.00000000000E+00  0.00000000000E+00  0.54170231675E+03  0.54170231676E+03  0.25500000000E-02 0.  1.
          2   -1    0    0  501    0  0.00000000000E+00 -0.00000000000E+00 -0.14432617580E+04  0.14432617580E+04  0.25500000000E-02 0. -1.
    8880023    1    1    2    0    0 -0.65693891726E+02 -0.32205327762E+03 -0.12701080512E+04  0.14679981843E+04  0.65864270000E+03 0.  0.
    8880022    1    1    2    0    0  0.65693891726E+02  0.32205327762E+03  0.36854860994E+03  0.51696589050E+03  0.15294330000E+03 0.  0.
<mgrwt>
<rscale>  0 0.61664886E+03</rscale>
<asrwt>0</asrwt>
<pdfrwt beam="1">  1        2 0.22204027E+00 0.73610068E+03</pdfrwt>
<pdfrwt beam="2">  1       -2 0.83338819E-01 0.73610068E+03</pdfrwt>
<totfact> 0.17656024E+01</totfact>
</mgrwt>
</event>
<event>
 4    5  0.2025789E-007  0.1222394E+04  0.7818608E-02  0.9135656E-01
         -2   -1    0    0    0  501 -0.00000000000E+00  0.00000000000E+00  0.90575750148E+03  0.90575750148E+03  0.25500000000E-02 0.  1.
          2   -1    0    0  501    0  0.00000000000E+00 -0.00000000000E+00 -0.22089254141E+04  0.22089254141E+04  0.25500000000E-02 0. -1.
    8880023    1    1    2    0    0  0.10120127145E+04  0.19043711748E+03 -0.16172645745E+04  0.20272619318E+04  0.65864270000E+03 0.  0.
    8880022    1    1    2    0    0 -0.10120127145E+04 -0.19043711748E+03  0.31409666185E+03  0.10874209838E+04  0.15294330000E+03 0.  0.
<mgrwt>
<rscale>  0 0.11742981E+04</rscale>
<asrwt>0</asrwt>
<pdfrwt beam="1">  1        2 0.33983468E+00 0.12223937E+04</pdfrwt>
<pdfrwt beam="2">  1       -2 0.13934731E+00 0.12223937E+04</pdfrwt>
<totfact> 0.18059846E+00</totfact>
</mgrwt>
</event>
<event>
 4    5  0.2025789E-007  0.6887113E+03  0.7818608E-02  0.1004771E+00
          2   -1    0    0  501    0  0.00000000000E+00  0.00000000000E+00  0.41707801241E+04  0.41707801241E+04  0.25500000000E-02 0. -1.
         -2   -1    0    0    0  501 -0.00000000000E+00 -0.00000000000E+00 -0.81244907528E+02  0.81244907568E+02  0.25500000000E-02 0.  1.
    8880023    1    1    2    0    0  0.39390243884E+02 -0.19738663539E+03  0.38235222928E+04  0.38850541830E+04  0.65864270000E+03 0.  0.
    8880022    1    1    2    0    0 -0.39390243884E+02  0.19738663539E+03  0.26601292381E+03  0.36697084870E+03  0.15294330000E+03 0.  0.
<mgrwt>
<rscale>  0 0.53606758E+03</rscale>
<asrwt>0</asrwt>
<pdfrwt beam="1">  1        2 0.64165859E+00 0.68871132E+03</pdfrwt>
<pdfrwt beam="2">  1       -2 0.12499214E-01 0.68871132E+03</pdfrwt>
<totfact> 0.13188651E+01</totfact>
</mgrwt>
</event>
<event>
 4    5  0.2025789E-007  0.8782584E+03  0.7818608E-02  0.9561876E-01
          2   -1    0    0  501    0  0.00000000000E+00  0.00000000000E+00  0.74511334513E+03  0.74511334513E+03  0.25500000000E-02 0. -1.
         -2   -1    0    0    0  501 -0.00000000000E+00 -0.00000000000E+00 -0.12422383623E+04  0.12422383623E+04  0.25500000000E-02 0.  1.
    8880023    1    1    2    0    0  0.51730477975E+03 -0.26443013290E+03  0.35285770881E+03  0.94649157380E+03  0.65864270000E+03 0.  0.
    8880022    1    1    2    0    0 -0.51730477975E+03  0.26443013290E+03 -0.84998272601E+03  0.10408601337E+04  0.15294330000E+03 0.  0.
<mgrwt>
<rscale>  0 0.79871706E+03</rscale>
<asrwt>0</asrwt>
<pdfrwt beam="1">  1        2 0.11463282E+00 0.87825835E+03</pdfrwt>
<pdfrwt beam="2">  1       -2 0.19111359E+00 0.87825835E+03</pdfrwt>
<totfact> 0.57904490E+00</totfact>
</mgrwt>
</event>
<event>
 4    5  0.2025789E-007  0.1201362E+04  0.7818608E-02  0.9155799E-01
          2   -1    0    0  501    0  0.00000000000E+00  0.00000000000E+00  0.15787974448E+04  0.15787974448E+04  0.25500000000E-02 0. -1.
         -2   -1    0    0    0  501 -0.00000000000E+00 -0.00000000000E+00 -0.10809447762E+04  0.10809447762E+04  0.25500000000E-02 0.  1.
    8880023    1    1    2    0    0  0.60055391595E+03 -0.80547886428E+03  0.96527342445E+03  0.15411113513E+04  0.65864270000E+03 0. -1.
    8880022    1    1    2    0    0 -0.60055391595E+03  0.80547886428E+03 -0.46742075580E+03  0.11186308697E+04  0.15294330000E+03 0.  0.
<mgrwt>
<rscale>  0 0.11521534E+04</rscale>
<asrwt>0</asrwt>
<pdfrwt beam="1">  1        2 0.24289191E+00 0.12013623E+04</pdfrwt>
<pdfrwt beam="2">  1       -2 0.16629920E+00 0.12013623E+04</pdfrwt>
<totfact> 0.25209021E+00</totfact>
</mgrwt>
</event>
<event>
 4    5  0.2025789E-007  0.8500806E+03  0.7818608E-02  0.9611458E-01
          2   -1    0    0  501    0  0.00000000000E+00  0.00000000000E+00  0.12127803388E+04  0.12127803388E+04  0.25500000000E-02 0. -1.
         -2   -1    0    0    0  501 -0.00000000000E+00 -0.00000000000E+00 -0.53221450290E+03  0.53221450290E+03  0.25500000000E-02 0.  1.
    8880023    1    1    2    0    0 -0.44200101213E+03 -0.30571551973E+03  0.80697244887E+03  0.11721098981E+04  0.65864270000E+03 0. -1.
    8880022    1    1    2    0    0  0.44200101213E+03  0.30571551973E+03 -0.12640661301E+03  0.57288494356E+03  0.15294330000E+03 0.  1.
<mgrwt>
<rscale>  0 0.76542462E+03</rscale>
<asrwt>0</asrwt>
<pdfrwt beam="1">  1        2 0.18658159E+00 0.85008063E+03</pdfrwt>
<pdfrwt beam="2">  1       -2 0.81879156E-01 0.85008063E+03</pdfrwt>
<totfact> 0.24626613E+01</totfact>
</mgrwt>
</event>
<event>
 4    5  0.2025789E-007  0.9395456E+03  0.7818608E-02  0.9465318E-01
          2   -1    0    0  501    0  0.00000000000E+00  0.00000000000E+00  0.22815042421E+04  0.22815042421E+04  0.25500000000E-02 0. -1.
         -2   -1    0    0    0  501 -0.00000000000E+00 -0.00000000000E+00 -0.69652868812E+03  0.69652868812E+03  0.25500000000E-02 0.  1.
    8880023    1    1    2    0    0 -0.44076492043E+03  0.50464049819E+03  0.19755167178E+04  0.21875585149E+04  0.65864270000E+03 0. -1.
    8880022    1    1    2    0    0  0.44076492043E+03 -0.50464049819E+03 -0.39054116388E+03  0.79047441527E+03  0.15294330000E+03 0.  0.
<mgrwt>
<rscale>  0 0.86889799E+03</rscale>
<asrwt>0</asrwt>
<pdfrwt beam="1">  1        2 0.35100065E+00 0.93954561E+03</pdfrwt>
<pdfrwt beam="2">  1       -2 0.10715826E+00 0.93954561E+03</pdfrwt>
<totfact> 0.32918312E+00</totfact>
</mgrwt>
</event>
<event>
 4    5  0.2025789E-007  0.9563268E+03  0.7818608E-02  0.9441069E-01
          2   -1    0    0  501    0  0.00000000000E+00  0.00000000000E+00  0.92484164749E+03  0.92484164749E+03  0.25500000000E-02 0. -1.
         -2   -1    0    0    0  501 -0.00000000000E+00 -0.00000000000E+00 -0.21123368630E+04  0.21123368630E+04  0.25500000000E-02 0.  1.
    8880023    1    1    2    0    0 -0.67207847886E+03  0.17047351734E+03  0.58961137955E+03  0.11234778534E+04  0.65864270000E+03 0. -1.
    8880022    1    1    2    0    0  0.67207847886E+03 -0.17047351734E+03 -0.17771065950E+04  0.19137006571E+04  0.15294330000E+03 0.  0.
<mgrwt>
<rscale>  0 0.88771567E+03</rscale>
<asrwt>0</asrwt>
<pdfrwt beam="1">  1        2 0.14228333E+00 0.95632678E+03</pdfrwt>
<pdfrwt beam="2">  1       -2 0.32497490E+00 0.95632678E+03</pdfrwt>
<totfact> 0.63847616E-01</totfact>
</mgrwt>
</event>
<event>
 4    5  0.2025789E-007  0.7876545E+03  0.7818608E-02  0.9738154E-01
          2   -1    0    0  501    0  0.00000000000E+00  0.00000000000E+00  0.22935594117E+04  0.22935594117E+04  0.25500000000E-02 0. -1.
         -2   -1    0    0    0  501 -0.00000000000E+00 -0.00000000000E+00 -0.22278935478E+03  0.22278935479E+03  0.25500000000E-02 0.  1.
    8880023    1    1    2    0    0 -0.43193187616E+03  0.49280587068E+01  0.18437752049E+04  0.20049704845E+04  0.65864270000E+03 0. -1.
    8880022    1    1    2    0    0  0.43193187616E+03 -0.49280587068E+01  0.22699485205E+03  0.51137828198E+03  0.15294330000E+03 0.  0.
<mgrwt>
<rscale>  0 0.68789848E+03</rscale>
<asrwt>0</asrwt>
<pdfrwt beam="1">  1        2 0.35285532E+00 0.78765452E+03</pdfrwt>
<pdfrwt beam="2">  1       -2 0.34275283E-01 0.78765452E+03</pdfrwt>
<totfact> 0.37630866E+01</totfact>
</mgrwt>
</event>
<event>
 4    5  0.2104182E-007  0.1356495E+04  0.7818608E-02  0.9018246E-01
          2   -1    0    0  501    0  0.00000000000E+00  0.00000000000E+00  0.18577049553E+04  0.18577049553E+04  0.25500000000E-02 0. -1.
         -2   -1    0    0    0  501 -0.00000000000E+00 -0.00000000000E+00 -0.15957565068E+04  0.15957565068E+04  0.25500000000E-02 0.  1.
    8880023    1    1    2    0    0  0.94443318639E+03 -0.71715761434E+03  0.12934541173E+04  0.18743273053E+04  0.65864270000E+03 0.  0.
    8880022    1    1    2    0    0 -0.94443318639E+03  0.71715761434E+03 -0.10315056689E+04  0.15791341568E+04  0.15294330000E+03 0.  0.
<mgrwt>
<rscale>  0 0.13143706E+04</rscale>
<asrwt>0</asrwt>
<pdfrwt beam="1">  1        2 0.28580076E+00 0.13564952E+04</pdfrwt>
<pdfrwt beam="2">  1       -2 0.24550100E+00 0.13564952E+04</pdfrwt>
<totfact> 0.52333482E-01</totfact>
</mgrwt>
</event>
<event>
 4    5  0.2025789E-007  0.6837714E+03  0.7818608E-02  0.1007266E+00
          2   -1    0    0  501    0  0.00000000000E+00  0.00000000000E+00  0.18949924294E+04  0.18949924294E+04  0.25500000000E-02 0. -1.
         -2   -1    0    0    0  501 -0.00000000000E+00 -0.00000000000E+00 -0.30148730956E+03  0.30148730957E+03  0.25500000000E-02 0.  1.
    8880023    1    1    2    0    0  0.18441014977E+01 -0.18365636843E+03  0.17712334368E+04  0.18986340238E+04  0.65864270000E+03 0. -1.
    8880022    1    1    2    0    0 -0.18441014977E+01  0.18365636843E+03 -0.17772831698E+03  0.29784571517E+03  0.15294330000E+03 0.  0.
<mgrwt>
<rscale>  0 0.52575836E+03</rscale>
<asrwt>0</asrwt>
<pdfrwt beam="1">  1        2 0.29153731E+00 0.68377136E+03</pdfrwt>
<pdfrwt beam="2">  1       -2 0.46382662E-01 0.68377136E+03</pdfrwt>
<totfact> 0.34985286E+01</totfact>
</mgrwt>
</event>
<event>
 4    5  0.2025789E-007  0.1382314E+04  0.7818608E-02  0.8997549E-01
         -2   -1    0    0    0  501 -0.00000000000E+00  0.00000000000E+00  0.69862198062E+03  0.69862198063E+03  0.25500000000E-02 0.  1.
          2   -1    0    0  501    0  0.00000000000E+00 -0.00000000000E+00 -0.45818818172E+04  0.45818818172E+04  0.25500000000E-02 0. -1.
    8880023    1    1    2    0    0  0.95649906961E+03 -0.74972669291E+03 -0.38104633980E+04  0.40534457068E+04  0.65864270000E+03 0.  0.
    8880022    1    1    2    0    0 -0.95649906961E+03  0.74972669291E+03 -0.72796438565E+02  0.12270580910E+04  0.15294330000E+03 0.  0.
<mgrwt>
<rscale>  0 0.13411576E+04</rscale>
<asrwt>0</asrwt>
<pdfrwt beam="1">  1        2 0.70490487E+00 0.13823136E+04</pdfrwt>
<pdfrwt beam="2">  1       -2 0.10748031E+00 0.13823136E+04</pdfrwt>
<totfact> 0.70812958E-02</totfact>
</mgrwt>
</event>
<event>
 4    5  0.2025789E-007  0.6859322E+03  0.7818608E-02  0.1006149E+00
          2   -1    0    0  501    0  0.00000000000E+00  0.00000000000E+00  0.93800625565E+03  0.93800625566E+03  0.25500000000E-02 0. -1.
         -2   -1    0    0    0  501 -0.00000000000E+00 -0.00000000000E+00 -0.92548379468E+03  0.92548379468E+03  0.25500000000E-02 0.  1.
    8880023    1    1    2    0    0 -0.52979659904E+01 -0.19148040182E+03  0.79120199590E+03  0.10471406865E+04  0.65864270000E+03 0. -1.
    8880022    1    1    2    0    0  0.52979659904E+01  0.19148040182E+03 -0.77867953492E+03  0.81634936384E+03  0.15294330000E+03 0.  0.
<mgrwt>
<rscale>  0 0.53034219E+03</rscale>
<asrwt>0</asrwt>
<pdfrwt beam="1">  1        2 0.14430865E+00 0.68593223E+03</pdfrwt>
<pdfrwt beam="2">  1       -2 0.14238212E+00 0.68593223E+03</pdfrwt>
<totfact> 0.97438009E+00</totfact>
</mgrwt>
</event>
<event>
 4    5  0.2025789E-007  0.1871618E+04  0.7818608E-02  0.8683921E-01
         -2   -1    0    0    0  501 -0.00000000000E+00  0.00000000000E+00  0.17582478376E+04  0.17582478376E+04  0.25500000000E-02 0.  1.
          2   -1    0    0  501    0  0.00000000000E+00 -0.00000000000E+00 -0.24587946377E+04  0.24587946377E+04  0.25500000000E-02 0. -1.
    8880023    1    1    2    0    0 -0.33217474619E+03 -0.17201176614E+04 -0.13867065104E+04  0.23293582771E+04  0.65864270000E+03 0.  0.
    8880022    1    1    2    0    0  0.33217474619E+03  0.17201176614E+04  0.68615971026E+03  0.18876841981E+04  0.15294330000E+03 0.  0.
<mgrwt>
<rscale>  0 0.18426902E+04</rscale>
<asrwt>0</asrwt>
<pdfrwt beam="1">  1        2 0.37827610E+00 0.18716183E+04</pdfrwt>
<pdfrwt beam="2">  1       -2 0.27049966E+00 0.18716183E+04</pdfrwt>
<totfact> 0.15922802E-01</totfact>
</mgrwt>
</event>
<event>
 4    5  0.2025789E-007  0.7593770E+03  0.7818608E-02  0.9806723E-01
         -2   -1    0    0    0  501 -0.00000000000E+00  0.00000000000E+00  0.34558460033E+03  0.34558460034E+03  0.25500000000E-02 0.  1.
          2   -1    0    0  501    0  0.00000000000E+00 -0.00000000000E+00 -0.18603826361E+04  0.18603826361E+04  0.25500000000E-02 0. -1.
    8880023    1    1    2    0    0 -0.21090132801E+03 -0.31363016777E+03 -0.16163036725E+04  0.17858026264E+04  0.65864270000E+03 0.  0.
    8880022    1    1    2    0    0  0.21090132801E+03  0.31363016777E+03  0.10150563671E+03  0.42016461011E+03  0.15294330000E+03 0.  0.
<mgrwt>
<rscale>  0 0.65002995E+03</rscale>
<asrwt>0</asrwt>
<pdfrwt beam="1">  1        2 0.28621271E+00 0.75937702E+03</pdfrwt>
<pdfrwt beam="2">  1       -2 0.53166863E-01 0.75937702E+03</pdfrwt>
<totfact> 0.27412997E+01</totfact>
</mgrwt>
</event>
<event>
 4    5  0.2025789E-007  0.6970378E+03  0.7818608E-02  0.1000972E+00
         -2   -1    0    0    0  501 -0.00000000000E+00  0.00000000000E+00  0.64239520390E+03  0.64239520390E+03  0.25500000000E-02 0.  1.
          2   -1    0    0  501    0  0.00000000000E+00 -0.00000000000E+00 -0.21712492371E+04  0.21712492371E+04  0.25500000000E-02 0. -1.
    8880023    1    1    2    0    0  0.14199516038E+03  0.17857450078E+03 -0.20822572215E+04  0.21958271382E+04  0.65864270000E+03 0. -1.
    8880022    1    1    2    0    0 -0.14199516038E+03 -0.17857450078E+03  0.55340318828E+03  0.61781730286E+03  0.15294330000E+03 0.  0.
<mgrwt>
<rscale>  0 0.55226142E+03</rscale>
<asrwt>0</asrwt>
<pdfrwt beam="1">  1        2 0.33403834E+00 0.69703779E+03</pdfrwt>
<pdfrwt beam="2">  1       -2 0.98830032E-01 0.69703779E+03</pdfrwt>
<totfact> 0.47814077E+00</totfact>
</mgrwt>
</event>
<event>
 4    5  0.2025789E-007  0.7722853E+03  0.7818608E-02  0.9774281E-01
          2   -1    0    0  501    0  0.00000000000E+00  0.00000000000E+00  0.10815106874E+04  0.10815106874E+04  0.25500000000E-02 0. -1.
         -2   -1    0    0    0  501 -0.00000000000E+00 -0.00000000000E+00 -0.11288878860E+04  0.11288878860E+04  0.25500000000E-02 0.  1.
    8880023    1    1    2    0    0 -0.37501937396E+03 -0.14823897348E+03  0.89012476519E+03  0.11784509442E+04  0.65864270000E+03 0.  0.
    8880022    1    1    2    0    0  0.37501937396E+03  0.14823897348E+03 -0.93750196386E+03  0.10319476292E+04  0.15294330000E+03 0.  0.
<mgrwt>
<rscale>  0 0.66761206E+03</rscale>
<asrwt>0</asrwt>
<pdfrwt beam="1">  1        2 0.16638626E+00 0.77228526E+03</pdfrwt>
<pdfrwt beam="2">  1       -2 0.17367506E+00 0.77228526E+03</pdfrwt>
<totfact> 0.45738028E+00</totfact>
</mgrwt>
</event>
<event>
 4    5  0.2025789E-007  0.9672381E+03  0.7818608E-02  0.9425734E-01
         -2   -1    0    0    0  501 -0.00000000000E+00  0.00000000000E+00  0.57812111237E+03  0.57812111237E+03  0.25500000000E-02 0.  1.
          2   -1    0    0  501    0  0.00000000000E+00 -0.00000000000E+00 -0.19111464746E+04  0.19111464746E+04  0.25500000000E-02 0. -1.
    8880023    1    1    2    0    0  0.62629068891E+03  0.33090685266E+03 -0.14622226927E+04  0.17531813316E+04  0.65864270000E+03 0.  0.
    8880022    1    1    2    0    0 -0.62629068891E+03 -0.33090685266E+03  0.12919733046E+03  0.73608625538E+03  0.15294330000E+03 0.  0.
<mgrwt>
<rscale>  0 0.89987775E+03</rscale>
<asrwt>0</asrwt>
<pdfrwt beam="1">  1        2 0.29402253E+00 0.96723812E+03</pdfrwt>
<pdfrwt beam="2">  1       -2 0.88941710E-01 0.96723812E+03</pdfrwt>
<totfact> 0.81631019E+00</totfact>
</mgrwt>
</event>
<event>
 4    5  0.2025789E-007  0.1416740E+04  0.7818608E-02  0.8970783E-01
         -2   -1    0    0    0  501 -0.00000000000E+00  0.00000000000E+00  0.14061874245E+04  0.14061874245E+04  0.25500000000E-02 0.  1.
          2   -1    0    0  501    0  0.00000000000E+00 -0.00000000000E+00 -0.23239452414E+04  0.23239452414E+04  0.25500000000E-02 0. -1.
    8880023    1    1    2    0    0 -0.15630176808E+02  0.12542320360E+04 -0.17238260198E+04  0.22313064907E+04  0.65864270000E+03 0.  0.
    8880022    1    1    2    0    0  0.15630176808E+02 -0.12542320360E+04  0.80606820297E+03  0.14988261752E+04  0.15294330000E+03 0.  0.
<mgrwt>
<rscale>  0 0.13768027E+04</rscale>
<asrwt>0</asrwt>
<pdfrwt beam="1">  1        2 0.35753003E+00 0.14167401E+04</pdfrwt>
<pdfrwt beam="2">  1       -2 0.21633653E+00 0.14167401E+04</pdfrwt>
<totfact> 0.43405730E-01</totfact>
</mgrwt>
</event>
<event>
 4    5  0.2025789E-007  0.1032748E+04  0.7818608E-02  0.9339913E-01
          2   -1    0    0  501    0  0.00000000000E+00  0.00000000000E+00  0.19441781067E+04  0.19441781067E+04  0.25500000000E-02 0. -1.
         -2   -1    0    0    0  501 -0.00000000000E+00 -0.00000000000E+00 -0.55039791562E+03  0.55039791563E+03  0.25500000000E-02 0.  1.
    8880023    1    1    2    0    0 -0.28149230015E+03  0.74399013179E+03  0.13273956470E+04  0.16818289571E+04  0.65864270000E+03 0.  1.
    8880022    1    1    2    0    0  0.28149230015E+03 -0.74399013179E+03  0.66384544099E+02  0.81274706518E+03  0.15294330000E+03 0.  0.
<mgrwt>
<rscale>  0 0.97189957E+03</rscale>
<asrwt>0</asrwt>
<pdfrwt beam="1">  1        2 0.29910433E+00 0.10327485E+04</pdfrwt>
<pdfrwt beam="2">  1       -2 0.84676602E-01 0.10327485E+04</pdfrwt>
<totfact> 0.86995409E+00</totfact>
</mgrwt>
</event>
<event>
 4    5  0.2025789E-007  0.1041043E+04  0.7818608E-02  0.9329727E-01
         -2   -1    0    0    0  501 -0.00000000000E+00  0.00000000000E+00  0.11458703792E+04  0.11458703792E+04  0.25500000000E-02 0.  1.
          2   -1    0    0  501    0  0.00000000000E+00 -0.00000000000E+00 -0.12801178537E+04  0.12801178537E+04  0.25500000000E-02 0. -1.
    8880023    1    1    2    0    0 -0.76508746625E+02 -0.80256306895E+03 -0.84466647856E+03  0.13406090908E+04  0.65864270000E+03 0.  0.
    8880022    1    1    2    0    0  0.76508746625E+02  0.80256306895E+03  0.71041900408E+03  0.10853791422E+04  0.15294330000E+03 0.  0.
<mgrwt>
<rscale>  0 0.98091628E+03</rscale>
<asrwt>0</asrwt>
<pdfrwt beam="1">  1        2 0.19694121E+00 0.10410434E+04</pdfrwt>
<pdfrwt beam="2">  1       -2 0.17628775E+00 0.10410434E+04</pdfrwt>
<totfact> 0.32250656E+00</totfact>
</mgrwt>
</event>
<event>
 4    5  0.2025789E-007  0.1024328E+04  0.7818608E-02  0.9350400E-01
          2   -1    0    0  501    0  0.00000000000E+00  0.00000000000E+00  0.79710965340E+03  0.79710965340E+03  0.25500000000E-02 0. -1.
         -2   -1    0    0    0  501 -0.00000000000E+00 -0.00000000000E+00 -0.16081902968E+04  0.16081902968E+04  0.25500000000E-02 0.  1.
    8880023    1    1    2    0    0 -0.78387460696E+03  0.31265824635E+02  0.27144244889E+03  0.10596830472E+04  0.65864270000E+03 0.  0.
    8880022    1    1    2    0    0  0.78387460696E+03 -0.31265824635E+02 -0.10825230923E+04  0.13456169030E+04  0.15294330000E+03 0.  0.
<mgrwt>
<rscale>  0 0.96272493E+03</rscale>
<asrwt>0</asrwt>
<pdfrwt beam="1">  1        2 0.12263225E+00 0.10243277E+04</pdfrwt>
<pdfrwt beam="2">  1       -2 0.24741389E+00 0.10243277E+04</pdfrwt>
<totfact> 0.22945388E+00</totfact>
</mgrwt>
</event>
<event>
 4    5  0.2025789E-007  0.8142699E+03  0.7818608E-02  0.9680751E-01
         -2   -1    0    0    0  501 -0.00000000000E+00  0.00000000000E+00  0.15862451586E+03  0.15862451588E+03  0.25500000000E-02 0.  1.
          2   -1    0    0  501    0  0.00000000000E+00 -0.00000000000E+00 -0.39507879383E+04  0.39507879383E+04  0.25500000000E-02 0. -1.
    8880023    1    1    2    0    0  0.47694410950E+03  0.41827413481E+02 -0.33248906174E+04  0.34231466577E+04  0.65864270000E+03 0.  0.
    8880022    1    1    2    0    0 -0.47694410950E+03 -0.41827413481E+02 -0.46727280505E+03  0.68626579651E+03  0.15294330000E+03 0.  0.
<mgrwt>
<rscale>  0 0.72174547E+03</rscale>
<asrwt>0</asrwt>
<pdfrwt beam="1">  1        2 0.60781345E+00 0.81426987E+03</pdfrwt>
<pdfrwt beam="2">  1       -2 0.24403775E-01 0.81426987E+03</pdfrwt>
<totfact> 0.60984969E+00</totfact>
</mgrwt>
</event>
<event>
 4    5  0.2025789E-007  0.7147406E+03  0.7818608E-02  0.9940801E-01
          2   -1    0    0  501    0  0.00000000000E+00  0.00000000000E+00  0.54874056048E+03  0.54874056048E+03  0.25500000000E-02 0. -1.
         -2   -1    0    0    0  501 -0.00000000000E+00 -0.00000000000E+00 -0.70062134697E+03  0.70062134698E+03  0.25500000000E-02 0.  1.
    8880023    1    1    2    0    0  0.21633817503E+03 -0.17390157976E+03  0.23210738865E+03  0.75148387311E+03  0.65864270000E+03 0.  0.
    8880022    1    1    2    0    0 -0.21633817503E+03  0.17390157976E+03 -0.38398817515E+03  0.49787803435E+03  0.15294330000E+03 0.  0.
<mgrwt>
<rscale>  0 0.58324003E+03</rscale>
<asrwt>0</asrwt>
<pdfrwt beam="1">  1        2 0.84421625E-01 0.71474063E+03</pdfrwt>
<pdfrwt beam="2">  1       -2 0.10778790E+00 0.71474063E+03</pdfrwt>
<totfact> 0.38665313E+01</totfact>
</mgrwt>
</event>
<event>
 4    5  0.2025789E-007  0.1288520E+04  0.7818608E-02  0.9075537E-01
         -2   -1    0    0    0  501 -0.00000000000E+00  0.00000000000E+00  0.13868478883E+04  0.13868478883E+04  0.25500000000E-02 0.  1.
          2   -1    0    0  501    0  0.00000000000E+00 -0.00000000000E+00 -0.24238820132E+04  0.24238820132E+04  0.25500000000E-02 0. -1.
    8880023    1    1    2    0    0  0.76328402009E+01 -0.11074364946E+04 -0.19704304492E+04  0.23543322220E+04  0.65864270000E+03 0.  0.
    8880022    1    1    2    0    0 -0.76328402009E+01  0.11074364946E+04  0.93339632434E+03  0.14563976796E+04  0.15294330000E+03 0.  0.
<mgrwt>
<rscale>  0 0.12435874E+04</rscale>
<asrwt>0</asrwt>
<pdfrwt beam="1">  1        2 0.37290493E+00 0.12885201E+04</pdfrwt>
<pdfrwt beam="2">  1       -2 0.21336121E+00 0.12885201E+04</pdfrwt>
<totfact> 0.40422658E-01</totfact>
</mgrwt>
</event>
<event>
 4    5  0.2025789E-007  0.1335369E+04  0.7818608E-02  0.9035603E-01
          2   -1    0    0  501    0  0.00000000000E+00  0.00000000000E+00  0.17020860167E+04  0.17020860167E+04  0.25500000000E-02 0. -1.
         -2   -1    0    0    0  501 -0.00000000000E+00 -0.00000000000E+00 -0.14233341610E+04  0.14233341610E+04  0.25500000000E-02 0.  1.
    8880023    1    1    2    0    0 -0.22285205181E+03  0.11400600574E+04  0.10703676461E+04  0.17114020788E+04  0.65864270000E+03 0.  0.
    8880022    1    1    2    0    0  0.22285205181E+03 -0.11400600574E+04 -0.79161579039E+03  0.14140180989E+04  0.15294330000E+03 0.  1.
<mgrwt>
<rscale>  0 0.12924136E+04</rscale>
<asrwt>0</asrwt>
<pdfrwt beam="1">  1        2 0.26185939E+00 0.13353689E+04</pdfrwt>
<pdfrwt beam="2">  1       -2 0.21897449E+00 0.13353689E+04</pdfrwt>
<totfact> 0.93764090E-01</totfact>
</mgrwt>
</event>
<event>
 4    5  0.2025789E-007  0.8570086E+03  0.7818608E-02  0.9598907E-01
         -2   -1    0    0    0  501 -0.00000000000E+00  0.00000000000E+00  0.18899750253E+03  0.18899750255E+03  0.25500000000E-02 0.  1.
          2   -1    0    0  501    0  0.00000000000E+00 -0.00000000000E+00 -0.32634938350E+04  0.32634938350E+04  0.25500000000E-02 0. -1.
    8880023    1    1    2    0    0  0.57498893620E+02  0.54529567641E+03 -0.10820668555E+04  0.13803377788E+04  0.65864270000E+03 0.  0.
    8880022    1    1    2    0    0 -0.57498893620E+02 -0.54529567641E+03 -0.19924294770E+04  0.20721535588E+04  0.15294330000E+03 0.  0.
<mgrwt>
<rscale>  0 0.77368570E+03</rscale>
<asrwt>0</asrwt>
<pdfrwt beam="1">  1        2 0.50207593E+00 0.85700858E+03</pdfrwt>
<pdfrwt beam="2">  1       -2 0.29076541E-01 0.85700858E+03</pdfrwt>
<totfact> 0.13448032E+01</totfact>
</mgrwt>
</event>
<event>
 4    5  0.2025789E-007  0.6941993E+03  0.7818608E-02  0.1002217E+00
         -2   -1    0    0    0  501 -0.00000000000E+00  0.00000000000E+00  0.18686450532E+03  0.18686450534E+03  0.25500000000E-02 0.  1.
          2   -1    0    0  501    0  0.00000000000E+00 -0.00000000000E+00 -0.14835407548E+04  0.14835407548E+04  0.25500000000E-02 0. -1.
    8880023    1    1    2    0    0 -0.15645968850E+03  0.15369735822E+03 -0.11995236593E+04  0.13859183697E+04  0.65864270000E+03 0. -1.
    8880022    1    1    2    0    0  0.15645968850E+03 -0.15369735822E+03 -0.97152590244E+02  0.28448689048E+03  0.15294330000E+03 0.  0.
<mgrwt>
<rscale>  0 0.54688621E+03</rscale>
<asrwt>0</asrwt>
<pdfrwt beam="1">  1        2 0.22823703E+00 0.69419934E+03</pdfrwt>
<pdfrwt beam="2">  1       -2 0.28748386E-01 0.69419934E+03</pdfrwt>
<totfact> 0.14691042E+02</totfact>
</mgrwt>
</event>
<event>
 4    5  0.2025789E-007  0.1099409E+04  0.7818608E-02  0.9261714E-01
          2   -1    0    0  501    0  0.00000000000E+00  0.00000000000E+00  0.11338479916E+04  0.11338479916E+04  0.25500000000E-02 0. -1.
         -2   -1    0    0    0  501 -0.00000000000E+00 -0.00000000000E+00 -0.11228949049E+04  0.11228949049E+04  0.25500000000E-02 0.  1.
    8880023    1    1    2    0    0 -0.82021143826E+03 -0.31959874614E+03 -0.52131672849E+03  0.12167462758E+04  0.65864270000E+03 0.  0.
    8880022    1    1    2    0    0  0.82021143826E+03  0.31959874614E+03  0.53226981516E+03  0.10399966207E+04  0.15294330000E+03 0.  0.
<mgrwt>
<rscale>  0 0.10438522E+04</rscale>
<asrwt>0</asrwt>
<pdfrwt beam="1">  1        2 0.17443815E+00 0.10994091E+04</pdfrwt>
<pdfrwt beam="2">  1       -2 0.17275306E+00 0.10994091E+04</pdfrwt>
<totfact> 0.41522688E+00</totfact>
</mgrwt>
</event>
<event>
 4    5  0.2025789E-007  0.1655208E+04  0.7818608E-02  0.8807164E-01
          2   -1    0    0  501    0  0.00000000000E+00  0.00000000000E+00  0.26732835527E+04  0.26732835527E+04  0.25500000000E-02 0. -1.
         -2   -1    0    0    0  501 -0.00000000000E+00 -0.00000000000E+00 -0.10874663395E+04  0.10874663395E+04  0.25500000000E-02 0.  1.
    8880023    1    1    2    0    0  0.10151654212E+04 -0.11293113488E+04  0.14973439537E+04  0.22319843361E+04  0.65864270000E+03 0. -1.
    8880022    1    1    2    0    0 -0.10151654212E+04  0.11293113488E+04  0.88473259422E+02  0.15287655561E+04  0.15294330000E+03 0.  0.
<mgrwt>
<rscale>  0 0.16219693E+04</rscale>
<asrwt>0</asrwt>
<pdfrwt beam="1">  1        2 0.41127439E+00 0.16552085E+04</pdfrwt>
<pdfrwt beam="2">  1       -2 0.16730251E+00 0.16552085E+04</pdfrwt>
<totfact> 0.56981306E-01</totfact>
</mgrwt>
</event>
<event>
 4    5  0.2025789E-007  0.9386906E+03  0.7818608E-02  0.9466576E-01
         -2   -1    0    0    0  501 -0.00000000000E+00  0.00000000000E+00  0.64329176645E+03  0.64329176646E+03  0.25500000000E-02 0.  1.
          2   -1    0    0  501    0  0.00000000000E+00 -0.00000000000E+00 -0.11329504445E+04  0.11329504445E+04  0.25500000000E-02 0. -1.
    8880023    1    1    2    0    0 -0.40462050136E+03 -0.53255249373E+03 -0.93535496103E+01  0.93873723898E+03  0.65864270000E+03 0.  1.
    8880022    1    1    2    0    0  0.40462050136E+03  0.53255249373E+03 -0.48030512846E+03  0.83750497201E+03  0.15294330000E+03 0.  0.
<mgrwt>
<rscale>  0 0.86793535E+03</rscale>
<asrwt>0</asrwt>
<pdfrwt beam="1">  1        2 0.17430007E+00 0.93869064E+03</pdfrwt>
<pdfrwt beam="2">  1       -2 0.98967964E-01 0.93869064E+03</pdfrwt>
<totfact> 0.17591722E+01</totfact>
</mgrwt>
</event>
<event>
 4    5  0.2025789E-007  0.1649887E+04  0.7818608E-02  0.8810460E-01
         -2   -1    0    0    0  501 -0.00000000000E+00  0.00000000000E+00  0.10874496392E+04  0.10874496392E+04  0.25500000000E-02 0.  1.
          2   -1    0    0  501    0  0.00000000000E+00 -0.00000000000E+00 -0.33100333922E+04  0.33100333922E+04  0.25500000000E-02 0. -1.
    8880023    1    1    2    0    0 -0.45765948356E+03  0.14418266306E+04 -0.23504185064E+04  0.28716882835E+04  0.65864270000E+03 0.  0.
    8880022    1    1    2    0    0  0.45765948356E+03 -0.14418266306E+04  0.12783475347E+03  0.15257947480E+04  0.15294330000E+03 0.  0.
<mgrwt>
<rscale>  0 0.16165243E+04</rscale>
<asrwt>0</asrwt>
<pdfrwt beam="1">  1        2 0.50923590E+00 0.16498868E+04</pdfrwt>
<pdfrwt beam="2">  1       -2 0.16729995E+00 0.16498868E+04</pdfrwt>
<totfact> 0.22774799E-01</totfact>
</mgrwt>
</event>
<event>
 4    5  0.2025789E-007  0.1383989E+04  0.7818608E-02  0.8996225E-01
          2   -1    0    0  501    0  0.00000000000E+00  0.00000000000E+00  0.34387640444E+04  0.34387640444E+04  0.25500000000E-02 0. -1.
         -2   -1    0    0    0  501 -0.00000000000E+00 -0.00000000000E+00 -0.11008693803E+04  0.11008693803E+04  0.25500000000E-02 0.  1.
    8880023    1    1    2    0    0 -0.94764937432E+03 -0.76392116718E+03 -0.48113315890E+03  0.14652352061E+04  0.65864270000E+03 0.  0.
    8880022    1    1    2    0    0  0.94764937432E+03  0.76392116718E+03  0.28190278231E+04  0.30743982186E+04  0.15294330000E+03 0.  0.
<mgrwt>
<rscale>  0 0.13428940E+04</rscale>
<asrwt>0</asrwt>
<pdfrwt beam="1">  1        2 0.52904061E+00 0.13839888E+04</pdfrwt>
<pdfrwt beam="2">  1       -2 0.16936452E+00 0.13839888E+04</pdfrwt>
<totfact> 0.18634765E-01</totfact>
</mgrwt>
</event>
<event>
 4    5  0.2393233E-007  0.9522044E+03  0.7818608E-02  0.9446949E-01
         -2   -1    0    0    0  501 -0.00000000000E+00  0.00000000000E+00  0.11616407752E+04  0.11616407752E+04  0.25500000000E-02 0.  1.
          2   -1    0    0  501    0  0.00000000000E+00 -0.00000000000E+00 -0.49271393934E+04  0.49271393934E+04  0.25500000000E-02 0. -1.
    8880023    1    1    2    0    0 -0.48699422556E+03 -0.48550967313E+03 -0.47687559176E+04  0.48628927838E+04  0.65864270000E+03 0.  0.
    8880022    1    1    2    0    0  0.48699422556E+03  0.48550967313E+03  0.10032572994E+04  0.12258873848E+04  0.15294330000E+03 0.  0.
<mgrwt>
<rscale>  0 0.88310614E+03</rscale>
<asrwt>0</asrwt>
<pdfrwt beam="1">  1        2 0.75802143E+00 0.95220440E+03</pdfrwt>
<pdfrwt beam="2">  1       -2 0.17871397E+00 0.95220440E+03</pdfrwt>
<totfact> 0.86686149E-03</totfact>
</mgrwt>
</event>
<event>
 4    5  0.2025789E-007  0.7522131E+03  0.7818608E-02  0.9825701E-01
         -2   -1    0    0    0  501 -0.00000000000E+00  0.00000000000E+00  0.35386709741E+03  0.35386709742E+03  0.25500000000E-02 0.  1.
          2   -1    0    0  501    0  0.00000000000E+00 -0.00000000000E+00 -0.15876031798E+04  0.15876031798E+04  0.25500000000E-02 0. -1.
    8880023    1    1    2    0    0  0.29505163671E+03  0.21203499444E+03 -0.13368904087E+04  0.15339819028E+04  0.65864270000E+03 0. -1.
    8880022    1    1    2    0    0 -0.29505163671E+03 -0.21203499444E+03  0.10315432629E+03  0.40748837436E+03  0.15294330000E+03 0.  0.
<mgrwt>
<rscale>  0 0.64001348E+03</rscale>
<asrwt>0</asrwt>
<pdfrwt beam="1">  1        2 0.24424664E+00 0.75221308E+03</pdfrwt>
<pdfrwt beam="2">  1       -2 0.54441093E-01 0.75221308E+03</pdfrwt>
<totfact> 0.36846587E+01</totfact>
</mgrwt>
</event>
<event>
 4    5  0.2025789E-007  0.9325478E+03  0.7818608E-02  0.9475681E-01
         -2   -1    0    0    0  501 -0.00000000000E+00  0.00000000000E+00  0.12779439432E+04  0.12779439433E+04  0.25500000000E-02 0.  1.
          2   -1    0    0  501    0  0.00000000000E+00 -0.00000000000E+00 -0.25632586130E+04  0.25632586130E+04  0.25500000000E-02 0. -1.
    8880023    1    1    2    0    0  0.32730457183E+03  0.57332972658E+03 -0.23786306190E+04  0.25549029504E+04  0.65864270000E+03 0. -1.
    8880022    1    1    2    0    0 -0.32730457183E+03 -0.57332972658E+03  0.10933159492E+04  0.12862996058E+04  0.15294330000E+03 0.  0.
<mgrwt>
<rscale>  0 0.86100714E+03</rscale>
<asrwt>0</asrwt>
<pdfrwt beam="1">  1        2 0.39434748E+00 0.93254783E+03</pdfrwt>
<pdfrwt beam="2">  1       -2 0.19660676E+00 0.93254783E+03</pdfrwt>
<totfact> 0.45682818E-01</totfact>
</mgrwt>
</event>
<event>
 4    5  0.2025789E-007  0.7203880E+03  0.7818608E-02  0.9921275E-01
          2   -1    0    0  501    0  0.00000000000E+00  0.00000000000E+00  0.22443915268E+04  0.22443915268E+04  0.25500000000E-02 0. -1.
         -2   -1    0    0    0  501 -0.00000000000E+00 -0.00000000000E+00 -0.13062594013E+03  0.13062594015E+03  0.25500000000E-02 0.  1.
    8880023    1    1    2    0    0  0.28885840433E+03 -0.41345522997E+02  0.16983611878E+04  0.18448277862E+04  0.65864270000E+03 0.  0.
    8880022    1    1    2    0    0 -0.28885840433E+03  0.41345522997E+02  0.41540439887E+03  0.53018968081E+03  0.15294330000E+03 0.  0.
<mgrwt>
<rscale>  0 0.59241181E+03</rscale>
<asrwt>0</asrwt>
<pdfrwt beam="1">  1        2 0.34529097E+00 0.72038798E+03</pdfrwt>
<pdfrwt beam="2">  1       -2 0.20096301E-01 0.72038798E+03</pdfrwt>
<totfact> 0.10673766E+02</totfact>
</mgrwt>
</event>
<event>
 4    5  0.2025789E-007  0.7929970E+03  0.7818608E-02  0.9726148E-01
          2   -1    0    0  501    0  0.00000000000E+00  0.00000000000E+00  0.12048266321E+04  0.12048266321E+04  0.25500000000E-02 0. -1.
         -2   -1    0    0    0  501 -0.00000000000E+00 -0.00000000000E+00 -0.59688000786E+03  0.59688000787E+03  0.25500000000E-02 0.  1.
    8880023    1    1    2    0    0  0.38689734020E+03  0.21294258615E+03  0.93894332637E+03  0.12290072714E+04  0.65864270000E+03 0. -1.
    8880022    1    1    2    0    0 -0.38689734020E+03 -0.21294258615E+03 -0.33099670215E+03  0.57269936852E+03  0.15294330000E+03 0.  0.
<mgrwt>
<rscale>  0 0.69481095E+03</rscale>
<asrwt>0</asrwt>
<pdfrwt beam="1">  1        2 0.18535794E+00 0.79299704E+03</pdfrwt>
<pdfrwt beam="2">  1       -2 0.91827693E-01 0.79299704E+03</pdfrwt>
<totfact> 0.19253906E+01</totfact>
</mgrwt>
</event>
<event>
 4    5  0.2025789E-007  0.7474633E+03  0.7818608E-02  0.9838717E-01
          2   -1    0    0  501    0  0.00000000000E+00  0.00000000000E+00  0.26219996910E+04  0.26219996910E+04  0.25500000000E-02 0. -1.
         -2   -1    0    0    0  501 -0.00000000000E+00 -0.00000000000E+00 -0.18181613174E+03  0.18181613176E+03  0.25500000000E-02 0.  1.
    8880023    1    1    2    0    0 -0.25408381085E+03 -0.24562696907E+03  0.22566891953E+04  0.23772563012E+04  0.65864270000E+03 0. -1.
    8880022    1    1    2    0    0  0.25408381085E+03  0.24562696907E+03  0.18349436397E+03  0.42655952163E+03  0.15294330000E+03 0.  0.
<mgrwt>
<rscale>  0 0.63325521E+03</rscale>
<asrwt>0</asrwt>
<pdfrwt beam="1">  1        2 0.40338454E+00 0.74746331E+03</pdfrwt>
<pdfrwt beam="2">  1       -2 0.27971715E-01 0.74746331E+03</pdfrwt>
<totfact> 0.36063641E+01</totfact>
</mgrwt>
</event>
<event>
 4    5  0.2025789E-007  0.1225609E+04  0.7818608E-02  0.9132622E-01
         -2   -1    0    0    0  501 -0.00000000000E+00  0.00000000000E+00  0.87695623758E+03  0.87695623758E+03  0.25500000000E-02 0.  1.
          2   -1    0    0  501    0  0.00000000000E+00 -0.00000000000E+00 -0.17462386663E+04  0.17462386664E+04  0.25500000000E-02 0. -1.
    8880023    1    1    2    0    0  0.10179634082E+04 -0.17904655800E+03 -0.98444874706E+03  0.15720231271E+04  0.65864270000E+03 0.  0.
    8880022    1    1    2    0    0 -0.10179634082E+04  0.17904655800E+03  0.11516631829E+03  0.10511717768E+04  0.15294330000E+03 0.  0.
<mgrwt>
<rscale>  0 0.11776787E+04</rscale>
<asrwt>0</asrwt>
<pdfrwt beam="1">  1        2 0.26865210E+00 0.12256090E+04</pdfrwt>
<pdfrwt beam="2">  1       -2 0.13491634E+00 0.12256090E+04</pdfrwt>
<totfact> 0.35467704E+00</totfact>
</mgrwt>
</event>
<event>
 4    5  0.2025789E-007  0.7798589E+03  0.7818608E-02  0.9756169E-01
         -2   -1    0    0    0  501 -0.00000000000E+00  0.00000000000E+00  0.60652798025E+03  0.60652798025E+03  0.25500000000E-02 0.  1.
          2   -1    0    0  501    0  0.00000000000E+00 -0.00000000000E+00 -0.79158961227E+03  0.79158961227E+03  0.25500000000E-02 0. -1.
    8880023    1    1    2    0    0  0.29440101037E+02 -0.41653690660E+03 -0.42986563280E+03  0.89048547581E+03  0.65864270000E+03 0. -1.
    8880022    1    1    2    0    0 -0.29440101037E+02  0.41653690660E+03  0.24480400078E+03  0.50763211672E+03  0.15294330000E+03 0.  1.
<mgrwt>
<rscale>  0 0.67768787E+03</rscale>
<asrwt>0</asrwt>
<pdfrwt beam="1">  1        2 0.12178302E+00 0.77985891E+03</pdfrwt>
<pdfrwt beam="2">  1       -2 0.93311997E-01 0.77985891E+03</pdfrwt>
<totfact> 0.34337835E+01</totfact>
</mgrwt>
</event>
<event>
 4    5  0.2953066E-007  0.2224036E+04  0.7818608E-02  0.8518392E-01
         -2   -1    0    0    0  501 -0.00000000000E+00  0.00000000000E+00  0.20693201524E+04  0.20693201524E+04  0.25500000000E-02 0.  1.
          2   -1    0    0  501    0  0.00000000000E+00 -0.00000000000E+00 -0.46803501059E+04  0.46803501059E+04  0.25500000000E-02 0. -1.
    8880023    1    1    2    0    0 -0.43650264600E+03  0.20789404641E+04 -0.37308448408E+04  0.43434481056E+04  0.65864270000E+03 0. -1.
    8880022    1    1    2    0    0  0.43650264600E+03 -0.20789404641E+04  0.11198148873E+04  0.24062221527E+04  0.15294330000E+03 0.  1.
<mgrwt>
<rscale>  0 0.22000857E+04</rscale>
<asrwt>0</asrwt>
<pdfrwt beam="1">  1        2 0.72005386E+00 0.22240365E+04</pdfrwt>
<pdfrwt beam="2">  1       -2 0.31835695E+00 0.22240365E+04</pdfrwt>
<totfact> 0.17067616E-03</totfact>
</mgrwt>
</event>
<event>
 4    5  0.2025789E-007  0.1182068E+04  0.7818608E-02  0.9174753E-01
          2   -1    0    0  501    0  0.00000000000E+00  0.00000000000E+00  0.35059430035E+04  0.35059430035E+04  0.25500000000E-02 0. -1.
         -2   -1    0    0    0  501 -0.00000000000E+00 -0.00000000000E+00 -0.15930632936E+04  0.15930632936E+04  0.25500000000E-02 0.  1.
    8880023    1    1    2    0    0  0.84937715274E+03  0.49196942483E+03  0.32356111890E+04  0.34447736407E+04  0.65864270000E+03 0.  0.
    8880022    1    1    2    0    0 -0.84937715274E+03 -0.49196942483E+03 -0.13227314792E+04  0.16542326564E+04  0.15294330000E+03 0.  0.
<mgrwt>
<rscale>  0 0.11317859E+04</rscale>
<asrwt>0</asrwt>
<pdfrwt beam="1">  1        2 0.53937585E+00 0.11820684E+04</pdfrwt>
<pdfrwt beam="2">  1       -2 0.24508666E+00 0.11820684E+04</pdfrwt>
<totfact> 0.55350340E-02</totfact>
</mgrwt>
</event>
<event>
 4    5  0.2025789E-007  0.1522631E+04  0.7818608E-02  0.8893818E-01
         -2   -1    0    0    0  501 -0.00000000000E+00  0.00000000000E+00  0.86535341817E+03  0.86535341818E+03  0.25500000000E-02 0.  1.
          2   -1    0    0  501    0  0.00000000000E+00 -0.00000000000E+00 -0.30875483401E+04  0.30875483401E+04  0.25500000000E-02 0. -1.
    8880023    1    1    2    0    0  0.91493562476E+03  0.10234689047E+04 -0.20606851456E+04  0.25621922784E+04  0.65864270000E+03 0.  0.
    8880022    1    1    2    0    0 -0.91493562476E+03 -0.10234689047E+04 -0.16150977637E+03  0.13907094798E+04  0.15294330000E+03 0.  0.
<mgrwt>
<rscale>  0 0.14859972E+04</rscale>
<asrwt>0</asrwt>
<pdfrwt beam="1">  1        2 0.47500743E+00 0.15226313E+04</pdfrwt>
<pdfrwt beam="2">  1       -2 0.13313130E+00 0.15226313E+04</pdfrwt>
<totfact> 0.59440844E-01</totfact>
</mgrwt>
</event>
<event>
 4    5  0.2025789E-007  0.1491401E+04  0.7818608E-02  0.8915732E-01
          2   -1    0    0  501    0  0.00000000000E+00  0.00000000000E+00  0.16548202173E+04  0.16548202173E+04  0.25500000000E-02 0. -1.
         -2   -1    0    0    0  501 -0.00000000000E+00 -0.00000000000E+00 -0.13381754176E+04  0.13381754176E+04  0.25500000000E-02 0.  1.
    8880023    1    1    2    0    0  0.13246211392E+04 -0.18932544332E+03  0.61553920732E+03  0.16134323686E+04  0.65864270000E+03 0.  0.
    8880022    1    1    2    0    0 -0.13246211392E+04  0.18932544332E+03 -0.29889440755E+03  0.13795632663E+04  0.15294330000E+03 0.  0.
<mgrwt>
<rscale>  0 0.14538550E+04</rscale>
<asrwt>0</asrwt>
<pdfrwt beam="1">  1        2 0.25458773E+00 0.14914005E+04</pdfrwt>
<pdfrwt beam="2">  1       -2 0.20587314E+00 0.14914005E+04</pdfrwt>
<totfact> 0.11912119E+00</totfact>
</mgrwt>
</event>
<event>
 4    5  0.2025789E-007  0.7461947E+03  0.7818608E-02  0.9842256E-01
          2   -1    0    0  501    0  0.00000000000E+00  0.00000000000E+00  0.18718974018E+04  0.18718974018E+04  0.25500000000E-02 0. -1.
         -2   -1    0    0    0  501 -0.00000000000E+00 -0.00000000000E+00 -0.32607029585E+03  0.32607029586E+03  0.25500000000E-02 0.  1.
    8880023    1    1    2    0    0 -0.12333002282E+03 -0.32830774555E+03  0.16418783761E+04  0.18034885856E+04  0.65864270000E+03 0. -1.
    8880022    1    1    2    0    0  0.12333002282E+03  0.32830774555E+03 -0.96051270155E+02  0.39447911203E+03  0.15294330000E+03 0.  0.
<mgrwt>
<rscale>  0 0.63143298E+03</rscale>
<asrwt>0</asrwt>
<pdfrwt beam="1">  1        2 0.28798422E+00 0.74619466E+03</pdfrwt>
<pdfrwt beam="2">  1       -2 0.50164660E-01 0.74619466E+03</pdfrwt>
<totfact> 0.30487599E+01</totfact>
</mgrwt>
</event>
<event>
 4    5  0.2025789E-007  0.1434401E+04  0.7818608E-02  0.8957403E-01
          2   -1    0    0  501    0  0.00000000000E+00  0.00000000000E+00  0.21914949005E+04  0.21914949005E+04  0.25500000000E-02 0. -1.
         -2   -1    0    0    0  501 -0.00000000000E+00 -0.00000000000E+00 -0.88900731842E+03  0.88900731843E+03  0.25500000000E-02 0.  1.
    8880023    1    1    2    0    0 -0.12598008996E+04 -0.19130156429E+03  0.33421679216E+03  0.14728223469E+04  0.65864270000E+03 0.  0.
    8880022    1    1    2    0    0  0.12598008996E+04  0.19130156429E+03  0.96827078987E+03  0.16076798720E+04  0.15294330000E+03 0.  0.
<mgrwt>
<rscale>  0 0.13950583E+04</rscale>
<asrwt>0</asrwt>
<pdfrwt beam="1">  1        2 0.33715306E+00 0.14344005E+04</pdfrwt>
<pdfrwt beam="2">  1       -2 0.13677036E+00 0.14344005E+04</pdfrwt>
<totfact> 0.18968864E+00</totfact>
</mgrwt>
</event>
<event>
 4    5  0.2025789E-007  0.1078001E+04  0.7818608E-02  0.9285954E-01
         -2   -1    0    0    0  501 -0.00000000000E+00  0.00000000000E+00  0.10488267763E+04  0.10488267763E+04  0.25500000000E-02 0.  1.
          2   -1    0    0  501    0  0.00000000000E+00 -0.00000000000E+00 -0.17435012936E+04  0.17435012936E+04  0.25500000000E-02 0. -1.
    8880023    1    1    2    0    0 -0.55672565078E+03 -0.64678559347E+03 -0.13339900241E+04  0.17151135953E+04  0.65864270000E+03 0.  0.
    8880022    1    1    2    0    0  0.55672565078E+03  0.64678559347E+03  0.63931550670E+03  0.10772144746E+04  0.15294330000E+03 0.  0.
<mgrwt>
<rscale>  0 0.10208629E+04</rscale>
<asrwt>0</asrwt>
<pdfrwt beam="1">  1        2 0.26823097E+00 0.10780006E+04</pdfrwt>
<pdfrwt beam="2">  1       -2 0.16135797E+00 0.10780006E+04</pdfrwt>
<totfact> 0.22487910E+00</totfact>
</mgrwt>
</event>
<event>
 4    5  0.2025789E-007  0.8194702E+03  0.7818608E-02  0.9670178E-01
         -2   -1    0    0    0  501 -0.00000000000E+00  0.00000000000E+00  0.34688566550E+03  0.34688566551E+03  0.25500000000E-02 0.  1.
          2   -1    0    0  501    0  0.00000000000E+00 -0.00000000000E+00 -0.19208573378E+04  0.19208573378E+04  0.25500000000E-02 0. -1.
    8880023    1    1    2    0    0  0.12286788645E+03  0.47183113646E+03 -0.15534462441E+04  0.17563389702E+04  0.65864270000E+03 0.  0.
    8880022    1    1    2    0    0 -0.12286788645E+03 -0.47183113646E+03 -0.20525428255E+02  0.51140403310E+03  0.15294330000E+03 0.  0.
<mgrwt>
<rscale>  0 0.72820453E+03</rscale>
<asrwt>0</asrwt>
<pdfrwt beam="1">  1        2 0.29551651E+00 0.81947016E+03</pdfrwt>
<pdfrwt beam="2">  1       -2 0.53367027E-01 0.81947016E+03</pdfrwt>
<totfact> 0.25024867E+01</totfact>
</mgrwt>
</event>
<event>
 4    5  0.2025789E-007  0.9513757E+03  0.7818608E-02  0.9448138E-01
         -2   -1    0    0    0  501 -0.00000000000E+00  0.00000000000E+00  0.12038923212E+04  0.12038923212E+04  0.25500000000E-02 0.  1.
          2   -1    0    0  501    0  0.00000000000E+00 -0.00000000000E+00 -0.63189936607E+03  0.63189936608E+03  0.25500000000E-02 0. -1.
    8880023    1    1    2    0    0 -0.39447300621E+03  0.56186879336E+03  0.36994604981E+02  0.95209469101E+03  0.65864270000E+03 0.  0.
    8880022    1    1    2    0    0  0.39447300621E+03 -0.56186879336E+03  0.53499835018E+03  0.88369699631E+03  0.15294330000E+03 0.  0.
<mgrwt>
<rscale>  0 0.88217849E+03</rscale>
<asrwt>0</asrwt>
<pdfrwt beam="1">  1        2 0.97215287E-01 0.95137569E+03</pdfrwt>
<pdfrwt beam="2">  1       -2 0.18521420E+00 0.95137569E+03</pdfrwt>
<totfact> 0.77563211E+00</totfact>
</mgrwt>
</event>
<event>
 4    5  0.2025789E-007  0.1737961E+04  0.7818608E-02  0.8757653E-01
         -2   -1    0    0    0  501 -0.00000000000E+00  0.00000000000E+00  0.29410400566E+04  0.29410400566E+04  0.25500000000E-02 0.  1.
          2   -1    0    0  501    0  0.00000000000E+00 -0.00000000000E+00 -0.14687509177E+04  0.14687509177E+04  0.25500000000E-02 0. -1.
    8880023    1    1    2    0    0 -0.65550492455E+03 -0.14686767821E+04 -0.54860763860E+03  0.18224924537E+04  0.65864270000E+03 0.  0.
    8880022    1    1    2    0    0  0.65550492455E+03  0.14686767821E+04  0.20208967775E+04  0.25872985206E+04  0.15294330000E+03 0.  0.
<mgrwt>
<rscale>  0 0.17065222E+04</rscale>
<asrwt>0</asrwt>
<pdfrwt beam="1">  1        2 0.22596168E+00 0.17379610E+04</pdfrwt>
<pdfrwt beam="2">  1       -2 0.45246770E+00 0.17379610E+04</pdfrwt>
<totfact> 0.40425956E-02</totfact>
</mgrwt>
</event>
<event>
 4    5  0.2864097E-007  0.8814621E+03  0.7818608E-02  0.9556471E-01
         -2   -1    0    0    0  501 -0.00000000000E+00  0.00000000000E+00  0.17818591199E+04  0.17818591199E+04  0.25500000000E-02 0.  1.
          2   -1    0    0  501    0  0.00000000000E+00 -0.00000000000E+00 -0.14953605858E+04  0.14953605858E+04  0.25500000000E-02 0. -1.
    8880023    1    1    2    0    0 -0.54037639934E+03  0.22618244449E+03 -0.13048005982E+04  0.15746364528E+04  0.65864270000E+03 0.  0.
    8880022    1    1    2    0    0  0.54037639934E+03 -0.22618244449E+03  0.15912991324E+04  0.17025832528E+04  0.15294330000E+03 0.  0.
<mgrwt>
<rscale>  0 0.80245443E+03</rscale>
<asrwt>0</asrwt>
<pdfrwt beam="1">  1        2 0.23005547E+00 0.88146206E+03</pdfrwt>
<pdfrwt beam="2">  1       -2 0.27413217E+00 0.88146206E+03</pdfrwt>
<totfact> 0.59656451E-01</totfact>
</mgrwt>
</event>
<event>
 4    5  0.2025789E-007  0.1186732E+04  0.7818608E-02  0.9170129E-01
         -2   -1    0    0    0  501 -0.00000000000E+00  0.00000000000E+00  0.65714221094E+03  0.65714221095E+03  0.25500000000E-02 0.  1.
          2   -1    0    0  501    0  0.00000000000E+00 -0.00000000000E+00 -0.29403076094E+04  0.29403076094E+04  0.25500000000E-02 0. -1.
    8880023    1    1    2    0    0  0.98497532365E+03  0.65924998384E+02 -0.23112304959E+04  0.25980991330E+04  0.65864270000E+03 0.  0.
    8880022    1    1    2    0    0 -0.98497532365E+03 -0.65924998384E+02  0.28065097408E+02  0.99935068735E+03  0.15294330000E+03 0.  0.
<mgrwt>
<rscale>  0 0.11367138E+04</rscale>
<asrwt>0</asrwt>
<pdfrwt beam="1">  1        2 0.45235501E+00 0.11867319E+04</pdfrwt>
<pdfrwt beam="2">  1       -2 0.10109880E+00 0.11867319E+04</pdfrwt>
<totfact> 0.15132017E+00</totfact>
</mgrwt>
</event>
<event>
 4    5  0.2025789E-007  0.8428855E+03  0.7818608E-02  0.9624763E-01
         -2   -1    0    0    0  501 -0.00000000000E+00  0.00000000000E+00  0.86655487352E+03  0.86655487352E+03  0.25500000000E-02 0.  1.
          2   -1    0    0  501    0  0.00000000000E+00 -0.00000000000E+00 -0.20425821266E+04  0.20425821266E+04  0.25500000000E-02 0. -1.
    8880023    1    1    2    0    0  0.50685031436E+03  0.14052937418E+03 -0.18545509932E+04  0.20371095549E+04  0.65864270000E+03 0. -1.
    8880022    1    1    2    0    0 -0.50685031436E+03 -0.14052937418E+03  0.67852374014E+03  0.87202744517E+03  0.15294330000E+03 0.  0.
<mgrwt>
<rscale>  0 0.75678647E+03</rscale>
<asrwt>0</asrwt>
<pdfrwt beam="1">  1        2 0.31424340E+00 0.84288549E+03</pdfrwt>
<pdfrwt beam="2">  1       -2 0.13331613E+00 0.84288549E+03</pdfrwt>
<totfact> 0.26334445E+00</totfact>
</mgrwt>
</event>
<event>
 4    5  0.2025789E-007  0.1717982E+04  0.7818608E-02  0.8769316E-01
          2   -1    0    0  501    0  0.00000000000E+00  0.00000000000E+00  0.25564362763E+04  0.25564362763E+04  0.25500000000E-02 0. -1.
         -2   -1    0    0    0  501 -0.00000000000E+00 -0.00000000000E+00 -0.16028063504E+04  0.16028063504E+04  0.25500000000E-02 0.  1.
    8880023    1    1    2    0    0 -0.14605679900E+04 -0.61999539447E+03  0.16841225317E+04  0.24057705732E+04  0.65864270000E+03 0.  0.
    8880022    1    1    2    0    0  0.14605679900E+04  0.61999539447E+03 -0.73049260581E+03  0.17534720536E+04  0.15294330000E+03 0.  0.
<mgrwt>
<rscale>  0 0.16861281E+04</rscale>
<asrwt>0</asrwt>
<pdfrwt beam="1">  1        2 0.39329788E+00 0.17179823E+04</pdfrwt>
<pdfrwt beam="2">  1       -2 0.24658560E+00 0.17179823E+04</pdfrwt>
<totfact> 0.19920099E-01</totfact>
</mgrwt>
</event>
<event>
 4    5  0.2025789E-007  0.1160577E+04  0.7818608E-02  0.9196431E-01
          2   -1    0    0  501    0  0.00000000000E+00  0.00000000000E+00  0.80356075239E+03  0.80356075239E+03  0.25500000000E-02 0. -1.
         -2   -1    0    0    0  501 -0.00000000000E+00 -0.00000000000E+00 -0.19951186830E+04  0.19951186830E+04  0.25500000000E-02 0.  1.
    8880023    1    1    2    0    0  0.77588513402E+03  0.55779030929E+03  0.12217436330E+03  0.11669895251E+04  0.65864270000E+03 0.  0.
    8880022    1    1    2    0    0 -0.77588513402E+03 -0.55779030929E+03 -0.13137322940E+04  0.16316899104E+04  0.15294330000E+03 0.  0.
<mgrwt>
<rscale>  0 0.11090342E+04</rscale>
<asrwt>0</asrwt>
<pdfrwt beam="1">  1        2 0.12362473E+00 0.11605766E+04</pdfrwt>
<pdfrwt beam="2">  1       -2 0.30694133E+00 0.11605766E+04</pdfrwt>
<totfact> 0.97254478E-01</totfact>
</mgrwt>
</event>
<event>
 4    5  0.2025789E-007  0.1291317E+04  0.7818608E-02  0.9073095E-01
         -2   -1    0    0    0  501 -0.00000000000E+00  0.00000000000E+00  0.10036766996E+04  0.10036766996E+04  0.25500000000E-02 0.  1.
          2   -1    0    0  501    0  0.00000000000E+00 -0.00000000000E+00 -0.18175543325E+04  0.18175543325E+04  0.25500000000E-02 0. -1.
    8880023    1    1    2    0    0 -0.72455136535E+03  0.84185149108E+03 -0.10631508606E+04  0.16726591323E+04  0.65864270000E+03 0.  0.
    8880022    1    1    2    0    0  0.72455136535E+03 -0.84185149108E+03  0.24927322777E+03  0.11485718999E+04  0.15294330000E+03 0.  0.
<mgrwt>
<rscale>  0 0.12465077E+04</rscale>
<asrwt>0</asrwt>
<pdfrwt beam="1">  1        2 0.27962374E+00 0.12913167E+04</pdfrwt>
<pdfrwt beam="2">  1       -2 0.15441180E+00 0.12913167E+04</pdfrwt>
<totfact> 0.22533333E+00</totfact>
</mgrwt>
</event>
<event>
 4    5  0.2364605E-007  0.1276889E+04  0.7818608E-02  0.9085779E-01
          2   -1    0    0  501    0  0.00000000000E+00  0.00000000000E+00  0.27584454093E+04  0.27584454093E+04  0.25500000000E-02 0. -1.
         -2   -1    0    0    0  501 -0.00000000000E+00 -0.00000000000E+00 -0.10816797777E+04  0.10816797777E+04  0.25500000000E-02 0.  1.
    8880023    1    1    2    0    0  0.95373573874E+03 -0.53574674423E+03  0.22564638282E+04  0.25926965977E+04  0.65864270000E+03 0. -1.
    8880022    1    1    2    0    0 -0.95373573874E+03  0.53574674423E+03 -0.57969819665E+03  0.12474285893E+04  0.15294330000E+03 0.  0.
<mgrwt>
<rscale>  0 0.12314342E+04</rscale>
<asrwt>0</asrwt>
<pdfrwt beam="1">  1        2 0.42437621E+00 0.12768894E+04</pdfrwt>
<pdfrwt beam="2">  1       -2 0.16641228E+00 0.12768894E+04</pdfrwt>
<totfact> 0.53725362E-01</totfact>
</mgrwt>
</event>
<event>
 4    5  0.2025789E-007  0.9791795E+03  0.7818608E-02  0.9409319E-01
          2   -1    0    0  501    0  0.00000000000E+00  0.00000000000E+00  0.28741309142E+04  0.28741309142E+04  0.25500000000E-02 0. -1.
         -2   -1    0    0    0  501 -0.00000000000E+00 -0.00000000000E+00 -0.15265069135E+04  0.15265069135E+04  0.25500000000E-02 0.  1.
    8880023    1    1    2    0    0  0.71966931340E+03 -0.84013911583E+02  0.26926886385E+04  0.28651988706E+04  0.65864270000E+03 0.  0.
    8880022    1    1    2    0    0 -0.71966931340E+03  0.84013911583E+02 -0.13450646378E+04  0.15354389570E+04  0.15294330000E+03 0.  0.
<mgrwt>
<rscale>  0 0.91312730E+03</rscale>
<asrwt>0</asrwt>
<pdfrwt beam="1">  1        2 0.44217399E+00 0.97917949E+03</pdfrwt>
<pdfrwt beam="2">  1       -2 0.23484722E+00 0.97917949E+03</pdfrwt>
<totfact> 0.16981453E-01</totfact>
</mgrwt>
</event>
<event>
 4    5  0.2025789E-007  0.8644316E+03  0.7818608E-02  0.9585729E-01
          2   -1    0    0  501    0  0.00000000000E+00  0.00000000000E+00  0.11290044220E+04  0.11290044220E+04  0.25500000000E-02 0. -1.
         -2   -1    0    0    0  501 -0.00000000000E+00 -0.00000000000E+00 -0.16439140156E+04  0.16439140156E+04  0.25500000000E-02 0.  1.
    8880023    1    1    2    0    0  0.49967704130E+03 -0.25249673316E+03  0.89739473178E+03  0.12460173581E+04  0.65864270000E+03 0.  0.
    8880022    1    1    2    0    0 -0.49967704130E+03  0.25249673316E+03 -0.14123043254E+04  0.15269010794E+04  0.15294330000E+03 0.  0.
<mgrwt>
<rscale>  0 0.78248001E+03</rscale>
<asrwt>0</asrwt>
<pdfrwt beam="1">  1        2 0.17369299E+00 0.86443158E+03</pdfrwt>
<pdfrwt beam="2">  1       -2 0.25290985E+00 0.86443158E+03</pdfrwt>
<totfact> 0.13110833E+00</totfact>
</mgrwt>
</event>
<event>
 4    5  0.2025789E-007  0.1061733E+04  0.7818608E-02  0.9304908E-01
          2   -1    0    0  501    0  0.00000000000E+00  0.00000000000E+00  0.30399928061E+04  0.30399928061E+04  0.25500000000E-02 0. -1.
         -2   -1    0    0    0  501 -0.00000000000E+00 -0.00000000000E+00 -0.69161179934E+03  0.69161179934E+03  0.25500000000E-02 0.  1.
    8880023    1    1    2    0    0 -0.38981006711E+02 -0.83183321337E+03  0.26324891404E+04  0.28385340044E+04  0.65864270000E+03 0. -1.
    8880022    1    1    2    0    0  0.38981006711E+02  0.83183321337E+03 -0.28410813364E+03  0.89307060100E+03  0.15294330000E+03 0.  0.
<mgrwt>
<rscale>  0 0.10033224E+04</rscale>
<asrwt>0</asrwt>
<pdfrwt beam="1">  1        2 0.46769120E+00 0.10617326E+04</pdfrwt>
<pdfrwt beam="2">  1       -2 0.10640182E+00 0.10617326E+04</pdfrwt>
<totfact> 0.11816711E+00</totfact>
</mgrwt>
</event>
<event>
 4    5  0.2025789E-007  0.9479873E+03  0.7818608E-02  0.9453016E-01
         -2   -1    0    0    0  501 -0.00000000000E+00  0.00000000000E+00  0.34757707858E+03  0.34757707859E+03  0.25500000000E-02 0.  1.
          2   -1    0    0  501    0  0.00000000000E+00 -0.00000000000E+00 -0.39870064184E+04  0.39870064184E+04  0.25500000000E-02 0. -1.
    8880023    1    1    2    0    0 -0.47014817994E+03 -0.49379193164E+03 -0.34946998871E+04  0.36209953452E+04  0.65864270000E+03 0.  0.
    8880022    1    1    2    0    0  0.47014817994E+03  0.49379193164E+03 -0.14472945272E+03  0.71358815178E+03  0.15294330000E+03 0.  0.
<mgrwt>
<rscale>  0 0.87838206E+03</rscale>
<asrwt>0</asrwt>
<pdfrwt beam="1">  1        2 0.61338557E+00 0.94798734E+03</pdfrwt>
<pdfrwt beam="2">  1       -2 0.53473399E-01 0.94798734E+03</pdfrwt>
<totfact> 0.12297954E+00</totfact>
</mgrwt>
</event>
<event>
 4    5  0.2025789E-007  0.1236084E+04  0.7818608E-02  0.9122820E-01
         -2   -1    0    0    0  501 -0.00000000000E+00  0.00000000000E+00  0.74089511978E+03  0.74089511978E+03  0.25500000000E-02 0.  1.
          2   -1    0    0  501    0  0.00000000000E+00 -0.00000000000E+00 -0.27823282667E+04  0.27823282667E+04  0.25500000000E-02 0. -1.
    8880023    1    1    2    0    0  0.48702537391E+03 -0.92568928967E+03 -0.21297102156E+04  0.24624317624E+04  0.65864270000E+03 0. -1.
    8880022    1    1    2    0    0 -0.48702537391E+03  0.92568928967E+03  0.88277068662E+02  0.10607916241E+04  0.15294330000E+03 0.  0.
<mgrwt>
<rscale>  0 0.11886838E+04</rscale>
<asrwt>0</asrwt>
<pdfrwt beam="1">  1        2 0.42805050E+00 0.12360844E+04</pdfrwt>
<pdfrwt beam="2">  1       -2 0.11398387E+00 0.12360844E+04</pdfrwt>
<totfact> 0.14005621E+00</totfact>
</mgrwt>
</event>
<event>
 4    5  0.2025789E-007  0.6856730E+03  0.7818608E-02  0.1006281E+00
          2   -1    0    0  501    0  0.00000000000E+00  0.00000000000E+00  0.20040142958E+04  0.20040142958E+04  0.25500000000E-02 0. -1.
         -2   -1    0    0    0  501 -0.00000000000E+00 -0.00000000000E+00 -0.21626681138E+03  0.21626681140E+03  0.25500000000E-02 0.  1.
    8880023    1    1    2    0    0  0.17453289906E+03  0.76651972049E+02  0.18458378936E+04  0.19690771934E+04  0.65864270000E+03 0. -1.
    8880022    1    1    2    0    0 -0.17453289906E+03 -0.76651972049E+02 -0.58090409185E+02  0.25120391384E+03  0.15294330000E+03 0.  0.
<mgrwt>
<rscale>  0 0.52979867E+03</rscale>
<asrwt>0</asrwt>
<pdfrwt beam="1">  1        2 0.30830989E+00 0.68567300E+03</pdfrwt>
<pdfrwt beam="2">  1       -2 0.33271818E-01 0.68567300E+03</pdfrwt>
<totfact> 0.58171127E+01</totfact>
</mgrwt>
</event>
<event>
 4    5  0.2025789E-007  0.1239745E+04  0.7818608E-02  0.9119423E-01
          2   -1    0    0  501    0  0.00000000000E+00  0.00000000000E+00  0.31735322512E+04  0.31735322512E+04  0.25500000000E-02 0. -1.
         -2   -1    0    0    0  501 -0.00000000000E+00 -0.00000000000E+00 -0.14876310029E+04  0.14876310029E+04  0.25500000000E-02 0.  1.
    8880023    1    1    2    0    0  0.63710608902E+03  0.83501722119E+03  0.28366123621E+04  0.30956966627E+04  0.65864270000E+03 0.  0.
    8880022    1    1    2    0    0 -0.63710608902E+03 -0.83501722119E+03 -0.11507111138E+04  0.15654665914E+04  0.15294330000E+03 0.  0.
<mgrwt>
<rscale>  0 0.11925267E+04</rscale>
<asrwt>0</asrwt>
<pdfrwt beam="1">  1        2 0.48823573E+00 0.12397452E+04</pdfrwt>
<pdfrwt beam="2">  1       -2 0.22886631E+00 0.12397452E+04</pdfrwt>
<totfact> 0.11491228E-01</totfact>
</mgrwt>
</event>
<event>
 4    5  0.2025789E-007  0.7731460E+03  0.7818608E-02  0.9772191E-01
          2   -1    0    0  501    0  0.00000000000E+00  0.00000000000E+00  0.82212111892E+03  0.82212111892E+03  0.25500000000E-02 0. -1.
         -2   -1    0    0    0  501 -0.00000000000E+00 -0.00000000000E+00 -0.10727540020E+04  0.10727540020E+04  0.25500000000E-02 0.  1.
    8880023    1    1    2    0    0  0.24446875717E+03 -0.32276854460E+03  0.57442360503E+03  0.96318076751E+03  0.65864270000E+03 0. -1.
    8880022    1    1    2    0    0 -0.24446875717E+03  0.32276854460E+03 -0.82505648814E+03  0.93169435345E+03  0.15294330000E+03 0.  0.
<mgrwt>
<rscale>  0 0.66876545E+03</rscale>
<asrwt>0</asrwt>
<pdfrwt beam="1">  1        2 0.12648017E+00 0.77314598E+03</pdfrwt>
<pdfrwt beam="2">  1       -2 0.16503908E+00 0.77314598E+03</pdfrwt>
<totfact> 0.77979834E+00</totfact>
</mgrwt>
</event>
<event>
 4    5  0.2025789E-007  0.7332484E+03  0.7818608E-02  0.9880069E-01
          2   -1    0    0  501    0  0.00000000000E+00  0.00000000000E+00  0.18153545757E+04  0.18153545757E+04  0.25500000000E-02 0. -1.
         -2   -1    0    0    0  501 -0.00000000000E+00 -0.00000000000E+00 -0.20957818352E+03  0.20957818353E+03  0.25500000000E-02 0.  1.
    8880023    1    1    2    0    0  0.31024090520E+03  0.87141041637E+02  0.14709960656E+04  0.16436187550E+04  0.65864270000E+03 0. -1.
    8880022    1    1    2    0    0 -0.31024090520E+03 -0.87141041637E+02  0.13478032656E+03  0.38131400425E+03  0.15294330000E+03 0.  0.
<mgrwt>
<rscale>  0 0.61237013E+03</rscale>
<asrwt>0</asrwt>
<pdfrwt beam="1">  1        2 0.27928531E+00 0.73324838E+03</pdfrwt>
<pdfrwt beam="2">  1       -2 0.32242798E-01 0.73324838E+03</pdfrwt>
<totfact> 0.77731773E+01</totfact>
</mgrwt>
</event>
<event>
 4    5  0.2025789E-007  0.1088276E+04  0.7818608E-02  0.9274223E-01
         -2   -1    0    0    0  501 -0.00000000000E+00  0.00000000000E+00  0.62300108820E+03  0.62300108821E+03  0.25500000000E-02 0.  1.
          2   -1    0    0  501    0  0.00000000000E+00 -0.00000000000E+00 -0.20560351977E+04  0.20560351977E+04  0.25500000000E-02 0. -1.
    8880023    1    1    2    0    0  0.84365945548E+03 -0.19691014994E+03 -0.11494083338E+03  0.10943292399E+04  0.65864270000E+03 0.  1.
    8880022    1    1    2    0    0 -0.84365945548E+03  0.19691014994E+03 -0.13180932762E+04  0.15847070460E+04  0.15294330000E+03 0.  0.
<mgrwt>
<rscale>  0 0.10319100E+04</rscale>
<asrwt>0</asrwt>
<pdfrwt beam="1">  1        2 0.31631310E+00 0.10882762E+04</pdfrwt>
<pdfrwt beam="2">  1       -2 0.95846322E-01 0.10882762E+04</pdfrwt>
<totfact> 0.56271357E+00</totfact>
</mgrwt>
</event>
<event>
 4    5  0.2025789E-007  0.1148255E+04  0.7818608E-02  0.9209141E-01
         -2   -1    0    0    0  501 -0.00000000000E+00  0.00000000000E+00  0.12532676327E+04  0.12532676327E+04  0.25500000000E-02 0.  1.
          2   -1    0    0  501    0  0.00000000000E+00 -0.00000000000E+00 -0.11286300985E+04  0.11286300985E+04  0.25500000000E-02 0. -1.
    8880023    1    1    2    0    0  0.39517380428E+03  0.85353232788E+03 -0.48947455564E+03  0.12482288721E+04  0.65864270000E+03 0. -1.
    8880022    1    1    2    0    0 -0.39517380428E+03 -0.85353232788E+03  0.61411208980E+03  0.11336688591E+04  0.15294330000E+03 0.  0.
<mgrwt>
<rscale>  0 0.10959578E+04</rscale>
<asrwt>0</asrwt>
<pdfrwt beam="1">  1        2 0.17363540E+00 0.11482552E+04</pdfrwt>
<pdfrwt beam="2">  1       -2 0.19281041E+00 0.11482552E+04</pdfrwt>
<totfact> 0.30319724E+00</totfact>
</mgrwt>
</event>
<event>
 4    5  0.2025789E-007  0.9170864E+03  0.7818608E-02  0.9499141E-01
          2   -1    0    0  501    0  0.00000000000E+00  0.00000000000E+00  0.15823682983E+04  0.15823682983E+04  0.25500000000E-02 0. -1.
         -2   -1    0    0    0  501 -0.00000000000E+00 -0.00000000000E+00 -0.41463669986E+03  0.41463669986E+03  0.25500000000E-02 0.  1.
    8880023    1    1    2    0    0 -0.57069269419E+03  0.28556444758E+03  0.91008629764E+03  0.12920156657E+04  0.65864270000E+03 0.  1.
    8880022    1    1    2    0    0  0.57069269419E+03 -0.28556444758E+03  0.25764530084E+03  0.70498933253E+03  0.15294330000E+03 0.  0.
<mgrwt>
<rscale>  0 0.84347181E+03</rscale>
<asrwt>0</asrwt>
<pdfrwt beam="1">  1        2 0.24344128E+00 0.91708637E+03</pdfrwt>
<pdfrwt beam="2">  1       -2 0.63790262E-01 0.91708637E+03</pdfrwt>
<totfact> 0.26105795E+01</totfact>
</mgrwt>
</event>
<event>
 4    5  0.2025789E-007  0.9537159E+03  0.7818608E-02  0.9444788E-01
         -2   -1    0    0    0  501 -0.00000000000E+00  0.00000000000E+00  0.15108708653E+04  0.15108708653E+04  0.25500000000E-02 0.  1.
          2   -1    0    0  501    0  0.00000000000E+00 -0.00000000000E+00 -0.64284703281E+03  0.64284703281E+03  0.25500000000E-02 0. -1.
    8880023    1    1    2    0    0  0.37996770452E+03 -0.57566341475E+03 -0.95983335600E+02  0.95853368774E+03  0.65864270000E+03 0.  0.
    8880022    1    1    2    0    0 -0.37996770452E+03  0.57566341475E+03  0.96400716804E+03  0.11951842103E+04  0.15294330000E+03 0.  1.
<mgrwt>
<rscale>  0 0.88479722E+03</rscale>
<asrwt>0</asrwt>
<pdfrwt beam="1">  1        2 0.98899544E-01 0.95371591E+03</pdfrwt>
<pdfrwt beam="2">  1       -2 0.23244167E+00 0.95371591E+03</pdfrwt>
<totfact> 0.37680856E+00</totfact>
</mgrwt>
</event>
<event>
 4    5  0.2025789E-007  0.6748867E+03  0.7818608E-02  0.1012378E+00
          2   -1    0    0  501    0  0.00000000000E+00  0.00000000000E+00  0.61438797572E+03  0.61438797572E+03  0.25500000000E-02 0. -1.
         -2   -1    0    0    0  501 -0.00000000000E+00 -0.00000000000E+00 -0.80550288854E+03  0.80550288854E+03  0.25500000000E-02 0.  1.
    8880023    1    1    2    0    0 -0.27068163934E+01  0.14715461923E+03  0.40502248962E+03  0.78709289933E+03  0.65864270000E+03 0. -1.
    8880022    1    1    2    0    0  0.27068163934E+01 -0.14715461923E+03 -0.59613740244E+03  0.63279796493E+03  0.15294330000E+03 0.  0.
<mgrwt>
<rscale>  0 0.50540456E+03</rscale>
<asrwt>0</asrwt>
<pdfrwt beam="1">  1        2 0.94521227E-01 0.67488667E+03</pdfrwt>
<pdfrwt beam="2">  1       -2 0.12392352E+00 0.67488667E+03</pdfrwt>
<totfact> 0.24087923E+01</totfact>
</mgrwt>
</event>
<event>
 4    5  0.2025789E-007  0.7884189E+03  0.7818608E-02  0.9736420E-01
         -2   -1    0    0    0  501 -0.00000000000E+00  0.00000000000E+00  0.28203656206E+03  0.28203656207E+03  0.25500000000E-02 0.  1.
          2   -1    0    0  501    0  0.00000000000E+00 -0.00000000000E+00 -0.24364811091E+04  0.24364811091E+04  0.25500000000E-02 0. -1.
    8880023    1    1    2    0    0 -0.40783880067E+03  0.14649800839E+03 -0.21151238988E+04  0.22572889641E+04  0.65864270000E+03 0. -1.
    8880022    1    1    2    0    0  0.40783880067E+03 -0.14649800839E+03 -0.39320648172E+02  0.46122870702E+03  0.15294330000E+03 0.  0.
<mgrwt>
<rscale>  0 0.68889155E+03</rscale>
<asrwt>0</asrwt>
<pdfrwt beam="1">  1        2 0.37484323E+00 0.78841890E+03</pdfrwt>
<pdfrwt beam="2">  1       -2 0.43390242E-01 0.78841890E+03</pdfrwt>
<totfact> 0.19810271E+01</totfact>
</mgrwt>
</event>
<event>
 4    5  0.2025789E-007  0.1082795E+04  0.7818608E-02  0.9280458E-01
          2   -1    0    0  501    0  0.00000000000E+00  0.00000000000E+00  0.18197934731E+04  0.18197934731E+04  0.25500000000E-02 0. -1.
         -2   -1    0    0    0  501 -0.00000000000E+00 -0.00000000000E+00 -0.81621355856E+03  0.81621355857E+03  0.25500000000E-02 0.  1.
    8880023    1    1    2    0    0  0.52328303200E+03 -0.68176968180E+03  0.13201757619E+04  0.17074276790E+04  0.65864270000E+03 0.  0.
    8880022    1    1    2    0    0 -0.52328303200E+03  0.68176968180E+03 -0.31659584733E+03  0.92857935265E+03  0.15294330000E+03 0.  0.
<mgrwt>
<rscale>  0 0.10260204E+04</rscale>
<asrwt>0</asrwt>
<pdfrwt beam="1">  1        2 0.27996823E+00 0.10827951E+04</pdfrwt>
<pdfrwt beam="2">  1       -2 0.12557132E+00 0.10827951E+04</pdfrwt>
<totfact> 0.39360112E+00</totfact>
</mgrwt>
</event>
<event>
 4    5  0.2025789E-007  0.9246856E+03  0.7818608E-02  0.9487512E-01
         -2   -1    0    0    0  501 -0.00000000000E+00  0.00000000000E+00  0.45034826127E+03  0.45034826127E+03  0.25500000000E-02 0.  1.
          2   -1    0    0  501    0  0.00000000000E+00 -0.00000000000E+00 -0.40512086744E+04  0.40512086744E+04  0.25500000000E-02 0. -1.
    8880023    1    1    2    0    0  0.64558382695E+03  0.66744498480E+02 -0.37121028367E+04  0.38255393060E+04  0.65864270000E+03 0. -1.
    8880022    1    1    2    0    0 -0.64558382695E+03 -0.66744498480E+02  0.11124242359E+03  0.67601762959E+03  0.15294330000E+03 0.  0.
<mgrwt>
<rscale>  0 0.85210833E+03</rscale>
<asrwt>0</asrwt>
<pdfrwt beam="1">  1        2 0.62326285E+00 0.92468563E+03</pdfrwt>
<pdfrwt beam="2">  1       -2 0.69284351E-01 0.92468563E+03</pdfrwt>
<totfact> 0.63307215E-01</totfact>
</mgrwt>
</event>
<event>
 4    5  0.2025789E-007  0.1288253E+04  0.7818608E-02  0.9075771E-01
          2   -1    0    0  501    0  0.00000000000E+00  0.00000000000E+00  0.17650165897E+04  0.17650165897E+04  0.25500000000E-02 0. -1.
         -2   -1    0    0    0  501 -0.00000000000E+00 -0.00000000000E+00 -0.85579224933E+03  0.85579224933E+03  0.25500000000E-02 0.  1.
    8880023    1    1    2    0    0 -0.24927837742E+03  0.10787243402E+04  0.75326173503E+03  0.14923134253E+04  0.65864270000E+03 0.  0.
    8880022    1    1    2    0    0  0.24927837742E+03 -0.10787243402E+04  0.15596260538E+03  0.11284954138E+04  0.15294330000E+03 0.  0.
<mgrwt>
<rscale>  0 0.12433086E+04</rscale>
<asrwt>0</asrwt>
<pdfrwt beam="1">  1        2 0.27154101E+00 0.12882531E+04</pdfrwt>
<pdfrwt beam="2">  1       -2 0.13166035E+00 0.12882531E+04</pdfrwt>
<totfact> 0.36646069E+00</totfact>
</mgrwt>
</event>
<event>
 4    5  0.2025789E-007  0.8566110E+03  0.7818608E-02  0.9599620E-01
         -2   -1    0    0    0  501 -0.00000000000E+00  0.00000000000E+00  0.43967423919E+03  0.43967423920E+03  0.25500000000E-02 0.  1.
          2   -1    0    0  501    0  0.00000000000E+00 -0.00000000000E+00 -0.20239495258E+04  0.20239495258E+04  0.25500000000E-02 0. -1.
    8880023    1    1    2    0    0 -0.29533267169E+03  0.46124921796E+03 -0.16811228380E+04  0.18867846806E+04  0.65864270000E+03 0. -1.
    8880022    1    1    2    0    0  0.29533267169E+03 -0.46124921796E+03  0.96847551456E+02  0.57683908439E+03  0.15294330000E+03 0.  1.
<mgrwt>
<rscale>  0 0.77321306E+03</rscale>
<asrwt>0</asrwt>
<pdfrwt beam="1">  1        2 0.31137684E+00 0.85661102E+03</pdfrwt>
<pdfrwt beam="2">  1       -2 0.67642192E-01 0.85661102E+03</pdfrwt>
<totfact> 0.13243798E+01</totfact>
</mgrwt>
</event>
<event>
 4    5  0.2025789E-007  0.7723191E+03  0.7818608E-02  0.9774199E-01
          2   -1    0    0  501    0  0.00000000000E+00  0.00000000000E+00  0.11565541750E+04  0.11565541750E+04  0.25500000000E-02 0. -1.
         -2   -1    0    0    0  501 -0.00000000000E+00 -0.00000000000E+00 -0.14730021325E+04  0.14730021325E+04  0.25500000000E-02 0.  1.
    8880023    1    1    2    0    0  0.39060259952E+03 -0.10048001208E+03  0.98892053309E+03  0.12547671699E+04  0.65864270000E+03 0. -1.
    8880022    1    1    2    0    0 -0.39060259952E+03  0.10048001208E+03 -0.13053684907E+04  0.13747891376E+04  0.15294330000E+03 0.  0.
<mgrwt>
<rscale>  0 0.66765748E+03</rscale>
<asrwt>0</asrwt>
<pdfrwt beam="1">  1        2 0.17793141E+00 0.77231912E+03</pdfrwt>
<pdfrwt beam="2">  1       -2 0.22661571E+00 0.77231912E+03</pdfrwt>
<totfact> 0.18555430E+00</totfact>
</mgrwt>
</event>
<event>
 4    5  0.2025789E-007  0.1079846E+04  0.7818608E-02  0.9283834E-01
          2   -1    0    0  501    0  0.00000000000E+00  0.00000000000E+00  0.17551020416E+04  0.17551020416E+04  0.25500000000E-02 0. -1.
         -2   -1    0    0    0  501 -0.00000000000E+00 -0.00000000000E+00 -0.67109585789E+03  0.67109585790E+03  0.25500000000E-02 0.  1.
    8880023    1    1    2    0    0 -0.33726493684E+02  0.85505568121E+03  0.11205078468E+04  0.15561509359E+04  0.65864270000E+03 0.  0.
    8880022    1    1    2    0    0  0.33726493684E+02 -0.85505568121E+03 -0.36501663134E+02  0.87004696355E+03  0.15294330000E+03 0.  0.
<mgrwt>
<rscale>  0 0.10228489E+04</rscale>
<asrwt>0</asrwt>
<pdfrwt beam="1">  1        2 0.27001570E+00 0.10798462E+04</pdfrwt>
<pdfrwt beam="2">  1       -2 0.10324552E+00 0.10798462E+04</pdfrwt>
<totfact> 0.69171318E+00</totfact>
</mgrwt>
</event>
<event>
 4    5  0.2025789E-007  0.1305935E+04  0.7818608E-02  0.9060452E-01
         -2   -1    0    0    0  501 -0.00000000000E+00  0.00000000000E+00  0.86746971522E+03  0.86746971523E+03  0.25500000000E-02 0.  1.
          2   -1    0    0  501    0  0.00000000000E+00 -0.00000000000E+00 -0.26504217843E+04  0.26504217843E+04  0.25500000000E-02 0. -1.
    8880023    1    1    2    0    0 -0.10961249505E+04  0.26488672754E+03 -0.19710755551E+04  0.23644457988E+04  0.65864270000E+03 0.  0.
    8880022    1    1    2    0    0  0.10961249505E+04 -0.26488672754E+03  0.18812348603E+03  0.11534457007E+04  0.15294330000E+03 0.  0.
<mgrwt>
<rscale>  0 0.12617599E+04</rscale>
<asrwt>0</asrwt>
<pdfrwt beam="1">  1        2 0.40775719E+00 0.13059346E+04</pdfrwt>
<pdfrwt beam="2">  1       -2 0.13345688E+00 0.13059346E+04</pdfrwt>
<totfact> 0.11180390E+00</totfact>
</mgrwt>
</event>
<event>
 4    5  0.2025789E-007  0.1520080E+04  0.7818608E-02  0.8895585E-01
         -2   -1    0    0    0  501 -0.00000000000E+00  0.00000000000E+00  0.19790143033E+04  0.19790143033E+04  0.25500000000E-02 0.  1.
          2   -1    0    0  501    0  0.00000000000E+00 -0.00000000000E+00 -0.10694448016E+04  0.10694448016E+04  0.25500000000E-02 0. -1.
    8880023    1    1    2    0    0 -0.76657784794E+03  0.11354258370E+04  0.60930411512E+03  0.16376492723E+04  0.65864270000E+03 0. -1.
    8880022    1    1    2    0    0  0.76657784794E+03 -0.11354258370E+04  0.30026538663E+03  0.14108098326E+04  0.15294330000E+03 0.  0.
<mgrwt>
<rscale>  0 0.14833734E+04</rscale>
<asrwt>0</asrwt>
<pdfrwt beam="1">  1        2 0.16452997E+00 0.15200801E+04</pdfrwt>
<pdfrwt beam="2">  1       -2 0.30446374E+00 0.15200801E+04</pdfrwt>
<totfact> 0.64182912E-01</totfact>
</mgrwt>
</event>
<event>
 4    5  0.2025789E-007  0.1051265E+04  0.7818608E-02  0.9317363E-01
         -2   -1    0    0    0  501 -0.00000000000E+00  0.00000000000E+00  0.31124505468E+03  0.31124505469E+03  0.25500000000E-02 0.  1.
          2   -1    0    0  501    0  0.00000000000E+00 -0.00000000000E+00 -0.29952695979E+04  0.29952695979E+04  0.25500000000E-02 0. -1.
    8880023    1    1    2    0    0  0.74744329724E+03 -0.33567202932E+03 -0.11321519585E+04  0.15449677852E+04  0.65864270000E+03 0.  0.
    8880022    1    1    2    0    0 -0.74744329724E+03  0.33567202932E+03 -0.15518725847E+04  0.17615468674E+04  0.15294330000E+03 0.  0.
<mgrwt>
<rscale>  0 0.99200018E+03</rscale>
<asrwt>0</asrwt>
<pdfrwt beam="1">  1        2 0.46081069E+00 0.10512647E+04</pdfrwt>
<pdfrwt beam="2">  1       -2 0.47883857E-01 0.10512647E+04</pdfrwt>
<totfact> 0.73605307E+00</totfact>
</mgrwt>
</event>
<event>
 4    5  0.2025789E-007  0.6644233E+03  0.7818608E-02  0.1020022E+00
         -2   -1    0    0    0  501 -0.00000000000E+00  0.00000000000E+00  0.23335254057E+03  0.23335254059E+03  0.25500000000E-02 0.  1.
          2   -1    0    0  501    0  0.00000000000E+00 -0.00000000000E+00 -0.43351271743E+04  0.43351271743E+04  0.25500000000E-02 0. -1.
    8880023    1    1    2    0    0  0.47233685533E+02 -0.73600945910E+02 -0.42720814553E+04  0.43234405613E+04  0.65864270000E+03 0. -1.
    8880022    1    1    2    0    0 -0.47233685533E+02  0.73600945910E+02  0.17030682158E+03  0.24503915356E+03  0.15294330000E+03 0.  0.
<mgrwt>
<rscale>  0 0.47678596E+03</rscale>
<asrwt>0</asrwt>
<pdfrwt beam="1">  1        2 0.66694258E+00 0.66442330E+03</pdfrwt>
<pdfrwt beam="2">  1       -2 0.35900394E-01 0.66442330E+03</pdfrwt>
<totfact> 0.14838871E+00</totfact>
</mgrwt>
</event>
<event>
 4    5  0.2025789E-007  0.9947450E+03  0.7818608E-02  0.9388465E-01
         -2   -1    0    0    0  501 -0.00000000000E+00  0.00000000000E+00  0.12509584391E+04  0.12509584391E+04  0.25500000000E-02 0.  1.
          2   -1    0    0  501    0  0.00000000000E+00 -0.00000000000E+00 -0.10439676372E+04  0.10439676372E+04  0.25500000000E-02 0. -1.
    8880023    1    1    2    0    0  0.15601791355E+03  0.72894839849E+03 -0.61916588419E+03  0.11717013081E+04  0.65864270000E+03 0.  0.
    8880022    1    1    2    0    0 -0.15601791355E+03 -0.72894839849E+03  0.82615668608E+03  0.11232247682E+04  0.15294330000E+03 0.  0.
<mgrwt>
<rscale>  0 0.93031049E+03</rscale>
<asrwt>0</asrwt>
<pdfrwt beam="1">  1        2 0.16061041E+00 0.99474497E+03</pdfrwt>
<pdfrwt beam="2">  1       -2 0.19245514E+00 0.99474497E+03</pdfrwt>
<totfact> 0.34971663E+00</totfact>
</mgrwt>
</event>
<event>
 4    5  0.2025789E-007  0.7182103E+03  0.7818608E-02  0.9928689E-01
          2   -1    0    0  501    0  0.00000000000E+00  0.00000000000E+00  0.19854870655E+04  0.19854870655E+04  0.25500000000E-02 0. -1.
         -2   -1    0    0    0  501 -0.00000000000E+00 -0.00000000000E+00 -0.17999195005E+03  0.17999195007E+03  0.25500000000E-02 0.  1.
    8880023    1    1    2    0    0 -0.49592618585E+02  0.28205736890E+03  0.16619465075E+04  0.18104950116E+04  0.65864270000E+03 0. -1.
    8880022    1    1    2    0    0  0.49592618585E+02 -0.28205736890E+03  0.14354860792E+03  0.35498400389E+03  0.15294330000E+03 0.  0.
<mgrwt>
<rscale>  0 0.58890822E+03</rscale>
<asrwt>0</asrwt>
<pdfrwt beam="1">  1        2 0.30545953E+00 0.71821027E+03</pdfrwt>
<pdfrwt beam="2">  1       -2 0.27691071E-01 0.71821027E+03</pdfrwt>
<totfact> 0.83411908E+01</totfact>
</mgrwt>
</event>
<event>
 4    5  0.2025789E-007  0.7862137E+03  0.7818608E-02  0.9741438E-01
          2   -1    0    0  501    0  0.00000000000E+00  0.00000000000E+00  0.21232667379E+04  0.21232667380E+04  0.25500000000E-02 0. -1.
         -2   -1    0    0    0  501 -0.00000000000E+00 -0.00000000000E+00 -0.37713693703E+03  0.37713693704E+03  0.25500000000E-02 0.  1.
    8880023    1    1    2    0    0  0.36993143281E+03  0.21788178294E+03  0.18696284553E+04  0.20282116516E+04  0.65864270000E+03 0. -1.
    8880022    1    1    2    0    0 -0.36993143281E+03 -0.21788178294E+03 -0.12349865442E+03  0.47219202341E+03  0.15294330000E+03 0.  0.
<mgrwt>
<rscale>  0 0.68602273E+03</rscale>
<asrwt>0</asrwt>
<pdfrwt beam="1">  1        2 0.32665642E+00 0.78621367E+03</pdfrwt>
<pdfrwt beam="2">  1       -2 0.58021067E-01 0.78621367E+03</pdfrwt>
<totfact> 0.16360253E+01</totfact>
</mgrwt>
</event>
<event>
 4    5  0.2025789E-007  0.8974310E+03  0.7818608E-02  0.9530168E-01
          2   -1    0    0  501    0  0.00000000000E+00  0.00000000000E+00  0.67084723580E+03  0.67084723581E+03  0.25500000000E-02 0. -1.
         -2   -1    0    0    0  501 -0.00000000000E+00 -0.00000000000E+00 -0.93457111759E+03  0.93457111759E+03  0.25500000000E-02 0.  1.
    8880023    1    1    2    0    0 -0.39811558937E+03  0.46160175453E+03  0.58174691874E+02  0.89931457418E+03  0.65864270000E+03 0.  0.
    8880022    1    1    2    0    0  0.39811558937E+03 -0.46160175453E+03 -0.32189857366E+03  0.70610377922E+03  0.15294330000E+03 0.  0.
<mgrwt>
<rscale>  0 0.82095712E+03</rscale>
<asrwt>0</asrwt>
<pdfrwt beam="1">  1        2 0.10320727E+00 0.89743100E+03</pdfrwt>
<pdfrwt beam="2">  1       -2 0.14378017E+00 0.89743100E+03</pdfrwt>
<totfact> 0.14498042E+01</totfact>
</mgrwt>
</event>
<event>
 4    5  0.2025789E-007  0.1222105E+04  0.7818608E-02  0.9135929E-01
          2   -1    0    0  501    0  0.00000000000E+00  0.00000000000E+00  0.21188348728E+04  0.21188348728E+04  0.25500000000E-02 0. -1.
         -2   -1    0    0    0  501 -0.00000000000E+00 -0.00000000000E+00 -0.13889033571E+04  0.13889033571E+04  0.25500000000E-02 0.  1.
    8880023    1    1    2    0    0  0.74249417643E+03  0.71304417411E+03  0.16941832350E+04  0.20889702335E+04  0.65864270000E+03 0.  0.
    8880022    1    1    2    0    0 -0.74249417643E+03 -0.71304417411E+03 -0.96425171938E+03  0.14187679964E+04  0.15294330000E+03 0.  0.
<mgrwt>
<rscale>  0 0.11739942E+04</rscale>
<asrwt>0</asrwt>
<pdfrwt beam="1">  1        2 0.32597460E+00 0.12221047E+04</pdfrwt>
<pdfrwt beam="2">  1       -2 0.21367744E+00 0.12221047E+04</pdfrwt>
<totfact> 0.60291483E-01</totfact>
</mgrwt>
</event>
<event>
 4    5  0.2025789E-007  0.1030068E+04  0.7818608E-02  0.9343235E-01
         -2   -1    0    0    0  501 -0.00000000000E+00  0.00000000000E+00  0.51613432518E+03  0.51613432519E+03  0.25500000000E-02 0.  1.
          2   -1    0    0  501    0  0.00000000000E+00 -0.00000000000E+00 -0.19397603475E+04  0.19397603475E+04  0.25500000000E-02 0. -1.
    8880023    1    1    2    0    0 -0.66717918304E+03  0.42673363941E+03 -0.12692626696E+04  0.16346460143E+04  0.65864270000E+03 0.  0.
    8880022    1    1    2    0    0  0.66717918304E+03 -0.42673363941E+03 -0.15436335274E+03  0.82124865843E+03  0.15294330000E+03 0.  0.
<mgrwt>
<rscale>  0 0.96898136E+03</rscale>
<asrwt>0</asrwt>
<pdfrwt beam="1">  1        2 0.29842467E+00 0.10300679E+04</pdfrwt>
<pdfrwt beam="2">  1       -2 0.79405282E-01 0.10300679E+04</pdfrwt>
<totfact> 0.10126025E+01</totfact>
</mgrwt>
</event>
<event>
 4    5  0.2025789E-007  0.6727518E+03  0.7818608E-02  0.1013762E+00
         -2   -1    0    0    0  501 -0.00000000000E+00  0.00000000000E+00  0.28064500535E+03  0.28064500536E+03  0.25500000000E-02 0.  1.
          2   -1    0    0  501    0  0.00000000000E+00 -0.00000000000E+00 -0.74966486804E+03  0.74966486804E+03  0.25500000000E-02 0. -1.
    8880023    1    1    2    0    0  0.14027447751E+02  0.13633761219E+03 -0.47714534919E+03  0.82478033700E+03  0.65864270000E+03 0.  0.
    8880022    1    1    2    0    0 -0.14027447751E+02 -0.13633761219E+03  0.81254865023E+01  0.20552953640E+03  0.15294330000E+03 0.  0.
<mgrwt>
<rscale>  0 0.50006306E+03</rscale>
<asrwt>0</asrwt>
<pdfrwt beam="1">  1        2 0.11533306E+00 0.67275175E+03</pdfrwt>
<pdfrwt beam="2">  1       -2 0.43176155E-01 0.67275175E+03</pdfrwt>
<totfact> 0.19348112E+02</totfact>
</mgrwt>
</event>
<event>
 4    5  0.2025789E-007  0.1162749E+04  0.7818608E-02  0.9194212E-01
         -2   -1    0    0    0  501 -0.00000000000E+00  0.00000000000E+00  0.13264907731E+04  0.13264907731E+04  0.25500000000E-02 0.  1.
          2   -1    0    0  501    0  0.00000000000E+00 -0.00000000000E+00 -0.11788133740E+04  0.11788133740E+04  0.25500000000E-02 0. -1.
    8880023    1    1    2    0    0 -0.93251105615E+03  0.22044844745E+03 -0.57332810097E+03  0.12964141720E+04  0.65864270000E+03 0.  0.
    8880022    1    1    2    0    0  0.93251105615E+03 -0.22044844745E+03  0.72100550008E+03  0.12088899751E+04  0.15294330000E+03 0.  0.
<mgrwt>
<rscale>  0 0.11113369E+04</rscale>
<asrwt>0</asrwt>
<pdfrwt beam="1">  1        2 0.18135590E+00 0.11627487E+04</pdfrwt>
<pdfrwt beam="2">  1       -2 0.20407550E+00 0.11627487E+04</pdfrwt>
<totfact> 0.23782066E+00</totfact>
</mgrwt>
</event>
<event>
 4    5  0.2025789E-007  0.7778871E+03  0.7818608E-02  0.9760824E-01
         -2   -1    0    0    0  501 -0.00000000000E+00  0.00000000000E+00  0.90103191633E+03  0.90103191633E+03  0.25500000000E-02 0.  1.
          2   -1    0    0  501    0  0.00000000000E+00 -0.00000000000E+00 -0.13690890290E+04  0.13690890290E+04  0.25500000000E-02 0. -1.
    8880023    1    1    2    0    0  0.44562178288E+02 -0.41147584454E+03 -0.11913753525E+04  0.14228434893E+04  0.65864270000E+03 0.  0.
    8880022    1    1    2    0    0 -0.44562178288E+02  0.41147584454E+03  0.72331823982E+03  0.84727745600E+03  0.15294330000E+03 0.  0.
<mgrwt>
<rscale>  0 0.67508015E+03</rscale>
<asrwt>0</asrwt>
<pdfrwt beam="1">  1        2 0.21062908E+00 0.77788712E+03</pdfrwt>
<pdfrwt beam="2">  1       -2 0.13862029E+00 0.77788712E+03</pdfrwt>
<totfact> 0.56630914E+00</totfact>
</mgrwt>
</event>
<event>
 4    5  0.2025789E-007  0.1036932E+04  0.7818608E-02  0.9334759E-01
         -2   -1    0    0    0  501 -0.00000000000E+00  0.00000000000E+00  0.11978253312E+04  0.11978253312E+04  0.25500000000E-02 0.  1.
          2   -1    0    0  501    0  0.00000000000E+00 -0.00000000000E+00 -0.84958484867E+03  0.84958484868E+03  0.25500000000E-02 0. -1.
    8880023    1    1    2    0    0  0.75055196607E+03  0.27944397759E+03 -0.21166986709E+03  0.10583154205E+04  0.65864270000E+03 0.  0.
    8880022    1    1    2    0    0 -0.75055196607E+03 -0.27944397759E+03  0.55991034962E+03  0.98909475937E+03  0.15294330000E+03 0.  0.
<mgrwt>
<rscale>  0 0.97644935E+03</rscale>
<asrwt>0</asrwt>
<pdfrwt beam="1">  1        2 0.13070536E+00 0.10369317E+04</pdfrwt>
<pdfrwt beam="2">  1       -2 0.18428082E+00 0.10369317E+04</pdfrwt>
<totfact> 0.53194852E+00</totfact>
</mgrwt>
</event>
<event>
 4    5  0.2025789E-007  0.1130819E+04  0.7818608E-02  0.9227495E-01
         -2   -1    0    0    0  501 -0.00000000000E+00  0.00000000000E+00  0.13194785929E+04  0.13194785929E+04  0.25500000000E-02 0.  1.
          2   -1    0    0  501    0  0.00000000000E+00 -0.00000000000E+00 -0.12519204511E+04  0.12519204511E+04  0.25500000000E-02 0. -1.
    8880023    1    1    2    0    0 -0.31797214318E+03 -0.86245824220E+03 -0.72905274791E+03  0.13454622324E+04  0.65864270000E+03 0.  0.
    8880022    1    1    2    0    0  0.31797214318E+03  0.86245824220E+03  0.79661088972E+03  0.12259368116E+04  0.15294330000E+03 0.  0.
<mgrwt>
<rscale>  0 0.10774086E+04</rscale>
<asrwt>0</asrwt>
<pdfrwt beam="1">  1        2 0.19260315E+00 0.11308186E+04</pdfrwt>
<pdfrwt beam="2">  1       -2 0.20299671E+00 0.11308186E+04</pdfrwt>
<totfact> 0.21929330E+00</totfact>
</mgrwt>
</event>
<event>
 4    5  0.2025789E-007  0.1161836E+04  0.7818608E-02  0.9195144E-01
          2   -1    0    0  501    0  0.00000000000E+00  0.00000000000E+00  0.25232721966E+04  0.25232721966E+04  0.25500000000E-02 0. -1.
         -2   -1    0    0    0  501 -0.00000000000E+00 -0.00000000000E+00 -0.14075116513E+04  0.14075116513E+04  0.25500000000E-02 0.  1.
    8880023    1    1    2    0    0 -0.28794009261E+03 -0.91276670511E+03  0.21929561611E+04  0.24817170439E+04  0.65864270000E+03 0.  0.
    8880022    1    1    2    0    0  0.28794009261E+03  0.91276670511E+03 -0.10771956158E+04  0.14490668040E+04  0.15294330000E+03 0.  0.
<mgrwt>
<rscale>  0 0.11103694E+04</rscale>
<asrwt>0</asrwt>
<pdfrwt beam="1">  1        2 0.38819572E+00 0.11618359E+04</pdfrwt>
<pdfrwt beam="2">  1       -2 0.21654026E+00 0.11618359E+04</pdfrwt>
<totfact> 0.34447256E-01</totfact>
</mgrwt>
</event>
<event>
 4    5  0.2025789E-007  0.9147633E+03  0.7818608E-02  0.9502736E-01
          2   -1    0    0  501    0  0.00000000000E+00  0.00000000000E+00  0.10889210741E+04  0.10889210741E+04  0.25500000000E-02 0. -1.
         -2   -1    0    0    0  501 -0.00000000000E+00 -0.00000000000E+00 -0.17194510102E+04  0.17194510102E+04  0.25500000000E-02 0.  1.
    8880023    1    1    2    0    0  0.63368115588E+03 -0.37813311292E+02  0.81312425736E+03  0.12239129536E+04  0.65864270000E+03 0. -1.
    8880022    1    1    2    0    0 -0.63368115588E+03  0.37813311292E+02 -0.14436541934E+04  0.15844591308E+04  0.15294330000E+03 0.  0.
<mgrwt>
<rscale>  0 0.84082438E+03</rscale>
<asrwt>0</asrwt>
<pdfrwt beam="1">  1        2 0.16752632E+00 0.91476328E+03</pdfrwt>
<pdfrwt beam="2">  1       -2 0.26453093E+00 0.91476328E+03</pdfrwt>
<totfact> 0.11710832E+00</totfact>
</mgrwt>
</event>
<event>
 4    5  0.2025789E-007  0.1729147E+04  0.7818608E-02  0.8762776E-01
          2   -1    0    0  501    0  0.00000000000E+00  0.00000000000E+00  0.34074702196E+04  0.34074702196E+04  0.25500000000E-02 0. -1.
         -2   -1    0    0    0  501 -0.00000000000E+00 -0.00000000000E+00 -0.13596796413E+04  0.13596796413E+04  0.25500000000E-02 0.  1.
    8880023    1    1    2    0    0  0.80406942527E+03  0.13818875430E+04  0.25530062388E+04  0.30834707529E+04  0.65864270000E+03 0.  0.
    8880022    1    1    2    0    0 -0.80406942527E+03 -0.13818875430E+04 -0.50521566057E+03  0.16836791080E+04  0.15294330000E+03 0.  0.
<mgrwt>
<rscale>  0 0.16975269E+04</rscale>
<asrwt>0</asrwt>
<pdfrwt beam="1">  1        2 0.52422618E+00 0.17291475E+04</pdfrwt>
<pdfrwt beam="2">  1       -2 0.20918149E+00 0.17291475E+04</pdfrwt>
<totfact> 0.10038887E-01</totfact>
</mgrwt>
</event>
<event>
 4    5  0.2025789E-007  0.1253847E+04  0.7818608E-02  0.9106477E-01
         -2   -1    0    0    0  501 -0.00000000000E+00  0.00000000000E+00  0.11348487731E+04  0.11348487731E+04  0.25500000000E-02 0.  1.
          2   -1    0    0  501    0  0.00000000000E+00 -0.00000000000E+00 -0.22752739731E+04  0.22752739731E+04  0.25500000000E-02 0. -1.
    8880023    1    1    2    0    0  0.46231025764E+03 -0.96155712098E+03 -0.17645260453E+04  0.21646443685E+04  0.65864270000E+03 0.  0.
    8880022    1    1    2    0    0 -0.46231025764E+03  0.96155712098E+03  0.62410084525E+03  0.12454783777E+04  0.15294330000E+03 0.  0.
<mgrwt>
<rscale>  0 0.12073159E+04</rscale>
<asrwt>0</asrwt>
<pdfrwt beam="1">  1        2 0.35004215E+00 0.12538473E+04</pdfrwt>
<pdfrwt beam="2">  1       -2 0.17459212E+00 0.12538473E+04</pdfrwt>
<totfact> 0.89587821E-01</totfact>
</mgrwt>
</event>
<event>
 4    5  0.2025789E-007  0.7786271E+03  0.7818608E-02  0.9759072E-01
          2   -1    0    0  501    0  0.00000000000E+00  0.00000000000E+00  0.40344271664E+03  0.40344271665E+03  0.25500000000E-02 0. -1.
         -2   -1    0    0    0  501 -0.00000000000E+00 -0.00000000000E+00 -0.14062411686E+04  0.14062411686E+04  0.25500000000E-02 0.  1.
    8880023    1    1    2    0    0 -0.24737909029E+03 -0.33354694780E+03 -0.75598582805E+02  0.78228852266E+03  0.65864270000E+03 0. -1.
    8880022    1    1    2    0    0  0.24737909029E+03  0.33354694780E+03 -0.92719986915E+03  0.10273953626E+04  0.15294330000E+03 0.  0.
<mgrwt>
<rscale>  0 0.67606005E+03</rscale>
<asrwt>0</asrwt>
<pdfrwt beam="1">  1        2 0.62068111E-01 0.77862712E+03</pdfrwt>
<pdfrwt beam="2">  1       -2 0.21634479E+00 0.77862712E+03</pdfrwt>
<totfact> 0.83615263E+00</totfact>
</mgrwt>
</event>
<event>
 4    5  0.2025789E-007  0.9391014E+03  0.7818608E-02  0.9465971E-01
          2   -1    0    0  501    0  0.00000000000E+00  0.00000000000E+00  0.17835470280E+04  0.17835470280E+04  0.25500000000E-02 0. -1.
         -2   -1    0    0    0  501 -0.00000000000E+00 -0.00000000000E+00 -0.75505091808E+03  0.75505091808E+03  0.25500000000E-02 0.  1.
    8880023    1    1    2    0    0 -0.37583186693E+03 -0.55394192251E+03  0.14539201127E+04  0.17308365451E+04  0.65864270000E+03 0.  0.
    8880022    1    1    2    0    0  0.37583186693E+03  0.55394192251E+03 -0.42542400275E+03  0.80776140094E+03  0.15294330000E+03 0.  0.
<mgrwt>
<rscale>  0 0.86839790E+03</rscale>
<asrwt>0</asrwt>
<pdfrwt beam="1">  1        2 0.27439185E+00 0.93910141E+03</pdfrwt>
<pdfrwt beam="2">  1       -2 0.11616168E+00 0.93910141E+03</pdfrwt>
<totfact> 0.50906914E+00</totfact>
</mgrwt>
</event>
<event>
 4    5  0.2025789E-007  0.1094646E+04  0.7818608E-02  0.9267040E-01
          2   -1    0    0  501    0  0.00000000000E+00  0.00000000000E+00  0.35906328009E+04  0.35906328009E+04  0.25500000000E-02 0. -1.
         -2   -1    0    0    0  501 -0.00000000000E+00 -0.00000000000E+00 -0.39118785729E+03  0.39118785730E+03  0.25500000000E-02 0.  1.
    8880023    1    1    2    0    0  0.87370856319E+03 -0.32764548717E+02  0.28040431736E+04  0.30101342984E+04  0.65864270000E+03 0.  0.
    8880022    1    1    2    0    0 -0.87370856319E+03  0.32764548717E+02  0.39540177007E+03  0.97168635981E+03  0.15294330000E+03 0.  0.
<mgrwt>
<rscale>  0 0.10387464E+04</rscale>
<asrwt>0</asrwt>
<pdfrwt beam="1">  1        2 0.55240503E+00 0.10946462E+04</pdfrwt>
<pdfrwt beam="2">  1       -2 0.60182749E-01 0.10946462E+04</pdfrwt>
<totfact> 0.18478169E+00</totfact>
</mgrwt>
</event>
<event>
 4    5  0.2025789E-007  0.7537215E+03  0.7818608E-02  0.9821641E-01
          2   -1    0    0  501    0  0.00000000000E+00  0.00000000000E+00  0.21576694168E+04  0.21576694168E+04  0.25500000000E-02 0. -1.
         -2   -1    0    0    0  501 -0.00000000000E+00 -0.00000000000E+00 -0.27683404537E+03  0.27683404538E+03  0.25500000000E-02 0.  1.
    8880023    1    1    2    0    0 -0.27784770914E+02  0.36539563956E+03  0.18926837939E+04  0.20372403189E+04  0.65864270000E+03 0. -1.
    8880022    1    1    2    0    0  0.27784770914E+02 -0.36539563956E+03 -0.11848422452E+02  0.39726314332E+03  0.15294330000E+03 0.  0.
<mgrwt>
<rscale>  0 0.64213960E+03</rscale>
<asrwt>0</asrwt>
<pdfrwt beam="1">  1        2 0.33194915E+00 0.75372155E+03</pdfrwt>
<pdfrwt beam="2">  1       -2 0.42589852E-01 0.75372155E+03</pdfrwt>
<totfact> 0.29514369E+01</totfact>
</mgrwt>
</event>
<event>
 4    5  0.2025789E-007  0.1483251E+04  0.7818608E-02  0.8921555E-01
          2   -1    0    0  501    0  0.00000000000E+00  0.00000000000E+00  0.54173681717E+03  0.54173681717E+03  0.25500000000E-02 0. -1.
         -2   -1    0    0    0  501 -0.00000000000E+00 -0.00000000000E+00 -0.49811269438E+04  0.49811269438E+04  0.25500000000E-02 0.  1.
    8880023    1    1    2    0    0  0.12099227570E+04 -0.54982660144E+03 -0.37181013229E+04  0.40030375995E+04  0.65864270000E+03 0.  0.
    8880022    1    1    2    0    0 -0.12099227570E+04  0.54982660144E+03 -0.72128880371E+03  0.15198261614E+04  0.15294330000E+03 0.  0.
<mgrwt>
<rscale>  0 0.14454592E+04</rscale>
<asrwt>0</asrwt>
<pdfrwt beam="1">  1        2 0.83344129E-01 0.14832507E+04</pdfrwt>
<pdfrwt beam="2">  1       -2 0.76632719E+00 0.14832507E+04</pdfrwt>
<totfact> 0.65453987E-03</totfact>
</mgrwt>
</event>
<event>
 4    5  0.2025789E-007  0.1328971E+04  0.7818608E-02  0.9040937E-01
         -2   -1    0    0    0  501 -0.00000000000E+00  0.00000000000E+00  0.14691557654E+04  0.14691557654E+04  0.25500000000E-02 0.  1.
          2   -1    0    0  501    0  0.00000000000E+00 -0.00000000000E+00 -0.17208187791E+04  0.17208187791E+04  0.25500000000E-02 0. -1.
    8880023    1    1    2    0    0  0.11542743825E+04 -0.19848497702E+01 -0.11195962112E+04  0.17377166547E+04  0.65864270000E+03 0.  0.
    8880022    1    1    2    0    0 -0.11542743825E+04  0.19848497702E+01  0.86793319755E+03  0.14522578897E+04  0.15294330000E+03 0.  0.
<mgrwt>
<rscale>  0 0.12857568E+04</rscale>
<asrwt>0</asrwt>
<pdfrwt beam="1">  1        2 0.26474135E+00 0.13289708E+04</pdfrwt>
<pdfrwt beam="2">  1       -2 0.22602396E+00 0.13289708E+04</pdfrwt>
<totfact> 0.82673348E-01</totfact>
</mgrwt>
</event>
<event>
 4    5  0.2025789E-007  0.1702506E+04  0.7818608E-02  0.8778474E-01
          2   -1    0    0  501    0  0.00000000000E+00  0.00000000000E+00  0.16530684321E+04  0.16530684321E+04  0.25500000000E-02 0. -1.
         -2   -1    0    0    0  501 -0.00000000000E+00 -0.00000000000E+00 -0.29540231663E+04  0.29540231663E+04  0.25500000000E-02 0.  1.
    8880023    1    1    2    0    0  0.70664730201E+03  0.14019153250E+04  0.87922038825E+03  0.19161303936E+04  0.65864270000E+03 0. -1.
    8880022    1    1    2    0    0 -0.70664730201E+03 -0.14019153250E+04 -0.21801751225E+04  0.26909612048E+04  0.15294330000E+03 0.  0.
<mgrwt>
<rscale>  0 0.16703219E+04</rscale>
<asrwt>0</asrwt>
<pdfrwt beam="1">  1        2 0.25431822E+00 0.17025062E+04</pdfrwt>
<pdfrwt beam="2">  1       -2 0.45446510E+00 0.17025062E+04</pdfrwt>
<totfact> 0.30928515E-02</totfact>
</mgrwt>
</event>
<event>
 4    5  0.2025789E-007  0.9631184E+03  0.7818608E-02  0.9431486E-01
         -2   -1    0    0    0  501 -0.00000000000E+00  0.00000000000E+00  0.61004502241E+03  0.61004502241E+03  0.25500000000E-02 0.  1.
          2   -1    0    0  501    0  0.00000000000E+00 -0.00000000000E+00 -0.22374054337E+04  0.22374054337E+04  0.25500000000E-02 0. -1.
    8880023    1    1    2    0    0  0.69562844113E+03  0.99437694567E+02 -0.18575239627E+04  0.20923652313E+04  0.65864270000E+03 0. -1.
    8880022    1    1    2    0    0 -0.69562844113E+03 -0.99437694567E+02  0.23016355140E+03  0.75508522474E+03  0.15294330000E+03 0.  0.
<mgrwt>
<rscale>  0 0.89529220E+03</rscale>
<asrwt>0</asrwt>
<pdfrwt beam="1">  1        2 0.34421622E+00 0.96311837E+03</pdfrwt>
<pdfrwt beam="2">  1       -2 0.93853081E-01 0.96311837E+03</pdfrwt>
<totfact> 0.47605263E+00</totfact>
</mgrwt>
</event>
<event>
 4    5  0.2025789E-007  0.1070302E+04  0.7818608E-02  0.9294865E-01
          2   -1    0    0  501    0  0.00000000000E+00  0.00000000000E+00  0.20062819805E+04  0.20062819805E+04  0.25500000000E-02 0. -1.
         -2   -1    0    0    0  501 -0.00000000000E+00 -0.00000000000E+00 -0.10003501543E+04  0.10003501543E+04  0.25500000000E-02 0.  1.
    8880023    1    1    2    0    0 -0.26905307013E+03  0.79959101588E+03  0.16273162793E+04  0.19477432650E+04  0.65864270000E+03 0.  0.
    8880022    1    1    2    0    0  0.26905307013E+03 -0.79959101588E+03 -0.62138445309E+03  0.10588888699E+04  0.15294330000E+03 0.  0.
<mgrwt>
<rscale>  0 0.10125697E+04</rscale>
<asrwt>0</asrwt>
<pdfrwt beam="1">  1        2 0.30865876E+00 0.10703016E+04</pdfrwt>
<pdfrwt beam="2">  1       -2 0.15390003E+00 0.10703016E+04</pdfrwt>
<totfact> 0.18330106E+00</totfact>
</mgrwt>
</event>
<event>
 4    5  0.2025789E-007  0.8490031E+03  0.7818608E-02  0.9613432E-01
          2   -1    0    0  501    0  0.00000000000E+00  0.00000000000E+00  0.14712796634E+04  0.14712796634E+04  0.25500000000E-02 0. -1.
         -2   -1    0    0    0  501 -0.00000000000E+00 -0.00000000000E+00 -0.69900782750E+03  0.69900782750E+03  0.25500000000E-02 0.  1.
    8880023    1    1    2    0    0 -0.53069482134E+03  0.73205508657E+02  0.11985527382E+04  0.14687868846E+04  0.65864270000E+03 0.  0.
    8880022    1    1    2    0    0  0.53069482134E+03 -0.73205508657E+02 -0.42628090233E+03  0.70150060627E+03  0.15294330000E+03 0.  0.
<mgrwt>
<rscale>  0 0.76413486E+03</rscale>
<asrwt>0</asrwt>
<pdfrwt beam="1">  1        2 0.22635072E+00 0.84900309E+03</pdfrwt>
<pdfrwt beam="2">  1       -2 0.10753967E+00 0.84900309E+03</pdfrwt>
<totfact> 0.92490921E+00</totfact>
</mgrwt>
</event>
<event>
 4    5  0.2025789E-007  0.7869110E+03  0.7818608E-02  0.9739846E-01
          2   -1    0    0  501    0  0.00000000000E+00  0.00000000000E+00  0.19680814268E+04  0.19680814268E+04  0.25500000000E-02 0. -1.
         -2   -1    0    0    0  501 -0.00000000000E+00 -0.00000000000E+00 -0.32699794195E+03  0.32699794196E+03  0.25500000000E-02 0.  1.
    8880023    1    1    2    0    0 -0.34282424562E+03 -0.26055752753E+03  0.24202939036E+03  0.82329042300E+03  0.65864270000E+03 0.  0.
    8880022    1    1    2    0    0  0.34282424562E+03  0.26055752753E+03  0.13990540945E+04  0.14717889458E+04  0.15294330000E+03 0.  0.
<mgrwt>
<rscale>  0 0.68693114E+03</rscale>
<asrwt>0</asrwt>
<pdfrwt beam="1">  1        2 0.30278175E+00 0.78691098E+03</pdfrwt>
<pdfrwt beam="2">  1       -2 0.50307377E-01 0.78691098E+03</pdfrwt>
<totfact> 0.26725447E+01</totfact>
</mgrwt>
</event>
<event>
 4    5  0.2025789E-007  0.8065725E+03  0.7818608E-02  0.9696761E-01
         -2   -1    0    0    0  501 -0.00000000000E+00  0.00000000000E+00  0.16295974661E+04  0.16295974661E+04  0.25500000000E-02 0.  1.
          2   -1    0    0  501    0  0.00000000000E+00 -0.00000000000E+00 -0.27691965659E+03  0.27691965660E+03  0.25500000000E-02 0. -1.
    8880023    1    1    2    0    0 -0.23866817071E+03 -0.39973296161E+03  0.58743818589E+03  0.99781900403E+03  0.65864270000E+03 0.  0.
    8880022    1    1    2    0    0  0.23866817071E+03  0.39973296161E+03  0.76523962364E+03  0.90869811869E+03  0.15294330000E+03 0.  0.
<mgrwt>
<rscale>  0 0.71209960E+03</rscale>
<asrwt>0</asrwt>
<pdfrwt beam="1">  1        2 0.42603025E-01 0.80657247E+03</pdfrwt>
<pdfrwt beam="2">  1       -2 0.25070730E+00 0.80657247E+03</pdfrwt>
<totfact> 0.77975015E+00</totfact>
</mgrwt>
</event>
<event>
 4    5  0.2025789E-007  0.8584019E+03  0.7818608E-02  0.9596412E-01
          2   -1    0    0  501    0  0.00000000000E+00  0.00000000000E+00  0.25083272780E+04  0.25083272780E+04  0.25500000000E-02 0. -1.
         -2   -1    0    0    0  501 -0.00000000000E+00 -0.00000000000E+00 -0.38740867188E+03  0.38740867189E+03  0.25500000000E-02 0.  1.
    8880023    1    1    2    0    0 -0.26153022484E+03 -0.48440235585E+03  0.21587331716E+04  0.23231407218E+04  0.65864270000E+03 0.  0.
    8880022    1    1    2    0    0  0.26153022484E+03  0.48440235585E+03 -0.37814565471E+02  0.57259522810E+03  0.15294330000E+03 0.  0.
<mgrwt>
<rscale>  0 0.77534086E+03</rscale>
<asrwt>0</asrwt>
<pdfrwt beam="1">  1        2 0.38589650E+00 0.85840195E+03</pdfrwt>
<pdfrwt beam="2">  1       -2 0.59601335E-01 0.85840195E+03</pdfrwt>
<totfact> 0.93257352E+00</totfact>
</mgrwt>
</event>
<event>
 4    5  0.2025789E-007  0.9304504E+03  0.7818608E-02  0.9478818E-01
         -2   -1    0    0    0  501 -0.00000000000E+00  0.00000000000E+00  0.31380983513E+03  0.31380983514E+03  0.25500000000E-02 0.  1.
          2   -1    0    0  501    0  0.00000000000E+00 -0.00000000000E+00 -0.27346685113E+04  0.27346685113E+04  0.25500000000E-02 0. -1.
    8880023    1    1    2    0    0  0.62436648564E+03 -0.20516890412E+03 -0.21089907753E+04  0.23051204056E+04  0.65864270000E+03 0. -1.
    8880022    1    1    2    0    0 -0.62436648564E+03  0.20516890412E+03 -0.31186790083E+03  0.74335794083E+03  0.15294330000E+03 0.  0.
<mgrwt>
<rscale>  0 0.85863671E+03</rscale>
<asrwt>0</asrwt>
<pdfrwt beam="1">  1        2 0.42071822E+00 0.93045043E+03</pdfrwt>
<pdfrwt beam="2">  1       -2 0.48278438E-01 0.93045043E+03</pdfrwt>
<totfact> 0.10560338E+01</totfact>
</mgrwt>
</event>
<event>
 4    5  0.2025789E-007  0.7923264E+03  0.7818608E-02  0.9727640E-01
         -2   -1    0    0    0  501 -0.00000000000E+00  0.00000000000E+00  0.10281877226E+04  0.10281877226E+04  0.25500000000E-02 0.  1.
          2   -1    0    0  501    0  0.00000000000E+00 -0.00000000000E+00 -0.88451235028E+03  0.88451235028E+03  0.25500000000E-02 0. -1.
    8880023    1    1    2    0    0  0.33076120178E+03 -0.29080573433E+03 -0.62806688751E+03  0.10110633853E+04  0.65864270000E+03 0.  0.
    8880022    1    1    2    0    0 -0.33076120178E+03  0.29080573433E+03  0.77174225983E+03  0.90163668755E+03  0.15294330000E+03 0.  0.
<mgrwt>
<rscale>  0 0.69394684E+03</rscale>
<asrwt>0</asrwt>
<pdfrwt beam="1">  1        2 0.13607882E+00 0.79232642E+03</pdfrwt>
<pdfrwt beam="2">  1       -2 0.15818273E+00 0.79232642E+03</pdfrwt>
<totfact> 0.79048650E+00</totfact>
</mgrwt>
</event>
<event>
 4    5  0.2025789E-007  0.7825494E+03  0.7818608E-02  0.9749882E-01
         -2   -1    0    0    0  501 -0.00000000000E+00  0.00000000000E+00  0.38230906413E+03  0.38230906414E+03  0.25500000000E-02 0.  1.
          2   -1    0    0  501    0  0.00000000000E+00 -0.00000000000E+00 -0.14867287419E+04  0.14867287419E+04  0.25500000000E-02 0. -1.
    8880023    1    1    2    0    0  0.41799812607E+03  0.62056171870E+02 -0.11774077154E+04  0.14137441552E+04  0.65864270000E+03 0. -1.
    8880022    1    1    2    0    0 -0.41799812607E+03 -0.62056171870E+02  0.72988037588E+02  0.45529365086E+03  0.15294330000E+03 0.  0.
<mgrwt>
<rscale>  0 0.68122937E+03</rscale>
<asrwt>0</asrwt>
<pdfrwt beam="1">  1        2 0.22872750E+00 0.78254943E+03</pdfrwt>
<pdfrwt beam="2">  1       -2 0.58816780E-01 0.78254943E+03</pdfrwt>
<totfact> 0.35551192E+01</totfact>
</mgrwt>
</event>
<event>
 4    5  0.2025789E-007  0.8696682E+03  0.7818608E-02  0.9576592E-01
         -2   -1    0    0    0  501 -0.00000000000E+00  0.00000000000E+00  0.58106997986E+03  0.58106997987E+03  0.25500000000E-02 0.  1.
          2   -1    0    0  501    0  0.00000000000E+00 -0.00000000000E+00 -0.15786538059E+04  0.15786538059E+04  0.25500000000E-02 0. -1.
    8880023    1    1    2    0    0  0.56638205208E+03  0.41520236645E+02 -0.12474792418E+04  0.15206995838E+04  0.65864270000E+03 0.  0.
    8880022    1    1    2    0    0 -0.56638205208E+03 -0.41520236645E+02  0.24989541576E+03  0.63902420204E+03  0.15294330000E+03 0.  0.
<mgrwt>
<rscale>  0 0.78865066E+03</rscale>
<asrwt>0</asrwt>
<pdfrwt beam="1">  1        2 0.24286982E+00 0.86966819E+03</pdfrwt>
<pdfrwt beam="2">  1       -2 0.89395382E-01 0.86966819E+03</pdfrwt>
<totfact> 0.12437793E+01</totfact>
</mgrwt>
</event>
<event>
 4    5  0.2025789E-007  0.6617657E+03  0.7818608E-02  0.1022416E+00
         -2   -1    0    0    0  501 -0.00000000000E+00  0.00000000000E+00  0.11873448681E+04  0.11873448681E+04  0.25500000000E-02 0.  1.
          2   -1    0    0  501    0  0.00000000000E+00 -0.00000000000E+00 -0.92994602567E+03  0.92994602568E+03  0.25500000000E-02 0. -1.
    8880023    1    1    2    0    0 -0.53656908065E+02  0.35278441915E+02 -0.80495849739E+03  0.10420614286E+04  0.65864270000E+03 0. -1.
    8880022    1    1    2    0    0  0.53656908065E+02 -0.35278441915E+02  0.10623573398E+04  0.10752294651E+04  0.15294330000E+03 0.  0.
<mgrwt>
<rscale>  0 0.46824693E+03</rscale>
<asrwt>0</asrwt>
<pdfrwt beam="1">  1        2 0.14306862E+00 0.66176570E+03</pdfrwt>
<pdfrwt beam="2">  1       -2 0.18266844E+00 0.66176570E+03</pdfrwt>
<totfact> 0.50309424E+00</totfact>
</mgrwt>
</event>
<event>
 4    5  0.2025789E-007  0.8195143E+03  0.7818608E-02  0.9670089E-01
          2   -1    0    0  501    0  0.00000000000E+00  0.00000000000E+00  0.37074586097E+04  0.37074586097E+04  0.25500000000E-02 0. -1.
         -2   -1    0    0    0  501 -0.00000000000E+00 -0.00000000000E+00 -0.37571850801E+03  0.37571850801E+03  0.25500000000E-02 0.  1.
    8880023    1    1    2    0    0 -0.22749820300E+03  0.43132136997E+03  0.34604414823E+04  0.35561579008E+04  0.65864270000E+03 0. -1.
    8880022    1    1    2    0    0  0.22749820300E+03 -0.43132136997E+03 -0.12870138066E+03  0.52701921688E+03  0.15294330000E+03 0.  0.
<mgrwt>
<rscale>  0 0.72825922E+03</rscale>
<asrwt>0</asrwt>
<pdfrwt beam="1">  1        2 0.57037827E+00 0.81951435E+03</pdfrwt>
<pdfrwt beam="2">  1       -2 0.57802846E-01 0.81951435E+03</pdfrwt>
<totfact> 0.17441475E+00</totfact>
</mgrwt>
</event>
<event>
 4    5  0.2025789E-007  0.1429366E+04  0.7818608E-02  0.8961194E-01
          2   -1    0    0  501    0  0.00000000000E+00  0.00000000000E+00  0.18298342035E+04  0.18298342035E+04  0.25500000000E-02 0. -1.
         -2   -1    0    0    0  501 -0.00000000000E+00 -0.00000000000E+00 -0.20189266805E+04  0.20189266805E+04  0.25500000000E-02 0.  1.
    8880023    1    1    2    0    0 -0.92236320827E+03  0.87093165537E+03  0.12680285291E+04  0.19107544042E+04  0.65864270000E+03 0. -1.
    8880022    1    1    2    0    0  0.92236320827E+03 -0.87093165537E+03 -0.14571210061E+04  0.19380064798E+04  0.15294330000E+03 0.  0.
<mgrwt>
<rscale>  0 0.13898557E+04</rscale>
<asrwt>0</asrwt>
<pdfrwt beam="1">  1        2 0.28151295E+00 0.14293656E+04</pdfrwt>
<pdfrwt beam="2">  1       -2 0.31060411E+00 0.14293656E+04</pdfrwt>
<totfact> 0.21520500E-01</totfact>
</mgrwt>
</event>
<event>
 4    5  0.2025789E-007  0.6626659E+03  0.7818608E-02  0.1021577E+00
         -2   -1    0    0    0  501 -0.00000000000E+00  0.00000000000E+00  0.95612794325E+03  0.95612794325E+03  0.25500000000E-02 0.  1.
          2   -1    0    0  501    0  0.00000000000E+00 -0.00000000000E+00 -0.70000987497E+03  0.70000987497E+03  0.25500000000E-02 0. -1.
    8880023    1    1    2    0    0  0.30295731940E+01 -0.72847113515E+02 -0.53213631070E+03  0.84987948539E+03  0.65864270000E+03 0. -1.
    8880022    1    1    2    0    0 -0.30295731940E+01  0.72847113515E+02  0.78825437898E+03  0.80625833283E+03  0.15294330000E+03 0.  0.
<mgrwt>
<rscale>  0 0.47121646E+03</rscale>
<asrwt>0</asrwt>
<pdfrwt beam="1">  1        2 0.10769383E+00 0.66266589E+03</pdfrwt>
<pdfrwt beam="2">  1       -2 0.14709661E+00 0.66266589E+03</pdfrwt>
<totfact> 0.13249135E+01</totfact>
</mgrwt>
</event>
<event>
 4    5  0.2025789E-007  0.7071320E+03  0.7818608E-02  0.9968809E-01
         -2   -1    0    0    0  501 -0.00000000000E+00  0.00000000000E+00  0.15829299598E+04  0.15829299599E+04  0.25500000000E-02 0.  1.
          2   -1    0    0  501    0  0.00000000000E+00 -0.00000000000E+00 -0.11240428769E+04  0.11240428769E+04  0.25500000000E-02 0. -1.
    8880023    1    1    2    0    0  0.19530189213E+03 -0.16757888705E+03 -0.99606165543E+03  0.12215459632E+04  0.65864270000E+03 0. -1.
    8880022    1    1    2    0    0 -0.19530189213E+03  0.16757888705E+03  0.14549487384E+04  0.14854268736E+04  0.15294330000E+03 0.  0.
<mgrwt>
<rscale>  0 0.57039313E+03</rscale>
<asrwt>0</asrwt>
<pdfrwt beam="1">  1        2 0.17292967E+00 0.70713204E+03</pdfrwt>
<pdfrwt beam="2">  1       -2 0.24352768E+00 0.70713204E+03</pdfrwt>
<totfact> 0.15461628E+00</totfact>
</mgrwt>
</event>
<event>
 4    5  0.2025789E-007  0.8601145E+03  0.7818608E-02  0.9593360E-01
         -2   -1    0    0    0  501 -0.00000000000E+00  0.00000000000E+00  0.12418838848E+04  0.12418838848E+04  0.25500000000E-02 0.  1.
          2   -1    0    0  501    0  0.00000000000E+00 -0.00000000000E+00 -0.66123903342E+03  0.66123903342E+03  0.25500000000E-02 0. -1.
    8880023    1    1    2    0    0  0.37818621329E+03  0.40368551335E+03  0.90118152644E+03  0.12457628809E+04  0.65864270000E+03 0.  1.
    8880022    1    1    2    0    0 -0.37818621329E+03 -0.40368551335E+03 -0.32053667503E+03  0.65736003733E+03  0.15294330000E+03 0.  0.
<mgrwt>
<rscale>  0 0.77737239E+03</rscale>
<asrwt>0</asrwt>
<pdfrwt beam="1">  1        2 0.10172908E+00 0.86011453E+03</pdfrwt>
<pdfrwt beam="2">  1       -2 0.19105906E+00 0.86011453E+03</pdfrwt>
<totfact> 0.67574041E+00</totfact>
</mgrwt>
</event>
<event>
 4    5  0.2025789E-007  0.8347849E+03  0.7818608E-02  0.9640093E-01
          2   -1    0    0  501    0  0.00000000000E+00  0.00000000000E+00  0.24320974655E+04  0.24320974655E+04  0.25500000000E-02 0. -1.
         -2   -1    0    0    0  501 -0.00000000000E+00 -0.00000000000E+00 -0.35073597515E+03  0.35073597516E+03  0.25500000000E-02 0.  1.
    8880023    1    1    2    0    0 -0.31738346200E+03  0.40289363589E+03  0.20868231386E+04  0.22475979538E+04  0.65864270000E+03 0. -1.
    8880022    1    1    2    0    0  0.31738346200E+03 -0.40289363589E+03 -0.54616482569E+01  0.53523548687E+03  0.15294330000E+03 0.  0.
<mgrwt>
<rscale>  0 0.74698433E+03</rscale>
<asrwt>0</asrwt>
<pdfrwt beam="1">  1        2 0.37416884E+00 0.83478485E+03</pdfrwt>
<pdfrwt beam="2">  1       -2 0.53959382E-01 0.83478485E+03</pdfrwt>
<totfact> 0.12727558E+01</totfact>
</mgrwt>
</event>
<event>
 4    5  0.2025789E-007  0.8255008E+03  0.7818608E-02  0.9658151E-01
          2   -1    0    0  501    0  0.00000000000E+00  0.00000000000E+00  0.15623588777E+04  0.15623588777E+04  0.25500000000E-02 0. -1.
         -2   -1    0    0    0  501 -0.00000000000E+00 -0.00000000000E+00 -0.57654929355E+03  0.57654929355E+03  0.25500000000E-02 0.  1.
    8880023    1    1    2    0    0  0.42105164072E+03  0.26524858184E+03  0.12932802825E+04  0.15342833473E+04  0.65864270000E+03 0. -1.
    8880022    1    1    2    0    0 -0.42105164072E+03 -0.26524858184E+03 -0.30747069841E+03  0.60462482393E+03  0.15294330000E+03 0.  0.
<mgrwt>
<rscale>  0 0.73564090E+03</rscale>
<asrwt>0</asrwt>
<pdfrwt beam="1">  1        2 0.24036290E+00 0.82550076E+03</pdfrwt>
<pdfrwt beam="2">  1       -2 0.88699892E-01 0.82550076E+03</pdfrwt>
<totfact> 0.12997840E+01</totfact>
</mgrwt>
</event>
<event>
 4    5  0.2025789E-007  0.7364500E+03  0.7818608E-02  0.9870411E-01
          2   -1    0    0  501    0  0.00000000000E+00  0.00000000000E+00  0.16332433953E+04  0.16332433953E+04  0.25500000000E-02 0. -1.
         -2   -1    0    0    0  501 -0.00000000000E+00 -0.00000000000E+00 -0.27000584155E+03  0.27000584156E+03  0.25500000000E-02 0.  1.
    8880023    1    1    2    0    0 -0.19766102454E+03 -0.26358766280E+03  0.13523235780E+04  0.15398498636E+04  0.65864270000E+03 0.  0.
    8880022    1    1    2    0    0  0.19766102454E+03  0.26358766280E+03  0.10913975769E+02  0.36339937326E+03  0.15294330000E+03 0.  0.
<mgrwt>
<rscale>  0 0.61716955E+03</rscale>
<asrwt>0</asrwt>
<pdfrwt beam="1">  1        2 0.25126821E+00 0.73644996E+03</pdfrwt>
<pdfrwt beam="2">  1       -2 0.41539361E-01 0.73644996E+03</pdfrwt>
<totfact> 0.60092594E+01</totfact>
</mgrwt>
</event>
<event>
 4    5  0.2025789E-007  0.1399682E+04  0.7818608E-02  0.8983930E-01
          2   -1    0    0  501    0  0.00000000000E+00  0.00000000000E+00  0.18811490868E+04  0.18811490868E+04  0.25500000000E-02 0. -1.
         -2   -1    0    0    0  501 -0.00000000000E+00 -0.00000000000E+00 -0.98229519531E+03  0.98229519531E+03  0.25500000000E-02 0.  1.
    8880023    1    1    2    0    0 -0.68762059959E+03  0.10259035815E+04  0.14191967957E+03  0.14068587880E+04  0.65864270000E+03 0.  0.
    8880022    1    1    2    0    0  0.68762059959E+03 -0.10259035815E+04  0.75693421191E+03  0.14565854941E+04  0.15294330000E+03 0.  0.
<mgrwt>
<rscale>  0 0.13591510E+04</rscale>
<asrwt>0</asrwt>
<pdfrwt beam="1">  1        2 0.28940755E+00 0.13996823E+04</pdfrwt>
<pdfrwt beam="2">  1       -2 0.15112234E+00 0.13996823E+04</pdfrwt>
<totfact> 0.21783784E+00</totfact>
</mgrwt>
</event>
<event>
 4    5  0.2025789E-007  0.7205446E+03  0.7818608E-02  0.9920747E-01
          2   -1    0    0  501    0  0.00000000000E+00  0.00000000000E+00  0.82136289351E+03  0.82136289351E+03  0.25500000000E-02 0. -1.
         -2   -1    0    0    0  501 -0.00000000000E+00 -0.00000000000E+00 -0.56060366297E+03  0.56060366298E+03  0.25500000000E-02 0.  1.
    8880023    1    1    2    0    0  0.41315688799E+02  0.28925317036E+03  0.57847768644E+03  0.92402436260E+03  0.65864270000E+03 0.  0.
    8880022    1    1    2    0    0 -0.41315688799E+02 -0.28925317036E+03 -0.31771845590E+03  0.45794219389E+03  0.15294330000E+03 0.  0.
<mgrwt>
<rscale>  0 0.59266234E+03</rscale>
<asrwt>0</asrwt>
<pdfrwt beam="1">  1        2 0.12636352E+00 0.72054465E+03</pdfrwt>
<pdfrwt beam="2">  1       -2 0.86246718E-01 0.72054465E+03</pdfrwt>
<totfact> 0.39399833E+01</totfact>
</mgrwt>
</event>
<event>
 4    5  0.2025789E-007  0.1403993E+04  0.7818608E-02  0.8980587E-01
         -2   -1    0    0    0  501 -0.00000000000E+00  0.00000000000E+00  0.11022175990E+04  0.11022175990E+04  0.25500000000E-02 0.  1.
          2   -1    0    0  501    0  0.00000000000E+00 -0.00000000000E+00 -0.18951137621E+04  0.18951137621E+04  0.25500000000E-02 0. -1.
    8880023    1    1    2    0    0  0.11463482109E+04 -0.47251517791E+03 -0.10096836635E+04  0.17293513584E+04  0.65864270000E+03 0.  1.
    8880022    1    1    2    0    0 -0.11463482109E+04  0.47251517791E+03  0.21678750041E+03  0.12679800028E+04  0.15294330000E+03 0.  0.
<mgrwt>
<rscale>  0 0.13636132E+04</rscale>
<asrwt>0</asrwt>
<pdfrwt beam="1">  1        2 0.29155596E+00 0.14039925E+04</pdfrwt>
<pdfrwt beam="2">  1       -2 0.16957194E+00 0.14039925E+04</pdfrwt>
<totfact> 0.15596757E+00</totfact>
</mgrwt>
</event>
<event>
 4    5  0.2025789E-007  0.1264999E+04  0.7818608E-02  0.9096390E-01
         -2   -1    0    0    0  501 -0.00000000000E+00  0.00000000000E+00  0.76224176569E+03  0.76224176570E+03  0.25500000000E-02 0.  1.
          2   -1    0    0  501    0  0.00000000000E+00 -0.00000000000E+00 -0.18506859886E+04  0.18506859886E+04  0.25500000000E-02 0. -1.
    8880023    1    1    2    0    0 -0.10570563687E+04  0.22146052189E+03 -0.41655398521E+03  0.13318184404E+04  0.65864270000E+03 0.  0.
    8880022    1    1    2    0    0  0.10570563687E+04 -0.22146052189E+03 -0.67189023766E+03  0.12811093138E+04  0.15294330000E+03 0.  0.
<mgrwt>
<rscale>  0 0.12189957E+04</rscale>
<asrwt>0</asrwt>
<pdfrwt beam="1">  1        2 0.28472092E+00 0.12649993E+04</pdfrwt>
<pdfrwt beam="2">  1       -2 0.11726796E+00 0.12649993E+04</pdfrwt>
<totfact> 0.44086719E+00</totfact>
</mgrwt>
</event>
<event>
 4    5  0.2025789E-007  0.1430697E+04  0.7818608E-02  0.8960190E-01
          2   -1    0    0  501    0  0.00000000000E+00  0.00000000000E+00  0.22056673208E+04  0.22056673208E+04  0.25500000000E-02 0. -1.
         -2   -1    0    0    0  501 -0.00000000000E+00 -0.00000000000E+00 -0.95213241729E+03  0.95213241730E+03  0.25500000000E-02 0.  1.
    8880023    1    1    2    0    0  0.12450773160E+04 -0.25073261371E+03  0.12165755140E+04  0.18780177193E+04  0.65864270000E+03 0.  0.
    8880022    1    1    2    0    0 -0.12450773160E+04  0.25073261371E+03  0.36959389491E+02  0.12797820188E+04  0.15294330000E+03 0.  0.
<mgrwt>
<rscale>  0 0.13912318E+04</rscale>
<asrwt>0</asrwt>
<pdfrwt beam="1">  1        2 0.33933343E+00 0.14306972E+04</pdfrwt>
<pdfrwt beam="2">  1       -2 0.14648191E+00 0.14306972E+04</pdfrwt>
<totfact> 0.15555173E+00</totfact>
</mgrwt>
</event>
<event>
 4    5  0.2025789E-007  0.1125241E+04  0.7818608E-02  0.9233461E-01
         -2   -1    0    0    0  501 -0.00000000000E+00  0.00000000000E+00  0.12827248662E+04  0.12827248662E+04  0.25500000000E-02 0.  1.
          2   -1    0    0  501    0  0.00000000000E+00 -0.00000000000E+00 -0.99421234124E+03  0.99421234125E+03  0.25500000000E-02 0. -1.
    8880023    1    1    2    0    0  0.91226450091E+03  0.11391737335E+02 -0.31977506706E+03  0.11697959613E+04  0.65864270000E+03 0. -1.
    8880022    1    1    2    0    0 -0.91226450091E+03 -0.11391737335E+02  0.60828759201E+03  0.11071412461E+04  0.15294330000E+03 0.  0.
<mgrwt>
<rscale>  0 0.10714633E+04</rscale>
<asrwt>0</asrwt>
<pdfrwt beam="1">  1        2 0.15295575E+00 0.11252406E+04</pdfrwt>
<pdfrwt beam="2">  1       -2 0.19734229E+00 0.11252406E+04</pdfrwt>
<totfact> 0.34458368E+00</totfact>
</mgrwt>
</event>
<event>
 4    5  0.2025789E-007  0.1311194E+04  0.7818608E-02  0.9055953E-01
          2   -1    0    0  501    0  0.00000000000E+00  0.00000000000E+00  0.22286293272E+04  0.22286293272E+04  0.25500000000E-02 0. -1.
         -2   -1    0    0    0  501 -0.00000000000E+00 -0.00000000000E+00 -0.11974669146E+04  0.11974669146E+04  0.25500000000E-02 0.  1.
    8880023    1    1    2    0    0 -0.11268412004E+04 -0.12509738367E+03  0.16641386588E+04  0.21186288321E+04  0.65864270000E+03 0. -1.
    8880022    1    1    2    0    0  0.11268412004E+04  0.12509738367E+03 -0.63297624622E+03  0.13074674097E+04  0.15294330000E+03 0.  0.
<mgrwt>
<rscale>  0 0.12672432E+04</rscale>
<asrwt>0</asrwt>
<pdfrwt beam="1">  1        2 0.34286605E+00 0.13111944E+04</pdfrwt>
<pdfrwt beam="2">  1       -2 0.18422568E+00 0.13111944E+04</pdfrwt>
<totfact> 0.81011205E-01</totfact>
</mgrwt>
</event>
<event>
 4    5  0.2025789E-007  0.7858280E+03  0.7818608E-02  0.9742321E-01
          2   -1    0    0  501    0  0.00000000000E+00  0.00000000000E+00  0.83741887895E+03  0.83741887895E+03  0.25500000000E-02 0. -1.
         -2   -1    0    0    0  501 -0.00000000000E+00 -0.00000000000E+00 -0.56241039563E+03  0.56241039564E+03  0.25500000000E-02 0.  1.
    8880023    1    1    2    0    0  0.42857195466E+03 -0.64377193595E+01  0.45773976279E+03  0.90942358736E+03  0.65864270000E+03 0. -1.
    8880022    1    1    2    0    0 -0.42857195466E+03  0.64377193595E+01 -0.18273127947E+03  0.49040568723E+03  0.15294330000E+03 0.  0.
<mgrwt>
<rscale>  0 0.68551973E+03</rscale>
<asrwt>0</asrwt>
<pdfrwt beam="1">  1        2 0.12883367E+00 0.78582795E+03</pdfrwt>
<pdfrwt beam="2">  1       -2 0.86524677E-01 0.78582795E+03</pdfrwt>
<totfact> 0.37895378E+01</totfact>
</mgrwt>
</event>
<event>
 4    5  0.2025789E-007  0.1494814E+04  0.7818608E-02  0.8913306E-01
         -2   -1    0    0    0  501 -0.00000000000E+00  0.00000000000E+00  0.10043653705E+04  0.10043653705E+04  0.25500000000E-02 0.  1.
          2   -1    0    0  501    0  0.00000000000E+00 -0.00000000000E+00 -0.24067728179E+04  0.24067728179E+04  0.25500000000E-02 0. -1.
    8880023    1    1    2    0    0 -0.12336556800E+04 -0.52797051156E+03 -0.14181246067E+04  0.20604724711E+04  0.65864270000E+03 0.  0.
    8880022    1    1    2    0    0  0.12336556800E+04  0.52797051156E+03  0.15717159223E+02  0.13506657174E+04  0.15294330000E+03 0.  0.
<mgrwt>
<rscale>  0 0.14573707E+04</rscale>
<asrwt>0</asrwt>
<pdfrwt beam="1">  1        2 0.37027274E+00 0.14948142E+04</pdfrwt>
<pdfrwt beam="2">  1       -2 0.15451775E+00 0.14948142E+04</pdfrwt>
<totfact> 0.10301618E+00</totfact>
</mgrwt>
</event>
<event>
 4    5  0.2025789E-007  0.1522796E+04  0.7818608E-02  0.8893704E-01
         -2   -1    0    0    0  501 -0.00000000000E+00  0.00000000000E+00  0.96560766868E+03  0.96560766869E+03  0.25500000000E-02 0.  1.
          2   -1    0    0  501    0  0.00000000000E+00 -0.00000000000E+00 -0.23845370069E+04  0.23845370069E+04  0.25500000000E-02 0. -1.
    8880023    1    1    2    0    0 -0.11970665106E+04  0.67240557149E+03 -0.12265476380E+04  0.19553329123E+04  0.65864270000E+03 0.  0.
    8880022    1    1    2    0    0  0.11970665106E+04 -0.67240557149E+03 -0.19238170028E+03  0.13948117633E+04  0.15294330000E+03 0.  0.
<mgrwt>
<rscale>  0 0.14861666E+04</rscale>
<asrwt>0</asrwt>
<pdfrwt beam="1">  1        2 0.36685185E+00 0.15227960E+04</pdfrwt>
<pdfrwt beam="2">  1       -2 0.14855503E+00 0.15227960E+04</pdfrwt>
<totfact> 0.11757224E+00</totfact>
</mgrwt>
</event>
<event>
 4    5  0.2025789E-007  0.6820599E+03  0.7818608E-02  0.1008182E+00
          2   -1    0    0  501    0  0.00000000000E+00  0.00000000000E+00  0.19313692524E+04  0.19313692524E+04  0.25500000000E-02 0. -1.
         -2   -1    0    0    0  501 -0.00000000000E+00 -0.00000000000E+00 -0.64403967426E+03  0.64403967426E+03  0.25500000000E-02 0.  1.
    8880023    1    1    2    0    0  0.17276893173E+03 -0.39324677824E+02  0.18469203748E+04  0.19688373755E+04  0.65864270000E+03 0. -1.
    8880022    1    1    2    0    0 -0.17276893173E+03  0.39324677824E+02 -0.55959079662E+03  0.60657155120E+03  0.15294330000E+03 0.  0.
<mgrwt>
<rscale>  0 0.52203759E+03</rscale>
<asrwt>0</asrwt>
<pdfrwt beam="1">  1        2 0.29713373E+00 0.68205992E+03</pdfrwt>
<pdfrwt beam="2">  1       -2 0.99083029E-01 0.68205992E+03</pdfrwt>
<totfact> 0.64415188E+00</totfact>
</mgrwt>
</event>
<event>
 4    5  0.2025789E-007  0.2211439E+04  0.7818608E-02  0.8523716E-01
         -2   -1    0    0    0  501 -0.00000000000E+00  0.00000000000E+00  0.13145081953E+04  0.13145081953E+04  0.25500000000E-02 0.  1.
          2   -1    0    0  501    0  0.00000000000E+00 -0.00000000000E+00 -0.39189443220E+04  0.39189443220E+04  0.25500000000E-02 0. -1.
    8880023    1    1    2    0    0  0.19104383004E+04 -0.89826406165E+03 -0.53921809666E+03  0.22762291594E+04  0.65864270000E+03 0.  0.
    8880022    1    1    2    0    0 -0.19104383004E+04  0.89826406165E+03 -0.20652180300E+04  0.29572233579E+04  0.15294330000E+03 0.  0.
<mgrwt>
<rscale>  0 0.21873412E+04</rscale>
<asrwt>0</asrwt>
<pdfrwt beam="1">  1        2 0.60291451E+00 0.22114391E+04</pdfrwt>
<pdfrwt beam="2">  1       -2 0.20223203E+00 0.22114391E+04</pdfrwt>
<totfact> 0.44742777E-02</totfact>
</mgrwt>
</event>
<event>
 4    5  0.2025789E-007  0.1090716E+04  0.7818608E-02  0.9271464E-01
          2   -1    0    0  501    0  0.00000000000E+00  0.00000000000E+00  0.84264058177E+03  0.84264058178E+03  0.25500000000E-02 0. -1.
         -2   -1    0    0    0  501 -0.00000000000E+00 -0.00000000000E+00 -0.15436693129E+04  0.15436693129E+04  0.25500000000E-02 0.  1.
    8880023    1    1    2    0    0  0.56358081754E+03  0.66198773667E+03 -0.97401581214E+03  0.14623160089E+04  0.65864270000E+03 0.  0.
    8880022    1    1    2    0    0 -0.56358081754E+03 -0.66198773667E+03  0.27298708105E+03  0.92399388571E+03  0.15294330000E+03 0.  0.
<mgrwt>
<rscale>  0 0.10345294E+04</rscale>
<asrwt>0</asrwt>
<pdfrwt beam="1">  1        2 0.12963701E+00 0.10907160E+04</pdfrwt>
<pdfrwt beam="2">  1       -2 0.23748759E+00 0.10907160E+04</pdfrwt>
<totfact> 0.24315822E+00</totfact>
</mgrwt>
</event>
<event>
 4    5  0.2025789E-007  0.9442841E+03  0.7818608E-02  0.9458386E-01
         -2   -1    0    0    0  501 -0.00000000000E+00  0.00000000000E+00  0.44528454813E+03  0.44528454814E+03  0.25500000000E-02 0.  1.
          2   -1    0    0  501    0  0.00000000000E+00 -0.00000000000E+00 -0.30481178811E+04  0.30481178811E+04  0.25500000000E-02 0. -1.
    8880023    1    1    2    0    0 -0.28785112285E+02  0.67604261915E+03 -0.26348418092E+04  0.27989397584E+04  0.65864270000E+03 0.  0.
    8880022    1    1    2    0    0  0.28785112285E+02 -0.67604261915E+03  0.32008476206E+02  0.69446267082E+03  0.15294330000E+03 0.  0.
<mgrwt>
<rscale>  0 0.87422612E+03</rscale>
<asrwt>0</asrwt>
<pdfrwt beam="1">  1        2 0.46894120E+00 0.94428407E+03</pdfrwt>
<pdfrwt beam="2">  1       -2 0.68505317E-01 0.94428407E+03</pdfrwt>
<totfact> 0.32657702E+00</totfact>
</mgrwt>
</event>
<event>
 4    5  0.2025789E-007  0.8845177E+03  0.7818608E-02  0.9551357E-01
          2   -1    0    0  501    0  0.00000000000E+00  0.00000000000E+00  0.29880310542E+04  0.29880310542E+04  0.25500000000E-02 0. -1.
         -2   -1    0    0    0  501 -0.00000000000E+00 -0.00000000000E+00 -0.35115697590E+03  0.35115697591E+03  0.25500000000E-02 0.  1.
    8880023    1    1    2    0    0 -0.13475314357E+03  0.57480690741E+03  0.25791215118E+04  0.27265801600E+04  0.65864270000E+03 0.  0.
    8880022    1    1    2    0    0  0.13475314357E+03 -0.57480690741E+03  0.57752566552E+02  0.61260787007E+03  0.15294330000E+03 0.  0.
<mgrwt>
<rscale>  0 0.80601091E+03</rscale>
<asrwt>0</asrwt>
<pdfrwt beam="1">  1        2 0.45969710E+00 0.88451772E+03</pdfrwt>
<pdfrwt beam="2">  1       -2 0.54024148E-01 0.88451772E+03</pdfrwt>
<totfact> 0.59472614E+00</totfact>
</mgrwt>
</event>
<event>
 4    5  0.2025789E-007  0.9424655E+03  0.7818608E-02  0.9461038E-01
          2   -1    0    0  501    0  0.00000000000E+00  0.00000000000E+00  0.12963434756E+04  0.12963434756E+04  0.25500000000E-02 0. -1.
         -2   -1    0    0    0  501 -0.00000000000E+00 -0.00000000000E+00 -0.15184867434E+04  0.15184867434E+04  0.25500000000E-02 0.  1.
    8880023    1    1    2    0    0  0.62211046554E+03  0.25963349751E+03  0.10228258330E+04  0.13908320802E+04  0.65864270000E+03 0.  0.
    8880022    1    1    2    0    0 -0.62211046554E+03 -0.25963349751E+03 -0.12449691008E+04  0.14239981388E+04  0.15294330000E+03 0.  0.
<mgrwt>
<rscale>  0 0.87218263E+03</rscale>
<asrwt>0</asrwt>
<pdfrwt beam="1">  1        2 0.19943746E+00 0.94246549E+03</pdfrwt>
<pdfrwt beam="2">  1       -2 0.23361335E+00 0.94246549E+03</pdfrwt>
<totfact> 0.13528865E+00</totfact>
</mgrwt>
</event>
<event>
 4    5  0.2025789E-007  0.8081363E+03  0.7818608E-02  0.9693472E-01
          2   -1    0    0  501    0  0.00000000000E+00  0.00000000000E+00  0.89791080701E+03  0.89791080702E+03  0.25500000000E-02 0. -1.
         -2   -1    0    0    0  501 -0.00000000000E+00 -0.00000000000E+00 -0.50274407895E+03  0.50274407895E+03  0.25500000000E-02 0.  1.
    8880023    1    1    2    0    0 -0.43154284343E+03 -0.18178223126E+03  0.41334105924E+03  0.90770867729E+03  0.65864270000E+03 0. -1.
    8880022    1    1    2    0    0  0.43154284343E+03  0.18178223126E+03 -0.18174331172E+02  0.49294620868E+03  0.15294330000E+03 0.  1.
<mgrwt>
<rscale>  0 0.71406786E+03</rscale>
<asrwt>0</asrwt>
<pdfrwt beam="1">  1        2 0.13814012E+00 0.80813626E+03</pdfrwt>
<pdfrwt beam="2">  1       -2 0.77345243E-01 0.80813626E+03</pdfrwt>
<totfact> 0.44291449E+01</totfact>
</mgrwt>
</event>
<event>
 4    5  0.2025789E-007  0.9662752E+03  0.7818608E-02  0.9427074E-01
         -2   -1    0    0    0  501 -0.00000000000E+00  0.00000000000E+00  0.25661525172E+03  0.25661525173E+03  0.25500000000E-02 0.  1.
          2   -1    0    0  501    0  0.00000000000E+00 -0.00000000000E+00 -0.30525553370E+04  0.30525553370E+04  0.25500000000E-02 0. -1.
    8880023    1    1    2    0    0 -0.23140970612E+03 -0.66807716667E+03 -0.20696290590E+04  0.22840867324E+04  0.65864270000E+03 0.  0.
    8880022    1    1    2    0    0  0.23140970612E+03  0.66807716667E+03 -0.72631102622E+03  0.10250838563E+04  0.15294330000E+03 0.  0.
<mgrwt>
<rscale>  0 0.89880664E+03</rscale>
<asrwt>0</asrwt>
<pdfrwt beam="1">  1        2 0.46962387E+00 0.96627520E+03</pdfrwt>
<pdfrwt beam="2">  1       -2 0.39479272E-01 0.96627520E+03</pdfrwt>
<totfact> 0.10073562E+01</totfact>
</mgrwt>
</event>
<event>
 4    5  0.2025789E-007  0.9819048E+03  0.7818608E-02  0.9405624E-01
          2   -1    0    0  501    0  0.00000000000E+00  0.00000000000E+00  0.23036571279E+04  0.23036571279E+04  0.25500000000E-02 0. -1.
         -2   -1    0    0    0  501 -0.00000000000E+00 -0.00000000000E+00 -0.68923229632E+03  0.68923229633E+03  0.25500000000E-02 0.  1.
    8880023    1    1    2    0    0  0.47688224993E+03 -0.55037282189E+03  0.19448797890E+04  0.21786910114E+04  0.65864270000E+03 0.  0.
    8880022    1    1    2    0    0 -0.47688224993E+03  0.55037282189E+03 -0.33045495748E+03  0.81419841274E+03  0.15294330000E+03 0.  0.
<mgrwt>
<rscale>  0 0.91614284E+03</rscale>
<asrwt>0</asrwt>
<pdfrwt beam="1">  1        2 0.35440880E+00 0.98190485E+03</pdfrwt>
<pdfrwt beam="2">  1       -2 0.10603574E+00 0.98190485E+03</pdfrwt>
<totfact> 0.32622786E+00</totfact>
</mgrwt>
</event>
<event>
 4    5  0.2025789E-007  0.7037960E+03  0.7818608E-02  0.9981804E-01
          2   -1    0    0  501    0  0.00000000000E+00  0.00000000000E+00  0.14692371629E+04  0.14692371629E+04  0.25500000000E-02 0. -1.
         -2   -1    0    0    0  501 -0.00000000000E+00 -0.00000000000E+00 -0.21207566647E+03  0.21207566648E+03  0.25500000000E-02 0.  1.
    8880023    1    1    2    0    0  0.20692355073E+03 -0.13675271185E+03  0.11895830819E+04  0.13821855067E+04  0.65864270000E+03 0. -1.
    8880022    1    1    2    0    0 -0.20692355073E+03  0.13675271185E+03  0.67578414574E+02  0.29912732268E+03  0.15294330000E+03 0.  0.
<mgrwt>
<rscale>  0 0.56455358E+03</rscale>
<asrwt>0</asrwt>
<pdfrwt beam="1">  1        2 0.22603648E+00 0.70379604E+03</pdfrwt>
<pdfrwt beam="2">  1       -2 0.32627026E-01 0.70379604E+03</pdfrwt>
<totfact> 0.11813892E+02</totfact>
</mgrwt>
</event>
<event>
 4    5  0.2025789E-007  0.7494843E+03  0.7818608E-02  0.9833134E-01
          2   -1    0    0  501    0  0.00000000000E+00  0.00000000000E+00  0.30532461709E+04  0.30532461709E+04  0.25500000000E-02 0. -1.
         -2   -1    0    0    0  501 -0.00000000000E+00 -0.00000000000E+00 -0.16915968211E+03  0.16915968213E+03  0.25500000000E-02 0.  1.
    8880023    1    1    2    0    0 -0.33705215127E+03  0.11963432314E+03  0.26806156607E+04  0.27834200277E+04  0.65864270000E+03 0.  0.
    8880022    1    1    2    0    0  0.33705215127E+03 -0.11963432314E+03  0.20347082810E+03  0.43898582535E+03  0.15294330000E+03 0.  0.
<mgrwt>
<rscale>  0 0.63614294E+03</rscale>
<asrwt>0</asrwt>
<pdfrwt beam="1">  1        2 0.46973014E+00 0.74948431E+03</pdfrwt>
<pdfrwt beam="2">  1       -2 0.26024568E-01 0.74948431E+03</pdfrwt>
<totfact> 0.22770417E+01</totfact>
</mgrwt>
</event>
<event>
 4    5  0.2025789E-007  0.8730029E+03  0.7818608E-02  0.9570840E-01
         -2   -1    0    0    0  501 -0.00000000000E+00  0.00000000000E+00  0.14619190306E+04  0.14619190306E+04  0.25500000000E-02 0.  1.
          2   -1    0    0  501    0  0.00000000000E+00 -0.00000000000E+00 -0.11705060213E+04  0.11705060213E+04  0.25500000000E-02 0. -1.
    8880023    1    1    2    0    0 -0.48802798910E+03 -0.30025399787E+03 -0.92944313049E+03  0.12751464702E+04  0.65864270000E+03 0. -1.
    8880022    1    1    2    0    0  0.48802798910E+03  0.30025399787E+03  0.12208561398E+04  0.13572785817E+04  0.15294330000E+03 0.  0.
<mgrwt>
<rscale>  0 0.79256644E+03</rscale>
<asrwt>0</asrwt>
<pdfrwt beam="1">  1        2 0.18007785E+00 0.87300286E+03</pdfrwt>
<pdfrwt beam="2">  1       -2 0.22491062E+00 0.87300286E+03</pdfrwt>
<totfact> 0.18361206E+00</totfact>
</mgrwt>
</event>
<event>
 4    5  0.2025789E-007  0.6651367E+03  0.7818608E-02  0.1019419E+00
         -2   -1    0    0    0  501 -0.00000000000E+00  0.00000000000E+00  0.93601320853E+02  0.93601320888E+02  0.25500000000E-02 0.  1.
          2   -1    0    0  501    0  0.00000000000E+00 -0.00000000000E+00 -0.36034762328E+04  0.36034762328E+04  0.25500000000E-02 0. -1.
    8880023    1    1    2    0    0 -0.92697771178E+02 -0.19498562313E+01 -0.34421618267E+04  0.35058358385E+04  0.65864270000E+03 0. -1.
    8880022    1    1    2    0    0  0.92697771178E+02  0.19498562313E+01 -0.67713085257E+02  0.19124171525E+03  0.15294330000E+03 0.  0.
<mgrwt>
<rscale>  0 0.47896872E+03</rscale>
<asrwt>0</asrwt>
<pdfrwt beam="1">  1        2 0.55438085E+00 0.66513674E+03</pdfrwt>
<pdfrwt beam="2">  1       -2 0.14400206E-01 0.66513674E+03</pdfrwt>
<totfact> 0.28277418E+01</totfact>
</mgrwt>
</event>
<event>
 4    5  0.2025789E-007  0.9929967E+03  0.7818608E-02  0.9390778E-01
         -2   -1    0    0    0  501 -0.00000000000E+00  0.00000000000E+00  0.79745648765E+03  0.79745648765E+03  0.25500000000E-02 0.  1.
          2   -1    0    0  501    0  0.00000000000E+00 -0.00000000000E+00 -0.22768082421E+04  0.22768082421E+04  0.25500000000E-02 0. -1.
    8880023    1    1    2    0    0 -0.37279041746E+03  0.64285264858E+03 -0.19451750223E+04  0.21839753425E+04  0.65864270000E+03 0. -1.
    8880022    1    1    2    0    0  0.37279041746E+03 -0.64285264858E+03  0.46582326785E+03  0.89028938723E+03  0.15294330000E+03 0.  0.
<mgrwt>
<rscale>  0 0.92838518E+03</rscale>
<asrwt>0</asrwt>
<pdfrwt beam="1">  1        2 0.35027819E+00 0.99299669E+03</pdfrwt>
<pdfrwt beam="2">  1       -2 0.12268561E+00 0.99299669E+03</pdfrwt>
<totfact> 0.23574118E+00</totfact>
</mgrwt>
</event>
<event>
 4    5  0.2025789E-007  0.8859439E+03  0.7818608E-02  0.9548984E-01
          2   -1    0    0  501    0  0.00000000000E+00  0.00000000000E+00  0.11067676967E+04  0.11067676967E+04  0.25500000000E-02 0. -1.
         -2   -1    0    0    0  501 -0.00000000000E+00 -0.00000000000E+00 -0.54666661803E+03  0.54666661804E+03  0.25500000000E-02 0.  1.
    8880023    1    1    2    0    0 -0.14850981714E+03  0.57361248451E+03  0.54728553022E+03  0.10413539773E+04  0.65864270000E+03 0.  0.
    8880022    1    1    2    0    0  0.14850981714E+03 -0.57361248451E+03  0.12815548432E+02  0.61208033743E+03  0.15294330000E+03 0.  0.
<mgrwt>
<rscale>  0 0.80766820E+03</rscale>
<asrwt>0</asrwt>
<pdfrwt beam="1">  1        2 0.17027195E+00 0.88594393E+03</pdfrwt>
<pdfrwt beam="2">  1       -2 0.84102557E-01 0.88594393E+03</pdfrwt>
<totfact> 0.26757246E+01</totfact>
</mgrwt>
</event>
<event>
 4    5  0.2025789E-007  0.1179011E+04  0.7818608E-02  0.9177800E-01
          2   -1    0    0  501    0  0.00000000000E+00  0.00000000000E+00  0.21419446782E+04  0.21419446782E+04  0.25500000000E-02 0. -1.
         -2   -1    0    0    0  501 -0.00000000000E+00 -0.00000000000E+00 -0.10961260780E+04  0.10961260780E+04  0.25500000000E-02 0.  1.
    8880023    1    1    2    0    0  0.97589116572E+03 -0.62392653504E+02  0.16874415108E+04  0.20585250713E+04  0.65864270000E+03 0.  0.
    8880022    1    1    2    0    0 -0.97589116572E+03  0.62392653504E+02 -0.64162291049E+03  0.11795456849E+04  0.15294330000E+03 0.  0.
<mgrwt>
<rscale>  0 0.11285534E+04</rscale>
<asrwt>0</asrwt>
<pdfrwt beam="1">  1        2 0.32952995E+00 0.11790109E+04</pdfrwt>
<pdfrwt beam="2">  1       -2 0.16863478E+00 0.11790109E+04</pdfrwt>
<totfact> 0.11837997E+00</totfact>
</mgrwt>
</event>
<event>
 4    5  0.2025789E-007  0.7748859E+03  0.7818608E-02  0.9767990E-01
          2   -1    0    0  501    0  0.00000000000E+00  0.00000000000E+00  0.29194436908E+04  0.29194436908E+04  0.25500000000E-02 0. -1.
         -2   -1    0    0    0  501 -0.00000000000E+00 -0.00000000000E+00 -0.65396065859E+03  0.65396065860E+03  0.25500000000E-02 0.  1.
    8880023    1    1    2    0    0  0.39924545025E+03 -0.85094394908E+02  0.27875624383E+04  0.28932598465E+04  0.65864270000E+03 0.  0.
    8880022    1    1    2    0    0 -0.39924545025E+03  0.85094394908E+02 -0.52207940608E+03  0.68014450293E+03  0.15294330000E+03 0.  0.
<mgrwt>
<rscale>  0 0.67109035E+03</rscale>
<asrwt>0</asrwt>
<pdfrwt beam="1">  1        2 0.44914518E+00 0.77488592E+03</pdfrwt>
<pdfrwt beam="2">  1       -2 0.10060933E+00 0.77488592E+03</pdfrwt>
<totfact> 0.16854914E+00</totfact>
</mgrwt>
</event>
<event>
 4    5  0.2025789E-007  0.1747394E+04  0.7818608E-02  0.8752208E-01
          2   -1    0    0  501    0  0.00000000000E+00  0.00000000000E+00  0.26517029117E+04  0.26517029117E+04  0.25500000000E-02 0. -1.
         -2   -1    0    0    0  501 -0.00000000000E+00 -0.00000000000E+00 -0.12926359610E+04  0.12926359610E+04  0.25500000000E-02 0.  1.
    8880023    1    1    2    0    0  0.14155182102E+04  0.78478273055E+03  0.15129334297E+04  0.23113531765E+04  0.65864270000E+03 0.  0.
    8880022    1    1    2    0    0 -0.14155182102E+04 -0.78478273055E+03 -0.15386647898E+03  0.16329856962E+04  0.15294330000E+03 0.  0.
<mgrwt>
<rscale>  0 0.17161475E+04</rscale>
<asrwt>0</asrwt>
<pdfrwt beam="1">  1        2 0.40795429E+00 0.17473940E+04</pdfrwt>
<pdfrwt beam="2">  1       -2 0.19886707E+00 0.17473940E+04</pdfrwt>
<totfact> 0.35160959E-01</totfact>
</mgrwt>
</event>
<event>
 4    5  0.2025789E-007  0.1180082E+04  0.7818608E-02  0.9176732E-01
         -2   -1    0    0    0  501 -0.00000000000E+00  0.00000000000E+00  0.36026183744E+03  0.36026183745E+03  0.25500000000E-02 0.  1.
          2   -1    0    0  501    0  0.00000000000E+00 -0.00000000000E+00 -0.34707214807E+04  0.34707214807E+04  0.25500000000E-02 0. -1.
    8880023    1    1    2    0    0 -0.31933634973E+03  0.92563880272E+03 -0.21405962384E+04  0.24443292249E+04  0.65864270000E+03 0. -1.
    8880022    1    1    2    0    0  0.31933634973E+03 -0.92563880272E+03 -0.96986340486E+03  0.13866540933E+04  0.15294330000E+03 0.  1.
<mgrwt>
<rscale>  0 0.11296858E+04</rscale>
<asrwt>0</asrwt>
<pdfrwt beam="1">  1        2 0.53395713E+00 0.11800818E+04</pdfrwt>
<pdfrwt beam="2">  1       -2 0.55424901E-01 0.11800818E+04</pdfrwt>
<totfact> 0.26311911E+00</totfact>
</mgrwt>
</event>
<event>
 4    5  0.2421677E-007  0.6985586E+03  0.7818608E-02  0.1000323E+00
         -2   -1    0    0    0  501 -0.00000000000E+00  0.00000000000E+00  0.76859080210E+03  0.76859080210E+03  0.25500000000E-02 0.  1.
          2   -1    0    0  501    0  0.00000000000E+00 -0.00000000000E+00 -0.32864884169E+04  0.32864884169E+04  0.25500000000E-02 0. -1.
    8880023    1    1    2    0    0 -0.45017408497E+02  0.22835804773E+03 -0.32225448203E+04  0.32973897692E+04  0.65864270000E+03 0. -1.
    8880022    1    1    2    0    0  0.45017408497E+02 -0.22835804773E+03  0.70464720551E+03  0.75768944976E+03  0.15294330000E+03 0.  0.
<mgrwt>
<rscale>  0 0.55508668E+03</rscale>
<asrwt>0</asrwt>
<pdfrwt beam="1">  1        2 0.50561359E+00 0.69855864E+03</pdfrwt>
<pdfrwt beam="2">  1       -2 0.11824474E+00 0.69855864E+03</pdfrwt>
<totfact> 0.68503692E-01</totfact>
</mgrwt>
</event>
<event>
 4    5  0.2025789E-007  0.1066813E+04  0.7818608E-02  0.9298938E-01
          2   -1    0    0  501    0  0.00000000000E+00  0.00000000000E+00  0.17981725694E+04  0.17981725694E+04  0.25500000000E-02 0. -1.
         -2   -1    0    0    0  501 -0.00000000000E+00 -0.00000000000E+00 -0.10154735835E+04  0.10154735835E+04  0.25500000000E-02 0.  1.
    8880023    1    1    2    0    0 -0.79588565542E+03 -0.26616905664E+03  0.14003932597E+04  0.17604520531E+04  0.65864270000E+03 0.  0.
    8880022    1    1    2    0    0  0.79588565542E+03  0.26616905664E+03 -0.61769427370E+03  0.10531940999E+04  0.15294330000E+03 0.  0.
<mgrwt>
<rscale>  0 0.10088072E+04</rscale>
<asrwt>0</asrwt>
<pdfrwt beam="1">  1        2 0.27664193E+00 0.10668131E+04</pdfrwt>
<pdfrwt beam="2">  1       -2 0.15622671E+00 0.10668131E+04</pdfrwt>
<totfact> 0.22938067E+00</totfact>
</mgrwt>
</event>
<event>
 4    5  0.2025789E-007  0.8859731E+03  0.7818608E-02  0.9548935E-01
          2   -1    0    0  501    0  0.00000000000E+00  0.00000000000E+00  0.11524099304E+04  0.11524099304E+04  0.25500000000E-02 0. -1.
         -2   -1    0    0    0  501 -0.00000000000E+00 -0.00000000000E+00 -0.62903776330E+03  0.62903776331E+03  0.25500000000E-02 0.  1.
    8880023    1    1    2    0    0  0.37086201231E+03 -0.46216817826E+03  0.71679105132E+03  0.11396217244E+04  0.65864270000E+03 0.  0.
    8880022    1    1    2    0    0 -0.37086201231E+03  0.46216817826E+03 -0.19341888419E+03  0.64182596936E+03  0.15294330000E+03 0.  0.
<mgrwt>
<rscale>  0 0.80770202E+03</rscale>
<asrwt>0</asrwt>
<pdfrwt beam="1">  1        2 0.17729383E+00 0.88597306E+03</pdfrwt>
<pdfrwt beam="2">  1       -2 0.96775042E-01 0.88597306E+03</pdfrwt>
<totfact> 0.18136889E+01</totfact>
</mgrwt>
</event>
<event>
 4    5  0.2025789E-007  0.8016611E+03  0.7818608E-02  0.9707216E-01
         -2   -1    0    0    0  501 -0.00000000000E+00  0.00000000000E+00  0.89662943586E+03  0.89662943587E+03  0.25500000000E-02 0.  1.
          2   -1    0    0  501    0  0.00000000000E+00 -0.00000000000E+00 -0.20821699043E+04  0.20821699043E+04  0.25500000000E-02 0. -1.
    8880023    1    1    2    0    0 -0.22351763678E+03  0.39861027812E+03 -0.19311918748E+04  0.20909716763E+04  0.65864270000E+03 0.  0.
    8880022    1    1    2    0    0  0.22351763678E+03 -0.39861027812E+03  0.74565140637E+03  0.88782766380E+03  0.15294330000E+03 0.  0.
<mgrwt>
<rscale>  0 0.70588781E+03</rscale>
<asrwt>0</asrwt>
<pdfrwt beam="1">  1        2 0.32033383E+00 0.80166108E+03</pdfrwt>
<pdfrwt beam="2">  1       -2 0.13794299E+00 0.80166108E+03</pdfrwt>
<totfact> 0.23110041E+00</totfact>
</mgrwt>
</event>
<event>
 4    5  0.2025789E-007  0.1058336E+04  0.7818608E-02  0.9308927E-01
         -2   -1    0    0    0  501 -0.00000000000E+00  0.00000000000E+00  0.24836844502E+03  0.24836844503E+03  0.25500000000E-02 0.  1.
          2   -1    0    0  501    0  0.00000000000E+00 -0.00000000000E+00 -0.36461858989E+04  0.36461858989E+04  0.25500000000E-02 0. -1.
    8880023    1    1    2    0    0  0.24768003598E+03  0.79051893983E+03 -0.17920701445E+04  0.20812475113E+04  0.65864270000E+03 0.  0.
    8880022    1    1    2    0    0 -0.24768003598E+03 -0.79051893983E+03 -0.16057473094E+04  0.18133068326E+04  0.15294330000E+03 0.  1.
<mgrwt>
<rscale>  0 0.99965205E+03</rscale>
<asrwt>0</asrwt>
<pdfrwt beam="1">  1        2 0.56095164E+00 0.10583363E+04</pdfrwt>
<pdfrwt beam="2">  1       -2 0.38210533E-01 0.10583363E+04</pdfrwt>
<totfact> 0.42683481E+00</totfact>
</mgrwt>
</event>
<event>
 4    5  0.2025789E-007  0.8839008E+03  0.7818608E-02  0.9552386E-01
          2   -1    0    0  501    0  0.00000000000E+00  0.00000000000E+00  0.16760105936E+04  0.16760105936E+04  0.25500000000E-02 0. -1.
         -2   -1    0    0    0  501 -0.00000000000E+00 -0.00000000000E+00 -0.62139665109E+03  0.62139665109E+03  0.25500000000E-02 0.  1.
    8880023    1    1    2    0    0 -0.58310391650E+03  0.86372255867E+02  0.13554370387E+04  0.16181749337E+04  0.65864270000E+03 0. -1.
    8880022    1    1    2    0    0  0.58310391650E+03 -0.86372255867E+02 -0.30082309619E+03  0.67923231095E+03  0.15294330000E+03 0.  0.
<mgrwt>
<rscale>  0 0.80529346E+03</rscale>
<asrwt>0</asrwt>
<pdfrwt beam="1">  1        2 0.25784778E+00 0.88390076E+03</pdfrwt>
<pdfrwt beam="2">  1       -2 0.95599487E-01 0.88390076E+03</pdfrwt>
<totfact> 0.93837107E+00</totfact>
</mgrwt>
</event>
<event>
 4    5  0.2025789E-007  0.1241451E+04  0.7818608E-02  0.9117846E-01
          2   -1    0    0  501    0  0.00000000000E+00  0.00000000000E+00  0.31871008408E+04  0.31871008408E+04  0.25500000000E-02 0. -1.
         -2   -1    0    0    0  501 -0.00000000000E+00 -0.00000000000E+00 -0.49341467422E+03  0.49341467423E+03  0.25500000000E-02 0.  1.
    8880023    1    1    2    0    0  0.10233640114E+04  0.24518440074E+03  0.71092443207E+03  0.14305988412E+04  0.65864270000E+03 0.  0.
    8880022    1    1    2    0    0 -0.10233640114E+04 -0.24518440074E+03  0.19827617345E+04  0.22499166738E+04  0.15294330000E+03 0.  1.
<mgrwt>
<rscale>  0 0.11943164E+04</rscale>
<asrwt>0</asrwt>
<pdfrwt beam="1">  1        2 0.49032323E+00 0.12414506E+04</pdfrwt>
<pdfrwt beam="2">  1       -2 0.75909946E-01 0.12414506E+04</pdfrwt>
<totfact> 0.20393612E+00</totfact>
</mgrwt>
</event>
<event>
 4    5  0.2025789E-007  0.7398886E+03  0.7818608E-02  0.9860272E-01
          2   -1    0    0  501    0  0.00000000000E+00  0.00000000000E+00  0.23003422054E+04  0.23003422054E+04  0.25500000000E-02 0. -1.
         -2   -1    0    0    0  501 -0.00000000000E+00 -0.00000000000E+00 -0.19506820268E+03  0.19506820270E+03  0.25500000000E-02 0.  1.
    8880023    1    1    2    0    0  0.23925528326E+03 -0.23744858568E+03  0.19648009778E+04  0.20994947035E+04  0.65864270000E+03 0. -1.
    8880022    1    1    2    0    0 -0.23925528326E+03  0.23744858568E+03  0.14047302492E+03  0.39591570460E+03  0.15294330000E+03 0.  1.
<mgrwt>
<rscale>  0 0.62225929E+03</rscale>
<asrwt>0</asrwt>
<pdfrwt beam="1">  1        2 0.35389880E+00 0.73988859E+03</pdfrwt>
<pdfrwt beam="2">  1       -2 0.30010493E-01 0.73988859E+03</pdfrwt>
<totfact> 0.48168728E+01</totfact>
</mgrwt>
</event>
<event>
 4    5  0.2025789E-007  0.9092733E+03  0.7818608E-02  0.9511306E-01
          2   -1    0    0  501    0  0.00000000000E+00  0.00000000000E+00  0.25032995623E+04  0.25032995623E+04  0.25500000000E-02 0. -1.
         -2   -1    0    0    0  501 -0.00000000000E+00 -0.00000000000E+00 -0.47014039946E+03  0.47014039947E+03  0.25500000000E-02 0.  1.
    8880023    1    1    2    0    0  0.88749872498E+02 -0.62055721172E+03  0.21346583792E+04  0.23202466238E+04  0.65864270000E+03 0. -1.
    8880022    1    1    2    0    0 -0.88749872498E+02  0.62055721172E+03 -0.10149921637E+03  0.65319333801E+03  0.15294330000E+03 0.  0.
<mgrwt>
<rscale>  0 0.83455391E+03</rscale>
<asrwt>0</asrwt>
<pdfrwt beam="1">  1        2 0.38512300E+00 0.90927334E+03</pdfrwt>
<pdfrwt beam="2">  1       -2 0.72329295E-01 0.90927334E+03</pdfrwt>
<totfact> 0.61371498E+00</totfact>
</mgrwt>
</event>
<event>
 4    5  0.2025789E-007  0.7626909E+03  0.7818608E-02  0.9798190E-01
          2   -1    0    0  501    0  0.00000000000E+00  0.00000000000E+00  0.89505398549E+03  0.89505398549E+03  0.25500000000E-02 0. -1.
         -2   -1    0    0    0  501 -0.00000000000E+00 -0.00000000000E+00 -0.12330890336E+04  0.12330890336E+04  0.25500000000E-02 0.  1.
    8880023    1    1    2    0    0 -0.18112460962E+03  0.33923607889E+03  0.68463770618E+03  0.10249030376E+04  0.65864270000E+03 0. -1.
    8880022    1    1    2    0    0  0.18112460962E+03 -0.33923607889E+03 -0.10226727543E+04  0.11032399815E+04  0.15294330000E+03 0.  0.
<mgrwt>
<rscale>  0 0.65459761E+03</rscale>
<asrwt>0</asrwt>
<pdfrwt beam="1">  1        2 0.13770061E+00 0.76269093E+03</pdfrwt>
<pdfrwt beam="2">  1       -2 0.18970601E+00 0.76269093E+03</pdfrwt>
<totfact> 0.46913453E+00</totfact>
</mgrwt>
</event>
<event>
 4    5  0.2025789E-007  0.2175519E+04  0.7818608E-02  0.8539108E-01
         -2   -1    0    0    0  501 -0.00000000000E+00  0.00000000000E+00  0.14262943648E+04  0.14262943648E+04  0.25500000000E-02 0.  1.
          2   -1    0    0  501    0  0.00000000000E+00 -0.00000000000E+00 -0.39372986773E+04  0.39372986773E+04  0.25500000000E-02 0. -1.
    8880023    1    1    2    0    0  0.82961477078E+03  0.19002139885E+04 -0.24599167536E+04  0.32839114651E+04  0.65864270000E+03 0.  0.
    8880022    1    1    2    0    0 -0.82961477078E+03 -0.19002139885E+04 -0.51087558816E+02  0.20796815770E+04  0.15294330000E+03 0.  0.
<mgrwt>
<rscale>  0 0.21509912E+04</rscale>
<asrwt>0</asrwt>
<pdfrwt beam="1">  1        2 0.60573825E+00 0.21755193E+04</pdfrwt>
<pdfrwt beam="2">  1       -2 0.21942990E+00 0.21755193E+04</pdfrwt>
<totfact> 0.33558454E-02</totfact>
</mgrwt>
</event>
<event>
 4    5  0.2025789E-007  0.1267290E+04  0.7818608E-02  0.9094334E-01
         -2   -1    0    0    0  501 -0.00000000000E+00  0.00000000000E+00  0.11831162234E+04  0.11831162234E+04  0.25500000000E-02 0.  1.
          2   -1    0    0  501    0  0.00000000000E+00 -0.00000000000E+00 -0.12480770594E+04  0.12480770594E+04  0.25500000000E-02 0. -1.
    8880023    1    1    2    0    0  0.29963141777E+03  0.10404014940E+04 -0.32282395049E+03  0.13077613561E+04  0.65864270000E+03 0.  0.
    8880022    1    1    2    0    0 -0.29963141777E+03 -0.10404014940E+04  0.25786311448E+03  0.11234319268E+04  0.15294330000E+03 0.  0.
<mgrwt>
<rscale>  0 0.12213934E+04</rscale>
<asrwt>0</asrwt>
<pdfrwt beam="1">  1        2 0.19201186E+00 0.12672902E+04</pdfrwt>
<pdfrwt beam="2">  1       -2 0.18201788E+00 0.12672902E+04</pdfrwt>
<totfact> 0.30053552E+00</totfact>
</mgrwt>
</event>
<event>
 4    5  0.2025789E-007  0.7754570E+03  0.7818608E-02  0.9766619E-01
         -2   -1    0    0    0  501 -0.00000000000E+00  0.00000000000E+00  0.86931109557E+03  0.86931109557E+03  0.25500000000E-02 0.  1.
          2   -1    0    0  501    0  0.00000000000E+00 -0.00000000000E+00 -0.97953950989E+03  0.97953950989E+03  0.25500000000E-02 0. -1.
    8880023    1    1    2    0    0 -0.21091499507E+03  0.35076803511E+03 -0.74690648057E+03  0.10766628286E+04  0.65864270000E+03 0. -1.
    8880022    1    1    2    0    0  0.21091499507E+03 -0.35076803511E+03  0.63667806625E+03  0.77218777682E+03  0.15294330000E+03 0.  0.
<mgrwt>
<rscale>  0 0.67185151E+03</rscale>
<asrwt>0</asrwt>
<pdfrwt beam="1">  1        2 0.15069839E+00 0.77545700E+03</pdfrwt>
<pdfrwt beam="2">  1       -2 0.13374017E+00 0.77545700E+03</pdfrwt>
<totfact> 0.10642426E+01</totfact>
</mgrwt>
</event>
<event>
 4    5  0.2025789E-007  0.1134855E+04  0.7818608E-02  0.9223207E-01
          2   -1    0    0  501    0  0.00000000000E+00  0.00000000000E+00  0.36555112197E+04  0.36555112197E+04  0.25500000000E-02 0. -1.
         -2   -1    0    0    0  501 -0.00000000000E+00 -0.00000000000E+00 -0.40808349226E+03  0.40808349227E+03  0.25500000000E-02 0.  1.
    8880023    1    1    2    0    0 -0.44900969789E+03 -0.80775964732E+03  0.28085032922E+04  0.30291230258E+04  0.65864270000E+03 0.  0.
    8880022    1    1    2    0    0  0.44900969789E+03  0.80775964732E+03  0.43892443519E+03  0.10344716862E+04  0.15294330000E+03 0.  0.
<mgrwt>
<rscale>  0 0.10817072E+04</rscale>
<asrwt>0</asrwt>
<pdfrwt beam="1">  1        2 0.56238633E+00 0.11348549E+04</pdfrwt>
<pdfrwt beam="2">  1       -2 0.62782077E-01 0.11348549E+04</pdfrwt>
<totfact> 0.15089276E+00</totfact>
</mgrwt>
</event>
<event>
 4    5  0.2025789E-007  0.1013313E+04  0.7818608E-02  0.9364343E-01
         -2   -1    0    0    0  501 -0.00000000000E+00  0.00000000000E+00  0.26771002653E+04  0.26771002653E+04  0.25500000000E-02 0.  1.
          2   -1    0    0  501    0  0.00000000000E+00 -0.00000000000E+00 -0.11439029306E+04  0.11439029306E+04  0.25500000000E-02 0. -1.
    8880023    1    1    2    0    0 -0.38153443519E+03 -0.66889835103E+03 -0.84321394940E+03  0.13182615446E+04  0.65864270000E+03 0.  0.
    8880022    1    1    2    0    0  0.38153443519E+03  0.66889835103E+03  0.23764112840E+04  0.25027416513E+04  0.15294330000E+03 0.  0.
<mgrwt>
<rscale>  0 0.95069085E+03</rscale>
<asrwt>0</asrwt>
<pdfrwt beam="1">  1        2 0.17598507E+00 0.10133132E+04</pdfrwt>
<pdfrwt beam="2">  1       -2 0.41186158E+00 0.10133132E+04</pdfrwt>
<totfact> 0.12897604E-01</totfact>
</mgrwt>
</event>
<event>
 4    5  0.2025789E-007  0.1186755E+04  0.7818608E-02  0.9170106E-01
          2   -1    0    0  501    0  0.00000000000E+00  0.00000000000E+00  0.27090705311E+04  0.27090705311E+04  0.25500000000E-02 0. -1.
         -2   -1    0    0    0  501 -0.00000000000E+00 -0.00000000000E+00 -0.58887752084E+03  0.58887752085E+03  0.25500000000E-02 0.  1.
    8880023    1    1    2    0    0  0.64405017645E+03 -0.74818258961E+03  0.19526653197E+04  0.22850141956E+04  0.65864270000E+03 0.  0.
    8880022    1    1    2    0    0 -0.64405017645E+03  0.74818258961E+03  0.16752769057E+03  0.10129338563E+04  0.15294330000E+03 0.  0.
<mgrwt>
<rscale>  0 0.11367384E+04</rscale>
<asrwt>0</asrwt>
<pdfrwt beam="1">  1        2 0.41678009E+00 0.11867553E+04</pdfrwt>
<pdfrwt beam="2">  1       -2 0.90596539E-01 0.11867553E+04</pdfrwt>
<totfact> 0.26995463E+00</totfact>
</mgrwt>
</event>
<event>
 4    5  0.2025789E-007  0.1051329E+04  0.7818608E-02  0.9317285E-01
         -2   -1    0    0    0  501 -0.00000000000E+00  0.00000000000E+00  0.11302131637E+04  0.11302131637E+04  0.25500000000E-02 0.  1.
          2   -1    0    0  501    0  0.00000000000E+00 -0.00000000000E+00 -0.10730402847E+04  0.10730402847E+04  0.25500000000E-02 0. -1.
    8880023    1    1    2    0    0  0.61235877012E+03 -0.54451771327E+03 -0.53607335275E+03  0.11801134052E+04  0.65864270000E+03 0. -1.
    8880022    1    1    2    0    0 -0.61235877012E+03  0.54451771327E+03  0.59324623178E+03  0.10231400432E+04  0.15294330000E+03 0.  0.
<mgrwt>
<rscale>  0 0.99207002E+03</rscale>
<asrwt>0</asrwt>
<pdfrwt beam="1">  1        2 0.16508312E+00 0.10513292E+04</pdfrwt>
<pdfrwt beam="2">  1       -2 0.17387895E+00 0.10513292E+04</pdfrwt>
<totfact> 0.44667822E+00</totfact>
</mgrwt>
</event>
<event>
 4    5  0.2025789E-007  0.7495970E+03  0.7818608E-02  0.9832825E-01
         -2   -1    0    0    0  501 -0.00000000000E+00  0.00000000000E+00  0.43221368708E+03  0.43221368708E+03  0.25500000000E-02 0.  1.
          2   -1    0    0  501    0  0.00000000000E+00 -0.00000000000E+00 -0.80381494002E+03  0.80381494002E+03  0.25500000000E-02 0. -1.
    8880023    1    1    2    0    0 -0.32608991846E+03  0.14748148355E+03 -0.39274709939E+03  0.84625404770E+03  0.65864270000E+03 0. -1.
    8880022    1    1    2    0    0  0.32608991846E+03 -0.14748148355E+03  0.21145846453E+02  0.38977457940E+03  0.15294330000E+03 0.  0.
<mgrwt>
<rscale>  0 0.63630339E+03</rscale>
<asrwt>0</asrwt>
<pdfrwt beam="1">  1        2 0.12366384E+00 0.74959698E+03</pdfrwt>
<pdfrwt beam="2">  1       -2 0.66494413E-01 0.74959698E+03</pdfrwt>
<totfact> 0.72085155E+01</totfact>
</mgrwt>
</event>
<event>
 4    5  0.2025789E-007  0.7826660E+03  0.7818608E-02  0.9749611E-01
         -2   -1    0    0    0  501 -0.00000000000E+00  0.00000000000E+00  0.39499141152E+03  0.39499141153E+03  0.25500000000E-02 0.  1.
          2   -1    0    0  501    0  0.00000000000E+00 -0.00000000000E+00 -0.37759151553E+04  0.37759151553E+04  0.25500000000E-02 0. -1.
    8880023    1    1    2    0    0  0.41238527136E+03  0.93243066666E+02 -0.35905275885E+04  0.36748407382E+04  0.65864270000E+03 0. -1.
    8880022    1    1    2    0    0 -0.41238527136E+03 -0.93243066666E+02  0.20960384474E+03  0.49606582856E+03  0.15294330000E+03 0.  0.
<mgrwt>
<rscale>  0 0.68138240E+03</rscale>
<asrwt>0</asrwt>
<pdfrwt beam="1">  1        2 0.58091000E+00 0.78266601E+03</pdfrwt>
<pdfrwt beam="2">  1       -2 0.60767912E-01 0.78266601E+03</pdfrwt>
<totfact> 0.14104834E+00</totfact>
</mgrwt>
</event>
<event>
 4    5  0.2025789E-007  0.7991210E+03  0.7818608E-02  0.9712700E-01
          2   -1    0    0  501    0  0.00000000000E+00  0.00000000000E+00  0.22805331717E+04  0.22805331717E+04  0.25500000000E-02 0. -1.
         -2   -1    0    0    0  501 -0.00000000000E+00 -0.00000000000E+00 -0.43281494842E+03  0.43281494843E+03  0.25500000000E-02 0.  1.
    8880023    1    1    2    0    0  0.11825926993E+03  0.43680533861E+03  0.20457185523E+04  0.21962601759E+04  0.65864270000E+03 0. -1.
    8880022    1    1    2    0    0 -0.11825926993E+03 -0.43680533861E+03 -0.19800032901E+03  0.51708794423E+03  0.15294330000E+03 0.  0.
<mgrwt>
<rscale>  0 0.70265656E+03</rscale>
<asrwt>0</asrwt>
<pdfrwt beam="1">  1        2 0.35085125E+00 0.79912100E+03</pdfrwt>
<pdfrwt beam="2">  1       -2 0.66586916E-01 0.79912100E+03</pdfrwt>
<totfact> 0.99714599E+00</totfact>
</mgrwt>
</event>
<event>
 4    5  0.2025789E-007  0.1114386E+04  0.7818608E-02  0.9245206E-01
         -2   -1    0    0    0  501 -0.00000000000E+00  0.00000000000E+00  0.54776347385E+03  0.54776347385E+03  0.25500000000E-02 0.  1.
          2   -1    0    0  501    0  0.00000000000E+00 -0.00000000000E+00 -0.23005646668E+04  0.23005646668E+04  0.25500000000E-02 0. -1.
    8880023    1    1    2    0    0  0.57462715782E+03 -0.69126694685E+03 -0.15586592337E+04  0.19160571952E+04  0.65864270000E+03 0.  0.
    8880022    1    1    2    0    0 -0.57462715782E+03  0.69126694685E+03 -0.19414195923E+03  0.93227094541E+03  0.15294330000E+03 0.  0.
<mgrwt>
<rscale>  0 0.10598771E+04</rscale>
<asrwt>0</asrwt>
<pdfrwt beam="1">  1        2 0.35393302E+00 0.11143862E+04</pdfrwt>
<pdfrwt beam="2">  1       -2 0.84271305E-01 0.11143862E+04</pdfrwt>
<totfact> 0.55259801E+00</totfact>
</mgrwt>
</event>
<event>
 4    5  0.2025789E-007  0.8110823E+03  0.7818608E-02  0.9687327E-01
         -2   -1    0    0    0  501 -0.00000000000E+00  0.00000000000E+00  0.18069687430E+04  0.18069687430E+04  0.25500000000E-02 0.  1.
          2   -1    0    0  501    0  0.00000000000E+00 -0.00000000000E+00 -0.53750710593E+03  0.53750710593E+03  0.25500000000E-02 0. -1.
    8880023    1    1    2    0    0  0.46830107136E+03  0.68835556796E+02 -0.16370532628E+03  0.82743813511E+03  0.65864270000E+03 0. -1.
    8880022    1    1    2    0    0 -0.46830107136E+03 -0.68835556796E+02  0.14331669634E+04  0.15170377138E+04  0.15294330000E+03 0.  0.
<mgrwt>
<rscale>  0 0.71776373E+03</rscale>
<asrwt>0</asrwt>
<pdfrwt beam="1">  1        2 0.82693402E-01 0.81108226E+03</pdfrwt>
<pdfrwt beam="2">  1       -2 0.27799519E+00 0.81108226E+03</pdfrwt>
<totfact> 0.25168401E+00</totfact>
</mgrwt>
</event>
<event>
 4    5  0.2025789E-007  0.8765562E+03  0.7818608E-02  0.9564766E-01
          2   -1    0    0  501    0  0.00000000000E+00  0.00000000000E+00  0.13716904097E+04  0.13716904097E+04  0.25500000000E-02 0. -1.
         -2   -1    0    0    0  501 -0.00000000000E+00 -0.00000000000E+00 -0.43763502581E+03  0.43763502582E+03  0.25500000000E-02 0.  1.
    8880023    1    1    2    0    0  0.19601124915E+03  0.54416928418E+03  0.27378002386E+03  0.91831711699E+03  0.65864270000E+03 0.  1.
    8880022    1    1    2    0    0 -0.19601124915E+03 -0.54416928418E+03  0.66027536007E+03  0.89100831858E+03  0.15294330000E+03 0.  0.
<mgrwt>
<rscale>  0 0.79672775E+03</rscale>
<asrwt>0</asrwt>
<pdfrwt beam="1">  1        2 0.21102929E+00 0.87655623E+03</pdfrwt>
<pdfrwt beam="2">  1       -2 0.67328466E-01 0.87655623E+03</pdfrwt>
<totfact> 0.30643285E+01</totfact>
</mgrwt>
</event>
<event>
 4    5  0.2025789E-007  0.1551376E+04  0.7818608E-02  0.8874185E-01
         -2   -1    0    0    0  501 -0.00000000000E+00  0.00000000000E+00  0.24720761661E+04  0.24720761661E+04  0.25500000000E-02 0.  1.
          2   -1    0    0  501    0  0.00000000000E+00 -0.00000000000E+00 -0.11240913840E+04  0.11240913840E+04  0.25500000000E-02 0. -1.
    8880023    1    1    2    0    0 -0.70405391343E+03 -0.12154276076E+04  0.15211075400E+04  0.21726791151E+04  0.65864270000E+03 0. -1.
    8880022    1    1    2    0    0  0.70405391343E+03  0.12154276076E+04 -0.17312275789E+03  0.14234884351E+04  0.15294330000E+03 0.  0.
<mgrwt>
<rscale>  0 0.15155395E+04</rscale>
<asrwt>0</asrwt>
<pdfrwt beam="1">  1        2 0.17293714E+00 0.15513756E+04</pdfrwt>
<pdfrwt beam="2">  1       -2 0.38031941E+00 0.15513756E+04</pdfrwt>
<totfact> 0.19769070E-01</totfact>
</mgrwt>
</event>
<event>
 4    5  0.2025789E-007  0.7989291E+03  0.7818608E-02  0.9713116E-01
         -2   -1    0    0    0  501 -0.00000000000E+00  0.00000000000E+00  0.37576942749E+03  0.37576942750E+03  0.25500000000E-02 0.  1.
          2   -1    0    0  501    0  0.00000000000E+00 -0.00000000000E+00 -0.22761275028E+04  0.22761275028E+04  0.25500000000E-02 0. -1.
    8880023    1    1    2    0    0  0.41461862539E+03  0.18046834275E+03 -0.20092647949E+04  0.21622748783E+04  0.65864270000E+03 0. -1.
    8880022    1    1    2    0    0 -0.41461862539E+03 -0.18046834275E+03  0.10890671951E+03  0.48962205202E+03  0.15294330000E+03 0.  0.
<mgrwt>
<rscale>  0 0.70241186E+03</rscale>
<asrwt>0</asrwt>
<pdfrwt beam="1">  1        2 0.35017345E+00 0.79892905E+03</pdfrwt>
<pdfrwt beam="2">  1       -2 0.57810683E-01 0.79892905E+03</pdfrwt>
<totfact> 0.13548684E+01</totfact>
</mgrwt>
</event>
<event>
 4    5  0.2025789E-007  0.7555740E+03  0.7818608E-02  0.9816704E-01
         -2   -1    0    0    0  501 -0.00000000000E+00  0.00000000000E+00  0.24263432030E+03  0.24263432031E+03  0.25500000000E-02 0.  1.
          2   -1    0    0  501    0  0.00000000000E+00 -0.00000000000E+00 -0.19936831992E+04  0.19936831992E+04  0.25500000000E-02 0. -1.
    8880023    1    1    2    0    0 -0.29550188720E+03 -0.22307056116E+03 -0.16623749014E+04  0.18260291235E+04  0.65864270000E+03 0.  0.
    8880022    1    1    2    0    0  0.29550188720E+03  0.22307056116E+03 -0.88673977414E+02  0.41028839599E+03  0.15294330000E+03 0.  0.
<mgrwt>
<rscale>  0 0.64473784E+03</rscale>
<asrwt>0</asrwt>
<pdfrwt beam="1">  1        2 0.30672048E+00 0.75557399E+03</pdfrwt>
<pdfrwt beam="2">  1       -2 0.37328358E-01 0.75557399E+03</pdfrwt>
<totfact> 0.46921156E+01</totfact>
</mgrwt>
</event>
<event>
 4    5  0.2025789E-007  0.9650712E+03  0.7818608E-02  0.9428754E-01
         -2   -1    0    0    0  501 -0.00000000000E+00  0.00000000000E+00  0.35793655373E+03  0.35793655374E+03  0.25500000000E-02 0.  1.
          2   -1    0    0  501    0  0.00000000000E+00 -0.00000000000E+00 -0.24300824273E+04  0.24300824273E+04  0.25500000000E-02 0. -1.
    8880023    1    1    2    0    0  0.64285633115E+02 -0.70243827329E+03 -0.17482026025E+04  0.19968912629E+04  0.65864270000E+03 0.  0.
    8880022    1    1    2    0    0 -0.64285633115E+02  0.70243827329E+03 -0.32394327104E+03  0.79112771806E+03  0.15294330000E+03 0.  0.
<mgrwt>
<rscale>  0 0.89746676E+03</rscale>
<asrwt>0</asrwt>
<pdfrwt beam="1">  1        2 0.37385882E+00 0.96507118E+03</pdfrwt>
<pdfrwt beam="2">  1       -2 0.55067164E-01 0.96507118E+03</pdfrwt>
<totfact> 0.12024918E+01</totfact>
</mgrwt>
</event>
<event>
 4    5  0.2025789E-007  0.9611111E+03  0.7818608E-02  0.9434305E-01
          2   -1    0    0  501    0  0.00000000000E+00  0.00000000000E+00  0.15662358367E+04  0.15662358367E+04  0.25500000000E-02 0. -1.
         -2   -1    0    0    0  501 -0.00000000000E+00 -0.00000000000E+00 -0.68215206299E+03  0.68215206300E+03  0.25500000000E-02 0.  1.
    8880023    1    1    2    0    0 -0.43811595618E+03  0.54587432751E+03  0.11368212943E+04  0.14886561839E+04  0.65864270000E+03 0. -1.
    8880022    1    1    2    0    0  0.43811595618E+03 -0.54587432751E+03 -0.25273752066E+03  0.75973171571E+03  0.15294330000E+03 0.  0.
<mgrwt>
<rscale>  0 0.89305520E+03</rscale>
<asrwt>0</asrwt>
<pdfrwt beam="1">  1        2 0.24095936E+00 0.96111112E+03</pdfrwt>
<pdfrwt beam="2">  1       -2 0.10494647E+00 0.96111112E+03</pdfrwt>
<totfact> 0.85709101E+00</totfact>
</mgrwt>
</event>
<event>
 4    5  0.2025789E-007  0.8264078E+03  0.7818608E-02  0.9656363E-01
          2   -1    0    0  501    0  0.00000000000E+00  0.00000000000E+00  0.12943500192E+04  0.12943500192E+04  0.25500000000E-02 0. -1.
         -2   -1    0    0    0  501 -0.00000000000E+00 -0.00000000000E+00 -0.37931871419E+03  0.37931871420E+03  0.25500000000E-02 0.  1.
    8880023    1    1    2    0    0  0.28630787419E+03 -0.40886116130E+03  0.77551528602E+03  0.11333021720E+04  0.65864270000E+03 0. -1.
    8880022    1    1    2    0    0 -0.28630787419E+03  0.40886116130E+03  0.13951601897E+03  0.54036656133E+03  0.15294330000E+03 0. -1.
<mgrwt>
<rscale>  0 0.73675460E+03</rscale>
<asrwt>0</asrwt>
<pdfrwt beam="1">  1        2 0.19913077E+00 0.82640780E+03</pdfrwt>
<pdfrwt beam="2">  1       -2 0.58356725E-01 0.82640780E+03</pdfrwt>
<totfact> 0.46286302E+01</totfact>
</mgrwt>
</event>
<event>
 4    5  0.2025789E-007  0.6586725E+03  0.7818608E-02  0.1025560E+00
          2   -1    0    0  501    0  0.00000000000E+00  0.00000000000E+00  0.17181565553E+04  0.17181565553E+04  0.25500000000E-02 0. -1.
         -2   -1    0    0    0  501 -0.00000000000E+00 -0.00000000000E+00 -0.41738886594E+03  0.41738886595E+03  0.25500000000E-02 0.  1.
    8880023    1    1    2    0    0  0.42187946270E+01  0.46267765106E+01  0.16378511710E+04  0.17653344924E+04  0.65864270000E+03 0. -1.
    8880022    1    1    2    0    0 -0.42187946270E+01 -0.46267765106E+01 -0.33708348163E+03  0.37021092892E+03  0.15294330000E+03 0.  0.
<mgrwt>
<rscale>  0 0.45732575E+03</rscale>
<asrwt>0</asrwt>
<pdfrwt beam="1">  1        2 0.26433178E+00 0.65867246E+03</pdfrwt>
<pdfrwt beam="2">  1       -2 0.64213672E-01 0.65867246E+03</pdfrwt>
<totfact> 0.22348261E+01</totfact>
</mgrwt>
</event>
<event>
 4    5  0.2025789E-007  0.7052953E+03  0.7818608E-02  0.9975905E-01
          2   -1    0    0  501    0  0.00000000000E+00  0.00000000000E+00  0.56739972304E+03  0.56739972304E+03  0.25500000000E-02 0. -1.
         -2   -1    0    0    0  501 -0.00000000000E+00 -0.00000000000E+00 -0.18080732936E+04  0.18080732936E+04  0.25500000000E-02 0.  1.
    8880023    1    1    2    0    0 -0.15375935367E+03  0.19997334812E+03  0.32904543041E+03  0.77827526000E+03  0.65864270000E+03 0. -1.
    8880022    1    1    2    0    0  0.15375935367E+03 -0.19997334812E+03 -0.15697190010E+04  0.15971977567E+04  0.15294330000E+03 0.  0.
<mgrwt>
<rscale>  0 0.56719509E+03</rscale>
<asrwt>0</asrwt>
<pdfrwt beam="1">  1        2 0.87292266E-01 0.70529532E+03</pdfrwt>
<pdfrwt beam="2">  1       -2 0.27816512E+00 0.70529532E+03</pdfrwt>
<totfact> 0.23925728E+00</totfact>
</mgrwt>
</event>
<event>
 4    5  0.2025789E-007  0.8378998E+03  0.7818608E-02  0.9634153E-01
          2   -1    0    0  501    0  0.00000000000E+00  0.00000000000E+00  0.76899111643E+03  0.76899111644E+03  0.25500000000E-02 0. -1.
         -2   -1    0    0    0  501 -0.00000000000E+00 -0.00000000000E+00 -0.89222844891E+03  0.89222844892E+03  0.25500000000E-02 0.  1.
    8880023    1    1    2    0    0 -0.48704368965E+03 -0.17622224296E+03  0.38273591084E+03  0.92117469475E+03  0.65864270000E+03 0. -1.
    8880022    1    1    2    0    0  0.48704368965E+03  0.17622224296E+03 -0.50597324332E+03  0.74004487061E+03  0.15294330000E+03 0.  0.
<mgrwt>
<rscale>  0 0.75076358E+03</rscale>
<asrwt>0</asrwt>
<pdfrwt beam="1">  1        2 0.11830633E+00 0.83789978E+03</pdfrwt>
<pdfrwt beam="2">  1       -2 0.13726592E+00 0.83789978E+03</pdfrwt>
<totfact> 0.13806667E+01</totfact>
</mgrwt>
</event>
<event>
 4    5  0.2025789E-007  0.6748674E+03  0.7818608E-02  0.1012390E+00
          2   -1    0    0  501    0  0.00000000000E+00  0.00000000000E+00  0.15010288185E+04  0.15010288185E+04  0.25500000000E-02 0. -1.
         -2   -1    0    0    0  501 -0.00000000000E+00 -0.00000000000E+00 -0.26899122487E+03  0.26899122488E+03  0.25500000000E-02 0.  1.
    8880023    1    1    2    0    0 -0.36375320017E+02 -0.14252241935E+03  0.13628155960E+04  0.15207604541E+04  0.65864270000E+03 0. -1.
    8880022    1    1    2    0    0  0.36375320017E+02  0.14252241935E+03 -0.13077800235E+03  0.24925958926E+03  0.15294330000E+03 0.  0.
<mgrwt>
<rscale>  0 0.50535727E+03</rscale>
<asrwt>0</asrwt>
<pdfrwt beam="1">  1        2 0.23092751E+00 0.67486740E+03</pdfrwt>
<pdfrwt beam="2">  1       -2 0.41383265E-01 0.67486740E+03</pdfrwt>
<totfact> 0.72089076E+01</totfact>
</mgrwt>
</event>
<event>
 4    5  0.2025789E-007  0.1063725E+04  0.7818608E-02  0.9302561E-01
          2   -1    0    0  501    0  0.00000000000E+00  0.00000000000E+00  0.20974322956E+04  0.20974322956E+04  0.25500000000E-02 0. -1.
         -2   -1    0    0    0  501 -0.00000000000E+00 -0.00000000000E+00 -0.14569965918E+04  0.14569965918E+04  0.25500000000E-02 0.  1.
    8880023    1    1    2    0    0 -0.41948370905E+03  0.72231172531E+03  0.18157820159E+04  0.21044180540E+04  0.65864270000E+03 0. -1.
    8880022    1    1    2    0    0  0.41948370905E+03 -0.72231172531E+03 -0.11753463120E+04  0.14500108334E+04  0.15294330000E+03 0.  0.
<mgrwt>
<rscale>  0 0.10054742E+04</rscale>
<asrwt>0</asrwt>
<pdfrwt beam="1">  1        2 0.32268189E+00 0.10637251E+04</pdfrwt>
<pdfrwt beam="2">  1       -2 0.22415332E+00 0.10637251E+04</pdfrwt>
<totfact> 0.54392089E-01</totfact>
</mgrwt>
</event>
<event>
 4    5  0.2025789E-007  0.9459747E+03  0.7818608E-02  0.9455929E-01
          2   -1    0    0  501    0  0.00000000000E+00  0.00000000000E+00  0.86885127748E+03  0.86885127748E+03  0.25500000000E-02 0. -1.
         -2   -1    0    0    0  501 -0.00000000000E+00 -0.00000000000E+00 -0.13621657603E+04  0.13621657603E+04  0.25500000000E-02 0.  1.
    8880023    1    1    2    0    0  0.64700612284E+03  0.20601220563E+03  0.45900804617E+03  0.10514544900E+04  0.65864270000E+03 0. -1.
    8880022    1    1    2    0    0 -0.64700612284E+03 -0.20601220563E+03 -0.95232252895E+03  0.11795625477E+04  0.15294330000E+03 0.  0.
<mgrwt>
<rscale>  0 0.87612429E+03</rscale>
<asrwt>0</asrwt>
<pdfrwt beam="1">  1        2 0.13366943E+00 0.94597471E+03</pdfrwt>
<pdfrwt beam="2">  1       -2 0.20956396E+00 0.94597471E+03</pdfrwt>
<totfact> 0.35459819E+00</totfact>
</mgrwt>
</event>
<event>
 4    5  0.2025789E-007  0.6614501E+03  0.7818608E-02  0.1022718E+00
         -2   -1    0    0    0  501 -0.00000000000E+00  0.00000000000E+00  0.97001727560E+02  0.97001727593E+02  0.25500000000E-02 0.  1.
          2   -1    0    0  501    0  0.00000000000E+00 -0.00000000000E+00 -0.25288479994E+04  0.25288479994E+04  0.25500000000E-02 0. -1.
    8880023    1    1    2    0    0  0.50551450368E+02  0.33919567167E+02 -0.23513398482E+04  0.24426041993E+04  0.65864270000E+03 0.  0.
    8880022    1    1    2    0    0 -0.50551450368E+02 -0.33919567167E+02 -0.80506423604E+02  0.18324552772E+03  0.15294330000E+03 0.  1.
<mgrwt>
<rscale>  0 0.46718537E+03</rscale>
<asrwt>0</asrwt>
<pdfrwt beam="1">  1        2 0.38905349E+00 0.66145007E+03</pdfrwt>
<pdfrwt beam="2">  1       -2 0.14923345E-01 0.66145007E+03</pdfrwt>
<totfact> 0.12428463E+02</totfact>
</mgrwt>
</event>
<event>
 4    5  0.2025789E-007  0.7136096E+03  0.7818608E-02  0.9944833E-01
          2   -1    0    0  501    0  0.00000000000E+00  0.00000000000E+00  0.23764180711E+04  0.23764180711E+04  0.25500000000E-02 0. -1.
         -2   -1    0    0    0  501 -0.00000000000E+00 -0.00000000000E+00 -0.23770886922E+03  0.23770886923E+03  0.25500000000E-02 0.  1.
    8880023    1    1    2    0    0  0.21004760250E+03 -0.17694208011E+03  0.21829888764E+04  0.22966669623E+04  0.65864270000E+03 0.  0.
    8880022    1    1    2    0    0 -0.21004760250E+03  0.17694208011E+03 -0.44279674559E+02  0.31745997798E+03  0.15294330000E+03 0.  0.
<mgrwt>
<rscale>  0 0.58136812E+03</rscale>
<asrwt>0</asrwt>
<pdfrwt beam="1">  1        2 0.36560278E+00 0.71360963E+03</pdfrwt>
<pdfrwt beam="2">  1       -2 0.36570595E-01 0.71360963E+03</pdfrwt>
<totfact> 0.30202640E+01</totfact>
</mgrwt>
</event>
<event>
 4    5  0.2025789E-007  0.1630053E+04  0.7818608E-02  0.8822872E-01
         -2   -1    0    0    0  501 -0.00000000000E+00  0.00000000000E+00  0.91641046829E+03  0.91641046829E+03  0.25500000000E-02 0.  1.
          2   -1    0    0  501    0  0.00000000000E+00 -0.00000000000E+00 -0.34066510755E+04  0.34066510755E+04  0.25500000000E-02 0. -1.
    8880023    1    1    2    0    0 -0.89146995687E+03 -0.11952166647E+04 -0.22899399286E+04  0.28108533655E+04  0.65864270000E+03 0.  0.
    8880022    1    1    2    0    0  0.89146995687E+03  0.11952166647E+04 -0.20030067855E+03  0.15122081782E+04  0.15294330000E+03 0.  0.
<mgrwt>
<rscale>  0 0.15962218E+04</rscale>
<asrwt>0</asrwt>
<pdfrwt beam="1">  1        2 0.52410016E+00 0.16300527E+04</pdfrwt>
<pdfrwt beam="2">  1       -2 0.14098623E+00 0.16300527E+04</pdfrwt>
<totfact> 0.31240246E-01</totfact>
</mgrwt>
</event>
<event>
 4    5  0.2025789E-007  0.1851259E+04  0.7818608E-02  0.8694699E-01
          2   -1    0    0  501    0  0.00000000000E+00  0.00000000000E+00  0.33009768467E+04  0.33009768467E+04  0.25500000000E-02 0. -1.
         -2   -1    0    0    0  501 -0.00000000000E+00 -0.00000000000E+00 -0.15997760209E+04  0.15997760209E+04  0.25500000000E-02 0.  1.
    8880023    1    1    2    0    0 -0.16908306364E+04 -0.36666415649E+03  0.23978861870E+04  0.30293595390E+04  0.65864270000E+03 0. -1.
    8880022    1    1    2    0    0  0.16908306364E+04  0.36666415649E+03 -0.69668536125E+03  0.18713933285E+04  0.15294330000E+03 0.  0.
<mgrwt>
<rscale>  0 0.18219763E+04</rscale>
<asrwt>0</asrwt>
<pdfrwt beam="1">  1        2 0.50784258E+00 0.18512593E+04</pdfrwt>
<pdfrwt beam="2">  1       -2 0.24611939E+00 0.18512593E+04</pdfrwt>
<totfact> 0.68165602E-02</totfact>
</mgrwt>
</event>
<event>
 4    5  0.2025789E-007  0.8317288E+03  0.7818608E-02  0.9645978E-01
          2   -1    0    0  501    0  0.00000000000E+00  0.00000000000E+00  0.19640574156E+04  0.19640574156E+04  0.25500000000E-02 0. -1.
         -2   -1    0    0    0  501 -0.00000000000E+00 -0.00000000000E+00 -0.51129270866E+03  0.51129270867E+03  0.25500000000E-02 0.  1.
    8880023    1    1    2    0    0 -0.48439842192E+03  0.15271135558E+03  0.16981622631E+04  0.18909066258E+04  0.65864270000E+03 0. -1.
    8880022    1    1    2    0    0  0.48439842192E+03 -0.15271135558E+03 -0.24539755621E+03  0.58444349846E+03  0.15294330000E+03 0.  0.
<mgrwt>
<rscale>  0 0.74326381E+03</rscale>
<asrwt>0</asrwt>
<pdfrwt beam="1">  1        2 0.30216268E+00 0.83172880E+03</pdfrwt>
<pdfrwt beam="2">  1       -2 0.78660417E-01 0.83172880E+03</pdfrwt>
<totfact> 0.10271173E+01</totfact>
</mgrwt>
</event>
<event>
 4    5  0.2025789E-007  0.8669156E+03  0.7818608E-02  0.9581378E-01
         -2   -1    0    0    0  501 -0.00000000000E+00  0.00000000000E+00  0.50621577077E+03  0.50621577078E+03  0.25500000000E-02 0.  1.
          2   -1    0    0  501    0  0.00000000000E+00 -0.00000000000E+00 -0.18605368948E+04  0.18605368948E+04  0.25500000000E-02 0. -1.
    8880023    1    1    2    0    0 -0.39434878678E+03 -0.40276738935E+03 -0.15285398950E+04  0.17572640531E+04  0.65864270000E+03 0.  0.
    8880022    1    1    2    0    0  0.39434878678E+03  0.40276738935E+03  0.17421877095E+03  0.60948861246E+03  0.15294330000E+03 0.  0.
<mgrwt>
<rscale>  0 0.78541049E+03</rscale>
<asrwt>0</asrwt>
<pdfrwt beam="1">  1        2 0.28623644E+00 0.86691565E+03</pdfrwt>
<pdfrwt beam="2">  1       -2 0.77879350E-01 0.86691565E+03</pdfrwt>
<totfact> 0.11912469E+01</totfact>
</mgrwt>
</event>
<event>
 4    5  0.2025789E-007  0.7316017E+03  0.7818608E-02  0.9885123E-01
          2   -1    0    0  501    0  0.00000000000E+00  0.00000000000E+00  0.10258862818E+04  0.10258862818E+04  0.25500000000E-02 0. -1.
         -2   -1    0    0    0  501 -0.00000000000E+00 -0.00000000000E+00 -0.61571433335E+03  0.61571433336E+03  0.25500000000E-02 0.  1.
    8880023    1    1    2    0    0 -0.18000304100E+03  0.26273510786E+03  0.82105071587E+03  0.10997114694E+04  0.65864270000E+03 0.  0.
    8880022    1    1    2    0    0  0.18000304100E+03 -0.26273510786E+03 -0.41087876746E+03  0.54188914571E+03  0.15294330000E+03 0.  1.
<mgrwt>
<rscale>  0 0.60987753E+03</rscale>
<asrwt>0</asrwt>
<pdfrwt beam="1">  1        2 0.15782866E+00 0.73160169E+03</pdfrwt>
<pdfrwt beam="2">  1       -2 0.94725284E-01 0.73160169E+03</pdfrwt>
<totfact> 0.23174607E+01</totfact>
</mgrwt>
</event>
<event>
 4    5  0.2025789E-007  0.6993312E+03  0.7818608E-02  0.9999987E-01
          2   -1    0    0  501    0  0.00000000000E+00  0.00000000000E+00  0.12127939291E+04  0.12127939291E+04  0.25500000000E-02 0. -1.
         -2   -1    0    0    0  501 -0.00000000000E+00 -0.00000000000E+00 -0.50450685679E+03  0.50450685680E+03  0.25500000000E-02 0.  1.
    8880023    1    1    2    0    0  0.22453915895E+03  0.69542243806E+02  0.10584917298E+04  0.12686484564E+04  0.65864270000E+03 0. -1.
    8880022    1    1    2    0    0 -0.22453915895E+03 -0.69542243806E+02 -0.35020465753E+03  0.44865232948E+03  0.15294330000E+03 0.  0.
<mgrwt>
<rscale>  0 0.55650811E+03</rscale>
<asrwt>0</asrwt>
<pdfrwt beam="1">  1        2 0.18658368E+00 0.69933123E+03</pdfrwt>
<pdfrwt beam="2">  1       -2 0.77616439E-01 0.69933123E+03</pdfrwt>
<totfact> 0.28208909E+01</totfact>
</mgrwt>
</event>
<event>
 4    5  0.2025789E-007  0.1178664E+04  0.7818608E-02  0.9178146E-01
          2   -1    0    0  501    0  0.00000000000E+00  0.00000000000E+00  0.21717817099E+04  0.21717817099E+04  0.25500000000E-02 0. -1.
         -2   -1    0    0    0  501 -0.00000000000E+00 -0.00000000000E+00 -0.58377484445E+03  0.58377484445E+03  0.25500000000E-02 0.  1.
    8880023    1    1    2    0    0  0.97282082416E+03  0.95177541612E+02  0.48692553318E+03  0.12752826359E+04  0.65864270000E+03 0.  1.
    8880022    1    1    2    0    0 -0.97282082416E+03 -0.95177541612E+02  0.11010813323E+04  0.14802739185E+04  0.15294330000E+03 0.  0.
<mgrwt>
<rscale>  0 0.11281868E+04</rscale>
<asrwt>0</asrwt>
<pdfrwt beam="1">  1        2 0.33412027E+00 0.11786642E+04</pdfrwt>
<pdfrwt beam="2">  1       -2 0.89811514E-01 0.11786642E+04</pdfrwt>
<totfact> 0.55952650E+00</totfact>
</mgrwt>
</event>
<event>
 4    5  0.2025789E-007  0.1168862E+04  0.7818608E-02  0.9188001E-01
          2   -1    0    0  501    0  0.00000000000E+00  0.00000000000E+00  0.16907398813E+04  0.16907398813E+04  0.25500000000E-02 0. -1.
         -2   -1    0    0    0  501 -0.00000000000E+00 -0.00000000000E+00 -0.72106713533E+03  0.72106713533E+03  0.25500000000E-02 0.  1.
    8880023    1    1    2    0    0  0.32029582035E+03  0.91095516803E+03  0.80779627900E+03  0.14208355870E+04  0.65864270000E+03 0.  0.
    8880022    1    1    2    0    0 -0.32029582035E+03 -0.91095516803E+03  0.16187646693E+03  0.99097142958E+03  0.15294330000E+03 0.  0.
<mgrwt>
<rscale>  0 0.11178140E+04</rscale>
<asrwt>0</asrwt>
<pdfrwt beam="1">  1        2 0.26011383E+00 0.11688622E+04</pdfrwt>
<pdfrwt beam="2">  1       -2 0.11093340E+00 0.11688622E+04</pdfrwt>
<totfact> 0.62544841E+00</totfact>
</mgrwt>
</event>
<event>
 4    5  0.2025789E-007  0.1754259E+04  0.7818608E-02  0.8748270E-01
          2   -1    0    0  501    0  0.00000000000E+00  0.00000000000E+00  0.41811709930E+04  0.41811709930E+04  0.25500000000E-02 0. -1.
         -2   -1    0    0    0  501 -0.00000000000E+00 -0.00000000000E+00 -0.11452679869E+04  0.11452679869E+04  0.25500000000E-02 0.  1.
    8880023    1    1    2    0    0 -0.14411109589E+04 -0.75286954834E+03  0.32362162923E+04  0.36811030208E+04  0.65864270000E+03 0.  0.
    8880022    1    1    2    0    0  0.14411109589E+04  0.75286954834E+03 -0.20031328629E+03  0.16453359591E+04  0.15294330000E+03 0.  0.
<mgrwt>
<rscale>  0 0.17231505E+04</rscale>
<asrwt>0</asrwt>
<pdfrwt beam="1">  1        2 0.64325708E+00 0.17542587E+04</pdfrwt>
<pdfrwt beam="2">  1       -2 0.17619507E+00 0.17542587E+04</pdfrwt>
<totfact> 0.43180000E-02</totfact>
</mgrwt>
</event>
<event>
 4    5  0.2025789E-007  0.8164909E+03  0.7818608E-02  0.9676212E-01
          2   -1    0    0  501    0  0.00000000000E+00  0.00000000000E+00  0.77239273840E+03  0.77239273840E+03  0.25500000000E-02 0. -1.
         -2   -1    0    0    0  501 -0.00000000000E+00 -0.00000000000E+00 -0.15348928202E+04  0.15348928202E+04  0.25500000000E-02 0.  1.
    8880023    1    1    2    0    0  0.33490087809E+03  0.34740257236E+03  0.49285773847E+03  0.95371174999E+03  0.65864270000E+03 0.  0.
    8880022    1    1    2    0    0 -0.33490087809E+03 -0.34740257236E+03 -0.12553578203E+04  0.13535738086E+04  0.15294330000E+03 0.  0.
<mgrwt>
<rscale>  0 0.72450955E+03</rscale>
<asrwt>0</asrwt>
<pdfrwt beam="1">  1        2 0.11882965E+00 0.81649088E+03</pdfrwt>
<pdfrwt beam="2">  1       -2 0.23613736E+00 0.81649088E+03</pdfrwt>
<totfact> 0.28776244E+00</totfact>
</mgrwt>
</event>
<event>
 4    5  0.2025789E-007  0.1398650E+04  0.7818608E-02  0.8984733E-01
          2   -1    0    0  501    0  0.00000000000E+00  0.00000000000E+00  0.14697563428E+04  0.14697563428E+04  0.25500000000E-02 0. -1.
         -2   -1    0    0    0  501 -0.00000000000E+00 -0.00000000000E+00 -0.14974577642E+04  0.14974577642E+04  0.25500000000E-02 0.  1.
    8880023    1    1    2    0    0  0.38136437194E+03 -0.11734444787E+04 -0.68881785312E+03  0.15590673397E+04  0.65864270000E+03 0.  0.
    8880022    1    1    2    0    0 -0.38136437194E+03  0.11734444787E+04  0.66111643172E+03  0.14081467672E+04  0.15294330000E+03 0.  0.
<mgrwt>
<rscale>  0 0.13580819E+04</rscale>
<asrwt>0</asrwt>
<pdfrwt beam="1">  1        2 0.22611636E+00 0.13986497E+04</pdfrwt>
<pdfrwt beam="2">  1       -2 0.23037812E+00 0.13986497E+04</pdfrwt>
<totfact> 0.10670333E+00</totfact>
</mgrwt>
</event>
<event>
 4    5  0.2025789E-007  0.1486590E+04  0.7818608E-02  0.8919164E-01
         -2   -1    0    0    0  501 -0.00000000000E+00  0.00000000000E+00  0.12903363925E+04  0.12903363925E+04  0.25500000000E-02 0.  1.
          2   -1    0    0  501    0  0.00000000000E+00 -0.00000000000E+00 -0.19092680917E+04  0.19092680917E+04  0.25500000000E-02 0. -1.
    8880023    1    1    2    0    0  0.13223929104E+04 -0.16558051408E+03 -0.10159929146E+04  0.18006087095E+04  0.65864270000E+03 0.  0.
    8880022    1    1    2    0    0 -0.13223929104E+04  0.16558051408E+03  0.39706121533E+03  0.13989957747E+04  0.15294330000E+03 0.  0.
<mgrwt>
<rscale>  0 0.14488998E+04</rscale>
<asrwt>0</asrwt>
<pdfrwt beam="1">  1        2 0.29373355E+00 0.14865901E+04</pdfrwt>
<pdfrwt beam="2">  1       -2 0.19851329E+00 0.14865901E+04</pdfrwt>
<totfact> 0.96056810E-01</totfact>
</mgrwt>
</event>
<event>
 4    5  0.2025789E-007  0.1005340E+04  0.7818608E-02  0.9374605E-01
          2   -1    0    0  501    0  0.00000000000E+00  0.00000000000E+00  0.14489086440E+04  0.14489086440E+04  0.25500000000E-02 0. -1.
         -2   -1    0    0    0  501 -0.00000000000E+00 -0.00000000000E+00 -0.88126506845E+03  0.88126506845E+03  0.25500000000E-02 0.  1.
    8880023    1    1    2    0    0 -0.48126509280E+03  0.58760664161E+03  0.10206852874E+04  0.14326570828E+04  0.65864270000E+03 0.  0.
    8880022    1    1    2    0    0  0.48126509280E+03 -0.58760664161E+03 -0.45304171182E+03  0.89751662964E+03  0.15294330000E+03 0.  0.
<mgrwt>
<rscale>  0 0.94195399E+03</rscale>
<asrwt>0</asrwt>
<pdfrwt beam="1">  1        2 0.22290902E+00 0.10053397E+04</pdfrwt>
<pdfrwt beam="2">  1       -2 0.13557924E+00 0.10053397E+04</pdfrwt>
<totfact> 0.52541216E+00</totfact>
</mgrwt>
</event>
<event>
 4    5  0.2025789E-007  0.7689061E+03  0.7818608E-02  0.9782573E-01
         -2   -1    0    0    0  501 -0.00000000000E+00  0.00000000000E+00  0.46488084761E+03  0.46488084761E+03  0.25500000000E-02 0.  1.
          2   -1    0    0  501    0  0.00000000000E+00 -0.00000000000E+00 -0.16106458399E+04  0.16106458399E+04  0.25500000000E-02 0. -1.
    8880023    1    1    2    0    0 -0.85930014384E+02  0.38732727980E+03 -0.13875755151E+04  0.15863739803E+04  0.65864270000E+03 0.  0.
    8880022    1    1    2    0    0  0.85930014384E+02 -0.38732727980E+03  0.24181052278E+03  0.48915270723E+03  0.15294330000E+03 0.  0.
<mgrwt>
<rscale>  0 0.66306209E+03</rscale>
<asrwt>0</asrwt>
<pdfrwt beam="1">  1        2 0.24779166E+00 0.76890610E+03</pdfrwt>
<pdfrwt beam="2">  1       -2 0.71520131E-01 0.76890610E+03</pdfrwt>
<totfact> 0.19968101E+01</totfact>
</mgrwt>
</event>
<event>
 4    5  0.2025789E-007  0.7816826E+03  0.7818608E-02  0.9751899E-01
         -2   -1    0    0    0  501 -0.00000000000E+00  0.00000000000E+00  0.38451238909E+03  0.38451238910E+03  0.25500000000E-02 0.  1.
          2   -1    0    0  501    0  0.00000000000E+00 -0.00000000000E+00 -0.40092092181E+04  0.40092092181E+04  0.25500000000E-02 0. -1.
    8880023    1    1    2    0    0 -0.35393727534E+03 -0.22791632550E+03 -0.38242956433E+04  0.39033658322E+04  0.65864270000E+03 0. -1.
    8880022    1    1    2    0    0  0.35393727534E+03  0.22791632550E+03  0.19959881436E+03  0.49035577494E+03  0.15294330000E+03 0.  0.
<mgrwt>
<rscale>  0 0.68009041E+03</rscale>
<asrwt>0</asrwt>
<pdfrwt beam="1">  1        2 0.61680139E+00 0.78168258E+03</pdfrwt>
<pdfrwt beam="2">  1       -2 0.59155755E-01 0.78168258E+03</pdfrwt>
<totfact> 0.99115749E-01</totfact>
</mgrwt>
</event>
<event>
 4    5  0.2025789E-007  0.9140017E+03  0.7818608E-02  0.9503918E-01
         -2   -1    0    0    0  501 -0.00000000000E+00  0.00000000000E+00  0.51456716826E+03  0.51456716827E+03  0.25500000000E-02 0.  1.
          2   -1    0    0  501    0  0.00000000000E+00 -0.00000000000E+00 -0.15419276973E+04  0.15419276973E+04  0.25500000000E-02 0. -1.
    8880023    1    1    2    0    0  0.51623405458E+03  0.36754780453E+03 -0.10650866636E+04  0.14034987692E+04  0.65864270000E+03 0.  0.
    8880022    1    1    2    0    0 -0.51623405458E+03 -0.36754780453E+03  0.37726134563E+02  0.65299609644E+03  0.15294330000E+03 0.  0.
<mgrwt>
<rscale>  0 0.83995576E+03</rscale>
<asrwt>0</asrwt>
<pdfrwt beam="1">  1        2 0.23721964E+00 0.91400175E+03</pdfrwt>
<pdfrwt beam="2">  1       -2 0.79164181E-01 0.91400175E+03</pdfrwt>
<totfact> 0.17115070E+01</totfact>
</mgrwt>
</event>
<event>
 4    5  0.2025789E-007  0.1042983E+04  0.7818608E-02  0.9327364E-01
          2   -1    0    0  501    0  0.00000000000E+00  0.00000000000E+00  0.36637216812E+04  0.36637216812E+04  0.25500000000E-02 0. -1.
         -2   -1    0    0    0  501 -0.00000000000E+00 -0.00000000000E+00 -0.86954988675E+03  0.86954988675E+03  0.25500000000E-02 0.  1.
    8880023    1    1    2    0    0  0.39248871491E+03  0.70707625874E+03  0.33707116067E+04  0.35283864824E+04  0.65864270000E+03 0. -1.
    8880022    1    1    2    0    0 -0.39248871491E+03 -0.70707625874E+03 -0.57653981229E+03  0.10048850856E+04  0.15294330000E+03 0.  0.
<mgrwt>
<rscale>  0 0.98302231E+03</rscale>
<asrwt>0</asrwt>
<pdfrwt beam="1">  1        2 0.56364951E+00 0.10429834E+04</pdfrwt>
<pdfrwt beam="2">  1       -2 0.13377690E+00 0.10429834E+04</pdfrwt>
<totfact> 0.25761150E-01</totfact>
</mgrwt>
</event>
<event>
 4    5  0.2025789E-007  0.6596938E+03  0.7818608E-02  0.1024472E+00
          2   -1    0    0  501    0  0.00000000000E+00  0.00000000000E+00  0.19654980832E+04  0.19654980832E+04  0.25500000000E-02 0. -1.
         -2   -1    0    0    0  501 -0.00000000000E+00 -0.00000000000E+00 -0.34890749916E+03  0.34890749917E+03  0.25500000000E-02 0.  1.
    8880023    1    1    2    0    0  0.26861331036E+02 -0.25770499390E+02  0.18883971434E+04  0.20003098828E+04  0.65864270000E+03 0. -1.
    8880022    1    1    2    0    0 -0.26861331036E+02  0.25770499390E+02 -0.27180655938E+03  0.31409569956E+03  0.15294330000E+03 0.  0.
<mgrwt>
<rscale>  0 0.46106646E+03</rscale>
<asrwt>0</asrwt>
<pdfrwt beam="1">  1        2 0.30238432E+00 0.65969376E+03</pdfrwt>
<pdfrwt beam="2">  1       -2 0.53678076E-01 0.65969376E+03</pdfrwt>
<totfact> 0.23890777E+01</totfact>
</mgrwt>
</event>
<event>
 4    5  0.2025789E-007  0.7731768E+03  0.7818608E-02  0.9772116E-01
          2   -1    0    0  501    0  0.00000000000E+00  0.00000000000E+00  0.17303525967E+04  0.17303525967E+04  0.25500000000E-02 0. -1.
         -2   -1    0    0    0  501 -0.00000000000E+00 -0.00000000000E+00 -0.21312303775E+03  0.21312303777E+03  0.25500000000E-02 0.  1.
    8880023    1    1    2    0    0  0.34226342434E+03 -0.21644375527E+03  0.10797638701E+04  0.13280408022E+04  0.65864270000E+03 0.  1.
    8880022    1    1    2    0    0 -0.34226342434E+03  0.21644375527E+03  0.43746568879E+03  0.61543483223E+03  0.15294330000E+03 0. -1.
<mgrwt>
<rscale>  0 0.66880670E+03</rscale>
<asrwt>0</asrwt>
<pdfrwt beam="1">  1        2 0.26620808E+00 0.77317680E+03</pdfrwt>
<pdfrwt beam="2">  1       -2 0.32788161E-01 0.77317680E+03</pdfrwt>
<totfact> 0.83468844E+01</totfact>
</mgrwt>
</event>
<event>
 4    5  0.2025789E-007  0.1606476E+04  0.7818608E-02  0.8837892E-01
          2   -1    0    0  501    0  0.00000000000E+00  0.00000000000E+00  0.17833507808E+04  0.17833507808E+04  0.25500000000E-02 0. -1.
         -2   -1    0    0    0  501 -0.00000000000E+00 -0.00000000000E+00 -0.14555374991E+04  0.14555374991E+04  0.25500000000E-02 0.  1.
    8880023    1    1    2    0    0  0.32861299250E+03 -0.14279249616E+04 -0.30559063892E+03  0.16352834738E+04  0.65864270000E+03 0.  0.
    8880022    1    1    2    0    0 -0.32861299250E+03  0.14279249616E+04  0.63340392057E+03  0.16036048061E+04  0.15294330000E+03 0.  0.
<mgrwt>
<rscale>  0 0.15720702E+04</rscale>
<asrwt>0</asrwt>
<pdfrwt beam="1">  1        2 0.27436166E+00 0.16064764E+04</pdfrwt>
<pdfrwt beam="2">  1       -2 0.22392885E+00 0.16064764E+04</pdfrwt>
<totfact> 0.76479542E-01</totfact>
</mgrwt>
</event>
<event>
 4    5  0.2025789E-007  0.9751451E+03  0.7818608E-02  0.9414823E-01
          2   -1    0    0  501    0  0.00000000000E+00  0.00000000000E+00  0.36789710385E+04  0.36789710385E+04  0.25500000000E-02 0. -1.
         -2   -1    0    0    0  501 -0.00000000000E+00 -0.00000000000E+00 -0.34549344006E+03  0.34549344007E+03  0.25500000000E-02 0.  1.
    8880023    1    1    2    0    0 -0.68655785093E+03  0.21386000248E+03  0.31051139590E+04  0.32546337256E+04  0.65864270000E+03 0. -1.
    8880022    1    1    2    0    0  0.68655785093E+03 -0.21386000248E+03  0.22836363944E+03  0.76983075294E+03  0.15294330000E+03 0.  0.
<mgrwt>
<rscale>  0 0.90865775E+03</rscale>
<asrwt>0</asrwt>
<pdfrwt beam="1">  1        2 0.56599552E+00 0.97514511E+03</pdfrwt>
<pdfrwt beam="2">  1       -2 0.53152839E-01 0.97514511E+03</pdfrwt>
<totfact> 0.21143769E+00</totfact>
</mgrwt>
</event>
<event>
 4    5  0.2025789E-007  0.8409718E+03  0.7818608E-02  0.9628351E-01
          2   -1    0    0  501    0  0.00000000000E+00  0.00000000000E+00  0.39895931737E+04  0.39895931737E+04  0.25500000000E-02 0. -1.
         -2   -1    0    0    0  501 -0.00000000000E+00 -0.00000000000E+00 -0.20503579485E+03  0.20503579486E+03  0.25500000000E-02 0.  1.
    8880023    1    1    2    0    0 -0.27612087252E+03 -0.44405022451E+03  0.34594322198E+04  0.35601832576E+04  0.65864270000E+03 0. -1.
    8880022    1    1    2    0    0  0.27612087252E+03  0.44405022451E+03  0.32512515914E+03  0.63444571103E+03  0.15294330000E+03 0.  0.
<mgrwt>
<rscale>  0 0.75447838E+03</rscale>
<asrwt>0</asrwt>
<pdfrwt beam="1">  1        2 0.61378355E+00 0.84097179E+03</pdfrwt>
<pdfrwt beam="2">  1       -2 0.31543969E-01 0.84097179E+03</pdfrwt>
<totfact> 0.35304687E+00</totfact>
</mgrwt>
</event>
<event>
 4    5  0.2025789E-007  0.7013580E+03  0.7818608E-02  0.9991614E-01
          2   -1    0    0  501    0  0.00000000000E+00  0.00000000000E+00  0.40482685300E+04  0.40482685300E+04  0.25500000000E-02 0. -1.
         -2   -1    0    0    0  501 -0.00000000000E+00 -0.00000000000E+00 -0.52967385482E+03  0.52967385482E+03  0.25500000000E-02 0.  1.
    8880023    1    1    2    0    0  0.14134884489E+03  0.19522641672E+03  0.39767567327E+04  0.40381304049E+04  0.65864270000E+03 0.  0.
    8880022    1    1    2    0    0 -0.14134884489E+03 -0.19522641672E+03 -0.45816205749E+03  0.53981197994E+03  0.15294330000E+03 0.  0.
<mgrwt>
<rscale>  0 0.56019496E+03</rscale>
<asrwt>0</asrwt>
<pdfrwt beam="1">  1        2 0.62281053E+00 0.70135801E+03</pdfrwt>
<pdfrwt beam="2">  1       -2 0.81488287E-01 0.70135801E+03</pdfrwt>
<totfact> 0.46882358E-01</totfact>
</mgrwt>
</event>
<event>
 4    5  0.2025789E-007  0.7449386E+03  0.7818608E-02  0.9845788E-01
          2   -1    0    0  501    0  0.00000000000E+00  0.00000000000E+00  0.12005067073E+04  0.12005067073E+04  0.25500000000E-02 0. -1.
         -2   -1    0    0    0  501 -0.00000000000E+00 -0.00000000000E+00 -0.28370143628E+03  0.28370143629E+03  0.25500000000E-02 0.  1.
    8880023    1    1    2    0    0  0.19423842900E+03  0.28878138564E+03  0.78412989579E+03  0.10815697646E+04  0.65864270000E+03 0. -1.
    8880022    1    1    2    0    0 -0.19423842900E+03 -0.28878138564E+03  0.13267537518E+03  0.40263837893E+03  0.15294330000E+03 0.  0.
<mgrwt>
<rscale>  0 0.62962132E+03</rscale>
<asrwt>0</asrwt>
<pdfrwt beam="1">  1        2 0.18469334E+00 0.74493856E+03</pdfrwt>
<pdfrwt beam="2">  1       -2 0.43646375E-01 0.74493856E+03</pdfrwt>
<totfact> 0.95702224E+01</totfact>
</mgrwt>
</event>
<event>
 4    5  0.2025789E-007  0.8148650E+03  0.7818608E-02  0.9679531E-01
         -2   -1    0    0    0  501 -0.00000000000E+00  0.00000000000E+00  0.12637858509E+04  0.12637858509E+04  0.25500000000E-02 0.  1.
          2   -1    0    0  501    0  0.00000000000E+00 -0.00000000000E+00 -0.26844218921E+04  0.26844218921E+04  0.25500000000E-02 0. -1.
    8880023    1    1    2    0    0  0.41666457606E+03 -0.23787676104E+03 -0.25685430549E+04  0.26947019044E+04  0.65864270000E+03 0. -1.
    8880022    1    1    2    0    0 -0.41666457606E+03  0.23787676104E+03  0.11479070137E+04  0.12535058387E+04  0.15294330000E+03 0.  0.
<mgrwt>
<rscale>  0 0.72248690E+03</rscale>
<asrwt>0</asrwt>
<pdfrwt beam="1">  1        2 0.41298798E+00 0.81486498E+03</pdfrwt>
<pdfrwt beam="2">  1       -2 0.19442859E+00 0.81486498E+03</pdfrwt>
<totfact> 0.41153124E-01</totfact>
</mgrwt>
</event>
<event>
 4    5  0.2025789E-007  0.1085719E+04  0.7818608E-02  0.9277125E-01
         -2   -1    0    0    0  501 -0.00000000000E+00  0.00000000000E+00  0.61808189091E+03  0.61808189091E+03  0.25500000000E-02 0.  1.
          2   -1    0    0  501    0  0.00000000000E+00 -0.00000000000E+00 -0.19640087149E+04  0.19640087149E+04  0.25500000000E-02 0. -1.
    8880023    1    1    2    0    0 -0.78916621643E+03 -0.34956100057E+03 -0.13145785669E+04  0.17049642885E+04  0.65864270000E+03 0. -1.
    8880022    1    1    2    0    0  0.78916621643E+03  0.34956100057E+03 -0.31348257081E+02  0.87712631730E+03  0.15294330000E+03 0.  0.
<mgrwt>
<rscale>  0 0.10291634E+04</rscale>
<asrwt>0</asrwt>
<pdfrwt beam="1">  1        2 0.30215518E+00 0.10857193E+04</pdfrwt>
<pdfrwt beam="2">  1       -2 0.95089523E-01 0.10857193E+04</pdfrwt>
<totfact> 0.64469407E+00</totfact>
</mgrwt>
</event>
<event>
 4    5  0.2025789E-007  0.1514718E+04  0.7818608E-02  0.8899313E-01
          2   -1    0    0  501    0  0.00000000000E+00  0.00000000000E+00  0.14782464130E+04  0.14782464130E+04  0.25500000000E-02 0. -1.
         -2   -1    0    0    0  501 -0.00000000000E+00 -0.00000000000E+00 -0.20571896288E+04  0.20571896288E+04  0.25500000000E-02 0.  1.
    8880023    1    1    2    0    0 -0.98890213283E+03 -0.93948495217E+03  0.69154836522E+03  0.16651152367E+04  0.65864270000E+03 0.  0.
    8880022    1    1    2    0    0  0.98890213283E+03  0.93948495217E+03 -0.12704915810E+04  0.18703208051E+04  0.15294330000E+03 0.  0.
<mgrwt>
<rscale>  0 0.14778572E+04</rscale>
<asrwt>0</asrwt>
<pdfrwt beam="1">  1        2 0.22742253E+00 0.15147177E+04</pdfrwt>
<pdfrwt beam="2">  1       -2 0.31649071E+00 0.15147177E+04</pdfrwt>
<totfact> 0.30895034E-01</totfact>
</mgrwt>
</event>
<event>
 4    5  0.2025789E-007  0.7536851E+03  0.7818608E-02  0.9821739E-01
         -2   -1    0    0    0  501 -0.00000000000E+00  0.00000000000E+00  0.49158670959E+03  0.49158670960E+03  0.25500000000E-02 0.  1.
          2   -1    0    0  501    0  0.00000000000E+00 -0.00000000000E+00 -0.87604026001E+03  0.87604026002E+03  0.25500000000E-02 0. -1.
    8880023    1    1    2    0    0  0.10918859089E+03  0.34972678288E+03 -0.55453888644E+03  0.93571072126E+03  0.65864270000E+03 0.  1.
    8880022    1    1    2    0    0 -0.10918859089E+03 -0.34972678288E+03  0.17008533602E+03  0.43191624835E+03  0.15294330000E+03 0.  0.
<mgrwt>
<rscale>  0 0.64208829E+03</rscale>
<asrwt>0</asrwt>
<pdfrwt beam="1">  1        2 0.13477543E+00 0.75368507E+03</pdfrwt>
<pdfrwt beam="2">  1       -2 0.75628724E-01 0.75368507E+03</pdfrwt>
<totfact> 0.48393850E+01</totfact>
</mgrwt>
</event>
<event>
 4    5  0.2025789E-007  0.1642438E+04  0.7818608E-02  0.8815098E-01
         -2   -1    0    0    0  501 -0.00000000000E+00  0.00000000000E+00  0.14171608396E+04  0.14171608396E+04  0.25500000000E-02 0.  1.
          2   -1    0    0  501    0  0.00000000000E+00 -0.00000000000E+00 -0.24834983500E+04  0.24834983500E+04  0.25500000000E-02 0. -1.
    8880023    1    1    2    0    0  0.11382938088E+04 -0.98391038004E+03 -0.16038502115E+04  0.22956345830E+04  0.65864270000E+03 0. -1.
    8880022    1    1    2    0    0 -0.11382938088E+04  0.98391038004E+03  0.53751270106E+03  0.16050246067E+04  0.15294330000E+03 0.  0.
<mgrwt>
<rscale>  0 0.16089012E+04</rscale>
<asrwt>0</asrwt>
<pdfrwt beam="1">  1        2 0.38207667E+00 0.16424380E+04</pdfrwt>
<pdfrwt beam="2">  1       -2 0.21802475E+00 0.16424380E+04</pdfrwt>
<totfact> 0.33455267E-01</totfact>
</mgrwt>
</event>
<event>
 4    5  0.2025789E-007  0.7333649E+03  0.7818608E-02  0.9879714E-01
          2   -1    0    0  501    0  0.00000000000E+00  0.00000000000E+00  0.73544670545E+03  0.73544670546E+03  0.25500000000E-02 0. -1.
         -2   -1    0    0    0  501 -0.00000000000E+00 -0.00000000000E+00 -0.75532031563E+03  0.75532031563E+03  0.25500000000E-02 0.  1.
    8880023    1    1    2    0    0  0.24559187162E+03 -0.20904201182E+03  0.48003854273E+03  0.87650507066E+03  0.65864270000E+03 0.  1.
    8880022    1    1    2    0    0 -0.24559187162E+03  0.20904201182E+03 -0.49991215290E+03  0.61426195043E+03  0.15294330000E+03 0.  0.
<mgrwt>
<rscale>  0 0.61254594E+03</rscale>
<asrwt>0</asrwt>
<pdfrwt beam="1">  1        2 0.11314565E+00 0.73336494E+03</pdfrwt>
<pdfrwt beam="2">  1       -2 0.11620313E+00 0.73336494E+03</pdfrwt>
<totfact> 0.22453438E+01</totfact>
</mgrwt>
</event>
<event>
 4    5  0.2025789E-007  0.1029276E+04  0.7818608E-02  0.9344220E-01
         -2   -1    0    0    0  501 -0.00000000000E+00  0.00000000000E+00  0.67883408576E+03  0.67883408577E+03  0.25500000000E-02 0.  1.
          2   -1    0    0  501    0  0.00000000000E+00 -0.00000000000E+00 -0.19609907242E+04  0.19609907242E+04  0.25500000000E-02 0. -1.
    8880023    1    1    2    0    0 -0.31743822654E+02  0.79031066319E+03 -0.14871087734E+04  0.18085633317E+04  0.65864270000E+03 0.  0.
    8880022    1    1    2    0    0  0.31743822654E+02 -0.79031066319E+03  0.20495213494E+03  0.83126147827E+03  0.15294330000E+03 0.  0.
<mgrwt>
<rscale>  0 0.96811872E+03</rscale>
<asrwt>0</asrwt>
<pdfrwt beam="1">  1        2 0.30169088E+00 0.10292759E+04</pdfrwt>
<pdfrwt beam="2">  1       -2 0.10443601E+00 0.10292759E+04</pdfrwt>
<totfact> 0.52100953E+00</totfact>
</mgrwt>
</event>
<event>
 4    5  0.2025789E-007  0.8849483E+03  0.7818608E-02  0.9550640E-01
         -2   -1    0    0    0  501 -0.00000000000E+00  0.00000000000E+00  0.25593532183E+03  0.25593532184E+03  0.25500000000E-02 0.  1.
          2   -1    0    0  501    0  0.00000000000E+00 -0.00000000000E+00 -0.27019586882E+04  0.27019586882E+04  0.25500000000E-02 0. -1.
    8880023    1    1    2    0    0  0.48854663452E+03 -0.33263424819E+03 -0.20428123807E+04  0.22262560469E+04  0.65864270000E+03 0.  0.
    8880022    1    1    2    0    0 -0.48854663452E+03  0.33263424819E+03 -0.40321098563E+03  0.73163796315E+03  0.15294330000E+03 0.  0.
<mgrwt>
<rscale>  0 0.80651147E+03</rscale>
<asrwt>0</asrwt>
<pdfrwt beam="1">  1        2 0.41568593E+00 0.88494834E+03</pdfrwt>
<pdfrwt beam="2">  1       -2 0.39374667E-01 0.88494834E+03</pdfrwt>
<totfact> 0.16655432E+01</totfact>
</mgrwt>
</event>
<event>
 4    5  0.2025789E-007  0.7751588E+03  0.7818608E-02  0.9767334E-01
         -2   -1    0    0    0  501 -0.00000000000E+00  0.00000000000E+00  0.22865773902E+03  0.22865773903E+03  0.25500000000E-02 0.  1.
          2   -1    0    0  501    0  0.00000000000E+00 -0.00000000000E+00 -0.39518232904E+04  0.39518232904E+04  0.25500000000E-02 0. -1.
    8880023    1    1    2    0    0 -0.15459539476E+03  0.37836657106E+03 -0.36580053939E+04  0.37392345027E+04  0.65864270000E+03 0. -1.
    8880022    1    1    2    0    0  0.15459539476E+03 -0.37836657106E+03 -0.65160157441E+02  0.44124652668E+03  0.15294330000E+03 0.  0.
<mgrwt>
<rscale>  0 0.67145421E+03</rscale>
<asrwt>0</asrwt>
<pdfrwt beam="1">  1        2 0.60797276E+00 0.77515883E+03</pdfrwt>
<pdfrwt beam="2">  1       -2 0.35178117E-01 0.77515883E+03</pdfrwt>
<totfact> 0.31177295E+00</totfact>
</mgrwt>
</event>
<event>
 4    5  0.2025789E-007  0.9752313E+03  0.7818608E-02  0.9414705E-01
         -2   -1    0    0    0  501 -0.00000000000E+00  0.00000000000E+00  0.81137402924E+03  0.81137402924E+03  0.25500000000E-02 0.  1.
          2   -1    0    0  501    0  0.00000000000E+00 -0.00000000000E+00 -0.15140904901E+04  0.15140904901E+04  0.25500000000E-02 0. -1.
    8880023    1    1    2    0    0 -0.55872519534E+03  0.45287086964E+03 -0.11159299721E+04  0.14820174686E+04  0.65864270000E+03 0.  0.
    8880022    1    1    2    0    0  0.55872519534E+03 -0.45287086964E+03  0.41321351123E+03  0.84344705071E+03  0.15294330000E+03 0.  0.
<mgrwt>
<rscale>  0 0.90875330E+03</rscale>
<asrwt>0</asrwt>
<pdfrwt beam="1">  1        2 0.23293700E+00 0.97523129E+03</pdfrwt>
<pdfrwt beam="2">  1       -2 0.12482677E+00 0.97523129E+03</pdfrwt>
<totfact> 0.59760816E+00</totfact>
</mgrwt>
</event>
<event>
 4    5  0.2025789E-007  0.7199281E+03  0.7818608E-02  0.9922829E-01
          2   -1    0    0  501    0  0.00000000000E+00  0.00000000000E+00  0.16306464747E+04  0.16306464747E+04  0.25500000000E-02 0. -1.
         -2   -1    0    0    0  501 -0.00000000000E+00 -0.00000000000E+00 -0.32005136958E+03  0.32005136959E+03  0.25500000000E-02 0.  1.
    8880023    1    1    2    0    0 -0.11322266774E+03 -0.26770670347E+03  0.14301784965E+04  0.16011580152E+04  0.65864270000E+03 0.  0.
    8880022    1    1    2    0    0  0.11322266774E+03  0.26770670347E+03 -0.11958339141E+03  0.34953982904E+03  0.15294330000E+03 0.  0.
<mgrwt>
<rscale>  0 0.59167525E+03</rscale>
<asrwt>0</asrwt>
<pdfrwt beam="1">  1        2 0.25086868E+00 0.71992809E+03</pdfrwt>
<pdfrwt beam="2">  1       -2 0.49238674E-01 0.71992809E+03</pdfrwt>
<totfact> 0.43023033E+01</totfact>
</mgrwt>
</event>
<event>
 4    5  0.2025789E-007  0.9127211E+03  0.7818608E-02  0.9505911E-01
         -2   -1    0    0    0  501 -0.00000000000E+00  0.00000000000E+00  0.22576811585E+04  0.22576811585E+04  0.25500000000E-02 0.  1.
          2   -1    0    0  501    0  0.00000000000E+00 -0.00000000000E+00 -0.11585525229E+04  0.11585525229E+04  0.25500000000E-02 0. -1.
    8880023    1    1    2    0    0  0.13294277077E+03  0.61771828380E+03 -0.91945013247E+03  0.12955494629E+04  0.65864270000E+03 0.  0.
    8880022    1    1    2    0    0 -0.13294277077E+03 -0.61771828380E+03  0.20185787681E+04  0.21206842185E+04  0.15294330000E+03 0.  0.
<mgrwt>
<rscale>  0 0.83849422E+03</rscale>
<asrwt>0</asrwt>
<pdfrwt beam="1">  1        2 0.17823885E+00 0.91272113E+03</pdfrwt>
<pdfrwt beam="2">  1       -2 0.34733556E+00 0.91272113E+03</pdfrwt>
<totfact> 0.33299445E-01</totfact>
</mgrwt>
</event>
<event>
 4    5  0.2025789E-007  0.8615958E+03  0.7818608E-02  0.9590731E-01
         -2   -1    0    0    0  501 -0.00000000000E+00  0.00000000000E+00  0.51853548213E+03  0.51853548213E+03  0.25500000000E-02 0.  1.
          2   -1    0    0  501    0  0.00000000000E+00 -0.00000000000E+00 -0.13787995863E+04  0.13787995863E+04  0.25500000000E-02 0. -1.
    8880023    1    1    2    0    0 -0.38100014882E+03  0.40419794141E+03 -0.98417098818E+03  0.13080289865E+04  0.65864270000E+03 0.  1.
    8880022    1    1    2    0    0  0.38100014882E+03 -0.40419794141E+03  0.12390688405E+03  0.58930608191E+03  0.15294330000E+03 0.  0.
<mgrwt>
<rscale>  0 0.77912705E+03</rscale>
<asrwt>0</asrwt>
<pdfrwt beam="1">  1        2 0.21212301E+00 0.86159578E+03</pdfrwt>
<pdfrwt beam="2">  1       -2 0.79774690E-01 0.86159578E+03</pdfrwt>
<totfact> 0.20897851E+01</totfact>
</mgrwt>
</event>
<event>
 4    5  0.2081033E-007  0.9877338E+03  0.7818608E-02  0.9397784E-01
          2   -1    0    0  501    0  0.00000000000E+00  0.00000000000E+00  0.36410429959E+04  0.36410429959E+04  0.25500000000E-02 0. -1.
         -2   -1    0    0    0  501 -0.00000000000E+00 -0.00000000000E+00 -0.75387691907E+03  0.75387691907E+03  0.25500000000E-02 0.  1.
    8880023    1    1    2    0    0 -0.58924957643E+03 -0.44112665719E+03  0.33630933261E+04  0.35051411837E+04  0.65864270000E+03 0.  0.
    8880022    1    1    2    0    0  0.58924957643E+03  0.44112665719E+03 -0.47592724930E+03  0.88977873129E+03  0.15294330000E+03 0.  0.
<mgrwt>
<rscale>  0 0.92258235E+03</rscale>
<asrwt>0</asrwt>
<pdfrwt beam="1">  1        2 0.56016047E+00 0.98773377E+03</pdfrwt>
<pdfrwt beam="2">  1       -2 0.11598106E+00 0.98773377E+03</pdfrwt>
<totfact> 0.38701297E-01</totfact>
</mgrwt>
</event>
<event>
 4    5  0.2025789E-007  0.9578090E+03  0.7818608E-02  0.9438966E-01
          2   -1    0    0  501    0  0.00000000000E+00  0.00000000000E+00  0.18433777454E+04  0.18433777454E+04  0.25500000000E-02 0. -1.
         -2   -1    0    0    0  501 -0.00000000000E+00 -0.00000000000E+00 -0.63904195234E+03  0.63904195234E+03  0.25500000000E-02 0.  1.
    8880023    1    1    2    0    0  0.69528798805E+03 -0.12750503133E+02  0.14425752232E+04  0.17315950573E+04  0.65864270000E+03 0. -1.
    8880022    1    1    2    0    0 -0.69528798805E+03  0.12750503133E+02 -0.23823943010E+03  0.75082464046E+03  0.15294330000E+03 0.  1.
<mgrwt>
<rscale>  0 0.88937110E+03</rscale>
<asrwt>0</asrwt>
<pdfrwt beam="1">  1        2 0.28359657E+00 0.95780905E+03</pdfrwt>
<pdfrwt beam="2">  1       -2 0.98314149E-01 0.95780905E+03</pdfrwt>
<totfact> 0.70450392E+00</totfact>
</mgrwt>
</event>
<event>
 4    5  0.2025789E-007  0.1061030E+04  0.7818608E-02  0.9305738E-01
         -2   -1    0    0    0  501 -0.00000000000E+00  0.00000000000E+00  0.30538108073E+04  0.30538108073E+04  0.25500000000E-02 0.  1.
          2   -1    0    0  501    0  0.00000000000E+00 -0.00000000000E+00 -0.30411839857E+03  0.30411839858E+03  0.25500000000E-02 0. -1.
    8880023    1    1    2    0    0 -0.10721659616E+03  0.82491190385E+03  0.12835791374E+04  0.16653410028E+04  0.65864270000E+03 0.  1.
    8880022    1    1    2    0    0  0.10721659616E+03 -0.82491190385E+03  0.14661132714E+04  0.16925882031E+04  0.15294330000E+03 0. -1.
<mgrwt>
<rscale>  0 0.10025636E+04</rscale>
<asrwt>0</asrwt>
<pdfrwt beam="1">  1        2 0.46787443E-01 0.10610303E+04</pdfrwt>
<pdfrwt beam="2">  1       -2 0.46981708E+00 0.10610303E+04</pdfrwt>
<totfact> 0.28161354E-01</totfact>
</mgrwt>
</event>
<event>
 4    5  0.2025789E-007  0.7872629E+03  0.7818608E-02  0.9739045E-01
          2   -1    0    0  501    0  0.00000000000E+00  0.00000000000E+00  0.21445812097E+04  0.21445812097E+04  0.25500000000E-02 0. -1.
         -2   -1    0    0    0  501 -0.00000000000E+00 -0.00000000000E+00 -0.62099301396E+03  0.62099301397E+03  0.25500000000E-02 0.  1.
    8880023    1    1    2    0    0 -0.19314622658E+03 -0.38557391352E+03 -0.33199963503E+03  0.85440427876E+03  0.65864270000E+03 0.  0.
    8880022    1    1    2    0    0  0.19314622658E+03  0.38557391352E+03  0.18555878307E+04  0.19111699449E+04  0.15294330000E+03 0.  0.
<mgrwt>
<rscale>  0 0.68738918E+03</rscale>
<asrwt>0</asrwt>
<pdfrwt beam="1">  1        2 0.32993557E+00 0.78726293E+03</pdfrwt>
<pdfrwt beam="2">  1       -2 0.95537388E-01 0.78726293E+03</pdfrwt>
<totfact> 0.52730073E+00</totfact>
</mgrwt>
</event>
<event>
 4    5  0.2025789E-007  0.9833927E+03  0.7818608E-02  0.9403615E-01
          2   -1    0    0  501    0  0.00000000000E+00  0.00000000000E+00  0.14258339229E+04  0.14258339229E+04  0.25500000000E-02 0. -1.
         -2   -1    0    0    0  501 -0.00000000000E+00 -0.00000000000E+00 -0.11440151952E+04  0.11440151952E+04  0.25500000000E-02 0.  1.
    8880023    1    1    2    0    0 -0.94869354920E+02 -0.72405168297E+03  0.10912813300E+04  0.14689983600E+04  0.65864270000E+03 0.  0.
    8880022    1    1    2    0    0  0.94869354920E+02  0.72405168297E+03 -0.80946260230E+03  0.11008507581E+04  0.15294330000E+03 0.  0.
<mgrwt>
<rscale>  0 0.91778785E+03</rscale>
<asrwt>0</asrwt>
<pdfrwt beam="1">  1        2 0.21935907E+00 0.98339272E+03</pdfrwt>
<pdfrwt beam="2">  1       -2 0.17600234E+00 0.98339272E+03</pdfrwt>
<totfact> 0.26883815E+00</totfact>
</mgrwt>
</event>
<event>
 4    5  0.2025789E-007  0.8997866E+03  0.7818608E-02  0.9526374E-01
          2   -1    0    0  501    0  0.00000000000E+00  0.00000000000E+00  0.57871718888E+03  0.57871718889E+03  0.25500000000E-02 0. -1.
         -2   -1    0    0    0  501 -0.00000000000E+00 -0.00000000000E+00 -0.12796046927E+04  0.12796046927E+04  0.25500000000E-02 0.  1.
    8880023    1    1    2    0    0 -0.14679445995E+03 -0.59519504358E+03  0.19654660289E+02  0.90000125851E+03  0.65864270000E+03 0. -1.
    8880022    1    1    2    0    0  0.14679445995E+03  0.59519504358E+03 -0.72054216413E+03  0.95832062311E+03  0.15294330000E+03 0.  0.
<mgrwt>
<rscale>  0 0.82366974E+03</rscale>
<asrwt>0</asrwt>
<pdfrwt beam="1">  1        2 0.89033414E-01 0.89978662E+03</pdfrwt>
<pdfrwt beam="2">  1       -2 0.19686226E+00 0.89978662E+03</pdfrwt>
<totfact> 0.72517625E+00</totfact>
</mgrwt>
</event>
<event>
 4    5  0.2025789E-007  0.1458056E+04  0.7818608E-02  0.8939837E-01
          2   -1    0    0  501    0  0.00000000000E+00  0.00000000000E+00  0.21682441544E+04  0.21682441544E+04  0.25500000000E-02 0. -1.
         -2   -1    0    0    0  501 -0.00000000000E+00 -0.00000000000E+00 -0.11071767686E+04  0.11071767686E+04  0.25500000000E-02 0.  1.
    8880023    1    1    2    0    0  0.12842253314E+04 -0.20707724940E+03  0.12887909891E+04  0.19459979724E+04  0.65864270000E+03 0.  0.
    8880022    1    1    2    0    0 -0.12842253314E+04  0.20707724940E+03 -0.22772360328E+03  0.13294229505E+04  0.15294330000E+03 0.  0.
<mgrwt>
<rscale>  0 0.14194811E+04</rscale>
<asrwt>0</asrwt>
<pdfrwt beam="1">  1        2 0.33357602E+00 0.14580555E+04</pdfrwt>
<pdfrwt beam="2">  1       -2 0.17033489E+00 0.14580555E+04</pdfrwt>
<totfact> 0.10786348E+00</totfact>
</mgrwt>
</event>
<event>
 4    5  0.2025789E-007  0.6688299E+03  0.7818608E-02  0.1016516E+00
          2   -1    0    0  501    0  0.00000000000E+00  0.00000000000E+00  0.13460899406E+04  0.13460899406E+04  0.25500000000E-02 0. -1.
         -2   -1    0    0    0  501 -0.00000000000E+00 -0.00000000000E+00 -0.79423537062E+03  0.79423537062E+03  0.25500000000E-02 0.  1.
    8880023    1    1    2    0    0 -0.57732440319E+02 -0.10094659808E+03  0.12492082321E+04  0.14169878841E+04  0.65864270000E+03 0. -1.
    8880022    1    1    2    0    0  0.57732440319E+02  0.10094659808E+03 -0.69735366213E+03  0.72333742709E+03  0.15294330000E+03 0.  0.
<mgrwt>
<rscale>  0 0.48965138E+03</rscale>
<asrwt>0</asrwt>
<pdfrwt beam="1">  1        2 0.20709076E+00 0.66882992E+03</pdfrwt>
<pdfrwt beam="2">  1       -2 0.12219006E+00 0.66882992E+03</pdfrwt>
<totfact> 0.81597616E+00</totfact>
</mgrwt>
</event>
<event>
 4    5  0.2025789E-007  0.9562285E+03  0.7818608E-02  0.9441209E-01
         -2   -1    0    0    0  501 -0.00000000000E+00  0.00000000000E+00  0.14192296079E+04  0.14192296079E+04  0.25500000000E-02 0.  1.
          2   -1    0    0  501    0  0.00000000000E+00 -0.00000000000E+00 -0.10859086642E+04  0.10859086642E+04  0.25500000000E-02 0. -1.
    8880023    1    1    2    0    0 -0.49227890816E+03 -0.48808222334E+03 -0.74633198782E+03  0.12130063571E+04  0.65864270000E+03 0.  0.
    8880022    1    1    2    0    0  0.49227890816E+03  0.48808222334E+03  0.10796529315E+04  0.12921319149E+04  0.15294330000E+03 0.  0.
<mgrwt>
<rscale>  0 0.88760590E+03</rscale>
<asrwt>0</asrwt>
<pdfrwt beam="1">  1        2 0.16706287E+00 0.95622852E+03</pdfrwt>
<pdfrwt beam="2">  1       -2 0.21834301E+00 0.95622852E+03</pdfrwt>
<totfact> 0.22481737E+00</totfact>
</mgrwt>
</event>
<event>
 4    5  0.2025789E-007  0.6818209E+03  0.7818608E-02  0.1008312E+00
         -2   -1    0    0    0  501 -0.00000000000E+00  0.00000000000E+00  0.57528901559E+03  0.57528901559E+03  0.25500000000E-02 0.  1.
          2   -1    0    0  501    0  0.00000000000E+00 -0.00000000000E+00 -0.46304783179E+03  0.46304783180E+03  0.25500000000E-02 0. -1.
    8880023    1    1    2    0    0 -0.46326449201E+02  0.17006896677E+03 -0.13855693318E+03  0.69575701459E+03  0.65864270000E+03 0. -1.
    8880022    1    1    2    0    0  0.46326449201E+02 -0.17006896677E+03  0.25079811697E+03  0.34257983281E+03  0.15294330000E+03 0.  1.
<mgrwt>
<rscale>  0 0.52151127E+03</rscale>
<asrwt>0</asrwt>
<pdfrwt beam="1">  1        2 0.71238128E-01 0.68182094E+03</pdfrwt>
<pdfrwt beam="2">  1       -2 0.88506002E-01 0.68182094E+03</pdfrwt>
<totfact> 0.75054910E+01</totfact>
</mgrwt>
</event>
<event>
 4    5  0.2025789E-007  0.8344447E+03  0.7818608E-02  0.9640746E-01
         -2   -1    0    0    0  501 -0.00000000000E+00  0.00000000000E+00  0.42678503616E+03  0.42678503617E+03  0.25500000000E-02 0.  1.
          2   -1    0    0  501    0  0.00000000000E+00 -0.00000000000E+00 -0.29463206495E+04  0.29463206495E+04  0.25500000000E-02 0. -1.
    8880023    1    1    2    0    0 -0.51210152768E+03 -0.15482273444E+02 -0.26863861948E+04  0.28129999412E+04  0.65864270000E+03 0. -1.
    8880022    1    1    2    0    0  0.51210152768E+03  0.15482273444E+02  0.16685058145E+03  0.56010574447E+03  0.15294330000E+03 0.  0.
<mgrwt>
<rscale>  0 0.74657080E+03</rscale>
<asrwt>0</asrwt>
<pdfrwt beam="1">  1        2 0.45328009E+00 0.83444465E+03</pdfrwt>
<pdfrwt beam="2">  1       -2 0.65659238E-01 0.83444465E+03</pdfrwt>
<totfact> 0.42110670E+00</totfact>
</mgrwt>
</event>
<event>
 4    5  0.2025789E-007  0.7111082E+03  0.7818608E-02  0.9953908E-01
         -2   -1    0    0    0  501 -0.00000000000E+00  0.00000000000E+00  0.82476926587E+03  0.82476926588E+03  0.25500000000E-02 0.  1.
          2   -1    0    0  501    0  0.00000000000E+00 -0.00000000000E+00 -0.59587440173E+03  0.59587440174E+03  0.25500000000E-02 0. -1.
    8880023    1    1    2    0    0  0.13881724716E+03  0.22933484486E+03 -0.32864462428E+03  0.78337870440E+03  0.65864270000E+03 0. -1.
    8880022    1    1    2    0    0 -0.13881724716E+03 -0.22933484486E+03  0.55753948842E+03  0.63726496321E+03  0.15294330000E+03 0.  0.
<mgrwt>
<rscale>  0 0.57718298E+03</rscale>
<asrwt>0</asrwt>
<pdfrwt beam="1">  1        2 0.91672985E-01 0.71110822E+03</pdfrwt>
<pdfrwt beam="2">  1       -2 0.12688758E+00 0.71110822E+03</pdfrwt>
<totfact> 0.23476968E+01</totfact>
</mgrwt>
</event>
<event>
 4    5  0.2025789E-007  0.1265963E+04  0.7818608E-02  0.9095525E-01
          2   -1    0    0  501    0  0.00000000000E+00  0.00000000000E+00  0.31868952893E+04  0.31868952893E+04  0.25500000000E-02 0. -1.
         -2   -1    0    0    0  501 -0.00000000000E+00 -0.00000000000E+00 -0.56423338086E+03  0.56423338087E+03  0.25500000000E-02 0.  1.
    8880023    1    1    2    0    0  0.37551075606E+03  0.10138262860E+04  0.22779786943E+04  0.26061176497E+04  0.65864270000E+03 0. -1.
    8880022    1    1    2    0    0 -0.37551075606E+03 -0.10138262860E+04  0.34468321419E+03  0.11450110205E+04  0.15294330000E+03 0.  0.
<mgrwt>
<rscale>  0 0.12200044E+04</rscale>
<asrwt>0</asrwt>
<pdfrwt beam="1">  1        2 0.49029159E+00 0.12659630E+04</pdfrwt>
<pdfrwt beam="2">  1       -2 0.86805135E-01 0.12659630E+04</pdfrwt>
<totfact> 0.14995250E+00</totfact>
</mgrwt>
</event>
<event>
 4    5  0.2025789E-007  0.8822667E+03  0.7818608E-02  0.9555121E-01
          2   -1    0    0  501    0  0.00000000000E+00  0.00000000000E+00  0.31199158973E+04  0.31199158973E+04  0.25500000000E-02 0. -1.
         -2   -1    0    0    0  501 -0.00000000000E+00 -0.00000000000E+00 -0.25205826095E+03  0.25205826097E+03  0.25500000000E-02 0.  1.
    8880023    1    1    2    0    0 -0.58540633704E+03  0.43403099122E+02  0.25260523503E+04  0.26756933852E+04  0.65864270000E+03 0.  0.
    8880022    1    1    2    0    0  0.58540633704E+03 -0.43403099122E+02  0.34180528603E+03  0.69628077313E+03  0.15294330000E+03 0.  0.
<mgrwt>
<rscale>  0 0.80339177E+03</rscale>
<asrwt>0</asrwt>
<pdfrwt beam="1">  1        2 0.47998704E+00 0.88226675E+03</pdfrwt>
<pdfrwt beam="2">  1       -2 0.38778195E-01 0.88226675E+03</pdfrwt>
<totfact> 0.95827037E+00</totfact>
</mgrwt>
</event>
<event>
 4    5  0.2025789E-007  0.6780802E+03  0.7818608E-02  0.1010431E+00
          2   -1    0    0  501    0  0.00000000000E+00  0.00000000000E+00  0.11981741641E+04  0.11981741641E+04  0.25500000000E-02 0. -1.
         -2   -1    0    0    0  501 -0.00000000000E+00 -0.00000000000E+00 -0.32349891165E+03  0.32349891166E+03  0.25500000000E-02 0.  1.
    8880023    1    1    2    0    0 -0.66954826014E+02  0.14662731667E+03  0.10422160401E+04  0.12433852980E+04  0.65864270000E+03 0. -1.
    8880022    1    1    2    0    0  0.66954826014E+02 -0.14662731667E+03 -0.16754078766E+03  0.27828777779E+03  0.15294330000E+03 0.  0.
<mgrwt>
<rscale>  0 0.51303650E+03</rscale>
<asrwt>0</asrwt>
<pdfrwt beam="1">  1        2 0.18433449E+00 0.67808018E+03</pdfrwt>
<pdfrwt beam="2">  1       -2 0.49769063E-01 0.67808018E+03</pdfrwt>
<totfact> 0.74217292E+01</totfact>
</mgrwt>
</event>
<event>
 4    5  0.2025789E-007  0.8914618E+03  0.7818608E-02  0.9539879E-01
         -2   -1    0    0    0  501 -0.00000000000E+00  0.00000000000E+00  0.31976904087E+03  0.31976904088E+03  0.25500000000E-02 0.  1.
          2   -1    0    0  501    0  0.00000000000E+00 -0.00000000000E+00 -0.41798112303E+04  0.41798112303E+04  0.25500000000E-02 0. -1.
    8880023    1    1    2    0    0 -0.47035835992E+03  0.37370710928E+03 -0.37690374333E+04  0.38730281912E+04  0.65864270000E+03 0.  0.
    8880022    1    1    2    0    0  0.47035835992E+03 -0.37370710928E+03 -0.91004756172E+02  0.62655207999E+03  0.15294330000E+03 0.  0.
<mgrwt>
<rscale>  0 0.81406453E+03</rscale>
<asrwt>0</asrwt>
<pdfrwt beam="1">  1        2 0.64304784E+00 0.89146183E+03</pdfrwt>
<pdfrwt beam="2">  1       -2 0.49195240E-01 0.89146183E+03</pdfrwt>
<totfact> 0.10275992E+00</totfact>
</mgrwt>
</event>
<event>
 4    5  0.2025789E-007  0.1107031E+04  0.7818608E-02  0.9253268E-01
         -2   -1    0    0    0  501 -0.00000000000E+00  0.00000000000E+00  0.13061389892E+04  0.13061389892E+04  0.25500000000E-02 0.  1.
          2   -1    0    0  501    0  0.00000000000E+00 -0.00000000000E+00 -0.28677044831E+04  0.28677044831E+04  0.25500000000E-02 0. -1.
    8880023    1    1    2    0    0  0.27167581572E+03 -0.84728980593E+03 -0.25832213123E+04  0.28104359660E+04  0.65864270000E+03 0. -1.
    8880022    1    1    2    0    0 -0.27167581572E+03  0.84728980593E+03  0.10216558184E+04  0.13634075064E+04  0.15294330000E+03 0.  0.
<mgrwt>
<rscale>  0 0.10520132E+04</rscale>
<asrwt>0</asrwt>
<pdfrwt beam="1">  1        2 0.44118530E+00 0.11070312E+04</pdfrwt>
<pdfrwt beam="2">  1       -2 0.20094446E+00 0.11070312E+04</pdfrwt>
<totfact> 0.27449380E-01</totfact>
</mgrwt>
</event>
<event>
 4    5  0.2025789E-007  0.1202356E+04  0.7818608E-02  0.9154836E-01
          2   -1    0    0  501    0  0.00000000000E+00  0.00000000000E+00  0.19891603823E+04  0.19891603823E+04  0.25500000000E-02 0. -1.
         -2   -1    0    0    0  501 -0.00000000000E+00 -0.00000000000E+00 -0.12544561198E+04  0.12544561198E+04  0.25500000000E-02 0.  1.
    8880023    1    1    2    0    0  0.94258851800E+03 -0.35124916144E+03  0.15344881208E+04  0.19494391724E+04  0.65864270000E+03 0.  0.
    8880022    1    1    2    0    0 -0.94258851800E+03  0.35124916144E+03 -0.79978385827E+03  0.12941773297E+04  0.15294330000E+03 0.  0.
<mgrwt>
<rscale>  0 0.11532007E+04</rscale>
<asrwt>0</asrwt>
<pdfrwt beam="1">  1        2 0.30602467E+00 0.12023557E+04</pdfrwt>
<pdfrwt beam="2">  1       -2 0.19299325E+00 0.12023557E+04</pdfrwt>
<totfact> 0.97371279E-01</totfact>
</mgrwt>
</event>
<event>
 4    5  0.2025790E-007  0.8870471E+03  0.7818608E-02  0.9547154E-01
          2   -1    0    0  501    0  0.00000000000E+00  0.00000000000E+00  0.21379051707E+04  0.21379051707E+04  0.25500000000E-02 0. -1.
         -2   -1    0    0    0  501 -0.00000000000E+00 -0.00000000000E+00 -0.10015962569E+04  0.10015962569E+04  0.25500000000E-02 0.  1.
    8880023    1    1    2    0    0  0.56898907818E+03 -0.17115406389E+03  0.19371870042E+04  0.21306210316E+04  0.65864270000E+03 0. -1.
    8880022    1    1    2    0    0 -0.56898907818E+03  0.17115406389E+03 -0.80087809046E+03  0.10088803960E+04  0.15294330000E+03 0.  0.
<mgrwt>
<rscale>  0 0.80894891E+03</rscale>
<asrwt>0</asrwt>
<pdfrwt beam="1">  1        2 0.32890849E+00 0.88704706E+03</pdfrwt>
<pdfrwt beam="2">  1       -2 0.15409173E+00 0.88704706E+03</pdfrwt>
<totfact> 0.15869027E+00</totfact>
</mgrwt>
</event>
<event>
 4    5  0.2025789E-007  0.1953191E+04  0.7818608E-02  0.8642218E-01
         -2   -1    0    0    0  501 -0.00000000000E+00  0.00000000000E+00  0.28371169059E+04  0.28371169059E+04  0.25500000000E-02 0.  1.
          2   -1    0    0  501    0  0.00000000000E+00 -0.00000000000E+00 -0.23995314075E+04  0.23995314075E+04  0.25500000000E-02 0. -1.
    8880023    1    1    2    0    0  0.16735050740E+04 -0.76192112289E+03  0.20170978539E+04  0.28077815066E+04  0.65864270000E+03 0.  0.
    8880022    1    1    2    0    0 -0.16735050740E+04  0.76192112289E+03 -0.15795123555E+04  0.24288668067E+04  0.15294330000E+03 0.  0.
<mgrwt>
<rscale>  0 0.19255982E+04</rscale>
<asrwt>0</asrwt>
<pdfrwt beam="1">  1        2 0.36915868E+00 0.19531905E+04</pdfrwt>
<pdfrwt beam="2">  1       -2 0.43647952E+00 0.19531905E+04</pdfrwt>
<totfact> 0.15010171E-02</totfact>
</mgrwt>
</event>
<event>
 4    5  0.2025789E-007  0.6842874E+03  0.7818608E-02  0.1006995E+00
          2   -1    0    0  501    0  0.00000000000E+00  0.00000000000E+00  0.51584445831E+03  0.51584445832E+03  0.25500000000E-02 0. -1.
         -2   -1    0    0    0  501 -0.00000000000E+00 -0.00000000000E+00 -0.44365431180E+03  0.44365431181E+03  0.25500000000E-02 0.  1.
    8880023    1    1    2    0    0 -0.94936222889E+02  0.15945587260E+03  0.16129727586E+03  0.70304059569E+03  0.65864270000E+03 0. -1.
    8880022    1    1    2    0    0  0.94936222889E+02 -0.15945587260E+03 -0.89107129353E+02  0.25645817444E+03  0.15294330000E+03 0.  0.
<mgrwt>
<rscale>  0 0.52686426E+03</rscale>
<asrwt>0</asrwt>
<pdfrwt beam="1">  1        2 0.79360686E-01 0.68428742E+03</pdfrwt>
<pdfrwt beam="2">  1       -2 0.68254510E-01 0.68428742E+03</pdfrwt>
<totfact> 0.11829513E+02</totfact>
</mgrwt>
</event>
<event>
 4    5  0.2025789E-007  0.7012230E+03  0.7818608E-02  0.9992165E-01
         -2   -1    0    0    0  501 -0.00000000000E+00  0.00000000000E+00  0.17365969873E+03  0.17365969875E+03  0.25500000000E-02 0.  1.
          2   -1    0    0  501    0  0.00000000000E+00 -0.00000000000E+00 -0.14954381594E+04  0.14954381594E+04  0.25500000000E-02 0. -1.
    8880023    1    1    2    0    0 -0.87562661928E+02 -0.22413446473E+03 -0.11139017009E+04  0.13162411191E+04  0.65864270000E+03 0.  0.
    8880022    1    1    2    0    0  0.87562661928E+02  0.22413446473E+03 -0.20787675980E+03  0.35285673909E+03  0.15294330000E+03 0.  0.
<mgrwt>
<rscale>  0 0.55995120E+03</rscale>
<asrwt>0</asrwt>
<pdfrwt beam="1">  1        2 0.23006740E+00 0.70122299E+03</pdfrwt>
<pdfrwt beam="2">  1       -2 0.26716878E-01 0.70122299E+03</pdfrwt>
<totfact> 0.16536411E+02</totfact>
</mgrwt>
</event>
<event>
 4    5  0.2025789E-007  0.1096101E+04  0.7818608E-02  0.9265409E-01
          2   -1    0    0  501    0  0.00000000000E+00  0.00000000000E+00  0.18480453834E+04  0.18480453834E+04  0.25500000000E-02 0. -1.
         -2   -1    0    0    0  501 -0.00000000000E+00 -0.00000000000E+00 -0.54368850728E+03  0.54368850728E+03  0.25500000000E-02 0.  1.
    8880023    1    1    2    0    0 -0.72618584749E+03  0.49018544375E+03  0.88327023931E+03  0.14076946318E+04  0.65864270000E+03 0.  0.
    8880022    1    1    2    0    0  0.72618584749E+03 -0.49018544375E+03  0.42108663679E+03  0.98403925890E+03  0.15294330000E+03 0.  1.
<mgrwt>
<rscale>  0 0.10403067E+04</rscale>
<asrwt>0</asrwt>
<pdfrwt beam="1">  1        2 0.28431468E+00 0.10961012E+04</pdfrwt>
<pdfrwt beam="2">  1       -2 0.83644385E-01 0.10961012E+04</pdfrwt>
<totfact> 0.10041778E+01</totfact>
</mgrwt>
</event>
<event>
 4    5  0.2025789E-007  0.8806657E+03  0.7818608E-02  0.9557811E-01
          2   -1    0    0  501    0  0.00000000000E+00  0.00000000000E+00  0.21634003828E+04  0.21634003828E+04  0.25500000000E-02 0. -1.
         -2   -1    0    0    0  501 -0.00000000000E+00 -0.00000000000E+00 -0.35820237692E+03  0.35820237693E+03  0.25500000000E-02 0.  1.
    8880023    1    1    2    0    0  0.19996659085E+03 -0.54934068290E+03  0.16910654834E+04  0.19066395828E+04  0.65864270000E+03 0.  0.
    8880022    1    1    2    0    0 -0.19996659085E+03  0.54934068290E+03  0.11413252257E+03  0.61496317700E+03  0.15294330000E+03 0.  0.
<mgrwt>
<rscale>  0 0.80152622E+03</rscale>
<asrwt>0</asrwt>
<pdfrwt beam="1">  1        2 0.33283083E+00 0.88066567E+03</pdfrwt>
<pdfrwt beam="2">  1       -2 0.55108058E-01 0.88066567E+03</pdfrwt>
<totfact> 0.17101796E+01</totfact>
</mgrwt>
</event>
<event>
 4    5  0.2025789E-007  0.8185441E+03  0.7818608E-02  0.9672047E-01
         -2   -1    0    0    0  501 -0.00000000000E+00  0.00000000000E+00  0.28292169000E+03  0.28292169001E+03  0.25500000000E-02 0.  1.
          2   -1    0    0  501    0  0.00000000000E+00 -0.00000000000E+00 -0.23261186026E+04  0.23261186026E+04  0.25500000000E-02 0. -1.
    8880023    1    1    2    0    0  0.26761664252E+03  0.40569154810E+03 -0.19165515126E+04  0.20840307594E+04  0.65864270000E+03 0. -1.
    8880022    1    1    2    0    0 -0.26761664252E+03 -0.40569154810E+03 -0.12664539998E+03  0.52500953315E+03  0.15294330000E+03 0.  0.
<mgrwt>
<rscale>  0 0.72705760E+03</rscale>
<asrwt>0</asrwt>
<pdfrwt beam="1">  1        2 0.35786439E+00 0.81854414E+03</pdfrwt>
<pdfrwt beam="2">  1       -2 0.43526415E-01 0.81854414E+03</pdfrwt>
<totfact> 0.22609654E+01</totfact>
</mgrwt>
</event>
<event>
 4    5  0.2025789E-007  0.6994643E+03  0.7818608E-02  0.9999431E-01
         -2   -1    0    0    0  501 -0.00000000000E+00  0.00000000000E+00  0.56141047609E+03  0.56141047610E+03  0.25500000000E-02 0.  1.
          2   -1    0    0  501    0  0.00000000000E+00 -0.00000000000E+00 -0.13668834763E+04  0.13668834763E+04  0.25500000000E-02 0. -1.
    8880023    1    1    2    0    0  0.21581914578E+03 -0.94138932898E+02 -0.12325499873E+04  0.14171907845E+04  0.65864270000E+03 0. -1.
    8880022    1    1    2    0    0 -0.21581914578E+03  0.94138932898E+02  0.42707698703E+03  0.51110316790E+03  0.15294330000E+03 0.  0.
<mgrwt>
<rscale>  0 0.55675196E+03</rscale>
<asrwt>0</asrwt>
<pdfrwt beam="1">  1        2 0.21028976E+00 0.69946426E+03</pdfrwt>
<pdfrwt beam="2">  1       -2 0.86370843E-01 0.69946426E+03</pdfrwt>
<totfact> 0.18058856E+01</totfact>
</mgrwt>
</event>
<event>
 4    5  0.2025789E-007  0.9946952E+03  0.7818608E-02  0.9388531E-01
          2   -1    0    0  501    0  0.00000000000E+00  0.00000000000E+00  0.20647078703E+04  0.20647078703E+04  0.25500000000E-02 0. -1.
         -2   -1    0    0    0  501 -0.00000000000E+00 -0.00000000000E+00 -0.96005080336E+03  0.96005080337E+03  0.25500000000E-02 0.  1.
    8880023    1    1    2    0    0  0.50183121270E+03  0.55115668878E+03  0.17592730411E+04  0.20210047256E+04  0.65864270000E+03 0. -1.
    8880022    1    1    2    0    0 -0.50183121270E+03 -0.55115668878E+03 -0.65461597414E+03  0.10037539481E+04  0.15294330000E+03 0.  0.
<mgrwt>
<rscale>  0 0.93025565E+03</rscale>
<asrwt>0</asrwt>
<pdfrwt beam="1">  1        2 0.31764736E+00 0.99469516E+03</pdfrwt>
<pdfrwt beam="2">  1       -2 0.14770013E+00 0.99469516E+03</pdfrwt>
<totfact> 0.19180714E+00</totfact>
</mgrwt>
</event>
<event>
 4    5  0.2025789E-007  0.8694079E+03  0.7818608E-02  0.9577043E-01
         -2   -1    0    0    0  501 -0.00000000000E+00  0.00000000000E+00  0.94469702648E+03  0.94469702648E+03  0.25500000000E-02 0.  1.
          2   -1    0    0  501    0  0.00000000000E+00 -0.00000000000E+00 -0.21293869669E+04  0.21293869669E+04  0.25500000000E-02 0. -1.
    8880023    1    1    2    0    0  0.34027245765E+03  0.45417452601E+03 -0.19347836142E+04  0.21211453711E+04  0.65864270000E+03 0.  0.
    8880022    1    1    2    0    0 -0.34027245765E+03 -0.45417452601E+03  0.75009367371E+03  0.95293862230E+03  0.15294330000E+03 0.  0.
<mgrwt>
<rscale>  0 0.78834454E+03</rscale>
<asrwt>0</asrwt>
<pdfrwt beam="1">  1        2 0.32759799E+00 0.86940787E+03</pdfrwt>
<pdfrwt beam="2">  1       -2 0.14533800E+00 0.86940787E+03</pdfrwt>
<totfact> 0.18783692E+00</totfact>
</mgrwt>
</event>
<event>
 4    5  0.2025789E-007  0.8273411E+03  0.7818608E-02  0.9654528E-01
          2   -1    0    0  501    0  0.00000000000E+00  0.00000000000E+00  0.31462812477E+04  0.31462812477E+04  0.25500000000E-02 0. -1.
         -2   -1    0    0    0  501 -0.00000000000E+00 -0.00000000000E+00 -0.40781542138E+03  0.40781542138E+03  0.25500000000E-02 0.  1.
    8880023    1    1    2    0    0  0.33425153292E+03 -0.37277204131E+03  0.28924105374E+04  0.30084102123E+04  0.65864270000E+03 0.  0.
    8880022    1    1    2    0    0 -0.33425153292E+03  0.37277204131E+03 -0.15394471111E+03  0.54568645680E+03  0.15294330000E+03 0.  0.
<mgrwt>
<rscale>  0 0.73789926E+03</rscale>
<asrwt>0</asrwt>
<pdfrwt beam="1">  1        2 0.48404327E+00 0.82734110E+03</pdfrwt>
<pdfrwt beam="2">  1       -2 0.62740834E-01 0.82734110E+03</pdfrwt>
<totfact> 0.34955160E+00</totfact>
</mgrwt>
</event>
<event>
 4    5  0.2025789E-007  0.1118833E+04  0.7818608E-02  0.9240372E-01
          2   -1    0    0  501    0  0.00000000000E+00  0.00000000000E+00  0.24198967762E+04  0.24198967762E+04  0.25500000000E-02 0. -1.
         -2   -1    0    0    0  501 -0.00000000000E+00 -0.00000000000E+00 -0.18915008215E+04  0.18915008215E+04  0.25500000000E-02 0.  1.
    8880023    1    1    2    0    0 -0.15009889830E+03  0.89187832146E+03  0.21640144682E+04  0.24361332978E+04  0.65864270000E+03 0.  0.
    8880022    1    1    2    0    0  0.15009889830E+03 -0.89187832146E+03 -0.16356185136E+04  0.18752642999E+04  0.15294330000E+03 0.  0.
<mgrwt>
<rscale>  0 0.10646262E+04</rscale>
<asrwt>0</asrwt>
<pdfrwt beam="1">  1        2 0.37229181E+00 0.11188328E+04</pdfrwt>
<pdfrwt beam="2">  1       -2 0.29100013E+00 0.11188328E+04</pdfrwt>
<totfact> 0.13877068E-01</totfact>
</mgrwt>
</event>
<event>
 4    5  0.2025789E-007  0.8618268E+03  0.7818608E-02  0.9590322E-01
         -2   -1    0    0    0  501 -0.00000000000E+00  0.00000000000E+00  0.51193895550E+03  0.51193895551E+03  0.25500000000E-02 0.  1.
          2   -1    0    0  501    0  0.00000000000E+00 -0.00000000000E+00 -0.21355469164E+04  0.21355469164E+04  0.25500000000E-02 0. -1.
    8880023    1    1    2    0    0  0.32088206313E+03  0.45383916016E+03 -0.18399198644E+04  0.20317604670E+04  0.65864270000E+03 0.  0.
    8880022    1    1    2    0    0 -0.32088206313E+03 -0.45383916016E+03  0.21631190341E+03  0.61572540496E+03  0.15294330000E+03 0.  0.
<mgrwt>
<rscale>  0 0.77940054E+03</rscale>
<asrwt>0</asrwt>
<pdfrwt beam="1">  1        2 0.32854568E+00 0.86182683E+03</pdfrwt>
<pdfrwt beam="2">  1       -2 0.78759840E-01 0.86182683E+03</pdfrwt>
<totfact> 0.82118239E+00</totfact>
</mgrwt>
</event>
<event>
 4    5  0.2025789E-007  0.6668299E+03  0.7818608E-02  0.1018045E+00
          2   -1    0    0  501    0  0.00000000000E+00  0.00000000000E+00  0.57943923296E+03  0.57943923297E+03  0.25500000000E-02 0. -1.
         -2   -1    0    0    0  501 -0.00000000000E+00 -0.00000000000E+00 -0.36373034970E+03  0.36373034971E+03  0.25500000000E-02 0.  1.
    8880023    1    1    2    0    0 -0.10208925878E+03  0.20730232947E+02  0.31013239319E+03  0.73542114933E+03  0.65864270000E+03 0. -1.
    8880022    1    1    2    0    0  0.10208925878E+03 -0.20730232947E+02 -0.94423509926E+02  0.20774843335E+03  0.15294330000E+03 0.  0.
<mgrwt>
<rscale>  0 0.48398707E+03</rscale>
<asrwt>0</asrwt>
<pdfrwt beam="1">  1        2 0.89144496E-01 0.66682994E+03</pdfrwt>
<pdfrwt beam="2">  1       -2 0.55958516E-01 0.66682994E+03</pdfrwt>
<totfact> 0.15738827E+02</totfact>
</mgrwt>
</event>
<event>
 4    5  0.2025789E-007  0.1318692E+04  0.7818608E-02  0.9049584E-01
          2   -1    0    0  501    0  0.00000000000E+00  0.00000000000E+00  0.35530423748E+04  0.35530423748E+04  0.25500000000E-02 0. -1.
         -2   -1    0    0    0  501 -0.00000000000E+00 -0.00000000000E+00 -0.66624013687E+03  0.66624013688E+03  0.25500000000E-02 0.  1.
    8880023    1    1    2    0    0  0.11028115735E+04 -0.29823696961E+03  0.27610864769E+04  0.30598280011E+04  0.65864270000E+03 0.  0.
    8880022    1    1    2    0    0 -0.11028115735E+04  0.29823696961E+03  0.12571576104E+03  0.11594545107E+04  0.15294330000E+03 0.  0.
<mgrwt>
<rscale>  0 0.12750552E+04</rscale>
<asrwt>0</asrwt>
<pdfrwt beam="1">  1        2 0.54662190E+00 0.13186921E+04</pdfrwt>
<pdfrwt beam="2">  1       -2 0.10249848E+00 0.13186921E+04</pdfrwt>
<totfact> 0.57191678E-01</totfact>
</mgrwt>
</event>
<event>
 4    5  0.2025789E-007  0.1243555E+04  0.7818608E-02  0.9115904E-01
          2   -1    0    0  501    0  0.00000000000E+00  0.00000000000E+00  0.46774630441E+04  0.46774630441E+04  0.25500000000E-02 0. -1.
         -2   -1    0    0    0  501 -0.00000000000E+00 -0.00000000000E+00 -0.46387879195E+03  0.46387879195E+03  0.25500000000E-02 0.  1.
    8880023    1    1    2    0    0 -0.95039402291E+03  0.45757013452E+03  0.37996092372E+04  0.39979319390E+04  0.65864270000E+03 0. -1.
    8880022    1    1    2    0    0  0.95039402291E+03 -0.45757013452E+03  0.41397501497E+03  0.11434098971E+04  0.15294330000E+03 0.  0.
<mgrwt>
<rscale>  0 0.11965245E+04</rscale>
<asrwt>0</asrwt>
<pdfrwt beam="1">  1        2 0.71960972E+00 0.12435552E+04</pdfrwt>
<pdfrwt beam="2">  1       -2 0.71365966E-01 0.12435552E+04</pdfrwt>
<totfact> 0.14932091E-01</totfact>
</mgrwt>
</event>
<event>
 4    5  0.2025789E-007  0.6666257E+03  0.7818608E-02  0.1018207E+00
          2   -1    0    0  501    0  0.00000000000E+00  0.00000000000E+00  0.11879401779E+04  0.11879401779E+04  0.25500000000E-02 0. -1.
         -2   -1    0    0    0  501 -0.00000000000E+00 -0.00000000000E+00 -0.43764120678E+03  0.43764120679E+03  0.25500000000E-02 0.  1.
    8880023    1    1    2    0    0  0.10159460231E+03 -0.16069197044E+02  0.10675992641E+04  0.12586334166E+04  0.65864270000E+03 0. -1.
    8880022    1    1    2    0    0 -0.10159460231E+03  0.16069197044E+02 -0.31730029303E+03  0.36694796809E+03  0.15294330000E+03 0.  0.
<mgrwt>
<rscale>  0 0.48339332E+03</rscale>
<asrwt>0</asrwt>
<pdfrwt beam="1">  1        2 0.18276002E+00 0.66662575E+03</pdfrwt>
<pdfrwt beam="2">  1       -2 0.67329417E-01 0.66662575E+03</pdfrwt>
<totfact> 0.40015750E+01</totfact>
</mgrwt>
</event>
<event>
 4    5  0.2025789E-007  0.1057785E+04  0.7818608E-02  0.9309581E-01
         -2   -1    0    0    0  501 -0.00000000000E+00  0.00000000000E+00  0.13228892850E+04  0.13228892850E+04  0.25500000000E-02 0.  1.
          2   -1    0    0  501    0  0.00000000000E+00 -0.00000000000E+00 -0.74330427580E+03  0.74330427580E+03  0.25500000000E-02 0. -1.
    8880023    1    1    2    0    0  0.34586825152E+03  0.75198012428E+03  0.24776849834E+02  0.10580751643E+04  0.65864270000E+03 0.  0.
    8880022    1    1    2    0    0 -0.34586825152E+03 -0.75198012428E+03  0.55480815938E+03  0.10081183965E+04  0.15294330000E+03 0.  0.
<mgrwt>
<rscale>  0 0.99905598E+03</rscale>
<asrwt>0</asrwt>
<pdfrwt beam="1">  1        2 0.11435450E+00 0.10577850E+04</pdfrwt>
<pdfrwt beam="2">  1       -2 0.20352143E+00 0.10577850E+04</pdfrwt>
<totfact> 0.47273767E+00</totfact>
</mgrwt>
</event>
<event>
 4    5  0.2025789E-007  0.9405465E+03  0.7818608E-02  0.9463848E-01
          2   -1    0    0  501    0  0.00000000000E+00  0.00000000000E+00  0.17435481440E+04  0.17435481440E+04  0.25500000000E-02 0. -1.
         -2   -1    0    0    0  501 -0.00000000000E+00 -0.00000000000E+00 -0.47070212058E+03  0.47070212059E+03  0.25500000000E-02 0.  1.
    8880023    1    1    2    0    0  0.15869805523E+03  0.65240514036E+03  0.11957340875E+04  0.15213177689E+04  0.65864270000E+03 0. -1.
    8880022    1    1    2    0    0 -0.15869805523E+03 -0.65240514036E+03  0.77111936003E+02  0.69293249569E+03  0.15294330000E+03 0.  0.
<mgrwt>
<rscale>  0 0.87002444E+03</rscale>
<asrwt>0</asrwt>
<pdfrwt beam="1">  1        2 0.26823817E+00 0.94054651E+03</pdfrwt>
<pdfrwt beam="2">  1       -2 0.72415712E-01 0.94054651E+03</pdfrwt>
<totfact> 0.16098722E+01</totfact>
</mgrwt>
</event>
<event>
 4    5  0.2025789E-007  0.7741955E+03  0.7818608E-02  0.9769653E-01
          2   -1    0    0  501    0  0.00000000000E+00  0.00000000000E+00  0.21422647559E+04  0.21422647559E+04  0.25500000000E-02 0. -1.
         -2   -1    0    0    0  501 -0.00000000000E+00 -0.00000000000E+00 -0.19212280777E+03  0.19212280779E+03  0.25500000000E-02 0.  1.
    8880023    1    1    2    0    0  0.22289900760E+03  0.34041809052E+03  0.15953660249E+04  0.17732939417E+04  0.65864270000E+03 0.  0.
    8880022    1    1    2    0    0 -0.22289900760E+03 -0.34041809052E+03  0.35477592325E+03  0.56109362202E+03  0.15294330000E+03 0.  0.
<mgrwt>
<rscale>  0 0.67016885E+03</rscale>
<asrwt>0</asrwt>
<pdfrwt beam="1">  1        2 0.32957920E+00 0.77419549E+03</pdfrwt>
<pdfrwt beam="2">  1       -2 0.29557355E-01 0.77419549E+03</pdfrwt>
<totfact> 0.60325968E+01</totfact>
</mgrwt>
</event>
<event>
 4    5  0.2025789E-007  0.9147155E+03  0.7818608E-02  0.9502810E-01
         -2   -1    0    0    0  501 -0.00000000000E+00  0.00000000000E+00  0.52542826541E+03  0.52542826541E+03  0.25500000000E-02 0.  1.
          2   -1    0    0  501    0  0.00000000000E+00 -0.00000000000E+00 -0.29637085905E+04  0.29637085905E+04  0.25500000000E-02 0. -1.
    8880023    1    1    2    0    0 -0.16865181629E+03 -0.61192392813E+03 -0.26494687631E+04  0.28029251260E+04  0.65864270000E+03 0. -1.
    8880022    1    1    2    0    0  0.16865181629E+03  0.61192392813E+03  0.21118843799E+03  0.68621172994E+03  0.15294330000E+03 0.  0.
<mgrwt>
<rscale>  0 0.84076994E+03</rscale>
<asrwt>0</asrwt>
<pdfrwt beam="1">  1        2 0.45595516E+00 0.91471555E+03</pdfrwt>
<pdfrwt beam="2">  1       -2 0.80835119E-01 0.91471555E+03</pdfrwt>
<totfact> 0.25617382E+00</totfact>
</mgrwt>
</event>
<event>
 4    5  0.2025789E-007  0.8876644E+03  0.7818608E-02  0.9546132E-01
         -2   -1    0    0    0  501 -0.00000000000E+00  0.00000000000E+00  0.26581558250E+03  0.26581558251E+03  0.25500000000E-02 0.  1.
          2   -1    0    0  501    0  0.00000000000E+00 -0.00000000000E+00 -0.23740006906E+04  0.23740006906E+04  0.25500000000E-02 0. -1.
    8880023    1    1    2    0    0  0.49247649771E+03  0.33407299718E+03 -0.16490647259E+04  0.18727953825E+04  0.65864270000E+03 0.  0.
    8880022    1    1    2    0    0 -0.49247649771E+03 -0.33407299718E+03 -0.45912038214E+03  0.76702089056E+03  0.15294330000E+03 0.  0.
<mgrwt>
<rscale>  0 0.80966518E+03</rscale>
<asrwt>0</asrwt>
<pdfrwt beam="1">  1        2 0.36523086E+00 0.88766439E+03</pdfrwt>
<pdfrwt beam="2">  1       -2 0.40894707E-01 0.88766439E+03</pdfrwt>
<totfact> 0.23828641E+01</totfact>
</mgrwt>
</event>
<event>
 4    5  0.2025789E-007  0.7396708E+03  0.7818608E-02  0.9860907E-01
         -2   -1    0    0    0  501 -0.00000000000E+00  0.00000000000E+00  0.10010607550E+04  0.10010607550E+04  0.25500000000E-02 0.  1.
          2   -1    0    0  501    0  0.00000000000E+00 -0.00000000000E+00 -0.10622579913E+04  0.10622579913E+04  0.25500000000E-02 0. -1.
    8880023    1    1    2    0    0  0.77568954289E+02 -0.32754504661E+03 -0.88913581316E+03  0.11565791805E+04  0.65864270000E+03 0. -1.
    8880022    1    1    2    0    0 -0.77568954289E+02  0.32754504661E+03  0.82793857680E+03  0.90673956581E+03  0.15294330000E+03 0.  0.
<mgrwt>
<rscale>  0 0.62193884E+03</rscale>
<asrwt>0</asrwt>
<pdfrwt beam="1">  1        2 0.16342431E+00 0.73967081E+03</pdfrwt>
<pdfrwt beam="2">  1       -2 0.15400935E+00 0.73967081E+03</pdfrwt>
<totfact> 0.65572191E+00</totfact>
</mgrwt>
</event>
<event>
 4    5  0.2025789E-007  0.7990432E+03  0.7818608E-02  0.9712869E-01
          2   -1    0    0  501    0  0.00000000000E+00  0.00000000000E+00  0.30024648384E+04  0.30024648384E+04  0.25500000000E-02 0. -1.
         -2   -1    0    0    0  501 -0.00000000000E+00 -0.00000000000E+00 -0.16528693337E+03  0.16528693339E+03  0.25500000000E-02 0.  1.
    8880023    1    1    2    0    0 -0.44892226140E+02  0.45016059574E+03  0.23643751015E+04  0.24957443180E+04  0.65864270000E+03 0.  0.
    8880022    1    1    2    0    0  0.44892226140E+02 -0.45016059574E+03  0.47280280357E+03  0.67200745383E+03  0.15294330000E+03 0.  0.
<mgrwt>
<rscale>  0 0.70255743E+03</rscale>
<asrwt>0</asrwt>
<pdfrwt beam="1">  1        2 0.46191764E+00 0.79904323E+03</pdfrwt>
<pdfrwt beam="2">  1       -2 0.25428760E-01 0.79904323E+03</pdfrwt>
<totfact> 0.25322794E+01</totfact>
</mgrwt>
</event>
<event>
 4    5  0.2025789E-007  0.6884724E+03  0.7818608E-02  0.1004887E+00
         -2   -1    0    0    0  501 -0.00000000000E+00  0.00000000000E+00  0.91058086218E+02  0.91058086253E+02  0.25500000000E-02 0.  1.
          2   -1    0    0  501    0  0.00000000000E+00 -0.00000000000E+00 -0.27377701842E+04  0.27377701842E+04  0.25500000000E-02 0. -1.
    8880023    1    1    2    0    0 -0.56712969035E+02 -0.19226984487E+03 -0.22952107853E+04  0.23962443134E+04  0.65864270000E+03 0. -1.
    8880022    1    1    2    0    0  0.56712969035E+02  0.19226984487E+03 -0.35150131269E+03  0.43258395710E+03  0.15294330000E+03 0.  1.
<mgrwt>
<rscale>  0 0.53558241E+03</rscale>
<asrwt>0</asrwt>
<pdfrwt beam="1">  1        2 0.42119535E+00 0.68847241E+03</pdfrwt>
<pdfrwt beam="2">  1       -2 0.14008938E-01 0.68847241E+03</pdfrwt>
<totfact> 0.10445715E+02</totfact>
</mgrwt>
</event>
<event>
 4    5  0.2025789E-007  0.1508670E+04  0.7818608E-02  0.8903538E-01
          2   -1    0    0  501    0  0.00000000000E+00  0.00000000000E+00  0.21743854086E+04  0.21743854086E+04  0.25500000000E-02 0. -1.
         -2   -1    0    0    0  501 -0.00000000000E+00 -0.00000000000E+00 -0.16680990348E+04  0.16680990348E+04  0.25500000000E-02 0.  1.
    8880023    1    1    2    0    0  0.12173166765E+04  0.60034541451E+03  0.15199322987E+04  0.21415599236E+04  0.65864270000E+03 0.  0.
    8880022    1    1    2    0    0 -0.12173166765E+04 -0.60034541451E+03 -0.10136459250E+04  0.17009245197E+04  0.15294330000E+03 0.  0.
<mgrwt>
<rscale>  0 0.14716343E+04</rscale>
<asrwt>0</asrwt>
<pdfrwt beam="1">  1        2 0.33452083E+00 0.15086698E+04</pdfrwt>
<pdfrwt beam="2">  1       -2 0.25663062E+00 0.15086698E+04</pdfrwt>
<totfact> 0.29243054E-01</totfact>
</mgrwt>
</event>
<event>
 4    5  0.2025789E-007  0.8612660E+03  0.7818608E-02  0.9591315E-01
          2   -1    0    0  501    0  0.00000000000E+00  0.00000000000E+00  0.23000928586E+04  0.23000928586E+04  0.25500000000E-02 0. -1.
         -2   -1    0    0    0  501 -0.00000000000E+00 -0.00000000000E+00 -0.23794510268E+03  0.23794510270E+03  0.25500000000E-02 0.  1.
    8880023    1    1    2    0    0 -0.47308374095E+03 -0.29010468031E+03  0.15212962778E+04  0.17481766280E+04  0.65864270000E+03 0. -1.
    8880022    1    1    2    0    0  0.47308374095E+03  0.29010468031E+03  0.54085147813E+03  0.78986133333E+03  0.15294330000E+03 0.  0.
<mgrwt>
<rscale>  0 0.77873661E+03</rscale>
<asrwt>0</asrwt>
<pdfrwt beam="1">  1        2 0.35386044E+00 0.86126602E+03</pdfrwt>
<pdfrwt beam="2">  1       -2 0.36606939E-01 0.86126602E+03</pdfrwt>
<totfact> 0.32608715E+01</totfact>
</mgrwt>
</event>
<event>
 4    5  0.2025789E-007  0.7730506E+03  0.7818608E-02  0.9772422E-01
          2   -1    0    0  501    0  0.00000000000E+00  0.00000000000E+00  0.10481436128E+04  0.10481436128E+04  0.25500000000E-02 0. -1.
         -2   -1    0    0    0  501 -0.00000000000E+00 -0.00000000000E+00 -0.35781841970E+03  0.35781841971E+03  0.25500000000E-02 0.  1.
    8880023    1    1    2    0    0 -0.40230308191E+03 -0.44149763906E+02  0.32075465940E+03  0.83695324192E+03  0.65864270000E+03 0.  0.
    8880022    1    1    2    0    0  0.40230308191E+03  0.44149763906E+02  0.36957053368E+03  0.56900879057E+03  0.15294330000E+03 0.  0.
<mgrwt>
<rscale>  0 0.66863770E+03</rscale>
<asrwt>0</asrwt>
<pdfrwt beam="1">  1        2 0.16125286E+00 0.77305057E+03</pdfrwt>
<pdfrwt beam="2">  1       -2 0.55048987E-01 0.77305057E+03</pdfrwt>
<totfact> 0.73792975E+01</totfact>
</mgrwt>
</event>
<event>
 4    5  0.2025789E-007  0.6825034E+03  0.7818608E-02  0.1007942E+00
          2   -1    0    0  501    0  0.00000000000E+00  0.00000000000E+00  0.18617271853E+04  0.18617271853E+04  0.25500000000E-02 0. -1.
         -2   -1    0    0    0  501 -0.00000000000E+00 -0.00000000000E+00 -0.61657885122E+03  0.61657885122E+03  0.25500000000E-02 0.  1.
    8880023    1    1    2    0    0  0.10771923987E+03  0.14281907922E+03  0.17732898929E+04  0.19000968329E+04  0.65864270000E+03 0. -1.
    8880022    1    1    2    0    0 -0.10771923987E+03 -0.14281907922E+03 -0.52814155878E+03  0.57820920362E+03  0.15294330000E+03 0.  0.
<mgrwt>
<rscale>  0 0.52300986E+03</rscale>
<asrwt>0</asrwt>
<pdfrwt beam="1">  1        2 0.28641956E+00 0.68250343E+03</pdfrwt>
<pdfrwt beam="2">  1       -2 0.94858286E-01 0.68250343E+03</pdfrwt>
<totfact> 0.77833727E+00</totfact>
</mgrwt>
</event>
<event>
 4    5  0.2025789E-007  0.8165143E+03  0.7818608E-02  0.9676164E-01
         -2   -1    0    0    0  501 -0.00000000000E+00  0.00000000000E+00  0.29471701884E+03  0.29471701885E+03  0.25500000000E-02 0.  1.
          2   -1    0    0  501    0  0.00000000000E+00 -0.00000000000E+00 -0.19289331439E+04  0.19289331439E+04  0.25500000000E-02 0. -1.
    8880023    1    1    2    0    0 -0.47936050978E+03 -0.55667039519E+02 -0.14870233682E+04  0.16964474708E+04  0.65864270000E+03 0.  0.
    8880022    1    1    2    0    0  0.47936050978E+03  0.55667039519E+02 -0.14719275686E+03  0.52720269187E+03  0.15294330000E+03 0.  0.
<mgrwt>
<rscale>  0 0.72453860E+03</rscale>
<asrwt>0</asrwt>
<pdfrwt beam="1">  1        2 0.29675894E+00 0.81651425E+03</pdfrwt>
<pdfrwt beam="2">  1       -2 0.45341081E-01 0.81651425E+03</pdfrwt>
<totfact> 0.34508123E+01</totfact>
</mgrwt>
</event>
<event>
 4    5  0.2025789E-007  0.7013627E+03  0.7818608E-02  0.9991595E-01
          2   -1    0    0  501    0  0.00000000000E+00  0.00000000000E+00  0.13465264077E+04  0.13465264077E+04  0.25500000000E-02 0. -1.
         -2   -1    0    0    0  501 -0.00000000000E+00 -0.00000000000E+00 -0.85520454266E+03  0.85520454266E+03  0.25500000000E-02 0.  1.
    8880023    1    1    2    0    0  0.65268987117E+02  0.23203302845E+03  0.12266119725E+04  0.14129708080E+04  0.65864270000E+03 0. -1.
    8880022    1    1    2    0    0 -0.65268987117E+02 -0.23203302845E+03 -0.73529010748E+03  0.78876014234E+03  0.15294330000E+03 0.  0.
<mgrwt>
<rscale>  0 0.56020334E+03</rscale>
<asrwt>0</asrwt>
<pdfrwt beam="1">  1        2 0.20715791E+00 0.70136265E+03</pdfrwt>
<pdfrwt beam="2">  1       -2 0.13156993E+00 0.70136265E+03</pdfrwt>
<totfact> 0.67393146E+00</totfact>
</mgrwt>
</event>
<event>
 4    5  0.2025789E-007  0.1502143E+04  0.7818608E-02  0.8908124E-01
         -2   -1    0    0    0  501 -0.00000000000E+00  0.00000000000E+00  0.59154405077E+03  0.59154405077E+03  0.25500000000E-02 0.  1.
          2   -1    0    0  501    0  0.00000000000E+00 -0.00000000000E+00 -0.42672947972E+04  0.42672947972E+04  0.25500000000E-02 0. -1.
    8880023    1    1    2    0    0 -0.24776786512E+03  0.13271151351E+04 -0.29689116452E+04  0.33272917005E+04  0.65864270000E+03 0.  0.
    8880022    1    1    2    0    0  0.24776786512E+03 -0.13271151351E+04 -0.70683910124E+03  0.15315471475E+04  0.15294330000E+03 0.  0.
<mgrwt>
<rscale>  0 0.14649165E+04</rscale>
<asrwt>0</asrwt>
<pdfrwt beam="1">  1        2 0.65650687E+00 0.15021430E+04</pdfrwt>
<pdfrwt beam="2">  1       -2 0.91006780E-01 0.15021430E+04</pdfrwt>
<totfact> 0.20417116E-01</totfact>
</mgrwt>
</event>
<event>
 4    5  0.2025789E-007  0.7940346E+03  0.7818608E-02  0.9723846E-01
         -2   -1    0    0    0  501 -0.00000000000E+00  0.00000000000E+00  0.73818532856E+03  0.73818532856E+03  0.25500000000E-02 0.  1.
          2   -1    0    0  501    0  0.00000000000E+00 -0.00000000000E+00 -0.14383622231E+04  0.14383622231E+04  0.25500000000E-02 0. -1.
    8880023    1    1    2    0    0  0.25569471372E+03  0.36235464597E+03 -0.12330524080E+04  0.14665978055E+04  0.65864270000E+03 0.  0.
    8880022    1    1    2    0    0 -0.25569471372E+03 -0.36235464597E+03  0.53287551349E+03  0.70994974609E+03  0.15294330000E+03 0.  0.
<mgrwt>
<rscale>  0 0.69614584E+03</rscale>
<asrwt>0</asrwt>
<pdfrwt beam="1">  1        2 0.22128650E+00 0.79403456E+03</pdfrwt>
<pdfrwt beam="2">  1       -2 0.11356697E+00 0.79403456E+03</pdfrwt>
<totfact> 0.85134659E+00</totfact>
</mgrwt>
</event>
<event>
 4    5  0.2025789E-007  0.8488849E+03  0.7818608E-02  0.9613649E-01
         -2   -1    0    0    0  501 -0.00000000000E+00  0.00000000000E+00  0.43400522513E+03  0.43400522514E+03  0.25500000000E-02 0.  1.
          2   -1    0    0  501    0  0.00000000000E+00 -0.00000000000E+00 -0.27248665139E+04  0.27248665139E+04  0.25500000000E-02 0. -1.
    8880023    1    1    2    0    0 -0.49373076497E+03  0.20742548504E+03 -0.24390488875E+04  0.25825501122E+04  0.65864270000E+03 0. -1.
    8880022    1    1    2    0    0  0.49373076497E+03 -0.20742548504E+03  0.14818759873E+03  0.57632162683E+03  0.15294330000E+03 0.  0.
<mgrwt>
<rscale>  0 0.76399334E+03</rscale>
<asrwt>0</asrwt>
<pdfrwt beam="1">  1        2 0.41921022E+00 0.84888492E+03</pdfrwt>
<pdfrwt beam="2">  1       -2 0.66770036E-01 0.84888492E+03</pdfrwt>
<totfact> 0.54919692E+00</totfact>
</mgrwt>
</event>
<event>
 4    5  0.2025789E-007  0.6687139E+03  0.7818608E-02  0.1016602E+00
         -2   -1    0    0    0  501 -0.00000000000E+00  0.00000000000E+00  0.35612578663E+03  0.35612578664E+03  0.25500000000E-02 0.  1.
          2   -1    0    0  501    0  0.00000000000E+00 -0.00000000000E+00 -0.79033554010E+03  0.79033554011E+03  0.25500000000E-02 0. -1.
    8880023    1    1    2    0    0  0.97860497679E+02 -0.61574711191E+02 -0.59586753582E+03  0.89567653121E+03  0.65864270000E+03 0. -1.
    8880022    1    1    2    0    0 -0.97860497679E+02  0.61574711191E+02  0.16165778235E+03  0.25078479554E+03  0.15294330000E+03 0.  0.
<mgrwt>
<rscale>  0 0.48933005E+03</rscale>
<asrwt>0</asrwt>
<pdfrwt beam="1">  1        2 0.12159008E+00 0.66871394E+03</pdfrwt>
<pdfrwt beam="2">  1       -2 0.54788583E-01 0.66871394E+03</pdfrwt>
<totfact> 0.11163117E+02</totfact>
</mgrwt>
</event>
<event>
 4    5  0.2025789E-007  0.1679922E+04  0.7818608E-02  0.8792039E-01
         -2   -1    0    0    0  501 -0.00000000000E+00  0.00000000000E+00  0.99492475705E+03  0.99492475706E+03  0.25500000000E-02 0.  1.
          2   -1    0    0  501    0  0.00000000000E+00 -0.00000000000E+00 -0.40115864315E+04  0.40115864315E+04  0.25500000000E-02 0. -1.
    8880023    1    1    2    0    0  0.43477638301E+03  0.14830026913E+04 -0.30174161803E+04  0.34535399371E+04  0.65864270000E+03 0.  0.
    8880022    1    1    2    0    0 -0.43477638301E+03 -0.14830026913E+04  0.75450586551E+00  0.15529712515E+04  0.15294330000E+03 0.  0.
<mgrwt>
<rscale>  0 0.16472430E+04</rscale>
<asrwt>0</asrwt>
<pdfrwt beam="1">  1        2 0.61716713E+00 0.16799219E+04</pdfrwt>
<pdfrwt beam="2">  1       -2 0.15306535E+00 0.16799219E+04</pdfrwt>
<totfact> 0.89183610E-02</totfact>
</mgrwt>
</event>
<event>
 4    5  0.2025789E-007  0.6623586E+03  0.7818608E-02  0.1021860E+00
          2   -1    0    0  501    0  0.00000000000E+00  0.00000000000E+00  0.21742034144E+04  0.21742034144E+04  0.25500000000E-02 0. -1.
         -2   -1    0    0    0  501 -0.00000000000E+00 -0.00000000000E+00 -0.69812770469E+03  0.69812770469E+03  0.25500000000E-02 0.  1.
    8880023    1    1    2    0    0  0.53237211335E+02 -0.45547109925E+02  0.21125746145E+04  0.22139761625E+04  0.65864270000E+03 0. -1.
    8880022    1    1    2    0    0 -0.53237211335E+02  0.45547109925E+02 -0.63649890487E+03  0.65835495654E+03  0.15294330000E+03 0.  0.
<mgrwt>
<rscale>  0 0.47021227E+03</rscale>
<asrwt>0</asrwt>
<pdfrwt beam="1">  1        2 0.33449282E+00 0.66235862E+03</pdfrwt>
<pdfrwt beam="2">  1       -2 0.10740427E+00 0.66235862E+03</pdfrwt>
<totfact> 0.39323617E+00</totfact>
</mgrwt>
</event>
<event>
 4    5  0.2025789E-007  0.7563086E+03  0.7818608E-02  0.9814760E-01
         -2   -1    0    0    0  501 -0.00000000000E+00  0.00000000000E+00  0.65581447484E+03  0.65581447484E+03  0.25500000000E-02 0.  1.
          2   -1    0    0  501    0  0.00000000000E+00 -0.00000000000E+00 -0.10946804394E+04  0.10946804394E+04  0.25500000000E-02 0. -1.
    8880023    1    1    2    0    0 -0.28027879400E+03 -0.24420537502E+03 -0.87554388553E+03  0.11569700814E+04  0.65864270000E+03 0. -1.
    8880022    1    1    2    0    0  0.28027879400E+03  0.24420537502E+03  0.43667792094E+03  0.59352483285E+03  0.15294330000E+03 0.  0.
<mgrwt>
<rscale>  0 0.64576441E+03</rscale>
<asrwt>0</asrwt>
<pdfrwt beam="1">  1        2 0.16841238E+00 0.75630858E+03</pdfrwt>
<pdfrwt beam="2">  1       -2 0.10089453E+00 0.75630858E+03</pdfrwt>
<totfact> 0.18055224E+01</totfact>
</mgrwt>
</event>
<event>
 4    5  0.2025789E-007  0.8892034E+03  0.7818608E-02  0.9543591E-01
          2   -1    0    0  501    0  0.00000000000E+00  0.00000000000E+00  0.15870934188E+04  0.15870934188E+04  0.25500000000E-02 0. -1.
         -2   -1    0    0    0  501 -0.00000000000E+00 -0.00000000000E+00 -0.51176997386E+03  0.51176997387E+03  0.25500000000E-02 0.  1.
    8880023    1    1    2    0    0 -0.58155897164E+03  0.13660759271E+03  0.35466144077E+02  0.88991040308E+03  0.65864270000E+03 0.  0.
    8880022    1    1    2    0    0  0.58155897164E+03 -0.13660759271E+03  0.10398573009E+04  0.12089529896E+04  0.15294330000E+03 0.  0.
<mgrwt>
<rscale>  0 0.81144951E+03</rscale>
<asrwt>0</asrwt>
<pdfrwt beam="1">  1        2 0.24416821E+00 0.88920340E+03</pdfrwt>
<pdfrwt beam="2">  1       -2 0.78733844E-01 0.88920340E+03</pdfrwt>
<totfact> 0.16394519E+01</totfact>
</mgrwt>
</event>
<event>
 4    5  0.2025789E-007  0.9314484E+03  0.7818608E-02  0.9477324E-01
          2   -1    0    0  501    0  0.00000000000E+00  0.00000000000E+00  0.84869234299E+03  0.84869234299E+03  0.25500000000E-02 0. -1.
         -2   -1    0    0    0  501 -0.00000000000E+00 -0.00000000000E+00 -0.16485927062E+04  0.16485927062E+04  0.25500000000E-02 0.  1.
    8880023    1    1    2    0    0  0.54251549749E+03  0.37344735428E+03  0.48142152541E+03  0.10485050705E+04  0.65864270000E+03 0. -1.
    8880022    1    1    2    0    0 -0.54251549749E+03 -0.37344735428E+03 -0.12813218886E+04  0.14487799787E+04  0.15294330000E+03 0.  0.
<mgrwt>
<rscale>  0 0.85976495E+03</rscale>
<asrwt>0</asrwt>
<pdfrwt beam="1">  1        2 0.13056805E+00 0.93144844E+03</pdfrwt>
<pdfrwt beam="2">  1       -2 0.25362965E+00 0.93144844E+03</pdfrwt>
<totfact> 0.19537445E+00</totfact>
</mgrwt>
</event>
<event>
 4    5  0.2025789E-007  0.8133582E+03  0.7818608E-02  0.9682624E-01
         -2   -1    0    0    0  501 -0.00000000000E+00  0.00000000000E+00  0.70709137946E+03  0.70709137947E+03  0.25500000000E-02 0.  1.
          2   -1    0    0  501    0  0.00000000000E+00 -0.00000000000E+00 -0.20254178573E+04  0.20254178573E+04  0.25500000000E-02 0. -1.
    8880023    1    1    2    0    0 -0.33491105212E+03  0.33996467298E+03 -0.18383961943E+04  0.20102865878E+04  0.65864270000E+03 0.  0.
    8880022    1    1    2    0    0  0.33491105212E+03 -0.33996467298E+03  0.52006971644E+03  0.72222264897E+03  0.15294330000E+03 0.  0.
<mgrwt>
<rscale>  0 0.72060850E+03</rscale>
<asrwt>0</asrwt>
<pdfrwt beam="1">  1        2 0.31160274E+00 0.81335822E+03</pdfrwt>
<pdfrwt beam="2">  1       -2 0.10878329E+00 0.81335822E+03</pdfrwt>
<totfact> 0.44798255E+00</totfact>
</mgrwt>
</event>
<event>
 4    5  0.2025789E-007  0.7673808E+03  0.7818608E-02  0.9786361E-01
         -2   -1    0    0    0  501 -0.00000000000E+00  0.00000000000E+00  0.33593563136E+03  0.33593563137E+03  0.25500000000E-02 0.  1.
          2   -1    0    0  501    0  0.00000000000E+00 -0.00000000000E+00 -0.35671705692E+04  0.35671705692E+04  0.25500000000E-02 0. -1.
    8880023    1    1    2    0    0 -0.38389032463E+03 -0.87699938266E+02 -0.33717022535E+04  0.34579255852E+04  0.65864270000E+03 0. -1.
    8880022    1    1    2    0    0  0.38389032463E+03  0.87699938266E+02  0.14046731563E+03  0.44518061536E+03  0.15294330000E+03 0.  0.
<mgrwt>
<rscale>  0 0.66099655E+03</rscale>
<asrwt>0</asrwt>
<pdfrwt beam="1">  1        2 0.54879545E+00 0.76738078E+03</pdfrwt>
<pdfrwt beam="2">  1       -2 0.51682407E-01 0.76738078E+03</pdfrwt>
<totfact> 0.27964120E+00</totfact>
</mgrwt>
</event>
<event>
 4    5  0.2025789E-007  0.1507897E+04  0.7818608E-02  0.8904080E-01
          2   -1    0    0  501    0  0.00000000000E+00  0.00000000000E+00  0.31123968628E+04  0.31123968628E+04  0.25500000000E-02 0. -1.
         -2   -1    0    0    0  501 -0.00000000000E+00 -0.00000000000E+00 -0.85892016510E+03  0.85892016510E+03  0.25500000000E-02 0.  1.
    8880023    1    1    2    0    0 -0.92261063976E+03 -0.99435031039E+03  0.21174866169E+04  0.25995197078E+04  0.65864270000E+03 0. -1.
    8880022    1    1    2    0    0  0.92261063976E+03  0.99435031039E+03  0.13599008084E+03  0.13717973201E+04  0.15294330000E+03 0.  0.
<mgrwt>
<rscale>  0 0.14708389E+04</rscale>
<asrwt>0</asrwt>
<pdfrwt beam="1">  1        2 0.47883028E+00 0.15078969E+04</pdfrwt>
<pdfrwt beam="2">  1       -2 0.13214156E+00 0.15078969E+04</pdfrwt>
<totfact> 0.58525374E-01</totfact>
</mgrwt>
</event>
<event>
 4    5  0.2025789E-007  0.8965187E+03  0.7818608E-02  0.9531643E-01
         -2   -1    0    0    0  501 -0.00000000000E+00  0.00000000000E+00  0.65914617192E+03  0.65914617192E+03  0.25500000000E-02 0.  1.
          2   -1    0    0  501    0  0.00000000000E+00 -0.00000000000E+00 -0.14467312045E+04  0.14467312045E+04  0.25500000000E-02 0. -1.
    8880023    1    1    2    0    0  0.40527237164E+03 -0.45353052306E+03 -0.10885789512E+04  0.14102304669E+04  0.65864270000E+03 0.  0.
    8880022    1    1    2    0    0 -0.40527237164E+03  0.45353052306E+03  0.30099391866E+03  0.69564690947E+03  0.15294330000E+03 0.  0.
<mgrwt>
<rscale>  0 0.81990547E+03</rscale>
<asrwt>0</asrwt>
<pdfrwt beam="1">  1        2 0.22257403E+00 0.89651873E+03</pdfrwt>
<pdfrwt beam="2">  1       -2 0.10140710E+00 0.89651873E+03</pdfrwt>
<totfact> 0.10935263E+01</totfact>
</mgrwt>
</event>
<event>
 4    5  0.2025789E-007  0.8542351E+03  0.7818608E-02  0.9603902E-01
          2   -1    0    0  501    0  0.00000000000E+00  0.00000000000E+00  0.67001027472E+03  0.67001027473E+03  0.25500000000E-02 0. -1.
         -2   -1    0    0    0  501 -0.00000000000E+00 -0.00000000000E+00 -0.11772175803E+04  0.11772175803E+04  0.25500000000E-02 0.  1.
    8880023    1    1    2    0    0 -0.38987937184E+03 -0.37934341973E+03  0.26133092981E+03  0.89331484697E+03  0.65864270000E+03 0. -1.
    8880022    1    1    2    0    0  0.38987937184E+03  0.37934341973E+03 -0.76853823537E+03  0.95391300805E+03  0.15294330000E+03 0.  0.
<mgrwt>
<rscale>  0 0.77038487E+03</rscale>
<asrwt>0</asrwt>
<pdfrwt beam="1">  1        2 0.10307850E+00 0.85423507E+03</pdfrwt>
<pdfrwt beam="2">  1       -2 0.18111040E+00 0.85423507E+03</pdfrwt>
<totfact> 0.77642382E+00</totfact>
</mgrwt>
</event>
<event>
 4    5  0.2025789E-007  0.6759572E+03  0.7818608E-02  0.1011710E+00
         -2   -1    0    0    0  501 -0.00000000000E+00  0.00000000000E+00  0.15608119705E+03  0.15608119707E+03  0.25500000000E-02 0.  1.
          2   -1    0    0  501    0  0.00000000000E+00 -0.00000000000E+00 -0.26175289407E+04  0.26175289407E+04  0.25500000000E-02 0. -1.
    8880023    1    1    2    0    0 -0.97174952450E+02  0.11689705285E+03 -0.24669706096E+04  0.25579018917E+04  0.65864270000E+03 0. -1.
    8880022    1    1    2    0    0  0.97174952450E+02 -0.11689705285E+03  0.55228660336E+01  0.21570824605E+03  0.15294330000E+03 0.  0.
<mgrwt>
<rscale>  0 0.50800791E+03</rscale>
<asrwt>0</asrwt>
<pdfrwt beam="1">  1        2 0.40269673E+00 0.67595717E+03</pdfrwt>
<pdfrwt beam="2">  1       -2 0.24012494E-01 0.67595717E+03</pdfrwt>
<totfact> 0.48348639E+01</totfact>
</mgrwt>
</event>
<event>
 4    5  0.2025789E-007  0.7417542E+03  0.7818608E-02  0.9854866E-01
         -2   -1    0    0    0  501 -0.00000000000E+00  0.00000000000E+00  0.36354239972E+03  0.36354239973E+03  0.25500000000E-02 0.  1.
          2   -1    0    0  501    0  0.00000000000E+00 -0.00000000000E+00 -0.12956356218E+04  0.12956356218E+04  0.25500000000E-02 0. -1.
    8880023    1    1    2    0    0 -0.15108866241E+02  0.34082380911E+03 -0.10331872709E+04  0.12718786458E+04  0.65864270000E+03 0. -1.
    8880022    1    1    2    0    0  0.15108866241E+02 -0.34082380911E+03  0.10109404883E+03  0.38729937570E+03  0.15294330000E+03 0.  0.
<mgrwt>
<rscale>  0 0.62499417E+03</rscale>
<asrwt>0</asrwt>
<pdfrwt beam="1">  1        2 0.19932856E+00 0.74175424E+03</pdfrwt>
<pdfrwt beam="2">  1       -2 0.55929600E-01 0.74175424E+03</pdfrwt>
<totfact> 0.50905011E+01</totfact>
</mgrwt>
</event>
<event>
 4    5  0.2025789E-007  0.7117178E+03  0.7818608E-02  0.9951677E-01
         -2   -1    0    0    0  501 -0.00000000000E+00  0.00000000000E+00  0.19096198434E+03  0.19096198436E+03  0.25500000000E-02 0.  1.
          2   -1    0    0  501    0  0.00000000000E+00 -0.00000000000E+00 -0.22404636931E+04  0.22404636931E+04  0.25500000000E-02 0. -1.
    8880023    1    1    2    0    0  0.17929137344E+03 -0.20146122833E+03 -0.19930168462E+04  0.21162840969E+04  0.65864270000E+03 0. -1.
    8880022    1    1    2    0    0 -0.17929137344E+03  0.20146122833E+03 -0.56484862560E+02  0.31514158061E+03  0.15294330000E+03 0.  0.
<mgrwt>
<rscale>  0 0.57820876E+03</rscale>
<asrwt>0</asrwt>
<pdfrwt beam="1">  1        2 0.34468670E+00 0.71171780E+03</pdfrwt>
<pdfrwt beam="2">  1       -2 0.29378768E-01 0.71171780E+03</pdfrwt>
<totfact> 0.54278082E+01</totfact>
</mgrwt>
</event>
<event>
 4    5  0.2025789E-007  0.6920638E+03  0.7818608E-02  0.1003187E+00
          2   -1    0    0  501    0  0.00000000000E+00  0.00000000000E+00  0.14173966455E+04  0.14173966455E+04  0.25500000000E-02 0. -1.
         -2   -1    0    0    0  501 -0.00000000000E+00 -0.00000000000E+00 -0.33219097897E+03  0.33219097898E+03  0.25500000000E-02 0.  1.
    8880023    1    1    2    0    0 -0.18731862529E+03 -0.10026892054E+03  0.12580805998E+04  0.14358687704E+04  0.65864270000E+03 0. -1.
    8880022    1    1    2    0    0  0.18731862529E+03  0.10026892054E+03 -0.17287493334E+03  0.31371885407E+03  0.15294330000E+03 0.  0.
<mgrwt>
<rscale>  0 0.54274733E+03</rscale>
<asrwt>0</asrwt>
<pdfrwt beam="1">  1        2 0.21806102E+00 0.69206382E+03</pdfrwt>
<pdfrwt beam="2">  1       -2 0.51106304E-01 0.69206382E+03</pdfrwt>
<totfact> 0.52536086E+01</totfact>
</mgrwt>
</event>
<event>
 4    5  0.2547594E-007  0.1074515E+04  0.7818608E-02  0.9289976E-01
          2   -1    0    0  501    0  0.00000000000E+00  0.00000000000E+00  0.28952971431E+04  0.28952971431E+04  0.25500000000E-02 0. -1.
         -2   -1    0    0    0  501 -0.00000000000E+00 -0.00000000000E+00 -0.10794102837E+04  0.10794102837E+04  0.25500000000E-02 0.  1.
    8880023    1    1    2    0    0 -0.81104972022E+03 -0.25093867291E+03  0.25972811676E+04  0.28107741880E+04  0.65864270000E+03 0. -1.
    8880022    1    1    2    0    0  0.81104972022E+03  0.25093867291E+03 -0.78139430825E+03  0.11639332387E+04  0.15294330000E+03 0.  0.
<mgrwt>
<rscale>  0 0.10171098E+04</rscale>
<asrwt>0</asrwt>
<pdfrwt beam="1">  1        2 0.44543033E+00 0.10745148E+04</pdfrwt>
<pdfrwt beam="2">  1       -2 0.16606312E+00 0.10745148E+04</pdfrwt>
<totfact> 0.46060097E-01</totfact>
</mgrwt>
</event>
<event>
 4    5  0.2025789E-007  0.8813397E+03  0.7818608E-02  0.9556677E-01
          2   -1    0    0  501    0  0.00000000000E+00  0.00000000000E+00  0.51770015712E+03  0.51770015712E+03  0.25500000000E-02 0. -1.
         -2   -1    0    0    0  501 -0.00000000000E+00 -0.00000000000E+00 -0.14186927699E+04  0.14186927699E+04  0.25500000000E-02 0.  1.
    8880023    1    1    2    0    0 -0.26242335338E+03 -0.52352975963E+03 -0.37808701736E+02  0.88215028754E+03  0.65864270000E+03 0. -1.
    8880022    1    1    2    0    0  0.26242335338E+03  0.52352975963E+03 -0.86318391104E+03  0.10542426395E+04  0.15294330000E+03 0.  0.
<mgrwt>
<rscale>  0 0.80231183E+03</rscale>
<asrwt>0</asrwt>
<pdfrwt beam="1">  1        2 0.79646179E-01 0.88133968E+03</pdfrwt>
<pdfrwt beam="2">  1       -2 0.21826042E+00 0.88133968E+03</pdfrwt>
<totfact> 0.60414341E+00</totfact>
</mgrwt>
</event>
<event>
 4    5  0.2025789E-007  0.7697523E+03  0.7818608E-02  0.9780484E-01
          2   -1    0    0  501    0  0.00000000000E+00  0.00000000000E+00  0.10901043203E+04  0.10901043203E+04  0.25500000000E-02 0. -1.
         -2   -1    0    0    0  501 -0.00000000000E+00 -0.00000000000E+00 -0.56456817134E+03  0.56456817134E+03  0.25500000000E-02 0.  1.
    8880023    1    1    2    0    0  0.14186220144E+03 -0.37226802369E+03  0.82882932452E+03  0.11311395233E+04  0.65864270000E+03 0. -1.
    8880022    1    1    2    0    0 -0.14186220144E+03  0.37226802369E+03 -0.30329317553E+03  0.52353296840E+03  0.15294330000E+03 0.  0.
<mgrwt>
<rscale>  0 0.66420476E+03</rscale>
<asrwt>0</asrwt>
<pdfrwt beam="1">  1        2 0.16770836E+00 0.76975228E+03</pdfrwt>
<pdfrwt beam="2">  1       -2 0.86856642E-01 0.76975228E+03</pdfrwt>
<totfact> 0.25729378E+01</totfact>
</mgrwt>
</event>
<event>
 4    5  0.2025789E-007  0.7163065E+03  0.7818608E-02  0.9935288E-01
          2   -1    0    0  501    0  0.00000000000E+00  0.00000000000E+00  0.23296582127E+04  0.23296582127E+04  0.25500000000E-02 0. -1.
         -2   -1    0    0    0  501 -0.00000000000E+00 -0.00000000000E+00 -0.11973094328E+03  0.11973094331E+03  0.25500000000E-02 0.  1.
    8880023    1    1    2    0    0 -0.26040352055E+03 -0.10712050100E+03  0.12940234962E+04  0.14790509830E+04  0.65864270000E+03 0.  0.
    8880022    1    1    2    0    0  0.26040352055E+03  0.10712050100E+03  0.91590377321E+03  0.97033817304E+03  0.15294330000E+03 0.  0.
<mgrwt>
<rscale>  0 0.58581168E+03</rscale>
<asrwt>0</asrwt>
<pdfrwt beam="1">  1        2 0.35840894E+00 0.71630650E+03</pdfrwt>
<pdfrwt beam="2">  1       -2 0.18420146E-01 0.71630650E+03</pdfrwt>
<totfact> 0.11145389E+02</totfact>
</mgrwt>
</event>
<event>
 4    5  0.2025789E-007  0.7296664E+03  0.7818608E-02  0.9891140E-01
          2   -1    0    0  501    0  0.00000000000E+00  0.00000000000E+00  0.53838356237E+03  0.53838356237E+03  0.25500000000E-02 0. -1.
         -2   -1    0    0    0  501 -0.00000000000E+00 -0.00000000000E+00 -0.16085091172E+04  0.16085091172E+04  0.25500000000E-02 0.  1.
    8880023    1    1    2    0    0 -0.24706253782E+03 -0.19381148274E+03  0.25774741086E+03  0.77385187375E+03  0.65864270000E+03 0.  0.
    8880022    1    1    2    0    0  0.24706253782E+03  0.19381148274E+03 -0.13278729657E+04  0.13730408059E+04  0.15294330000E+03 0.  0.
<mgrwt>
<rscale>  0 0.60692601E+03</rscale>
<asrwt>0</asrwt>
<pdfrwt beam="1">  1        2 0.82828241E-01 0.72966636E+03</pdfrwt>
<pdfrwt beam="2">  1       -2 0.24746294E+00 0.72966636E+03</pdfrwt>
<totfact> 0.38807109E+00</totfact>
</mgrwt>
</event>
<event>
 4    5  0.2025789E-007  0.9943443E+03  0.7818608E-02  0.9388995E-01
         -2   -1    0    0    0  501 -0.00000000000E+00  0.00000000000E+00  0.68062991309E+03  0.68062991309E+03  0.25500000000E-02 0.  1.
          2   -1    0    0  501    0  0.00000000000E+00 -0.00000000000E+00 -0.29982816491E+04  0.29982816491E+04  0.25500000000E-02 0. -1.
    8880023    1    1    2    0    0  0.61369201899E+03 -0.42224695235E+03 -0.26638302865E+04  0.28433628654E+04  0.65864270000E+03 0. -1.
    8880022    1    1    2    0    0 -0.61369201899E+03  0.42224695235E+03  0.34617855044E+03  0.83554869681E+03  0.15294330000E+03 0.  0.
<mgrwt>
<rscale>  0 0.92986935E+03</rscale>
<asrwt>0</asrwt>
<pdfrwt beam="1">  1        2 0.46127409E+00 0.99434430E+03</pdfrwt>
<pdfrwt beam="2">  1       -2 0.10471230E+00 0.99434430E+03</pdfrwt>
<totfact> 0.13174932E+00</totfact>
</mgrwt>
</event>
<event>
 4    5  0.2025789E-007  0.7632757E+03  0.7818608E-02  0.9796700E-01
         -2   -1    0    0    0  501 -0.00000000000E+00  0.00000000000E+00  0.10281837082E+04  0.10281837082E+04  0.25500000000E-02 0.  1.
          2   -1    0    0  501    0  0.00000000000E+00 -0.00000000000E+00 -0.75314265402E+03  0.75314265402E+03  0.25500000000E-02 0. -1.
    8880023    1    1    2    0    0 -0.36754786345E+03  0.11699610359E+03 -0.49280330680E+03  0.90853994168E+03  0.65864270000E+03 0. -1.
    8880022    1    1    2    0    0  0.36754786345E+03 -0.11699610359E+03  0.76784436100E+03  0.87278642056E+03  0.15294330000E+03 0.  0.
<mgrwt>
<rscale>  0 0.65539951E+03</rscale>
<asrwt>0</asrwt>
<pdfrwt beam="1">  1        2 0.11586810E+00 0.76327566E+03</pdfrwt>
<pdfrwt beam="2">  1       -2 0.15818211E+00 0.76327566E+03</pdfrwt>
<totfact> 0.98354416E+00</totfact>
</mgrwt>
</event>
<event>
 4    5  0.2025789E-007  0.7626371E+03  0.7818608E-02  0.9798328E-01
         -2   -1    0    0    0  501 -0.00000000000E+00  0.00000000000E+00  0.38093598245E+03  0.38093598245E+03  0.25500000000E-02 0.  1.
          2   -1    0    0  501    0  0.00000000000E+00 -0.00000000000E+00 -0.16068481575E+04  0.16068481575E+04  0.25500000000E-02 0. -1.
    8880023    1    1    2    0    0  0.37057295937E+03 -0.10237586724E+03 -0.13545543279E+04  0.15544879446E+04  0.65864270000E+03 0.  0.
    8880022    1    1    2    0    0 -0.37057295937E+03  0.10237586724E+03  0.12864215285E+03  0.43329619536E+03  0.15294330000E+03 0.  0.
<mgrwt>
<rscale>  0 0.65452373E+03</rscale>
<asrwt>0</asrwt>
<pdfrwt beam="1">  1        2 0.24720740E+00 0.76263710E+03</pdfrwt>
<pdfrwt beam="2">  1       -2 0.58605537E-01 0.76263710E+03</pdfrwt>
<totfact> 0.30794452E+01</totfact>
</mgrwt>
</event>
<event>
 4    5  0.2025789E-007  0.6818919E+03  0.7818608E-02  0.1008273E+00
         -2   -1    0    0    0  501 -0.00000000000E+00  0.00000000000E+00  0.31141574755E+03  0.31141574756E+03  0.25500000000E-02 0.  1.
          2   -1    0    0  501    0  0.00000000000E+00 -0.00000000000E+00 -0.71717360808E+03  0.71717360808E+03  0.25500000000E-02 0. -1.
    8880023    1    1    2    0    0  0.14544923986E+03 -0.10005423765E+03 -0.40870446530E+03  0.79499426292E+03  0.65864270000E+03 0. -1.
    8880022    1    1    2    0    0 -0.14544923986E+03  0.10005423765E+03  0.29466047691E+01  0.23359509272E+03  0.15294330000E+03 0.  1.
<mgrwt>
<rscale>  0 0.52166768E+03</rscale>
<asrwt>0</asrwt>
<pdfrwt beam="1">  1        2 0.11033440E+00 0.68189188E+03</pdfrwt>
<pdfrwt beam="2">  1       -2 0.47910115E-01 0.68189188E+03</pdfrwt>
<totfact> 0.16629235E+02</totfact>
</mgrwt>
</event>
<event>
 4    5  0.2025789E-007  0.7180507E+03  0.7818608E-02  0.9929238E-01
         -2   -1    0    0    0  501 -0.00000000000E+00  0.00000000000E+00  0.12912349715E+03  0.12912349717E+03  0.25500000000E-02 0.  1.
          2   -1    0    0  501    0  0.00000000000E+00 -0.00000000000E+00 -0.29409697581E+04  0.29409697582E+04  0.25500000000E-02 0. -1.
    8880023    1    1    2    0    0 -0.79443301997E+02  0.27472770547E+03 -0.25619431558E+04  0.26606671138E+04  0.65864270000E+03 0.  0.
    8880022    1    1    2    0    0  0.79443301997E+02 -0.27472770547E+03 -0.24990310517E+03  0.40942614154E+03  0.15294330000E+03 0.  0.
<mgrwt>
<rscale>  0 0.58864985E+03</rscale>
<asrwt>0</asrwt>
<pdfrwt beam="1">  1        2 0.45245684E+00 0.71805066E+03</pdfrwt>
<pdfrwt beam="2">  1       -2 0.19865156E-01 0.71805066E+03</pdfrwt>
<totfact> 0.43343822E+01</totfact>
</mgrwt>
</event>
<event>
 4    5  0.2025789E-007  0.8347909E+03  0.7818608E-02  0.9640082E-01
         -2   -1    0    0    0  501 -0.00000000000E+00  0.00000000000E+00  0.22546690458E+03  0.22546690459E+03  0.25500000000E-02 0.  1.
          2   -1    0    0  501    0  0.00000000000E+00 -0.00000000000E+00 -0.31108964604E+04  0.31108964604E+04  0.25500000000E-02 0. -1.
    8880023    1    1    2    0    0 -0.41826817418E+03 -0.29684561186E+03 -0.25980536721E+04  0.27288749829E+04  0.65864270000E+03 0.  0.
    8880022    1    1    2    0    0  0.41826817418E+03  0.29684561186E+03 -0.28737588369E+03  0.60748838208E+03  0.15294330000E+03 0.  0.
<mgrwt>
<rscale>  0 0.74699164E+03</rscale>
<asrwt>0</asrwt>
<pdfrwt beam="1">  1        2 0.47859942E+00 0.83479087E+03</pdfrwt>
<pdfrwt beam="2">  1       -2 0.34687218E-01 0.83479087E+03</pdfrwt>
<totfact> 0.12121619E+01</totfact>
</mgrwt>
</event>
<event>
 4    5  0.2025789E-007  0.7041494E+03  0.7818608E-02  0.9980405E-01
         -2   -1    0    0    0  501 -0.00000000000E+00  0.00000000000E+00  0.19651688211E+03  0.19651688213E+03  0.25500000000E-02 0.  1.
          2   -1    0    0  501    0  0.00000000000E+00 -0.00000000000E+00 -0.27719786457E+04  0.27719786457E+04  0.25500000000E-02 0. -1.
    8880023    1    1    2    0    0 -0.24409610713E+03 -0.49327437303E+02 -0.25818806427E+04  0.26761789860E+04  0.65864270000E+03 0. -1.
    8880022    1    1    2    0    0  0.24409610713E+03  0.49327437303E+02  0.64188791653E+01  0.29231654180E+03  0.15294330000E+03 0.  0.
<mgrwt>
<rscale>  0 0.56517866E+03</rscale>
<asrwt>0</asrwt>
<pdfrwt beam="1">  1        2 0.42645823E+00 0.70414935E+03</pdfrwt>
<pdfrwt beam="2">  1       -2 0.30233368E-01 0.70414935E+03</pdfrwt>
<totfact> 0.25729123E+01</totfact>
</mgrwt>
</event>
<event>
 4    5  0.2025789E-007  0.7106592E+03  0.7818608E-02  0.9955561E-01
          2   -1    0    0  501    0  0.00000000000E+00  0.00000000000E+00  0.20899781978E+04  0.20899781978E+04  0.25500000000E-02 0. -1.
         -2   -1    0    0    0  501 -0.00000000000E+00 -0.00000000000E+00 -0.17200168622E+03  0.17200168624E+03  0.25500000000E-02 0.  1.
    8880023    1    1    2    0    0  0.34838361774E+02 -0.26459882412E+03  0.17952648417E+04  0.19308061289E+04  0.65864270000E+03 0.  0.
    8880022    1    1    2    0    0 -0.34838361774E+02  0.26459882412E+03  0.12271166988E+03  0.33117375517E+03  0.15294330000E+03 0.  0.
<mgrwt>
<rscale>  0 0.57642484E+03</rscale>
<asrwt>0</asrwt>
<pdfrwt beam="1">  1        2 0.32153511E+00 0.71065917E+03</pdfrwt>
<pdfrwt beam="2">  1       -2 0.26461797E-01 0.71065917E+03</pdfrwt>
<totfact> 0.79537754E+01</totfact>
</mgrwt>
</event>
<event>
 4    5  0.2025789E-007  0.7642700E+03  0.7818608E-02  0.9794176E-01
          2   -1    0    0  501    0  0.00000000000E+00  0.00000000000E+00  0.97312482817E+03  0.97312482817E+03  0.25500000000E-02 0. -1.
         -2   -1    0    0    0  501 -0.00000000000E+00 -0.00000000000E+00 -0.14745599600E+04  0.14745599600E+04  0.25500000000E-02 0.  1.
    8880023    1    1    2    0    0 -0.37567797793E+03  0.95731597680E+02  0.78489685649E+03  0.10955235112E+04  0.65864270000E+03 0. -1.
    8880022    1    1    2    0    0  0.37567797793E+03 -0.95731597680E+02 -0.12863319883E+04  0.13521612770E+04  0.15294330000E+03 0.  0.
<mgrwt>
<rscale>  0 0.65676049E+03</rscale>
<asrwt>0</asrwt>
<pdfrwt beam="1">  1        2 0.14971151E+00 0.76427004E+03</pdfrwt>
<pdfrwt beam="2">  1       -2 0.22685538E+00 0.76427004E+03</pdfrwt>
<totfact> 0.24076754E+00</totfact>
</mgrwt>
</event>
<event>
 4    5  0.2025789E-007  0.7625511E+03  0.7818608E-02  0.9798547E-01
          2   -1    0    0  501    0  0.00000000000E+00  0.00000000000E+00  0.19295537845E+04  0.19295537845E+04  0.25500000000E-02 0. -1.
         -2   -1    0    0    0  501 -0.00000000000E+00 -0.00000000000E+00 -0.28382359823E+03  0.28382359824E+03  0.25500000000E-02 0.  1.
    8880023    1    1    2    0    0 -0.46625388403E+02 -0.38144458683E+03  0.16299153620E+04  0.17994744214E+04  0.65864270000E+03 0. -1.
    8880022    1    1    2    0    0  0.46625388403E+02  0.38144458683E+03  0.15814824180E+02  0.41390296127E+03  0.15294330000E+03 0.  0.
<mgrwt>
<rscale>  0 0.65440561E+03</rscale>
<asrwt>0</asrwt>
<pdfrwt beam="1">  1        2 0.29685443E+00 0.76255105E+03</pdfrwt>
<pdfrwt beam="2">  1       -2 0.43665169E-01 0.76255105E+03</pdfrwt>
<totfact> 0.37404065E+01</totfact>
</mgrwt>
</event>
<event>
 4    5  0.2025789E-007  0.7782865E+03  0.7818608E-02  0.9759877E-01
          2   -1    0    0  501    0  0.00000000000E+00  0.00000000000E+00  0.38433982674E+04  0.38433982674E+04  0.25500000000E-02 0. -1.
         -2   -1    0    0    0  501 -0.00000000000E+00 -0.00000000000E+00 -0.45644193214E+03  0.45644193215E+03  0.25500000000E-02 0.  1.
    8880023    1    1    2    0    0 -0.17092051602E+00  0.41463196950E+03  0.36853245870E+04  0.37666095122E+04  0.65864270000E+03 0. -1.
    8880022    1    1    2    0    0  0.17092051602E+00 -0.41463196950E+03 -0.29836825172E+03  0.53323068741E+03  0.15294330000E+03 0.  0.
<mgrwt>
<rscale>  0 0.67560922E+03</rscale>
<asrwt>0</asrwt>
<pdfrwt beam="1">  1        2 0.59129202E+00 0.77828652E+03</pdfrwt>
<pdfrwt beam="2">  1       -2 0.70221839E-01 0.77828652E+03</pdfrwt>
<totfact> 0.92152055E-01</totfact>
</mgrwt>
</event>
<event>
 4    5  0.2025789E-007  0.9011235E+03  0.7818608E-02  0.9524230E-01
          2   -1    0    0  501    0  0.00000000000E+00  0.00000000000E+00  0.15038434316E+04  0.15038434316E+04  0.25500000000E-02 0. -1.
         -2   -1    0    0    0  501 -0.00000000000E+00 -0.00000000000E+00 -0.92140439419E+03  0.92140439419E+03  0.25500000000E-02 0.  1.
    8880023    1    1    2    0    0 -0.11335175884E+03 -0.60445408570E+03  0.12263290671E+04  0.15218102871E+04  0.65864270000E+03 0. -1.
    8880022    1    1    2    0    0  0.11335175884E+03  0.60445408570E+03 -0.64389002967E+03  0.90343753867E+03  0.15294330000E+03 0.  0.
<mgrwt>
<rscale>  0 0.82520743E+03</rscale>
<asrwt>0</asrwt>
<pdfrwt beam="1">  1        2 0.23136053E+00 0.90112350E+03</pdfrwt>
<pdfrwt beam="2">  1       -2 0.14175452E+00 0.90112350E+03</pdfrwt>
<totfact> 0.44125522E+00</totfact>
</mgrwt>
</event>
<event>
 4    5  0.2025789E-007  0.6652409E+03  0.7818608E-02  0.1019332E+00
         -2   -1    0    0    0  501 -0.00000000000E+00  0.00000000000E+00  0.40693771685E+03  0.40693771686E+03  0.25500000000E-02 0.  1.
          2   -1    0    0  501    0  0.00000000000E+00 -0.00000000000E+00 -0.44697428054E+03  0.44697428055E+03  0.25500000000E-02 0. -1.
    8880023    1    1    2    0    0 -0.76372009182E+02 -0.53876021559E+02 -0.80698336556E+02  0.67011770404E+03  0.65864270000E+03 0. -1.
    8880022    1    1    2    0    0  0.76372009182E+02  0.53876021559E+02  0.40661772865E+02  0.18379429336E+03  0.15294330000E+03 0.  1.
<mgrwt>
<rscale>  0 0.47928401E+03</rscale>
<asrwt>0</asrwt>
<pdfrwt beam="1">  1        2 0.68765274E-01 0.66524095E+03</pdfrwt>
<pdfrwt beam="2">  1       -2 0.62605802E-01 0.66524095E+03</pdfrwt>
<totfact> 0.16809121E+02</totfact>
</mgrwt>
</event>
<event>
 4    5  0.2025789E-007  0.7216793E+03  0.7818608E-02  0.9916944E-01
         -2   -1    0    0    0  501 -0.00000000000E+00  0.00000000000E+00  0.57915387967E+03  0.57915387968E+03  0.25500000000E-02 0.  1.
          2   -1    0    0  501    0  0.00000000000E+00 -0.00000000000E+00 -0.23986141982E+04  0.23986141982E+04  0.25500000000E-02 0. -1.
    8880023    1    1    2    0    0  0.20101620726E+03 -0.21587792157E+03 -0.22904029608E+04  0.24014093199E+04  0.65864270000E+03 0. -1.
    8880022    1    1    2    0    0 -0.20101620726E+03  0.21587792157E+03  0.47094264226E+03  0.57635875799E+03  0.15294330000E+03 0.  0.
<mgrwt>
<rscale>  0 0.59447079E+03</rscale>
<asrwt>0</asrwt>
<pdfrwt beam="1">  1        2 0.36901756E+00 0.72167929E+03</pdfrwt>
<pdfrwt beam="2">  1       -2 0.89100598E-01 0.72167929E+03</pdfrwt>
<totfact> 0.45329868E+00</totfact>
</mgrwt>
</event>
<event>
 4    5  0.2025789E-007  0.7456347E+03  0.7818608E-02  0.9843827E-01
          2   -1    0    0  501    0  0.00000000000E+00  0.00000000000E+00  0.36056824992E+03  0.36056824993E+03  0.25500000000E-02 0. -1.
         -2   -1    0    0    0  501 -0.00000000000E+00 -0.00000000000E+00 -0.10104555147E+04  0.10104555147E+04  0.25500000000E-02 0.  1.
    8880023    1    1    2    0    0 -0.28703087497E+03 -0.19943473015E+03 -0.65050621283E+03  0.98950971393E+03  0.65864270000E+03 0.  1.
    8880022    1    1    2    0    0  0.28703087497E+03  0.19943473015E+03  0.61894804641E+00  0.38151405071E+03  0.15294330000E+03 0.  0.
<mgrwt>
<rscale>  0 0.63062631E+03</rscale>
<asrwt>0</asrwt>
<pdfrwt beam="1">  1        2 0.55472039E-01 0.74563472E+03</pdfrwt>
<pdfrwt beam="2">  1       -2 0.15545469E+00 0.74563472E+03</pdfrwt>
<totfact> 0.24665246E+01</totfact>
</mgrwt>
</event>
<event>
 4    5  0.2025789E-007  0.6832542E+03  0.7818608E-02  0.1007540E+00
          2   -1    0    0  501    0  0.00000000000E+00  0.00000000000E+00  0.15215915924E+04  0.15215915924E+04  0.25500000000E-02 0. -1.
         -2   -1    0    0    0  501 -0.00000000000E+00 -0.00000000000E+00 -0.10117420430E+04  0.10117420430E+04  0.25500000000E-02 0.  1.
    8880023    1    1    2    0    0 -0.11205541935E+03 -0.14307204840E+03  0.14290242904E+04  0.15839654848E+04  0.65864270000E+03 0. -1.
    8880022    1    1    2    0    0  0.11205541935E+03  0.14307204840E+03 -0.91917474103E+03  0.94936815072E+03  0.15294330000E+03 0.  0.
<mgrwt>
<rscale>  0 0.52464267E+03</rscale>
<asrwt>0</asrwt>
<pdfrwt beam="1">  1        2 0.23409102E+00 0.68325415E+03</pdfrwt>
<pdfrwt beam="2">  1       -2 0.15565262E+00 0.68325415E+03</pdfrwt>
<totfact> 0.34810634E+00</totfact>
</mgrwt>
</event>
<event>
 4    5  0.2025789E-007  0.1055195E+04  0.7818608E-02  0.9312662E-01
          2   -1    0    0  501    0  0.00000000000E+00  0.00000000000E+00  0.32597404079E+04  0.32597404079E+04  0.25500000000E-02 0. -1.
         -2   -1    0    0    0  501 -0.00000000000E+00 -0.00000000000E+00 -0.56859703354E+03  0.56859703354E+03  0.25500000000E-02 0.  1.
    8880023    1    1    2    0    0  0.75263335057E+03  0.33640641138E+03  0.27911341222E+04  0.29839346723E+04  0.65864270000E+03 0. -1.
    8880022    1    1    2    0    0 -0.75263335057E+03 -0.33640641138E+03 -0.99990747781E+02  0.84440276922E+03  0.15294330000E+03 0.  0.
<mgrwt>
<rscale>  0 0.99625459E+03</rscale>
<asrwt>0</asrwt>
<pdfrwt beam="1">  1        2 0.50149852E+00 0.10551950E+04</pdfrwt>
<pdfrwt beam="2">  1       -2 0.87476468E-01 0.10551950E+04</pdfrwt>
<totfact> 0.13611318E+00</totfact>
</mgrwt>
</event>
<event>
 4    5  0.2025789E-007  0.1245224E+04  0.7818608E-02  0.9114368E-01
         -2   -1    0    0    0  501 -0.00000000000E+00  0.00000000000E+00  0.38148187899E+03  0.38148187900E+03  0.25500000000E-02 0.  1.
          2   -1    0    0  501    0  0.00000000000E+00 -0.00000000000E+00 -0.38802518964E+04  0.38802518964E+04  0.25500000000E-02 0. -1.
    8880023    1    1    2    0    0  0.58376053777E+03  0.88090659238E+03 -0.25305928321E+04  0.28203693159E+04  0.65864270000E+03 0.  0.
    8880022    1    1    2    0    0 -0.58376053777E+03 -0.88090659238E+03 -0.96817718535E+03  0.14413644595E+04  0.15294330000E+03 0.  0.
<mgrwt>
<rscale>  0 0.11982752E+04</rscale>
<asrwt>0</asrwt>
<pdfrwt beam="1">  1        2 0.59696180E+00 0.12452241E+04</pdfrwt>
<pdfrwt beam="2">  1       -2 0.58689523E-01 0.12452241E+04</pdfrwt>
<totfact> 0.11671645E+00</totfact>
</mgrwt>
</event>
<event>
 4    5  0.2025789E-007  0.1361134E+04  0.7818608E-02  0.9014486E-01
          2   -1    0    0  501    0  0.00000000000E+00  0.00000000000E+00  0.16261897172E+04  0.16261897172E+04  0.25500000000E-02 0. -1.
         -2   -1    0    0    0  501 -0.00000000000E+00 -0.00000000000E+00 -0.15133234580E+04  0.15133234580E+04  0.25500000000E-02 0.  1.
    8880023    1    1    2    0    0 -0.15366442990E+03  0.11812126554E+04  0.96366730384E+03  0.16677352827E+04  0.65864270000E+03 0.  0.
    8880022    1    1    2    0    0  0.15366442990E+03 -0.11812126554E+04 -0.85080104468E+03  0.14717778925E+04  0.15294330000E+03 0.  0.
<mgrwt>
<rscale>  0 0.13191873E+04</rscale>
<asrwt>0</asrwt>
<pdfrwt beam="1">  1        2 0.25018303E+00 0.13611342E+04</pdfrwt>
<pdfrwt beam="2">  1       -2 0.23281899E+00 0.13611342E+04</pdfrwt>
<totfact> 0.84365825E-01</totfact>
</mgrwt>
</event>
<event>
 4    5  0.2025789E-007  0.1285025E+04  0.7818608E-02  0.9078600E-01
          2   -1    0    0  501    0  0.00000000000E+00  0.00000000000E+00  0.16517410883E+04  0.16517410883E+04  0.25500000000E-02 0. -1.
         -2   -1    0    0    0  501 -0.00000000000E+00 -0.00000000000E+00 -0.20801650333E+04  0.20801650333E+04  0.25500000000E-02 0.  1.
    8880023    1    1    2    0    0  0.91688039562E+03 -0.61384888915E+03  0.12004794762E+04  0.17585338488E+04  0.65864270000E+03 0.  0.
    8880022    1    1    2    0    0 -0.91688039562E+03  0.61384888915E+03 -0.16289034211E+04  0.19733722728E+04  0.15294330000E+03 0.  0.
<mgrwt>
<rscale>  0 0.12399371E+04</rscale>
<asrwt>0</asrwt>
<pdfrwt beam="1">  1        2 0.25411401E+00 0.12850254E+04</pdfrwt>
<pdfrwt beam="2">  1       -2 0.32002539E+00 0.12850254E+04</pdfrwt>
<totfact> 0.24118773E-01</totfact>
</mgrwt>
</event>
<event>
 4    5  0.2025789E-007  0.8190222E+03  0.7818608E-02  0.9671082E-01
         -2   -1    0    0    0  501 -0.00000000000E+00  0.00000000000E+00  0.10823287173E+04  0.10823287173E+04  0.25500000000E-02 0.  1.
          2   -1    0    0  501    0  0.00000000000E+00 -0.00000000000E+00 -0.89964941800E+03  0.89964941801E+03  0.25500000000E-02 0. -1.
    8880023    1    1    2    0    0 -0.12390962728E+03 -0.47077970264E+03 -0.62249012001E+03  0.10287328516E+04  0.65864270000E+03 0. -1.
    8880022    1    1    2    0    0  0.12390962728E+03  0.47077970264E+03  0.80516941925E+03  0.95324528368E+03  0.15294330000E+03 0.  0.
<mgrwt>
<rscale>  0 0.72764985E+03</rscale>
<asrwt>0</asrwt>
<pdfrwt beam="1">  1        2 0.13840760E+00 0.81902218E+03</pdfrwt>
<pdfrwt beam="2">  1       -2 0.16651211E+00 0.81902218E+03</pdfrwt>
<totfact> 0.66908973E+00</totfact>
</mgrwt>
</event>
<event>
 4    5  0.2025789E-007  0.7195206E+03  0.7818608E-02  0.9924211E-01
         -2   -1    0    0    0  501 -0.00000000000E+00  0.00000000000E+00  0.78168557791E+03  0.78168557791E+03  0.25500000000E-02 0.  1.
          2   -1    0    0  501    0  0.00000000000E+00 -0.00000000000E+00 -0.12662796452E+04  0.12662796452E+04  0.25500000000E-02 0. -1.
    8880023    1    1    2    0    0 -0.28965362110E+03  0.68447320004E+00 -0.11210944954E+04  0.13321271571E+04  0.65864270000E+03 0. -1.
    8880022    1    1    2    0    0  0.28965362110E+03 -0.68447320004E+00  0.63650042815E+03  0.71583806602E+03  0.15294330000E+03 0.  0.
<mgrwt>
<rscale>  0 0.59102113E+03</rscale>
<asrwt>0</asrwt>
<pdfrwt beam="1">  1        2 0.19481225E+00 0.71952060E+03</pdfrwt>
<pdfrwt beam="2">  1       -2 0.12025932E+00 0.71952060E+03</pdfrwt>
<totfact> 0.93658722E+00</totfact>
</mgrwt>
</event>
<event>
 4    5  0.2025789E-007  0.8597726E+03  0.7818608E-02  0.9593968E-01
          2   -1    0    0  501    0  0.00000000000E+00  0.00000000000E+00  0.30052198512E+04  0.30052198512E+04  0.25500000000E-02 0. -1.
         -2   -1    0    0    0  501 -0.00000000000E+00 -0.00000000000E+00 -0.29314156734E+03  0.29314156735E+03  0.25500000000E-02 0.  1.
    8880023    1    1    2    0    0  0.25669255733E+03  0.48939514827E+03  0.25666207787E+04  0.27067972048E+04  0.65864270000E+03 0.  0.
    8880022    1    1    2    0    0 -0.25669255733E+03 -0.48939514827E+03  0.14545750517E+03  0.59156421373E+03  0.15294330000E+03 0.  0.
<mgrwt>
<rscale>  0 0.77696700E+03</rscale>
<asrwt>0</asrwt>
<pdfrwt beam="1">  1        2 0.46234153E+00 0.85977258E+03</pdfrwt>
<pdfrwt beam="2">  1       -2 0.45098701E-01 0.85977258E+03</pdfrwt>
<totfact> 0.84152222E+00</totfact>
</mgrwt>
</event>
<event>
 4    5  0.2025789E-007  0.6975345E+03  0.7818608E-02  0.1000759E+00
         -2   -1    0    0    0  501 -0.00000000000E+00  0.00000000000E+00  0.15791750637E+04  0.15791750637E+04  0.25500000000E-02 0.  1.
          2   -1    0    0  501    0  0.00000000000E+00 -0.00000000000E+00 -0.60434664544E+03  0.60434664545E+03  0.25500000000E-02 0. -1.
    8880023    1    1    2    0    0  0.22964560166E+03 -0.26471700403E+01 -0.38448780249E+03  0.79648301074E+03  0.65864270000E+03 0. -1.
    8880022    1    1    2    0    0 -0.22964560166E+03  0.26471700403E+01  0.13593162208E+04  0.13870386984E+04  0.15294330000E+03 0.  0.
<mgrwt>
<rscale>  0 0.55318811E+03</rscale>
<asrwt>0</asrwt>
<pdfrwt beam="1">  1        2 0.92976406E-01 0.69753446E+03</pdfrwt>
<pdfrwt beam="2">  1       -2 0.24295001E+00 0.69753446E+03</pdfrwt>
<totfact> 0.36184482E+00</totfact>
</mgrwt>
</event>
<event>
 4    5  0.2025789E-007  0.8444862E+03  0.7818608E-02  0.9621778E-01
          2   -1    0    0  501    0  0.00000000000E+00  0.00000000000E+00  0.66639242150E+03  0.66639242150E+03  0.25500000000E-02 0. -1.
         -2   -1    0    0    0  501 -0.00000000000E+00 -0.00000000000E+00 -0.23107815936E+04  0.23107815936E+04  0.25500000000E-02 0.  1.
    8880023    1    1    2    0    0 -0.18197163200E+03 -0.49621879489E+03  0.34563950804E+03  0.91248213300E+03  0.65864270000E+03 0. -1.
    8880022    1    1    2    0    0  0.18197163200E+03  0.49621879489E+03 -0.19900286801E+04  0.20646918821E+04  0.15294330000E+03 0.  0.
<mgrwt>
<rscale>  0 0.75871360E+03</rscale>
<asrwt>0</asrwt>
<pdfrwt beam="1">  1        2 0.10252191E+00 0.84448622E+03</pdfrwt>
<pdfrwt beam="2">  1       -2 0.35550486E+00 0.84448622E+03</pdfrwt>
<totfact> 0.65016433E-01</totfact>
</mgrwt>
</event>
<event>
 4    5  0.2025789E-007  0.1759519E+04  0.7818608E-02  0.8745266E-01
         -2   -1    0    0    0  501 -0.00000000000E+00  0.00000000000E+00  0.16055936618E+04  0.16055936618E+04  0.25500000000E-02 0.  1.
          2   -1    0    0  501    0  0.00000000000E+00 -0.00000000000E+00 -0.18397379380E+04  0.18397379380E+04  0.25500000000E-02 0. -1.
    8880023    1    1    2    0    0  0.30160993303E+03  0.16034742664E+04  0.13779382810E+03  0.17649066888E+04  0.65864270000E+03 0.  0.
    8880022    1    1    2    0    0 -0.30160993303E+03 -0.16034742664E+04 -0.37193810431E+03  0.16804249109E+04  0.15294330000E+03 0.  0.
<mgrwt>
<rscale>  0 0.17285163E+04</rscale>
<asrwt>0</asrwt>
<pdfrwt beam="1">  1        2 0.28303660E+00 0.17595194E+04</pdfrwt>
<pdfrwt beam="2">  1       -2 0.24701441E+00 0.17595194E+04</pdfrwt>
<totfact> 0.50309672E-01</totfact>
</mgrwt>
</event>
<event>
 4    5  0.2025789E-007  0.9167297E+03  0.7818608E-02  0.9499692E-01
         -2   -1    0    0    0  501 -0.00000000000E+00  0.00000000000E+00  0.90028069881E+03  0.90028069882E+03  0.25500000000E-02 0.  1.
          2   -1    0    0  501    0  0.00000000000E+00 -0.00000000000E+00 -0.17150882283E+04  0.17150882283E+04  0.25500000000E-02 0. -1.
    8880023    1    1    2    0    0  0.30746779743E+02 -0.63689701463E+03 -0.14415149286E+04  0.17083204229E+04  0.65864270000E+03 0.  0.
    8880022    1    1    2    0    0 -0.30746779743E+02  0.63689701463E+03  0.62670739916E+03  0.90704850415E+03  0.15294330000E+03 0.  0.
<mgrwt>
<rscale>  0 0.84306559E+03</rscale>
<asrwt>0</asrwt>
<pdfrwt beam="1">  1        2 0.26385973E+00 0.91672972E+03</pdfrwt>
<pdfrwt beam="2">  1       -2 0.13850472E+00 0.91672972E+03</pdfrwt>
<totfact> 0.35716274E+00</totfact>
</mgrwt>
</event>
<event>
 4    5  0.2025789E-007  0.7458647E+03  0.7818608E-02  0.9843182E-01
          2   -1    0    0  501    0  0.00000000000E+00  0.00000000000E+00  0.17524999475E+04  0.17524999475E+04  0.25500000000E-02 0. -1.
         -2   -1    0    0    0  501 -0.00000000000E+00 -0.00000000000E+00 -0.45484939379E+03  0.45484939379E+03  0.25500000000E-02 0.  1.
    8880023    1    1    2    0    0  0.14318317783E+03 -0.31937822155E+03  0.15700467885E+04  0.17382062580E+04  0.65864270000E+03 0. -1.
    8880022    1    1    2    0    0 -0.14318317783E+03  0.31937822155E+03 -0.27239623486E+03  0.46914308329E+03  0.15294330000E+03 0.  0.
<mgrwt>
<rscale>  0 0.63095773E+03</rscale>
<asrwt>0</asrwt>
<pdfrwt beam="1">  1        2 0.26961538E+00 0.74586465E+03</pdfrwt>
<pdfrwt beam="2">  1       -2 0.69976829E-01 0.74586465E+03</pdfrwt>
<totfact> 0.17562123E+01</totfact>
</mgrwt>
</event>
<event>
 4    5  0.2025789E-007  0.2144575E+04  0.7818608E-02  0.8552631E-01
          2   -1    0    0  501    0  0.00000000000E+00  0.00000000000E+00  0.34426343580E+04  0.34426343580E+04  0.25500000000E-02 0. -1.
         -2   -1    0    0    0  501 -0.00000000000E+00 -0.00000000000E+00 -0.19306767477E+04  0.19306767477E+04  0.25500000000E-02 0.  1.
    8880023    1    1    2    0    0 -0.13525569955E+04 -0.15283911131E+04  0.23322682426E+04  0.31683868423E+04  0.65864270000E+03 0.  0.
    8880022    1    1    2    0    0  0.13525569955E+04  0.15283911131E+04 -0.82031063230E+03  0.22049242634E+04  0.15294330000E+03 0.  0.
<mgrwt>
<rscale>  0 0.21196630E+04</rscale>
<asrwt>0</asrwt>
<pdfrwt beam="1">  1        2 0.52963605E+00 0.21445746E+04</pdfrwt>
<pdfrwt beam="2">  1       -2 0.29702719E+00 0.21445746E+04</pdfrwt>
<totfact> 0.25721623E-02</totfact>
</mgrwt>
</event>
<event>
 4    5  0.2025789E-007  0.7491124E+03  0.7818608E-02  0.9834156E-01
         -2   -1    0    0    0  501 -0.00000000000E+00  0.00000000000E+00  0.11142189787E+04  0.11142189787E+04  0.25500000000E-02 0.  1.
          2   -1    0    0  501    0  0.00000000000E+00 -0.00000000000E+00 -0.68587708191E+03  0.68587708192E+03  0.25500000000E-02 0. -1.
    8880023    1    1    2    0    0 -0.30537347143E+03  0.18467868321E+03 -0.42592688056E+03  0.86173260756E+03  0.65864270000E+03 0. -1.
    8880022    1    1    2    0    0  0.30537347143E+03 -0.18467868321E+03  0.85426877738E+03  0.93836345310E+03  0.15294330000E+03 0.  0.
<mgrwt>
<rscale>  0 0.63561290E+03</rscale>
<asrwt>0</asrwt>
<pdfrwt beam="1">  1        2 0.10551955E+00 0.74911239E+03</pdfrwt>
<pdfrwt beam="2">  1       -2 0.17141830E+00 0.74911239E+03</pdfrwt>
<totfact> 0.89054103E+00</totfact>
</mgrwt>
</event>
<event>
 4    5  0.2025789E-007  0.1814215E+04  0.7818608E-02  0.8714714E-01
          2   -1    0    0  501    0  0.00000000000E+00  0.00000000000E+00  0.28759441530E+04  0.28759441530E+04  0.25500000000E-02 0. -1.
         -2   -1    0    0    0  501 -0.00000000000E+00 -0.00000000000E+00 -0.10904080315E+04  0.10904080315E+04  0.25500000000E-02 0.  1.
    8880023    1    1    2    0    0  0.13789798621E+04  0.97774202517E+03  0.66381000335E+03  0.19318433825E+04  0.65864270000E+03 0.  0.
    8880022    1    1    2    0    0 -0.13789798621E+04 -0.97774202517E+03  0.11217261182E+04  0.20345088019E+04  0.15294330000E+03 0.  0.
<mgrwt>
<rscale>  0 0.17842619E+04</rscale>
<asrwt>0</asrwt>
<pdfrwt beam="1">  1        2 0.44245294E+00 0.18142147E+04</pdfrwt>
<pdfrwt beam="2">  1       -2 0.16775509E+00 0.18142147E+04</pdfrwt>
<totfact> 0.42036429E-01</totfact>
</mgrwt>
</event>
<event>
 4    5  0.2025789E-007  0.1374009E+04  0.7818608E-02  0.9004146E-01
         -2   -1    0    0    0  501 -0.00000000000E+00  0.00000000000E+00  0.60489562137E+03  0.60489562138E+03  0.25500000000E-02 0.  1.
          2   -1    0    0  501    0  0.00000000000E+00 -0.00000000000E+00 -0.31714869852E+04  0.31714869852E+04  0.25500000000E-02 0. -1.
    8880023    1    1    2    0    0 -0.30623109600E+03 -0.11663245420E+04 -0.20214712448E+04  0.24442272033E+04  0.65864270000E+03 0.  0.
    8880022    1    1    2    0    0  0.30623109600E+03  0.11663245420E+04 -0.54512011902E+03  0.13321554033E+04  0.15294330000E+03 0.  0.
<mgrwt>
<rscale>  0 0.13325467E+04</rscale>
<asrwt>0</asrwt>
<pdfrwt beam="1">  1        2 0.48792107E+00 0.13740090E+04</pdfrwt>
<pdfrwt beam="2">  1       -2 0.93060866E-01 0.13740090E+04</pdfrwt>
<totfact> 0.12881358E+00</totfact>
</mgrwt>
</event>
<event>
 4    5  0.2025789E-007  0.6971400E+03  0.7818608E-02  0.1000928E+00
         -2   -1    0    0    0  501 -0.00000000000E+00  0.00000000000E+00  0.21812454329E+04  0.21812454329E+04  0.25500000000E-02 0.  1.
          2   -1    0    0  501    0  0.00000000000E+00 -0.00000000000E+00 -0.72275341284E+03  0.72275341285E+03  0.25500000000E-02 0. -1.
    8880023    1    1    2    0    0 -0.19978591585E+03  0.11081349298E+03 -0.54303346339E+03  0.88367957486E+03  0.65864270000E+03 0.  0.
    8880022    1    1    2    0    0  0.19978591585E+03 -0.11081349298E+03  0.20015254834E+04  0.20203192708E+04  0.15294330000E+03 0.  0.
<mgrwt>
<rscale>  0 0.55245254E+03</rscale>
<asrwt>0</asrwt>
<pdfrwt beam="1">  1        2 0.11119283E+00 0.69714005E+03</pdfrwt>
<pdfrwt beam="2">  1       -2 0.33557622E+00 0.69714005E+03</pdfrwt>
<totfact> 0.80161846E-01</totfact>
</mgrwt>
</event>
<event>
 4    5  0.2025789E-007  0.7042325E+03  0.7818608E-02  0.9980076E-01
          2   -1    0    0  501    0  0.00000000000E+00  0.00000000000E+00  0.14145924024E+04  0.14145924024E+04  0.25500000000E-02 0. -1.
         -2   -1    0    0    0  501 -0.00000000000E+00 -0.00000000000E+00 -0.45104788515E+03  0.45104788515E+03  0.25500000000E-02 0.  1.
    8880023    1    1    2    0    0 -0.20857369454E+03  0.13649279609E+03  0.12636324621E+04  0.14466203631E+04  0.65864270000E+03 0. -1.
    8880022    1    1    2    0    0  0.20857369454E+03 -0.13649279609E+03 -0.30008794484E+03  0.41901992445E+03  0.15294330000E+03 0.  0.
<mgrwt>
<rscale>  0 0.56532560E+03</rscale>
<asrwt>0</asrwt>
<pdfrwt beam="1">  1        2 0.21762960E+00 0.70423254E+03</pdfrwt>
<pdfrwt beam="2">  1       -2 0.69391983E-01 0.70423254E+03</pdfrwt>
<totfact> 0.27634968E+01</totfact>
</mgrwt>
</event>
<event>
 4    5  0.2025789E-007  0.7749775E+03  0.7818608E-02  0.9767770E-01
          2   -1    0    0  501    0  0.00000000000E+00  0.00000000000E+00  0.94699736571E+03  0.94699736571E+03  0.25500000000E-02 0. -1.
         -2   -1    0    0    0  501 -0.00000000000E+00 -0.00000000000E+00 -0.72366780158E+03  0.72366780158E+03  0.25500000000E-02 0.  1.
    8880023    1    1    2    0    0  0.40389348271E+03  0.60415213024E+02  0.68591998503E+03  0.10349281982E+04  0.65864270000E+03 0. -1.
    8880022    1    1    2    0    0 -0.40389348271E+03 -0.60415213024E+02 -0.46259042089E+03  0.63573696908E+03  0.15294330000E+03 0.  0.
<mgrwt>
<rscale>  0 0.67121250E+03</rscale>
<asrwt>0</asrwt>
<pdfrwt beam="1">  1        2 0.14569190E+00 0.77497752E+03</pdfrwt>
<pdfrwt beam="2">  1       -2 0.11133351E+00 0.77497752E+03</pdfrwt>
<totfact> 0.17637425E+01</totfact>
</mgrwt>
</event>
<event>
 4    5  0.2025789E-007  0.7258565E+03  0.7818608E-02  0.9903246E-01
          2   -1    0    0  501    0  0.00000000000E+00  0.00000000000E+00  0.22476578054E+04  0.22476578054E+04  0.25500000000E-02 0. -1.
         -2   -1    0    0    0  501 -0.00000000000E+00 -0.00000000000E+00 -0.57888272814E+03  0.57888272815E+03  0.25500000000E-02 0.  1.
    8880023    1    1    2    0    0  0.29704143477E+03 -0.69454279576E+02  0.21314385793E+04  0.22516434297E+04  0.65864270000E+03 0. -1.
    8880022    1    1    2    0    0 -0.29704143477E+03  0.69454279576E+02 -0.46266350202E+03  0.57489710387E+03  0.15294330000E+03 0.  0.
<mgrwt>
<rscale>  0 0.60104245E+03</rscale>
<asrwt>0</asrwt>
<pdfrwt beam="1">  1        2 0.34579350E+00 0.72585654E+03</pdfrwt>
<pdfrwt beam="2">  1       -2 0.89058883E-01 0.72585654E+03</pdfrwt>
<totfact> 0.55014622E+00</totfact>
</mgrwt>
</event>
<event>
 4    5  0.2025789E-007  0.1029237E+04  0.7818608E-02  0.9344268E-01
          2   -1    0    0  501    0  0.00000000000E+00  0.00000000000E+00  0.82875301775E+03  0.82875301775E+03  0.25500000000E-02 0. -1.
         -2   -1    0    0    0  501 -0.00000000000E+00 -0.00000000000E+00 -0.15299388719E+04  0.15299388719E+04  0.25500000000E-02 0.  1.
    8880023    1    1    2    0    0 -0.10383741835E+03  0.78405158165E+03  0.30151082380E+03  0.10724915269E+04  0.65864270000E+03 0.  0.
    8880022    1    1    2    0    0  0.10383741835E+03 -0.78405158165E+03 -0.10026966779E+04  0.12862003627E+04  0.15294330000E+03 0.  0.
<mgrwt>
<rscale>  0 0.96807664E+03</rscale>
<asrwt>0</asrwt>
<pdfrwt beam="1">  1        2 0.12750046E+00 0.10292372E+04</pdfrwt>
<pdfrwt beam="2">  1       -2 0.23537521E+00 0.10292372E+04</pdfrwt>
<totfact> 0.25801132E+00</totfact>
</mgrwt>
</event>
<event>
 4    5  0.2025789E-007  0.9700018E+03  0.7818608E-02  0.9421902E-01
          2   -1    0    0  501    0  0.00000000000E+00  0.00000000000E+00  0.30287754006E+04  0.30287754006E+04  0.25500000000E-02 0. -1.
         -2   -1    0    0    0  501 -0.00000000000E+00 -0.00000000000E+00 -0.66496219523E+03  0.66496219523E+03  0.25500000000E-02 0.  1.
    8880023    1    1    2    0    0  0.15101151442E+03 -0.69590858705E+03  0.27165048126E+04  0.28844933423E+04  0.65864270000E+03 0.  0.
    8880022    1    1    2    0    0 -0.15101151442E+03  0.69590858705E+03 -0.35269160720E+03  0.80924425350E+03  0.15294330000E+03 0.  0.
<mgrwt>
<rscale>  0 0.90294963E+03</rscale>
<asrwt>0</asrwt>
<pdfrwt beam="1">  1        2 0.46596545E+00 0.97000178E+03</pdfrwt>
<pdfrwt beam="2">  1       -2 0.10230188E+00 0.97000178E+03</pdfrwt>
<totfact> 0.13395155E+00</totfact>
</mgrwt>
</event>
<event>
 4    5  0.2025789E-007  0.6768674E+03  0.7818608E-02  0.1011154E+00
          2   -1    0    0  501    0  0.00000000000E+00  0.00000000000E+00  0.16531614522E+04  0.16531614522E+04  0.25500000000E-02 0. -1.
         -2   -1    0    0    0  501 -0.00000000000E+00 -0.00000000000E+00 -0.21139264995E+03  0.21139264996E+03  0.25500000000E-02 0.  1.
    8880023    1    1    2    0    0 -0.11527560400E+03  0.10512257870E+03  0.14937767821E+04  0.16399751530E+04  0.65864270000E+03 0.  0.
    8880022    1    1    2    0    0  0.11527560400E+03 -0.10512257870E+03 -0.52007979850E+02  0.22457894918E+03  0.15294330000E+03 0.  1.
<mgrwt>
<rscale>  0 0.51018490E+03</rscale>
<asrwt>0</asrwt>
<pdfrwt beam="1">  1        2 0.25433252E+00 0.67686736E+03</pdfrwt>
<pdfrwt beam="2">  1       -2 0.32521947E-01 0.67686736E+03</pdfrwt>
<totfact> 0.94338005E+01</totfact>
</mgrwt>
</event>
<event>
 4    5  0.2025789E-007  0.8430253E+03  0.7818608E-02  0.9624502E-01
         -2   -1    0    0    0  501 -0.00000000000E+00  0.00000000000E+00  0.15538547235E+04  0.15538547235E+04  0.25500000000E-02 0.  1.
          2   -1    0    0  501    0  0.00000000000E+00 -0.00000000000E+00 -0.45754615775E+03  0.45754615776E+03  0.25500000000E-02 0. -1.
    8880023    1    1    2    0    0  0.40028108581E+03  0.34155005466E+03  0.67455015242E+02  0.84571967746E+03  0.65864270000E+03 0.  0.
    8880022    1    1    2    0    0 -0.40028108581E+03 -0.34155005466E+03  0.10288535505E+04  0.11656812038E+04  0.15294330000E+03 0.  0.
<mgrwt>
<rscale>  0 0.75695487E+03</rscale>
<asrwt>0</asrwt>
<pdfrwt beam="1">  1        2 0.70391716E-01 0.84302526E+03</pdfrwt>
<pdfrwt beam="2">  1       -2 0.23905457E+00 0.84302526E+03</pdfrwt>
<totfact> 0.52013007E+00</totfact>
</mgrwt>
</event>
<event>
 4    5  0.2025789E-007  0.7451852E+03  0.7818608E-02  0.9845092E-01
         -2   -1    0    0    0  501 -0.00000000000E+00  0.00000000000E+00  0.14180754133E+03  0.14180754135E+03  0.25500000000E-02 0.  1.
          2   -1    0    0  501    0  0.00000000000E+00 -0.00000000000E+00 -0.27768692378E+04  0.27768692378E+04  0.25500000000E-02 0. -1.
    8880023    1    1    2    0    0 -0.15479992664E+03 -0.31229440992E+03 -0.22779785894E+04  0.23967660453E+04  0.65864270000E+03 0. -1.
    8880022    1    1    2    0    0  0.15479992664E+03  0.31229440992E+03 -0.35708310703E+03  0.52191073384E+03  0.15294330000E+03 0.  0.
<mgrwt>
<rscale>  0 0.62997767E+03</rscale>
<asrwt>0</asrwt>
<pdfrwt beam="1">  1        2 0.42721061E+00 0.74518523E+03</pdfrwt>
<pdfrwt beam="2">  1       -2 0.21816547E-01 0.74518523E+03</pdfrwt>
<totfact> 0.45868612E+01</totfact>
</mgrwt>
</event>
<event>
 4    5  0.2025789E-007  0.7940977E+03  0.7818608E-02  0.9723706E-01
          2   -1    0    0  501    0  0.00000000000E+00  0.00000000000E+00  0.12413171295E+04  0.12413171295E+04  0.25500000000E-02 0. -1.
         -2   -1    0    0    0  501 -0.00000000000E+00 -0.00000000000E+00 -0.10927677525E+04  0.10927677525E+04  0.25500000000E-02 0.  1.
    8880023    1    1    2    0    0  0.43801632348E+03  0.70161629555E+02  0.10508042264E+04  0.13171107328E+04  0.65864270000E+03 0. -1.
    8880022    1    1    2    0    0 -0.43801632348E+03 -0.70161629555E+02 -0.90225484941E+03  0.10169741492E+04  0.15294330000E+03 0.  0.
<mgrwt>
<rscale>  0 0.69622701E+03</rscale>
<asrwt>0</asrwt>
<pdfrwt beam="1">  1        2 0.19097187E+00 0.79409770E+03</pdfrwt>
<pdfrwt beam="2">  1       -2 0.16811812E+00 0.79409770E+03</pdfrwt>
<totfact> 0.40017439E+00</totfact>
</mgrwt>
</event>
<event>
 4    5  0.2025789E-007  0.7137094E+03  0.7818608E-02  0.9944476E-01
          2   -1    0    0  501    0  0.00000000000E+00  0.00000000000E+00  0.84905987975E+03  0.84905987976E+03  0.25500000000E-02 0. -1.
         -2   -1    0    0    0  501 -0.00000000000E+00 -0.00000000000E+00 -0.44198512109E+03  0.44198512110E+03  0.25500000000E-02 0.  1.
    8880023    1    1    2    0    0  0.13098880884E+03  0.24168732326E+03  0.59099986854E+03  0.92664010335E+03  0.65864270000E+03 0.  0.
    8880022    1    1    2    0    0 -0.13098880884E+03 -0.24168732326E+03 -0.18392510987E+03  0.36440489750E+03  0.15294330000E+03 0.  0.
<mgrwt>
<rscale>  0 0.58153367E+03</rscale>
<asrwt>0</asrwt>
<pdfrwt beam="1">  1        2 0.13062460E+00 0.71370935E+03</pdfrwt>
<pdfrwt beam="2">  1       -2 0.67997712E-01 0.71370935E+03</pdfrwt>
<totfact> 0.63990890E+01</totfact>
</mgrwt>
</event>
<event>
 4    5  0.2025789E-007  0.9473721E+03  0.7818608E-02  0.9453905E-01
         -2   -1    0    0    0  501 -0.00000000000E+00  0.00000000000E+00  0.45996018173E+03  0.45996018173E+03  0.25500000000E-02 0.  1.
          2   -1    0    0  501    0  0.00000000000E+00 -0.00000000000E+00 -0.21822643306E+04  0.21822643306E+04  0.25500000000E-02 0. -1.
    8880023    1    1    2    0    0 -0.46127603702E+03 -0.50092726528E+03 -0.16973704644E+04  0.19438570954E+04  0.65864270000E+03 0. -1.
    8880022    1    1    2    0    0  0.46127603702E+03  0.50092726528E+03 -0.24933684425E+02  0.69836741695E+03  0.15294330000E+03 0.  0.
<mgrwt>
<rscale>  0 0.87769211E+03</rscale>
<asrwt>0</asrwt>
<pdfrwt beam="1">  1        2 0.33573297E+00 0.94737211E+03</pdfrwt>
<pdfrwt beam="2">  1       -2 0.70763106E-01 0.94737211E+03</pdfrwt>
<totfact> 0.97057959E+00</totfact>
</mgrwt>
</event>
<event>
 4    5  0.2025789E-007  0.7121612E+03  0.7818608E-02  0.9950061E-01
          2   -1    0    0  501    0  0.00000000000E+00  0.00000000000E+00  0.75564196530E+03  0.75564196531E+03  0.25500000000E-02 0. -1.
         -2   -1    0    0    0  501 -0.00000000000E+00 -0.00000000000E+00 -0.55442333243E+03  0.55442333244E+03  0.25500000000E-02 0.  1.
    8880023    1    1    2    0    0  0.18047880905E+03  0.20196724004E+03  0.50675183068E+03  0.87405434083E+03  0.65864270000E+03 0. -1.
    8880022    1    1    2    0    0 -0.18047880905E+03 -0.20196724004E+03 -0.30553319782E+03  0.43601095691E+03  0.15294330000E+03 0.  0.
<mgrwt>
<rscale>  0 0.57895248E+03</rscale>
<asrwt>0</asrwt>
<pdfrwt beam="1">  1        2 0.11625261E+00 0.71216120E+03</pdfrwt>
<pdfrwt beam="2">  1       -2 0.85295898E-01 0.71216120E+03</pdfrwt>
<totfact> 0.45127065E+01</totfact>
</mgrwt>
</event>
<event>
 4    5  0.2025789E-007  0.6891961E+03  0.7818608E-02  0.1004537E+00
         -2   -1    0    0    0  501 -0.00000000000E+00  0.00000000000E+00  0.28589830471E+03  0.28589830473E+03  0.25500000000E-02 0.  1.
          2   -1    0    0  501    0  0.00000000000E+00 -0.00000000000E+00 -0.10861681640E+04  0.10861681640E+04  0.25500000000E-02 0. -1.
    8880023    1    1    2    0    0 -0.88190647166E+02 -0.18276627046E+03 -0.86871429167E+03  0.11088984745E+04  0.65864270000E+03 0.  0.
    8880022    1    1    2    0    0  0.88190647166E+02  0.18276627046E+03  0.68444432381E+02  0.26316799426E+03  0.15294330000E+03 0.  0.
<mgrwt>
<rscale>  0 0.53704822E+03</rscale>
<asrwt>0</asrwt>
<pdfrwt beam="1">  1        2 0.16710279E+00 0.68919613E+03</pdfrwt>
<pdfrwt beam="2">  1       -2 0.43984355E-01 0.68919613E+03</pdfrwt>
<totfact> 0.11093677E+02</totfact>
</mgrwt>
</event>
<event>
 4    5  0.2025789E-007  0.7384169E+03  0.7818608E-02  0.9864583E-01
         -2   -1    0    0    0  501 -0.00000000000E+00  0.00000000000E+00  0.62955932129E+03  0.62955932129E+03  0.25500000000E-02 0.  1.
          2   -1    0    0  501    0  0.00000000000E+00 -0.00000000000E+00 -0.11072692150E+04  0.11072692150E+04  0.25500000000E-02 0. -1.
    8880023    1    1    2    0    0  0.94459261848E+01 -0.33370660776E+03 -0.90852029316E+03  0.11707555915E+04  0.65864270000E+03 0. -1.
    8880022    1    1    2    0    0 -0.94459261848E+01  0.33370660776E+03  0.43081039945E+03  0.56607294484E+03  0.15294330000E+03 0.  0.
<mgrwt>
<rscale>  0 0.62008891E+03</rscale>
<asrwt>0</asrwt>
<pdfrwt beam="1">  1        2 0.17034911E+00 0.73841691E+03</pdfrwt>
<pdfrwt beam="2">  1       -2 0.96855280E-01 0.73841691E+03</pdfrwt>
<totfact> 0.19572958E+01</totfact>
</mgrwt>
</event>
<event>
 4    5  0.2025789E-007  0.6730524E+03  0.7818608E-02  0.1013563E+00
          2   -1    0    0  501    0  0.00000000000E+00  0.00000000000E+00  0.12154653485E+04  0.12154653485E+04  0.25500000000E-02 0. -1.
         -2   -1    0    0    0  501 -0.00000000000E+00 -0.00000000000E+00 -0.38351508098E+03  0.38351508099E+03  0.25500000000E-02 0.  1.
    8880023    1    1    2    0    0 -0.12010837701E+03  0.69016985694E+02  0.10823245146E+04  0.12745296888E+04  0.65864270000E+03 0. -1.
    8880022    1    1    2    0    0  0.12010837701E+03 -0.69016985694E+02 -0.25037424704E+03  0.32445074070E+03  0.15294330000E+03 0.  0.
<mgrwt>
<rscale>  0 0.50082809E+03</rscale>
<asrwt>0</asrwt>
<pdfrwt beam="1">  1        2 0.18699467E+00 0.67305243E+03</pdfrwt>
<pdfrwt beam="2">  1       -2 0.59002320E-01 0.67305243E+03</pdfrwt>
<totfact> 0.51035157E+01</totfact>
</mgrwt>
</event>
<event>
 4    5  0.2025789E-007  0.1229114E+04  0.7818608E-02  0.9129328E-01
          2   -1    0    0  501    0  0.00000000000E+00  0.00000000000E+00  0.22521054404E+04  0.22521054404E+04  0.25500000000E-02 0. -1.
         -2   -1    0    0    0  501 -0.00000000000E+00 -0.00000000000E+00 -0.17301435358E+04  0.17301435358E+04  0.25500000000E-02 0.  1.
    8880023    1    1    2    0    0  0.96903526396E+03 -0.37132505076E+03  0.18923509464E+04  0.22564826493E+04  0.65864270000E+03 0. -1.
    8880022    1    1    2    0    0 -0.96903526396E+03  0.37132505076E+03 -0.13703890418E+04  0.17257663269E+04  0.15294330000E+03 0.  0.
<mgrwt>
<rscale>  0 0.11813627E+04</rscale>
<asrwt>0</asrwt>
<pdfrwt beam="1">  1        2 0.34647776E+00 0.12291143E+04</pdfrwt>
<pdfrwt beam="2">  1       -2 0.26617593E+00 0.12291143E+04</pdfrwt>
<totfact> 0.23983252E-01</totfact>
</mgrwt>
</event>
<event>
 4    5  0.2025789E-007  0.8860831E+03  0.7818608E-02  0.9548752E-01
          2   -1    0    0  501    0  0.00000000000E+00  0.00000000000E+00  0.89938091663E+03  0.89938091663E+03  0.25500000000E-02 0. -1.
         -2   -1    0    0    0  501 -0.00000000000E+00 -0.00000000000E+00 -0.17203027460E+04  0.17203027460E+04  0.25500000000E-02 0.  1.
    8880023    1    1    2    0    0 -0.47829825250E+03 -0.35009106709E+03  0.60162013816E+03  0.10710228618E+04  0.65864270000E+03 0. -1.
    8880022    1    1    2    0    0  0.47829825250E+03  0.35009106709E+03 -0.14225419676E+04  0.15486608009E+04  0.15294330000E+03 0.  0.
<mgrwt>
<rscale>  0 0.80782977E+03</rscale>
<asrwt>0</asrwt>
<pdfrwt beam="1">  1        2 0.13836630E+00 0.88608305E+03</pdfrwt>
<pdfrwt beam="2">  1       -2 0.26466196E+00 0.88608305E+03</pdfrwt>
<totfact> 0.15555337E+00</totfact>
</mgrwt>
</event>
<event>
 4    5  0.2025789E-007  0.2039253E+04  0.7818608E-02  0.8600596E-01
          2   -1    0    0  501    0  0.00000000000E+00  0.00000000000E+00  0.19165758825E+04  0.19165758825E+04  0.25500000000E-02 0. -1.
         -2   -1    0    0    0  501 -0.00000000000E+00 -0.00000000000E+00 -0.21391774312E+04  0.21391774312E+04  0.25500000000E-02 0.  1.
    8880023    1    1    2    0    0  0.85045001838E+03 -0.17324770411E+04  0.27265838886E+03  0.20573999940E+04  0.65864270000E+03 0.  0.
    8880022    1    1    2    0    0 -0.85045001838E+03  0.17324770411E+04 -0.49525993747E+03  0.19983533197E+04  0.15294330000E+03 0.  0.
<mgrwt>
<rscale>  0 0.20129370E+04</rscale>
<asrwt>0</asrwt>
<pdfrwt beam="1">  1        2 0.29485783E+00 0.20392528E+04</pdfrwt>
<pdfrwt beam="2">  1       -2 0.32910422E+00 0.20392528E+04</pdfrwt>
<totfact> 0.13872589E-01</totfact>
</mgrwt>
</event>
<event>
 4    5  0.2025789E-007  0.1036308E+04  0.7818608E-02  0.9335525E-01
         -2   -1    0    0    0  501 -0.00000000000E+00  0.00000000000E+00  0.11395313097E+04  0.11395313097E+04  0.25500000000E-02 0.  1.
          2   -1    0    0  501    0  0.00000000000E+00 -0.00000000000E+00 -0.87317226096E+03  0.87317226096E+03  0.25500000000E-02 0. -1.
    8880023    1    1    2    0    0  0.78399519614E+03 -0.15960923695E+03 -0.22632004928E+03  0.10607330235E+04  0.65864270000E+03 0. -1.
    8880022    1    1    2    0    0 -0.78399519614E+03  0.15960923695E+03  0.49267909801E+03  0.95197054719E+03  0.15294330000E+03 0.  0.
<mgrwt>
<rscale>  0 0.97577104E+03</rscale>
<asrwt>0</asrwt>
<pdfrwt beam="1">  1        2 0.13433419E+00 0.10363078E+04</pdfrwt>
<pdfrwt beam="2">  1       -2 0.17531251E+00 0.10363078E+04</pdfrwt>
<totfact> 0.59085175E+00</totfact>
</mgrwt>
</event>
<event>
 4    5  0.2243225E-007  0.8673952E+03  0.7818608E-02  0.9580542E-01
          2   -1    0    0  501    0  0.00000000000E+00  0.00000000000E+00  0.19616762093E+04  0.19616762093E+04  0.25500000000E-02 0. -1.
         -2   -1    0    0    0  501 -0.00000000000E+00 -0.00000000000E+00 -0.10727016991E+04  0.10727016991E+04  0.25500000000E-02 0.  1.
    8880023    1    1    2    0    0 -0.92278635842E+02 -0.55682026114E+03  0.17733700928E+04  0.19741367334E+04  0.65864270000E+03 0. -1.
    8880022    1    1    2    0    0  0.92278635842E+02  0.55682026114E+03 -0.88439558250E+03  0.10602411750E+04  0.15294330000E+03 0.  0.
<mgrwt>
<rscale>  0 0.78597547E+03</rscale>
<asrwt>0</asrwt>
<pdfrwt beam="1">  1        2 0.30179634E+00 0.86739516E+03</pdfrwt>
<pdfrwt beam="2">  1       -2 0.16503103E+00 0.86739516E+03</pdfrwt>
<totfact> 0.16515940E+00</totfact>
</mgrwt>
</event>
<event>
 4    5  0.2025789E-007  0.1170494E+04  0.7818608E-02  0.9186352E-01
         -2   -1    0    0    0  501 -0.00000000000E+00  0.00000000000E+00  0.10697850796E+04  0.10697850796E+04  0.25500000000E-02 0.  1.
          2   -1    0    0  501    0  0.00000000000E+00 -0.00000000000E+00 -0.21782547654E+04  0.21782547654E+04  0.25500000000E-02 0. -1.
    8880023    1    1    2    0    0  0.86842940203E+03 -0.42670451405E+03 -0.17293583998E+04  0.20882377857E+04  0.65864270000E+03 0.  0.
    8880022    1    1    2    0    0 -0.86842940203E+03  0.42670451405E+03  0.62088871389E+03  0.11598020593E+04  0.15294330000E+03 0.  1.
<mgrwt>
<rscale>  0 0.11195419E+04</rscale>
<asrwt>0</asrwt>
<pdfrwt beam="1">  1        2 0.33511612E+00 0.11704942E+04</pdfrwt>
<pdfrwt beam="2">  1       -2 0.16458232E+00 0.11704942E+04</pdfrwt>
<totfact> 0.12100422E+00</totfact>
</mgrwt>
</event>
<event>
 4    5  0.2025789E-007  0.8409697E+03  0.7818608E-02  0.9628354E-01
         -2   -1    0    0    0  501 -0.00000000000E+00  0.00000000000E+00  0.28980449077E+04  0.28980449077E+04  0.25500000000E-02 0.  1.
          2   -1    0    0  501    0  0.00000000000E+00 -0.00000000000E+00 -0.31532729104E+03  0.31532729105E+03  0.25500000000E-02 0. -1.
    8880023    1    1    2    0    0 -0.40959840054E+03  0.32503689922E+03  0.34280251511E+03  0.90815395512E+03  0.65864270000E+03 0. -1.
    8880022    1    1    2    0    0  0.40959840054E+03 -0.32503689922E+03  0.22399151016E+04  0.23052182437E+04  0.15294330000E+03 0.  0.
<mgrwt>
<rscale>  0 0.75447586E+03</rscale>
<asrwt>0</asrwt>
<pdfrwt beam="1">  1        2 0.48511893E-01 0.84096970E+03</pdfrwt>
<pdfrwt beam="2">  1       -2 0.44585304E+00 0.84096970E+03</pdfrwt>
<totfact> 0.40243723E-01</totfact>
</mgrwt>
</event>
<event>
 4    5  0.2025789E-007  0.8774810E+03  0.7818608E-02  0.9563194E-01
         -2   -1    0    0    0  501 -0.00000000000E+00  0.00000000000E+00  0.11580309723E+04  0.11580309723E+04  0.25500000000E-02 0.  1.
          2   -1    0    0  501    0  0.00000000000E+00 -0.00000000000E+00 -0.26390624069E+04  0.26390624069E+04  0.25500000000E-02 0. -1.
    8880023    1    1    2    0    0  0.44474567953E+03 -0.37197309367E+03 -0.24807323470E+04  0.26313505821E+04  0.65864270000E+03 0. -1.
    8880022    1    1    2    0    0 -0.44474567953E+03  0.37197309367E+03  0.99970091236E+03  0.11657427971E+04  0.15294330000E+03 0.  0.
<mgrwt>
<rscale>  0 0.79780887E+03</rscale>
<asrwt>0</asrwt>
<pdfrwt beam="1">  1        2 0.40600960E+00 0.87748100E+03</pdfrwt>
<pdfrwt beam="2">  1       -2 0.17815861E+00 0.87748100E+03</pdfrwt>
<totfact> 0.55583369E-01</totfact>
</mgrwt>
</event>
<event>
 4    5  0.2025789E-007  0.1222895E+04  0.7818608E-02  0.9135182E-01
         -2   -1    0    0    0  501 -0.00000000000E+00  0.00000000000E+00  0.10050083791E+04  0.10050083791E+04  0.25500000000E-02 0.  1.
          2   -1    0    0  501    0  0.00000000000E+00 -0.00000000000E+00 -0.24204935891E+04  0.24204935891E+04  0.25500000000E-02 0. -1.
    8880023    1    1    2    0    0  0.42358502766E+03  0.93927500635E+03 -0.19135170141E+04  0.22709071717E+04  0.65864270000E+03 0.  0.
    8880022    1    1    2    0    0 -0.42358502766E+03 -0.93927500635E+03  0.49803180400E+03  0.11545947965E+04  0.15294330000E+03 0.  0.
<mgrwt>
<rscale>  0 0.11748252E+04</rscale>
<asrwt>0</asrwt>
<pdfrwt beam="1">  1        2 0.37238363E+00 0.12228949E+04</pdfrwt>
<pdfrwt beam="2">  1       -2 0.15461667E+00 0.12228949E+04</pdfrwt>
<totfact> 0.10411439E+00</totfact>
</mgrwt>
</event>
<event>
 4    5  0.4483405E-007  0.1605776E+04  0.7818608E-02  0.8838343E-01
          2   -1    0    0  501    0  0.00000000000E+00  0.00000000000E+00  0.28691981563E+04  0.28691981563E+04  0.25500000000E-02 0. -1.
         -2   -1    0    0    0  501 -0.00000000000E+00 -0.00000000000E+00 -0.22323856534E+04  0.22323856534E+04  0.25500000000E-02 0.  1.
    8880023    1    1    2    0    0 -0.10536016364E+04  0.10171674390E+04  0.23476947368E+04  0.28443253666E+04  0.65864270000E+03 0.  0.
    8880022    1    1    2    0    0  0.10536016364E+04 -0.10171674390E+04 -0.17108822339E+04  0.22572584431E+04  0.15294330000E+03 0.  0.
<mgrwt>
<rscale>  0 0.15713523E+04</rscale>
<asrwt>0</asrwt>
<pdfrwt beam="1">  1        2 0.44141510E+00 0.16057759E+04</pdfrwt>
<pdfrwt beam="2">  1       -2 0.34344395E+00 0.16057759E+04</pdfrwt>
<totfact> 0.33282789E-02</totfact>
</mgrwt>
</event>
<event>
 4    5  0.2025789E-007  0.1304152E+04  0.7818608E-02  0.9061983E-01
         -2   -1    0    0    0  501 -0.00000000000E+00  0.00000000000E+00  0.68969409830E+03  0.68969409831E+03  0.25500000000E-02 0.  1.
          2   -1    0    0  501    0  0.00000000000E+00 -0.00000000000E+00 -0.21723584658E+04  0.21723584658E+04  0.25500000000E-02 0. -1.
    8880023    1    1    2    0    0  0.10379174363E+04 -0.43557895317E+03 -0.90716593199E+03  0.15886352204E+04  0.65864270000E+03 0.  0.
    8880022    1    1    2    0    0 -0.10379174363E+04  0.43557895317E+03 -0.57549843553E+03  0.12734173437E+04  0.15294330000E+03 0.  0.
<mgrwt>
<rscale>  0 0.12599008E+04</rscale>
<asrwt>0</asrwt>
<pdfrwt beam="1">  1        2 0.33420899E+00 0.13041518E+04</pdfrwt>
<pdfrwt beam="2">  1       -2 0.10610679E+00 0.13041518E+04</pdfrwt>
<totfact> 0.37170422E+00</totfact>
</mgrwt>
</event>
<event>
 4    5  0.2025789E-007  0.1538621E+04  0.7818608E-02  0.8882835E-01
          2   -1    0    0  501    0  0.00000000000E+00  0.00000000000E+00  0.26182948095E+04  0.26182948095E+04  0.25500000000E-02 0. -1.
         -2   -1    0    0    0  501 -0.00000000000E+00 -0.00000000000E+00 -0.94965934318E+03  0.94965934319E+03  0.25500000000E-02 0.  1.
    8880023    1    1    2    0    0 -0.13235134937E+04 -0.42644629053E+03  0.15172524993E+04  0.21608817088E+04  0.65864270000E+03 0.  0.
    8880022    1    1    2    0    0  0.13235134937E+04  0.42644629053E+03  0.15138296704E+03  0.14070724439E+04  0.15294330000E+03 0.  0.
<mgrwt>
<rscale>  0 0.15024355E+04</rscale>
<asrwt>0</asrwt>
<pdfrwt beam="1">  1        2 0.40281458E+00 0.15386210E+04</pdfrwt>
<pdfrwt beam="2">  1       -2 0.14610144E+00 0.15386210E+04</pdfrwt>
<totfact> 0.89844440E-01</totfact>
</mgrwt>
</event>
<event>
 4    5  0.2025789E-007  0.9567938E+03  0.7818608E-02  0.9440406E-01
         -2   -1    0    0    0  501 -0.00000000000E+00  0.00000000000E+00  0.13347468970E+04  0.13347468970E+04  0.25500000000E-02 0.  1.
          2   -1    0    0  501    0  0.00000000000E+00 -0.00000000000E+00 -0.11529694657E+04  0.11529694657E+04  0.25500000000E-02 0. -1.
    8880023    1    1    2    0    0 -0.67545481818E+03  0.15938918061E+03 -0.81956839342E+03  0.12598200983E+04  0.65864270000E+03 0. -1.
    8880022    1    1    2    0    0  0.67545481818E+03 -0.15938918061E+03  0.10013458248E+04  0.12278962644E+04  0.15294330000E+03 0.  0.
<mgrwt>
<rscale>  0 0.88823734E+03</rscale>
<asrwt>0</asrwt>
<pdfrwt beam="1">  1        2 0.17737992E+00 0.95679378E+03</pdfrwt>
<pdfrwt beam="2">  1       -2 0.20534568E+00 0.95679378E+03</pdfrwt>
<totfact> 0.24756961E+00</totfact>
</mgrwt>
</event>
<event>
 4    5  0.2025789E-007  0.6743458E+03  0.7818608E-02  0.1012722E+00
         -2   -1    0    0    0  501 -0.00000000000E+00  0.00000000000E+00  0.76748102713E+03  0.76748102714E+03  0.25500000000E-02 0.  1.
          2   -1    0    0  501    0  0.00000000000E+00 -0.00000000000E+00 -0.68396477744E+03  0.68396477745E+03  0.25500000000E-02 0. -1.
    8880023    1    1    2    0    0  0.12503385975E+03 -0.72791118587E+02 -0.49453717514E+03  0.83624711473E+03  0.65864270000E+03 0. -1.
    8880022    1    1    2    0    0 -0.12503385975E+03  0.72791118587E+02  0.57805342483E+03  0.61519868986E+03  0.15294330000E+03 0.  0.
<mgrwt>
<rscale>  0 0.50407068E+03</rscale>
<asrwt>0</asrwt>
<pdfrwt beam="1">  1        2 0.10522535E+00 0.67434577E+03</pdfrwt>
<pdfrwt beam="2">  1       -2 0.11807400E+00 0.67434577E+03</pdfrwt>
<totfact> 0.23805847E+01</totfact>
</mgrwt>
</event>
<event>
 4    5  0.2025789E-007  0.1305900E+04  0.7818608E-02  0.9060481E-01
         -2   -1    0    0    0  501 -0.00000000000E+00  0.00000000000E+00  0.10323838370E+04  0.10323838370E+04  0.25500000000E-02 0.  1.
          2   -1    0    0  501    0  0.00000000000E+00 -0.00000000000E+00 -0.18446044324E+04  0.18446044324E+04  0.25500000000E-02 0. -1.
    8880023    1    1    2    0    0 -0.81782642060E+03  0.77635417379E+03 -0.10952120075E+04  0.17043665701E+04  0.65864270000E+03 0.  0.
    8880022    1    1    2    0    0  0.81782642060E+03 -0.77635417379E+03  0.28299141213E+03  0.11726216993E+04  0.15294330000E+03 0.  0.
<mgrwt>
<rscale>  0 0.12617244E+04</rscale>
<asrwt>0</asrwt>
<pdfrwt beam="1">  1        2 0.28378530E+00 0.13059005E+04</pdfrwt>
<pdfrwt beam="2">  1       -2 0.15882828E+00 0.13059005E+04</pdfrwt>
<totfact> 0.20133013E+00</totfact>
</mgrwt>
</event>
<event>
 4    5  0.2025789E-007  0.9638516E+03  0.7818608E-02  0.9430459E-01
         -2   -1    0    0    0  501 -0.00000000000E+00  0.00000000000E+00  0.35824765290E+03  0.35824765291E+03  0.25500000000E-02 0.  1.
          2   -1    0    0  501    0  0.00000000000E+00 -0.00000000000E+00 -0.55467009788E+04  0.55467009788E+04  0.25500000000E-02 0. -1.
    8880023    1    1    2    0    0  0.58191936008E+03 -0.39568869379E+03 -0.50872341451E+04  0.51777370672E+04  0.65864270000E+03 0.  0.
    8880022    1    1    2    0    0 -0.58191936008E+03  0.39568869379E+03 -0.10121918087E+03  0.72721156455E+03  0.15294330000E+03 0.  0.
<mgrwt>
<rscale>  0 0.89610889E+03</rscale>
<asrwt>0</asrwt>
<pdfrwt beam="1">  1        2 0.85333855E+00 0.96385159E+03</pdfrwt>
<pdfrwt beam="2">  1       -2 0.55115028E-01 0.96385159E+03</pdfrwt>
<totfact> 0.17610571E-02</totfact>
</mgrwt>
</event>
<event>
 4    5  0.2025789E-007  0.7251910E+03  0.7818608E-02  0.9905397E-01
          2   -1    0    0  501    0  0.00000000000E+00  0.00000000000E+00  0.68081503435E+03  0.68081503436E+03  0.25500000000E-02 0. -1.
         -2   -1    0    0    0  501 -0.00000000000E+00 -0.00000000000E+00 -0.41846765141E+03  0.41846765142E+03  0.25500000000E-02 0.  1.
    8880023    1    1    2    0    0 -0.30259895333E+03 -0.22926737484E+02  0.21346917733E+03  0.75595704758E+03  0.65864270000E+03 0.  0.
    8880022    1    1    2    0    0  0.30259895333E+03  0.22926737484E+02  0.48878205604E+02  0.34332563820E+03  0.15294330000E+03 0. -1.
<mgrwt>
<rscale>  0 0.60000415E+03</rscale>
<asrwt>0</asrwt>
<pdfrwt beam="1">  1        2 0.10474077E+00 0.72519099E+03</pdfrwt>
<pdfrwt beam="2">  1       -2 0.64379639E-01 0.72519099E+03</pdfrwt>
<totfact> 0.95847511E+01</totfact>
</mgrwt>
</event>
<event>
 4    5  0.2025789E-007  0.8092778E+03  0.7818608E-02  0.9691083E-01
         -2   -1    0    0    0  501 -0.00000000000E+00  0.00000000000E+00  0.40328755339E+03  0.40328755339E+03  0.25500000000E-02 0.  1.
          2   -1    0    0  501    0  0.00000000000E+00 -0.00000000000E+00 -0.16936077270E+04  0.16936077270E+04  0.25500000000E-02 0. -1.
    8880023    1    1    2    0    0 -0.65976670599E+02 -0.46558289512E+03 -0.13747434771E+04  0.15952586584E+04  0.65864270000E+03 0.  0.
    8880022    1    1    2    0    0  0.65976670599E+02  0.46558289512E+03  0.84423303480E+02  0.50163662194E+03  0.15294330000E+03 0.  0.
<mgrwt>
<rscale>  0 0.71550182E+03</rscale>
<asrwt>0</asrwt>
<pdfrwt beam="1">  1        2 0.26055503E+00 0.80927780E+03</pdfrwt>
<pdfrwt beam="2">  1       -2 0.62044240E-01 0.80927780E+03</pdfrwt>
<totfact> 0.24324208E+01</totfact>
</mgrwt>
</event>
<event>
 4    5  0.2025789E-007  0.1011162E+04  0.7818608E-02  0.9367097E-01
          2   -1    0    0  501    0  0.00000000000E+00  0.00000000000E+00  0.28705566781E+04  0.28705566781E+04  0.25500000000E-02 0. -1.
         -2   -1    0    0    0  501 -0.00000000000E+00 -0.00000000000E+00 -0.39191516858E+03  0.39191516859E+03  0.25500000000E-02 0.  1.
    8880023    1    1    2    0    0  0.73827340251E+03  0.20878562627E+03  0.22184306136E+04  0.24380081313E+04  0.65864270000E+03 0.  0.
    8880022    1    1    2    0    0 -0.73827340251E+03 -0.20878562627E+03  0.26021089586E+03  0.82446371535E+03  0.15294330000E+03 0.  0.
<mgrwt>
<rscale>  0 0.94833617E+03</rscale>
<asrwt>0</asrwt>
<pdfrwt beam="1">  1        2 0.44162412E+00 0.10111623E+04</pdfrwt>
<pdfrwt beam="2">  1       -2 0.60294639E-01 0.10111623E+04</pdfrwt>
<totfact> 0.54654889E+00</totfact>
</mgrwt>
</event>
<event>
 4    5  0.2025789E-007  0.9425462E+03  0.7818608E-02  0.9460921E-01
          2   -1    0    0  501    0  0.00000000000E+00  0.00000000000E+00  0.23526661544E+04  0.23526661544E+04  0.25500000000E-02 0. -1.
         -2   -1    0    0    0  501 -0.00000000000E+00 -0.00000000000E+00 -0.43347180466E+03  0.43347180467E+03  0.25500000000E-02 0.  1.
    8880023    1    1    2    0    0 -0.29730256604E+03 -0.60513994454E+03  0.18686887799E+04  0.20929383963E+04  0.65864270000E+03 0.  0.
    8880022    1    1    2    0    0  0.29730256604E+03  0.60513994454E+03  0.50505569842E+02  0.69319956279E+03  0.15294330000E+03 0.  0.
<mgrwt>
<rscale>  0 0.87227338E+03</rscale>
<asrwt>0</asrwt>
<pdfrwt beam="1">  1        2 0.36194865E+00 0.94254622E+03</pdfrwt>
<pdfrwt beam="2">  1       -2 0.66687968E-01 0.94254622E+03</pdfrwt>
<totfact> 0.88792577E+00</totfact>
</mgrwt>
</event>
<event>
 4    5  0.2025789E-007  0.8508786E+03  0.7818608E-02  0.9609999E-01
          2   -1    0    0  501    0  0.00000000000E+00  0.00000000000E+00  0.21558447387E+04  0.21558447387E+04  0.25500000000E-02 0. -1.
         -2   -1    0    0    0  501 -0.00000000000E+00 -0.00000000000E+00 -0.47739662141E+03  0.47739662142E+03  0.25500000000E-02 0.  1.
    8880023    1    1    2    0    0 -0.49946953818E+03  0.20177799812E+03  0.18593294756E+04  0.20447739448E+04  0.65864270000E+03 0. -1.
    8880022    1    1    2    0    0  0.49946953818E+03 -0.20177799812E+03 -0.18088135835E+03  0.58846741533E+03  0.15294330000E+03 0.  0.
<mgrwt>
<rscale>  0 0.76637887E+03</rscale>
<asrwt>0</asrwt>
<pdfrwt beam="1">  1        2 0.33166842E+00 0.85087860E+03</pdfrwt>
<pdfrwt beam="2">  1       -2 0.73445634E-01 0.85087860E+03</pdfrwt>
<totfact> 0.93646054E+00</totfact>
</mgrwt>
</event>
<event>
 4    5  0.2025789E-007  0.7027782E+03  0.7818608E-02  0.9985866E-01
          2   -1    0    0  501    0  0.00000000000E+00  0.00000000000E+00  0.11212561231E+04  0.11212561231E+04  0.25500000000E-02 0. -1.
         -2   -1    0    0    0  501 -0.00000000000E+00 -0.00000000000E+00 -0.55413639786E+03  0.55413639787E+03  0.25500000000E-02 0.  1.
    8880023    1    1    2    0    0 -0.17593194116E+03  0.17068965443E+03  0.95873685657E+03  0.11887277117E+04  0.65864270000E+03 0. -1.
    8880022    1    1    2    0    0  0.17593194116E+03 -0.17068965443E+03 -0.39161713134E+03  0.48666480931E+03  0.15294330000E+03 0.  0.
<mgrwt>
<rscale>  0 0.56274371E+03</rscale>
<asrwt>0</asrwt>
<pdfrwt beam="1">  1        2 0.17250094E+00 0.70277821E+03</pdfrwt>
<pdfrwt beam="2">  1       -2 0.85251754E-01 0.70277821E+03</pdfrwt>
<totfact> 0.25880768E+01</totfact>
</mgrwt>
</event>
<event>
 4    5  0.2025789E-007  0.7536008E+03  0.7818608E-02  0.9821965E-01
          2   -1    0    0  501    0  0.00000000000E+00  0.00000000000E+00  0.20769925763E+04  0.20769925763E+04  0.25500000000E-02 0. -1.
         -2   -1    0    0    0  501 -0.00000000000E+00 -0.00000000000E+00 -0.21479579980E+03  0.21479579981E+03  0.25500000000E-02 0.  1.
    8880023    1    1    2    0    0  0.17169307380E+03 -0.32345865952E+03  0.17064836577E+04  0.18654759972E+04  0.65864270000E+03 0.  0.
    8880022    1    1    2    0    0 -0.17169307380E+03  0.32345865952E+03  0.15571311881E+03  0.42631237888E+03  0.15294330000E+03 0.  0.
<mgrwt>
<rscale>  0 0.64196981E+03</rscale>
<asrwt>0</asrwt>
<pdfrwt beam="1">  1        2 0.31953733E+00 0.75360084E+03</pdfrwt>
<pdfrwt beam="2">  1       -2 0.33045506E-01 0.75360084E+03</pdfrwt>
<totfact> 0.53309346E+01</totfact>
</mgrwt>
</event>
<event>
 4    5  0.2025789E-007  0.8945735E+03  0.7818608E-02  0.9534800E-01
          2   -1    0    0  501    0  0.00000000000E+00  0.00000000000E+00  0.13212782994E+04  0.13212782994E+04  0.25500000000E-02 0. -1.
         -2   -1    0    0    0  501 -0.00000000000E+00 -0.00000000000E+00 -0.68307491630E+03  0.68307491631E+03  0.25500000000E-02 0.  1.
    8880023    1    1    2    0    0 -0.24782613828E+03 -0.55229862983E+03  0.95132419778E+03  0.13058635101E+04  0.65864270000E+03 0. -1.
    8880022    1    1    2    0    0  0.24782613828E+03  0.55229862983E+03 -0.31312081467E+03  0.69848970567E+03  0.15294330000E+03 0.  0.
<mgrwt>
<rscale>  0 0.81766099E+03</rscale>
<asrwt>0</asrwt>
<pdfrwt beam="1">  1        2 0.20327358E+00 0.89457352E+03</pdfrwt>
<pdfrwt beam="2">  1       -2 0.10508845E+00 0.89457352E+03</pdfrwt>
<totfact> 0.11840116E+01</totfact>
</mgrwt>
</event>
<event>
 4    5  0.2148139E-007  0.6876347E+03  0.7818608E-02  0.1005298E+00
          2   -1    0    0  501    0  0.00000000000E+00  0.00000000000E+00  0.18709215488E+04  0.18709215488E+04  0.25500000000E-02 0. -1.
         -2   -1    0    0    0  501 -0.00000000000E+00 -0.00000000000E+00 -0.16512455081E+04  0.16512455081E+04  0.25500000000E-02 0.  1.
    8880023    1    1    2    0    0  0.15974731557E+03 -0.11624167420E+03  0.17975759143E+04  0.19246092345E+04  0.65864270000E+03 0. -1.
    8880022    1    1    2    0    0 -0.15974731557E+03  0.11624167420E+03 -0.15778998736E+04  0.15975578224E+04  0.15294330000E+03 0.  0.
<mgrwt>
<rscale>  0 0.53387112E+03</rscale>
<asrwt>0</asrwt>
<pdfrwt beam="1">  1        2 0.28783409E+00 0.68763474E+03</pdfrwt>
<pdfrwt beam="2">  1       -2 0.25403777E+00 0.68763474E+03</pdfrwt>
<totfact> 0.51040467E-01</totfact>
</mgrwt>
</event>
<event>
 4    5  0.2025789E-007  0.1195576E+04  0.7818608E-02  0.9161435E-01
          2   -1    0    0  501    0  0.00000000000E+00  0.00000000000E+00  0.13384018869E+04  0.13384018869E+04  0.25500000000E-02 0. -1.
         -2   -1    0    0    0  501 -0.00000000000E+00 -0.00000000000E+00 -0.99729413560E+03  0.99729413560E+03  0.25500000000E-02 0.  1.
    8880023    1    1    2    0    0  0.50133263497E+02  0.99653283242E+03  0.53159759440E+03  0.13084331236E+04  0.65864270000E+03 0.  0.
    8880022    1    1    2    0    0 -0.50133263497E+02 -0.99653283242E+03 -0.19048984310E+03  0.10272628989E+04  0.15294330000E+03 0.  0.
<mgrwt>
<rscale>  0 0.11460502E+04</rscale>
<asrwt>0</asrwt>
<pdfrwt beam="1">  1        2 0.20590798E+00 0.11955757E+04</pdfrwt>
<pdfrwt beam="2">  1       -2 0.15342987E+00 0.11955757E+04</pdfrwt>
<totfact> 0.43082125E+00</totfact>
</mgrwt>
</event>
<event>
 4    5  0.2025789E-007  0.6764872E+03  0.7818608E-02  0.1011385E+00
          2   -1    0    0  501    0  0.00000000000E+00  0.00000000000E+00  0.71239499981E+03  0.71239499982E+03  0.25500000000E-02 0. -1.
         -2   -1    0    0    0  501 -0.00000000000E+00 -0.00000000000E+00 -0.56814135721E+03  0.56814135722E+03  0.25500000000E-02 0.  1.
    8880023    1    1    2    0    0  0.12106075577E+03 -0.95754758215E+02  0.51540384735E+03  0.85045635540E+03  0.65864270000E+03 0.  0.
    8880022    1    1    2    0    0 -0.12106075577E+03  0.95754758215E+02 -0.37115020475E+03  0.43008000164E+03  0.15294330000E+03 0.  0.
<mgrwt>
<rscale>  0 0.50927951E+03</rscale>
<asrwt>0</asrwt>
<pdfrwt beam="1">  1        2 0.10959923E+00 0.67648717E+03</pdfrwt>
<pdfrwt beam="2">  1       -2 0.87406363E-01 0.67648717E+03</pdfrwt>
<totfact> 0.46160662E+01</totfact>
</mgrwt>
</event>
<event>
 4    5  0.2025789E-007  0.1197035E+04  0.7818608E-02  0.9160010E-01
          2   -1    0    0  501    0  0.00000000000E+00  0.00000000000E+00  0.22482066182E+04  0.22482066182E+04  0.25500000000E-02 0. -1.
         -2   -1    0    0    0  501 -0.00000000000E+00 -0.00000000000E+00 -0.65701624882E+03  0.65701624883E+03  0.25500000000E-02 0.  1.
    8880023    1    1    2    0    0 -0.92381529869E+03 -0.38163730416E+03  0.14562448436E+04  0.18850838148E+04  0.65864270000E+03 0.  0.
    8880022    1    1    2    0    0  0.92381529869E+03  0.38163730416E+03  0.13494552581E+03  0.10201390523E+04  0.15294330000E+03 0.  0.
<mgrwt>
<rscale>  0 0.11475894E+04</rscale>
<asrwt>0</asrwt>
<pdfrwt beam="1">  1        2 0.34587794E+00 0.11970346E+04</pdfrwt>
<pdfrwt beam="2">  1       -2 0.10107942E+00 0.11970346E+04</pdfrwt>
<totfact> 0.38309717E+00</totfact>
</mgrwt>
</event>
<event>
 4    5  0.2025789E-007  0.9677855E+03  0.7818608E-02  0.9424974E-01
         -2   -1    0    0    0  501 -0.00000000000E+00  0.00000000000E+00  0.10090677195E+04  0.10090677195E+04  0.25500000000E-02 0.  1.
          2   -1    0    0  501    0  0.00000000000E+00 -0.00000000000E+00 -0.12693677582E+04  0.12693677582E+04  0.25500000000E-02 0. -1.
    8880023    1    1    2    0    0 -0.30293376470E+03 -0.64111599055E+03 -0.89228902255E+03  0.13163542400E+04  0.65864270000E+03 0.  0.
    8880022    1    1    2    0    0  0.30293376470E+03  0.64111599055E+03  0.63198898383E+03  0.96208123765E+03  0.15294330000E+03 0.  0.
<mgrwt>
<rscale>  0 0.90048645E+03</rscale>
<asrwt>0</asrwt>
<pdfrwt beam="1">  1        2 0.19528735E+00 0.96778551E+03</pdfrwt>
<pdfrwt beam="2">  1       -2 0.15524119E+00 0.96778551E+03</pdfrwt>
<totfact> 0.46863626E+00</totfact>
</mgrwt>
</event>
<event>
 4    5  0.2025789E-007  0.8020436E+03  0.7818608E-02  0.9706395E-01
          2   -1    0    0  501    0  0.00000000000E+00  0.00000000000E+00  0.16545367594E+04  0.16545367594E+04  0.25500000000E-02 0. -1.
         -2   -1    0    0    0  501 -0.00000000000E+00 -0.00000000000E+00 -0.26216728394E+03  0.26216728395E+03  0.25500000000E-02 0.  1.
    8880023    1    1    2    0    0  0.29837951250E+03 -0.34703526025E+03  0.10664993329E+04  0.13344267828E+04  0.65864270000E+03 0.  0.
    8880022    1    1    2    0    0 -0.29837951250E+03  0.34703526025E+03  0.32587014260E+03  0.58227726058E+03  0.15294330000E+03 0.  0.
<mgrwt>
<rscale>  0 0.70637335E+03</rscale>
<asrwt>0</asrwt>
<pdfrwt beam="1">  1        2 0.25454412E+00 0.80204365E+03</pdfrwt>
<pdfrwt beam="2">  1       -2 0.40333428E-01 0.80204365E+03</pdfrwt>
<totfact> 0.61556426E+01</totfact>
</mgrwt>
</event>
<event>
 4    5  0.2025789E-007  0.8434910E+03  0.7818608E-02  0.9623632E-01
          2   -1    0    0  501    0  0.00000000000E+00  0.00000000000E+00  0.63734565000E+03  0.63734565000E+03  0.25500000000E-02 0. -1.
         -2   -1    0    0    0  501 -0.00000000000E+00 -0.00000000000E+00 -0.23742021096E+04  0.23742021096E+04  0.25500000000E-02 0.  1.
    8880023    1    1    2    0    0  0.27646753396E+03  0.44858957380E+03  0.30524044351E+03  0.89702220578E+03  0.65864270000E+03 0. -1.
    8880022    1    1    2    0    0 -0.27646753396E+03 -0.44858957380E+03 -0.20420969031E+04  0.21145255538E+04  0.15294330000E+03 0.  0.
<mgrwt>
<rscale>  0 0.75751584E+03</rscale>
<asrwt>0</asrwt>
<pdfrwt beam="1">  1        2 0.98053178E-01 0.84349103E+03</pdfrwt>
<pdfrwt beam="2">  1       -2 0.36526186E+00 0.84349103E+03</pdfrwt>
<totfact> 0.59675280E-01</totfact>
</mgrwt>
</event>
<event>
 4    5  0.2025789E-007  0.7747870E+03  0.7818608E-02  0.9768228E-01
          2   -1    0    0  501    0  0.00000000000E+00  0.00000000000E+00  0.22954530847E+04  0.22954530847E+04  0.25500000000E-02 0. -1.
         -2   -1    0    0    0  501 -0.00000000000E+00 -0.00000000000E+00 -0.85685309892E+03  0.85685309892E+03  0.25500000000E-02 0.  1.
    8880023    1    1    2    0    0 -0.47124697015E+02 -0.40529486385E+03  0.21682073191E+04  0.23024808031E+04  0.65864270000E+03 0. -1.
    8880022    1    1    2    0    0  0.47124697015E+02  0.40529486385E+03 -0.72960733326E+03  0.84982538059E+03  0.15294330000E+03 0.  0.
<mgrwt>
<rscale>  0 0.67095839E+03</rscale>
<asrwt>0</asrwt>
<pdfrwt beam="1">  1        2 0.35314662E+00 0.77478698E+03</pdfrwt>
<pdfrwt beam="2">  1       -2 0.13182356E+00 0.77478698E+03</pdfrwt>
<totfact> 0.19886737E+00</totfact>
</mgrwt>
</event>
<event>
 4    5  0.2025789E-007  0.1178918E+04  0.7818608E-02  0.9177893E-01
         -2   -1    0    0    0  501 -0.00000000000E+00  0.00000000000E+00  0.52458217040E+03  0.52458217041E+03  0.25500000000E-02 0.  1.
          2   -1    0    0  501    0  0.00000000000E+00 -0.00000000000E+00 -0.42344488254E+04  0.42344488254E+04  0.25500000000E-02 0. -1.
    8880023    1    1    2    0    0 -0.62138788548E+03 -0.75492638079E+03 -0.35698950036E+04  0.37595208853E+04  0.65864270000E+03 0.  0.
    8880022    1    1    2    0    0  0.62138788548E+03  0.75492638079E+03 -0.13997165141E+03  0.99951011043E+03  0.15294330000E+03 0.  0.
<mgrwt>
<rscale>  0 0.11284549E+04</rscale>
<asrwt>0</asrwt>
<pdfrwt beam="1">  1        2 0.65145364E+00 0.11789177E+04</pdfrwt>
<pdfrwt beam="2">  1       -2 0.80704952E-01 0.11789177E+04</pdfrwt>
<totfact> 0.30208808E-01</totfact>
</mgrwt>
</event>
<event>
 4    5  0.2025789E-007  0.1013450E+04  0.7818608E-02  0.9364169E-01
          2   -1    0    0  501    0  0.00000000000E+00  0.00000000000E+00  0.45720174260E+04  0.45720174260E+04  0.25500000000E-02 0. -1.
         -2   -1    0    0    0  501 -0.00000000000E+00 -0.00000000000E+00 -0.36820677063E+03  0.36820677064E+03  0.25500000000E-02 0.  1.
    8880023    1    1    2    0    0  0.53880372407E+03 -0.55041826985E+03  0.40035275287E+04  0.41298078168E+04  0.65864270000E+03 0. -1.
    8880022    1    1    2    0    0 -0.53880372407E+03  0.55041826985E+03  0.20028312674E+03  0.81041637985E+03  0.15294330000E+03 0.  0.
<mgrwt>
<rscale>  0 0.95083998E+03</rscale>
<asrwt>0</asrwt>
<pdfrwt beam="1">  1        2 0.70338728E+00 0.10134495E+04</pdfrwt>
<pdfrwt beam="2">  1       -2 0.56647197E-01 0.10134495E+04</pdfrwt>
<totfact> 0.32845010E-01</totfact>
</mgrwt>
</event>
<event>
 4    5  0.2025789E-007  0.7599837E+03  0.7818608E-02  0.9805150E-01
         -2   -1    0    0    0  501 -0.00000000000E+00  0.00000000000E+00  0.45228522830E+03  0.45228522830E+03  0.25500000000E-02 0.  1.
          2   -1    0    0  501    0  0.00000000000E+00 -0.00000000000E+00 -0.84651495654E+03  0.84651495654E+03  0.25500000000E-02 0. -1.
    8880023    1    1    2    0    0  0.37611343159E+03  0.47997061140E+02 -0.45452093706E+03  0.88553064306E+03  0.65864270000E+03 0.  0.
    8880022    1    1    2    0    0 -0.37611343159E+03 -0.47997061140E+02  0.60291208820E+02  0.41326954179E+03  0.15294330000E+03 0.  0.
<mgrwt>
<rscale>  0 0.65086914E+03</rscale>
<asrwt>0</asrwt>
<pdfrwt beam="1">  1        2 0.13023307E+00 0.75998371E+03</pdfrwt>
<pdfrwt beam="2">  1       -2 0.69582343E-01 0.75998371E+03</pdfrwt>
<totfact> 0.60892794E+01</totfact>
</mgrwt>
</event>
<event>
 4    5  0.2025789E-007  0.9728564E+03  0.7818608E-02  0.9417964E-01
         -2   -1    0    0    0  501 -0.00000000000E+00  0.00000000000E+00  0.38393949256E+03  0.38393949257E+03  0.25500000000E-02 0.  1.
          2   -1    0    0  501    0  0.00000000000E+00 -0.00000000000E+00 -0.20448530131E+04  0.20448530131E+04  0.25500000000E-02 0. -1.
    8880023    1    1    2    0    0  0.19332315316E+02 -0.71572731476E+03 -0.12669768546E+04  0.15973978477E+04  0.65864270000E+03 0.  0.
    8880022    1    1    2    0    0 -0.19332315316E+02  0.71572731476E+03 -0.39393666594E+03  0.83139465797E+03  0.15294330000E+03 0.  0.
<mgrwt>
<rscale>  0 0.90611910E+03</rscale>
<asrwt>0</asrwt>
<pdfrwt beam="1">  1        2 0.31459276E+00 0.97285638E+03</pdfrwt>
<pdfrwt beam="2">  1       -2 0.59067616E-01 0.97285638E+03</pdfrwt>
<totfact> 0.17008305E+01</totfact>
</mgrwt>
</event>
<event>
 4    5  0.2025789E-007  0.7054501E+03  0.7818608E-02  0.9975301E-01
          2   -1    0    0  501    0  0.00000000000E+00  0.00000000000E+00  0.89866544548E+03  0.89866544549E+03  0.25500000000E-02 0. -1.
         -2   -1    0    0    0  501 -0.00000000000E+00 -0.00000000000E+00 -0.17329414991E+04  0.17329414991E+04  0.25500000000E-02 0.  1.
    8880023    1    1    2    0    0 -0.24986801952E+03 -0.37624781003E+02  0.74438166513E+03  0.10255554207E+04  0.65864270000E+03 0. -1.
    8880022    1    1    2    0    0  0.24986801952E+03  0.37624781003E+02 -0.15786577187E+04  0.16060515238E+04  0.15294330000E+03 0.  0.
<mgrwt>
<rscale>  0 0.56746620E+03</rscale>
<asrwt>0</asrwt>
<pdfrwt beam="1">  1        2 0.13825622E+00 0.70545011E+03</pdfrwt>
<pdfrwt beam="2">  1       -2 0.26660638E+00 0.70545011E+03</pdfrwt>
<totfact> 0.15608570E+00</totfact>
</mgrwt>
</event>
<event>
 4    5  0.2025789E-007  0.1297279E+04  0.7818608E-02  0.9067913E-01
         -2   -1    0    0    0  501 -0.00000000000E+00  0.00000000000E+00  0.19910129053E+04  0.19910129053E+04  0.25500000000E-02 0.  1.
          2   -1    0    0  501    0  0.00000000000E+00 -0.00000000000E+00 -0.14771881380E+04  0.14771881380E+04  0.25500000000E-02 0. -1.
    8880023    1    1    2    0    0 -0.69046199102E+03  0.87885379598E+03 -0.95882025201E+03  0.16131547470E+04  0.65864270000E+03 0.  0.
    8880022    1    1    2    0    0  0.69046199102E+03 -0.87885379598E+03  0.14726450193E+04  0.18550462964E+04  0.15294330000E+03 0. -1.
<mgrwt>
<rscale>  0 0.12527308E+04</rscale>
<asrwt>0</asrwt>
<pdfrwt beam="1">  1        2 0.22725971E+00 0.12972787E+04</pdfrwt>
<pdfrwt beam="2">  1       -2 0.30630968E+00 0.12972787E+04</pdfrwt>
<totfact> 0.36643812E-01</totfact>
</mgrwt>
</event>
<event>
 4    5  0.2025789E-007  0.7232711E+03  0.7818608E-02  0.9911669E-01
          2   -1    0    0  501    0  0.00000000000E+00  0.00000000000E+00  0.80176738764E+03  0.80176738764E+03  0.25500000000E-02 0. -1.
         -2   -1    0    0    0  501 -0.00000000000E+00 -0.00000000000E+00 -0.70572683010E+03  0.70572683011E+03  0.25500000000E-02 0.  1.
    8880023    1    1    2    0    0  0.12812147219E+03  0.26999213768E+03  0.57403738958E+03  0.92338507512E+03  0.65864270000E+03 0. -1.
    8880022    1    1    2    0    0 -0.12812147219E+03 -0.26999213768E+03 -0.47799683204E+03  0.58410914263E+03  0.15294330000E+03 0.  0.
<mgrwt>
<rscale>  0 0.59699066E+03</rscale>
<asrwt>0</asrwt>
<pdfrwt beam="1">  1        2 0.12334883E+00 0.72327109E+03</pdfrwt>
<pdfrwt beam="2">  1       -2 0.10857336E+00 0.72327109E+03</pdfrwt>
<totfact> 0.23686081E+01</totfact>
</mgrwt>
</event>
<event>
 4    5  0.2025789E-007  0.9744702E+03  0.7818608E-02  0.9415748E-01
          2   -1    0    0  501    0  0.00000000000E+00  0.00000000000E+00  0.29229024301E+04  0.29229024301E+04  0.25500000000E-02 0. -1.
         -2   -1    0    0    0  501 -0.00000000000E+00 -0.00000000000E+00 -0.62786984568E+03  0.62786984569E+03  0.25500000000E-02 0.  1.
    8880023    1    1    2    0    0 -0.18187605446E+02 -0.71794924932E+03  0.25840273136E+04  0.27616642224E+04  0.65864270000E+03 0.  0.
    8880022    1    1    2    0    0  0.18187605446E+02  0.71794924932E+03 -0.28899472910E+03  0.78910805347E+03  0.15294330000E+03 0.  0.
<mgrwt>
<rscale>  0 0.90790935E+03</rscale>
<asrwt>0</asrwt>
<pdfrwt beam="1">  1        2 0.44967730E+00 0.97447017E+03</pdfrwt>
<pdfrwt beam="2">  1       -2 0.96595360E-01 0.97447017E+03</pdfrwt>
<totfact> 0.17815873E+00</totfact>
</mgrwt>
</event>
<event>
 4    5  0.2025789E-007  0.1000902E+04  0.7818608E-02  0.9380379E-01
         -2   -1    0    0    0  501 -0.00000000000E+00  0.00000000000E+00  0.50410825467E+03  0.50410825468E+03  0.25500000000E-02 0.  1.
          2   -1    0    0  501    0  0.00000000000E+00 -0.00000000000E+00 -0.21582324647E+04  0.21582324647E+04  0.25500000000E-02 0. -1.
    8880023    1    1    2    0    0 -0.72894624058E+03  0.19139247222E+03 -0.16053089118E+04  0.18917771033E+04  0.65864270000E+03 0.  0.
    8880022    1    1    2    0    0  0.72894624058E+03 -0.19139247222E+03 -0.48815298264E+02  0.77056361609E+03  0.15294330000E+03 0.  0.
<mgrwt>
<rscale>  0 0.93708145E+03</rscale>
<asrwt>0</asrwt>
<pdfrwt beam="1">  1        2 0.33203576E+00 0.10009015E+04</pdfrwt>
<pdfrwt beam="2">  1       -2 0.77555117E-01 0.10009015E+04</pdfrwt>
<totfact> 0.81140982E+00</totfact>
</mgrwt>
</event>
<event>
 4    5  0.2025789E-007  0.1019704E+04  0.7818608E-02  0.9356221E-01
          2   -1    0    0  501    0  0.00000000000E+00  0.00000000000E+00  0.10510664445E+04  0.10510664445E+04  0.25500000000E-02 0. -1.
         -2   -1    0    0    0  501 -0.00000000000E+00 -0.00000000000E+00 -0.12506241665E+04  0.12506241665E+04  0.25500000000E-02 0.  1.
    8880023    1    1    2    0    0 -0.74420237530E+03 -0.22836212534E+03  0.59357900821E+03  0.11798867238E+04  0.65864270000E+03 0. -1.
    8880022    1    1    2    0    0  0.74420237530E+03  0.22836212534E+03 -0.79313673019E+03  0.11218038873E+04  0.15294330000E+03 0.  0.
<mgrwt>
<rscale>  0 0.95767821E+03</rscale>
<asrwt>0</asrwt>
<pdfrwt beam="1">  1        2 0.16170253E+00 0.10197042E+04</pdfrwt>
<pdfrwt beam="2">  1       -2 0.19240372E+00 0.10197042E+04</pdfrwt>
<totfact> 0.34545944E+00</totfact>
</mgrwt>
</event>
<event>
 4    5  0.2025789E-007  0.2365355E+04  0.7818608E-02  0.8461182E-01
          2   -1    0    0  501    0  0.00000000000E+00  0.00000000000E+00  0.39029856708E+04  0.39029856708E+04  0.25500000000E-02 0. -1.
         -2   -1    0    0    0  501 -0.00000000000E+00 -0.00000000000E+00 -0.22518057280E+04  0.22518057280E+04  0.25500000000E-02 0.  1.
    8880023    1    1    2    0    0  0.21533314697E+04  0.72405564899E+03  0.27493787867E+04  0.36268425553E+04  0.65864270000E+03 0. -1.
    8880022    1    1    2    0    0 -0.21533314697E+04 -0.72405564899E+03 -0.10981988440E+04  0.25279488435E+04  0.15294330000E+03 0.  0.
<mgrwt>
<rscale>  0 0.23429359E+04</rscale>
<asrwt>0</asrwt>
<pdfrwt beam="1">  1        2 0.60045933E+00 0.23653548E+04</pdfrwt>
<pdfrwt beam="2">  1       -2 0.34643165E+00 0.23653548E+04</pdfrwt>
<totfact> 0.56710129E-03</totfact>
</mgrwt>
</event>
<event>
 4    5  0.2025789E-007  0.1079006E+04  0.7818608E-02  0.9284799E-01
          2   -1    0    0  501    0  0.00000000000E+00  0.00000000000E+00  0.22013405010E+04  0.22013405010E+04  0.25500000000E-02 0. -1.
         -2   -1    0    0    0  501 -0.00000000000E+00 -0.00000000000E+00 -0.49589293380E+03  0.49589293381E+03  0.25500000000E-02 0.  1.
    8880023    1    1    2    0    0  0.82406238113E+03  0.22663672335E+03  0.14196674851E+04  0.17831738521E+04  0.65864270000E+03 0.  0.
    8880022    1    1    2    0    0 -0.82406238113E+03 -0.22663672335E+03  0.28578008209E+03  0.91405958268E+03  0.15294330000E+03 0.  0.
<mgrwt>
<rscale>  0 0.10219445E+04</rscale>
<asrwt>0</asrwt>
<pdfrwt beam="1">  1        2 0.33866777E+00 0.10790057E+04</pdfrwt>
<pdfrwt beam="2">  1       -2 0.76291220E-01 0.10790057E+04</pdfrwt>
<totfact> 0.78953633E+00</totfact>
</mgrwt>
</event>
<event>
 4    5  0.2573779E-007  0.1043707E+04  0.7818608E-02  0.9326484E-01
          2   -1    0    0  501    0  0.00000000000E+00  0.00000000000E+00  0.22125471152E+04  0.22125471152E+04  0.25500000000E-02 0. -1.
         -2   -1    0    0    0  501 -0.00000000000E+00 -0.00000000000E+00 -0.12629794975E+04  0.12629794975E+04  0.25500000000E-02 0.  1.
    8880023    1    1    2    0    0  0.16567040793E+03 -0.79250763502E+03  0.19304298550E+04  0.21945123985E+04  0.65864270000E+03 0.  0.
    8880022    1    1    2    0    0 -0.16567040793E+03  0.79250763502E+03 -0.98086223729E+03  0.12810142143E+04  0.15294330000E+03 0.  0.
<mgrwt>
<rscale>  0 0.98380800E+03</rscale>
<asrwt>0</asrwt>
<pdfrwt beam="1">  1        2 0.34039186E+00 0.10437075E+04</pdfrwt>
<pdfrwt beam="2">  1       -2 0.19430454E+00 0.10437075E+04</pdfrwt>
<totfact> 0.73293130E-01</totfact>
</mgrwt>
</event>
<event>
 4    5  0.2025789E-007  0.1790308E+04  0.7818608E-02  0.8727917E-01
         -2   -1    0    0    0  501 -0.00000000000E+00  0.00000000000E+00  0.11164143178E+04  0.11164143178E+04  0.25500000000E-02 0.  1.
          2   -1    0    0  501    0  0.00000000000E+00 -0.00000000000E+00 -0.37254749926E+04  0.37254749926E+04  0.25500000000E-02 0. -1.
    8880023    1    1    2    0    0  0.16052461906E+04  0.44111036142E+03 -0.26161828085E+04  0.31701129913E+04  0.65864270000E+03 0.  0.
    8880022    1    1    2    0    0 -0.16052461906E+04 -0.44111036142E+03  0.71221337483E+01  0.16717763192E+04  0.15294330000E+03 0.  0.
<mgrwt>
<rscale>  0 0.17599058E+04</rscale>
<asrwt>0</asrwt>
<pdfrwt beam="1">  1        2 0.57314999E+00 0.17903083E+04</pdfrwt>
<pdfrwt beam="2">  1       -2 0.17175605E+00 0.17903083E+04</pdfrwt>
<totfact> 0.10645332E-01</totfact>
</mgrwt>
</event>
<event>
 4    5  0.2025789E-007  0.1015995E+04  0.7818608E-02  0.9360924E-01
         -2   -1    0    0    0  501 -0.00000000000E+00  0.00000000000E+00  0.61819516501E+03  0.61819516502E+03  0.25500000000E-02 0.  1.
          2   -1    0    0  501    0  0.00000000000E+00 -0.00000000000E+00 -0.17170303251E+04  0.17170303251E+04  0.25500000000E-02 0. -1.
    8880023    1    1    2    0    0 -0.42473930691E+03 -0.64655415612E+03 -0.11627293891E+04  0.15440808250E+04  0.65864270000E+03 0.  0.
    8880022    1    1    2    0    0  0.42473930691E+03  0.64655415612E+03  0.63894229003E+02  0.79114466512E+03  0.15294330000E+03 0.  0.
<mgrwt>
<rscale>  0 0.95362457E+03</rscale>
<asrwt>0</asrwt>
<pdfrwt beam="1">  1        2 0.26415851E+00 0.10159951E+04</pdfrwt>
<pdfrwt beam="2">  1       -2 0.95106949E-01 0.10159951E+04</pdfrwt>
<totfact> 0.88831891E+00</totfact>
</mgrwt>
</event>
<event>
 4    5  0.2025789E-007  0.1361731E+04  0.7818608E-02  0.9014004E-01
         -2   -1    0    0    0  501 -0.00000000000E+00  0.00000000000E+00  0.17855163285E+04  0.17855163285E+04  0.25500000000E-02 0.  1.
          2   -1    0    0  501    0  0.00000000000E+00 -0.00000000000E+00 -0.14043068613E+04  0.14043068613E+04  0.25500000000E-02 0. -1.
    8880023    1    1    2    0    0 -0.11874166310E+04  0.10267466261E+03 -0.73701381376E+03  0.15483862276E+04  0.65864270000E+03 0.  0.
    8880022    1    1    2    0    0  0.11874166310E+04 -0.10267466261E+03  0.11182232809E+04  0.16414369622E+04  0.15294330000E+03 0.  0.
<mgrwt>
<rscale>  0 0.13198065E+04</rscale>
<asrwt>0</asrwt>
<pdfrwt beam="1">  1        2 0.21604721E+00 0.13617307E+04</pdfrwt>
<pdfrwt beam="2">  1       -2 0.27469482E+00 0.13617307E+04</pdfrwt>
<totfact> 0.62361074E-01</totfact>
</mgrwt>
</event>
<event>
 4    5  0.2025789E-007  0.7925748E+03  0.7818608E-02  0.9727087E-01
         -2   -1    0    0    0  501 -0.00000000000E+00  0.00000000000E+00  0.65433788739E+03  0.65433788740E+03  0.25500000000E-02 0.  1.
          2   -1    0    0  501    0  0.00000000000E+00 -0.00000000000E+00 -0.14615562076E+04  0.14615562076E+04  0.25500000000E-02 0. -1.
    8880023    1    1    2    0    0 -0.34012204895E+02 -0.43955414796E+03 -0.12451116913E+04  0.14759668049E+04  0.65864270000E+03 0. -1.
    8880022    1    1    2    0    0  0.34012204895E+02  0.43955414796E+03  0.43789337114E+03  0.63992729007E+03  0.15294330000E+03 0.  0.
<mgrwt>
<rscale>  0 0.69426706E+03</rscale>
<asrwt>0</asrwt>
<pdfrwt beam="1">  1        2 0.22485480E+00 0.79257485E+03</pdfrwt>
<pdfrwt beam="2">  1       -2 0.10066737E+00 0.79257485E+03</pdfrwt>
<totfact> 0.11049987E+01</totfact>
</mgrwt>
</event>
<event>
 4    5  0.2025789E-007  0.9691456E+03  0.7818608E-02  0.9423087E-01
         -2   -1    0    0    0  501 -0.00000000000E+00  0.00000000000E+00  0.13265783276E+04  0.13265783276E+04  0.25500000000E-02 0.  1.
          2   -1    0    0  501    0  0.00000000000E+00 -0.00000000000E+00 -0.74744514604E+03  0.74744514604E+03  0.25500000000E-02 0. -1.
    8880023    1    1    2    0    0 -0.62070635786E+03  0.34663618717E+03 -0.21972977584E+03  0.99374262744E+03  0.65864270000E+03 0.  0.
    8880022    1    1    2    0    0  0.62070635786E+03 -0.34663618717E+03  0.79886295737E+03  0.10802808462E+04  0.15294330000E+03 0.  0.
<mgrwt>
<rscale>  0 0.90199835E+03</rscale>
<asrwt>0</asrwt>
<pdfrwt beam="1">  1        2 0.11499156E+00 0.96914562E+03</pdfrwt>
<pdfrwt beam="2">  1       -2 0.20408897E+00 0.96914562E+03</pdfrwt>
<totfact> 0.46939140E+00</totfact>
</mgrwt>
</event>
<event>
 4    5  0.2025789E-007  0.1564256E+04  0.7818608E-02  0.8865546E-01
          2   -1    0    0  501    0  0.00000000000E+00  0.00000000000E+00  0.81311657502E+03  0.81311657502E+03  0.25500000000E-02 0. -1.
         -2   -1    0    0    0  501 -0.00000000000E+00 -0.00000000000E+00 -0.36383690118E+04  0.36383690118E+04  0.25500000000E-02 0.  1.
    8880023    1    1    2    0    0  0.12972975852E+04 -0.57454928077E+03 -0.36337678234E+03  0.16059080898E+04  0.65864270000E+03 0.  0.
    8880022    1    1    2    0    0 -0.12972975852E+04  0.57454928077E+03 -0.24618756544E+04  0.28455774970E+04  0.15294330000E+03 0.  0.
<mgrwt>
<rscale>  0 0.15287658E+04</rscale>
<asrwt>0</asrwt>
<pdfrwt beam="1">  1        2 0.12509486E+00 0.15642564E+04</pdfrwt>
<pdfrwt beam="2">  1       -2 0.55974907E+00 0.15642564E+04</pdfrwt>
<totfact> 0.23730926E-02</totfact>
</mgrwt>
</event>
<event>
 4    5  0.2025789E-007  0.7931489E+03  0.7818608E-02  0.9725810E-01
         -2   -1    0    0    0  501 -0.00000000000E+00  0.00000000000E+00  0.48862180019E+03  0.48862180020E+03  0.25500000000E-02 0.  1.
          2   -1    0    0  501    0  0.00000000000E+00 -0.00000000000E+00 -0.81556999079E+03  0.81556999080E+03  0.25500000000E-02 0. -1.
    8880023    1    1    2    0    0  0.40024900629E+03 -0.18728523103E+03 -0.17213453481E+03  0.81161291829E+03  0.65864270000E+03 0. -1.
    8880022    1    1    2    0    0 -0.40024900629E+03  0.18728523103E+03 -0.15481365580E+03  0.49257887271E+03  0.15294330000E+03 0.  1.
<mgrwt>
<rscale>  0 0.69500653E+03</rscale>
<asrwt>0</asrwt>
<pdfrwt beam="1">  1        2 0.12547231E+00 0.79314893E+03</pdfrwt>
<pdfrwt beam="2">  1       -2 0.75172585E-01 0.79314893E+03</pdfrwt>
<totfact> 0.53882748E+01</totfact>
</mgrwt>
</event>
<event>
 4    5  0.2025789E-007  0.1014867E+04  0.7818608E-02  0.9362361E-01
          2   -1    0    0  501    0  0.00000000000E+00  0.00000000000E+00  0.63199755987E+03  0.63199755987E+03  0.25500000000E-02 0. -1.
         -2   -1    0    0    0  501 -0.00000000000E+00 -0.00000000000E+00 -0.20852721821E+04  0.20852721821E+04  0.25500000000E-02 0.  1.
    8880023    1    1    2    0    0  0.10185141354E+03 -0.76535637640E+03  0.54587391144E+02  0.10163336474E+04  0.65864270000E+03 0. -1.
    8880022    1    1    2    0    0 -0.10185141354E+03  0.76535637640E+03 -0.15078620133E+04  0.17009360945E+04  0.15294330000E+03 0.  0.
<mgrwt>
<rscale>  0 0.95239044E+03</rscale>
<asrwt>0</asrwt>
<pdfrwt beam="1">  1        2 0.97230395E-01 0.10148666E+04</pdfrwt>
<pdfrwt beam="2">  1       -2 0.32081110E+00 0.10148666E+04</pdfrwt>
<totfact> 0.11094946E+00</totfact>
</mgrwt>
</event>
<event>
 4    5  0.2025789E-007  0.7026441E+03  0.7818608E-02  0.9986404E-01
         -2   -1    0    0    0  501 -0.00000000000E+00  0.00000000000E+00  0.52171912132E+03  0.52171912133E+03  0.25500000000E-02 0.  1.
          2   -1    0    0  501    0  0.00000000000E+00 -0.00000000000E+00 -0.10254577174E+04  0.10254577174E+04  0.25500000000E-02 0. -1.
    8880023    1    1    2    0    0  0.19547444906E+03  0.14726928103E+03 -0.84583105620E+03  0.10996085136E+04  0.65864270000E+03 0. -1.
    8880022    1    1    2    0    0 -0.19547444906E+03 -0.14726928103E+03  0.34209246010E+03  0.44756832511E+03  0.15294330000E+03 0.  0.
<mgrwt>
<rscale>  0 0.56250418E+03</rscale>
<asrwt>0</asrwt>
<pdfrwt beam="1">  1        2 0.15776273E+00 0.70264408E+03</pdfrwt>
<pdfrwt beam="2">  1       -2 0.80264480E-01 0.70264408E+03</pdfrwt>
<totfact> 0.33988320E+01</totfact>
</mgrwt>
</event>
<event>
 4    5  0.2025789E-007  0.7061282E+03  0.7818608E-02  0.9972670E-01
         -2   -1    0    0    0  501 -0.00000000000E+00  0.00000000000E+00  0.59090745794E+03  0.59090745794E+03  0.25500000000E-02 0.  1.
          2   -1    0    0  501    0  0.00000000000E+00 -0.00000000000E+00 -0.52150188715E+03  0.52150188716E+03  0.25500000000E-02 0. -1.
    8880023    1    1    2    0    0  0.50968192505E+02 -0.24941749046E+03 -0.17534120795E+03  0.72757239273E+03  0.65864270000E+03 0.  0.
    8880022    1    1    2    0    0 -0.50968192505E+02  0.24941749046E+03  0.24474677873E+03  0.38483695237E+03  0.15294330000E+03 0.  0.
<mgrwt>
<rscale>  0 0.56865036E+03</rscale>
<asrwt>0</asrwt>
<pdfrwt beam="1">  1        2 0.80231059E-01 0.70612821E+03</pdfrwt>
<pdfrwt beam="2">  1       -2 0.90908840E-01 0.70612821E+03</pdfrwt>
<totfact> 0.61409830E+01</totfact>
</mgrwt>
</event>
<event>
 4    5  0.2025789E-007  0.1046708E+04  0.7818608E-02  0.9322849E-01
          2   -1    0    0  501    0  0.00000000000E+00  0.00000000000E+00  0.16162046856E+04  0.16162046856E+04  0.25500000000E-02 0. -1.
         -2   -1    0    0    0  501 -0.00000000000E+00 -0.00000000000E+00 -0.56904838187E+03  0.56904838187E+03  0.25500000000E-02 0.  1.
    8880023    1    1    2    0    0 -0.88659061950E+02 -0.80865767991E+03  0.35197856993E+03  0.11043037592E+04  0.65864270000E+03 0.  0.
    8880022    1    1    2    0    0  0.88659061950E+02  0.80865767991E+03  0.69517773380E+03  0.10809493083E+04  0.15294330000E+03 0.  0.
<mgrwt>
<rscale>  0 0.98706266E+03</rscale>
<asrwt>0</asrwt>
<pdfrwt beam="1">  1        2 0.24864687E+00 0.10467081E+04</pdfrwt>
<pdfrwt beam="2">  1       -2 0.87545906E-01 0.10467081E+04</pdfrwt>
<totfact> 0.12211772E+01</totfact>
</mgrwt>
</event>
<event>
 4    5  0.2025789E-007  0.6954048E+03  0.7818608E-02  0.1001683E+00
          2   -1    0    0  501    0  0.00000000000E+00  0.00000000000E+00  0.22392618978E+04  0.22392618978E+04  0.25500000000E-02 0. -1.
         -2   -1    0    0    0  501 -0.00000000000E+00 -0.00000000000E+00 -0.17443320829E+03  0.17443320831E+03  0.25500000000E-02 0.  1.
    8880023    1    1    2    0    0 -0.22244311682E+03  0.17223831363E+02  0.20240015769E+04  0.21401332178E+04  0.65864270000E+03 0. -1.
    8880022    1    1    2    0    0  0.22244311682E+03 -0.17223831363E+02  0.40827112646E+02  0.27356188830E+03  0.15294330000E+03 0.  0.
<mgrwt>
<rscale>  0 0.54918584E+03</rscale>
<asrwt>0</asrwt>
<pdfrwt beam="1">  1        2 0.34450184E+00 0.69540478E+03</pdfrwt>
<pdfrwt beam="2">  1       -2 0.26835877E-01 0.69540478E+03</pdfrwt>
<totfact> 0.64323920E+01</totfact>
</mgrwt>
</event>
<event>
 4    5  0.2025789E-007  0.1225282E+04  0.7818608E-02  0.9132930E-01
         -2   -1    0    0    0  501 -0.00000000000E+00  0.00000000000E+00  0.72265628085E+03  0.72265628085E+03  0.25500000000E-02 0.  1.
          2   -1    0    0  501    0  0.00000000000E+00 -0.00000000000E+00 -0.34205727387E+04  0.34205727387E+04  0.25500000000E-02 0. -1.
    8880023    1    1    2    0    0  0.82386432522E+03  0.62350045956E+03 -0.28362954863E+04  0.30896419762E+04  0.65864270000E+03 0.  0.
    8880022    1    1    2    0    0 -0.82386432522E+03 -0.62350045956E+03  0.13837902840E+03  0.10535870434E+04  0.15294330000E+03 0.  0.
<mgrwt>
<rscale>  0 0.11773347E+04</rscale>
<asrwt>0</asrwt>
<pdfrwt beam="1">  1        2 0.52624195E+00 0.12252818E+04</pdfrwt>
<pdfrwt beam="2">  1       -2 0.11117789E+00 0.12252818E+04</pdfrwt>
<totfact> 0.58707124E-01</totfact>
</mgrwt>
</event>
<event>
 4    5  0.2025789E-007  0.6615495E+03  0.7818608E-02  0.1022622E+00
          2   -1    0    0  501    0  0.00000000000E+00  0.00000000000E+00  0.14165478898E+04  0.14165478898E+04  0.25500000000E-02 0. -1.
         -2   -1    0    0    0  501 -0.00000000000E+00 -0.00000000000E+00 -0.34040304656E+03  0.34040304657E+03  0.25500000000E-02 0.  1.
    8880023    1    1    2    0    0  0.42332296773E+02  0.45227501800E+02  0.13118548465E+04  0.14692211865E+04  0.65864270000E+03 0. -1.
    8880022    1    1    2    0    0 -0.42332296773E+02 -0.45227501800E+02 -0.23571000330E+03  0.28772974984E+03  0.15294330000E+03 0.  0.
<mgrwt>
<rscale>  0 0.46752101E+03</rscale>
<asrwt>0</asrwt>
<pdfrwt beam="1">  1        2 0.21793044E+00 0.66154951E+03</pdfrwt>
<pdfrwt beam="2">  1       -2 0.52369700E-01 0.66154951E+03</pdfrwt>
<totfact> 0.50202630E+01</totfact>
</mgrwt>
</event>
<event>
 4    5  0.2025789E-007  0.1117089E+04  0.7818608E-02  0.9242264E-01
          2   -1    0    0  501    0  0.00000000000E+00  0.00000000000E+00  0.23465179998E+04  0.23465179998E+04  0.25500000000E-02 0. -1.
         -2   -1    0    0    0  501 -0.00000000000E+00 -0.00000000000E+00 -0.11150609871E+04  0.11150609871E+04  0.25500000000E-02 0.  1.
    8880023    1    1    2    0    0 -0.12606633066E+03 -0.89341189221E+03  0.19839276544E+04  0.22768084402E+04  0.65864270000E+03 0. -1.
    8880022    1    1    2    0    0  0.12606633066E+03  0.89341189221E+03 -0.75247064176E+03  0.11847705468E+04  0.15294330000E+03 0.  0.
<mgrwt>
<rscale>  0 0.10627642E+04</rscale>
<asrwt>0</asrwt>
<pdfrwt beam="1">  1        2 0.36100276E+00 0.11170890E+04</pdfrwt>
<pdfrwt beam="2">  1       -2 0.17154785E+00 0.11170890E+04</pdfrwt>
<totfact> 0.87373849E-01</totfact>
</mgrwt>
</event>
<event>
 4    5  0.2025789E-007  0.7923736E+03  0.7818608E-02  0.9727535E-01
          2   -1    0    0  501    0  0.00000000000E+00  0.00000000000E+00  0.92517963803E+03  0.92517963803E+03  0.25500000000E-02 0. -1.
         -2   -1    0    0    0  501 -0.00000000000E+00 -0.00000000000E+00 -0.25808597512E+04  0.25808597512E+04  0.25500000000E-02 0.  1.
    8880023    1    1    2    0    0 -0.10870052956E+03 -0.42688394061E+03  0.72869245146E+03  0.10764983042E+04  0.65864270000E+03 0. -1.
    8880022    1    1    2    0    0  0.10870052956E+03  0.42688394061E+03 -0.23843725646E+04  0.24295410850E+04  0.15294330000E+03 0.  0.
<mgrwt>
<rscale>  0 0.69400766E+03</rscale>
<asrwt>0</asrwt>
<pdfrwt beam="1">  1        2 0.14233533E+00 0.79237359E+03</pdfrwt>
<pdfrwt beam="2">  1       -2 0.39705534E+00 0.79237359E+03</pdfrwt>
<totfact> 0.23137979E-01</totfact>
</mgrwt>
</event>
<event>
 4    5  0.2025789E-007  0.9220638E+03  0.7818608E-02  0.9491502E-01
          2   -1    0    0  501    0  0.00000000000E+00  0.00000000000E+00  0.21623255524E+04  0.21623255524E+04  0.25500000000E-02 0. -1.
         -2   -1    0    0    0  501 -0.00000000000E+00 -0.00000000000E+00 -0.53638050340E+03  0.53638050341E+03  0.25500000000E-02 0.  1.
    8880023    1    1    2    0    0  0.64223859822E+03 -0.62618550112E+02  0.17917904330E+04  0.20151215005E+04  0.65864270000E+03 0. -1.
    8880022    1    1    2    0    0 -0.64223859822E+03  0.62618550112E+02 -0.16584538396E+03  0.68358455531E+03  0.15294330000E+03 0.  0.
<mgrwt>
<rscale>  0 0.84913269E+03</rscale>
<asrwt>0</asrwt>
<pdfrwt beam="1">  1        2 0.33266547E+00 0.92206383E+03</pdfrwt>
<pdfrwt beam="2">  1       -2 0.82520078E-01 0.92206383E+03</pdfrwt>
<totfact> 0.70862796E+00</totfact>
</mgrwt>
</event>
<event>
 4    5  0.2025789E-007  0.8704812E+03  0.7818608E-02  0.9575185E-01
          2   -1    0    0  501    0  0.00000000000E+00  0.00000000000E+00  0.10634369269E+04  0.10634369269E+04  0.25500000000E-02 0. -1.
         -2   -1    0    0    0  501 -0.00000000000E+00 -0.00000000000E+00 -0.89257771716E+03  0.89257771716E+03  0.25500000000E-02 0.  1.
    8880023    1    1    2    0    0  0.51269503784E+03 -0.24712577006E+03 -0.54634920495E+03  0.10277329459E+04  0.65864270000E+03 0.  0.
    8880022    1    1    2    0    0 -0.51269503784E+03  0.24712577006E+03  0.71720841474E+03  0.92828169822E+03  0.15294330000E+03 0.  0.
<mgrwt>
<rscale>  0 0.78960633E+03</rscale>
<asrwt>0</asrwt>
<pdfrwt beam="1">  1        2 0.16360568E+00 0.87048122E+03</pdfrwt>
<pdfrwt beam="2">  1       -2 0.13731965E+00 0.87048122E+03</pdfrwt>
<totfact> 0.87080295E+00</totfact>
</mgrwt>
</event>
<event>
 4    5  0.2025789E-007  0.1704931E+04  0.7818608E-02  0.8777032E-01
         -2   -1    0    0    0  501 -0.00000000000E+00  0.00000000000E+00  0.15985371212E+04  0.15985371212E+04  0.25500000000E-02 0.  1.
          2   -1    0    0  501    0  0.00000000000E+00 -0.00000000000E+00 -0.29523460671E+04  0.29523460671E+04  0.25500000000E-02 0. -1.
    8880023    1    1    2    0    0 -0.10206193977E+04 -0.11963763677E+04 -0.21803149540E+04  0.27677723666E+04  0.65864270000E+03 0.  1.
    8880022    1    1    2    0    0  0.10206193977E+04  0.11963763677E+04  0.82650600816E+03  0.17831108217E+04  0.15294330000E+03 0.  0.
<mgrwt>
<rscale>  0 0.16727992E+04</rscale>
<asrwt>0</asrwt>
<pdfrwt beam="1">  1        2 0.45420709E+00 0.17049313E+04</pdfrwt>
<pdfrwt beam="2">  1       -2 0.24592879E+00 0.17049313E+04</pdfrwt>
<totfact> 0.11639918E-01</totfact>
</mgrwt>
</event>
<event>
 4    5  0.2258437E-007  0.7672814E+03  0.7818608E-02  0.9786609E-01
         -2   -1    0    0    0  501 -0.00000000000E+00  0.00000000000E+00  0.11289477587E+04  0.11289477587E+04  0.25500000000E-02 0.  1.
          2   -1    0    0  501    0  0.00000000000E+00 -0.00000000000E+00 -0.19114351297E+04  0.19114351297E+04  0.25500000000E-02 0. -1.
    8880023    1    1    2    0    0 -0.28032937046E+03 -0.27627156461E+03 -0.17902417810E+04  0.19477387848E+04  0.65864270000E+03 0. -1.
    8880022    1    1    2    0    0  0.28032937046E+03  0.27627156461E+03  0.10077544099E+04  0.10926441036E+04  0.15294330000E+03 0.  0.
<mgrwt>
<rscale>  0 0.66086170E+03</rscale>
<asrwt>0</asrwt>
<pdfrwt beam="1">  1        2 0.29406694E+00 0.76728140E+03</pdfrwt>
<pdfrwt beam="2">  1       -2 0.17368427E+00 0.76728140E+03</pdfrwt>
<totfact> 0.15539718E+00</totfact>
</mgrwt>
</event>
<event>
 4    5  0.2025789E-007  0.1137761E+04  0.7818608E-02  0.9220135E-01
          2   -1    0    0  501    0  0.00000000000E+00  0.00000000000E+00  0.78370056377E+03  0.78370056377E+03  0.25500000000E-02 0. -1.
         -2   -1    0    0    0  501 -0.00000000000E+00 -0.00000000000E+00 -0.19099508194E+04  0.19099508194E+04  0.25500000000E-02 0.  1.
    8880023    1    1    2    0    0  0.63449258864E+03 -0.67683698265E+03  0.10707690574E+03  0.11427881764E+04  0.65864270000E+03 0.  0.
    8880022    1    1    2    0    0 -0.63449258864E+03  0.67683698265E+03 -0.12333271614E+04  0.15508632068E+04  0.15294330000E+03 0.  0.
<mgrwt>
<rscale>  0 0.10848000E+04</rscale>
<asrwt>0</asrwt>
<pdfrwt beam="1">  1        2 0.12056932E+00 0.11377607E+04</pdfrwt>
<pdfrwt beam="2">  1       -2 0.29383859E+00 0.11377607E+04</pdfrwt>
<totfact> 0.12113079E+00</totfact>
</mgrwt>
</event>
<event>
 4    5  0.2025789E-007  0.1160997E+04  0.7818608E-02  0.9196001E-01
         -2   -1    0    0    0  501 -0.00000000000E+00  0.00000000000E+00  0.88902022657E+03  0.88902022657E+03  0.25500000000E-02 0.  1.
          2   -1    0    0  501    0  0.00000000000E+00 -0.00000000000E+00 -0.27465855671E+04  0.27465855671E+04  0.25500000000E-02 0. -1.
    8880023    1    1    2    0    0  0.42456849835E+03 -0.85664731940E+03 -0.22959068912E+04  0.25727614928E+04  0.65864270000E+03 0. -1.
    8880022    1    1    2    0    0 -0.42456849835E+03  0.85664731940E+03  0.43834155072E+03  0.10628443008E+04  0.15294330000E+03 0.  0.
<mgrwt>
<rscale>  0 0.11094796E+04</rscale>
<asrwt>0</asrwt>
<pdfrwt beam="1">  1        2 0.42255162E+00 0.11609967E+04</pdfrwt>
<pdfrwt beam="2">  1       -2 0.13677234E+00 0.11609967E+04</pdfrwt>
<totfact> 0.93817808E-01</totfact>
</mgrwt>
</event>
<event>
 4    5  0.2025789E-007  0.8966119E+03  0.7818608E-02  0.9531493E-01
         -2   -1    0    0    0  501 -0.00000000000E+00  0.00000000000E+00  0.39091840070E+03  0.39091840071E+03  0.25500000000E-02 0.  1.
          2   -1    0    0  501    0  0.00000000000E+00 -0.00000000000E+00 -0.27945498766E+04  0.27945498766E+04  0.25500000000E-02 0. -1.
    8880023    1    1    2    0    0  0.49347735945E+03  0.35578479587E+03 -0.23958526131E+04  0.25581287449E+04  0.65864270000E+03 0.  0.
    8880022    1    1    2    0    0 -0.49347735945E+03 -0.35578479587E+03 -0.77788627858E+01  0.62733953246E+03  0.15294330000E+03 0.  0.
<mgrwt>
<rscale>  0 0.82001292E+03</rscale>
<asrwt>0</asrwt>
<pdfrwt beam="1">  1        2 0.42993074E+00 0.89661192E+03</pdfrwt>
<pdfrwt beam="2">  1       -2 0.60141294E-01 0.89661192E+03</pdfrwt>
<totfact> 0.62030646E+00</totfact>
</mgrwt>
</event>
<event>
 4    5  0.2025789E-007  0.1182946E+04  0.7818608E-02  0.9173881E-01
         -2   -1    0    0    0  501 -0.00000000000E+00  0.00000000000E+00  0.18588971094E+04  0.18588971094E+04  0.25500000000E-02 0.  1.
          2   -1    0    0  501    0  0.00000000000E+00 -0.00000000000E+00 -0.11948573151E+04  0.11948573151E+04  0.25500000000E-02 0. -1.
    8880023    1    1    2    0    0  0.72562504815E+03 -0.66258449084E+03  0.13879875930E+04  0.18236967079E+04  0.65864270000E+03 0.  0.
    8880022    1    1    2    0    0 -0.72562504815E+03  0.66258449084E+03 -0.72394779860E+03  0.12300577166E+04  0.15294330000E+03 0.  0.
<mgrwt>
<rscale>  0 0.11327130E+04</rscale>
<asrwt>0</asrwt>
<pdfrwt beam="1">  1        2 0.18382420E+00 0.11829455E+04</pdfrwt>
<pdfrwt beam="2">  1       -2 0.28598417E+00 0.11829455E+04</pdfrwt>
<totfact> 0.72188758E-01</totfact>
</mgrwt>
</event>
<event>
 4    5  0.2025789E-007  0.6722464E+03  0.7818608E-02  0.1014101E+00
         -2   -1    0    0    0  501 -0.00000000000E+00  0.00000000000E+00  0.16636109663E+04  0.16636109663E+04  0.25500000000E-02 0.  1.
          2   -1    0    0  501    0  0.00000000000E+00 -0.00000000000E+00 -0.23965426810E+03  0.23965426812E+03  0.25500000000E-02 0. -1.
    8880023    1    1    2    0    0 -0.39843942317E+02 -0.12852057782E+03  0.25865121231E+03  0.72028864669E+03  0.65864270000E+03 0. -1.
    8880022    1    1    2    0    0  0.39843942317E+02  0.12852057782E+03  0.11653054859E+04  0.11829765878E+04  0.15294330000E+03 0.  0.
<mgrwt>
<rscale>  0 0.49876747E+03</rscale>
<asrwt>0</asrwt>
<pdfrwt beam="1">  1        2 0.36869888E-01 0.67224645E+03</pdfrwt>
<pdfrwt beam="2">  1       -2 0.25594015E+00 0.67224645E+03</pdfrwt>
<totfact> 0.86453634E+00</totfact>
</mgrwt>
</event>
<event>
 4    5  0.2025789E-007  0.8049424E+03  0.7818608E-02  0.9700210E-01
          2   -1    0    0  501    0  0.00000000000E+00  0.00000000000E+00  0.15792535099E+04  0.15792535099E+04  0.25500000000E-02 0. -1.
         -2   -1    0    0    0  501 -0.00000000000E+00 -0.00000000000E+00 -0.55703982926E+03  0.55703982927E+03  0.25500000000E-02 0.  1.
    8880023    1    1    2    0    0  0.45922989043E+03  0.56833115047E+02  0.13337847141E+04  0.15578555662E+04  0.65864270000E+03 0. -1.
    8880022    1    1    2    0    0 -0.45922989043E+03 -0.56833115047E+02 -0.31157103352E+03  0.57843777294E+03  0.15294330000E+03 0.  0.
<mgrwt>
<rscale>  0 0.71004309E+03</rscale>
<asrwt>0</asrwt>
<pdfrwt beam="1">  1        2 0.24296208E+00 0.80494242E+03</pdfrwt>
<pdfrwt beam="2">  1       -2 0.85698436E-01 0.80494242E+03</pdfrwt>
<totfact> 0.13800018E+01</totfact>
</mgrwt>
</event>
<event>
 4    5  0.2025789E-007  0.1490760E+04  0.7818608E-02  0.8916188E-01
         -2   -1    0    0    0  501 -0.00000000000E+00  0.00000000000E+00  0.15501614724E+04  0.15501614724E+04  0.25500000000E-02 0.  1.
          2   -1    0    0  501    0  0.00000000000E+00 -0.00000000000E+00 -0.15060449862E+04  0.15060449862E+04  0.25500000000E-02 0. -1.
    8880023    1    1    2    0    0  0.21273153047E+02 -0.13371996740E+04 -0.54445180462E+03  0.15870707259E+04  0.65864270000E+03 0.  0.
    8880022    1    1    2    0    0 -0.21273153047E+02  0.13371996740E+04  0.58856829086E+03  0.14691357327E+04  0.15294330000E+03 0.  0.
<mgrwt>
<rscale>  0 0.14531954E+04</rscale>
<asrwt>0</asrwt>
<pdfrwt beam="1">  1        2 0.23169923E+00 0.14907601E+04</pdfrwt>
<pdfrwt beam="2">  1       -2 0.23848638E+00 0.14907601E+04</pdfrwt>
<totfact> 0.89746266E-01</totfact>
</mgrwt>
</event>
<event>
 4    5  0.2025789E-007  0.1133996E+04  0.7818608E-02  0.9224118E-01
         -2   -1    0    0    0  501 -0.00000000000E+00  0.00000000000E+00  0.49274765498E+03  0.49274765499E+03  0.25500000000E-02 0.  1.
          2   -1    0    0  501    0  0.00000000000E+00 -0.00000000000E+00 -0.28922960821E+04  0.28922960821E+04  0.25500000000E-02 0. -1.
    8880023    1    1    2    0    0  0.39946322872E+03  0.83220518813E+03 -0.21270856223E+04  0.24104853862E+04  0.65864270000E+03 0.  0.
    8880022    1    1    2    0    0 -0.39946322872E+03 -0.83220518813E+03 -0.27246280482E+03  0.97455835088E+03  0.15294330000E+03 0.  0.
<mgrwt>
<rscale>  0 0.10807926E+04</rscale>
<asrwt>0</asrwt>
<pdfrwt beam="1">  1        2 0.44496862E+00 0.11339958E+04</pdfrwt>
<pdfrwt beam="2">  1       -2 0.75807333E-01 0.11339958E+04</pdfrwt>
<totfact> 0.31687776E+00</totfact>
</mgrwt>
</event>
<event>
 4    5  0.2025789E-007  0.9465203E+03  0.7818608E-02  0.9455138E-01
          2   -1    0    0  501    0  0.00000000000E+00  0.00000000000E+00  0.24358355280E+04  0.24358355280E+04  0.25500000000E-02 0. -1.
         -2   -1    0    0    0  501 -0.00000000000E+00 -0.00000000000E+00 -0.34546435467E+03  0.34546435468E+03  0.25500000000E-02 0.  1.
    8880023    1    1    2    0    0  0.20405522404E+03 -0.64842259163E+03  0.17852641433E+04  0.20206604513E+04  0.65864270000E+03 0. -1.
    8880022    1    1    2    0    0 -0.20405522404E+03  0.64842259163E+03  0.30510703001E+03  0.76063943138E+03  0.15294330000E+03 0.  0.
<mgrwt>
<rscale>  0 0.87673649E+03</rscale>
<asrwt>0</asrwt>
<pdfrwt beam="1">  1        2 0.37474393E+00 0.94652026E+03</pdfrwt>
<pdfrwt beam="2">  1       -2 0.53148362E-01 0.94652026E+03</pdfrwt>
<totfact> 0.12876166E+01</totfact>
</mgrwt>
</event>
<event>
 4    5  0.2025789E-007  0.8126420E+03  0.7818608E-02  0.9684100E-01
          2   -1    0    0  501    0  0.00000000000E+00  0.00000000000E+00  0.31020526148E+04  0.31020526148E+04  0.25500000000E-02 0. -1.
         -2   -1    0    0    0  501 -0.00000000000E+00 -0.00000000000E+00 -0.20365201043E+03  0.20365201045E+03  0.25500000000E-02 0.  1.
    8880023    1    1    2    0    0 -0.46178874534E+03 -0.11544653748E+03  0.25986831383E+04  0.27227818510E+04  0.65864270000E+03 0.  0.
    8880022    1    1    2    0    0  0.46178874534E+03  0.11544653748E+03  0.29971746612E+03  0.58292277435E+03  0.15294330000E+03 0.  0.
<mgrwt>
<rscale>  0 0.71971420E+03</rscale>
<asrwt>0</asrwt>
<pdfrwt beam="1">  1        2 0.47723887E+00 0.81264196E+03</pdfrwt>
<pdfrwt beam="2">  1       -2 0.31331078E-01 0.81264196E+03</pdfrwt>
<totfact> 0.14930736E+01</totfact>
</mgrwt>
</event>
<event>
 4    5  0.2025789E-007  0.6810696E+03  0.7818608E-02  0.1008725E+00
          2   -1    0    0  501    0  0.00000000000E+00  0.00000000000E+00  0.18689758194E+04  0.18689758194E+04  0.25500000000E-02 0. -1.
         -2   -1    0    0    0  501 -0.00000000000E+00 -0.00000000000E+00 -0.21669813382E+03  0.21669813383E+03  0.25500000000E-02 0.  1.
    8880023    1    1    2    0    0  0.11531192747E+03  0.12941682174E+03  0.17157250827E+04  0.18459599996E+04  0.65864270000E+03 0. -1.
    8880022    1    1    2    0    0 -0.11531192747E+03 -0.12941682174E+03 -0.63447397105E+02  0.23971395367E+03  0.15294330000E+03 0.  0.
<mgrwt>
<rscale>  0 0.51984525E+03</rscale>
<asrwt>0</asrwt>
<pdfrwt beam="1">  1        2 0.28753474E+00 0.68106957E+03</pdfrwt>
<pdfrwt beam="2">  1       -2 0.33338174E-01 0.68106957E+03</pdfrwt>
<totfact> 0.68663071E+01</totfact>
</mgrwt>
</event>
<event>
 4    5  0.2025789E-007  0.6957673E+03  0.7818608E-02  0.1001523E+00
         -2   -1    0    0    0  501 -0.00000000000E+00  0.00000000000E+00  0.13266866779E+03  0.13266866781E+03  0.25500000000E-02 0.  1.
          2   -1    0    0  501    0  0.00000000000E+00 -0.00000000000E+00 -0.26814649079E+04  0.26814649079E+04  0.25500000000E-02 0. -1.
    8880023    1    1    2    0    0 -0.22374444253E+03  0.14844100468E+02 -0.24116782687E+04  0.25100366931E+04  0.65864270000E+03 0. -1.
    8880022    1    1    2    0    0  0.22374444253E+03 -0.14844100468E+02 -0.13711797136E+03  0.30409688253E+03  0.15294330000E+03 0.  0.
<mgrwt>
<rscale>  0 0.54987247E+03</rscale>
<asrwt>0</asrwt>
<pdfrwt beam="1">  1        2 0.41253302E+00 0.69576730E+03</pdfrwt>
<pdfrwt beam="2">  1       -2 0.20410566E-01 0.69576730E+03</pdfrwt>
<totfact> 0.59056530E+01</totfact>
</mgrwt>
</event>
<event>
 4    5  0.2025789E-007  0.1352757E+04  0.7818608E-02  0.9021289E-01
         -2   -1    0    0    0  501 -0.00000000000E+00  0.00000000000E+00  0.17335190443E+04  0.17335190443E+04  0.25500000000E-02 0.  1.
          2   -1    0    0  501    0  0.00000000000E+00 -0.00000000000E+00 -0.20811708338E+04  0.20811708338E+04  0.25500000000E-02 0. -1.
    8880023    1    1    2    0    0 -0.11317818183E+04 -0.33942750952E+03 -0.15938870836E+04  0.20905567105E+04  0.65864270000E+03 0.  0.
    8880022    1    1    2    0    0  0.11317818183E+04  0.33942750952E+03  0.12462352940E+04  0.17241331676E+04  0.15294330000E+03 0.  0.
<mgrwt>
<rscale>  0 0.13104879E+04</rscale>
<asrwt>0</asrwt>
<pdfrwt beam="1">  1        2 0.32018013E+00 0.13527569E+04</pdfrwt>
<pdfrwt beam="2">  1       -2 0.26669524E+00 0.13527569E+04</pdfrwt>
<totfact> 0.29172362E-01</totfact>
</mgrwt>
</event>
<event>
 4    5  0.2025789E-007  0.1859743E+04  0.7818608E-02  0.8690189E-01
         -2   -1    0    0    0  501 -0.00000000000E+00  0.00000000000E+00  0.16069426051E+04  0.16069426051E+04  0.25500000000E-02 0.  1.
          2   -1    0    0  501    0  0.00000000000E+00 -0.00000000000E+00 -0.23015745853E+04  0.23015745853E+04  0.25500000000E-02 0. -1.
    8880023    1    1    2    0    0 -0.17371113427E+04 -0.85307414710E+02 -0.10370391576E+04  0.21293411170E+04  0.65864270000E+03 0.  0.
    8880022    1    1    2    0    0  0.17371113427E+04  0.85307414710E+02  0.34240717746E+03  0.17791760734E+04  0.15294330000E+03 0.  0.
<mgrwt>
<rscale>  0 0.18306088E+04</rscale>
<asrwt>0</asrwt>
<pdfrwt beam="1">  1        2 0.35408840E+00 0.18597428E+04</pdfrwt>
<pdfrwt beam="2">  1       -2 0.24722194E+00 0.18597428E+04</pdfrwt>
<totfact> 0.27307962E-01</totfact>
</mgrwt>
</event>
<event>
 4    5  0.2025789E-007  0.1374618E+04  0.7818608E-02  0.9003661E-01
          2   -1    0    0  501    0  0.00000000000E+00  0.00000000000E+00  0.31478778489E+04  0.31478778489E+04  0.25500000000E-02 0. -1.
         -2   -1    0    0    0  501 -0.00000000000E+00 -0.00000000000E+00 -0.70929035817E+03  0.70929035817E+03  0.25500000000E-02 0.  1.
    8880023    1    1    2    0    0 -0.21104257432E+03  0.11879498499E+04  0.22352194152E+04  0.26240769529E+04  0.65864270000E+03 0.  0.
    8880022    1    1    2    0    0  0.21104257432E+03 -0.11879498499E+04  0.20336807549E+03  0.12330912542E+04  0.15294330000E+03 0.  0.
<mgrwt>
<rscale>  0 0.13331782E+04</rscale>
<asrwt>0</asrwt>
<pdfrwt beam="1">  1        2 0.48428890E+00 0.13746178E+04</pdfrwt>
<pdfrwt beam="2">  1       -2 0.10912159E+00 0.13746178E+04</pdfrwt>
<totfact> 0.91090085E-01</totfact>
</mgrwt>
</event>
<event>
 4    5  0.2025789E-007  0.1209106E+04  0.7818608E-02  0.9148321E-01
          2   -1    0    0  501    0  0.00000000000E+00  0.00000000000E+00  0.16041691410E+04  0.16041691411E+04  0.25500000000E-02 0. -1.
         -2   -1    0    0    0  501 -0.00000000000E+00 -0.00000000000E+00 -0.11897367109E+04  0.11897367109E+04  0.25500000000E-02 0.  1.
    8880023    1    1    2    0    0  0.20791573734E+03 -0.99242020252E+03 -0.60147043257E+03  0.13504457411E+04  0.65864270000E+03 0.  0.
    8880022    1    1    2    0    0 -0.20791573734E+03  0.99242020252E+03  0.10159028627E+04  0.14434601109E+04  0.15294330000E+03 0.  0.
<mgrwt>
<rscale>  0 0.11603135E+04</rscale>
<asrwt>0</asrwt>
<pdfrwt beam="1">  1        2 0.24679525E+00 0.12091059E+04</pdfrwt>
<pdfrwt beam="2">  1       -2 0.18303642E+00 0.12091059E+04</pdfrwt>
<totfact> 0.18580661E+00</totfact>
</mgrwt>
</event>
<event>
 4    5  0.2025789E-007  0.1498623E+04  0.7818608E-02  0.8910609E-01
         -2   -1    0    0    0  501 -0.00000000000E+00  0.00000000000E+00  0.96309370255E+03  0.96309370255E+03  0.25500000000E-02 0.  1.
          2   -1    0    0  501    0  0.00000000000E+00 -0.00000000000E+00 -0.29003288815E+04  0.29003288815E+04  0.25500000000E-02 0. -1.
    8880023    1    1    2    0    0 -0.56592894036E+03  0.12213871301E+04  0.10164810231E+01  0.14986238109E+04  0.65864270000E+03 0.  0.
    8880022    1    1    2    0    0  0.56592894036E+03 -0.12213871301E+04 -0.19382516600E+04  0.23647987732E+04  0.15294330000E+03 0.  0.
<mgrwt>
<rscale>  0 0.14612931E+04</rscale>
<asrwt>0</asrwt>
<pdfrwt beam="1">  1        2 0.44620444E+00 0.14986235E+04</pdfrwt>
<pdfrwt beam="2">  1       -2 0.14816826E+00 0.14986235E+04</pdfrwt>
<totfact> 0.58888115E-01</totfact>
</mgrwt>
</event>
<event>
 4    5  0.2025789E-007  0.7442118E+03  0.7818608E-02  0.9847844E-01
         -2   -1    0    0    0  501 -0.00000000000E+00  0.00000000000E+00  0.38514836039E+03  0.38514836040E+03  0.25500000000E-02 0.  1.
          2   -1    0    0  501    0  0.00000000000E+00 -0.00000000000E+00 -0.17415534589E+04  0.17415534589E+04  0.25500000000E-02 0. -1.
    8880023    1    1    2    0    0 -0.26091565878E+03 -0.22795610407E+03 -0.15365697067E+04  0.17073071300E+04  0.65864270000E+03 0. -1.
    8880022    1    1    2    0    0  0.26091565878E+03  0.22795610407E+03  0.18016460817E+03  0.41939468932E+03  0.15294330000E+03 0.  0.
<mgrwt>
<rscale>  0 0.62856963E+03</rscale>
<asrwt>0</asrwt>
<pdfrwt beam="1">  1        2 0.26793130E+00 0.74421178E+03</pdfrwt>
<pdfrwt beam="2">  1       -2 0.59253595E-01 0.74421178E+03</pdfrwt>
<totfact> 0.25440080E+01</totfact>
</mgrwt>
</event>
<event>
 4    5  0.2025789E-007  0.1050813E+04  0.7818608E-02  0.9317905E-01
         -2   -1    0    0    0  501 -0.00000000000E+00  0.00000000000E+00  0.12923199285E+04  0.12923199285E+04  0.25500000000E-02 0.  1.
          2   -1    0    0  501    0  0.00000000000E+00 -0.00000000000E+00 -0.98015181775E+03  0.98015181775E+03  0.25500000000E-02 0. -1.
    8880023    1    1    2    0    0 -0.42749615914E+03  0.69831562193E+03 -0.45031527238E+03  0.11432373877E+04  0.65864270000E+03 0.  0.
    8880022    1    1    2    0    0  0.42749615914E+03 -0.69831562193E+03  0.76248338315E+03  0.11292343585E+04  0.15294330000E+03 0.  0.
<mgrwt>
<rscale>  0 0.99151096E+03</rscale>
<asrwt>0</asrwt>
<pdfrwt beam="1">  1        2 0.15079259E+00 0.10508130E+04</pdfrwt>
<pdfrwt beam="2">  1       -2 0.19881845E+00 0.10508130E+04</pdfrwt>
<totfact> 0.34665624E+00</totfact>
</mgrwt>
</event>
<event>
 4    5  0.2025789E-007  0.2175279E+04  0.7818608E-02  0.8539212E-01
          2   -1    0    0  501    0  0.00000000000E+00  0.00000000000E+00  0.44425652541E+04  0.44425652541E+04  0.25500000000E-02 0. -1.
         -2   -1    0    0    0  501 -0.00000000000E+00 -0.00000000000E+00 -0.16544826795E+04  0.16544826795E+04  0.25500000000E-02 0.  1.
    8880023    1    1    2    0    0  0.30850216117E+03 -0.20500866137E+04  0.33034369072E+04  0.39553172203E+04  0.65864270000E+03 0.  0.
    8880022    1    1    2    0    0 -0.30850216117E+03  0.20500866137E+04 -0.51535433258E+03  0.21417307133E+04  0.15294330000E+03 0.  0.
<mgrwt>
<rscale>  0 0.21507481E+04</rscale>
<asrwt>0</asrwt>
<pdfrwt beam="1">  1        2 0.68347157E+00 0.21752790E+04</pdfrwt>
<pdfrwt beam="2">  1       -2 0.25453580E+00 0.21752790E+04</pdfrwt>
<totfact> 0.73681598E-03</totfact>
</mgrwt>
</event>
<event>
 4    5  0.2025789E-007  0.9139822E+03  0.7818608E-02  0.9503948E-01
         -2   -1    0    0    0  501 -0.00000000000E+00  0.00000000000E+00  0.40766422891E+03  0.40766422892E+03  0.25500000000E-02 0.  1.
          2   -1    0    0  501    0  0.00000000000E+00 -0.00000000000E+00 -0.16720945195E+04  0.16720945195E+04  0.25500000000E-02 0. -1.
    8880023    1    1    2    0    0 -0.61880201156E+03 -0.13651851001E+03 -0.40150028946E+03  0.99828148424E+03  0.65864270000E+03 0.  0.
    8880022    1    1    2    0    0  0.61880201156E+03  0.13651851001E+03 -0.86293000117E+03  0.10814772642E+04  0.15294330000E+03 0.  0.
<mgrwt>
<rscale>  0 0.83993345E+03</rscale>
<asrwt>0</asrwt>
<pdfrwt beam="1">  1        2 0.25724531E+00 0.91398219E+03</pdfrwt>
<pdfrwt beam="2">  1       -2 0.62717575E-01 0.91398219E+03</pdfrwt>
<totfact> 0.24152775E+01</totfact>
</mgrwt>
</event>
<event>
 4    5  0.2025789E-007  0.8576317E+03  0.7818608E-02  0.9597790E-01
          2   -1    0    0  501    0  0.00000000000E+00  0.00000000000E+00  0.11116171406E+04  0.11116171406E+04  0.25500000000E-02 0. -1.
         -2   -1    0    0    0  501 -0.00000000000E+00 -0.00000000000E+00 -0.14238810193E+04  0.14238810193E+04  0.25500000000E-02 0.  1.
    8880023    1    1    2    0    0  0.54582155096E+03 -0.61650759692E+02  0.87078641141E+03  0.12222115865E+04  0.65864270000E+03 0. -1.
    8880022    1    1    2    0    0 -0.54582155096E+03  0.61650759692E+02 -0.11830502902E+04  0.13132865733E+04  0.15294330000E+03 0.  0.
<mgrwt>
<rscale>  0 0.77442619E+03</rscale>
<asrwt>0</asrwt>
<pdfrwt beam="1">  1        2 0.17101802E+00 0.85763173E+03</pdfrwt>
<pdfrwt beam="2">  1       -2 0.21905862E+00 0.85763173E+03</pdfrwt>
<totfact> 0.21736389E+00</totfact>
</mgrwt>
</event>
<event>
 4    5  0.2025789E-007  0.7644825E+03  0.7818608E-02  0.9793638E-01
         -2   -1    0    0    0  501 -0.00000000000E+00  0.00000000000E+00  0.10108966562E+04  0.10108966562E+04  0.25500000000E-02 0.  1.
          2   -1    0    0  501    0  0.00000000000E+00 -0.00000000000E+00 -0.76284441573E+03  0.76284441574E+03  0.25500000000E-02 0. -1.
    8880023    1    1    2    0    0 -0.28928049787E+03  0.25872790258E+03 -0.50264737000E+03  0.91492508920E+03  0.65864270000E+03 0. -1.
    8880022    1    1    2    0    0  0.28928049787E+03 -0.25872790258E+03  0.75069961044E+03  0.85881598270E+03  0.15294330000E+03 0.  0.
<mgrwt>
<rscale>  0 0.65705089E+03</rscale>
<asrwt>0</asrwt>
<pdfrwt beam="1">  1        2 0.11736068E+00 0.76448253E+03</pdfrwt>
<pdfrwt beam="2">  1       -2 0.15552256E+00 0.76448253E+03</pdfrwt>
<totfact> 0.10124117E+01</totfact>
</mgrwt>
</event>
<event>
 4    5  0.2184419E-007  0.8790784E+03  0.7818608E-02  0.9560488E-01
          2   -1    0    0  501    0  0.00000000000E+00  0.00000000000E+00  0.20219291176E+04  0.20219291176E+04  0.25500000000E-02 0. -1.
         -2   -1    0    0    0  501 -0.00000000000E+00 -0.00000000000E+00 -0.15599708745E+04  0.15599708745E+04  0.25500000000E-02 0.  1.
    8880023    1    1    2    0    0  0.42828136140E+03 -0.39439023801E+03  0.18613688234E+04  0.20585122510E+04  0.65864270000E+03 0.  0.
    8880022    1    1    2    0    0 -0.42828136140E+03  0.39439023801E+03 -0.13994105804E+04  0.15233877411E+04  0.15294330000E+03 0.  0.
<mgrwt>
<rscale>  0 0.79967453E+03</rscale>
<asrwt>0</asrwt>
<pdfrwt beam="1">  1        2 0.31106602E+00 0.87907838E+03</pdfrwt>
<pdfrwt beam="2">  1       -2 0.23999552E+00 0.87907838E+03</pdfrwt>
<totfact> 0.49288238E-01</totfact>
</mgrwt>
</event>
<event>
 4    5  0.2025789E-007  0.8818297E+03  0.7818608E-02  0.9555854E-01
          2   -1    0    0  501    0  0.00000000000E+00  0.00000000000E+00  0.16532162190E+04  0.16532162190E+04  0.25500000000E-02 0. -1.
         -2   -1    0    0    0  501 -0.00000000000E+00 -0.00000000000E+00 -0.92870581185E+03  0.92870581185E+03  0.25500000000E-02 0.  1.
    8880023    1    1    2    0    0  0.58620868409E+03  0.13142323744E+02  0.14124678806E+04  0.16651393521E+04  0.65864270000E+03 0. -1.
    8880022    1    1    2    0    0 -0.58620868409E+03 -0.13142323744E+02 -0.68795747337E+03  0.91678267881E+03  0.15294330000E+03 0.  0.
<mgrwt>
<rscale>  0 0.80288270E+03</rscale>
<asrwt>0</asrwt>
<pdfrwt beam="1">  1        2 0.25434095E+00 0.88182966E+03</pdfrwt>
<pdfrwt beam="2">  1       -2 0.14287782E+00 0.88182966E+03</pdfrwt>
<totfact> 0.35796093E+00</totfact>
</mgrwt>
</event>
<event>
 4    5  0.2025789E-007  0.9089128E+03  0.7818608E-02  0.9511872E-01
         -2   -1    0    0    0  501 -0.00000000000E+00  0.00000000000E+00  0.99937574993E+03  0.99937574994E+03  0.25500000000E-02 0.  1.
          2   -1    0    0  501    0  0.00000000000E+00 -0.00000000000E+00 -0.13565686549E+04  0.13565686549E+04  0.25500000000E-02 0. -1.
    8880023    1    1    2    0    0  0.16907242561E+03 -0.60309767228E+03 -0.10639186325E+04  0.13993017367E+04  0.65864270000E+03 0.  0.
    8880022    1    1    2    0    0 -0.16907242561E+03  0.60309767228E+03  0.70672572759E+03  0.95664266812E+03  0.15294330000E+03 0.  0.
<mgrwt>
<rscale>  0 0.83414142E+03</rscale>
<asrwt>0</asrwt>
<pdfrwt beam="1">  1        2 0.20870287E+00 0.90891281E+03</pdfrwt>
<pdfrwt beam="2">  1       -2 0.15375012E+00 0.90891281E+03</pdfrwt>
<totfact> 0.43103727E+00</totfact>
</mgrwt>
</event>
<event>
 4    5  0.2025789E-007  0.8940944E+03  0.7818608E-02  0.9535579E-01
         -2   -1    0    0    0  501 -0.00000000000E+00  0.00000000000E+00  0.50340657967E+03  0.50340657968E+03  0.25500000000E-02 0.  1.
          2   -1    0    0  501    0  0.00000000000E+00 -0.00000000000E+00 -0.19220997186E+04  0.19220997186E+04  0.25500000000E-02 0. -1.
    8880023    1    1    2    0    0  0.58256064884E+03 -0.16191901197E+03 -0.15488420670E+04  0.17883838041E+04  0.65864270000E+03 0.  0.
    8880022    1    1    2    0    0 -0.58256064884E+03  0.16191901197E+03  0.13014892812E+03  0.63712249412E+03  0.15294330000E+03 0.  0.
<mgrwt>
<rscale>  0 0.81710777E+03</rscale>
<asrwt>0</asrwt>
<pdfrwt beam="1">  1        2 0.29570764E+00 0.89409445E+03</pdfrwt>
<pdfrwt beam="2">  1       -2 0.77447167E-01 0.89409445E+03</pdfrwt>
<totfact> 0.11123714E+01</totfact>
</mgrwt>
</event>
<event>
 4    5  0.2025789E-007  0.1248559E+04  0.7818608E-02  0.9111307E-01
          2   -1    0    0  501    0  0.00000000000E+00  0.00000000000E+00  0.16984058598E+04  0.16984058598E+04  0.25500000000E-02 0. -1.
         -2   -1    0    0    0  501 -0.00000000000E+00 -0.00000000000E+00 -0.12651974584E+04  0.12651974584E+04  0.25500000000E-02 0.  1.
    8880023    1    1    2    0    0 -0.53940432976E+03  0.91330810735E+03  0.11311019055E+04  0.16847226647E+04  0.65864270000E+03 0.  0.
    8880022    1    1    2    0    0  0.53940432976E+03 -0.91330810735E+03 -0.69789350405E+03  0.12788806535E+04  0.15294330000E+03 0.  0.
<mgrwt>
<rscale>  0 0.12017723E+04</rscale>
<asrwt>0</asrwt>
<pdfrwt beam="1">  1        2 0.26129321E+00 0.12485587E+04</pdfrwt>
<pdfrwt beam="2">  1       -2 0.19464576E+00 0.12485587E+04</pdfrwt>
<totfact> 0.13682811E+00</totfact>
</mgrwt>
</event>
<event>
 4    5  0.2025789E-007  0.1251237E+04  0.7818608E-02  0.9108857E-01
          2   -1    0    0  501    0  0.00000000000E+00  0.00000000000E+00  0.30587800596E+04  0.30587800596E+04  0.25500000000E-02 0. -1.
         -2   -1    0    0    0  501 -0.00000000000E+00 -0.00000000000E+00 -0.76232116680E+03  0.76232116681E+03  0.25500000000E-02 0.  1.
    8880023    1    1    2    0    0  0.54591523539E+02 -0.10624516075E+04  0.24347556928E+04  0.27374493863E+04  0.65864270000E+03 0.  0.
    8880022    1    1    2    0    0 -0.54591523539E+02  0.10624516075E+04 -0.13829679998E+03  0.10836518401E+04  0.15294330000E+03 0.  0.
<mgrwt>
<rscale>  0 0.12045800E+04</rscale>
<asrwt>0</asrwt>
<pdfrwt beam="1">  1        2 0.47058154E+00 0.12512369E+04</pdfrwt>
<pdfrwt beam="2">  1       -2 0.11728018E+00 0.12512369E+04</pdfrwt>
<totfact> 0.88257732E-01</totfact>
</mgrwt>
</event>
<event>
 4    5  0.2025789E-007  0.8372627E+03  0.7818608E-02  0.9635363E-01
         -2   -1    0    0    0  501 -0.00000000000E+00  0.00000000000E+00  0.14785702681E+04  0.14785702681E+04  0.25500000000E-02 0.  1.
          2   -1    0    0  501    0  0.00000000000E+00 -0.00000000000E+00 -0.54459458991E+03  0.54459458992E+03  0.25500000000E-02 0. -1.
    8880023    1    1    2    0    0 -0.45010219985E+03 -0.25417823572E+03 -0.11369226513E+03  0.84494656827E+03  0.65864270000E+03 0. -1.
    8880022    1    1    2    0    0  0.45010219985E+03  0.25417823572E+03  0.10476679433E+04  0.11782182897E+04  0.15294330000E+03 0.  0.
<mgrwt>
<rscale>  0 0.74999163E+03</rscale>
<asrwt>0</asrwt>
<pdfrwt beam="1">  1        2 0.83783783E-01 0.83726267E+03</pdfrwt>
<pdfrwt beam="2">  1       -2 0.22747235E+00 0.83726267E+03</pdfrwt>
<totfact> 0.50082824E+00</totfact>
</mgrwt>
</event>
<event>
 4    5  0.2025789E-007  0.8027186E+03  0.7818608E-02  0.9704948E-01
         -2   -1    0    0    0  501 -0.00000000000E+00  0.00000000000E+00  0.97607722307E+03  0.97607722307E+03  0.25500000000E-02 0.  1.
          2   -1    0    0  501    0  0.00000000000E+00 -0.00000000000E+00 -0.12160169731E+04  0.12160169731E+04  0.25500000000E-02 0. -1.
    8880023    1    1    2    0    0  0.20356354558E+03  0.41122852317E+03 -0.10054541317E+04  0.12865827733E+04  0.65864270000E+03 0. -1.
    8880022    1    1    2    0    0 -0.20356354558E+03 -0.41122852317E+03  0.76551438167E+03  0.90551142285E+03  0.15294330000E+03 0.  0.
<mgrwt>
<rscale>  0 0.70722933E+03</rscale>
<asrwt>0</asrwt>
<pdfrwt beam="1">  1        2 0.18707953E+00 0.80271864E+03</pdfrwt>
<pdfrwt beam="2">  1       -2 0.15016573E+00 0.80271864E+03</pdfrwt>
<totfact> 0.56145696E+00</totfact>
</mgrwt>
</event>
<event>
 4    5  0.2025789E-007  0.8127219E+03  0.7818608E-02  0.9683935E-01
         -2   -1    0    0    0  501 -0.00000000000E+00  0.00000000000E+00  0.33586366401E+03  0.33586366402E+03  0.25500000000E-02 0.  1.
          2   -1    0    0  501    0  0.00000000000E+00 -0.00000000000E+00 -0.17846251366E+04  0.17846251366E+04  0.25500000000E-02 0. -1.
    8880023    1    1    2    0    0  0.44040241266E+03  0.18097626952E+03 -0.13989797990E+04  0.16179188420E+04  0.65864270000E+03 0. -1.
    8880022    1    1    2    0    0 -0.44040241266E+03 -0.18097626952E+03 -0.49781673584E+02  0.50256995856E+03  0.15294330000E+03 0.  1.
<mgrwt>
<rscale>  0 0.71981407E+03</rscale>
<asrwt>0</asrwt>
<pdfrwt beam="1">  1        2 0.27455771E+00 0.81272191E+03</pdfrwt>
<pdfrwt beam="2">  1       -2 0.51671334E-01 0.81272191E+03</pdfrwt>
<totfact> 0.31771746E+01</totfact>
</mgrwt>
</event>
<event>
 4    5  0.2025789E-007  0.1610776E+04  0.7818608E-02  0.8835131E-01
         -2   -1    0    0    0  501 -0.00000000000E+00  0.00000000000E+00  0.26013905332E+04  0.26013905332E+04  0.25500000000E-02 0.  1.
          2   -1    0    0  501    0  0.00000000000E+00 -0.00000000000E+00 -0.10332748480E+04  0.10332748480E+04  0.25500000000E-02 0. -1.
    8880023    1    1    2    0    0 -0.33910269754E+03  0.14303144348E+04  0.20435183162E+03  0.16236871309E+04  0.65864270000E+03 0.  0.
    8880022    1    1    2    0    0  0.33910269754E+03 -0.14303144348E+04  0.13637638536E+04  0.20109782503E+04  0.15294330000E+03 0.  0.
<mgrwt>
<rscale>  0 0.15764765E+04</rscale>
<asrwt>0</asrwt>
<pdfrwt beam="1">  1        2 0.15896536E+00 0.16107763E+04</pdfrwt>
<pdfrwt beam="2">  1       -2 0.40021392E+00 0.16107763E+04</pdfrwt>
<totfact> 0.16645005E-01</totfact>
</mgrwt>
</event>
<event>
 4    5  0.2025789E-007  0.9212563E+03  0.7818608E-02  0.9492735E-01
          2   -1    0    0  501    0  0.00000000000E+00  0.00000000000E+00  0.38410588599E+04  0.38410588599E+04  0.25500000000E-02 0. -1.
         -2   -1    0    0    0  501 -0.00000000000E+00 -0.00000000000E+00 -0.16643673461E+03  0.16643673463E+03  0.25500000000E-02 0.  1.
    8880023    1    1    2    0    0  0.23093809167E+03  0.60130736465E+03  0.24096458379E+04  0.25797492552E+04  0.65864270000E+03 0.  0.
    8880022    1    1    2    0    0 -0.23093809167E+03 -0.60130736465E+03  0.12649762873E+04  0.14277463393E+04  0.15294330000E+03 0.  0.
<mgrwt>
<rscale>  0 0.84821533E+03</rscale>
<asrwt>0</asrwt>
<pdfrwt beam="1">  1        2 0.59093212E+00 0.92125629E+03</pdfrwt>
<pdfrwt beam="2">  1       -2 0.25605652E-01 0.92125629E+03</pdfrwt>
<totfact> 0.66540533E+00</totfact>
</mgrwt>
</event>
<event>
 4    5  0.2025789E-007  0.6627949E+03  0.7818608E-02  0.1021460E+00
          2   -1    0    0  501    0  0.00000000000E+00  0.00000000000E+00  0.15539448477E+04  0.15539448477E+04  0.25500000000E-02 0. -1.
         -2   -1    0    0    0  501 -0.00000000000E+00 -0.00000000000E+00 -0.89066879749E+03  0.89066879749E+03  0.25500000000E-02 0.  1.
    8880023    1    1    2    0    0  0.71358645115E+02  0.19869517729E+02  0.14740586269E+04  0.16162134438E+04  0.65864270000E+03 0. -1.
    8880022    1    1    2    0    0 -0.71358645115E+02 -0.19869517729E+02 -0.81078257672E+03  0.82840020141E+03  0.15294330000E+03 0.  0.
<mgrwt>
<rscale>  0 0.47163519E+03</rscale>
<asrwt>0</asrwt>
<pdfrwt beam="1">  1        2 0.23906844E+00 0.66279489E+03</pdfrwt>
<pdfrwt beam="2">  1       -2 0.13702597E+00 0.66279489E+03</pdfrwt>
<totfact> 0.46815817E+00</totfact>
</mgrwt>
</event>
<event>
 4    5  0.2025789E-007  0.6869106E+03  0.7818608E-02  0.1005657E+00
         -2   -1    0    0    0  501 -0.00000000000E+00  0.00000000000E+00  0.47718934641E+03  0.47718934642E+03  0.25500000000E-02 0.  1.
          2   -1    0    0  501    0  0.00000000000E+00 -0.00000000000E+00 -0.98356676908E+03  0.98356676909E+03  0.25500000000E-02 0. -1.
    8880023    1    1    2    0    0 -0.11750659288E+03  0.15565407760E+03 -0.81439575637E+03  0.10654044516E+04  0.65864270000E+03 0. -1.
    8880022    1    1    2    0    0  0.11750659288E+03 -0.15565407760E+03  0.30801833370E+03  0.39535166390E+03  0.15294330000E+03 0.  0.
<mgrwt>
<rscale>  0 0.53237868E+03</rscale>
<asrwt>0</asrwt>
<pdfrwt beam="1">  1        2 0.15131796E+00 0.68691062E+03</pdfrwt>
<pdfrwt beam="2">  1       -2 0.73413746E-01 0.68691062E+03</pdfrwt>
<totfact> 0.44142272E+01</totfact>
</mgrwt>
</event>
<event>
 4    5  0.2025789E-007  0.8622346E+03  0.7818608E-02  0.9589601E-01
         -2   -1    0    0    0  501 -0.00000000000E+00  0.00000000000E+00  0.89083288700E+03  0.89083288701E+03  0.25500000000E-02 0.  1.
          2   -1    0    0  501    0  0.00000000000E+00 -0.00000000000E+00 -0.20374597491E+04  0.20374597491E+04  0.25500000000E-02 0. -1.
    8880023    1    1    2    0    0  0.53437902884E+03 -0.15516861334E+03 -0.18365216402E+04  0.20288568669E+04  0.65864270000E+03 0. -1.
    8880022    1    1    2    0    0 -0.53437902884E+03  0.15516861334E+03  0.68989477813E+03  0.89943576921E+03  0.15294330000E+03 0.  0.
<mgrwt>
<rscale>  0 0.77988304E+03</rscale>
<asrwt>0</asrwt>
<pdfrwt beam="1">  1        2 0.31345535E+00 0.86223457E+03</pdfrwt>
<pdfrwt beam="2">  1       -2 0.13705121E+00 0.86223457E+03</pdfrwt>
<totfact> 0.24619637E+00</totfact>
</mgrwt>
</event>
<event>
 4    5  0.2025789E-007  0.8722146E+03  0.7818608E-02  0.9572195E-01
         -2   -1    0    0    0  501 -0.00000000000E+00  0.00000000000E+00  0.52952978271E+03  0.52952978271E+03  0.25500000000E-02 0.  1.
          2   -1    0    0  501    0  0.00000000000E+00 -0.00000000000E+00 -0.24815168798E+04  0.24815168798E+04  0.25500000000E-02 0. -1.
    8880023    1    1    2    0    0  0.25411672499E+03  0.51222332901E+03 -0.22020486506E+04  0.23684966782E+04  0.65864270000E+03 0. -1.
    8880022    1    1    2    0    0 -0.25411672499E+03 -0.51222332901E+03  0.25006155357E+03  0.64254998427E+03  0.15294330000E+03 0.  0.
<mgrwt>
<rscale>  0 0.79164172E+03</rscale>
<asrwt>0</asrwt>
<pdfrwt beam="1">  1        2 0.38177182E+00 0.87221457E+03</pdfrwt>
<pdfrwt beam="2">  1       -2 0.81466122E-01 0.87221457E+03</pdfrwt>
<totfact> 0.48678164E+00</totfact>
</mgrwt>
</event>
<event>
 4    5  0.2025789E-007  0.1109291E+04  0.7818608E-02  0.9250781E-01
         -2   -1    0    0    0  501 -0.00000000000E+00  0.00000000000E+00  0.71330795182E+03  0.71330795183E+03  0.25500000000E-02 0.  1.
          2   -1    0    0  501    0  0.00000000000E+00 -0.00000000000E+00 -0.28593177707E+04  0.28593177707E+04  0.25500000000E-02 0. -1.
    8880023    1    1    2    0    0  0.88684912741E+03  0.10107414702E+03 -0.23898695285E+04  0.26347682872E+04  0.65864270000E+03 0. -1.
    8880022    1    1    2    0    0 -0.88684912741E+03 -0.10107414702E+03  0.24385970959E+03  0.93785743531E+03  0.15294330000E+03 0.  0.
<mgrwt>
<rscale>  0 0.10544311E+04</rscale>
<asrwt>0</asrwt>
<pdfrwt beam="1">  1        2 0.43989503E+00 0.11092915E+04</pdfrwt>
<pdfrwt beam="2">  1       -2 0.10973969E+00 0.11092915E+04</pdfrwt>
<totfact> 0.14048948E+00</totfact>
</mgrwt>
</event>
<event>
 4    5  0.2025789E-007  0.1091763E+04  0.7818608E-02  0.9270283E-01
         -2   -1    0    0    0  501 -0.00000000000E+00  0.00000000000E+00  0.32173876066E+03  0.32173876067E+03  0.25500000000E-02 0.  1.
          2   -1    0    0  501    0  0.00000000000E+00 -0.00000000000E+00 -0.42422061975E+04  0.42422061975E+04  0.25500000000E-02 0. -1.
    8880023    1    1    2    0    0  0.70959457270E+03 -0.50459126814E+03 -0.33209166919E+04  0.34957738322E+04  0.65864270000E+03 0.  0.
    8880022    1    1    2    0    0 -0.70959457270E+03  0.50459126814E+03 -0.59955074495E+03  0.10681711259E+04  0.15294330000E+03 0.  0.
<mgrwt>
<rscale>  0 0.10356534E+04</rscale>
<asrwt>0</asrwt>
<pdfrwt beam="1">  1        2 0.65264707E+00 0.10917633E+04</pdfrwt>
<pdfrwt beam="2">  1       -2 0.49498274E-01 0.10917633E+04</pdfrwt>
<totfact> 0.86390059E-01</totfact>
</mgrwt>
</event>
<event>
 4    5  0.2025789E-007  0.6937858E+03  0.7818608E-02  0.1002403E+00
         -2   -1    0    0    0  501 -0.00000000000E+00  0.00000000000E+00  0.55496667263E+03  0.55496667264E+03  0.25500000000E-02 0.  1.
          2   -1    0    0  501    0  0.00000000000E+00 -0.00000000000E+00 -0.12571359092E+04  0.12571359092E+04  0.25500000000E-02 0. -1.
    8880023    1    1    2    0    0  0.21762845443E+03  0.12898552077E+02 -0.11194955692E+04  0.13170455773E+04  0.65864270000E+03 0.  0.
    8880022    1    1    2    0    0 -0.21762845443E+03 -0.12898552077E+02  0.41732633266E+03  0.49505700457E+03  0.15294330000E+03 0.  0.
<mgrwt>
<rscale>  0 0.54609132E+03</rscale>
<asrwt>0</asrwt>
<pdfrwt beam="1">  1        2 0.19340552E+00 0.69378579E+03</pdfrwt>
<pdfrwt beam="2">  1       -2 0.85379488E-01 0.69378579E+03</pdfrwt>
<totfact> 0.21449374E+01</totfact>
</mgrwt>
</event>
<event>
 4    5  0.2025789E-007  0.8959931E+03  0.7818608E-02  0.9532495E-01
          2   -1    0    0  501    0  0.00000000000E+00  0.00000000000E+00  0.71177793009E+03  0.71177793009E+03  0.25500000000E-02 0. -1.
         -2   -1    0    0    0  501 -0.00000000000E+00 -0.00000000000E+00 -0.14096310652E+04  0.14096310652E+04  0.25500000000E-02 0.  1.
    8880023    1    1    2    0    0 -0.60546289297E+03  0.49072927017E+02  0.29858306283E+03  0.94443396731E+03  0.65864270000E+03 0. -1.
    8880022    1    1    2    0    0  0.60546289297E+03 -0.49072927017E+02 -0.99643619793E+03  0.11769750280E+04  0.15294330000E+03 0.  0.
<mgrwt>
<rscale>  0 0.81929928E+03</rscale>
<asrwt>0</asrwt>
<pdfrwt beam="1">  1        2 0.10950430E+00 0.89599312E+03</pdfrwt>
<pdfrwt beam="2">  1       -2 0.21686632E+00 0.89599312E+03</pdfrwt>
<totfact> 0.41741531E+00</totfact>
</mgrwt>
</event>
<event>
 4    5  0.2025789E-007  0.1744888E+04  0.7818608E-02  0.8753651E-01
          2   -1    0    0  501    0  0.00000000000E+00  0.00000000000E+00  0.14321905538E+04  0.14321905538E+04  0.25500000000E-02 0. -1.
         -2   -1    0    0    0  501 -0.00000000000E+00 -0.00000000000E+00 -0.21942501041E+04  0.21942501041E+04  0.25500000000E-02 0.  1.
    8880023    1    1    2    0    0 -0.44817956814E+03 -0.15524046989E+04  0.17280559416E+03  0.17534244364E+04  0.65864270000E+03 0.  0.
    8880022    1    1    2    0    0  0.44817956814E+03  0.15524046989E+04 -0.93486514447E+03  0.18730162215E+04  0.15294330000E+03 0.  0.
<mgrwt>
<rscale>  0 0.17135910E+04</rscale>
<asrwt>0</asrwt>
<pdfrwt beam="1">  1        2 0.22033701E+00 0.17448884E+04</pdfrwt>
<pdfrwt beam="2">  1       -2 0.33757694E+00 0.17448884E+04</pdfrwt>
<totfact> 0.23731873E-01</totfact>
</mgrwt>
</event>
<event>
 4    5  0.2025789E-007  0.6597663E+03  0.7818608E-02  0.1024397E+00
         -2   -1    0    0    0  501 -0.00000000000E+00  0.00000000000E+00  0.14019758994E+04  0.14019758994E+04  0.25500000000E-02 0.  1.
          2   -1    0    0  501    0  0.00000000000E+00 -0.00000000000E+00 -0.36723676093E+03  0.36723676094E+03  0.25500000000E-02 0. -1.
    8880023    1    1    2    0    0  0.36326861987E+02  0.12718487519E+02 -0.60631597169E+02  0.66254644944E+03  0.65864270000E+03 0. -1.
    8880022    1    1    2    0    0 -0.36326861987E+02 -0.12718487519E+02  0.10953707356E+04  0.11066662109E+04  0.15294330000E+03 0.  0.
<mgrwt>
<rscale>  0 0.46132687E+03</rscale>
<asrwt>0</asrwt>
<pdfrwt beam="1">  1        2 0.56497964E-01 0.65976633E+03</pdfrwt>
<pdfrwt beam="2">  1       -2 0.21568860E+00 0.65976633E+03</pdfrwt>
<totfact> 0.95062784E+00</totfact>
</mgrwt>
</event>
<event>
 4    5  0.2025789E-007  0.8524675E+03  0.7818608E-02  0.9607105E-01
         -2   -1    0    0    0  501 -0.00000000000E+00  0.00000000000E+00  0.42545810816E+03  0.42545810817E+03  0.25500000000E-02 0.  1.
          2   -1    0    0  501    0  0.00000000000E+00 -0.00000000000E+00 -0.13351114096E+04  0.13351114096E+04  0.25500000000E-02 0. -1.
    8880023    1    1    2    0    0  0.44117703244E+03  0.31345411615E+03 -0.83493458084E+03  0.11932378713E+04  0.65864270000E+03 0.  1.
    8880022    1    1    2    0    0 -0.44117703244E+03 -0.31345411615E+03 -0.74718720578E+02  0.56733164648E+03  0.15294330000E+03 0.  0.
<mgrwt>
<rscale>  0 0.76827684E+03</rscale>
<asrwt>0</asrwt>
<pdfrwt beam="1">  1        2 0.20540175E+00 0.85246751E+03</pdfrwt>
<pdfrwt beam="2">  1       -2 0.65455094E-01 0.85246751E+03</pdfrwt>
<totfact> 0.34258822E+01</totfact>
</mgrwt>
</event>
<event>
 4    5  0.2025789E-007  0.8924549E+03  0.7818608E-02  0.9538254E-01
         -2   -1    0    0    0  501 -0.00000000000E+00  0.00000000000E+00  0.81438920982E+03  0.81438920982E+03  0.25500000000E-02 0.  1.
          2   -1    0    0  501    0  0.00000000000E+00 -0.00000000000E+00 -0.21920934580E+04  0.21920934580E+04  0.25500000000E-02 0. -1.
    8880023    1    1    2    0    0 -0.41353555487E+03 -0.43778283458E+03 -0.19608283003E+04  0.21543730630E+04  0.65864270000E+03 0. -1.
    8880022    1    1    2    0    0  0.41353555487E+03  0.43778283458E+03  0.58312405209E+03  0.85210960477E+03  0.15294330000E+03 0.  0.
<mgrwt>
<rscale>  0 0.81521308E+03</rscale>
<asrwt>0</asrwt>
<pdfrwt beam="1">  1        2 0.33724514E+00 0.89245486E+03</pdfrwt>
<pdfrwt beam="2">  1       -2 0.12529065E+00 0.89245486E+03</pdfrwt>
<totfact> 0.25295284E+00</totfact>
</mgrwt>
</event>
<event>
 4    5  0.2025789E-007  0.9826708E+03  0.7818608E-02  0.9404589E-01
         -2   -1    0    0    0  501 -0.00000000000E+00  0.00000000000E+00  0.26232014695E+03  0.26232014697E+03  0.25500000000E-02 0.  1.
          2   -1    0    0  501    0  0.00000000000E+00 -0.00000000000E+00 -0.49448093499E+04  0.49448093499E+04  0.25500000000E-02 0. -1.
    8880023    1    1    2    0    0  0.50868527866E+03  0.52256190380E+03 -0.42137670856E+04  0.43268319720E+04  0.65864270000E+03 0.  0.
    8880022    1    1    2    0    0 -0.50868527866E+03 -0.52256190380E+03 -0.46872211742E+03  0.88029752493E+03  0.15294330000E+03 0.  0.
<mgrwt>
<rscale>  0 0.91698978E+03</rscale>
<asrwt>0</asrwt>
<pdfrwt beam="1">  1        2 0.76073983E+00 0.98267078E+03</pdfrwt>
<pdfrwt beam="2">  1       -2 0.40356950E-01 0.98267078E+03</pdfrwt>
<totfact> 0.25843013E-01</totfact>
</mgrwt>
</event>
<event>
 4    5  0.2025789E-007  0.1398263E+04  0.7818608E-02  0.8985033E-01
          2   -1    0    0  501    0  0.00000000000E+00  0.00000000000E+00  0.18498054559E+04  0.18498054559E+04  0.25500000000E-02 0. -1.
         -2   -1    0    0    0  501 -0.00000000000E+00 -0.00000000000E+00 -0.11888476214E+04  0.11888476214E+04  0.25500000000E-02 0.  1.
    8880023    1    1    2    0    0 -0.11822151667E+04  0.35170673088E+03 -0.34442042523E+03  0.14400576240E+04  0.65864270000E+03 0.  0.
    8880022    1    1    2    0    0  0.11822151667E+04 -0.35170673088E+03  0.10053782597E+04  0.15985954532E+04  0.15294330000E+03 0.  0.
<mgrwt>
<rscale>  0 0.13576819E+04</rscale>
<asrwt>0</asrwt>
<pdfrwt beam="1">  1        2 0.28458546E+00 0.13982634E+04</pdfrwt>
<pdfrwt beam="2">  1       -2 0.18289963E+00 0.13982634E+04</pdfrwt>
<totfact> 0.13327754E+00</totfact>
</mgrwt>
</event>
<event>
 4    5  0.2025789E-007  0.1124195E+04  0.7818608E-02  0.9234584E-01
         -2   -1    0    0    0  501 -0.00000000000E+00  0.00000000000E+00  0.34080493841E+03  0.34080493842E+03  0.25500000000E-02 0.  1.
          2   -1    0    0  501    0  0.00000000000E+00 -0.00000000000E+00 -0.31606185579E+04  0.31606185579E+04  0.25500000000E-02 0. -1.
    8880023    1    1    2    0    0 -0.18759562365E+03  0.89152236333E+03 -0.12603216416E+04  0.16888531875E+04  0.65864270000E+03 0.  0.
    8880022    1    1    2    0    0  0.18759562365E+03 -0.89152236333E+03 -0.15594919778E+04  0.18125703088E+04  0.15294330000E+03 0.  0.
<mgrwt>
<rscale>  0 0.10703481E+04</rscale>
<asrwt>0</asrwt>
<pdfrwt beam="1">  1        2 0.48624899E+00 0.11241950E+04</pdfrwt>
<pdfrwt beam="2">  1       -2 0.52431531E-01 0.11241950E+04</pdfrwt>
<totfact> 0.47690436E+00</totfact>
</mgrwt>
</event>
<event>
 4    5  0.2025789E-007  0.7333766E+03  0.7818608E-02  0.9879678E-01
          2   -1    0    0  501    0  0.00000000000E+00  0.00000000000E+00  0.23061116366E+04  0.23061116366E+04  0.25500000000E-02 0. -1.
         -2   -1    0    0    0  501 -0.00000000000E+00 -0.00000000000E+00 -0.20865659351E+03  0.20865659353E+03  0.25500000000E-02 0.  1.
    8880023    1    1    2    0    0 -0.29362979811E+03  0.13346352118E+03  0.20206712911E+04  0.21496403520E+04  0.65864270000E+03 0. -1.
    8880022    1    1    2    0    0  0.29362979811E+03 -0.13346352118E+03  0.76783751971E+02  0.36512787815E+03  0.15294330000E+03 0.  0.
<mgrwt>
<rscale>  0 0.61256346E+03</rscale>
<asrwt>0</asrwt>
<pdfrwt beam="1">  1        2 0.35478640E+00 0.73337656E+03</pdfrwt>
<pdfrwt beam="2">  1       -2 0.32101015E-01 0.73337656E+03</pdfrwt>
<totfact> 0.42204778E+01</totfact>
</mgrwt>
</event>
<event>
 4    5  0.2025789E-007  0.7438729E+03  0.7818608E-02  0.9848806E-01
          2   -1    0    0  501    0  0.00000000000E+00  0.00000000000E+00  0.13888527995E+04  0.13888527995E+04  0.25500000000E-02 0. -1.
         -2   -1    0    0    0  501 -0.00000000000E+00 -0.00000000000E+00 -0.53172815779E+03  0.53172815780E+03  0.25500000000E-02 0.  1.
    8880023    1    1    2    0    0  0.10624285784E+03  0.32901240220E+03  0.11989070248E+04  0.14109305320E+04  0.65864270000E+03 0. -1.
    8880022    1    1    2    0    0 -0.10624285784E+03 -0.32901240220E+03 -0.34178238309E+03  0.50965042534E+03  0.15294330000E+03 0.  0.
<mgrwt>
<rscale>  0 0.62807840E+03</rscale>
<asrwt>0</asrwt>
<pdfrwt beam="1">  1        2 0.21366966E+00 0.74387291E+03</pdfrwt>
<pdfrwt beam="2">  1       -2 0.81804334E-01 0.74387291E+03</pdfrwt>
<totfact> 0.19743074E+01</totfact>
</mgrwt>
</event>
<event>
 4    5  0.2025789E-007  0.1063800E+04  0.7818608E-02  0.9302473E-01
         -2   -1    0    0    0  501 -0.00000000000E+00  0.00000000000E+00  0.45452890165E+03  0.45452890165E+03  0.25500000000E-02 0.  1.
          2   -1    0    0  501    0  0.00000000000E+00 -0.00000000000E+00 -0.21607039025E+04  0.21607039025E+04  0.25500000000E-02 0. -1.
    8880023    1    1    2    0    0  0.83537763351E+03 -0.23057093785E+01 -0.12821162584E+04  0.16659812164E+04  0.65864270000E+03 0.  0.
    8880022    1    1    2    0    0 -0.83537763351E+03  0.23057093785E+01 -0.42405874240E+03  0.94925158777E+03  0.15294330000E+03 0.  0.
<mgrwt>
<rscale>  0 0.10055555E+04</rscale>
<asrwt>0</asrwt>
<pdfrwt beam="1">  1        2 0.33241598E+00 0.10638004E+04</pdfrwt>
<pdfrwt beam="2">  1       -2 0.69927524E-01 0.10638004E+04</pdfrwt>
<totfact> 0.10103741E+01</totfact>
</mgrwt>
</event>
<event>
 4    5  0.2025789E-007  0.9784879E+03  0.7818608E-02  0.9410259E-01
         -2   -1    0    0    0  501 -0.00000000000E+00  0.00000000000E+00  0.99483461868E+03  0.99483461868E+03  0.25500000000E-02 0.  1.
          2   -1    0    0  501    0  0.00000000000E+00 -0.00000000000E+00 -0.31601440311E+04  0.31601440311E+04  0.25500000000E-02 0. -1.
    8880023    1    1    2    0    0  0.55817037392E+03 -0.46051513650E+03 -0.29312373840E+04  0.30902412794E+04  0.65864270000E+03 0. -1.
    8880022    1    1    2    0    0 -0.55817037392E+03  0.46051513650E+03  0.76592797156E+03  0.10647373704E+04  0.15294330000E+03 0.  0.
<mgrwt>
<rscale>  0 0.91236159E+03</rscale>
<asrwt>0</asrwt>
<pdfrwt beam="1">  1        2 0.48617600E+00 0.97848790E+03</pdfrwt>
<pdfrwt beam="2">  1       -2 0.15305148E+00 0.97848790E+03</pdfrwt>
<totfact> 0.40061853E-01</totfact>
</mgrwt>
</event>
<event>
 4    5  0.2025789E-007  0.1377489E+04  0.7818608E-02  0.9001375E-01
         -2   -1    0    0    0  501 -0.00000000000E+00  0.00000000000E+00  0.14391801717E+04  0.14391801717E+04  0.25500000000E-02 0.  1.
          2   -1    0    0  501    0  0.00000000000E+00 -0.00000000000E+00 -0.24258604443E+04  0.24258604443E+04  0.25500000000E-02 0. -1.
    8880023    1    1    2    0    0 -0.41364535567E+03  0.11369094616E+04 -0.18962270099E+04  0.23437475725E+04  0.65864270000E+03 0.  0.
    8880022    1    1    2    0    0  0.41364535567E+03 -0.11369094616E+04  0.90954673732E+03  0.15212930436E+04  0.15294330000E+03 0.  0.
<mgrwt>
<rscale>  0 0.13361557E+04</rscale>
<asrwt>0</asrwt>
<pdfrwt beam="1">  1        2 0.37320930E+00 0.13774890E+04</pdfrwt>
<pdfrwt beam="2">  1       -2 0.22141233E+00 0.13774890E+04</pdfrwt>
<totfact> 0.35420086E-01</totfact>
</mgrwt>
</event>
<event>
 4    5  0.2025789E-007  0.1107097E+04  0.7818608E-02  0.9253195E-01
          2   -1    0    0  501    0  0.00000000000E+00  0.00000000000E+00  0.38766072868E+04  0.38766072868E+04  0.25500000000E-02 0. -1.
         -2   -1    0    0    0  501 -0.00000000000E+00 -0.00000000000E+00 -0.42114347179E+03  0.42114347180E+03  0.25500000000E-02 0.  1.
    8880023    1    1    2    0    0  0.87275135421E+02 -0.88557146058E+03  0.31590588023E+04  0.33474343136E+04  0.65864270000E+03 0.  0.
    8880022    1    1    2    0    0 -0.87275135421E+02  0.88557146058E+03  0.29640501267E+03  0.95031644498E+03  0.15294330000E+03 0.  0.
<mgrwt>
<rscale>  0 0.10520838E+04</rscale>
<asrwt>0</asrwt>
<pdfrwt beam="1">  1        2 0.59640115E+00 0.11070971E+04</pdfrwt>
<pdfrwt beam="2">  1       -2 0.64791300E-01 0.11070971E+04</pdfrwt>
<totfact> 0.97103089E-01</totfact>
</mgrwt>
</event>
<event>
 4    5  0.2025789E-007  0.1521704E+04  0.7818608E-02  0.8894460E-01
          2   -1    0    0  501    0  0.00000000000E+00  0.00000000000E+00  0.97827396021E+03  0.97827396021E+03  0.25500000000E-02 0. -1.
         -2   -1    0    0    0  501 -0.00000000000E+00 -0.00000000000E+00 -0.41967761697E+04  0.41967761697E+04  0.25500000000E-02 0.  1.
    8880023    1    1    2    0    0  0.11269991935E+04  0.78207802700E+03  0.15550564638E+03  0.15296291821E+04  0.65864270000E+03 0.  0.
    8880022    1    1    2    0    0 -0.11269991935E+04 -0.78207802700E+03 -0.33740078559E+04  0.36454209478E+04  0.15294330000E+03 0.  0.
<mgrwt>
<rscale>  0 0.14850437E+04</rscale>
<asrwt>0</asrwt>
<pdfrwt beam="1">  1        2 0.15050369E+00 0.15217041E+04</pdfrwt>
<pdfrwt beam="2">  1       -2 0.64565786E+00 0.15217041E+04</pdfrwt>
<totfact> 0.82971789E-03</totfact>
</mgrwt>
</event>
<event>
 4    5  0.2025789E-007  0.6921420E+03  0.7818608E-02  0.1003151E+00
         -2   -1    0    0    0  501 -0.00000000000E+00  0.00000000000E+00  0.14811368356E+03  0.14811368358E+03  0.25500000000E-02 0.  1.
          2   -1    0    0  501    0  0.00000000000E+00 -0.00000000000E+00 -0.17020958678E+04  0.17020958678E+04  0.25500000000E-02 0. -1.
    8880023    1    1    2    0    0 -0.21240858364E+03 -0.11532159860E+02 -0.13538637385E+04  0.15205287324E+04  0.65864270000E+03 0. -1.
    8880022    1    1    2    0    0  0.21240858364E+03  0.11532159860E+02 -0.20011844572E+03  0.32968081904E+03  0.15294330000E+03 0.  0.
<mgrwt>
<rscale>  0 0.54290045E+03</rscale>
<asrwt>0</asrwt>
<pdfrwt beam="1">  1        2 0.26186089E+00 0.69214204E+03</pdfrwt>
<pdfrwt beam="2">  1       -2 0.22786722E-01 0.69214204E+03</pdfrwt>
<totfact> 0.16959035E+02</totfact>
</mgrwt>
</event>
<event>
 4    5  0.2025789E-007  0.8852921E+03  0.7818608E-02  0.9550067E-01
          2   -1    0    0  501    0  0.00000000000E+00  0.00000000000E+00  0.90641041231E+03  0.90641041232E+03  0.25500000000E-02 0. -1.
         -2   -1    0    0    0  501 -0.00000000000E+00 -0.00000000000E+00 -0.62056615008E+03  0.62056615009E+03  0.25500000000E-02 0.  1.
    8880023    1    1    2    0    0  0.21813912783E+03  0.54986103398E+03  0.11637916389E+03  0.89290881496E+03  0.65864270000E+03 0. -1.
    8880022    1    1    2    0    0 -0.21813912783E+03 -0.54986103398E+03  0.16946509834E+03  0.63406774745E+03  0.15294330000E+03 0.  0.
<mgrwt>
<rscale>  0 0.80691092E+03</rscale>
<asrwt>0</asrwt>
<pdfrwt beam="1">  1        2 0.13944776E+00 0.88529207E+03</pdfrwt>
<pdfrwt beam="2">  1       -2 0.95471715E-01 0.88529207E+03</pdfrwt>
<totfact> 0.26832708E+01</totfact>
</mgrwt>
</event>
<event>
 4    5  0.2025789E-007  0.8630735E+03  0.7818608E-02  0.9588119E-01
         -2   -1    0    0    0  501 -0.00000000000E+00  0.00000000000E+00  0.69595748671E+03  0.69595748672E+03  0.25500000000E-02 0.  1.
          2   -1    0    0  501    0  0.00000000000E+00 -0.00000000000E+00 -0.23912310755E+04  0.23912310755E+04  0.25500000000E-02 0. -1.
    8880023    1    1    2    0    0  0.89021058462E+02  0.55060048065E+03 -0.21723174392E+04  0.23374898718E+04  0.65864270000E+03 0. -1.
    8880022    1    1    2    0    0 -0.89021058462E+02 -0.55060048065E+03  0.47704385039E+03  0.74969869038E+03  0.15294330000E+03 0.  0.
<mgrwt>
<rscale>  0 0.78087526E+03</rscale>
<asrwt>0</asrwt>
<pdfrwt beam="1">  1        2 0.36788170E+00 0.86307349E+03</pdfrwt>
<pdfrwt beam="2">  1       -2 0.10707038E+00 0.86307349E+03</pdfrwt>
<totfact> 0.28960156E+00</totfact>
</mgrwt>
</event>
<event>
 4    5  0.2025789E-007  0.1115944E+04  0.7818608E-02  0.9243509E-01
          2   -1    0    0  501    0  0.00000000000E+00  0.00000000000E+00  0.15761479799E+04  0.15761479799E+04  0.25500000000E-02 0. -1.
         -2   -1    0    0    0  501 -0.00000000000E+00 -0.00000000000E+00 -0.65708372982E+03  0.65708372982E+03  0.25500000000E-02 0.  1.
    8880023    1    1    2    0    0  0.41018046670E+03 -0.80204318785E+03  0.58792762715E+03  0.12613446759E+04  0.65864270000E+03 0. -1.
    8880022    1    1    2    0    0 -0.41018046670E+03  0.80204318785E+03  0.33113662295E+03  0.97188703382E+03  0.15294330000E+03 0.  0.
<mgrwt>
<rscale>  0 0.10615416E+04</rscale>
<asrwt>0</asrwt>
<pdfrwt beam="1">  1        2 0.24248430E+00 0.11159442E+04</pdfrwt>
<pdfrwt beam="2">  1       -2 0.10108980E+00 0.11159442E+04</pdfrwt>
<totfact> 0.91165413E+00</totfact>
</mgrwt>
</event>
<event>
 4    5  0.2025789E-007  0.1252639E+04  0.7818608E-02  0.9107578E-01
          2   -1    0    0  501    0  0.00000000000E+00  0.00000000000E+00  0.16723800053E+04  0.16723800053E+04  0.25500000000E-02 0. -1.
         -2   -1    0    0    0  501 -0.00000000000E+00 -0.00000000000E+00 -0.12324439912E+04  0.12324439912E+04  0.25500000000E-02 0.  1.
    8880023    1    1    2    0    0 -0.48368960012E+03  0.94938818077E+03  0.10787481806E+04  0.16531186861E+04  0.65864270000E+03 0.  1.
    8880022    1    1    2    0    0  0.48368960012E+03 -0.94938818077E+03 -0.63881216645E+03  0.12517053104E+04  0.15294330000E+03 0.  0.
<mgrwt>
<rscale>  0 0.12060493E+04</rscale>
<asrwt>0</asrwt>
<pdfrwt beam="1">  1        2 0.25728923E+00 0.12526387E+04</pdfrwt>
<pdfrwt beam="2">  1       -2 0.18960677E+00 0.12526387E+04</pdfrwt>
<totfact> 0.15284433E+00</totfact>
</mgrwt>
</event>
<event>
 4    5  0.2025789E-007  0.9127705E+03  0.7818608E-02  0.9505834E-01
          2   -1    0    0  501    0  0.00000000000E+00  0.00000000000E+00  0.21869127500E+04  0.21869127500E+04  0.25500000000E-02 0. -1.
         -2   -1    0    0    0  501 -0.00000000000E+00 -0.00000000000E+00 -0.61314074968E+03  0.61314074968E+03  0.25500000000E-02 0.  1.
    8880023    1    1    2    0    0  0.28782278358E+03 -0.56258135149E+03  0.18735695896E+04  0.20840856377E+04  0.65864270000E+03 0. -1.
    8880022    1    1    2    0    0 -0.28782278358E+03  0.56258135149E+03 -0.29979758932E+03  0.71596786197E+03  0.15294330000E+03 0.  0.
<mgrwt>
<rscale>  0 0.83855055E+03</rscale>
<asrwt>0</asrwt>
<pdfrwt beam="1">  1        2 0.33644812E+00 0.91277047E+03</pdfrwt>
<pdfrwt beam="2">  1       -2 0.94329346E-01 0.91277047E+03</pdfrwt>
<totfact> 0.50526215E+00</totfact>
</mgrwt>
</event>
<event>
 4    5  0.2025789E-007  0.9679440E+03  0.7818608E-02  0.9424753E-01
          2   -1    0    0  501    0  0.00000000000E+00  0.00000000000E+00  0.81252205687E+03  0.81252205687E+03  0.25500000000E-02 0. -1.
         -2   -1    0    0    0  501 -0.00000000000E+00 -0.00000000000E+00 -0.19490076235E+04  0.19490076235E+04  0.25500000000E-02 0.  1.
    8880023    1    1    2    0    0  0.59427564917E+03 -0.38722327158E+03  0.41160751023E+03  0.10518252507E+04  0.65864270000E+03 0.  0.
    8880022    1    1    2    0    0 -0.59427564917E+03  0.38722327158E+03 -0.15480930768E+04  0.17097044296E+04  0.15294330000E+03 0.  0.
<mgrwt>
<rscale>  0 0.90066269E+03</rscale>
<asrwt>0</asrwt>
<pdfrwt beam="1">  1        2 0.12500339E+00 0.96794401E+03</pdfrwt>
<pdfrwt beam="2">  1       -2 0.29984733E+00 0.96794401E+03</pdfrwt>
<totfact> 0.10841648E+00</totfact>
</mgrwt>
</event>
<event>
 4    5  0.2025789E-007  0.6946286E+03  0.7818608E-02  0.1002026E+00
         -2   -1    0    0    0  501 -0.00000000000E+00  0.00000000000E+00  0.51981441416E+03  0.51981441417E+03  0.25500000000E-02 0.  1.
          2   -1    0    0  501    0  0.00000000000E+00 -0.00000000000E+00 -0.11701044881E+04  0.11701044881E+04  0.25500000000E-02 0. -1.
    8880023    1    1    2    0    0  0.18397084686E+03  0.12187483488E+03 -0.10193499781E+04  0.12335247594E+04  0.65864270000E+03 0. -1.
    8880022    1    1    2    0    0 -0.18397084686E+03 -0.12187483488E+03  0.36905990412E+03  0.45639414294E+03  0.15294330000E+03 0.  0.
<mgrwt>
<rscale>  0 0.54770814E+03</rscale>
<asrwt>0</asrwt>
<pdfrwt beam="1">  1        2 0.18001607E+00 0.69462864E+03</pdfrwt>
<pdfrwt beam="2">  1       -2 0.79971448E-01 0.69462864E+03</pdfrwt>
<totfact> 0.27978739E+01</totfact>
</mgrwt>
</event>
<event>
 4    5  0.2025789E-007  0.8611966E+03  0.7818608E-02  0.9591438E-01
          2   -1    0    0  501    0  0.00000000000E+00  0.00000000000E+00  0.13220879828E+04  0.13220879828E+04  0.25500000000E-02 0. -1.
         -2   -1    0    0    0  501 -0.00000000000E+00 -0.00000000000E+00 -0.70412907053E+03  0.70412907054E+03  0.25500000000E-02 0.  1.
    8880023    1    1    2    0    0 -0.55169836616E+03  0.58977438366E+02  0.10119090139E+04  0.13287661511E+04  0.65864270000E+03 0. -1.
    8880022    1    1    2    0    0  0.55169836616E+03 -0.58977438366E+02 -0.39395010167E+03  0.69745090227E+03  0.15294330000E+03 0.  0.
<mgrwt>
<rscale>  0 0.77865444E+03</rscale>
<asrwt>0</asrwt>
<pdfrwt beam="1">  1        2 0.20339815E+00 0.86119663E+03</pdfrwt>
<pdfrwt beam="2">  1       -2 0.10832755E+00 0.86119663E+03</pdfrwt>
<totfact> 0.11031363E+01</totfact>
</mgrwt>
</event>
<event>
 4    5  0.2025789E-007  0.9085114E+03  0.7818608E-02  0.9512504E-01
         -2   -1    0    0    0  501 -0.00000000000E+00  0.00000000000E+00  0.17909039045E+03  0.17909039047E+03  0.25500000000E-02 0.  1.
          2   -1    0    0  501    0  0.00000000000E+00 -0.00000000000E+00 -0.34752452222E+04  0.34752452222E+04  0.25500000000E-02 0. -1.
    8880023    1    1    2    0    0  0.29063527206E+03  0.55417856624E+03 -0.15995683965E+04  0.18395684293E+04  0.65864270000E+03 0.  0.
    8880022    1    1    2    0    0 -0.29063527206E+03 -0.55417856624E+03 -0.16965864352E+04  0.18147671834E+04  0.15294330000E+03 0.  0.
<mgrwt>
<rscale>  0 0.83368204E+03</rscale>
<asrwt>0</asrwt>
<pdfrwt beam="1">  1        2 0.53465306E+00 0.90851139E+03</pdfrwt>
<pdfrwt beam="2">  1       -2 0.27552370E-01 0.90851139E+03</pdfrwt>
<totfact> 0.10658613E+01</totfact>
</mgrwt>
</event>
<event>
 4    5  0.2025789E-007  0.7484248E+03  0.7818608E-02  0.9836052E-01
          2   -1    0    0  501    0  0.00000000000E+00  0.00000000000E+00  0.49316986992E+03  0.49316986993E+03  0.25500000000E-02 0. -1.
         -2   -1    0    0    0  501 -0.00000000000E+00 -0.00000000000E+00 -0.12575163714E+04  0.12575163714E+04  0.25500000000E-02 0.  1.
    8880023    1    1    2    0    0  0.59721107784E+02  0.35037537206E+03  0.14508788759E+03  0.76235832353E+03  0.65864270000E+03 0. -1.
    8880022    1    1    2    0    0 -0.59721107784E+02 -0.35037537206E+03 -0.90943438903E+03  0.98832791776E+03  0.15294330000E+03 0.  0.
<mgrwt>
<rscale>  0 0.63463137E+03</rscale>
<asrwt>0</asrwt>
<pdfrwt beam="1">  1        2 0.75872288E-01 0.74842482E+03</pdfrwt>
<pdfrwt beam="2">  1       -2 0.19346406E+00 0.74842482E+03</pdfrwt>
<totfact> 0.93646655E+00</totfact>
</mgrwt>
</event>
<event>
 4    5  0.2025789E-007  0.9654530E+03  0.7818608E-02  0.9428221E-01
          2   -1    0    0  501    0  0.00000000000E+00  0.00000000000E+00  0.25053135935E+04  0.25053135935E+04  0.25500000000E-02 0. -1.
         -2   -1    0    0    0  501 -0.00000000000E+00 -0.00000000000E+00 -0.84628702930E+03  0.84628702931E+03  0.25500000000E-02 0.  1.
    8880023    1    1    2    0    0  0.14586169969E+03  0.69066169089E+03  0.22305711916E+04  0.24305446414E+04  0.65864270000E+03 0. -1.
    8880022    1    1    2    0    0 -0.14586169969E+03 -0.69066169089E+03 -0.57154462744E+03  0.92105598139E+03  0.15294330000E+03 0.  0.
<mgrwt>
<rscale>  0 0.89789169E+03</rscale>
<asrwt>0</asrwt>
<pdfrwt beam="1">  1        2 0.38543286E+00 0.96545296E+03</pdfrwt>
<pdfrwt beam="2">  1       -2 0.13019800E+00 0.96545296E+03</pdfrwt>
<totfact> 0.15133191E+00</totfact>
</mgrwt>
</event>
<event>
 4    5  0.2025789E-007  0.7777656E+03  0.7818608E-02  0.9761112E-01
         -2   -1    0    0    0  501 -0.00000000000E+00  0.00000000000E+00  0.34986780479E+03  0.34986780480E+03  0.25500000000E-02 0.  1.
          2   -1    0    0  501    0  0.00000000000E+00 -0.00000000000E+00 -0.21435940874E+04  0.21435940874E+04  0.25500000000E-02 0. -1.
    8880023    1    1    2    0    0  0.36423504187E+03 -0.19606609782E+03 -0.18884846131E+04  0.20423744565E+04  0.65864270000E+03 0. -1.
    8880022    1    1    2    0    0 -0.36423504187E+03  0.19606609782E+03  0.94758330479E+02  0.45108743570E+03  0.15294330000E+03 0.  0.
<mgrwt>
<rscale>  0 0.67491906E+03</rscale>
<asrwt>0</asrwt>
<pdfrwt beam="1">  1        2 0.32978370E+00 0.77776557E+03</pdfrwt>
<pdfrwt beam="2">  1       -2 0.53825817E-01 0.77776557E+03</pdfrwt>
<totfact> 0.18664887E+01</totfact>
</mgrwt>
</event>
<event>
 4    5  0.2025789E-007  0.1063407E+04  0.7818608E-02  0.9302936E-01
         -2   -1    0    0    0  501 -0.00000000000E+00  0.00000000000E+00  0.10640507567E+04  0.10640507567E+04  0.25500000000E-02 0.  1.
          2   -1    0    0  501    0  0.00000000000E+00 -0.00000000000E+00 -0.10476308882E+04  0.10476308882E+04  0.25500000000E-02 0. -1.
    8880023    1    1    2    0    0 -0.19675503101E+03  0.81136381709E+03 -0.43663947152E+03  0.11495599246E+04  0.65864270000E+03 0.  0.
    8880022    1    1    2    0    0  0.19675503101E+03 -0.81136381709E+03  0.45305934001E+03  0.96212172021E+03  0.15294330000E+03 0.  0.
<mgrwt>
<rscale>  0 0.10051305E+04</rscale>
<asrwt>0</asrwt>
<pdfrwt beam="1">  1        2 0.16117398E+00 0.10634068E+04</pdfrwt>
<pdfrwt beam="2">  1       -2 0.16370012E+00 0.10634068E+04</pdfrwt>
<totfact> 0.54744822E+00</totfact>
</mgrwt>
</event>
<event>
 4    5  0.2025789E-007  0.1571331E+04  0.7818608E-02  0.8860843E-01
          2   -1    0    0  501    0  0.00000000000E+00  0.00000000000E+00  0.19651444068E+04  0.19651444068E+04  0.25500000000E-02 0. -1.
         -2   -1    0    0    0  501 -0.00000000000E+00 -0.00000000000E+00 -0.17770466781E+04  0.17770466781E+04  0.25500000000E-02 0.  1.
    8880023    1    1    2    0    0  0.49188761237E+03  0.13391478018E+04  0.12078547102E+04  0.19819166142E+04  0.65864270000E+03 0.  0.
    8880022    1    1    2    0    0 -0.49188761237E+03 -0.13391478018E+04 -0.10197569815E+04  0.17602744708E+04  0.15294330000E+03 0.  0.
<mgrwt>
<rscale>  0 0.15360270E+04</rscale>
<asrwt>0</asrwt>
<pdfrwt beam="1">  1        2 0.30232991E+00 0.15713308E+04</pdfrwt>
<pdfrwt beam="2">  1       -2 0.27339180E+00 0.15713308E+04</pdfrwt>
<totfact> 0.30032101E-01</totfact>
</mgrwt>
</event>
<event>
 4    5  0.2025789E-007  0.7134115E+03  0.7818608E-02  0.9945544E-01
         -2   -1    0    0    0  501 -0.00000000000E+00  0.00000000000E+00  0.20776033973E+03  0.20776033975E+03  0.25500000000E-02 0.  1.
          2   -1    0    0  501    0  0.00000000000E+00 -0.00000000000E+00 -0.31740774358E+04  0.31740774358E+04  0.25500000000E-02 0. -1.
    8880023    1    1    2    0    0  0.19483278588E+03  0.19283660159E+03 -0.29833555042E+04  0.30674689958E+04  0.65864270000E+03 0. -1.
    8880022    1    1    2    0    0 -0.19483278588E+03 -0.19283660159E+03  0.17038408076E+02  0.31436877983E+03  0.15294330000E+03 0.  0.
<mgrwt>
<rscale>  0 0.58103893E+03</rscale>
<asrwt>0</asrwt>
<pdfrwt beam="1">  1        2 0.48831957E+00 0.71341151E+03</pdfrwt>
<pdfrwt beam="2">  1       -2 0.31963131E-01 0.71341151E+03</pdfrwt>
<totfact> 0.13181738E+01</totfact>
</mgrwt>
</event>
<event>
 4    5  0.2025789E-007  0.9280708E+03  0.7818608E-02  0.9482393E-01
          2   -1    0    0  501    0  0.00000000000E+00  0.00000000000E+00  0.31543773508E+04  0.31543773508E+04  0.25500000000E-02 0. -1.
         -2   -1    0    0    0  501 -0.00000000000E+00 -0.00000000000E+00 -0.36445866459E+03  0.36445866460E+03  0.25500000000E-02 0.  1.
    8880023    1    1    2    0    0 -0.65031011461E+03  0.67837999167E+02  0.26828846302E+04  0.28388704417E+04  0.65864270000E+03 0. -1.
    8880022    1    1    2    0    0  0.65031011461E+03 -0.67837999167E+02  0.10703405600E+03  0.67996557373E+03  0.15294330000E+03 0.  0.
<mgrwt>
<rscale>  0 0.85594428E+03</rscale>
<asrwt>0</asrwt>
<pdfrwt beam="1">  1        2 0.48528881E+00 0.92807082E+03</pdfrwt>
<pdfrwt beam="2">  1       -2 0.56070566E-01 0.92807082E+03</pdfrwt>
<totfact> 0.43052735E+00</totfact>
</mgrwt>
</event>
<event>
 4    5  0.2025789E-007  0.1021510E+04  0.7818608E-02  0.9353942E-01
         -2   -1    0    0    0  501 -0.00000000000E+00  0.00000000000E+00  0.60097474266E+03  0.60097474267E+03  0.25500000000E-02 0.  1.
          2   -1    0    0  501    0  0.00000000000E+00 -0.00000000000E+00 -0.24347712276E+04  0.24347712276E+04  0.25500000000E-02 0. -1.
    8880023    1    1    2    0    0 -0.14237329077E+03 -0.76772552222E+03 -0.19788716791E+04  0.22269746204E+04  0.65864270000E+03 0. -1.
    8880022    1    1    2    0    0  0.14237329077E+03  0.76772552222E+03  0.14507519414E+03  0.80877134987E+03  0.15294330000E+03 0.  0.
<mgrwt>
<rscale>  0 0.95965022E+03</rscale>
<asrwt>0</asrwt>
<pdfrwt beam="1">  1        2 0.37458018E+00 0.10215101E+04</pdfrwt>
<pdfrwt beam="2">  1       -2 0.92457654E-01 0.10215101E+04</pdfrwt>
<totfact> 0.37888699E+00</totfact>
</mgrwt>
</event>
<event>
 4    5  0.2025789E-007  0.1000339E+04  0.7818608E-02  0.9381114E-01
         -2   -1    0    0    0  501 -0.00000000000E+00  0.00000000000E+00  0.20594898250E+04  0.20594898250E+04  0.25500000000E-02 0.  1.
          2   -1    0    0  501    0  0.00000000000E+00 -0.00000000000E+00 -0.26027760437E+04  0.26027760437E+04  0.25500000000E-02 0. -1.
    8880023    1    1    2    0    0  0.74204153331E+03  0.12744874443E+03 -0.24285284963E+04  0.26264861857E+04  0.65864270000E+03 0.  0.
    8880022    1    1    2    0    0 -0.74204153331E+03 -0.12744874443E+03  0.18852422776E+04  0.20357796830E+04  0.15294330000E+03 0.  0.
<mgrwt>
<rscale>  0 0.93646384E+03</rscale>
<asrwt>0</asrwt>
<pdfrwt beam="1">  1        2 0.40042709E+00 0.10003395E+04</pdfrwt>
<pdfrwt beam="2">  1       -2 0.31684459E+00 0.10003395E+04</pdfrwt>
<totfact> 0.77683383E-02</totfact>
</mgrwt>
</event>
<event>
 4    5  0.2025789E-007  0.1224353E+04  0.7818608E-02  0.9133806E-01
          2   -1    0    0  501    0  0.00000000000E+00  0.00000000000E+00  0.12897277177E+04  0.12897277177E+04  0.25500000000E-02 0. -1.
         -2   -1    0    0    0  501 -0.00000000000E+00 -0.00000000000E+00 -0.12986500766E+04  0.12986500766E+04  0.25500000000E-02 0.  1.
    8880023    1    1    2    0    0  0.70949379700E+03 -0.74956553090E+03  0.61765149994E+03  0.13713254591E+04  0.65864270000E+03 0.  0.
    8880022    1    1    2    0    0 -0.70949379700E+03  0.74956553090E+03 -0.62657385888E+03  0.12170523353E+04  0.15294330000E+03 0.  0.
<mgrwt>
<rscale>  0 0.11763582E+04</rscale>
<asrwt>0</asrwt>
<pdfrwt beam="1">  1        2 0.19841965E+00 0.12243529E+04</pdfrwt>
<pdfrwt beam="2">  1       -2 0.19979232E+00 0.12243529E+04</pdfrwt>
<totfact> 0.21652860E+00</totfact>
</mgrwt>
</event>
<event>
 4    5  0.2025789E-007  0.8879121E+03  0.7818608E-02  0.9545722E-01
          2   -1    0    0  501    0  0.00000000000E+00  0.00000000000E+00  0.12960090348E+04  0.12960090348E+04  0.25500000000E-02 0. -1.
         -2   -1    0    0    0  501 -0.00000000000E+00 -0.00000000000E+00 -0.12409791255E+04  0.12409791255E+04  0.25500000000E-02 0.  1.
    8880023    1    1    2    0    0  0.57027823603E+03  0.17134883554E+03  0.10452294353E+04  0.13714563313E+04  0.65864270000E+03 0.  0.
    8880022    1    1    2    0    0 -0.57027823603E+03 -0.17134883554E+03 -0.99019952602E+03  0.11655318289E+04  0.15294330000E+03 0.  0.
<mgrwt>
<rscale>  0 0.80995250E+03</rscale>
<asrwt>0</asrwt>
<pdfrwt beam="1">  1        2 0.19938600E+00 0.88791210E+03</pdfrwt>
<pdfrwt beam="2">  1       -2 0.19091987E+00 0.88791210E+03</pdfrwt>
<totfact> 0.25560806E+00</totfact>
</mgrwt>
</event>
<event>
 4    5  0.2025789E-007  0.1005572E+04  0.7818608E-02  0.9374304E-01
         -2   -1    0    0    0  501 -0.00000000000E+00  0.00000000000E+00  0.60613969891E+03  0.60613969892E+03  0.25500000000E-02 0.  1.
          2   -1    0    0  501    0  0.00000000000E+00 -0.00000000000E+00 -0.28011278436E+04  0.28011278436E+04  0.25500000000E-02 0. -1.
    8880023    1    1    2    0    0 -0.47897244227E+03  0.58987262186E+03 -0.24028651535E+04  0.26047908673E+04  0.65864270000E+03 0.  0.
    8880022    1    1    2    0    0  0.47897244227E+03 -0.58987262186E+03  0.20787700877E+03  0.80247667521E+03  0.15294330000E+03 0.  0.
<mgrwt>
<rscale>  0 0.94220858E+03</rscale>
<asrwt>0</asrwt>
<pdfrwt beam="1">  1        2 0.43094274E+00 0.10055717E+04</pdfrwt>
<pdfrwt beam="2">  1       -2 0.93252263E-01 0.10055717E+04</pdfrwt>
<totfact> 0.22798468E+00</totfact>
</mgrwt>
</event>
<event>
 4    5  0.2025789E-007  0.2154256E+04  0.7818608E-02  0.8548373E-01
         -2   -1    0    0    0  501 -0.00000000000E+00  0.00000000000E+00  0.24909869610E+04  0.24909869610E+04  0.25500000000E-02 0.  1.
          2   -1    0    0  501    0  0.00000000000E+00 -0.00000000000E+00 -0.20626208579E+04  0.20626208579E+04  0.25500000000E-02 0. -1.
    8880023    1    1    2    0    0 -0.15049148990E+04  0.13936432153E+04 -0.62456328825E+03  0.22429667345E+04  0.65864270000E+03 0.  0.
    8880022    1    1    2    0    0  0.15049148990E+04 -0.13936432153E+04  0.10529293913E+04  0.23106410844E+04  0.15294330000E+03 0.  0.
<mgrwt>
<rscale>  0 0.21294662E+04</rscale>
<asrwt>0</asrwt>
<pdfrwt beam="1">  1        2 0.31732629E+00 0.21542564E+04</pdfrwt>
<pdfrwt beam="2">  1       -2 0.38322876E+00 0.21542564E+04</pdfrwt>
<totfact> 0.51373679E-02</totfact>
</mgrwt>
</event>
<event>
 4    5  0.2025789E-007  0.1058472E+04  0.7818608E-02  0.9308766E-01
          2   -1    0    0  501    0  0.00000000000E+00  0.00000000000E+00  0.54464249847E+03  0.54464249848E+03  0.25500000000E-02 0. -1.
         -2   -1    0    0    0  501 -0.00000000000E+00 -0.00000000000E+00 -0.20432358835E+04  0.20432358835E+04  0.25500000000E-02 0.  1.
    8880023    1    1    2    0    0  0.65405211099E+03  0.50869282021E+03 -0.26013024199E+03  0.10899681180E+04  0.65864270000E+03 0.  0.
    8880022    1    1    2    0    0 -0.65405211099E+03 -0.50869282021E+03 -0.12384631430E+04  0.14979102640E+04  0.15294330000E+03 0.  0.
<mgrwt>
<rscale>  0 0.99979860E+03</rscale>
<asrwt>0</asrwt>
<pdfrwt beam="1">  1        2 0.83791154E-01 0.10584719E+04</pdfrwt>
<pdfrwt beam="2">  1       -2 0.31434398E+00 0.10584719E+04</pdfrwt>
<totfact> 0.14476541E+00</totfact>
</mgrwt>
</event>
<event>
 4    5  0.2025789E-007  0.9865940E+03  0.7818608E-02  0.9399311E-01
          2   -1    0    0  501    0  0.00000000000E+00  0.00000000000E+00  0.13931306828E+04  0.13931306828E+04  0.25500000000E-02 0. -1.
         -2   -1    0    0    0  501 -0.00000000000E+00 -0.00000000000E+00 -0.56966456138E+03  0.56966456138E+03  0.25500000000E-02 0.  1.
    8880023    1    1    2    0    0  0.59673272247E+03  0.42833108527E+03  0.68175084807E+03  0.11992297052E+04  0.65864270000E+03 0.  0.
    8880022    1    1    2    0    0 -0.59673272247E+03 -0.42833108527E+03  0.14171527337E+03  0.76356553903E+03  0.15294330000E+03 0.  0.
<mgrwt>
<rscale>  0 0.92132422E+03</rscale>
<asrwt>0</asrwt>
<pdfrwt beam="1">  1        2 0.21432780E+00 0.98659397E+03</pdfrwt>
<pdfrwt beam="2">  1       -2 0.87640702E-01 0.98659397E+03</pdfrwt>
<totfact> 0.16357468E+01</totfact>
</mgrwt>
</event>
<event>
 4    5  0.2025789E-007  0.1085379E+04  0.7818608E-02  0.9277512E-01
         -2   -1    0    0    0  501 -0.00000000000E+00  0.00000000000E+00  0.12300388601E+04  0.12300388601E+04  0.25500000000E-02 0.  1.
          2   -1    0    0  501    0  0.00000000000E+00 -0.00000000000E+00 -0.12936990572E+04  0.12936990572E+04  0.25500000000E-02 0. -1.
    8880023    1    1    2    0    0  0.25464316454E+03  0.82425337988E+03 -0.82475297484E+03  0.13631817382E+04  0.65864270000E+03 0. -1.
    8880022    1    1    2    0    0 -0.25464316454E+03 -0.82425337988E+03  0.76109277773E+03  0.11605561791E+04  0.15294330000E+03 0.  0.
<mgrwt>
<rscale>  0 0.10287974E+04</rscale>
<asrwt>0</asrwt>
<pdfrwt beam="1">  1        2 0.19903063E+00 0.10853787E+04</pdfrwt>
<pdfrwt beam="2">  1       -2 0.18923675E+00 0.10853787E+04</pdfrwt>
<totfact> 0.25687570E+00</totfact>
</mgrwt>
</event>
<event>
 4    5  0.2025789E-007  0.7534914E+03  0.7818608E-02  0.9822259E-01
          2   -1    0    0  501    0  0.00000000000E+00  0.00000000000E+00  0.14503627653E+04  0.14503627653E+04  0.25500000000E-02 0. -1.
         -2   -1    0    0    0  501 -0.00000000000E+00 -0.00000000000E+00 -0.29999856194E+03  0.29999856195E+03  0.25500000000E-02 0.  1.
    8880023    1    1    2    0    0  0.32998689499E+03 -0.15826455058E+03  0.11235365192E+04  0.13528058010E+04  0.65864270000E+03 0.  0.
    8880022    1    1    2    0    0 -0.32998689499E+03  0.15826455058E+03  0.26827684151E+02  0.39755552629E+03  0.15294330000E+03 0.  0.
<mgrwt>
<rscale>  0 0.64181577E+03</rscale>
<asrwt>0</asrwt>
<pdfrwt beam="1">  1        2 0.22313273E+00 0.75349136E+03</pdfrwt>
<pdfrwt beam="2">  1       -2 0.46153625E-01 0.75349136E+03</pdfrwt>
<totfact> 0.61479060E+01</totfact>
</mgrwt>
</event>
<event>
 4    5  0.2025789E-007  0.6725011E+03  0.7818608E-02  0.1013930E+00
          2   -1    0    0  501    0  0.00000000000E+00  0.00000000000E+00  0.39188303968E+04  0.39188303968E+04  0.25500000000E-02 0. -1.
         -2   -1    0    0    0  501 -0.00000000000E+00 -0.00000000000E+00 -0.42468985551E+03  0.42468985552E+03  0.25500000000E-02 0.  1.
    8880023    1    1    2    0    0  0.21620378230E+02  0.13409000134E+03  0.38633453251E+04  0.39214404084E+04  0.65864270000E+03 0. -1.
    8880022    1    1    2    0    0 -0.21620378230E+02 -0.13409000134E+03 -0.36920478384E+03  0.42207984392E+03  0.15294330000E+03 0.  0.
<mgrwt>
<rscale>  0 0.49942205E+03</rscale>
<asrwt>0</asrwt>
<pdfrwt beam="1">  1        2 0.60289697E+00 0.67250113E+03</pdfrwt>
<pdfrwt beam="2">  1       -2 0.65336903E-01 0.67250113E+03</pdfrwt>
<totfact> 0.97056490E-01</totfact>
</mgrwt>
</event>
<event>
 4    5  0.2025789E-007  0.9272952E+03  0.7818608E-02  0.9483563E-01
          2   -1    0    0  501    0  0.00000000000E+00  0.00000000000E+00  0.22977029104E+04  0.22977029104E+04  0.25500000000E-02 0. -1.
         -2   -1    0    0    0  501 -0.00000000000E+00 -0.00000000000E+00 -0.36469055739E+03  0.36469055740E+03  0.25500000000E-02 0.  1.
    8880023    1    1    2    0    0  0.64329685549E+03 -0.11061350131E+03  0.17284158627E+04  0.19614529797E+04  0.65864270000E+03 0.  0.
    8880022    1    1    2    0    0 -0.64329685549E+03  0.11061350131E+03  0.20459649030E+03  0.70094048807E+03  0.15294330000E+03 0.  0.
<mgrwt>
<rscale>  0 0.85506599E+03</rscale>
<asrwt>0</asrwt>
<pdfrwt beam="1">  1        2 0.35349275E+00 0.92729521E+03</pdfrwt>
<pdfrwt beam="2">  1       -2 0.56106240E-01 0.92729521E+03</pdfrwt>
<totfact> 0.13793202E+01</totfact>
</mgrwt>
</event>
<event>
 4    5  0.2025789E-007  0.8502936E+03  0.7818608E-02  0.9611068E-01
          2   -1    0    0  501    0  0.00000000000E+00  0.00000000000E+00  0.28948822250E+04  0.28948822250E+04  0.25500000000E-02 0. -1.
         -2   -1    0    0    0  501 -0.00000000000E+00 -0.00000000000E+00 -0.39499055698E+03  0.39499055699E+03  0.25500000000E-02 0.  1.
    8880023    1    1    2    0    0 -0.51451617452E+03  0.15640388039E+03  0.25878004920E+04  0.27239145839E+04  0.65864270000E+03 0. -1.
    8880022    1    1    2    0    0  0.51451617452E+03 -0.15640388039E+03 -0.87908823985E+02  0.56595819810E+03  0.15294330000E+03 0.  0.
<mgrwt>
<rscale>  0 0.76567942E+03</rscale>
<asrwt>0</asrwt>
<pdfrwt beam="1">  1        2 0.44536649E+00 0.85029364E+03</pdfrwt>
<pdfrwt beam="2">  1       -2 0.60767779E-01 0.85029364E+03</pdfrwt>
<totfact> 0.53240629E+00</totfact>
</mgrwt>
</event>
<event>
 4    5  0.2025789E-007  0.7499128E+03  0.7818608E-02  0.9831959E-01
         -2   -1    0    0    0  501 -0.00000000000E+00  0.00000000000E+00  0.38207726051E+03  0.38207726051E+03  0.25500000000E-02 0.  1.
          2   -1    0    0  501    0  0.00000000000E+00 -0.00000000000E+00 -0.19507966058E+04  0.19507966058E+04  0.25500000000E-02 0. -1.
    8880023    1    1    2    0    0  0.19102545938E+03 -0.30342747433E+03 -0.17493029054E+04  0.19032681943E+04  0.65864270000E+03 0.  0.
    8880022    1    1    2    0    0 -0.19102545938E+03  0.30342747433E+03  0.18058356004E+03  0.42960567208E+03  0.15294330000E+03 0.  0.
<mgrwt>
<rscale>  0 0.63675281E+03</rscale>
<asrwt>0</asrwt>
<pdfrwt beam="1">  1        2 0.30012255E+00 0.74991277E+03</pdfrwt>
<pdfrwt beam="2">  1       -2 0.58781118E-01 0.74991277E+03</pdfrwt>
<totfact> 0.19880824E+01</totfact>
</mgrwt>
</event>
<event>
 4    5  0.2025789E-007  0.8778640E+03  0.7818608E-02  0.9562544E-01
         -2   -1    0    0    0  501 -0.00000000000E+00  0.00000000000E+00  0.92093339075E+03  0.92093339075E+03  0.25500000000E-02 0.  1.
          2   -1    0    0  501    0  0.00000000000E+00 -0.00000000000E+00 -0.19859848709E+04  0.19859848709E+04  0.25500000000E-02 0. -1.
    8880023    1    1    2    0    0 -0.18049198064E+03 -0.55159548509E+03 -0.17732201140E+04  0.19786244498E+04  0.65864270000E+03 0. -1.
    8880022    1    1    2    0    0  0.18049198064E+03  0.55159548509E+03  0.70816863383E+03  0.92829381190E+03  0.15294330000E+03 0.  0.
<mgrwt>
<rscale>  0 0.79825636E+03</rscale>
<asrwt>0</asrwt>
<pdfrwt beam="1">  1        2 0.30553613E+00 0.87786396E+03</pdfrwt>
<pdfrwt beam="2">  1       -2 0.14168206E+00 0.87786396E+03</pdfrwt>
<totfact> 0.24044019E+00</totfact>
</mgrwt>
</event>
<event>
 4    5  0.2025789E-007  0.9827039E+03  0.7818608E-02  0.9404544E-01
          2   -1    0    0  501    0  0.00000000000E+00  0.00000000000E+00  0.10436671195E+04  0.10436671195E+04  0.25500000000E-02 0. -1.
         -2   -1    0    0    0  501 -0.00000000000E+00 -0.00000000000E+00 -0.11867386427E+04  0.11867386427E+04  0.25500000000E-02 0.  1.
    8880023    1    1    2    0    0 -0.20086989998E+03 -0.70110479728E+03  0.62151791772E+03  0.11627516424E+04  0.65864270000E+03 0. -1.
    8880022    1    1    2    0    0  0.20086989998E+03  0.70110479728E+03 -0.76458944096E+03  0.10676541199E+04  0.15294330000E+03 0.  0.
<mgrwt>
<rscale>  0 0.91702634E+03</rscale>
<asrwt>0</asrwt>
<pdfrwt beam="1">  1        2 0.16056417E+00 0.98270385E+03</pdfrwt>
<pdfrwt beam="2">  1       -2 0.18257518E+00 0.98270385E+03</pdfrwt>
<totfact> 0.40845205E+00</totfact>
</mgrwt>
</event>
<event>
 4    5  0.2025789E-007  0.1227108E+04  0.7818608E-02  0.9131211E-01
         -2   -1    0    0    0  501 -0.00000000000E+00  0.00000000000E+00  0.58551971239E+03  0.58551971239E+03  0.25500000000E-02 0.  1.
          2   -1    0    0  501    0  0.00000000000E+00 -0.00000000000E+00 -0.25852025697E+04  0.25852025697E+04  0.25500000000E-02 0. -1.
    8880023    1    1    2    0    0 -0.22203028347E+03  0.10112800493E+04 -0.16720885597E+04  0.20740480088E+04  0.65864270000E+03 0.  0.
    8880022    1    1    2    0    0  0.22203028347E+03 -0.10112800493E+04 -0.32759429767E+03  0.10966742734E+04  0.15294330000E+03 0.  0.
<mgrwt>
<rscale>  0 0.11792547E+04</rscale>
<asrwt>0</asrwt>
<pdfrwt beam="1">  1        2 0.39772347E+00 0.12271084E+04</pdfrwt>
<pdfrwt beam="2">  1       -2 0.90079957E-01 0.12271084E+04</pdfrwt>
<totfact> 0.32179838E+00</totfact>
</mgrwt>
</event>
<event>
 4    5  0.2025789E-007  0.1143987E+04  0.7818608E-02  0.9213593E-01
         -2   -1    0    0    0  501 -0.00000000000E+00  0.00000000000E+00  0.70236284182E+03  0.70236284183E+03  0.25500000000E-02 0.  1.
          2   -1    0    0  501    0  0.00000000000E+00 -0.00000000000E+00 -0.19808682240E+04  0.19808682240E+04  0.25500000000E-02 0. -1.
    8880023    1    1    2    0    0  0.92402166567E+03 -0.14518820698E+03 -0.13045468398E+04  0.17350931726E+04  0.65864270000E+03 0. -1.
    8880022    1    1    2    0    0 -0.92402166567E+03  0.14518820698E+03  0.26041457602E+02  0.94813789325E+03  0.15294330000E+03 0.  0.
<mgrwt>
<rscale>  0 0.10914219E+04</rscale>
<asrwt>0</asrwt>
<pdfrwt beam="1">  1        2 0.30474896E+00 0.11439868E+04</pdfrwt>
<pdfrwt beam="2">  1       -2 0.10805582E+00 0.11439868E+04</pdfrwt>
<totfact> 0.46191382E+00</totfact>
</mgrwt>
</event>
<event>
 4    5  0.2025789E-007  0.7480819E+03  0.7818608E-02  0.9837001E-01
          2   -1    0    0  501    0  0.00000000000E+00  0.00000000000E+00  0.22310786500E+04  0.22310786500E+04  0.25500000000E-02 0. -1.
         -2   -1    0    0    0  501 -0.00000000000E+00 -0.00000000000E+00 -0.40492488331E+03  0.40492488332E+03  0.25500000000E-02 0.  1.
    8880023    1    1    2    0    0  0.74210713324E+02  0.34685599663E+03  0.20550697534E+04  0.21869929607E+04  0.65864270000E+03 0.  0.
    8880022    1    1    2    0    0 -0.74210713324E+02 -0.34685599663E+03 -0.22891598672E+03  0.44901057266E+03  0.15294330000E+03 0.  0.
<mgrwt>
<rscale>  0 0.63414104E+03</rscale>
<asrwt>0</asrwt>
<pdfrwt beam="1">  1        2 0.34324287E+00 0.74808189E+03</pdfrwt>
<pdfrwt beam="2">  1       -2 0.62296136E-01 0.74808189E+03</pdfrwt>
<totfact> 0.12347253E+01</totfact>
</mgrwt>
</event>
<event>
 4    5  0.2025789E-007  0.8112512E+03  0.7818608E-02  0.9686977E-01
         -2   -1    0    0    0  501 -0.00000000000E+00  0.00000000000E+00  0.18926113108E+03  0.18926113109E+03  0.25500000000E-02 0.  1.
          2   -1    0    0  501    0  0.00000000000E+00 -0.00000000000E+00 -0.37084597449E+04  0.37084597449E+04  0.25500000000E-02 0. -1.
    8880023    1    1    2    0    0  0.23406956368E+03  0.41173980561E+03 -0.32119536121E+04  0.33128197115E+04  0.65864270000E+03 0. -1.
    8880022    1    1    2    0    0 -0.23406956368E+03 -0.41173980561E+03 -0.30724500173E+03  0.58490116453E+03  0.15294330000E+03 0.  0.
<mgrwt>
<rscale>  0 0.71797515E+03</rscale>
<asrwt>0</asrwt>
<pdfrwt beam="1">  1        2 0.57053221E+00 0.81125115E+03</pdfrwt>
<pdfrwt beam="2">  1       -2 0.29117100E-01 0.81125115E+03</pdfrwt>
<totfact> 0.67158122E+00</totfact>
</mgrwt>
</event>
<event>
 4    5  0.2025789E-007  0.9123844E+03  0.7818608E-02  0.9506436E-01
          2   -1    0    0  501    0  0.00000000000E+00  0.00000000000E+00  0.10113517318E+04  0.10113517318E+04  0.25500000000E-02 0. -1.
         -2   -1    0    0    0  501 -0.00000000000E+00 -0.00000000000E+00 -0.13775454501E+04  0.13775454501E+04  0.25500000000E-02 0.  1.
    8880023    1    1    2    0    0  0.46935215313E+03 -0.42230741689E+03  0.69342782732E+03  0.11459875025E+04  0.65864270000E+03 0.  0.
    8880022    1    1    2    0    0 -0.46935215313E+03  0.42230741689E+03 -0.10596215457E+04  0.12429096794E+04  0.15294330000E+03 0.  0.
<mgrwt>
<rscale>  0 0.83810968E+03</rscale>
<asrwt>0</asrwt>
<pdfrwt beam="1">  1        2 0.15559257E+00 0.91238435E+03</pdfrwt>
<pdfrwt beam="2">  1       -2 0.21193007E+00 0.91238435E+03</pdfrwt>
<totfact> 0.27658327E+00</totfact>
</mgrwt>
</event>
<event>
 4    5  0.2025789E-007  0.9299078E+03  0.7818608E-02  0.9479632E-01
          2   -1    0    0  501    0  0.00000000000E+00  0.00000000000E+00  0.37520883134E+04  0.37520883134E+04  0.25500000000E-02 0. -1.
         -2   -1    0    0    0  501 -0.00000000000E+00 -0.00000000000E+00 -0.20678784095E+03  0.20678784097E+03  0.25500000000E-02 0.  1.
    8880023    1    1    2    0    0  0.34736022213E+03 -0.55700914431E+03  0.28171098355E+04  0.29666203570E+04  0.65864270000E+03 0. -1.
    8880022    1    1    2    0    0 -0.34736022213E+03  0.55700914431E+03  0.72819063696E+03  0.99225579743E+03  0.15294330000E+03 0.  0.
<mgrwt>
<rscale>  0 0.85802304E+03</rscale>
<asrwt>0</asrwt>
<pdfrwt beam="1">  1        2 0.57724436E+00 0.92990780E+03</pdfrwt>
<pdfrwt beam="2">  1       -2 0.31813514E-01 0.92990780E+03</pdfrwt>
<totfact> 0.51811851E+00</totfact>
</mgrwt>
</event>
<event>
 4    5  0.2025789E-007  0.8004939E+03  0.7818608E-02  0.9709729E-01
         -2   -1    0    0    0  501 -0.00000000000E+00  0.00000000000E+00  0.27575322075E+03  0.27575322076E+03  0.25500000000E-02 0.  1.
          2   -1    0    0  501    0  0.00000000000E+00 -0.00000000000E+00 -0.17496342298E+04  0.17496342298E+04  0.25500000000E-02 0. -1.
    8880023    1    1    2    0    0 -0.35524737994E+03  0.28421737917E+03 -0.51150440479E+03  0.94996167394E+03  0.65864270000E+03 0.  0.
    8880022    1    1    2    0    0  0.35524737994E+03 -0.28421737917E+03 -0.96237660430E+03  0.10754257767E+04  0.15294330000E+03 0.  0.
<mgrwt>
<rscale>  0 0.70440461E+03</rscale>
<asrwt>0</asrwt>
<pdfrwt beam="1">  1        2 0.26917449E+00 0.80049386E+03</pdfrwt>
<pdfrwt beam="2">  1       -2 0.42423574E-01 0.80049386E+03</pdfrwt>
<totfact> 0.49438786E+01</totfact>
</mgrwt>
</event>
<event>
 4    5  0.2025789E-007  0.7640768E+03  0.7818608E-02  0.9794665E-01
         -2   -1    0    0    0  501 -0.00000000000E+00  0.00000000000E+00  0.30423971280E+03  0.30423971281E+03  0.25500000000E-02 0.  1.
          2   -1    0    0  501    0  0.00000000000E+00 -0.00000000000E+00 -0.28633649886E+04  0.28633649886E+04  0.25500000000E-02 0. -1.
    8880023    1    1    2    0    0  0.37459844277E+03  0.98382828478E+02 -0.26356984344E+04  0.27442156653E+04  0.65864270000E+03 0.  1.
    8880022    1    1    2    0    0 -0.37459844277E+03 -0.98382828478E+02  0.76573158611E+02  0.42338903611E+03  0.15294330000E+03 0.  1.
<mgrwt>
<rscale>  0 0.65649630E+03</rscale>
<asrwt>0</asrwt>
<pdfrwt beam="1">  1        2 0.44051767E+00 0.76407682E+03</pdfrwt>
<pdfrwt beam="2">  1       -2 0.46806112E-01 0.76407682E+03</pdfrwt>
<totfact> 0.96737988E+00</totfact>
</mgrwt>
</event>
<event>
 4    5  0.2025789E-007  0.7693017E+03  0.7818608E-02  0.9781595E-01
          2   -1    0    0  501    0  0.00000000000E+00  0.00000000000E+00  0.43487028757E+04  0.43487028757E+04  0.25500000000E-02 0. -1.
         -2   -1    0    0    0  501 -0.00000000000E+00 -0.00000000000E+00 -0.10208561009E+03  0.10208561012E+03  0.25500000000E-02 0.  1.
    8880023    1    1    2    0    0 -0.28513177914E+03  0.27697438072E+03  0.35648558890E+04  0.36469196117E+04  0.65864270000E+03 0. -1.
    8880022    1    1    2    0    0  0.28513177914E+03 -0.27697438072E+03  0.68176137670E+03  0.80386887415E+03  0.15294330000E+03 0.  0.
<mgrwt>
<rscale>  0 0.66359662E+03</rscale>
<asrwt>0</asrwt>
<pdfrwt beam="1">  1        2 0.66903108E+00 0.76930173E+03</pdfrwt>
<pdfrwt beam="2">  1       -2 0.15705481E-01 0.76930173E+03</pdfrwt>
<totfact> 0.62003750E+00</totfact>
</mgrwt>
</event>
<event>
 4    5  0.2025789E-007  0.1348610E+04  0.7818608E-02  0.9024679E-01
         -2   -1    0    0    0  501 -0.00000000000E+00  0.00000000000E+00  0.11306239684E+04  0.11306239685E+04  0.25500000000E-02 0.  1.
          2   -1    0    0  501    0  0.00000000000E+00 -0.00000000000E+00 -0.21352633274E+04  0.21352633274E+04  0.25500000000E-02 0. -1.
    8880023    1    1    2    0    0 -0.99366075667E+02  0.11726320681E+04 -0.14666093506E+04  0.19924087878E+04  0.65864270000E+03 0.  0.
    8880022    1    1    2    0    0  0.99366075667E+02 -0.11726320681E+04  0.46196999164E+03  0.12734785080E+04  0.15294330000E+03 0.  0.
<mgrwt>
<rscale>  0 0.13061798E+04</rscale>
<asrwt>0</asrwt>
<pdfrwt beam="1">  1        2 0.32850205E+00 0.13486103E+04</pdfrwt>
<pdfrwt beam="2">  1       -2 0.17394215E+00 0.13486103E+04</pdfrwt>
<totfact> 0.10731618E+00</totfact>
</mgrwt>
</event>
<event>
 4    5  0.2025789E-007  0.7260146E+03  0.7818608E-02  0.9902736E-01
         -2   -1    0    0    0  501 -0.00000000000E+00  0.00000000000E+00  0.28175813950E+03  0.28175813951E+03  0.25500000000E-02 0.  1.
          2   -1    0    0  501    0  0.00000000000E+00 -0.00000000000E+00 -0.20476850233E+04  0.20476850233E+04  0.25500000000E-02 0. -1.
    8880023    1    1    2    0    0 -0.27819539612E+03  0.12607271114E+03 -0.18416318094E+04  0.19795719069E+04  0.65864270000E+03 0.  0.
    8880022    1    1    2    0    0  0.27819539612E+03 -0.12607271114E+03  0.75704925631E+02  0.34987125589E+03  0.15294330000E+03 0.  0.
<mgrwt>
<rscale>  0 0.60128857E+03</rscale>
<asrwt>0</asrwt>
<pdfrwt beam="1">  1        2 0.31502846E+00 0.72601461E+03</pdfrwt>
<pdfrwt beam="2">  1       -2 0.43347407E-01 0.72601461E+03</pdfrwt>
<totfact> 0.32867270E+01</totfact>
</mgrwt>
</event>
<event>
 4    5  0.2025789E-007  0.1175859E+04  0.7818608E-02  0.9180954E-01
         -2   -1    0    0    0  501 -0.00000000000E+00  0.00000000000E+00  0.45930318251E+03  0.45930318252E+03  0.25500000000E-02 0.  1.
          2   -1    0    0  501    0  0.00000000000E+00 -0.00000000000E+00 -0.52243408587E+04  0.52243408587E+04  0.25500000000E-02 0. -1.
    8880023    1    1    2    0    0  0.20250347691E+03  0.95279893543E+03 -0.45266105954E+03  0.12599784564E+04  0.65864270000E+03 0.  0.
    8880022    1    1    2    0    0 -0.20250347691E+03 -0.95279893543E+03 -0.43123766167E+04  0.44236655849E+04  0.15294330000E+03 0.  0.
<mgrwt>
<rscale>  0 0.11252194E+04</rscale>
<asrwt>0</asrwt>
<pdfrwt beam="1">  1        2 0.80374470E+00 0.11758587E+04</pdfrwt>
<pdfrwt beam="2">  1       -2 0.70662032E-01 0.11758587E+04</pdfrwt>
<totfact> 0.33255938E-02</totfact>
</mgrwt>
</event>
<event>
 4    5  0.2025789E-007  0.1027858E+04  0.7818608E-02  0.9345985E-01
         -2   -1    0    0    0  501 -0.00000000000E+00  0.00000000000E+00  0.52326726547E+03  0.52326726548E+03  0.25500000000E-02 0.  1.
          2   -1    0    0  501    0  0.00000000000E+00 -0.00000000000E+00 -0.17950539254E+04  0.17950539254E+04  0.25500000000E-02 0. -1.
    8880023    1    1    2    0    0  0.76848213413E+03  0.17921330243E+03 -0.10820927406E+04  0.14924533841E+04  0.65864270000E+03 0.  0.
    8880022    1    1    2    0    0 -0.76848213413E+03 -0.17921330243E+03 -0.18969391938E+03  0.82586780681E+03  0.15294330000E+03 0.  0.
<mgrwt>
<rscale>  0 0.96657412E+03</rscale>
<asrwt>0</asrwt>
<pdfrwt beam="1">  1        2 0.27616214E+00 0.10278582E+04</pdfrwt>
<pdfrwt beam="2">  1       -2 0.80502657E-01 0.10278582E+04</pdfrwt>
<totfact> 0.11796781E+01</totfact>
</mgrwt>
</event>
<event>
 4    5  0.2025789E-007  0.1452546E+04  0.7818608E-02  0.8943893E-01
          2   -1    0    0  501    0  0.00000000000E+00  0.00000000000E+00  0.84132933010E+03  0.84132933011E+03  0.25500000000E-02 0. -1.
         -2   -1    0    0    0  501 -0.00000000000E+00 -0.00000000000E+00 -0.25600842645E+04  0.25600842645E+04  0.25500000000E-02 0.  1.
    8880023    1    1    2    0    0 -0.88125629961E+03 -0.94840224820E+03 -0.31619096466E+03  0.14865619470E+04  0.65864270000E+03 0.  0.
    8880022    1    1    2    0    0  0.88125629961E+03  0.94840224820E+03 -0.14025639698E+04  0.19148516476E+04  0.15294330000E+03 0.  0.
<mgrwt>
<rscale>  0 0.14137956E+04</rscale>
<asrwt>0</asrwt>
<pdfrwt beam="1">  1        2 0.12943528E+00 0.14525459E+04</pdfrwt>
<pdfrwt beam="2">  1       -2 0.39385911E+00 0.14525459E+04</pdfrwt>
<totfact> 0.25103207E-01</totfact>
</mgrwt>
</event>
<event>
 4    5  0.2025789E-007  0.6751549E+03  0.7818608E-02  0.1012209E+00
         -2   -1    0    0    0  501 -0.00000000000E+00  0.00000000000E+00  0.23296996171E+04  0.23296996171E+04  0.25500000000E-02 0.  1.
          2   -1    0    0  501    0  0.00000000000E+00 -0.00000000000E+00 -0.14405280268E+03  0.14405280271E+03  0.25500000000E-02 0. -1.
    8880023    1    1    2    0    0  0.14426581134E+03 -0.34804548449E+02  0.69867415463E+03  0.97158620900E+03  0.65864270000E+03 0. -1.
    8880022    1    1    2    0    0 -0.14426581134E+03  0.34804548449E+02  0.14869726598E+04  0.15021662108E+04  0.15294330000E+03 0.  0.
<mgrwt>
<rscale>  0 0.50606145E+03</rscale>
<asrwt>0</asrwt>
<pdfrwt beam="1">  1        2 0.22161970E-01 0.67515494E+03</pdfrwt>
<pdfrwt beam="2">  1       -2 0.35841533E+00 0.67515494E+03</pdfrwt>
<totfact> 0.36914890E+00</totfact>
</mgrwt>
</event>
<event>
 4    5  0.2025789E-007  0.6676987E+03  0.7818608E-02  0.1017369E+00
         -2   -1    0    0    0  501 -0.00000000000E+00  0.00000000000E+00  0.68500599447E+02  0.68500599494E+02  0.25500000000E-02 0.  1.
          2   -1    0    0  501    0  0.00000000000E+00 -0.00000000000E+00 -0.27010111562E+04  0.27010111562E+04  0.25500000000E-02 0. -1.
    8880023    1    1    2    0    0 -0.95091582331E+02 -0.54488515809E+02 -0.21626544065E+04  0.22633814737E+04  0.65864270000E+03 0.  0.
    8880022    1    1    2    0    0  0.95091582331E+02  0.54488515809E+02 -0.46985615031E+03  0.50613028203E+03  0.15294330000E+03 0.  1.
<mgrwt>
<rscale>  0 0.48648059E+03</rscale>
<asrwt>0</asrwt>
<pdfrwt beam="1">  1        2 0.41554010E+00 0.66769874E+03</pdfrwt>
<pdfrwt beam="2">  1       -2 0.10538556E-01 0.66769874E+03</pdfrwt>
<totfact> 0.17616892E+02</totfact>
</mgrwt>
</event>
<event>
 4    5  0.2025789E-007  0.6788130E+03  0.7818608E-02  0.1010003E+00
          2   -1    0    0  501    0  0.00000000000E+00  0.00000000000E+00  0.45125249770E+04  0.45125249770E+04  0.25500000000E-02 0. -1.
         -2   -1    0    0    0  501 -0.00000000000E+00 -0.00000000000E+00 -0.56725561573E+02  0.56725561630E+02  0.25500000000E-02 0.  1.
    8880023    1    1    2    0    0 -0.20545519706E+02  0.16295625357E+03  0.40411071569E+04  0.40977230407E+04  0.65864270000E+03 0.  0.
    8880022    1    1    2    0    0  0.20545519706E+02 -0.16295625357E+03  0.41469225857E+03  0.47152749792E+03  0.15294330000E+03 0.  0.
<mgrwt>
<rscale>  0 0.51473357E+03</rscale>
<asrwt>0</asrwt>
<pdfrwt beam="1">  1        2 0.69423447E+00 0.67881298E+03</pdfrwt>
<pdfrwt beam="2">  1       -2 0.87270112E-02 0.67881298E+03</pdfrwt>
<totfact> 0.11778160E+01</totfact>
</mgrwt>
</event>
<event>
 4    5  0.2025789E-007  0.1063941E+04  0.7818608E-02  0.9302308E-01
          2   -1    0    0  501    0  0.00000000000E+00  0.00000000000E+00  0.46162731561E+04  0.46162731561E+04  0.25500000000E-02 0. -1.
         -2   -1    0    0    0  501 -0.00000000000E+00 -0.00000000000E+00 -0.49779652543E+03  0.49779652544E+03  0.25500000000E-02 0.  1.
    8880023    1    1    2    0    0  0.83071831241E+03  0.89815196357E+02  0.41297032000E+04  0.42645537176E+04  0.65864270000E+03 0.  0.
    8880022    1    1    2    0    0 -0.83071831241E+03 -0.89815196357E+02 -0.11226569333E+02  0.84951596392E+03  0.15294330000E+03 0.  0.
<mgrwt>
<rscale>  0 0.10057070E+04</rscale>
<asrwt>0</asrwt>
<pdfrwt beam="1">  1        2 0.71019588E+00 0.10639407E+04</pdfrwt>
<pdfrwt beam="2">  1       -2 0.76584079E-01 0.10639407E+04</pdfrwt>
<totfact> 0.15274799E-01</totfact>
</mgrwt>
</event>
<event>
 4    5  0.2025789E-007  0.7893100E+03  0.7818608E-02  0.9734405E-01
         -2   -1    0    0    0  501 -0.00000000000E+00  0.00000000000E+00  0.24558982838E+03  0.24558982839E+03  0.25500000000E-02 0.  1.
          2   -1    0    0  501    0  0.00000000000E+00 -0.00000000000E+00 -0.29071640375E+04  0.29071640375E+04  0.25500000000E-02 0. -1.
    8880023    1    1    2    0    0 -0.25144406381E+02 -0.43424388742E+03 -0.25622911331E+04  0.26811091085E+04  0.65864270000E+03 0.  0.
    8880022    1    1    2    0    0  0.25144406381E+02  0.43424388742E+03 -0.99283076026E+02  0.47164475734E+03  0.15294330000E+03 0.  0.
<mgrwt>
<rscale>  0 0.69004746E+03</rscale>
<asrwt>0</asrwt>
<pdfrwt beam="1">  1        2 0.44725598E+00 0.78930995E+03</pdfrwt>
<pdfrwt beam="2">  1       -2 0.37783052E-01 0.78930995E+03</pdfrwt>
<totfact> 0.13826151E+01</totfact>
</mgrwt>
</event>
<event>
 4    5  0.2025789E-007  0.9406911E+03  0.7818608E-02  0.9463636E-01
         -2   -1    0    0    0  501 -0.00000000000E+00  0.00000000000E+00  0.12322819502E+04  0.12322819502E+04  0.25500000000E-02 0.  1.
          2   -1    0    0  501    0  0.00000000000E+00 -0.00000000000E+00 -0.98387615623E+03  0.98387615623E+03  0.25500000000E-02 0. -1.
    8880023    1    1    2    0    0  0.59111998155E+03  0.31885227662E+03 -0.60575493441E+03  0.11188560469E+04  0.65864270000E+03 0.  0.
    8880022    1    1    2    0    0 -0.59111998155E+03 -0.31885227662E+03  0.85416072836E+03  0.10973020595E+04  0.15294330000E+03 0.  0.
<mgrwt>
<rscale>  0 0.87018716E+03</rscale>
<asrwt>0</asrwt>
<pdfrwt beam="1">  1        2 0.15136556E+00 0.94069114E+03</pdfrwt>
<pdfrwt beam="2">  1       -2 0.18958184E+00 0.94069114E+03</pdfrwt>
<totfact> 0.40174454E+00</totfact>
</mgrwt>
</event>
<event>
 4    5  0.2025789E-007  0.1133414E+04  0.7818608E-02  0.9224735E-01
          2   -1    0    0  501    0  0.00000000000E+00  0.00000000000E+00  0.33070569923E+04  0.33070569923E+04  0.25500000000E-02 0. -1.
         -2   -1    0    0    0  501 -0.00000000000E+00 -0.00000000000E+00 -0.93525854230E+03  0.93525854231E+03  0.25500000000E-02 0.  1.
    8880023    1    1    2    0    0  0.58405401483E+03  0.71393072963E+03  0.29381428885E+04  0.31491760857E+04  0.65864270000E+03 0.  0.
    8880022    1    1    2    0    0 -0.58405401483E+03 -0.71393072963E+03 -0.56634443846E+03  0.10931394490E+04  0.15294330000E+03 0.  0.
<mgrwt>
<rscale>  0 0.10801726E+04</rscale>
<asrwt>0</asrwt>
<pdfrwt beam="1">  1        2 0.50877801E+00 0.11334136E+04</pdfrwt>
<pdfrwt beam="2">  1       -2 0.14388593E+00 0.11334136E+04</pdfrwt>
<totfact> 0.36902290E-01</totfact>
</mgrwt>
</event>
<event>
 4    5  0.2025789E-007  0.1719018E+04  0.7818608E-02  0.8768707E-01
         -2   -1    0    0    0  501 -0.00000000000E+00  0.00000000000E+00  0.17263032236E+04  0.17263032236E+04  0.25500000000E-02 0.  1.
          2   -1    0    0  501    0  0.00000000000E+00 -0.00000000000E+00 -0.19701798073E+04  0.19701798073E+04  0.25500000000E-02 0. -1.
    8880023    1    1    2    0    0  0.15740421031E+04  0.20881895560E+03 -0.93633831599E+03  0.19574865381E+04  0.65864270000E+03 0. -1.
    8880022    1    1    2    0    0 -0.15740421031E+04 -0.20881895560E+03  0.69246173227E+03  0.17389964928E+04  0.15294330000E+03 0.  0.
<mgrwt>
<rscale>  0 0.16871859E+04</rscale>
<asrwt>0</asrwt>
<pdfrwt beam="1">  1        2 0.30310458E+00 0.17190184E+04</pdfrwt>
<pdfrwt beam="2">  1       -2 0.26558511E+00 0.17190184E+04</pdfrwt>
<totfact> 0.32807857E-01</totfact>
</mgrwt>
</event>
<event>
 4    5  0.2025789E-007  0.1553025E+04  0.7818608E-02  0.8873073E-01
         -2   -1    0    0    0  501 -0.00000000000E+00  0.00000000000E+00  0.20354837265E+04  0.20354837265E+04  0.25500000000E-02 0.  1.
          2   -1    0    0  501    0  0.00000000000E+00 -0.00000000000E+00 -0.13550619537E+04  0.13550619537E+04  0.25500000000E-02 0. -1.
    8880023    1    1    2    0    0 -0.10078101232E+04  0.98101666867E+03 -0.40782498139E+03  0.16056794108E+04  0.65864270000E+03 0. -1.
    8880022    1    1    2    0    0  0.10078101232E+04 -0.98101666867E+03  0.10882467541E+04  0.17848662694E+04  0.15294330000E+03 0.  0.
<mgrwt>
<rscale>  0 0.15172330E+04</rscale>
<asrwt>0</asrwt>
<pdfrwt beam="1">  1        2 0.20847107E+00 0.15530245E+04</pdfrwt>
<pdfrwt beam="2">  1       -2 0.31315134E+00 0.15530245E+04</pdfrwt>
<totfact> 0.38000982E-01</totfact>
</mgrwt>
</event>
<event>
 4    5  0.2025789E-007  0.1257034E+04  0.7818608E-02  0.9103581E-01
         -2   -1    0    0    0  501 -0.00000000000E+00  0.00000000000E+00  0.95317362893E+03  0.95317362893E+03  0.25500000000E-02 0.  1.
          2   -1    0    0  501    0  0.00000000000E+00 -0.00000000000E+00 -0.25940355591E+04  0.25940355591E+04  0.25500000000E-02 0. -1.
    8880023    1    1    2    0    0 -0.10401050179E+04  0.25398202614E+03 -0.20384814756E+04  0.23948992151E+04  0.65864270000E+03 0.  0.
    8880022    1    1    2    0    0  0.10401050179E+04 -0.25398202614E+03  0.39761954544E+03  0.11523099729E+04  0.15294330000E+03 0.  0.
<mgrwt>
<rscale>  0 0.12106552E+04</rscale>
<asrwt>0</asrwt>
<pdfrwt beam="1">  1        2 0.39908239E+00 0.12570344E+04</pdfrwt>
<pdfrwt beam="2">  1       -2 0.14664210E+00 0.12570344E+04</pdfrwt>
<totfact> 0.94861246E-01</totfact>
</mgrwt>
</event>
<event>
 4    5  0.2025789E-007  0.8901218E+03  0.7818608E-02  0.9542079E-01
          2   -1    0    0  501    0  0.00000000000E+00  0.00000000000E+00  0.72073039319E+03  0.72073039319E+03  0.25500000000E-02 0. -1.
         -2   -1    0    0    0  501 -0.00000000000E+00 -0.00000000000E+00 -0.78969649533E+03  0.78969649533E+03  0.25500000000E-02 0.  1.
    8880023    1    1    2    0    0 -0.59656982120E+03 -0.51098028268E+02 -0.64128184358E+02  0.89242881528E+03  0.65864270000E+03 0. -1.
    8880022    1    1    2    0    0  0.59656982120E+03  0.51098028268E+02 -0.48379177812E+01  0.61799807323E+03  0.15294330000E+03 0.  1.
<mgrwt>
<rscale>  0 0.81251338E+03</rscale>
<asrwt>0</asrwt>
<pdfrwt beam="1">  1        2 0.11088160E+00 0.89012177E+03</pdfrwt>
<pdfrwt beam="2">  1       -2 0.12149177E+00 0.89012177E+03</pdfrwt>
<totfact> 0.20363911E+01</totfact>
</mgrwt>
</event>
<event>
 4    5  0.2025789E-007  0.9129043E+03  0.7818608E-02  0.9505626E-01
         -2   -1    0    0    0  501 -0.00000000000E+00  0.00000000000E+00  0.25821500674E+04  0.25821500674E+04  0.25500000000E-02 0.  1.
          2   -1    0    0  501    0  0.00000000000E+00 -0.00000000000E+00 -0.43509138504E+03  0.43509138505E+03  0.25500000000E-02 0. -1.
    8880023    1    1    2    0    0 -0.16402742190E+03 -0.61047443030E+03  0.16046559459E+03  0.92689990749E+03  0.65864270000E+03 0. -1.
    8880022    1    1    2    0    0  0.16402742190E+03  0.61047443030E+03  0.19865930878E+04  0.20903415450E+04  0.15294330000E+03 0.  0.
<mgrwt>
<rscale>  0 0.83870331E+03</rscale>
<asrwt>0</asrwt>
<pdfrwt beam="1">  1        2 0.66937137E-01 0.91290428E+03</pdfrwt>
<pdfrwt beam="2">  1       -2 0.39725385E+00 0.91290428E+03</pdfrwt>
<totfact> 0.57804963E-01</totfact>
</mgrwt>
</event>
<event>
 4    5  0.2025789E-007  0.6810072E+03  0.7818608E-02  0.1008760E+00
          2   -1    0    0  501    0  0.00000000000E+00  0.00000000000E+00  0.10952222578E+04  0.10952222578E+04  0.25500000000E-02 0. -1.
         -2   -1    0    0    0  501 -0.00000000000E+00 -0.00000000000E+00 -0.47686415137E+03  0.47686415138E+03  0.25500000000E-02 0.  1.
    8880023    1    1    2    0    0  0.72425363381E+02  0.15721061464E+03  0.94942365354E+03  0.11684075020E+04  0.65864270000E+03 0. -1.
    8880022    1    1    2    0    0 -0.72425363381E+02 -0.15721061464E+03 -0.33106554709E+03  0.40367890718E+03  0.15294330000E+03 0. -1.
<mgrwt>
<rscale>  0 0.51970619E+03</rscale>
<asrwt>0</asrwt>
<pdfrwt beam="1">  1        2 0.16849573E+00 0.68100721E+03</pdfrwt>
<pdfrwt beam="2">  1       -2 0.73363715E-01 0.68100721E+03</pdfrwt>
<totfact> 0.37665436E+01</totfact>
</mgrwt>
</event>
<event>
 4    5  0.2025789E-007  0.1109026E+04  0.7818608E-02  0.9251073E-01
         -2   -1    0    0    0  501 -0.00000000000E+00  0.00000000000E+00  0.22790774605E+04  0.22790774605E+04  0.25500000000E-02 0.  1.
          2   -1    0    0  501    0  0.00000000000E+00 -0.00000000000E+00 -0.10723680058E+04  0.10723680058E+04  0.25500000000E-02 0. -1.
    8880023    1    1    2    0    0  0.54886527774E+03  0.70347397724E+03 -0.65023347476E+03  0.12855903343E+04  0.65864270000E+03 0.  0.
    8880022    1    1    2    0    0 -0.54886527774E+03 -0.70347397724E+03  0.18569429295E+04  0.20658551320E+04  0.15294330000E+03 0.  0.
<mgrwt>
<rscale>  0 0.10541473E+04</rscale>
<asrwt>0</asrwt>
<pdfrwt beam="1">  1        2 0.16497969E+00 0.11090261E+04</pdfrwt>
<pdfrwt beam="2">  1       -2 0.35062730E+00 0.11090261E+04</pdfrwt>
<totfact> 0.34755609E-01</totfact>
</mgrwt>
</event>
<event>
 4    5  0.2025789E-007  0.1374897E+04  0.7818608E-02  0.9003438E-01
          2   -1    0    0  501    0  0.00000000000E+00  0.00000000000E+00  0.36939577260E+04  0.36939577260E+04  0.25500000000E-02 0. -1.
         -2   -1    0    0    0  501 -0.00000000000E+00 -0.00000000000E+00 -0.54969718510E+03  0.54969718510E+03  0.25500000000E-02 0.  1.
    8880023    1    1    2    0    0  0.11572666935E+04 -0.34243852932E+03  0.25332594683E+04  0.28823157506E+04  0.65864270000E+03 0.  0.
    8880022    1    1    2    0    0 -0.11572666935E+04  0.34243852932E+03  0.61100107267E+03  0.13613391606E+04  0.15294330000E+03 0.  0.
<mgrwt>
<rscale>  0 0.13334673E+04</rscale>
<asrwt>0</asrwt>
<pdfrwt beam="1">  1        2 0.56830119E+00 0.13748966E+04</pdfrwt>
<pdfrwt beam="2">  1       -2 0.84568797E-01 0.13748966E+04</pdfrwt>
<totfact> 0.70683962E-01</totfact>
</mgrwt>
</event>
<event>
 4    5  0.2025789E-007  0.6997460E+03  0.7818608E-02  0.9998257E-01
          2   -1    0    0  501    0  0.00000000000E+00  0.00000000000E+00  0.18396725733E+04  0.18396725733E+04  0.25500000000E-02 0. -1.
         -2   -1    0    0    0  501 -0.00000000000E+00 -0.00000000000E+00 -0.46010920626E+03  0.46010920626E+03  0.25500000000E-02 0.  1.
    8880023    1    1    2    0    0  0.11709417047E+03 -0.20523937669E+03  0.17206854449E+04  0.18575260033E+04  0.65864270000E+03 0. -1.
    8880022    1    1    2    0    0 -0.11709417047E+03  0.20523937669E+03 -0.34112207792E+03  0.44225577617E+03  0.15294330000E+03 0.  0.
<mgrwt>
<rscale>  0 0.55726750E+03</rscale>
<asrwt>0</asrwt>
<pdfrwt beam="1">  1        2 0.28302655E+00 0.69974599E+03</pdfrwt>
<pdfrwt beam="2">  1       -2 0.70786030E-01 0.69974599E+03</pdfrwt>
<totfact> 0.15452674E+01</totfact>
</mgrwt>
</event>
<event>
 4    5  0.2025789E-007  0.1533955E+04  0.7818608E-02  0.8886024E-01
         -2   -1    0    0    0  501 -0.00000000000E+00  0.00000000000E+00  0.18110756840E+04  0.18110756840E+04  0.25500000000E-02 0.  1.
          2   -1    0    0  501    0  0.00000000000E+00 -0.00000000000E+00 -0.16834733543E+04  0.16834733543E+04  0.25500000000E-02 0. -1.
    8880023    1    1    2    0    0 -0.27730956939E+03 -0.13573164536E+04 -0.88576008408E+03  0.17713242744E+04  0.65864270000E+03 0.  0.
    8880022    1    1    2    0    0  0.27730956939E+03  0.13573164536E+04  0.10133624137E+04  0.17232247639E+04  0.15294330000E+03 0.  0.
<mgrwt>
<rscale>  0 0.14976401E+04</rscale>
<asrwt>0</asrwt>
<pdfrwt beam="1">  1        2 0.25899590E+00 0.15339553E+04</pdfrwt>
<pdfrwt beam="2">  1       -2 0.27862703E+00 0.15339553E+04</pdfrwt>
<totfact> 0.40236974E-01</totfact>
</mgrwt>
</event>
<event>
 4    5  0.2025789E-007  0.1032565E+04  0.7818608E-02  0.9340141E-01
         -2   -1    0    0    0  501 -0.00000000000E+00  0.00000000000E+00  0.92285714104E+03  0.92285714104E+03  0.25500000000E-02 0.  1.
          2   -1    0    0  501    0  0.00000000000E+00 -0.00000000000E+00 -0.19473792597E+04  0.19473792597E+04  0.25500000000E-02 0. -1.
    8880023    1    1    2    0    0  0.16319042153E+03  0.77829828577E+03 -0.15805365111E+04  0.18879314618E+04  0.65864270000E+03 0.  0.
    8880022    1    1    2    0    0 -0.16319042153E+03 -0.77829828577E+03  0.55601439248E+03  0.98230493889E+03  0.15294330000E+03 0.  0.
<mgrwt>
<rscale>  0 0.97169939E+03</rscale>
<asrwt>0</asrwt>
<pdfrwt beam="1">  1        2 0.29959681E+00 0.10325645E+04</pdfrwt>
<pdfrwt beam="2">  1       -2 0.14197802E+00 0.10325645E+04</pdfrwt>
<totfact> 0.24575176E+00</totfact>
</mgrwt>
</event>
<event>
 4    5  0.2025789E-007  0.7268605E+03  0.7818608E-02  0.9900021E-01
          2   -1    0    0  501    0  0.00000000000E+00  0.00000000000E+00  0.34397094124E+04  0.34397094124E+04  0.25500000000E-02 0. -1.
         -2   -1    0    0    0  501 -0.00000000000E+00 -0.00000000000E+00 -0.29784202996E+03  0.29784202997E+03  0.25500000000E-02 0.  1.
    8880023    1    1    2    0    0  0.28975147916E+03  0.10276216466E+03  0.32857952354E+04  0.33652305296E+04  0.65864270000E+03 0. -1.
    8880022    1    1    2    0    0 -0.28975147916E+03 -0.10276216466E+03 -0.14392785301E+03  0.37232091272E+03  0.15294330000E+03 0.  0.
<mgrwt>
<rscale>  0 0.60260266E+03</rscale>
<asrwt>0</asrwt>
<pdfrwt beam="1">  1        2 0.52918604E+00 0.72686050E+03</pdfrwt>
<pdfrwt beam="2">  1       -2 0.45821853E-01 0.72686050E+03</pdfrwt>
<totfact> 0.43974301E+00</totfact>
</mgrwt>
</event>
<event>
 4    5  0.2025789E-007  0.6730531E+03  0.7818608E-02  0.1013563E+00
         -2   -1    0    0    0  501 -0.00000000000E+00  0.00000000000E+00  0.65361871306E+03  0.65361871307E+03  0.25500000000E-02 0.  1.
          2   -1    0    0  501    0  0.00000000000E+00 -0.00000000000E+00 -0.18392335341E+04  0.18392335341E+04  0.25500000000E-02 0. -1.
    8880023    1    1    2    0    0  0.21342868021E+02  0.13687498946E+03 -0.17590509611E+04  0.18834173119E+04  0.65864270000E+03 0. -1.
    8880022    1    1    2    0    0 -0.21342868021E+02 -0.13687498946E+03  0.57343613999E+03  0.60943493534E+03  0.15294330000E+03 0.  0.
<mgrwt>
<rscale>  0 0.50082981E+03</rscale>
<asrwt>0</asrwt>
<pdfrwt beam="1">  1        2 0.28295900E+00 0.67305311E+03</pdfrwt>
<pdfrwt beam="2">  1       -2 0.10055673E+00 0.67305311E+03</pdfrwt>
<totfact> 0.69911162E+00</totfact>
</mgrwt>
</event>
<event>
 4    5  0.2025789E-007  0.7878137E+03  0.7818608E-02  0.9737792E-01
          2   -1    0    0  501    0  0.00000000000E+00  0.00000000000E+00  0.19063278912E+04  0.19063278912E+04  0.25500000000E-02 0. -1.
         -2   -1    0    0    0  501 -0.00000000000E+00 -0.00000000000E+00 -0.36874411325E+03  0.36874411326E+03  0.25500000000E-02 0.  1.
    8880023    1    1    2    0    0  0.28608416784E+03  0.32403103992E+03  0.16272052209E+04  0.18078847594E+04  0.65864270000E+03 0.  0.
    8880022    1    1    2    0    0 -0.28608416784E+03 -0.32403103992E+03 -0.89621442975E+02  0.46718724509E+03  0.15294330000E+03 0.  1.
<mgrwt>
<rscale>  0 0.68810544E+03</rscale>
<asrwt>0</asrwt>
<pdfrwt beam="1">  1        2 0.29328121E+00 0.78781373E+03</pdfrwt>
<pdfrwt beam="2">  1       -2 0.56729865E-01 0.78781373E+03</pdfrwt>
<totfact> 0.22535552E+01</totfact>
</mgrwt>
</event>
<event>
 4    5  0.2025789E-007  0.6937175E+03  0.7818608E-02  0.1002433E+00
          2   -1    0    0  501    0  0.00000000000E+00  0.00000000000E+00  0.89066010225E+03  0.89066010225E+03  0.25500000000E-02 0. -1.
         -2   -1    0    0    0  501 -0.00000000000E+00 -0.00000000000E+00 -0.67806593933E+03  0.67806593934E+03  0.25500000000E-02 0.  1.
    8880023    1    1    2    0    0 -0.20716666205E+03 -0.67199218757E+02  0.71747075292E+03  0.99800212846E+03  0.65864270000E+03 0. -1.
    8880022    1    1    2    0    0  0.20716666205E+03  0.67199218757E+02 -0.50487659000E+03  0.57072391312E+03  0.15294330000E+03 0.  0.
<mgrwt>
<rscale>  0 0.54595975E+03</rscale>
<asrwt>0</asrwt>
<pdfrwt beam="1">  1        2 0.13702463E+00 0.69371750E+03</pdfrwt>
<pdfrwt beam="2">  1       -2 0.10431784E+00 0.69371750E+03</pdfrwt>
<totfact> 0.22685161E+01</totfact>
</mgrwt>
</event>
<event>
 4    5  0.2025789E-007  0.6613149E+03  0.7818608E-02  0.1022848E+00
         -2   -1    0    0    0  501 -0.00000000000E+00  0.00000000000E+00  0.17763124026E+04  0.17763124026E+04  0.25500000000E-02 0.  1.
          2   -1    0    0  501    0  0.00000000000E+00 -0.00000000000E+00 -0.19069179278E+03  0.19069179280E+03  0.25500000000E-02 0. -1.
    8880023    1    1    2    0    0 -0.28579281276E+02 -0.52061377779E+02  0.40593582452E+03  0.77596473004E+03  0.65864270000E+03 0. -1.
    8880022    1    1    2    0    0  0.28579281276E+02  0.52061377779E+02  0.11796847853E+04  0.11910394654E+04  0.15294330000E+03 0.  0.
<mgrwt>
<rscale>  0 0.46672731E+03</rscale>
<asrwt>0</asrwt>
<pdfrwt beam="1">  1        2 0.29337198E-01 0.66131488E+03</pdfrwt>
<pdfrwt beam="2">  1       -2 0.27327884E+00 0.66131488E+03</pdfrwt>
<totfact> 0.88066198E+00</totfact>
</mgrwt>
</event>
<event>
 4    5  0.2025789E-007  0.1366320E+04  0.7818608E-02  0.9010305E-01
         -2   -1    0    0    0  501 -0.00000000000E+00  0.00000000000E+00  0.91418606699E+03  0.91418606699E+03  0.25500000000E-02 0.  1.
          2   -1    0    0  501    0  0.00000000000E+00 -0.00000000000E+00 -0.19182940885E+04  0.19182940885E+04  0.25500000000E-02 0. -1.
    8880023    1    1    2    0    0  0.71676858144E+03 -0.95878192690E+03 -0.19653382382E+03  0.13803824589E+04  0.65864270000E+03 0.  0.
    8880022    1    1    2    0    0 -0.71676858144E+03  0.95878192690E+03 -0.80757419773E+03  0.14520976966E+04  0.15294330000E+03 0.  0.
<mgrwt>
<rscale>  0 0.13245697E+04</rscale>
<asrwt>0</asrwt>
<pdfrwt beam="1">  1        2 0.29512217E+00 0.13663199E+04</pdfrwt>
<pdfrwt beam="2">  1       -2 0.14064401E+00 0.13663199E+04</pdfrwt>
<totfact> 0.25209772E+00</totfact>
</mgrwt>
</event>
<event>
 4    5  0.2025789E-007  0.8007839E+03  0.7818608E-02  0.9709104E-01
          2   -1    0    0  501    0  0.00000000000E+00  0.00000000000E+00  0.11800541738E+04  0.11800541738E+04  0.25500000000E-02 0. -1.
         -2   -1    0    0    0  501 -0.00000000000E+00 -0.00000000000E+00 -0.17980040764E+04  0.17980040764E+04  0.25500000000E-02 0.  1.
    8880023    1    1    2    0    0  0.43306580320E+03 -0.14106264228E+03  0.10052665695E+04  0.12852298397E+04  0.65864270000E+03 0.  0.
    8880022    1    1    2    0    0 -0.43306580320E+03  0.14106264228E+03 -0.16232164721E+04  0.16928284105E+04  0.15294330000E+03 0.  0.
<mgrwt>
<rscale>  0 0.70477342E+03</rscale>
<asrwt>0</asrwt>
<pdfrwt beam="1">  1        2 0.18154680E+00 0.80078391E+03</pdfrwt>
<pdfrwt beam="2">  1       -2 0.27661601E+00 0.80078391E+03</pdfrwt>
<totfact> 0.88836381E-01</totfact>
</mgrwt>
</event>
<event>
 4    5  0.2025789E-007  0.1618012E+04  0.7818608E-02  0.8830507E-01
         -2   -1    0    0    0  501 -0.00000000000E+00  0.00000000000E+00  0.13104689407E+04  0.13104689407E+04  0.25500000000E-02 0.  1.
          2   -1    0    0  501    0  0.00000000000E+00 -0.00000000000E+00 -0.26226961921E+04  0.26226961921E+04  0.25500000000E-02 0. -1.
    8880023    1    1    2    0    0  0.81418167317E+02  0.14756430540E+04 -0.17508474214E+04  0.23839941779E+04  0.65864270000E+03 0.  0.
    8880022    1    1    2    0    0 -0.81418167317E+02 -0.14756430540E+04  0.43862016997E+03  0.15491709549E+04  0.15294330000E+03 0.  0.
<mgrwt>
<rscale>  0 0.15838895E+04</rscale>
<asrwt>0</asrwt>
<pdfrwt beam="1">  1        2 0.40349172E+00 0.16180116E+04</pdfrwt>
<pdfrwt beam="2">  1       -2 0.20161061E+00 0.16180116E+04</pdfrwt>
<totfact> 0.35544138E-01</totfact>
</mgrwt>
</event>
<event>
 4    5  0.2025789E-007  0.1259461E+04  0.7818608E-02  0.9101383E-01
         -2   -1    0    0    0  501 -0.00000000000E+00  0.00000000000E+00  0.59711236827E+03  0.59711236828E+03  0.25500000000E-02 0.  1.
          2   -1    0    0  501    0  0.00000000000E+00 -0.00000000000E+00 -0.23683936821E+04  0.23683936821E+04  0.25500000000E-02 0. -1.
    8880023    1    1    2    0    0  0.10705246024E+04  0.80055831112E+02 -0.12011567212E+04  0.17404078647E+04  0.65864270000E+03 0. -1.
    8880022    1    1    2    0    0 -0.10705246024E+04 -0.80055831112E+02 -0.57012459260E+03  0.12250981857E+04  0.15294330000E+03 0.  0.
<mgrwt>
<rscale>  0 0.12131970E+04</rscale>
<asrwt>0</asrwt>
<pdfrwt beam="1">  1        2 0.36436825E+00 0.12594610E+04</pdfrwt>
<pdfrwt beam="2">  1       -2 0.91863443E-01 0.12594610E+04</pdfrwt>
<totfact> 0.40804362E+00</totfact>
</mgrwt>
</event>
<event>
 4    5  0.2025789E-007  0.1001160E+04  0.7818608E-02  0.9380041E-01
         -2   -1    0    0    0  501 -0.00000000000E+00  0.00000000000E+00  0.76646313360E+03  0.76646313360E+03  0.25500000000E-02 0.  1.
          2   -1    0    0  501    0  0.00000000000E+00 -0.00000000000E+00 -0.11281496333E+04  0.11281496333E+04  0.25500000000E-02 0. -1.
    8880023    1    1    2    0    0 -0.34974147291E+03  0.66797667469E+03  0.85384394034E+02  0.10047948232E+04  0.65864270000E+03 0. -1.
    8880022    1    1    2    0    0  0.34974147291E+03 -0.66797667469E+03 -0.44707089371E+03  0.88981794364E+03  0.15294330000E+03 0.  0.
<mgrwt>
<rscale>  0 0.93736583E+03</rscale>
<asrwt>0</asrwt>
<pdfrwt beam="1">  1        2 0.17356148E+00 0.10011604E+04</pdfrwt>
<pdfrwt beam="2">  1       -2 0.11791741E+00 0.10011604E+04</pdfrwt>
<totfact> 0.11523461E+01</totfact>
</mgrwt>
</event>
<event>
 4    5  0.2025789E-007  0.6749026E+03  0.7818608E-02  0.1012368E+00
          2   -1    0    0  501    0  0.00000000000E+00  0.00000000000E+00  0.20595287037E+04  0.20595287037E+04  0.25500000000E-02 0. -1.
         -2   -1    0    0    0  501 -0.00000000000E+00 -0.00000000000E+00 -0.80660101457E+03  0.80660101458E+03  0.25500000000E-02 0.  1.
    8880023    1    1    2    0    0 -0.14715315729E+03 -0.54119895537E+01  0.19888249657E+04  0.21002186295E+04  0.65864270000E+03 0. -1.
    8880022    1    1    2    0    0  0.14715315729E+03  0.54119895537E+01 -0.73589727653E+03  0.76591108880E+03  0.15294330000E+03 0.  0.
<mgrwt>
<rscale>  0 0.50544371E+03</rscale>
<asrwt>0</asrwt>
<pdfrwt beam="1">  1        2 0.31685056E+00 0.67490262E+03</pdfrwt>
<pdfrwt beam="2">  1       -2 0.12409247E+00 0.67490262E+03</pdfrwt>
<totfact> 0.31823923E+00</totfact>
</mgrwt>
</event>
<event>
 4    5  0.2025789E-007  0.1657323E+04  0.7818608E-02  0.8805858E-01
          2   -1    0    0  501    0  0.00000000000E+00  0.00000000000E+00  0.12115978953E+04  0.12115978953E+04  0.25500000000E-02 0. -1.
         -2   -1    0    0    0  501 -0.00000000000E+00 -0.00000000000E+00 -0.25100292859E+04  0.25100292859E+04  0.25500000000E-02 0.  1.
    8880023    1    1    2    0    0 -0.14008603531E+04  0.59203052427E+03  0.85731129271E+02  0.16595390635E+04  0.65864270000E+03 0.  0.
    8880022    1    1    2    0    0  0.14008603531E+04 -0.59203052427E+03 -0.13841625198E+04  0.20620881176E+04  0.15294330000E+03 0.  0.
<mgrwt>
<rscale>  0 0.16241327E+04</rscale>
<asrwt>0</asrwt>
<pdfrwt beam="1">  1        2 0.18639968E+00 0.16573232E+04</pdfrwt>
<pdfrwt beam="2">  1       -2 0.38615835E+00 0.16573232E+04</pdfrwt>
<totfact> 0.15840077E-01</totfact>
</mgrwt>
</event>
<event>
 4    5  0.2039832E-007  0.8783397E+03  0.7818608E-02  0.9561738E-01
         -2   -1    0    0    0  501 -0.00000000000E+00  0.00000000000E+00  0.10024400664E+04  0.10024400664E+04  0.25500000000E-02 0.  1.
          2   -1    0    0  501    0  0.00000000000E+00 -0.00000000000E+00 -0.24876725330E+04  0.24876725330E+04  0.25500000000E-02 0. -1.
    8880023    1    1    2    0    0  0.50098836169E+03  0.29441643592E+03 -0.23090347660E+04  0.24704497836E+04  0.65864270000E+03 0. -1.
    8880022    1    1    2    0    0 -0.50098836169E+03 -0.29441643592E+03  0.82380229946E+03  0.10196628158E+04  0.15294330000E+03 0.  0.
<mgrwt>
<rscale>  0 0.79881204E+03</rscale>
<asrwt>0</asrwt>
<pdfrwt beam="1">  1        2 0.38271885E+00 0.87833967E+03</pdfrwt>
<pdfrwt beam="2">  1       -2 0.15422155E+00 0.87833967E+03</pdfrwt>
<totfact> 0.10104877E+00</totfact>
</mgrwt>
</event>
<event>
 4    5  0.2025789E-007  0.9923089E+03  0.7818608E-02  0.9391690E-01
         -2   -1    0    0    0  501 -0.00000000000E+00  0.00000000000E+00  0.18723956208E+04  0.18723956208E+04  0.25500000000E-02 0.  1.
          2   -1    0    0  501    0  0.00000000000E+00 -0.00000000000E+00 -0.78615582191E+03  0.78615582192E+03  0.25500000000E-02 0. -1.
    8880023    1    1    2    0    0 -0.32730121384E+03 -0.66613854843E+03 -0.33547776635E+03  0.10474837413E+04  0.65864270000E+03 0.  0.
    8880022    1    1    2    0    0  0.32730121384E+03  0.66613854843E+03  0.14217175653E+04  0.16110677015E+04  0.15294330000E+03 0.  0.
<mgrwt>
<rscale>  0 0.92762738E+03</rscale>
<asrwt>0</asrwt>
<pdfrwt beam="1">  1        2 0.12094705E+00 0.99230885E+03</pdfrwt>
<pdfrwt beam="2">  1       -2 0.28806086E+00 0.99230885E+03</pdfrwt>
<totfact> 0.13307021E+00</totfact>
</mgrwt>
</event>
<event>
 4    5  0.2025789E-007  0.8361873E+03  0.7818608E-02  0.9637412E-01
         -2   -1    0    0    0  501 -0.00000000000E+00  0.00000000000E+00  0.41696155852E+03  0.41696155853E+03  0.25500000000E-02 0.  1.
          2   -1    0    0  501    0  0.00000000000E+00 -0.00000000000E+00 -0.13330540294E+04  0.13330540294E+04  0.25500000000E-02 0. -1.
    8880023    1    1    2    0    0  0.51428086773E+03 -0.30236521630E+02 -0.87615876265E+03  0.12111413798E+04  0.65864270000E+03 0. -1.
    8880022    1    1    2    0    0 -0.51428086773E+03  0.30236521630E+02 -0.39933708223E+02  0.53887420816E+03  0.15294330000E+03 0.  0.
<mgrwt>
<rscale>  0 0.74868752E+03</rscale>
<asrwt>0</asrwt>
<pdfrwt beam="1">  1        2 0.20508523E+00 0.83618734E+03</pdfrwt>
<pdfrwt beam="2">  1       -2 0.64147933E-01 0.83618734E+03</pdfrwt>
<totfact> 0.35930114E+01</totfact>
</mgrwt>
</event>
<event>
 4    5  0.2025789E-007  0.1104198E+04  0.7818608E-02  0.9256397E-01
          2   -1    0    0  501    0  0.00000000000E+00  0.00000000000E+00  0.11795034647E+04  0.11795034647E+04  0.25500000000E-02 0. -1.
         -2   -1    0    0    0  501 -0.00000000000E+00 -0.00000000000E+00 -0.16962976382E+04  0.16962976382E+04  0.25500000000E-02 0.  1.
    8880023    1    1    2    0    0 -0.75668471026E+02  0.88301601156E+03  0.74082963068E+03  0.13296923487E+04  0.65864270000E+03 0. -1.
    8880022    1    1    2    0    0  0.75668471026E+02 -0.88301601156E+03 -0.12576238041E+04  0.15461087542E+04  0.15294330000E+03 0.  0.
<mgrwt>
<rscale>  0 0.10489811E+04</rscale>
<asrwt>0</asrwt>
<pdfrwt beam="1">  1        2 0.18146207E+00 0.11041980E+04</pdfrwt>
<pdfrwt beam="2">  1       -2 0.26096887E+00 0.11041980E+04</pdfrwt>
<totfact> 0.10559999E+00</totfact>
</mgrwt>
</event>
<event>
 4    5  0.2025789E-007  0.9940505E+03  0.7818608E-02  0.9389383E-01
         -2   -1    0    0    0  501 -0.00000000000E+00  0.00000000000E+00  0.35549148732E+03  0.35549148733E+03  0.25500000000E-02 0.  1.
          2   -1    0    0  501    0  0.00000000000E+00 -0.00000000000E+00 -0.29599129978E+04  0.29599129978E+04  0.25500000000E-02 0. -1.
    8880023    1    1    2    0    0 -0.13382169110E+02  0.74441055880E+03 -0.22832542760E+04  0.24902583114E+04  0.65864270000E+03 0.  0.
    8880022    1    1    2    0    0  0.13382169110E+02 -0.74441055880E+03 -0.32116723455E+03  0.82514617376E+03  0.15294330000E+03 0.  0.
<mgrwt>
<rscale>  0 0.92954582E+03</rscale>
<asrwt>0</asrwt>
<pdfrwt beam="1">  1        2 0.45537121E+00 0.99405049E+03</pdfrwt>
<pdfrwt beam="2">  1       -2 0.54691000E-01 0.99405049E+03</pdfrwt>
<totfact> 0.59349718E+00</totfact>
</mgrwt>
</event>
<event>
 4    5  0.2025789E-007  0.1924220E+04  0.7818608E-02  0.8656766E-01
          2   -1    0    0  501    0  0.00000000000E+00  0.00000000000E+00  0.34873586864E+04  0.34873586864E+04  0.25500000000E-02 0. -1.
         -2   -1    0    0    0  501 -0.00000000000E+00 -0.00000000000E+00 -0.11673293676E+04  0.11673293676E+04  0.25500000000E-02 0.  1.
    8880023    1    1    2    0    0  0.11510952629E+04  0.13941993174E+04  0.20647457172E+04  0.28223743770E+04  0.65864270000E+03 0.  0.
    8880022    1    1    2    0    0 -0.11510952629E+04 -0.13941993174E+04  0.25528360164E+03  0.18323136771E+04  0.15294330000E+03 0.  0.
<mgrwt>
<rscale>  0 0.18961682E+04</rscale>
<asrwt>0</asrwt>
<pdfrwt beam="1">  1        2 0.53651671E+00 0.19242199E+04</pdfrwt>
<pdfrwt beam="2">  1       -2 0.17958914E+00 0.19242199E+04</pdfrwt>
<totfact> 0.13690282E-01</totfact>
</mgrwt>
</event>
<event>
 4    5  0.2025789E-007  0.1010591E+04  0.7818608E-02  0.9367830E-01
         -2   -1    0    0    0  501 -0.00000000000E+00  0.00000000000E+00  0.33958461248E+03  0.33958461249E+03  0.25500000000E-02 0.  1.
          2   -1    0    0  501    0  0.00000000000E+00 -0.00000000000E+00 -0.35076860573E+04  0.35076860573E+04  0.25500000000E-02 0. -1.
    8880023    1    1    2    0    0  0.56053664426E+02 -0.76442293940E+03 -0.28125740452E+04  0.29886229955E+04  0.65864270000E+03 0.  0.
    8880022    1    1    2    0    0 -0.56053664426E+02  0.76442293940E+03 -0.35552739963E+03  0.85864767424E+03  0.15294330000E+03 0.  0.
<mgrwt>
<rscale>  0 0.94771071E+03</rscale>
<asrwt>0</asrwt>
<pdfrwt beam="1">  1        2 0.53964398E+00 0.10105912E+04</pdfrwt>
<pdfrwt beam="2">  1       -2 0.52243789E-01 0.10105912E+04</pdfrwt>
<totfact> 0.28756302E+00</totfact>
</mgrwt>
</event>
<event>
 4    5  0.2025789E-007  0.1408235E+04  0.7818608E-02  0.8977310E-01
         -2   -1    0    0    0  501 -0.00000000000E+00  0.00000000000E+00  0.13431942740E+04  0.13431942740E+04  0.25500000000E-02 0.  1.
          2   -1    0    0  501    0  0.00000000000E+00 -0.00000000000E+00 -0.39244628505E+04  0.39244628505E+04  0.25500000000E-02 0. -1.
    8880023    1    1    2    0    0 -0.59379182361E+03 -0.10939507094E+04  0.82899119160E+03  0.16341216254E+04  0.65864270000E+03 0.  0.
    8880022    1    1    2    0    0  0.59379182361E+03  0.10939507094E+04 -0.34102597682E+04  0.36335354992E+04  0.15294330000E+03 0.  0.
<mgrwt>
<rscale>  0 0.13680044E+04</rscale>
<asrwt>0</asrwt>
<pdfrwt beam="1">  1        2 0.60376351E+00 0.14082355E+04</pdfrwt>
<pdfrwt beam="2">  1       -2 0.20664527E+00 0.14082355E+04</pdfrwt>
<totfact> 0.45806949E-02</totfact>
</mgrwt>
</event>
<event>
 4    5  0.2025789E-007  0.7551295E+03  0.7818608E-02  0.9817884E-01
          2   -1    0    0  501    0  0.00000000000E+00  0.00000000000E+00  0.12468502294E+04  0.12468502294E+04  0.25500000000E-02 0. -1.
         -2   -1    0    0    0  501 -0.00000000000E+00 -0.00000000000E+00 -0.51196930885E+03  0.51196930886E+03  0.25500000000E-02 0.  1.
    8880023    1    1    2    0    0 -0.12940368871E+03 -0.34592634879E+03  0.10190626975E+04  0.12683490612E+04  0.65864270000E+03 0.  0.
    8880022    1    1    2    0    0  0.12940368871E+03  0.34592634879E+03 -0.28418177697E+03  0.49047047701E+03  0.15294330000E+03 0.  0.
<mgrwt>
<rscale>  0 0.64411566E+03</rscale>
<asrwt>0</asrwt>
<pdfrwt beam="1">  1        2 0.19182311E+00 0.75512950E+03</pdfrwt>
<pdfrwt beam="2">  1       -2 0.78764510E-01 0.75512950E+03</pdfrwt>
<totfact> 0.25910755E+01</totfact>
</mgrwt>
</event>
<event>
 4    5  0.2025789E-007  0.7697817E+03  0.7818608E-02  0.9780412E-01
          2   -1    0    0  501    0  0.00000000000E+00  0.00000000000E+00  0.26098272939E+04  0.26098272939E+04  0.25500000000E-02 0. -1.
         -2   -1    0    0    0  501 -0.00000000000E+00 -0.00000000000E+00 -0.18243126962E+04  0.18243126962E+04  0.25500000000E-02 0.  1.
    8880023    1    1    2    0    0 -0.19193414609E+03 -0.34916323553E+03  0.25267277967E+04  0.26413854785E+04  0.65864270000E+03 0. -1.
    8880022    1    1    2    0    0  0.19193414609E+03  0.34916323553E+03 -0.17412131990E+04  0.17927545116E+04  0.15294330000E+03 0.  0.
<mgrwt>
<rscale>  0 0.66424447E+03</rscale>
<asrwt>0</asrwt>
<pdfrwt beam="1">  1        2 0.40151189E+00 0.76978171E+03</pdfrwt>
<pdfrwt beam="2">  1       -2 0.28066349E+00 0.76978171E+03</pdfrwt>
<totfact> 0.13456860E-01</totfact>
</mgrwt>
</event>
<event>
 4    5  0.2025789E-007  0.2183096E+04  0.7818608E-02  0.8535834E-01
          2   -1    0    0  501    0  0.00000000000E+00  0.00000000000E+00  0.25679718273E+04  0.25679718273E+04  0.25500000000E-02 0. -1.
         -2   -1    0    0    0  501 -0.00000000000E+00 -0.00000000000E+00 -0.23364433833E+04  0.23364433833E+04  0.25500000000E-02 0.  1.
    8880023    1    1    2    0    0 -0.14427888246E+04 -0.15001527142E+04  0.13194906710E+04  0.25508750646E+04  0.65864270000E+03 0.  0.
    8880022    1    1    2    0    0  0.14427888246E+04  0.15001527142E+04 -0.10879622270E+04  0.23535401460E+04  0.15294330000E+03 0.  0.
<mgrwt>
<rscale>  0 0.21586600E+04</rscale>
<asrwt>0</asrwt>
<pdfrwt beam="1">  1        2 0.39507259E+00 0.21830960E+04</pdfrwt>
<pdfrwt beam="2">  1       -2 0.35945283E+00 0.21830960E+04</pdfrwt>
<totfact> 0.37343844E-02</totfact>
</mgrwt>
</event>
<event>
 4    5  0.2025789E-007  0.8085198E+03  0.7818608E-02  0.9692668E-01
          2   -1    0    0  501    0  0.00000000000E+00  0.00000000000E+00  0.22345583205E+04  0.22345583205E+04  0.25500000000E-02 0. -1.
         -2   -1    0    0    0  501 -0.00000000000E+00 -0.00000000000E+00 -0.31434393986E+03  0.31434393987E+03  0.25500000000E-02 0.  1.
    8880023    1    1    2    0    0 -0.10908620228E+03  0.45606385270E+03  0.18889051806E+04  0.20546695659E+04  0.65864270000E+03 0. -1.
    8880022    1    1    2    0    0  0.10908620228E+03 -0.45606385270E+03  0.31309199975E+02  0.49423269447E+03  0.15294330000E+03 0.  0.
<mgrwt>
<rscale>  0 0.71454989E+03</rscale>
<asrwt>0</asrwt>
<pdfrwt beam="1">  1        2 0.34377821E+00 0.80851979E+03</pdfrwt>
<pdfrwt beam="2">  1       -2 0.48360605E-01 0.80851979E+03</pdfrwt>
<totfact> 0.20612368E+01</totfact>
</mgrwt>
</event>
<event>
 4    5  0.2025789E-007  0.8844331E+03  0.7818608E-02  0.9551498E-01
         -2   -1    0    0    0  501 -0.00000000000E+00  0.00000000000E+00  0.42712347579E+03  0.42712347580E+03  0.25500000000E-02 0.  1.
          2   -1    0    0  501    0  0.00000000000E+00 -0.00000000000E+00 -0.15806766321E+04  0.15806766321E+04  0.25500000000E-02 0. -1.
    8880023    1    1    2    0    0 -0.37959401124E+02 -0.58904233138E+03 -0.10764530782E+04  0.13931881496E+04  0.65864270000E+03 0. -1.
    8880022    1    1    2    0    0  0.37959401124E+02  0.58904233138E+03 -0.77100078162E+02  0.61461195836E+03  0.15294330000E+03 0.  0.
<mgrwt>
<rscale>  0 0.80591258E+03</rscale>
<asrwt>0</asrwt>
<pdfrwt beam="1">  1        2 0.24318102E+00 0.88443315E+03</pdfrwt>
<pdfrwt beam="2">  1       -2 0.65711305E-01 0.88443315E+03</pdfrwt>
<totfact> 0.24623575E+01</totfact>
</mgrwt>
</event>
<event>
 4    5  0.2025789E-007  0.8121589E+03  0.7818608E-02  0.9685097E-01
         -2   -1    0    0    0  501 -0.00000000000E+00  0.00000000000E+00  0.25623016751E+03  0.25623016752E+03  0.25500000000E-02 0.  1.
          2   -1    0    0  501    0  0.00000000000E+00 -0.00000000000E+00 -0.21965584875E+04  0.21965584875E+04  0.25500000000E-02 0. -1.
    8880023    1    1    2    0    0 -0.44982306022E+03  0.15313768184E+03 -0.17299082475E+04  0.19110689904E+04  0.65864270000E+03 0.  0.
    8880022    1    1    2    0    0  0.44982306022E+03 -0.15313768184E+03 -0.21042007250E+03  0.54171966461E+03  0.15294330000E+03 0. -1.
<mgrwt>
<rscale>  0 0.71911062E+03</rscale>
<asrwt>0</asrwt>
<pdfrwt beam="1">  1        2 0.33793206E+00 0.81215894E+03</pdfrwt>
<pdfrwt beam="2">  1       -2 0.39420027E-01 0.81215894E+03</pdfrwt>
<totfact> 0.32447447E+01</totfact>
</mgrwt>
</event>
<event>
 4    5  0.2025789E-007  0.1005378E+04  0.7818608E-02  0.9374556E-01
          2   -1    0    0  501    0  0.00000000000E+00  0.00000000000E+00  0.15684977441E+04  0.15684977441E+04  0.25500000000E-02 0. -1.
         -2   -1    0    0    0  501 -0.00000000000E+00 -0.00000000000E+00 -0.83832578507E+03  0.83832578508E+03  0.25500000000E-02 0.  1.
    8880023    1    1    2    0    0 -0.74213417190E+03  0.16189718522E+03  0.11484152268E+04  0.15263163391E+04  0.65864270000E+03 0.  0.
    8880022    1    1    2    0    0  0.74213417190E+03 -0.16189718522E+03 -0.41824326777E+03  0.88050719005E+03  0.15294330000E+03 0.  0.
<mgrwt>
<rscale>  0 0.94199556E+03</rscale>
<asrwt>0</asrwt>
<pdfrwt beam="1">  1        2 0.24130734E+00 0.10053776E+04</pdfrwt>
<pdfrwt beam="2">  1       -2 0.12897320E+00 0.10053776E+04</pdfrwt>
<totfact> 0.51126626E+00</totfact>
</mgrwt>
</event>
<event>
 4    5  0.2025789E-007  0.9170321E+03  0.7818608E-02  0.9499225E-01
          2   -1    0    0  501    0  0.00000000000E+00  0.00000000000E+00  0.19412925952E+04  0.19412925952E+04  0.25500000000E-02 0. -1.
         -2   -1    0    0    0  501 -0.00000000000E+00 -0.00000000000E+00 -0.49129588614E+03  0.49129588614E+03  0.25500000000E-02 0.  1.
    8880023    1    1    2    0    0  0.30992063377E+03 -0.55775155887E+03  0.15174108292E+04  0.17729871493E+04  0.65864270000E+03 0. -1.
    8880022    1    1    2    0    0 -0.30992063377E+03  0.55775155887E+03 -0.67414120138E+02  0.65960133207E+03  0.15294330000E+03 0.  0.
<mgrwt>
<rscale>  0 0.84340996E+03</rscale>
<asrwt>0</asrwt>
<pdfrwt beam="1">  1        2 0.29866040E+00 0.91703206E+03</pdfrwt>
<pdfrwt beam="2">  1       -2 0.75583982E-01 0.91703206E+03</pdfrwt>
<totfact> 0.11432427E+01</totfact>
</mgrwt>
</event>
<event>
 4    5  0.2025789E-007  0.8928934E+03  0.7818608E-02  0.9537538E-01
         -2   -1    0    0    0  501 -0.00000000000E+00  0.00000000000E+00  0.15262341824E+04  0.15262341824E+04  0.25500000000E-02 0.  1.
          2   -1    0    0  501    0  0.00000000000E+00 -0.00000000000E+00 -0.10933504916E+04  0.10933504916E+04  0.25500000000E-02 0. -1.
    8880023    1    1    2    0    0  0.59073412166E+03  0.12033951215E+03 -0.82541392704E+03  0.12159633045E+04  0.65864270000E+03 0.  0.
    8880022    1    1    2    0    0 -0.59073412166E+03 -0.12033951215E+03  0.12582976179E+04  0.14036213695E+04  0.15294330000E+03 0.  0.
<mgrwt>
<rscale>  0 0.81572005E+03</rscale>
<asrwt>0</asrwt>
<pdfrwt beam="1">  1        2 0.16820777E+00 0.89289339E+03</pdfrwt>
<pdfrwt beam="2">  1       -2 0.23480526E+00 0.89289339E+03</pdfrwt>
<totfact> 0.17712406E+00</totfact>
</mgrwt>
</event>
<event>
 4    5  0.2025789E-007  0.7784839E+03  0.7818608E-02  0.9759410E-01
         -2   -1    0    0    0  501 -0.00000000000E+00  0.00000000000E+00  0.12149889898E+04  0.12149889898E+04  0.25500000000E-02 0.  1.
          2   -1    0    0  501    0  0.00000000000E+00 -0.00000000000E+00 -0.98565220322E+03  0.98565220323E+03  0.25500000000E-02 0. -1.
    8880023    1    1    2    0    0 -0.58938540989E+02 -0.41079591944E+03 -0.77792818887E+03  0.11005496410E+04  0.65864270000E+03 0. -1.
    8880022    1    1    2    0    0  0.58938540989E+02  0.41079591944E+03  0.10072649754E+04  0.11000915520E+04  0.15294330000E+03 0.  0.
<mgrwt>
<rscale>  0 0.67587057E+03</rscale>
<asrwt>0</asrwt>
<pdfrwt beam="1">  1        2 0.15163880E+00 0.77848394E+03</pdfrwt>
<pdfrwt beam="2">  1       -2 0.18692138E+00 0.77848394E+03</pdfrwt>
<totfact> 0.42593606E+00</totfact>
</mgrwt>
</event>
<event>
 4    5  0.2025789E-007  0.1633149E+04  0.7818608E-02  0.8820921E-01
          2   -1    0    0  501    0  0.00000000000E+00  0.00000000000E+00  0.25545045618E+04  0.25545045618E+04  0.25500000000E-02 0. -1.
         -2   -1    0    0    0  501 -0.00000000000E+00 -0.00000000000E+00 -0.14018877330E+04  0.14018877330E+04  0.25500000000E-02 0.  1.
    8880023    1    1    2    0    0  0.11576088950E+04 -0.94514966156E+03  0.17001462802E+04  0.23574719122E+04  0.65864270000E+03 0.  0.
    8880022    1    1    2    0    0 -0.11576088950E+04  0.94514966156E+03 -0.54752945143E+03  0.15989203826E+04  0.15294330000E+03 0.  0.
<mgrwt>
<rscale>  0 0.15993924E+04</rscale>
<asrwt>0</asrwt>
<pdfrwt beam="1">  1        2 0.39300070E+00 0.16331492E+04</pdfrwt>
<pdfrwt beam="2">  1       -2 0.21567504E+00 0.16331492E+04</pdfrwt>
<totfact> 0.31525595E-01</totfact>
</mgrwt>
</event>
<event>
 4    5  0.2025789E-007  0.7457084E+03  0.7818608E-02  0.9843620E-01
          2   -1    0    0  501    0  0.00000000000E+00  0.00000000000E+00  0.20397797100E+04  0.20397797100E+04  0.25500000000E-02 0. -1.
         -2   -1    0    0    0  501 -0.00000000000E+00 -0.00000000000E+00 -0.25223012872E+03  0.25223012873E+03  0.25500000000E-02 0.  1.
    8880023    1    1    2    0    0  0.25851970076E+03  0.23545360772E+03  0.17575146663E+04  0.19091722933E+04  0.65864270000E+03 0. -1.
    8880022    1    1    2    0    0 -0.25851970076E+03 -0.23545360772E+03  0.30034915019E+02  0.38283754545E+03  0.15294330000E+03 0.  0.
<mgrwt>
<rscale>  0 0.63073256E+03</rscale>
<asrwt>0</asrwt>
<pdfrwt beam="1">  1        2 0.31381227E+00 0.74570842E+03</pdfrwt>
<pdfrwt beam="2">  1       -2 0.38804634E-01 0.74570842E+03</pdfrwt>
<totfact> 0.41130275E+01</totfact>
</mgrwt>
</event>
<event>
 4    5  0.2025789E-007  0.1409175E+04  0.7818608E-02  0.8976586E-01
         -2   -1    0    0    0  501 -0.00000000000E+00  0.00000000000E+00  0.17514273163E+04  0.17514273163E+04  0.25500000000E-02 0.  1.
          2   -1    0    0  501    0  0.00000000000E+00 -0.00000000000E+00 -0.18934428220E+04  0.18934428220E+04  0.25500000000E-02 0. -1.
    8880023    1    1    2    0    0 -0.20367976856E+03 -0.12290155038E+04 -0.13146459622E+04  0.19271919388E+04  0.65864270000E+03 0.  0.
    8880022    1    1    2    0    0  0.20367976856E+03  0.12290155038E+04  0.11726304565E+04  0.17176781995E+04  0.15294330000E+03 0.  0.
<mgrwt>
<rscale>  0 0.13689768E+04</rscale>
<asrwt>0</asrwt>
<pdfrwt beam="1">  1        2 0.29129890E+00 0.14091752E+04</pdfrwt>
<pdfrwt beam="2">  1       -2 0.26945036E+00 0.14091752E+04</pdfrwt>
<totfact> 0.35447848E-01</totfact>
</mgrwt>
</event>
<event>
 4    5  0.2025789E-007  0.1489502E+04  0.7818608E-02  0.8917085E-01
         -2   -1    0    0    0  501 -0.00000000000E+00  0.00000000000E+00  0.83835460127E+03  0.83835460127E+03  0.25500000000E-02 0.  1.
          2   -1    0    0  501    0  0.00000000000E+00 -0.00000000000E+00 -0.31726539379E+04  0.31726539379E+04  0.25500000000E-02 0. -1.
    8880023    1    1    2    0    0  0.12129959191E+04 -0.55986251309E+03 -0.22048428345E+03  0.15057319346E+04  0.65864270000E+03 0. -1.
    8880022    1    1    2    0    0 -0.12129959191E+04  0.55986251309E+03 -0.21138150532E+04  0.25052766046E+04  0.15294330000E+03 0.  0.
<mgrwt>
<rscale>  0 0.14518992E+04</rscale>
<asrwt>0</asrwt>
<pdfrwt beam="1">  1        2 0.48810060E+00 0.14895017E+04</pdfrwt>
<pdfrwt beam="2">  1       -2 0.12897763E+00 0.14895017E+04</pdfrwt>
<totfact> 0.57094386E-01</totfact>
</mgrwt>
</event>
<event>
 4    5  0.2025789E-007  0.9278498E+03  0.7818608E-02  0.9482726E-01
         -2   -1    0    0    0  501 -0.00000000000E+00  0.00000000000E+00  0.68047337723E+03  0.68047337723E+03  0.25500000000E-02 0.  1.
          2   -1    0    0  501    0  0.00000000000E+00 -0.00000000000E+00 -0.13430984815E+04  0.13430984815E+04  0.25500000000E-02 0. -1.
    8880023    1    1    2    0    0 -0.58574217772E+03 -0.28982966842E+03 -0.91820357105E+03  0.13053747123E+04  0.65864270000E+03 0.  0.
    8880022    1    1    2    0    0  0.58574217772E+03  0.28982966842E+03  0.25557846674E+03  0.71819714643E+03  0.15294330000E+03 0.  0.
<mgrwt>
<rscale>  0 0.85569409E+03</rscale>
<asrwt>0</asrwt>
<pdfrwt beam="1">  1        2 0.20663053E+00 0.92784985E+03</pdfrwt>
<pdfrwt beam="2">  1       -2 0.10468821E+00 0.92784985E+03</pdfrwt>
<totfact> 0.11568405E+01</totfact>
</mgrwt>
</event>
<event>
 4    5  0.2025789E-007  0.7507648E+03  0.7818608E-02  0.9829631E-01
          2   -1    0    0  501    0  0.00000000000E+00  0.00000000000E+00  0.12564005765E+04  0.12564005765E+04  0.25500000000E-02 0. -1.
         -2   -1    0    0    0  501 -0.00000000000E+00 -0.00000000000E+00 -0.15981807045E+04  0.15981807045E+04  0.25500000000E-02 0.  1.
    8880023    1    1    2    0    0  0.15224651989E+03 -0.32658619150E+03  0.11160728997E+04  0.13450897617E+04  0.65864270000E+03 0. -1.
    8880022    1    1    2    0    0 -0.15224651989E+03  0.32658619150E+03 -0.14578530278E+04  0.15094915193E+04  0.15294330000E+03 0.  0.
<mgrwt>
<rscale>  0 0.63796317E+03</rscale>
<asrwt>0</asrwt>
<pdfrwt beam="1">  1        2 0.19329239E+00 0.75076478E+03</pdfrwt>
<pdfrwt beam="2">  1       -2 0.24587396E+00 0.75076478E+03</pdfrwt>
<totfact> 0.12386539E+00</totfact>
</mgrwt>
</event>
<event>
 4    5  0.2025789E-007  0.6751064E+03  0.7818608E-02  0.1012239E+00
          2   -1    0    0  501    0  0.00000000000E+00  0.00000000000E+00  0.12205941552E+04  0.12205941552E+04  0.25500000000E-02 0. -1.
         -2   -1    0    0    0  501 -0.00000000000E+00 -0.00000000000E+00 -0.84831500648E+03  0.84831500649E+03  0.25500000000E-02 0.  1.
    8880023    1    1    2    0    0 -0.13642377492E+03 -0.57853596285E+02  0.11110392666E+04  0.13000680533E+04  0.65864270000E+03 0. -1.
    8880022    1    1    2    0    0  0.13642377492E+03  0.57853596285E+02 -0.73876011796E+03  0.76884110834E+03  0.15294330000E+03 0.  0.
<mgrwt>
<rscale>  0 0.50594290E+03</rscale>
<asrwt>0</asrwt>
<pdfrwt beam="1">  1        2 0.18778372E+00 0.67510643E+03</pdfrwt>
<pdfrwt beam="2">  1       -2 0.13051000E+00 0.67510643E+03</pdfrwt>
<totfact> 0.81643367E+00</totfact>
</mgrwt>
</event>
<event>
 4    5  0.2025789E-007  0.1564541E+04  0.7818608E-02  0.8865356E-01
          2   -1    0    0  501    0  0.00000000000E+00  0.00000000000E+00  0.24964662437E+04  0.24964662437E+04  0.25500000000E-02 0. -1.
         -2   -1    0    0    0  501 -0.00000000000E+00 -0.00000000000E+00 -0.13076747659E+04  0.13076747659E+04  0.25500000000E-02 0.  1.
    8880023    1    1    2    0    0 -0.13893352188E+04 -0.28935436005E+03 -0.45283275598E+03  0.16287559692E+04  0.65864270000E+03 0.  0.
    8880022    1    1    2    0    0  0.13893352188E+04  0.28935436005E+03  0.16416242338E+04  0.21753850404E+04  0.15294330000E+03 0.  0.
<mgrwt>
<rscale>  0 0.15290580E+04</rscale>
<asrwt>0</asrwt>
<pdfrwt beam="1">  1        2 0.38407173E+00 0.15645410E+04</pdfrwt>
<pdfrwt beam="2">  1       -2 0.20118074E+00 0.15645410E+04</pdfrwt>
<totfact> 0.42632444E-01</totfact>
</mgrwt>
</event>
<event>
 4    5  0.2025789E-007  0.1469166E+04  0.7818608E-02  0.8931722E-01
          2   -1    0    0  501    0  0.00000000000E+00  0.00000000000E+00  0.15355994837E+04  0.15355994837E+04  0.25500000000E-02 0. -1.
         -2   -1    0    0    0  501 -0.00000000000E+00 -0.00000000000E+00 -0.13611716727E+04  0.13611716727E+04  0.25500000000E-02 0.  1.
    8880023    1    1    2    0    0 -0.11362660893E+04 -0.65843504823E+03 -0.28603598709E+03  0.14967511919E+04  0.65864270000E+03 0. -1.
    8880022    1    1    2    0    0  0.11362660893E+04  0.65843504823E+03  0.46046379817E+03  0.14000199644E+04  0.15294330000E+03 0.  0.
<mgrwt>
<rscale>  0 0.14309407E+04</rscale>
<asrwt>0</asrwt>
<pdfrwt beam="1">  1        2 0.23624608E+00 0.14691656E+04</pdfrwt>
<pdfrwt beam="2">  1       -2 0.20941103E+00 0.14691656E+04</pdfrwt>
<totfact> 0.13216987E+00</totfact>
</mgrwt>
</event>
<event>
 4    5  0.2025789E-007  0.7136406E+03  0.7818608E-02  0.9944722E-01
         -2   -1    0    0    0  501 -0.00000000000E+00  0.00000000000E+00  0.11452754312E+03  0.11452754315E+03  0.25500000000E-02 0.  1.
          2   -1    0    0  501    0  0.00000000000E+00 -0.00000000000E+00 -0.27217188018E+04  0.27217188018E+04  0.25500000000E-02 0. -1.
    8880023    1    1    2    0    0  0.27464231598E+03 -0.66587397124E+01 -0.22495863760E+04  0.23600681791E+04  0.65864270000E+03 0. -1.
    8880022    1    1    2    0    0 -0.27464231598E+03  0.66587397124E+01 -0.35760488274E+03  0.47617816593E+03  0.15294330000E+03 0.  0.
<mgrwt>
<rscale>  0 0.58141959E+03</rscale>
<asrwt>0</asrwt>
<pdfrwt beam="1">  1        2 0.41872592E+00 0.71364063E+03</pdfrwt>
<pdfrwt beam="2">  1       -2 0.17619624E-01 0.71364063E+03</pdfrwt>
<totfact> 0.72054179E+01</totfact>
</mgrwt>
</event>
<event>
 4    5  0.2025789E-007  0.7674656E+03  0.7818608E-02  0.9786150E-01
          2   -1    0    0  501    0  0.00000000000E+00  0.00000000000E+00  0.16592673437E+04  0.16592673437E+04  0.25500000000E-02 0. -1.
         -2   -1    0    0    0  501 -0.00000000000E+00 -0.00000000000E+00 -0.62763139254E+03  0.62763139254E+03  0.25500000000E-02 0.  1.
    8880023    1    1    2    0    0 -0.38002844326E+03  0.10378621021E+03  0.14822365576E+04  0.16691400822E+04  0.65864270000E+03 0. -1.
    8880022    1    1    2    0    0  0.38002844326E+03 -0.10378621021E+03 -0.45060060643E+03  0.61775865404E+03  0.15294330000E+03 0.  0.
<mgrwt>
<rscale>  0 0.66111156E+03</rscale>
<asrwt>0</asrwt>
<pdfrwt beam="1">  1        2 0.25527190E+00 0.76746557E+03</pdfrwt>
<pdfrwt beam="2">  1       -2 0.96558677E-01 0.76746557E+03</pdfrwt>
<totfact> 0.95046935E+00</totfact>
</mgrwt>
</event>
<event>
 4    5  0.2025789E-007  0.7403130E+03  0.7818608E-02  0.9859036E-01
         -2   -1    0    0    0  501 -0.00000000000E+00  0.00000000000E+00  0.37895153708E+03  0.37895153708E+03  0.25500000000E-02 0.  1.
          2   -1    0    0  501    0  0.00000000000E+00 -0.00000000000E+00 -0.13919928276E+04  0.13919928276E+04  0.25500000000E-02 0. -1.
    8880023    1    1    2    0    0  0.30970497434E+03 -0.13541058195E+03 -0.11565113253E+04  0.13731649022E+04  0.65864270000E+03 0. -1.
    8880022    1    1    2    0    0 -0.30970497434E+03  0.13541058195E+03  0.14347003482E+03  0.39777946244E+03  0.15294330000E+03 0.  0.
<mgrwt>
<rscale>  0 0.62288310E+03</rscale>
<asrwt>0</asrwt>
<pdfrwt beam="1">  1        2 0.21415274E+00 0.74031304E+03</pdfrwt>
<pdfrwt beam="2">  1       -2 0.58300237E-01 0.74031304E+03</pdfrwt>
<totfact> 0.41124087E+01</totfact>
</mgrwt>
</event>
<event>
 4    5  0.2025789E-007  0.1125972E+04  0.7818608E-02  0.9232676E-01
          2   -1    0    0  501    0  0.00000000000E+00  0.00000000000E+00  0.25293992951E+04  0.25293992951E+04  0.25500000000E-02 0. -1.
         -2   -1    0    0    0  501 -0.00000000000E+00 -0.00000000000E+00 -0.74606972346E+03  0.74606972346E+03  0.25500000000E-02 0.  1.
    8880023    1    1    2    0    0  0.25883251669E+03  0.87579074295E+03  0.20263355309E+04  0.23181565062E+04  0.65864270000E+03 0.  0.
    8880022    1    1    2    0    0 -0.25883251669E+03 -0.87579074295E+03 -0.24300595923E+03  0.95731251239E+03  0.15294330000E+03 0.  0.
<mgrwt>
<rscale>  0 0.10722436E+04</rscale>
<asrwt>0</asrwt>
<pdfrwt beam="1">  1        2 0.38913836E+00 0.11259724E+04</pdfrwt>
<pdfrwt beam="2">  1       -2 0.11477995E+00 0.11259724E+04</pdfrwt>
<totfact> 0.19645447E+00</totfact>
</mgrwt>
</event>
<event>
 4    5  0.2025789E-007  0.1508803E+04  0.7818608E-02  0.8903445E-01
         -2   -1    0    0    0  501 -0.00000000000E+00  0.00000000000E+00  0.23812260972E+04  0.23812260972E+04  0.25500000000E-02 0.  1.
          2   -1    0    0  501    0  0.00000000000E+00 -0.00000000000E+00 -0.18007925037E+04  0.18007925037E+04  0.25500000000E-02 0. -1.
    8880023    1    1    2    0    0 -0.10439638458E+04  0.86764910474E+03 -0.12071205977E+04  0.19322592539E+04  0.65864270000E+03 0.  0.
    8880022    1    1    2    0    0  0.10439638458E+04 -0.86764910474E+03  0.17875541912E+04  0.22497593471E+04  0.15294330000E+03 0.  0.
<mgrwt>
<rscale>  0 0.14717710E+04</rscale>
<asrwt>0</asrwt>
<pdfrwt beam="1">  1        2 0.27704500E+00 0.15088027E+04</pdfrwt>
<pdfrwt beam="2">  1       -2 0.36634248E+00 0.15088027E+04</pdfrwt>
<totfact> 0.99205306E-02</totfact>
</mgrwt>
</event>
<event>
 4    5  0.2025789E-007  0.1457069E+04  0.7818608E-02  0.8940561E-01
          2   -1    0    0  501    0  0.00000000000E+00  0.00000000000E+00  0.20161688068E+04  0.20161688068E+04  0.25500000000E-02 0. -1.
         -2   -1    0    0    0  501 -0.00000000000E+00 -0.00000000000E+00 -0.22599760787E+04  0.22599760787E+04  0.25500000000E-02 0.  1.
    8880023    1    1    2    0    0  0.12969088677E+04 -0.85244677292E+02  0.15031033586E+04  0.20934108959E+04  0.65864270000E+03 0.  0.
    8880022    1    1    2    0    0 -0.12969088677E+04  0.85244677292E+02 -0.17469106305E+04  0.21827339897E+04  0.15294330000E+03 0.  0.
<mgrwt>
<rscale>  0 0.14184630E+04</rscale>
<asrwt>0</asrwt>
<pdfrwt beam="1">  1        2 0.31017982E+00 0.14570688E+04</pdfrwt>
<pdfrwt beam="2">  1       -2 0.34768862E+00 0.14570688E+04</pdfrwt>
<totfact> 0.99454023E-02</totfact>
</mgrwt>
</event>
<event>
 4    5  0.2025789E-007  0.7566271E+03  0.7818608E-02  0.9813919E-01
         -2   -1    0    0    0  501 -0.00000000000E+00  0.00000000000E+00  0.26227425601E+04  0.26227425601E+04  0.25500000000E-02 0.  1.
          2   -1    0    0  501    0  0.00000000000E+00 -0.00000000000E+00 -0.45040382952E+03  0.45040382953E+03  0.25500000000E-02 0. -1.
    8880023    1    1    2    0    0 -0.33637178903E+03 -0.15977617133E+03 -0.10198368836E+03  0.76346924256E+03  0.65864270000E+03 0. -1.
    8880022    1    1    2    0    0  0.33637178903E+03  0.15977617133E+03  0.22743224189E+04  0.23096771470E+04  0.15294330000E+03 0.  0.
<mgrwt>
<rscale>  0 0.64620891E+03</rscale>
<asrwt>0</asrwt>
<pdfrwt beam="1">  1        2 0.69292898E-01 0.75662713E+03</pdfrwt>
<pdfrwt beam="2">  1       -2 0.40349885E+00 0.75662713E+03</pdfrwt>
<totfact> 0.51977159E-01</totfact>
</mgrwt>
</event>
<event>
 4    5  0.2025789E-007  0.6743655E+03  0.7818608E-02  0.1012709E+00
         -2   -1    0    0    0  501 -0.00000000000E+00  0.00000000000E+00  0.22676608357E+03  0.22676608358E+03  0.25500000000E-02 0.  1.
          2   -1    0    0  501    0  0.00000000000E+00 -0.00000000000E+00 -0.26026482470E+04  0.26026482470E+04  0.25500000000E-02 0. -1.
    8880023    1    1    2    0    0 -0.28678034122E+02 -0.14190193555E+03 -0.24970095637E+04  0.25864697091E+04  0.65864270000E+03 0. -1.
    8880022    1    1    2    0    0  0.28678034122E+02  0.14190193555E+03  0.12112740029E+03  0.24294462140E+03  0.15294330000E+03 0.  0.
<mgrwt>
<rscale>  0 0.50411950E+03</rscale>
<asrwt>0</asrwt>
<pdfrwt beam="1">  1        2 0.40040740E+00 0.67436548E+03</pdfrwt>
<pdfrwt beam="2">  1       -2 0.34887092E-01 0.67436548E+03</pdfrwt>
<totfact> 0.24773492E+01</totfact>
</mgrwt>
</event>
<event>
 4    5  0.2025789E-007  0.7015361E+03  0.7818608E-02  0.9990888E-01
         -2   -1    0    0    0  501 -0.00000000000E+00  0.00000000000E+00  0.81821334487E+03  0.81821334487E+03  0.25500000000E-02 0.  1.
          2   -1    0    0  501    0  0.00000000000E+00 -0.00000000000E+00 -0.18962094020E+04  0.18962094020E+04  0.25500000000E-02 0. -1.
    8880023    1    1    2    0    0 -0.21016836540E+03 -0.11904603356E+03 -0.18032216963E+04  0.19348802010E+04  0.65864270000E+03 0. -1.
    8880022    1    1    2    0    0  0.21016836540E+03  0.11904603356E+03  0.72522563923E+03  0.77954254582E+03  0.15294330000E+03 0.  0.
<mgrwt>
<rscale>  0 0.56051611E+03</rscale>
<asrwt>0</asrwt>
<pdfrwt beam="1">  1        2 0.29172452E+00 0.70153610E+03</pdfrwt>
<pdfrwt beam="2">  1       -2 0.12587898E+00 0.70153610E+03</pdfrwt>
<totfact> 0.37486608E+00</totfact>
</mgrwt>
</event>
<event>
 4    5  0.2025789E-007  0.2248808E+04  0.7818608E-02  0.8508036E-01
         -2   -1    0    0    0  501 -0.00000000000E+00  0.00000000000E+00  0.19659005077E+04  0.19659005077E+04  0.25500000000E-02 0.  1.
          2   -1    0    0  501    0  0.00000000000E+00 -0.00000000000E+00 -0.26323987645E+04  0.26323987645E+04  0.25500000000E-02 0. -1.
    8880023    1    1    2    0    0  0.13892005582E+04  0.16411733239E+04  0.23643935450E+03  0.22612036274E+04  0.65864270000E+03 0.  0.
    8880022    1    1    2    0    0 -0.13892005582E+04 -0.16411733239E+04 -0.90293761126E+03  0.23370956448E+04  0.15294330000E+03 0.  0.
<mgrwt>
<rscale>  0 0.22251414E+04</rscale>
<asrwt>0</asrwt>
<pdfrwt beam="1">  1        2 0.40498443E+00 0.22488082E+04</pdfrwt>
<pdfrwt beam="2">  1       -2 0.30244623E+00 0.22488082E+04</pdfrwt>
<totfact> 0.77364004E-02</totfact>
</mgrwt>
</event>
<event>
 4    5  0.2025789E-007  0.8042309E+03  0.7818608E-02  0.9701722E-01
          2   -1    0    0  501    0  0.00000000000E+00  0.00000000000E+00  0.14851010284E+04  0.14851010285E+04  0.25500000000E-02 0. -1.
         -2   -1    0    0    0  501 -0.00000000000E+00 -0.00000000000E+00 -0.41797951402E+03  0.41797951403E+03  0.25500000000E-02 0.  1.
    8880023    1    1    2    0    0 -0.39152970188E+03  0.24429820907E+03  0.11566106550E+04  0.14087354386E+04  0.65864270000E+03 0. -1.
    8880022    1    1    2    0    0  0.39152970188E+03 -0.24429820907E+03 -0.89489140609E+02  0.49434510386E+03  0.15294330000E+03 0.  0.
<mgrwt>
<rscale>  0 0.70914383E+03</rscale>
<asrwt>0</asrwt>
<pdfrwt beam="1">  1        2 0.22847708E+00 0.80423089E+03</pdfrwt>
<pdfrwt beam="2">  1       -2 0.64304541E-01 0.80423089E+03</pdfrwt>
<totfact> 0.29407184E+01</totfact>
</mgrwt>
</event>
<event>
 4    5  0.2025789E-007  0.6620974E+03  0.7818608E-02  0.1022104E+00
         -2   -1    0    0    0  501 -0.00000000000E+00  0.00000000000E+00  0.51010205565E+03  0.51010205566E+03  0.25500000000E-02 0.  1.
          2   -1    0    0  501    0  0.00000000000E+00 -0.00000000000E+00 -0.11197037736E+04  0.11197037736E+04  0.25500000000E-02 0. -1.
    8880023    1    1    2    0    0 -0.63224520753E+02 -0.23779238542E+02 -0.10033006848E+04  0.12020753981E+04  0.65864270000E+03 0. -1.
    8880022    1    1    2    0    0  0.63224520753E+02  0.23779238542E+02  0.39369896689E+03  0.42773043118E+03  0.15294330000E+03 0.  0.
<mgrwt>
<rscale>  0 0.46935104E+03</rscale>
<asrwt>0</asrwt>
<pdfrwt beam="1">  1        2 0.17226212E+00 0.66209742E+03</pdfrwt>
<pdfrwt beam="2">  1       -2 0.78477240E-01 0.66209742E+03</pdfrwt>
<totfact> 0.31407743E+01</totfact>
</mgrwt>
</event>
<event>
 4    5  0.2025789E-007  0.7090108E+03  0.7818608E-02  0.9961693E-01
          2   -1    0    0  501    0  0.00000000000E+00  0.00000000000E+00  0.48478986106E+03  0.48478986107E+03  0.25500000000E-02 0. -1.
         -2   -1    0    0    0  501 -0.00000000000E+00 -0.00000000000E+00 -0.10774657411E+04  0.10774657411E+04  0.25500000000E-02 0.  1.
    8880023    1    1    2    0    0  0.26022050292E+03 -0.34226006547E+02  0.18043192061E+03  0.73160919479E+03  0.65864270000E+03 0. -1.
    8880022    1    1    2    0    0 -0.26022050292E+03  0.34226006547E+02 -0.77310780063E+03  0.83064640736E+03  0.15294330000E+03 0.  0.
<mgrwt>
<rscale>  0 0.57362331E+03</rscale>
<asrwt>0</asrwt>
<pdfrwt beam="1">  1        2 0.74583056E-01 0.70901082E+03</pdfrwt>
<pdfrwt beam="2">  1       -2 0.16576396E+00 0.70901082E+03</pdfrwt>
<totfact> 0.14866789E+01</totfact>
</mgrwt>
</event>
<event>
 4    5  0.2025789E-007  0.8528385E+03  0.7818608E-02  0.9606431E-01
         -2   -1    0    0    0  501 -0.00000000000E+00  0.00000000000E+00  0.63228718991E+03  0.63228718992E+03  0.25500000000E-02 0.  1.
          2   -1    0    0  501    0  0.00000000000E+00 -0.00000000000E+00 -0.81038620837E+03  0.81038620838E+03  0.25500000000E-02 0. -1.
    8880023    1    1    2    0    0 -0.13817732551E+03 -0.52386103604E+03 -0.20672014781E+01  0.85284103909E+03  0.65864270000E+03 0.  1.
    8880022    1    1    2    0    0  0.13817732551E+03  0.52386103604E+03 -0.17603181699E+03  0.58983235921E+03  0.15294330000E+03 0. -1.
<mgrwt>
<rscale>  0 0.76871961E+03</rscale>
<asrwt>0</asrwt>
<pdfrwt beam="1">  1        2 0.12467480E+00 0.85283853E+03</pdfrwt>
<pdfrwt beam="2">  1       -2 0.97274953E-01 0.85283853E+03</pdfrwt>
<totfact> 0.30016926E+01</totfact>
</mgrwt>
</event>
<event>
 4    5  0.2025789E-007  0.6616356E+03  0.7818608E-02  0.1022540E+00
         -2   -1    0    0    0  501 -0.00000000000E+00  0.00000000000E+00  0.13054193953E+04  0.13054193953E+04  0.25500000000E-02 0.  1.
          2   -1    0    0  501    0  0.00000000000E+00 -0.00000000000E+00 -0.22038171029E+04  0.22038171029E+04  0.25500000000E-02 0. -1.
    8880023    1    1    2    0    0 -0.47135603681E+02 -0.41589416071E+02 -0.21485905759E+04  0.22481554915E+04  0.65864270000E+03 0. -1.
    8880022    1    1    2    0    0  0.47135603681E+02  0.41589416071E+02  0.12501928683E+04  0.12610810067E+04  0.15294330000E+03 0.  0.
<mgrwt>
<rscale>  0 0.46781065E+03</rscale>
<asrwt>0</asrwt>
<pdfrwt beam="1">  1        2 0.33904879E+00 0.66163559E+03</pdfrwt>
<pdfrwt beam="2">  1       -2 0.20083375E+00 0.66163559E+03</pdfrwt>
<totfact> 0.72302602E-01</totfact>
</mgrwt>
</event>
<event>
 4    5  0.2025789E-007  0.8041919E+03  0.7818608E-02  0.9701805E-01
         -2   -1    0    0    0  501 -0.00000000000E+00  0.00000000000E+00  0.52770506952E+03  0.52770506953E+03  0.25500000000E-02 0.  1.
          2   -1    0    0  501    0  0.00000000000E+00 -0.00000000000E+00 -0.23361158085E+04  0.23361158085E+04  0.25500000000E-02 0. -1.
    8880023    1    1    2    0    0 -0.45569987029E+03 -0.72470775487E+02 -0.21328229435E+04  0.22793986706E+04  0.65864270000E+03 0. -1.
    8880022    1    1    2    0    0  0.45569987029E+03  0.72470775487E+02  0.32441220450E+03  0.58442220742E+03  0.15294330000E+03 0.  0.
<mgrwt>
<rscale>  0 0.70909450E+03</rscale>
<asrwt>0</asrwt>
<pdfrwt beam="1">  1        2 0.35940243E+00 0.80419189E+03</pdfrwt>
<pdfrwt beam="2">  1       -2 0.81185397E-01 0.80419189E+03</pdfrwt>
<totfact> 0.59877744E+00</totfact>
</mgrwt>
</event>
<event>
 4    5  0.2025789E-007  0.1138668E+04  0.7818608E-02  0.9219178E-01
          2   -1    0    0  501    0  0.00000000000E+00  0.00000000000E+00  0.44149544056E+04  0.44149544056E+04  0.25500000000E-02 0. -1.
         -2   -1    0    0    0  501 -0.00000000000E+00 -0.00000000000E+00 -0.76354617539E+03  0.76354617540E+03  0.25500000000E-02 0.  1.
    8880023    1    1    2    0    0 -0.92473139034E+03  0.87332485139E+02  0.40119921923E+04  0.41704492162E+04  0.65864270000E+03 0.  0.
    8880022    1    1    2    0    0  0.92473139034E+03 -0.87332485139E+02 -0.36058396215E+03  0.10080513648E+04  0.15294330000E+03 0.  0.
<mgrwt>
<rscale>  0 0.10857657E+04</rscale>
<asrwt>0</asrwt>
<pdfrwt beam="1">  1        2 0.67922377E+00 0.11386682E+04</pdfrwt>
<pdfrwt beam="2">  1       -2 0.11746864E+00 0.11386682E+04</pdfrwt>
<totfact> 0.86206619E-02</totfact>
</mgrwt>
</event>
<event>
 4    5  0.2025789E-007  0.1509540E+04  0.7818608E-02  0.8902929E-01
         -2   -1    0    0    0  501 -0.00000000000E+00  0.00000000000E+00  0.19934917563E+04  0.19934917563E+04  0.25500000000E-02 0.  1.
          2   -1    0    0  501    0  0.00000000000E+00 -0.00000000000E+00 -0.14288889002E+04  0.14288889002E+04  0.25500000000E-02 0. -1.
    8880023    1    1    2    0    0  0.34320312608E+03 -0.13141960822E+04 -0.60221360137E+03  0.16252295703E+04  0.65864270000E+03 0. -1.
    8880022    1    1    2    0    0 -0.34320312608E+03  0.13141960822E+04  0.11668164574E+04  0.17971510862E+04  0.15294330000E+03 0.  0.
<mgrwt>
<rscale>  0 0.14725294E+04</rscale>
<asrwt>0</asrwt>
<pdfrwt beam="1">  1        2 0.21982906E+00 0.15095396E+04</pdfrwt>
<pdfrwt beam="2">  1       -2 0.30669104E+00 0.15095396E+04</pdfrwt>
<totfact> 0.37900268E-01</totfact>
</mgrwt>
</event>
<event>
 4    5  0.2025789E-007  0.1198839E+04  0.7818608E-02  0.9158252E-01
          2   -1    0    0  501    0  0.00000000000E+00  0.00000000000E+00  0.23279960965E+04  0.23279960965E+04  0.25500000000E-02 0. -1.
         -2   -1    0    0    0  501 -0.00000000000E+00 -0.00000000000E+00 -0.90554364398E+03  0.90554364398E+03  0.25500000000E-02 0.  1.
    8880023    1    1    2    0    0 -0.34917093966E+03  0.93887356367E+03  0.17910749961E+04  0.21552641977E+04  0.65864270000E+03 0.  0.
    8880022    1    1    2    0    0  0.34917093966E+03 -0.93887356367E+03 -0.36862254358E+03  0.10782755429E+04  0.15294330000E+03 0.  0.
<mgrwt>
<rscale>  0 0.11494923E+04</rscale>
<asrwt>0</asrwt>
<pdfrwt beam="1">  1        2 0.35815325E+00 0.11988387E+04</pdfrwt>
<pdfrwt beam="2">  1       -2 0.13931441E+00 0.11988387E+04</pdfrwt>
<totfact> 0.15532385E+00</totfact>
</mgrwt>
</event>
<event>
 4    5  0.2025789E-007  0.1412433E+04  0.7818608E-02  0.8974081E-01
          2   -1    0    0  501    0  0.00000000000E+00  0.00000000000E+00  0.11628173673E+04  0.11628173673E+04  0.25500000000E-02 0. -1.
         -2   -1    0    0    0  501 -0.00000000000E+00 -0.00000000000E+00 -0.26143382987E+04  0.26143382987E+04  0.25500000000E-02 0.  1.
    8880023    1    1    2    0    0 -0.36088515454E+03  0.11962104310E+04  0.46256164297E+03  0.14862472775E+04  0.65864270000E+03 0.  0.
    8880022    1    1    2    0    0  0.36088515454E+03 -0.11962104310E+04 -0.19140825744E+04  0.22909083885E+04  0.15294330000E+03 0.  0.
<mgrwt>
<rscale>  0 0.13723477E+04</rscale>
<asrwt>0</asrwt>
<pdfrwt beam="1">  1        2 0.17889498E+00 0.14124333E+04</pdfrwt>
<pdfrwt beam="2">  1       -2 0.40220589E+00 0.14124333E+04</pdfrwt>
<totfact> 0.13701494E-01</totfact>
</mgrwt>
</event>
<event>
 4    5  0.2025789E-007  0.8276996E+03  0.7818608E-02  0.9653825E-01
          2   -1    0    0  501    0  0.00000000000E+00  0.00000000000E+00  0.11418533473E+04  0.11418533473E+04  0.25500000000E-02 0. -1.
         -2   -1    0    0    0  501 -0.00000000000E+00 -0.00000000000E+00 -0.65774984686E+03  0.65774984686E+03  0.25500000000E-02 0.  1.
    8880023    1    1    2    0    0  0.43651597755E+03  0.24643491013E+03  0.82959357487E+03  0.11718839829E+04  0.65864270000E+03 0.  0.
    8880022    1    1    2    0    0 -0.43651597755E+03 -0.24643491013E+03 -0.34549007448E+03  0.62771921124E+03  0.15294330000E+03 0.  0.
<mgrwt>
<rscale>  0 0.73833857E+03</rscale>
<asrwt>0</asrwt>
<pdfrwt beam="1">  1        2 0.17566975E+00 0.82769956E+03</pdfrwt>
<pdfrwt beam="2">  1       -2 0.10119228E+00 0.82769956E+03</pdfrwt>
<totfact> 0.16655144E+01</totfact>
</mgrwt>
</event>
<event>
 4    5  0.2025789E-007  0.1012316E+04  0.7818608E-02  0.9365620E-01
          2   -1    0    0  501    0  0.00000000000E+00  0.00000000000E+00  0.11071682457E+04  0.11071682457E+04  0.25500000000E-02 0. -1.
         -2   -1    0    0    0  501 -0.00000000000E+00 -0.00000000000E+00 -0.12132837598E+04  0.12132837598E+04  0.25500000000E-02 0.  1.
    8880023    1    1    2    0    0  0.19033534803E+03 -0.74481214122E+03  0.67274354151E+03  0.12154697649E+04  0.65864270000E+03 0. -1.
    8880022    1    1    2    0    0 -0.19033534803E+03  0.74481214122E+03 -0.77885905560E+03  0.11049822405E+04  0.15294330000E+03 0.  0.
<mgrwt>
<rscale>  0 0.94959889E+03</rscale>
<asrwt>0</asrwt>
<pdfrwt beam="1">  1        2 0.17033357E+00 0.10123156E+04</pdfrwt>
<pdfrwt beam="2">  1       -2 0.18665904E+00 0.10123156E+04</pdfrwt>
<totfact> 0.34861436E+00</totfact>
</mgrwt>
</event>
<event>
 4    5  0.2025789E-007  0.8109890E+03  0.7818608E-02  0.9687521E-01
          2   -1    0    0  501    0  0.00000000000E+00  0.00000000000E+00  0.12552692276E+04  0.12552692276E+04  0.25500000000E-02 0. -1.
         -2   -1    0    0    0  501 -0.00000000000E+00 -0.00000000000E+00 -0.13772586026E+04  0.13772586026E+04  0.25500000000E-02 0.  1.
    8880023    1    1    2    0    0  0.45956667572E+03  0.11265609494E+03  0.10690456395E+04  0.13418501074E+04  0.65864270000E+03 0.  0.
    8880022    1    1    2    0    0 -0.45956667572E+03 -0.11265609494E+03 -0.11910350145E+04  0.12906777227E+04  0.15294330000E+03 0.  1.
<mgrwt>
<rscale>  0 0.71764695E+03</rscale>
<asrwt>0</asrwt>
<pdfrwt beam="1">  1        2 0.19311834E+00 0.81098898E+03</pdfrwt>
<pdfrwt beam="2">  1       -2 0.21188594E+00 0.81098898E+03</pdfrwt>
<totfact> 0.19942412E+00</totfact>
</mgrwt>
</event>
<event>
 4    5  0.2025789E-007  0.9676475E+03  0.7818608E-02  0.9425165E-01
         -2   -1    0    0    0  501 -0.00000000000E+00  0.00000000000E+00  0.48728671008E+03  0.48728671008E+03  0.25500000000E-02 0.  1.
          2   -1    0    0  501    0  0.00000000000E+00 -0.00000000000E+00 -0.32517089794E+04  0.32517089794E+04  0.25500000000E-02 0. -1.
    8880023    1    1    2    0    0  0.20875481153E+03 -0.67746067017E+03 -0.28490288595E+04  0.30088714130E+04  0.65864270000E+03 0.  0.
    8880022    1    1    2    0    0 -0.20875481153E+03  0.67746067017E+03  0.84606590272E+02  0.73012427647E+03  0.15294330000E+03 0.  0.
<mgrwt>
<rscale>  0 0.90033303E+03</rscale>
<asrwt>0</asrwt>
<pdfrwt beam="1">  1        2 0.50026291E+00 0.96764753E+03</pdfrwt>
<pdfrwt beam="2">  1       -2 0.74967188E-01 0.96764753E+03</pdfrwt>
<totfact> 0.19814712E+00</totfact>
</mgrwt>
</event>
<event>
 4    5  0.2025789E-007  0.1232546E+04  0.7818608E-02  0.9126117E-01
         -2   -1    0    0    0  501 -0.00000000000E+00  0.00000000000E+00  0.75849012381E+03  0.75849012381E+03  0.25500000000E-02 0.  1.
          2   -1    0    0  501    0  0.00000000000E+00 -0.00000000000E+00 -0.19021686521E+04  0.19021686521E+04  0.25500000000E-02 0. -1.
    8880023    1    1    2    0    0  0.93862266626E+03 -0.45204717751E+03 -0.10211165789E+04  0.16005775315E+04  0.65864270000E+03 0.  0.
    8880022    1    1    2    0    0 -0.93862266626E+03  0.45204717751E+03 -0.12256194937E+03  0.10600812444E+04  0.15294330000E+03 0.  0.
<mgrwt>
<rscale>  0 0.11849678E+04</rscale>
<asrwt>0</asrwt>
<pdfrwt beam="1">  1        2 0.29264133E+00 0.12325459E+04</pdfrwt>
<pdfrwt beam="2">  1       -2 0.11669079E+00 0.12325459E+04</pdfrwt>
<totfact> 0.41922331E+00</totfact>
</mgrwt>
</event>
<event>
 4    5  0.2025789E-007  0.6760950E+03  0.7818608E-02  0.1011625E+00
         -2   -1    0    0    0  501 -0.00000000000E+00  0.00000000000E+00  0.88794716064E+03  0.88794716064E+03  0.25500000000E-02 0.  1.
          2   -1    0    0  501    0  0.00000000000E+00 -0.00000000000E+00 -0.86574492320E+03  0.86574492320E+03  0.25500000000E-02 0. -1.
    8880023    1    1    2    0    0 -0.91097549771E+00 -0.15262201160E+03 -0.71585414774E+03  0.98465815154E+03  0.65864270000E+03 0. -1.
    8880022    1    1    2    0    0  0.91097549771E+00  0.15262201160E+03  0.73805638518E+03  0.76903393230E+03  0.15294330000E+03 0.  0.
<mgrwt>
<rscale>  0 0.50833979E+03</rscale>
<asrwt>0</asrwt>
<pdfrwt beam="1">  1        2 0.13319153E+00 0.67609505E+03</pdfrwt>
<pdfrwt beam="2">  1       -2 0.13660726E+00 0.67609505E+03</pdfrwt>
<totfact> 0.12139193E+01</totfact>
</mgrwt>
</event>
<event>
 4    5  0.2025789E-007  0.7683252E+03  0.7818608E-02  0.9784012E-01
         -2   -1    0    0    0  501 -0.00000000000E+00  0.00000000000E+00  0.72787431684E+03  0.72787431684E+03  0.25500000000E-02 0.  1.
          2   -1    0    0  501    0  0.00000000000E+00 -0.00000000000E+00 -0.11703477205E+04  0.11703477205E+04  0.25500000000E-02 0. -1.
    8880023    1    1    2    0    0 -0.11994981312E+03 -0.37699520959E+03 -0.95966935825E+03  0.12293448780E+04  0.65864270000E+03 0. -1.
    8880022    1    1    2    0    0  0.11994981312E+03  0.37699520959E+03  0.51719595461E+03  0.66887715928E+03  0.15294330000E+03 0.  0.
<mgrwt>
<rscale>  0 0.66227627E+03</rscale>
<asrwt>0</asrwt>
<pdfrwt beam="1">  1        2 0.18005350E+00 0.76832516E+03</pdfrwt>
<pdfrwt beam="2">  1       -2 0.11198066E+00 0.76832516E+03</pdfrwt>
<totfact> 0.12626409E+01</totfact>
</mgrwt>
</event>
<event>
 4    5  0.2025789E-007  0.1387126E+04  0.7818608E-02  0.8993751E-01
          2   -1    0    0  501    0  0.00000000000E+00  0.00000000000E+00  0.27523769718E+04  0.27523769718E+04  0.25500000000E-02 0. -1.
         -2   -1    0    0    0  501 -0.00000000000E+00 -0.00000000000E+00 -0.64224367573E+03  0.64224367573E+03  0.25500000000E-02 0.  1.
    8880023    1    1    2    0    0 -0.90469858463E+03 -0.81965158627E+03  0.14149982462E+04  0.19814990525E+04  0.65864270000E+03 0.  0.
    8880022    1    1    2    0    0  0.90469858463E+03  0.81965158627E+03  0.69513504987E+03  0.14131215951E+04  0.15294330000E+03 0.  0.
<mgrwt>
<rscale>  0 0.13461452E+04</rscale>
<asrwt>0</asrwt>
<pdfrwt beam="1">  1        2 0.42344261E+00 0.13871260E+04</pdfrwt>
<pdfrwt beam="2">  1       -2 0.98806719E-01 0.13871260E+04</pdfrwt>
<totfact> 0.20282859E+00</totfact>
</mgrwt>
</event>
<event>
 4    5  0.2025789E-007  0.8211551E+03  0.7818608E-02  0.9666793E-01
          2   -1    0    0  501    0  0.00000000000E+00  0.00000000000E+00  0.13843746723E+04  0.13843746723E+04  0.25500000000E-02 0. -1.
         -2   -1    0    0    0  501 -0.00000000000E+00 -0.00000000000E+00 -0.37230657475E+03  0.37230657476E+03  0.25500000000E-02 0.  1.
    8880023    1    1    2    0    0  0.39624144626E+03  0.28892591784E+03  0.92286520724E+03  0.12353039572E+04  0.65864270000E+03 0.  0.
    8880022    1    1    2    0    0 -0.39624144626E+03 -0.28892591784E+03  0.89202890360E+02  0.52137728988E+03  0.15294330000E+03 0.  0.
<mgrwt>
<rscale>  0 0.73028791E+03</rscale>
<asrwt>0</asrwt>
<pdfrwt beam="1">  1        2 0.21298072E+00 0.82115509E+03</pdfrwt>
<pdfrwt beam="2">  1       -2 0.57277934E-01 0.82115509E+03</pdfrwt>
<totfact> 0.42757693E+01</totfact>
</mgrwt>
</event>
<event>
 4    5  0.2025789E-007  0.7503156E+03  0.7818608E-02  0.9830857E-01
          2   -1    0    0  501    0  0.00000000000E+00  0.00000000000E+00  0.20782629630E+04  0.20782629630E+04  0.25500000000E-02 0. -1.
         -2   -1    0    0    0  501 -0.00000000000E+00 -0.00000000000E+00 -0.22139123350E+03  0.22139123351E+03  0.25500000000E-02 0.  1.
    8880023    1    1    2    0    0  0.32302440172E+03 -0.15753914121E+03  0.17353364350E+04  0.18905994007E+04  0.65864270000E+03 0. -1.
    8880022    1    1    2    0    0 -0.32302440172E+03  0.15753914121E+03  0.12153529447E+03  0.40905479576E+03  0.15294330000E+03 0.  0.
<mgrwt>
<rscale>  0 0.63732551E+03</rscale>
<asrwt>0</asrwt>
<pdfrwt beam="1">  1        2 0.31973276E+00 0.75031563E+03</pdfrwt>
<pdfrwt beam="2">  1       -2 0.34060191E-01 0.75031563E+03</pdfrwt>
<totfact> 0.50285710E+01</totfact>
</mgrwt>
</event>
<event>
 4    5  0.2025789E-007  0.1822173E+04  0.7818608E-02  0.8710370E-01
          2   -1    0    0  501    0  0.00000000000E+00  0.00000000000E+00  0.33812494204E+04  0.33812494204E+04  0.25500000000E-02 0. -1.
         -2   -1    0    0    0  501 -0.00000000000E+00 -0.00000000000E+00 -0.95144391263E+03  0.95144391263E+03  0.25500000000E-02 0.  1.
    8880023    1    1    2    0    0 -0.16363771868E+04  0.45691597561E+03  0.16454687117E+04  0.24551741270E+04  0.65864270000E+03 0.  0.
    8880022    1    1    2    0    0  0.16363771868E+04 -0.45691597561E+03  0.78433679605E+03  0.18775192060E+04  0.15294330000E+03 0.  0.
<mgrwt>
<rscale>  0 0.17923663E+04</rscale>
<asrwt>0</asrwt>
<pdfrwt beam="1">  1        2 0.52019222E+00 0.18221725E+04</pdfrwt>
<pdfrwt beam="2">  1       -2 0.14637599E+00 0.18221725E+04</pdfrwt>
<totfact> 0.28836935E-01</totfact>
</mgrwt>
</event>
<event>
 4    5  0.2423012E-007  0.8984940E+03  0.7818608E-02  0.9528454E-01
         -2   -1    0    0    0  501 -0.00000000000E+00  0.00000000000E+00  0.88653333093E+03  0.88653333093E+03  0.25500000000E-02 0.  1.
          2   -1    0    0  501    0  0.00000000000E+00 -0.00000000000E+00 -0.26468976730E+04  0.26468976730E+04  0.25500000000E-02 0. -1.
    8880023    1    1    2    0    0  0.49580370432E+03  0.35729523111E+03 -0.24439197125E+04  0.26038500269E+04  0.65864270000E+03 0. -1.
    8880022    1    1    2    0    0 -0.49580370432E+03 -0.35729523111E+03  0.68355537041E+03  0.92958097701E+03  0.15294330000E+03 0.  0.
<mgrwt>
<rscale>  0 0.82218168E+03</rscale>
<asrwt>0</asrwt>
<pdfrwt beam="1">  1        2 0.40721502E+00 0.89849396E+03</pdfrwt>
<pdfrwt beam="2">  1       -2 0.13638974E+00 0.89849396E+03</pdfrwt>
<totfact> 0.11262753E+00</totfact>
</mgrwt>
</event>
<event>
 4    5  0.2025789E-007  0.7466478E+03  0.7818608E-02  0.9840989E-01
          2   -1    0    0  501    0  0.00000000000E+00  0.00000000000E+00  0.30600653525E+04  0.30600653525E+04  0.25500000000E-02 0. -1.
         -2   -1    0    0    0  501 -0.00000000000E+00 -0.00000000000E+00 -0.34537704550E+03  0.34537704551E+03  0.25500000000E-02 0.  1.
    8880023    1    1    2    0    0  0.21752861074E+03  0.27632232906E+03  0.28891962505E+04  0.29841142582E+04  0.65864270000E+03 0. -1.
    8880022    1    1    2    0    0 -0.21752861074E+03 -0.27632232906E+03 -0.17450794348E+03  0.42132813979E+03  0.15294330000E+03 0.  0.
<mgrwt>
<rscale>  0 0.63208470E+03</rscale>
<asrwt>0</asrwt>
<pdfrwt beam="1">  1        2 0.47077931E+00 0.74664780E+03</pdfrwt>
<pdfrwt beam="2">  1       -2 0.53134927E-01 0.74664780E+03</pdfrwt>
<totfact> 0.56930008E+00</totfact>
</mgrwt>
</event>
<event>
 4    5  0.2025789E-007  0.7045989E+03  0.7818608E-02  0.9978633E-01
         -2   -1    0    0    0  501 -0.00000000000E+00  0.00000000000E+00  0.48745432802E+03  0.48745432802E+03  0.25500000000E-02 0.  1.
          2   -1    0    0  501    0  0.00000000000E+00 -0.00000000000E+00 -0.11330050793E+04  0.11330050793E+04  0.25500000000E-02 0. -1.
    8880023    1    1    2    0    0 -0.18976618325E+03 -0.16321195637E+03 -0.95974881728E+03  0.11906205716E+04  0.65864270000E+03 0. -1.
    8880022    1    1    2    0    0  0.18976618325E+03  0.16321195637E+03  0.31419806599E+03  0.42983883572E+03  0.15294330000E+03 0.  0.
<mgrwt>
<rscale>  0 0.56597159E+03</rscale>
<asrwt>0</asrwt>
<pdfrwt beam="1">  1        2 0.17430847E+00 0.70459886E+03</pdfrwt>
<pdfrwt beam="2">  1       -2 0.74992974E-01 0.70459886E+03</pdfrwt>
<totfact> 0.33950688E+01</totfact>
</mgrwt>
</event>
<event>
 4    5  0.2025789E-007  0.1010615E+04  0.7818608E-02  0.9367800E-01
          2   -1    0    0  501    0  0.00000000000E+00  0.00000000000E+00  0.36367567621E+04  0.36367567621E+04  0.25500000000E-02 0. -1.
         -2   -1    0    0    0  501 -0.00000000000E+00 -0.00000000000E+00 -0.76365458406E+03  0.76365458407E+03  0.25500000000E-02 0.  1.
    8880023    1    1    2    0    0 -0.23460151683E+03  0.72972226932E+03  0.33402819876E+04  0.34898175347E+04  0.65864270000E+03 0. -1.
    8880022    1    1    2    0    0  0.23460151683E+03 -0.72972226932E+03 -0.46717980959E+03  0.91059381151E+03  0.15294330000E+03 0.  0.
<mgrwt>
<rscale>  0 0.94773673E+03</rscale>
<asrwt>0</asrwt>
<pdfrwt beam="1">  1        2 0.55950105E+00 0.10106150E+04</pdfrwt>
<pdfrwt beam="2">  1       -2 0.11748532E+00 0.10106150E+04</pdfrwt>
<totfact> 0.37592531E-01</totfact>
</mgrwt>
</event>
<event>
 4    5  0.2025789E-007  0.9681707E+03  0.7818608E-02  0.9424439E-01
          2   -1    0    0  501    0  0.00000000000E+00  0.00000000000E+00  0.31601374567E+04  0.31601374567E+04  0.25500000000E-02 0. -1.
         -2   -1    0    0    0  501 -0.00000000000E+00 -0.00000000000E+00 -0.29643458555E+03  0.29643458556E+03  0.25500000000E-02 0.  1.
    8880023    1    1    2    0    0  0.70960859079E+03 -0.16687531063E-01  0.24183249487E+04  0.26049280443E+04  0.65864270000E+03 0. -1.
    8880022    1    1    2    0    0 -0.70960859079E+03  0.16687531063E-01  0.44537792250E+03  0.85164399796E+03  0.15294330000E+03 0.  0.
<mgrwt>
<rscale>  0 0.90091475E+03</rscale>
<asrwt>0</asrwt>
<pdfrwt beam="1">  1        2 0.48617502E+00 0.96817073E+03</pdfrwt>
<pdfrwt beam="2">  1       -2 0.45605318E-01 0.96817073E+03</pdfrwt>
<totfact> 0.64772517E+00</totfact>
</mgrwt>
</event>
<event>
 4    5  0.2025789E-007  0.7930801E+03  0.7818608E-02  0.9725963E-01
          2   -1    0    0  501    0  0.00000000000E+00  0.00000000000E+00  0.21132426265E+04  0.21132426265E+04  0.25500000000E-02 0. -1.
         -2   -1    0    0    0  501 -0.00000000000E+00 -0.00000000000E+00 -0.55079590381E+03  0.55079590382E+03  0.25500000000E-02 0.  1.
    8880023    1    1    2    0    0 -0.21539787224E+03  0.38570666397E+03  0.19187793132E+04  0.20762201552E+04  0.65864270000E+03 0. -1.
    8880022    1    1    2    0    0  0.21539787224E+03 -0.38570666397E+03 -0.35633259052E+03  0.58781837508E+03  0.15294330000E+03 0.  0.
<mgrwt>
<rscale>  0 0.69491793E+03</rscale>
<asrwt>0</asrwt>
<pdfrwt beam="1">  1        2 0.32511425E+00 0.79308012E+03</pdfrwt>
<pdfrwt beam="2">  1       -2 0.84737831E-01 0.79308012E+03</pdfrwt>
<totfact> 0.72309620E+00</totfact>
</mgrwt>
</event>
<event>
 4    5  0.2025789E-007  0.9586254E+03  0.7818608E-02  0.9437811E-01
          2   -1    0    0  501    0  0.00000000000E+00  0.00000000000E+00  0.45245728421E+04  0.45245728421E+04  0.25500000000E-02 0. -1.
         -2   -1    0    0    0  501 -0.00000000000E+00 -0.00000000000E+00 -0.36564443230E+03  0.36564443231E+03  0.25500000000E-02 0.  1.
    8880023    1    1    2    0    0 -0.91109937829E+02  0.69054436035E+03  0.40583554346E+04  0.41700373589E+04  0.65864270000E+03 0. -1.
    8880022    1    1    2    0    0  0.91109937829E+02 -0.69054436035E+03  0.10057297518E+03  0.72017991553E+03  0.15294330000E+03 0.  0.
<mgrwt>
<rscale>  0 0.89028243E+03</rscale>
<asrwt>0</asrwt>
<pdfrwt beam="1">  1        2 0.69608813E+00 0.95862544E+03</pdfrwt>
<pdfrwt beam="2">  1       -2 0.56252989E-01 0.95862544E+03</pdfrwt>
<totfact> 0.37534563E-01</totfact>
</mgrwt>
</event>
<event>
 4    5  0.2025789E-007  0.1374763E+04  0.7818608E-02  0.9003545E-01
          2   -1    0    0  501    0  0.00000000000E+00  0.00000000000E+00  0.27225716531E+04  0.27225716531E+04  0.25500000000E-02 0. -1.
         -2   -1    0    0    0  501 -0.00000000000E+00 -0.00000000000E+00 -0.10633696478E+04  0.10633696478E+04  0.25500000000E-02 0.  1.
    8880023    1    1    2    0    0 -0.11779618803E+04 -0.26185781221E+03  0.20847936196E+04  0.24972661748E+04  0.65864270000E+03 0.  0.
    8880022    1    1    2    0    0  0.11779618803E+04  0.26185781221E+03 -0.42559161433E+03  0.12886751260E+04  0.15294330000E+03 0.  0.
<mgrwt>
<rscale>  0 0.13333290E+04</rscale>
<asrwt>0</asrwt>
<pdfrwt beam="1">  1        2 0.41885718E+00 0.13747632E+04</pdfrwt>
<pdfrwt beam="2">  1       -2 0.16359533E+00 0.13747632E+04</pdfrwt>
<totfact> 0.58446697E-01</totfact>
</mgrwt>
</event>
<event>
 4    5  0.2128202E-007  0.1184605E+04  0.7818608E-02  0.9172235E-01
          2   -1    0    0  501    0  0.00000000000E+00  0.00000000000E+00  0.35627102036E+04  0.35627102036E+04  0.25500000000E-02 0. -1.
         -2   -1    0    0    0  501 -0.00000000000E+00 -0.00000000000E+00 -0.81475994433E+03  0.81475994433E+03  0.25500000000E-02 0.  1.
    8880023    1    1    2    0    0 -0.11299181670E+03 -0.97811585486E+03  0.31016176661E+04  0.33201385708E+04  0.65864270000E+03 0.  0.
    8880022    1    1    2    0    0  0.11299181670E+03  0.97811585486E+03 -0.35366740691E+03  0.10573315771E+04  0.15294330000E+03 0.  0.
<mgrwt>
<rscale>  0 0.11344662E+04</rscale>
<asrwt>0</asrwt>
<pdfrwt beam="1">  1        2 0.54810926E+00 0.11846046E+04</pdfrwt>
<pdfrwt beam="2">  1       -2 0.12534768E+00 0.11846046E+04</pdfrwt>
<totfact> 0.34994433E-01</totfact>
</mgrwt>
</event>
<event>
 4    5  0.2025789E-007  0.6907735E+03  0.7818608E-02  0.1003787E+00
         -2   -1    0    0    0  501 -0.00000000000E+00  0.00000000000E+00  0.12202615566E+03  0.12202615569E+03  0.25500000000E-02 0.  1.
          2   -1    0    0  501    0  0.00000000000E+00 -0.00000000000E+00 -0.24030246382E+04  0.24030246382E+04  0.25500000000E-02 0. -1.
    8880023    1    1    2    0    0  0.20080966663E+03 -0.55075432923E+02 -0.20970637607E+04  0.22079049908E+04  0.65864270000E+03 0. -1.
    8880022    1    1    2    0    0 -0.20080966663E+03  0.55075432923E+02 -0.18393472181E+03  0.31714580311E+03  0.15294330000E+03 0.  0.
<mgrwt>
<rscale>  0 0.54020393E+03</rscale>
<asrwt>0</asrwt>
<pdfrwt beam="1">  1        2 0.36969606E+00 0.69077350E+03</pdfrwt>
<pdfrwt beam="2">  1       -2 0.18773257E-01 0.69077350E+03</pdfrwt>
<totfact> 0.98457053E+01</totfact>
</mgrwt>
</event>
<event>
 4    5  0.2025789E-007  0.6871757E+03  0.7818608E-02  0.1005525E+00
         -2   -1    0    0    0  501 -0.00000000000E+00  0.00000000000E+00  0.36839305496E+03  0.36839305497E+03  0.25500000000E-02 0.  1.
          2   -1    0    0  501    0  0.00000000000E+00 -0.00000000000E+00 -0.11464178713E+04  0.11464178713E+04  0.25500000000E-02 0. -1.
    8880023    1    1    2    0    0  0.13164963221E+03  0.14515031490E+03 -0.97834453521E+03  0.11955619915E+04  0.65864270000E+03 0. -1.
    8880022    1    1    2    0    0 -0.13164963221E+03 -0.14515031490E+03  0.20031971889E+03  0.31924893480E+03  0.15294330000E+03 0.  0.
<mgrwt>
<rscale>  0 0.53292646E+03</rscale>
<asrwt>0</asrwt>
<pdfrwt beam="1">  1        2 0.17637198E+00 0.68717570E+03</pdfrwt>
<pdfrwt beam="2">  1       -2 0.56675855E-01 0.68717570E+03</pdfrwt>
<totfact> 0.60923694E+01</totfact>
</mgrwt>
</event>
<event>
 4    5  0.2025789E-007  0.9083836E+03  0.7818608E-02  0.9512705E-01
          2   -1    0    0  501    0  0.00000000000E+00  0.00000000000E+00  0.20815755426E+04  0.20815755426E+04  0.25500000000E-02 0. -1.
         -2   -1    0    0    0  501 -0.00000000000E+00 -0.00000000000E+00 -0.77481915459E+03  0.77481915460E+03  0.25500000000E-02 0.  1.
    8880023    1    1    2    0    0  0.12771982882E+03 -0.61240364609E+03  0.18192025425E+04  0.20333860128E+04  0.65864270000E+03 0.  0.
    8880022    1    1    2    0    0 -0.12771982882E+03  0.61240364609E+03 -0.51244615442E+03  0.82300868441E+03  0.15294330000E+03 0.  0.
<mgrwt>
<rscale>  0 0.83353579E+03</rscale>
<asrwt>0</asrwt>
<pdfrwt beam="1">  1        2 0.32024238E+00 0.90838361E+03</pdfrwt>
<pdfrwt beam="2">  1       -2 0.11920295E+00 0.90838361E+03</pdfrwt>
<totfact> 0.32898640E+00</totfact>
</mgrwt>
</event>
<event>
 4    5  0.2025789E-007  0.9751843E+03  0.7818608E-02  0.9414769E-01
         -2   -1    0    0    0  501 -0.00000000000E+00  0.00000000000E+00  0.19079306917E+04  0.19079306917E+04  0.25500000000E-02 0.  1.
          2   -1    0    0  501    0  0.00000000000E+00 -0.00000000000E+00 -0.63050791701E+03  0.63050791701E+03  0.25500000000E-02 0. -1.
    8880023    1    1    2    0    0  0.67961561475E+03  0.23515285907E+03 -0.96717805048E+02  0.97996877043E+03  0.65864270000E+03 0. -1.
    8880022    1    1    2    0    0 -0.67961561475E+03 -0.23515285907E+03  0.13741405797E+04  0.15584698383E+04  0.15294330000E+03 0.  0.
<mgrwt>
<rscale>  0 0.90870122E+03</rscale>
<asrwt>0</asrwt>
<pdfrwt beam="1">  1        2 0.97001219E-01 0.97518432E+03</pdfrwt>
<pdfrwt beam="2">  1       -2 0.29352779E+00 0.97518432E+03</pdfrwt>
<totfact> 0.16382448E+00</totfact>
</mgrwt>
</event>
<event>
 4    5  0.2025789E-007  0.9265419E+03  0.7818608E-02  0.9484700E-01
         -2   -1    0    0    0  501 -0.00000000000E+00  0.00000000000E+00  0.61329963450E+03  0.61329963451E+03  0.25500000000E-02 0.  1.
          2   -1    0    0  501    0  0.00000000000E+00 -0.00000000000E+00 -0.23587521964E+04  0.23587521964E+04  0.25500000000E-02 0. -1.
    8880023    1    1    2    0    0 -0.64665257083E+03  0.80684966780E+02 -0.20401407506E+04  0.22406816150E+04  0.65864270000E+03 0.  0.
    8880022    1    1    2    0    0  0.64665257083E+03 -0.80684966780E+02  0.29468818867E+03  0.73137021595E+03  0.15294330000E+03 0.  0.
<mgrwt>
<rscale>  0 0.85421257E+03</rscale>
<asrwt>0</asrwt>
<pdfrwt beam="1">  1        2 0.36288495E+00 0.92654186E+03</pdfrwt>
<pdfrwt beam="2">  1       -2 0.94353791E-01 0.92654186E+03</pdfrwt>
<totfact> 0.40415343E+00</totfact>
</mgrwt>
</event>
<event>
 4    5  0.2025789E-007  0.9394222E+03  0.7818608E-02  0.9465499E-01
          2   -1    0    0  501    0  0.00000000000E+00  0.00000000000E+00  0.13983663388E+04  0.13983663388E+04  0.25500000000E-02 0. -1.
         -2   -1    0    0    0  501 -0.00000000000E+00 -0.00000000000E+00 -0.16432020732E+04  0.16432020732E+04  0.25500000000E-02 0.  1.
    8880023    1    1    2    0    0 -0.52576439674E+03  0.41506109843E+03  0.11510504408E+04  0.14857426560E+04  0.65864270000E+03 0.  0.
    8880022    1    1    2    0    0  0.52576439674E+03 -0.41506109843E+03 -0.13958861751E+04  0.15558257561E+04  0.15294330000E+03 0.  0.
<mgrwt>
<rscale>  0 0.86875910E+03</rscale>
<asrwt>0</asrwt>
<pdfrwt beam="1">  1        2 0.21513328E+00 0.93942223E+03</pdfrwt>
<pdfrwt beam="2">  1       -2 0.25280032E+00 0.93942223E+03</pdfrwt>
<totfact> 0.90208289E-01</totfact>
</mgrwt>
</event>
<event>
 4    5  0.2025789E-007  0.7208091E+03  0.7818608E-02  0.9919858E-01
          2   -1    0    0  501    0  0.00000000000E+00  0.00000000000E+00  0.43665279642E+03  0.43665279643E+03  0.25500000000E-02 0. -1.
         -2   -1    0    0    0  501 -0.00000000000E+00 -0.00000000000E+00 -0.15700559469E+04  0.15700559469E+04  0.25500000000E-02 0.  1.
    8880023    1    1    2    0    0  0.73418212290E+02 -0.28348780514E+03  0.10191264018E+03  0.72797799558E+03  0.65864270000E+03 0.  0.
    8880022    1    1    2    0    0 -0.73418212290E+02  0.28348780514E+03 -0.12353157907E+04  0.12787307477E+04  0.15294330000E+03 0.  0.
<mgrwt>
<rscale>  0 0.59308479E+03</rscale>
<asrwt>0</asrwt>
<pdfrwt beam="1">  1        2 0.67177354E-01 0.72080911E+03</pdfrwt>
<pdfrwt beam="2">  1       -2 0.24154706E+00 0.72080911E+03</pdfrwt>
<totfact> 0.53753854E+00</totfact>
</mgrwt>
</event>
<event>
 4    5  0.2025789E-007  0.1016138E+04  0.7818608E-02  0.9360742E-01
          2   -1    0    0  501    0  0.00000000000E+00  0.00000000000E+00  0.30435363443E+04  0.30435363443E+04  0.25500000000E-02 0. -1.
         -2   -1    0    0    0  501 -0.00000000000E+00 -0.00000000000E+00 -0.41618717193E+03  0.41618717194E+03  0.25500000000E-02 0.  1.
    8880023    1    1    2    0    0  0.76145063042E+03 -0.13754877524E+03  0.24484669345E+04  0.26509483706E+04  0.65864270000E+03 0. -1.
    8880022    1    1    2    0    0 -0.76145063042E+03  0.13754877524E+03  0.17888223788E+03  0.80877514562E+03  0.15294330000E+03 0.  0.
<mgrwt>
<rscale>  0 0.95378113E+03</rscale>
<asrwt>0</asrwt>
<pdfrwt beam="1">  1        2 0.46823636E+00 0.10161382E+04</pdfrwt>
<pdfrwt beam="2">  1       -2 0.64028796E-01 0.10161382E+04</pdfrwt>
<totfact> 0.37638957E+00</totfact>
</mgrwt>
</event>
<event>
 4    5  0.2025789E-007  0.1254389E+04  0.7818608E-02  0.9105984E-01
          2   -1    0    0  501    0  0.00000000000E+00  0.00000000000E+00  0.22110502265E+04  0.22110502265E+04  0.25500000000E-02 0. -1.
         -2   -1    0    0    0  501 -0.00000000000E+00 -0.00000000000E+00 -0.12195105361E+04  0.12195105361E+04  0.25500000000E-02 0.  1.
    8880023    1    1    2    0    0 -0.99995677123E+03 -0.37385687669E+03  0.17202216931E+04  0.21290033791E+04  0.65864270000E+03 0.  0.
    8880022    1    1    2    0    0  0.99995677123E+03  0.37385687669E+03 -0.72868200266E+03  0.13015573835E+04  0.15294330000E+03 0.  0.
<mgrwt>
<rscale>  0 0.12078839E+04</rscale>
<asrwt>0</asrwt>
<pdfrwt beam="1">  1        2 0.34016157E+00 0.12543894E+04</pdfrwt>
<pdfrwt beam="2">  1       -2 0.18761701E+00 0.12543894E+04</pdfrwt>
<totfact> 0.79113784E-01</totfact>
</mgrwt>
</event>
<event>
 4    5  0.2025789E-007  0.9609609E+03  0.7818608E-02  0.9434516E-01
         -2   -1    0    0    0  501 -0.00000000000E+00  0.00000000000E+00  0.65348181635E+03  0.65348181636E+03  0.25500000000E-02 0.  1.
          2   -1    0    0  501    0  0.00000000000E+00 -0.00000000000E+00 -0.24907127523E+04  0.24907127523E+04  0.25500000000E-02 0. -1.
    8880023    1    1    2    0    0 -0.57264398102E+03 -0.40213753762E+03 -0.21558044076E+04  0.23602835801E+04  0.65864270000E+03 0. -1.
    8880022    1    1    2    0    0  0.57264398102E+03  0.40213753762E+03  0.31857347167E+03  0.78391098859E+03  0.15294330000E+03 0.  0.
<mgrwt>
<rscale>  0 0.89288776E+03</rscale>
<asrwt>0</asrwt>
<pdfrwt beam="1">  1        2 0.38318657E+00 0.96096094E+03</pdfrwt>
<pdfrwt beam="2">  1       -2 0.10053567E+00 0.96096094E+03</pdfrwt>
<totfact> 0.29149289E+00</totfact>
</mgrwt>
</event>
<event>
 4    5  0.2025789E-007  0.1208483E+04  0.7818608E-02  0.9148920E-01
          2   -1    0    0  501    0  0.00000000000E+00  0.00000000000E+00  0.22023910018E+04  0.22023910018E+04  0.25500000000E-02 0. -1.
         -2   -1    0    0    0  501 -0.00000000000E+00 -0.00000000000E+00 -0.86632060117E+03  0.86632060117E+03  0.25500000000E-02 0.  1.
    8880023    1    1    2    0    0 -0.75179170876E+01  0.10131957260E+04 -0.19728337380E+03  0.12244807202E+04  0.65864270000E+03 0.  0.
    8880022    1    1    2    0    0  0.75179170876E+01 -0.10131957260E+04  0.15333537745E+04  0.18442308828E+04  0.15294330000E+03 0.  0.
<mgrwt>
<rscale>  0 0.11596580E+04</rscale>
<asrwt>0</asrwt>
<pdfrwt beam="1">  1        2 0.33882938E+00 0.12084835E+04</pdfrwt>
<pdfrwt beam="2">  1       -2 0.13328009E+00 0.12084835E+04</pdfrwt>
<totfact> 0.20467256E+00</totfact>
</mgrwt>
</event>
<event>
 4    5  0.2025789E-007  0.7666586E+03  0.7818608E-02  0.9788164E-01
          2   -1    0    0  501    0  0.00000000000E+00  0.00000000000E+00  0.20680552691E+04  0.20680552691E+04  0.25500000000E-02 0. -1.
         -2   -1    0    0    0  501 -0.00000000000E+00 -0.00000000000E+00 -0.17854813553E+03  0.17854813554E+03  0.25500000000E-02 0.  1.
    8880023    1    1    2    0    0  0.39104861998E+02  0.39041778467E+03  0.14352037961E+04  0.16271371729E+04  0.65864270000E+03 0. -1.
    8880022    1    1    2    0    0 -0.39104861998E+02 -0.39041778467E+03  0.45430333747E+03  0.61946623174E+03  0.15294330000E+03 0. -1.
<mgrwt>
<rscale>  0 0.66001600E+03</rscale>
<asrwt>0</asrwt>
<pdfrwt beam="1">  1        2 0.31816235E+00 0.76665862E+03</pdfrwt>
<pdfrwt beam="2">  1       -2 0.27468944E-01 0.76665862E+03</pdfrwt>
<totfact> 0.75893314E+01</totfact>
</mgrwt>
</event>
<event>
 4    5  0.2025789E-007  0.9572165E+03  0.7818608E-02  0.9439806E-01
         -2   -1    0    0    0  501 -0.00000000000E+00  0.00000000000E+00  0.72566023949E+03  0.72566023949E+03  0.25500000000E-02 0.  1.
          2   -1    0    0  501    0  0.00000000000E+00 -0.00000000000E+00 -0.15744961446E+04  0.15744961446E+04  0.25500000000E-02 0. -1.
    8880023    1    1    2    0    0  0.65224828843E+03  0.23879997902E+03 -0.11768079805E+04  0.15169510503E+04  0.65864270000E+03 0. -1.
    8880022    1    1    2    0    0 -0.65224828843E+03 -0.23879997902E+03  0.32797207534E+03  0.78320533384E+03  0.15294330000E+03 0.  0.
<mgrwt>
<rscale>  0 0.88870948E+03</rscale>
<asrwt>0</asrwt>
<pdfrwt beam="1">  1        2 0.24223018E+00 0.95721652E+03</pdfrwt>
<pdfrwt beam="2">  1       -2 0.11164004E+00 0.95721652E+03</pdfrwt>
<totfact> 0.73037103E+00</totfact>
</mgrwt>
</event>
<event>
 4    5  0.2025789E-007  0.1353720E+04  0.7818608E-02  0.9020504E-01
         -2   -1    0    0    0  501 -0.00000000000E+00  0.00000000000E+00  0.31821418132E+04  0.31821418132E+04  0.25500000000E-02 0.  1.
          2   -1    0    0  501    0  0.00000000000E+00 -0.00000000000E+00 -0.10397755433E+04  0.10397755433E+04  0.25500000000E-02 0. -1.
    8880023    1    1    2    0    0  0.28781754450E+03 -0.11471311325E+04 -0.40182979825E+03  0.14120999140E+04  0.65864270000E+03 0. -1.
    8880022    1    1    2    0    0 -0.28781754450E+03  0.11471311325E+04  0.25441960681E+04  0.28098174425E+04  0.15294330000E+03 0.  0.
<mgrwt>
<rscale>  0 0.13114887E+04</rscale>
<asrwt>0</asrwt>
<pdfrwt beam="1">  1        2 0.15996547E+00 0.13537204E+04</pdfrwt>
<pdfrwt beam="2">  1       -2 0.48956028E+00 0.13537204E+04</pdfrwt>
<totfact> 0.43703278E-02</totfact>
</mgrwt>
</event>
<event>
 4    5  0.2025789E-007  0.7043500E+03  0.7818608E-02  0.9979613E-01
          2   -1    0    0  501    0  0.00000000000E+00  0.00000000000E+00  0.10820557137E+04  0.10820557137E+04  0.25500000000E-02 0. -1.
         -2   -1    0    0    0  501 -0.00000000000E+00 -0.00000000000E+00 -0.30374488883E+03  0.30374488884E+03  0.25500000000E-02 0.  1.
    8880023    1    1    2    0    0 -0.62564199545E+02  0.24162863481E+03  0.82995923986E+03  0.10885500550E+04  0.65864270000E+03 0. -1.
    8880022    1    1    2    0    0  0.62564199545E+02 -0.24162863481E+03 -0.51648414975E+02  0.29725054753E+03  0.15294330000E+03 0.  0.
<mgrwt>
<rscale>  0 0.56553287E+03</rscale>
<asrwt>0</asrwt>
<pdfrwt beam="1">  1        2 0.16647011E+00 0.70434997E+03</pdfrwt>
<pdfrwt beam="2">  1       -2 0.46729982E-01 0.70434997E+03</pdfrwt>
<totfact> 0.98767126E+01</totfact>
</mgrwt>
</event>
<event>
 4    5  0.2025789E-007  0.1306613E+04  0.7818608E-02  0.9059870E-01
          2   -1    0    0  501    0  0.00000000000E+00  0.00000000000E+00  0.12605210593E+04  0.12605210593E+04  0.25500000000E-02 0. -1.
         -2   -1    0    0    0  501 -0.00000000000E+00 -0.00000000000E+00 -0.18941508375E+04  0.18941508375E+04  0.25500000000E-02 0.  1.
    8880023    1    1    2    0    0 -0.69610782584E+03  0.88817882315E+03  0.63259262022E+03  0.14516925833E+04  0.65864270000E+03 0.  0.
    8880022    1    1    2    0    0  0.69610782584E+03 -0.88817882315E+03 -0.12662223984E+04  0.17029793135E+04  0.15294330000E+03 0.  0.
<mgrwt>
<rscale>  0 0.12624675E+04</rscale>
<asrwt>0</asrwt>
<pdfrwt beam="1">  1        2 0.19392632E+00 0.13066132E+04</pdfrwt>
<pdfrwt beam="2">  1       -2 0.29140782E+00 0.13066132E+04</pdfrwt>
<totfact> 0.60242869E-01</totfact>
</mgrwt>
</event>
<event>
 4    5  0.2025789E-007  0.8836251E+03  0.7818608E-02  0.9552847E-01
         -2   -1    0    0    0  501 -0.00000000000E+00  0.00000000000E+00  0.90295815887E+03  0.90295815888E+03  0.25500000000E-02 0.  1.
          2   -1    0    0  501    0  0.00000000000E+00 -0.00000000000E+00 -0.90325603188E+03  0.90325603188E+03  0.25500000000E-02 0. -1.
    8880023    1    1    2    0    0  0.24511506482E+03  0.53563211048E+03 -0.50308538501E+03  0.10168029621E+04  0.65864270000E+03 0. -1.
    8880022    1    1    2    0    0 -0.24511506482E+03 -0.53563211048E+03  0.50278751200E+03  0.78941122871E+03  0.15294330000E+03 0.  0.
<mgrwt>
<rscale>  0 0.80497283E+03</rscale>
<asrwt>0</asrwt>
<pdfrwt beam="1">  1        2 0.13896247E+00 0.88362512E+03</pdfrwt>
<pdfrwt beam="2">  1       -2 0.13891664E+00 0.88362512E+03</pdfrwt>
<totfact> 0.10716850E+01</totfact>
</mgrwt>
</event>
<event>
 4    5  0.2025789E-007  0.8655207E+03  0.7818608E-02  0.9583818E-01
         -2   -1    0    0    0  501 -0.00000000000E+00  0.00000000000E+00  0.17687541193E+04  0.17687541193E+04  0.25500000000E-02 0.  1.
          2   -1    0    0  501    0  0.00000000000E+00 -0.00000000000E+00 -0.36925227510E+03  0.36925227511E+03  0.25500000000E-02 0. -1.
    8880023    1    1    2    0    0 -0.56040830876E+03  0.35475176258E+02  0.34141675223E+03  0.93042547559E+03  0.65864270000E+03 0.  0.
    8880022    1    1    2    0    0  0.56040830876E+03 -0.35475176258E+02  0.10580850920E+04  0.12075809188E+04  0.15294330000E+03 0.  0.
<mgrwt>
<rscale>  0 0.78376566E+03</rscale>
<asrwt>0</asrwt>
<pdfrwt beam="1">  1        2 0.56808043E-01 0.86552075E+03</pdfrwt>
<pdfrwt beam="2">  1       -2 0.27211601E+00 0.86552075E+03</pdfrwt>
<totfact> 0.41709112E+00</totfact>
</mgrwt>
</event>
<event>
 4    5  0.2025789E-007  0.8035146E+03  0.7818608E-02  0.9703248E-01
          2   -1    0    0  501    0  0.00000000000E+00  0.00000000000E+00  0.46517041412E+04  0.46517041412E+04  0.25500000000E-02 0. -1.
         -2   -1    0    0    0  501 -0.00000000000E+00 -0.00000000000E+00 -0.25919324335E+03  0.25919324336E+03  0.25500000000E-02 0.  1.
    8880023    1    1    2    0    0 -0.44843776322E+03 -0.10358135233E+03  0.43505101194E+04  0.44240901923E+04  0.65864270000E+03 0. -1.
    8880022    1    1    2    0    0  0.44843776322E+03  0.10358135233E+03  0.42000778401E+02  0.48680719225E+03  0.15294330000E+03 0.  0.
<mgrwt>
<rscale>  0 0.70823757E+03</rscale>
<asrwt>0</asrwt>
<pdfrwt beam="1">  1        2 0.71564678E+00 0.80351461E+03</pdfrwt>
<pdfrwt beam="2">  1       -2 0.39875884E-01 0.80351461E+03</pdfrwt>
<totfact> 0.58297259E-01</totfact>
</mgrwt>
</event>
<event>
 4    5  0.2025789E-007  0.7908063E+03  0.7818608E-02  0.9731039E-01
          2   -1    0    0  501    0  0.00000000000E+00  0.00000000000E+00  0.40724387982E+04  0.40724387982E+04  0.25500000000E-02 0. -1.
         -2   -1    0    0    0  501 -0.00000000000E+00 -0.00000000000E+00 -0.19844744942E+03  0.19844744943E+03  0.25500000000E-02 0.  1.
    8880023    1    1    2    0    0  0.18167811958E+03  0.39819267561E+03  0.36871821631E+04  0.37710325981E+04  0.65864270000E+03 0.  0.
    8880022    1    1    2    0    0 -0.18167811958E+03 -0.39819267561E+03  0.18680918568E+03  0.49985364949E+03  0.15294330000E+03 0.  0.
<mgrwt>
<rscale>  0 0.69198435E+03</rscale>
<asrwt>0</asrwt>
<pdfrwt beam="1">  1        2 0.62652905E+00 0.79080627E+03</pdfrwt>
<pdfrwt beam="2">  1       -2 0.30530377E-01 0.79080627E+03</pdfrwt>
<totfact> 0.32565032E+00</totfact>
</mgrwt>
</event>
<event>
 4    5  0.2025789E-007  0.1184484E+04  0.7818608E-02  0.9172354E-01
          2   -1    0    0  501    0  0.00000000000E+00  0.00000000000E+00  0.10991172801E+04  0.10991172801E+04  0.25500000000E-02 0. -1.
         -2   -1    0    0    0  501 -0.00000000000E+00 -0.00000000000E+00 -0.19111220352E+04  0.19111220352E+04  0.25500000000E-02 0.  1.
    8880023    1    1    2    0    0 -0.19907886187E+03  0.96413721525E+03  0.56361059252E+03  0.13117393298E+04  0.65864270000E+03 0. -1.
    8880022    1    1    2    0    0  0.19907886187E+03 -0.96413721525E+03 -0.13756153477E+04  0.16984999855E+04  0.15294330000E+03 0.  0.
<mgrwt>
<rscale>  0 0.11343392E+04</rscale>
<asrwt>0</asrwt>
<pdfrwt beam="1">  1        2 0.16909497E+00 0.11844843E+04</pdfrwt>
<pdfrwt beam="2">  1       -2 0.29401877E+00 0.11844843E+04</pdfrwt>
<totfact> 0.73813590E-01</totfact>
</mgrwt>
</event>
<event>
 4    5  0.2025789E-007  0.1233010E+04  0.7818608E-02  0.9125684E-01
         -2   -1    0    0    0  501 -0.00000000000E+00  0.00000000000E+00  0.28261829805E+04  0.28261829805E+04  0.25500000000E-02 0.  1.
          2   -1    0    0  501    0  0.00000000000E+00 -0.00000000000E+00 -0.82034232385E+03  0.82034232386E+03  0.25500000000E-02 0. -1.
    8880023    1    1    2    0    0 -0.76107780758E+03  0.71222432365E+03  0.22494447545E+04  0.25652124329E+04  0.65864270000E+03 0.  1.
    8880022    1    1    2    0    0  0.76107780758E+03 -0.71222432365E+03 -0.24360409783E+03  0.10813128714E+04  0.15294330000E+03 0.  0.
<mgrwt>
<rscale>  0 0.11854551E+04</rscale>
<asrwt>0</asrwt>
<pdfrwt beam="1">  1        2 0.12620651E+00 0.12330098E+04</pdfrwt>
<pdfrwt beam="2">  1       -2 0.43479738E+00 0.12330098E+04</pdfrwt>
<totfact> 0.14338522E-01</totfact>
</mgrwt>
</event>
<event>
 4    5  0.2025789E-007  0.1880772E+04  0.7818608E-02  0.8679125E-01
          2   -1    0    0  501    0  0.00000000000E+00  0.00000000000E+00  0.24231542275E+04  0.24231542275E+04  0.25500000000E-02 0. -1.
         -2   -1    0    0    0  501 -0.00000000000E+00 -0.00000000000E+00 -0.19413081720E+04  0.19413081720E+04  0.25500000000E-02 0.  1.
    8880023    1    1    2    0    0 -0.75787934416E+03 -0.15903185700E+04  0.14256645764E+04  0.23600474455E+04  0.65864270000E+03 0.  0.
    8880022    1    1    2    0    0  0.75787934416E+03  0.15903185700E+04 -0.94381852088E+03  0.20044149540E+04  0.15294330000E+03 0.  0.
<mgrwt>
<rscale>  0 0.18520008E+04</rscale>
<asrwt>0</asrwt>
<pdfrwt beam="1">  1        2 0.37279296E+00 0.18807723E+04</pdfrwt>
<pdfrwt beam="2">  1       -2 0.29866280E+00 0.18807723E+04</pdfrwt>
<totfact> 0.11209579E-01</totfact>
</mgrwt>
</event>
<event>
 4    5  0.2025789E-007  0.1753289E+04  0.7818608E-02  0.8748825E-01
         -2   -1    0    0    0  501 -0.00000000000E+00  0.00000000000E+00  0.51453005145E+04  0.51453005145E+04  0.25500000000E-02 0.  1.
          2   -1    0    0  501    0  0.00000000000E+00 -0.00000000000E+00 -0.68107976935E+03  0.68107976936E+03  0.25500000000E-02 0. -1.
    8880023    1    1    2    0    0 -0.57582422531E+03  0.15194204309E+04  0.35410121476E+04  0.39513022183E+04  0.65864270000E+03 0.  0.
    8880022    1    1    2    0    0  0.57582422531E+03 -0.15194204309E+04  0.92320859751E+03  0.18750780655E+04  0.15294330000E+03 0.  0.
<mgrwt>
<rscale>  0 0.17221613E+04</rscale>
<asrwt>0</asrwt>
<pdfrwt beam="1">  1        2 0.10478150E+00 0.17532890E+04</pdfrwt>
<pdfrwt beam="2">  1       -2 0.79158468E+00 0.17532890E+04</pdfrwt>
<totfact> 0.35252232E-03</totfact>
</mgrwt>
</event>
<event>
 4    5  0.2025789E-007  0.1749300E+04  0.7818608E-02  0.8751113E-01
          2   -1    0    0  501    0  0.00000000000E+00  0.00000000000E+00  0.24463289004E+04  0.24463289004E+04  0.25500000000E-02 0. -1.
         -2   -1    0    0    0  501 -0.00000000000E+00 -0.00000000000E+00 -0.15277429059E+04  0.15277429059E+04  0.25500000000E-02 0.  1.
    8880023    1    1    2    0    0  0.64275380288E+03 -0.14876518904E+04  0.14390158400E+04  0.22651307672E+04  0.65864270000E+03 0.  0.
    8880022    1    1    2    0    0 -0.64275380288E+03  0.14876518904E+04 -0.52042984552E+03  0.17089410392E+04  0.15294330000E+03 0.  0.
<mgrwt>
<rscale>  0 0.17180921E+04</rscale>
<asrwt>0</asrwt>
<pdfrwt beam="1">  1        2 0.37635829E+00 0.17493001E+04</pdfrwt>
<pdfrwt beam="2">  1       -2 0.23503737E+00 0.17493001E+04</pdfrwt>
<totfact> 0.27145380E-01</totfact>
</mgrwt>
</event>
<event>
 4    5  0.2025789E-007  0.8310335E+03  0.7818608E-02  0.9647325E-01
          2   -1    0    0  501    0  0.00000000000E+00  0.00000000000E+00  0.19545705902E+04  0.19545705902E+04  0.25500000000E-02 0. -1.
         -2   -1    0    0    0  501 -0.00000000000E+00 -0.00000000000E+00 -0.47687997410E+03  0.47687997411E+03  0.25500000000E-02 0.  1.
    8880023    1    1    2    0    0 -0.23555451464E+03 -0.44868758461E+03  0.16723540838E+04  0.18674541134E+04  0.65864270000E+03 0.  0.
    8880022    1    1    2    0    0  0.23555451464E+03  0.44868758461E+03 -0.19466346768E+03  0.56399645089E+03  0.15294330000E+03 0.  0.
<mgrwt>
<rscale>  0 0.74241554E+03</rscale>
<asrwt>0</asrwt>
<pdfrwt beam="1">  1        2 0.30070316E+00 0.83103350E+03</pdfrwt>
<pdfrwt beam="2">  1       -2 0.73366152E-01 0.83103350E+03</pdfrwt>
<totfact> 0.12139938E+01</totfact>
</mgrwt>
</event>
<event>
 4    5  0.2025789E-007  0.7814210E+03  0.7818608E-02  0.9752510E-01
         -2   -1    0    0    0  501 -0.00000000000E+00  0.00000000000E+00  0.92611902058E+03  0.92611902058E+03  0.25500000000E-02 0.  1.
          2   -1    0    0  501    0  0.00000000000E+00 -0.00000000000E+00 -0.13403573635E+04  0.13403573635E+04  0.25500000000E-02 0. -1.
    8880023    1    1    2    0    0  0.41969654242E+03  0.25756609590E+02 -0.11588956771E+04  0.13977331603E+04  0.65864270000E+03 0. -1.
    8880022    1    1    2    0    0 -0.41969654242E+03 -0.25756609590E+02  0.74465733415E+03  0.86874322385E+03  0.15294330000E+03 0.  0.
<mgrwt>
<rscale>  0 0.67974636E+03</rscale>
<asrwt>0</asrwt>
<pdfrwt beam="1">  1        2 0.20620883E+00 0.78142101E+03</pdfrwt>
<pdfrwt beam="2">  1       -2 0.14247985E+00 0.78142101E+03</pdfrwt>
<totfact> 0.54734765E+00</totfact>
</mgrwt>
</event>
<event>
 4    5  0.2025789E-007  0.1138267E+04  0.7818608E-02  0.9219600E-01
          2   -1    0    0  501    0  0.00000000000E+00  0.00000000000E+00  0.12228016195E+04  0.12228016195E+04  0.25500000000E-02 0. -1.
         -2   -1    0    0    0  501 -0.00000000000E+00 -0.00000000000E+00 -0.12078464512E+04  0.12078464512E+04  0.25500000000E-02 0.  1.
    8880023    1    1    2    0    0  0.92368561696E+03 -0.92989142680E+02  0.63541752422E+03  0.13036133384E+04  0.65864270000E+03 0. -1.
    8880022    1    1    2    0    0 -0.92368561696E+03  0.92989142680E+02 -0.62046235591E+03  0.11270347323E+04  0.15294330000E+03 0.  0.
<mgrwt>
<rscale>  0 0.10853390E+04</rscale>
<asrwt>0</asrwt>
<pdfrwt beam="1">  1        2 0.18812333E+00 0.11382672E+04</pdfrwt>
<pdfrwt beam="2">  1       -2 0.18582253E+00 0.11382672E+04</pdfrwt>
<totfact> 0.29665469E+00</totfact>
</mgrwt>
</event>
<event>
 4    5  0.2025789E-007  0.7124138E+03  0.7818608E-02  0.9949144E-01
          2   -1    0    0  501    0  0.00000000000E+00  0.00000000000E+00  0.10954342661E+04  0.10954342661E+04  0.25500000000E-02 0. -1.
         -2   -1    0    0    0  501 -0.00000000000E+00 -0.00000000000E+00 -0.36739093327E+03  0.36739093328E+03  0.25500000000E-02 0.  1.
    8880023    1    1    2    0    0 -0.19669028519E+03  0.18717949980E+03  0.86654632308E+03  0.11218003253E+04  0.65864270000E+03 0.  0.
    8880022    1    1    2    0    0  0.19669028519E+03 -0.18717949980E+03 -0.13850299027E+03  0.34102487411E+03  0.15294330000E+03 0.  0.
<mgrwt>
<rscale>  0 0.57937530E+03</rscale>
<asrwt>0</asrwt>
<pdfrwt beam="1">  1        2 0.16852834E+00 0.71241381E+03</pdfrwt>
<pdfrwt beam="2">  1       -2 0.56521684E-01 0.71241381E+03</pdfrwt>
<totfact> 0.65632515E+01</totfact>
</mgrwt>
</event>
<event>
 4    5  0.2025789E-007  0.9754686E+03  0.7818608E-02  0.9414380E-01
          2   -1    0    0  501    0  0.00000000000E+00  0.00000000000E+00  0.39141008543E+04  0.39141008543E+04  0.25500000000E-02 0. -1.
         -2   -1    0    0    0  501 -0.00000000000E+00 -0.00000000000E+00 -0.61495003423E+03  0.61495003424E+03  0.25500000000E-02 0.  1.
    8880023    1    1    2    0    0 -0.47604716532E+03 -0.53954414310E+03  0.36033304890E+04  0.37330322267E+04  0.65864270000E+03 0. -1.
    8880022    1    1    2    0    0  0.47604716532E+03  0.53954414310E+03 -0.30417966898E+03  0.79601866184E+03  0.15294330000E+03 0.  0.
<mgrwt>
<rscale>  0 0.90901639E+03</rscale>
<asrwt>0</asrwt>
<pdfrwt beam="1">  1        2 0.60216934E+00 0.97546860E+03</pdfrwt>
<pdfrwt beam="2">  1       -2 0.94607701E-01 0.97546860E+03</pdfrwt>
<totfact> 0.39723060E-01</totfact>
</mgrwt>
</event>
<event>
 4    5  0.2025789E-007  0.1512431E+04  0.7818608E-02  0.8900907E-01
          2   -1    0    0  501    0  0.00000000000E+00  0.00000000000E+00  0.38239262321E+04  0.38239262321E+04  0.25500000000E-02 0. -1.
         -2   -1    0    0    0  501 -0.00000000000E+00 -0.00000000000E+00 -0.11297181687E+04  0.11297181687E+04  0.25500000000E-02 0.  1.
    8880023    1    1    2    0    0  0.13456243223E+04  0.20720432471E+03  0.31626861298E+04  0.35057142227E+04  0.65864270000E+03 0.  0.
    8880022    1    1    2    0    0 -0.13456243223E+04 -0.20720432471E+03 -0.46847806639E+03  0.14479301781E+04  0.15294330000E+03 0.  0.
<mgrwt>
<rscale>  0 0.14755049E+04</rscale>
<asrwt>0</asrwt>
<pdfrwt beam="1">  1        2 0.58829633E+00 0.15124314E+04</pdfrwt>
<pdfrwt beam="2">  1       -2 0.17380280E+00 0.15124314E+04</pdfrwt>
<totfact> 0.89927616E-02</totfact>
</mgrwt>
</event>
<event>
 4    5  0.2025789E-007  0.8380156E+03  0.7818608E-02  0.9633933E-01
         -2   -1    0    0    0  501 -0.00000000000E+00  0.00000000000E+00  0.18801138809E+04  0.18801138809E+04  0.25500000000E-02 0.  1.
          2   -1    0    0  501    0  0.00000000000E+00 -0.00000000000E+00 -0.72487164373E+03  0.72487164374E+03  0.25500000000E-02 0. -1.
    8880023    1    1    2    0    0  0.51810599481E+03  0.51125390456E+01 -0.42165389956E+03  0.93811629193E+03  0.65864270000E+03 0. -1.
    8880022    1    1    2    0    0 -0.51810599481E+03 -0.51125390456E+01  0.15768961368E+04  0.16668692327E+04  0.15294330000E+03 0.  0.
<mgrwt>
<rscale>  0 0.75090387E+03</rscale>
<asrwt>0</asrwt>
<pdfrwt beam="1">  1        2 0.11151871E+00 0.83801561E+03</pdfrwt>
<pdfrwt beam="2">  1       -2 0.28924829E+00 0.83801561E+03</pdfrwt>
<totfact> 0.14868060E+00</totfact>
</mgrwt>
</event>
<event>
 4    5  0.2025789E-007  0.7950389E+03  0.7818608E-02  0.9721627E-01
          2   -1    0    0  501    0  0.00000000000E+00  0.00000000000E+00  0.22824479599E+04  0.22824479599E+04  0.25500000000E-02 0. -1.
         -2   -1    0    0    0  501 -0.00000000000E+00 -0.00000000000E+00 -0.67722498228E+03  0.67722498228E+03  0.25500000000E-02 0.  1.
    8880023    1    1    2    0    0 -0.39129747202E+03  0.21251568178E+03  0.21187366764E+04  0.22629918111E+04  0.65864270000E+03 0. -1.
    8880022    1    1    2    0    0  0.39129747202E+03 -0.21251568178E+03 -0.51351369880E+03  0.69668113114E+03  0.15294330000E+03 0.  0.
<mgrwt>
<rscale>  0 0.69743578E+03</rscale>
<asrwt>0</asrwt>
<pdfrwt beam="1">  1        2 0.35114583E+00 0.79503889E+03</pdfrwt>
<pdfrwt beam="2">  1       -2 0.10418846E+00 0.79503889E+03</pdfrwt>
<totfact> 0.35979232E+00</totfact>
</mgrwt>
</event>
<event>
 4    5  0.2025789E-007  0.1014896E+04  0.7818608E-02  0.9362324E-01
          2   -1    0    0  501    0  0.00000000000E+00  0.00000000000E+00  0.19660198574E+04  0.19660198574E+04  0.25500000000E-02 0. -1.
         -2   -1    0    0    0  501 -0.00000000000E+00 -0.00000000000E+00 -0.72991166970E+03  0.72991166970E+03  0.25500000000E-02 0.  1.
    8880023    1    1    2    0    0  0.69706095386E+03  0.33212857964E+03  0.15465191523E+04  0.18497932483E+04  0.65864270000E+03 0.  0.
    8880022    1    1    2    0    0 -0.69706095386E+03 -0.33212857964E+03 -0.31041096463E+03  0.84613827876E+03  0.15294330000E+03 0.  0.
<mgrwt>
<rscale>  0 0.95242239E+03</rscale>
<asrwt>0</asrwt>
<pdfrwt beam="1">  1        2 0.30246459E+00 0.10148958E+04</pdfrwt>
<pdfrwt beam="2">  1       -2 0.11229410E+00 0.10148958E+04</pdfrwt>
<totfact> 0.43490959E+00</totfact>
</mgrwt>
</event>
<event>
 4    5  0.2025789E-007  0.7423284E+03  0.7818608E-02  0.9853216E-01
          2   -1    0    0  501    0  0.00000000000E+00  0.00000000000E+00  0.25674253621E+04  0.25674253621E+04  0.25500000000E-02 0. -1.
         -2   -1    0    0    0  501 -0.00000000000E+00 -0.00000000000E+00 -0.24614589618E+03  0.24614589619E+03  0.25500000000E-02 0.  1.
    8880023    1    1    2    0    0 -0.31718891940E+03  0.12896656184E+03  0.23228241236E+04  0.24385576270E+04  0.65864270000E+03 0.  0.
    8880022    1    1    2    0    0  0.31718891940E+03 -0.12896656184E+03 -0.15446577139E+01  0.37501363128E+03  0.15294330000E+03 0.  0.
<mgrwt>
<rscale>  0 0.62583217E+03</rscale>
<asrwt>0</asrwt>
<pdfrwt beam="1">  1        2 0.39498849E+00 0.74232836E+03</pdfrwt>
<pdfrwt beam="2">  1       -2 0.37868602E-01 0.74232836E+03</pdfrwt>
<totfact> 0.21935658E+01</totfact>
</mgrwt>
</event>
<event>
 4    5  0.2025789E-007  0.7350576E+03  0.7818608E-02  0.9874585E-01
          2   -1    0    0  501    0  0.00000000000E+00  0.00000000000E+00  0.20175306046E+04  0.20175306046E+04  0.25500000000E-02 0. -1.
         -2   -1    0    0    0  501 -0.00000000000E+00 -0.00000000000E+00 -0.14952953178E+03  0.14952953180E+03  0.25500000000E-02 0.  1.
    8880023    1    1    2    0    0 -0.31146698434E+03  0.97405536134E+02  0.13274756359E+04  0.15173995159E+04  0.65864270000E+03 0. -1.
    8880022    1    1    2    0    0  0.31146698434E+03 -0.97405536134E+02  0.54052543694E+03  0.64966062048E+03  0.15294330000E+03 0.  1.
<mgrwt>
<rscale>  0 0.61508976E+03</rscale>
<asrwt>0</asrwt>
<pdfrwt beam="1">  1        2 0.31038932E+00 0.73505764E+03</pdfrwt>
<pdfrwt beam="2">  1       -2 0.23004544E-01 0.73505764E+03</pdfrwt>
<totfact> 0.11179144E+02</totfact>
</mgrwt>
</event>
<event>
 4    5  0.2025789E-007  0.1695401E+04  0.7818608E-02  0.8782716E-01
         -2   -1    0    0    0  501 -0.00000000000E+00  0.00000000000E+00  0.19036922319E+04  0.19036922319E+04  0.25500000000E-02 0.  1.
          2   -1    0    0  501    0  0.00000000000E+00 -0.00000000000E+00 -0.28138620165E+04  0.28138620165E+04  0.25500000000E-02 0. -1.
    8880023    1    1    2    0    0 -0.74606139706E+03 -0.13725772768E+04 -0.21351778161E+04  0.27264208226E+04  0.65864270000E+03 0.  0.
    8880022    1    1    2    0    0  0.74606139706E+03  0.13725772768E+04  0.12250080316E+04  0.19911334258E+04  0.15294330000E+03 0.  0.
<mgrwt>
<rscale>  0 0.16630634E+04</rscale>
<asrwt>0</asrwt>
<pdfrwt beam="1">  1        2 0.43290185E+00 0.16954015E+04</pdfrwt>
<pdfrwt beam="2">  1       -2 0.29287573E+00 0.16954015E+04</pdfrwt>
<totfact> 0.73011976E-02</totfact>
</mgrwt>
</event>
<event>
 4    5  0.2025789E-007  0.1158658E+04  0.7818608E-02  0.9198396E-01
          2   -1    0    0  501    0  0.00000000000E+00  0.00000000000E+00  0.32258996222E+04  0.32258996222E+04  0.25500000000E-02 0. -1.
         -2   -1    0    0    0  501 -0.00000000000E+00 -0.00000000000E+00 -0.38625296047E+03  0.38625296048E+03  0.25500000000E-02 0.  1.
    8880023    1    1    2    0    0 -0.94568807032E+03  0.11980084045E+03  0.98287088045E+03  0.15193826186E+04  0.65864270000E+03 0.  0.
    8880022    1    1    2    0    0  0.94568807032E+03 -0.11980084045E+03  0.18567757813E+04  0.20927699642E+04  0.15294330000E+03 0.  0.
<mgrwt>
<rscale>  0 0.11069997E+04</rscale>
<asrwt>0</asrwt>
<pdfrwt beam="1">  1        2 0.49629226E+00 0.11586580E+04</pdfrwt>
<pdfrwt beam="2">  1       -2 0.59423531E-01 0.11586580E+04</pdfrwt>
<totfact> 0.33166123E+00</totfact>
</mgrwt>
</event>
<event>
 4    5  0.2025789E-007  0.1137043E+04  0.7818608E-02  0.9220892E-01
          2   -1    0    0  501    0  0.00000000000E+00  0.00000000000E+00  0.20417116659E+04  0.20417116659E+04  0.25500000000E-02 0. -1.
         -2   -1    0    0    0  501 -0.00000000000E+00 -0.00000000000E+00 -0.12652685643E+04  0.12652685643E+04  0.25500000000E-02 0.  1.
    8880023    1    1    2    0    0 -0.29473298266E+03  0.87874269663E+03  0.16634938673E+04  0.20149636003E+04  0.65864270000E+03 0.  0.
    8880022    1    1    2    0    0  0.29473298266E+03 -0.87874269663E+03 -0.88705076565E+03  0.12920166298E+04  0.15294330000E+03 0.  0.
<mgrwt>
<rscale>  0 0.10840361E+04</rscale>
<asrwt>0</asrwt>
<pdfrwt beam="1">  1        2 0.31410948E+00 0.11370429E+04</pdfrwt>
<pdfrwt beam="2">  1       -2 0.19465670E+00 0.11370429E+04</pdfrwt>
<totfact> 0.89509540E-01</totfact>
</mgrwt>
</event>
<event>
 4    5  0.2025789E-007  0.1655071E+04  0.7818608E-02  0.8807249E-01
          2   -1    0    0  501    0  0.00000000000E+00  0.00000000000E+00  0.17358304409E+04  0.17358304409E+04  0.25500000000E-02 0. -1.
         -2   -1    0    0    0  501 -0.00000000000E+00 -0.00000000000E+00 -0.23919649421E+04  0.23919649421E+04  0.25500000000E-02 0.  1.
    8880023    1    1    2    0    0 -0.34646725554E+03  0.14783130394E+04  0.95322008429E+03  0.19099444330E+04  0.65864270000E+03 0.  0.
    8880022    1    1    2    0    0  0.34646725554E+03 -0.14783130394E+04 -0.16093545855E+04  0.22178509501E+04  0.15294330000E+03 0.  0.
<mgrwt>
<rscale>  0 0.16218284E+04</rscale>
<asrwt>0</asrwt>
<pdfrwt beam="1">  1        2 0.26705083E+00 0.16550708E+04</pdfrwt>
<pdfrwt beam="2">  1       -2 0.36799461E+00 0.16550708E+04</pdfrwt>
<totfact> 0.10344431E-01</totfact>
</mgrwt>
</event>
<event>
 4    5  0.2025789E-007  0.8576796E+03  0.7818608E-02  0.9597704E-01
         -2   -1    0    0    0  501 -0.00000000000E+00  0.00000000000E+00  0.62497058423E+03  0.62497058423E+03  0.25500000000E-02 0.  1.
          2   -1    0    0  501    0  0.00000000000E+00 -0.00000000000E+00 -0.10789462720E+04  0.10789462720E+04  0.25500000000E-02 0. -1.
    8880023    1    1    2    0    0  0.35111641516E+03  0.42251778606E+03 -0.67590099391E+03  0.10919965093E+04  0.65864270000E+03 0.  0.
    8880022    1    1    2    0    0 -0.35111641516E+03 -0.42251778606E+03  0.22192530610E+03  0.61192034696E+03  0.15294330000E+03 0.  0.
<mgrwt>
<rscale>  0 0.77448300E+03</rscale>
<asrwt>0</asrwt>
<pdfrwt beam="1">  1        2 0.16599173E+00 0.85767956E+03</pdfrwt>
<pdfrwt beam="2">  1       -2 0.96149321E-01 0.85767956E+03</pdfrwt>
<totfact> 0.20477082E+01</totfact>
</mgrwt>
</event>
<event>
 4    5  0.2025789E-007  0.9489569E+03  0.7818608E-02  0.9451616E-01
          2   -1    0    0  501    0  0.00000000000E+00  0.00000000000E+00  0.13467634742E+04  0.13467634742E+04  0.25500000000E-02 0. -1.
         -2   -1    0    0    0  501 -0.00000000000E+00 -0.00000000000E+00 -0.88860962247E+03  0.88860962248E+03  0.25500000000E-02 0.  1.
    8880023    1    1    2    0    0 -0.32496003814E+03 -0.60092432057E+03 -0.48108230062E+03  0.10639358306E+04  0.65864270000E+03 0.  0.
    8880022    1    1    2    0    0  0.32496003814E+03  0.60092432057E+03  0.93923615237E+03  0.11714372661E+04  0.15294330000E+03 0.  0.
<mgrwt>
<rscale>  0 0.87946902E+03</rscale>
<asrwt>0</asrwt>
<pdfrwt beam="1">  1        2 0.20719438E+00 0.94895694E+03</pdfrwt>
<pdfrwt beam="2">  1       -2 0.13670917E+00 0.94895694E+03</pdfrwt>
<totfact> 0.59187397E+00</totfact>
</mgrwt>
</event>
<event>
 4    5  0.2025789E-007  0.9783700E+03  0.7818608E-02  0.9410420E-01
         -2   -1    0    0    0  501 -0.00000000000E+00  0.00000000000E+00  0.12858807978E+04  0.12858807978E+04  0.25500000000E-02 0.  1.
          2   -1    0    0  501    0  0.00000000000E+00 -0.00000000000E+00 -0.74080623724E+03  0.74080623725E+03  0.25500000000E-02 0. -1.
    8880023    1    1    2    0    0  0.14983420118E+03  0.70777637309E+03 -0.17575157610E+03  0.99403043460E+03  0.65864270000E+03 0.  0.
    8880022    1    1    2    0    0 -0.14983420118E+03 -0.70777637309E+03  0.72082613668E+03  0.10326566005E+04  0.15294330000E+03 0.  0.
<mgrwt>
<rscale>  0 0.91223106E+03</rscale>
<asrwt>0</asrwt>
<pdfrwt beam="1">  1        2 0.11397019E+00 0.97837002E+03</pdfrwt>
<pdfrwt beam="2">  1       -2 0.19782782E+00 0.97837002E+03</pdfrwt>
<totfact> 0.52125042E+00</totfact>
</mgrwt>
</event>
<event>
 4    5  0.2025789E-007  0.9529954E+03  0.7818608E-02  0.9445817E-01
          2   -1    0    0  501    0  0.00000000000E+00  0.00000000000E+00  0.29673566949E+04  0.29673566949E+04  0.25500000000E-02 0. -1.
         -2   -1    0    0    0  501 -0.00000000000E+00 -0.00000000000E+00 -0.11177761313E+04  0.11177761313E+04  0.25500000000E-02 0.  1.
    8880023    1    1    2    0    0  0.68226976570E+03  0.94328907149E+02  0.27677341398E+04  0.29272089865E+04  0.65864270000E+03 0.  0.
    8880022    1    1    2    0    0 -0.68226976570E+03 -0.94328907149E+02 -0.91815357622E+03  0.11579238397E+04  0.15294330000E+03 0.  0.
<mgrwt>
<rscale>  0 0.88399122E+03</rscale>
<asrwt>0</asrwt>
<pdfrwt beam="1">  1        2 0.45651641E+00 0.95299537E+03</pdfrwt>
<pdfrwt beam="2">  1       -2 0.17196556E+00 0.95299537E+03</pdfrwt>
<totfact> 0.38599462E-01</totfact>
</mgrwt>
</event>
<event>
 4    5  0.2025789E-007  0.6929111E+03  0.7818608E-02  0.1002799E+00
         -2   -1    0    0    0  501 -0.00000000000E+00  0.00000000000E+00  0.55281176978E+03  0.55281176979E+03  0.25500000000E-02 0.  1.
          2   -1    0    0  501    0  0.00000000000E+00 -0.00000000000E+00 -0.89868415740E+03  0.89868415740E+03  0.25500000000E-02 0. -1.
    8880023    1    1    2    0    0 -0.21048493354E+03  0.44851036941E+02 -0.71630471557E+03  0.99660331857E+03  0.65864270000E+03 0. -1.
    8880022    1    1    2    0    0  0.21048493354E+03 -0.44851036941E+02  0.37043232796E+03  0.45489260862E+03  0.15294330000E+03 0.  0.
<mgrwt>
<rscale>  0 0.54439961E+03</rscale>
<asrwt>0</asrwt>
<pdfrwt beam="1">  1        2 0.13825910E+00 0.69291105E+03</pdfrwt>
<pdfrwt beam="2">  1       -2 0.85047964E-01 0.69291105E+03</pdfrwt>
<totfact> 0.36074340E+01</totfact>
</mgrwt>
</event>
<event>
 4    5  0.2025789E-007  0.7199388E+03  0.7818608E-02  0.9922793E-01
         -2   -1    0    0    0  501 -0.00000000000E+00  0.00000000000E+00  0.48067817223E+03  0.48067817224E+03  0.25500000000E-02 0.  1.
          2   -1    0    0  501    0  0.00000000000E+00 -0.00000000000E+00 -0.59819654817E+03  0.59819654818E+03  0.25500000000E-02 0. -1.
    8880023    1    1    2    0    0 -0.19293059481E+03 -0.21743824165E+03 -0.18547728415E+03  0.74344712828E+03  0.65864270000E+03 0.  0.
    8880022    1    1    2    0    0  0.19293059481E+03  0.21743824165E+03  0.67958908211E+02  0.33542759214E+03  0.15294330000E+03 0.  0.
<mgrwt>
<rscale>  0 0.59169235E+03</rscale>
<asrwt>0</asrwt>
<pdfrwt beam="1">  1        2 0.92030238E-01 0.71993875E+03</pdfrwt>
<pdfrwt beam="2">  1       -2 0.73950488E-01 0.71993875E+03</pdfrwt>
<totfact> 0.83123760E+01</totfact>
</mgrwt>
</event>
<event>
 4    5  0.2025789E-007  0.1759424E+04  0.7818608E-02  0.8745320E-01
          2   -1    0    0  501    0  0.00000000000E+00  0.00000000000E+00  0.37217167734E+04  0.37217167734E+04  0.25500000000E-02 0. -1.
         -2   -1    0    0    0  501 -0.00000000000E+00 -0.00000000000E+00 -0.13859766258E+04  0.13859766258E+04  0.25500000000E-02 0.  1.
    8880023    1    1    2    0    0 -0.16111904593E+04  0.25657056696E+03  0.28852339742E+04  0.33793710131E+04  0.65864270000E+03 0.  0.
    8880022    1    1    2    0    0  0.16111904593E+04 -0.25657056696E+03 -0.54949382654E+03  0.17283223861E+04  0.15294330000E+03 0.  0.
<mgrwt>
<rscale>  0 0.17284192E+04</rscale>
<asrwt>0</asrwt>
<pdfrwt beam="1">  1        2 0.57257180E+00 0.17594242E+04</pdfrwt>
<pdfrwt beam="2">  1       -2 0.21322718E+00 0.17594242E+04</pdfrwt>
<totfact> 0.56362847E-02</totfact>
</mgrwt>
</event>
<event>
 4    5  0.2025789E-007  0.8150681E+03  0.7818608E-02  0.9679115E-01
          2   -1    0    0  501    0  0.00000000000E+00  0.00000000000E+00  0.88142171096E+03  0.88142171097E+03  0.25500000000E-02 0. -1.
         -2   -1    0    0    0  501 -0.00000000000E+00 -0.00000000000E+00 -0.86765698443E+03  0.86765698444E+03  0.25500000000E-02 0.  1.
    8880023    1    1    2    0    0 -0.34363779939E+03  0.33531910825E+03  0.57298759012E+03  0.99631863689E+03  0.65864270000E+03 0.  0.
    8880022    1    1    2    0    0  0.34363779939E+03 -0.33531910825E+03 -0.55922286358E+03  0.75276005851E+03  0.15294330000E+03 0.  0.
<mgrwt>
<rscale>  0 0.72273986E+03</rscale>
<asrwt>0</asrwt>
<pdfrwt beam="1">  1        2 0.13560334E+00 0.81506812E+03</pdfrwt>
<pdfrwt beam="2">  1       -2 0.13348569E+00 0.81506812E+03</pdfrwt>
<totfact> 0.12369309E+01</totfact>
</mgrwt>
</event>
<event>
 4    5  0.2025789E-007  0.9200270E+03  0.7818608E-02  0.9494618E-01
         -2   -1    0    0    0  501 -0.00000000000E+00  0.00000000000E+00  0.12386552369E+04  0.12386552369E+04  0.25500000000E-02 0.  1.
          2   -1    0    0  501    0  0.00000000000E+00 -0.00000000000E+00 -0.34903318997E+04  0.34903318997E+04  0.25500000000E-02 0. -1.
    8880023    1    1    2    0    0  0.40003823289E+03  0.50260219445E+03 -0.33353859481E+04  0.34599493035E+04  0.65864270000E+03 0. -1.
    8880022    1    1    2    0    0 -0.40003823289E+03 -0.50260219445E+03  0.10837092853E+04  0.12690378331E+04  0.15294330000E+03 0.  0.
<mgrwt>
<rscale>  0 0.84681812E+03</rscale>
<asrwt>0</asrwt>
<pdfrwt beam="1">  1        2 0.53697413E+00 0.92002704E+03</pdfrwt>
<pdfrwt beam="2">  1       -2 0.19056235E+00 0.92002704E+03</pdfrwt>
<totfact> 0.13308634E-01</totfact>
</mgrwt>
</event>
<event>
 4    5  0.2025789E-007  0.8377296E+03  0.7818608E-02  0.9634476E-01
         -2   -1    0    0    0  501 -0.00000000000E+00  0.00000000000E+00  0.29979590751E+03  0.29979590752E+03  0.25500000000E-02 0.  1.
          2   -1    0    0  501    0  0.00000000000E+00 -0.00000000000E+00 -0.25416760775E+04  0.25416760775E+04  0.25500000000E-02 0. -1.
    8880023    1    1    2    0    0 -0.35466582072E+03  0.37708455623E+03 -0.21319080209E+04  0.22905943820E+04  0.65864270000E+03 0. -1.
    8880022    1    1    2    0    0  0.35466582072E+03 -0.37708455623E+03 -0.10997214906E+03  0.55087760302E+03  0.15294330000E+03 0.  0.
<mgrwt>
<rscale>  0 0.75055739E+03</rscale>
<asrwt>0</asrwt>
<pdfrwt beam="1">  1        2 0.39102707E+00 0.83772956E+03</pdfrwt>
<pdfrwt beam="2">  1       -2 0.46122449E-01 0.83772956E+03</pdfrwt>
<totfact> 0.15178350E+01</totfact>
</mgrwt>
</event>
<event>
 4    5  0.2025789E-007  0.1031989E+04  0.7818608E-02  0.9340854E-01
         -2   -1    0    0    0  501 -0.00000000000E+00  0.00000000000E+00  0.21823859562E+04  0.21823859562E+04  0.25500000000E-02 0.  1.
          2   -1    0    0  501    0  0.00000000000E+00 -0.00000000000E+00 -0.95982648983E+03  0.95982648983E+03  0.25500000000E-02 0. -1.
    8880023    1    1    2    0    0 -0.50363782347E+03  0.61444204201E+03 -0.56755158323E+03  0.11777585008E+04  0.65864270000E+03 0.  0.
    8880022    1    1    2    0    0  0.50363782347E+03 -0.61444204201E+03  0.17901110496E+04  0.19644539453E+04  0.15294330000E+03 0.  0.
<mgrwt>
<rscale>  0 0.97107245E+03</rscale>
<asrwt>0</asrwt>
<pdfrwt beam="1">  1        2 0.14766562E+00 0.10319885E+04</pdfrwt>
<pdfrwt beam="2">  1       -2 0.33575168E+00 0.10319885E+04</pdfrwt>
<totfact> 0.51361067E-01</totfact>
</mgrwt>
</event>
<event>
 4    5  0.2025789E-007  0.7110850E+03  0.7818608E-02  0.9953994E-01
          2   -1    0    0  501    0  0.00000000000E+00  0.00000000000E+00  0.19639771741E+04  0.19639771741E+04  0.25500000000E-02 0. -1.
         -2   -1    0    0    0  501 -0.00000000000E+00 -0.00000000000E+00 -0.85507427175E+03  0.85507427176E+03  0.25500000000E-02 0.  1.
    8880023    1    1    2    0    0 -0.10926284797E+03 -0.24473114492E+03  0.18684641280E+04  0.19991998667E+04  0.65864270000E+03 0. -1.
    8880022    1    1    2    0    0  0.10926284797E+03  0.24473114492E+03 -0.75956122566E+03  0.81985157912E+03  0.15294330000E+03 0.  0.
<mgrwt>
<rscale>  0 0.57714387E+03</rscale>
<asrwt>0</asrwt>
<pdfrwt beam="1">  1        2 0.30215034E+00 0.71108502E+03</pdfrwt>
<pdfrwt beam="2">  1       -2 0.13154989E+00 0.71108502E+03</pdfrwt>
<totfact> 0.30760688E+00</totfact>
</mgrwt>
</event>
<event>
 4    5  0.2025789E-007  0.1166825E+04  0.7818608E-02  0.9190065E-01
          2   -1    0    0  501    0  0.00000000000E+00  0.00000000000E+00  0.16545650164E+04  0.16545650164E+04  0.25500000000E-02 0. -1.
         -2   -1    0    0    0  501 -0.00000000000E+00 -0.00000000000E+00 -0.93105006694E+03  0.93105006695E+03  0.25500000000E-02 0.  1.
    8880023    1    1    2    0    0  0.57280909310E+03 -0.77431296774E+03  0.10372092201E+04  0.15611803233E+04  0.65864270000E+03 0.  0.
    8880022    1    1    2    0    0 -0.57280909310E+03  0.77431296774E+03 -0.31369427070E+03  0.10244347601E+04  0.15294330000E+03 0.  0.
<mgrwt>
<rscale>  0 0.11156564E+04</rscale>
<asrwt>0</asrwt>
<pdfrwt beam="1">  1        2 0.25454846E+00 0.11668252E+04</pdfrwt>
<pdfrwt beam="2">  1       -2 0.14323847E+00 0.11668252E+04</pdfrwt>
<totfact> 0.34326542E+00</totfact>
</mgrwt>
</event>
<event>
 4    5  0.2025789E-007  0.8488869E+03  0.7818608E-02  0.9613646E-01
         -2   -1    0    0    0  501 -0.00000000000E+00  0.00000000000E+00  0.11173865655E+04  0.11173865655E+04  0.25500000000E-02 0.  1.
          2   -1    0    0  501    0  0.00000000000E+00 -0.00000000000E+00 -0.14020030257E+04  0.14020030257E+04  0.25500000000E-02 0. -1.
    8880023    1    1    2    0    0 -0.52914179563E+03  0.82508417316E+02 -0.11867982581E+04  0.14591432385E+04  0.65864270000E+03 0. -1.
    8880022    1    1    2    0    0  0.52914179563E+03 -0.82508417316E+02  0.90218179793E+03  0.10602463527E+04  0.15294330000E+03 0.  0.
<mgrwt>
<rscale>  0 0.76399565E+03</rscale>
<asrwt>0</asrwt>
<pdfrwt beam="1">  1        2 0.21569277E+00 0.84888685E+03</pdfrwt>
<pdfrwt beam="2">  1       -2 0.17190563E+00 0.84888685E+03</pdfrwt>
<totfact> 0.30162243E+00</totfact>
</mgrwt>
</event>
<event>
 4    5  0.2025789E-007  0.7947601E+03  0.7818608E-02  0.9722242E-01
          2   -1    0    0  501    0  0.00000000000E+00  0.00000000000E+00  0.24201044146E+04  0.24201044146E+04  0.25500000000E-02 0. -1.
         -2   -1    0    0    0  501 -0.00000000000E+00 -0.00000000000E+00 -0.18539076267E+03  0.18539076268E+03  0.25500000000E-02 0.  1.
    8880023    1    1    2    0    0  0.43691527512E+03 -0.83297350043E+02  0.17886358517E+04  0.19572587520E+04  0.65864270000E+03 0.  0.
    8880022    1    1    2    0    0 -0.43691527512E+03  0.83297350043E+02  0.44607780025E+03  0.64823642527E+03  0.15294330000E+03 0.  0.
<mgrwt>
<rscale>  0 0.69707793E+03</rscale>
<asrwt>0</asrwt>
<pdfrwt beam="1">  1        2 0.37232374E+00 0.79476010E+03</pdfrwt>
<pdfrwt beam="2">  1       -2 0.28521657E-01 0.79476010E+03</pdfrwt>
<totfact> 0.45045473E+01</totfact>
</mgrwt>
</event>
<event>
 4    5  0.2025789E-007  0.6679160E+03  0.7818608E-02  0.1017203E+00
         -2   -1    0    0    0  501 -0.00000000000E+00  0.00000000000E+00  0.50114390154E+03  0.50114390154E+03  0.25500000000E-02 0.  1.
          2   -1    0    0  501    0  0.00000000000E+00 -0.00000000000E+00 -0.15428101009E+04  0.15428101009E+04  0.25500000000E-02 0. -1.
    8880023    1    1    2    0    0 -0.45072364802E+02 -0.10134113865E+03 -0.14486752592E+04  0.15952340761E+04  0.65864270000E+03 0. -1.
    8880022    1    1    2    0    0  0.45072364802E+02  0.10134113865E+03  0.40700905990E+03  0.44871992636E+03  0.15294330000E+03 0.  0.
<mgrwt>
<rscale>  0 0.48709599E+03</rscale>
<asrwt>0</asrwt>
<pdfrwt beam="1">  1        2 0.23735540E+00 0.66791598E+03</pdfrwt>
<pdfrwt beam="2">  1       -2 0.77099063E-01 0.66791598E+03</pdfrwt>
<totfact> 0.18681750E+01</totfact>
</mgrwt>
</event>
<event>
 4    5  0.2025789E-007  0.1658222E+04  0.7818608E-02  0.8805304E-01
          2   -1    0    0  501    0  0.00000000000E+00  0.00000000000E+00  0.27756594895E+04  0.27756594895E+04  0.25500000000E-02 0. -1.
         -2   -1    0    0    0  501 -0.00000000000E+00 -0.00000000000E+00 -0.12772645223E+04  0.12772645223E+04  0.25500000000E-02 0.  1.
    8880023    1    1    2    0    0  0.14656558744E+04 -0.40956226558E+03  0.18491409505E+04  0.24837513669E+04  0.65864270000E+03 0. -1.
    8880022    1    1    2    0    0 -0.14656558744E+04  0.40956226558E+03 -0.35074598326E+03  0.15691726449E+04  0.15294330000E+03 0.  0.
<mgrwt>
<rscale>  0 0.16250517E+04</rscale>
<asrwt>0</asrwt>
<pdfrwt beam="1">  1        2 0.42702453E+00 0.16582215E+04</pdfrwt>
<pdfrwt beam="2">  1       -2 0.19650224E+00 0.16582215E+04</pdfrwt>
<totfact> 0.31028170E-01</totfact>
</mgrwt>
</event>
<event>
 4    5  0.2025789E-007  0.9295363E+03  0.7818608E-02  0.9480189E-01
         -2   -1    0    0    0  501 -0.00000000000E+00  0.00000000000E+00  0.13615231556E+04  0.13615231556E+04  0.25500000000E-02 0.  1.
          2   -1    0    0  501    0  0.00000000000E+00 -0.00000000000E+00 -0.13554611018E+04  0.13554611018E+04  0.25500000000E-02 0. -1.
    8880023    1    1    2    0    0 -0.62017180133E+03  0.21357548044E+03 -0.10887591044E+04  0.14315844867E+04  0.65864270000E+03 0. -1.
    8880022    1    1    2    0    0  0.62017180133E+03 -0.21357548044E+03  0.10948211582E+04  0.12853997706E+04  0.15294330000E+03 0.  0.
<mgrwt>
<rscale>  0 0.85760282E+03</rscale>
<asrwt>0</asrwt>
<pdfrwt beam="1">  1        2 0.20853248E+00 0.92953631E+03</pdfrwt>
<pdfrwt beam="2">  1       -2 0.20946510E+00 0.92953631E+03</pdfrwt>
<totfact> 0.17767542E+00</totfact>
</mgrwt>
</event>
<event>
 4    5  0.2025789E-007  0.8040977E+03  0.7818608E-02  0.9702005E-01
          2   -1    0    0  501    0  0.00000000000E+00  0.00000000000E+00  0.17105874483E+04  0.17105874483E+04  0.25500000000E-02 0. -1.
         -2   -1    0    0    0  501 -0.00000000000E+00 -0.00000000000E+00 -0.43092673589E+03  0.43092673590E+03  0.25500000000E-02 0.  1.
    8880023    1    1    2    0    0  0.25511388589E+03  0.38429133912E+03  0.14233334166E+04  0.16347633312E+04  0.65864270000E+03 0.  0.
    8880022    1    1    2    0    0 -0.25511388589E+03 -0.38429133912E+03 -0.14367270414E+03  0.50675085301E+03  0.15294330000E+03 0.  0.
<mgrwt>
<rscale>  0 0.70897540E+03</rscale>
<asrwt>0</asrwt>
<pdfrwt beam="1">  1        2 0.26316730E+00 0.80409771E+03</pdfrwt>
<pdfrwt beam="2">  1       -2 0.66296421E-01 0.80409771E+03</pdfrwt>
<totfact> 0.20666078E+01</totfact>
</mgrwt>
</event>
<event>
 4    5  0.2025789E-007  0.1167658E+04  0.7818608E-02  0.9189220E-01
          2   -1    0    0  501    0  0.00000000000E+00  0.00000000000E+00  0.10239231260E+04  0.10239231260E+04  0.25500000000E-02 0. -1.
         -2   -1    0    0    0  501 -0.00000000000E+00 -0.00000000000E+00 -0.13390961622E+04  0.13390961622E+04  0.25500000000E-02 0.  1.
    8880023    1    1    2    0    0 -0.96358456514E+03 -0.33469700557E+02  0.30452875109E+03  0.12067159573E+04  0.65864270000E+03 0.  0.
    8880022    1    1    2    0    0  0.96358456514E+03  0.33469700557E+02 -0.61970178721E+03  0.11563033309E+04  0.15294330000E+03 0.  0.
<mgrwt>
<rscale>  0 0.11165388E+04</rscale>
<asrwt>0</asrwt>
<pdfrwt beam="1">  1        2 0.15752663E+00 0.11676582E+04</pdfrwt>
<pdfrwt beam="2">  1       -2 0.20601480E+00 0.11676582E+04</pdfrwt>
<totfact> 0.28817529E+00</totfact>
</mgrwt>
</event>
<event>
 4    5  0.2025789E-007  0.1955417E+04  0.7818608E-02  0.8641112E-01
          2   -1    0    0  501    0  0.00000000000E+00  0.00000000000E+00  0.40940272475E+04  0.40940272475E+04  0.25500000000E-02 0. -1.
         -2   -1    0    0    0  501 -0.00000000000E+00 -0.00000000000E+00 -0.14785447367E+04  0.14785447367E+04  0.25500000000E-02 0.  1.
    8880023    1    1    2    0    0  0.18293684706E+04 -0.20797720145E+03  0.30976385645E+04  0.36631978380E+04  0.65864270000E+03 0.  0.
    8880022    1    1    2    0    0 -0.18293684706E+04  0.20797720145E+03 -0.48215605369E+03  0.19093741463E+04  0.15294330000E+03 0.  0.
<mgrwt>
<rscale>  0 0.19278589E+04</rscale>
<asrwt>0</asrwt>
<pdfrwt beam="1">  1        2 0.62985034E+00 0.19554165E+04</pdfrwt>
<pdfrwt beam="2">  1       -2 0.22746842E+00 0.19554165E+04</pdfrwt>
<totfact> 0.22800442E-02</totfact>
</mgrwt>
</event>
<event>
 4    5  0.2025789E-007  0.6996183E+03  0.7818608E-02  0.9998788E-01
          2   -1    0    0  501    0  0.00000000000E+00  0.00000000000E+00  0.14286523267E+04  0.14286523267E+04  0.25500000000E-02 0. -1.
         -2   -1    0    0    0  501 -0.00000000000E+00 -0.00000000000E+00 -0.28564311656E+03  0.28564311657E+03  0.25500000000E-02 0.  1.
    8880023    1    1    2    0    0 -0.21759111224E+03 -0.91157017747E+02  0.12342180592E+04  0.14187177020E+04  0.65864270000E+03 0. -1.
    8880022    1    1    2    0    0  0.21759111224E+03  0.91157017747E+02 -0.91208849021E+02  0.29557774132E+03  0.15294330000E+03 0.  0.
<mgrwt>
<rscale>  0 0.55703390E+03</rscale>
<asrwt>0</asrwt>
<pdfrwt beam="1">  1        2 0.21979267E+00 0.69961825E+03</pdfrwt>
<pdfrwt beam="2">  1       -2 0.43945094E-01 0.69961825E+03</pdfrwt>
<totfact> 0.70097348E+01</totfact>
</mgrwt>
</event>
<event>
 4    5  0.2025789E-007  0.1252349E+04  0.7818608E-02  0.9107842E-01
          2   -1    0    0  501    0  0.00000000000E+00  0.00000000000E+00  0.15438273803E+04  0.15438273803E+04  0.25500000000E-02 0. -1.
         -2   -1    0    0    0  501 -0.00000000000E+00 -0.00000000000E+00 -0.15136266898E+04  0.15136266898E+04  0.25500000000E-02 0.  1.
    8880023    1    1    2    0    0  0.22356150670E+03 -0.10414354129E+04  0.10048086770E+04  0.16056207990E+04  0.65864270000E+03 0.  0.
    8880022    1    1    2    0    0 -0.22356150670E+03  0.10414354129E+04 -0.97460798652E+03  0.14518332711E+04  0.15294330000E+03 0.  0.
<mgrwt>
<rscale>  0 0.12057455E+04</rscale>
<asrwt>0</asrwt>
<pdfrwt beam="1">  1        2 0.23751190E+00 0.12523489E+04</pdfrwt>
<pdfrwt beam="2">  1       -2 0.23286564E+00 0.12523489E+04</pdfrwt>
<totfact> 0.94920039E-01</totfact>
</mgrwt>
</event>
<event>
 4    5  0.2378853E-007  0.8164440E+03  0.7818608E-02  0.9676307E-01
         -2   -1    0    0    0  501 -0.00000000000E+00  0.00000000000E+00  0.18617481964E+04  0.18617481964E+04  0.25500000000E-02 0.  1.
          2   -1    0    0  501    0  0.00000000000E+00 -0.00000000000E+00 -0.13042377529E+04  0.13042377529E+04  0.25500000000E-02 0. -1.
    8880023    1    1    2    0    0 -0.45645614625E+03 -0.15626389739E+03 -0.11357213003E+04  0.13987293153E+04  0.65864270000E+03 0. -1.
    8880022    1    1    2    0    0  0.45645614625E+03  0.15626389739E+03  0.16932317438E+04  0.17672566340E+04  0.15294330000E+03 0.  0.
<mgrwt>
<rscale>  0 0.72445131E+03</rscale>
<asrwt>0</asrwt>
<pdfrwt beam="1">  1        2 0.20065196E+00 0.81644401E+03</pdfrwt>
<pdfrwt beam="2">  1       -2 0.28642280E+00 0.81644401E+03</pdfrwt>
<totfact> 0.65394543E-01</totfact>
</mgrwt>
</event>
<event>
 4    5  0.2025789E-007  0.1248498E+04  0.7818608E-02  0.9111363E-01
         -2   -1    0    0    0  501 -0.00000000000E+00  0.00000000000E+00  0.95924087642E+03  0.95924087642E+03  0.25500000000E-02 0.  1.
          2   -1    0    0  501    0  0.00000000000E+00 -0.00000000000E+00 -0.26336274411E+04  0.26336274411E+04  0.25500000000E-02 0. -1.
    8880023    1    1    2    0    0 -0.75194709110E+03 -0.74800499677E+03 -0.20973428716E+04  0.24408181477E+04  0.65864270000E+03 0.  0.
    8880022    1    1    2    0    0  0.75194709110E+03  0.74800499677E+03  0.42295630696E+03  0.11520501698E+04  0.15294330000E+03 0.  0.
<mgrwt>
<rscale>  0 0.12017081E+04</rscale>
<asrwt>0</asrwt>
<pdfrwt beam="1">  1        2 0.40517345E+00 0.12484975E+04</pdfrwt>
<pdfrwt beam="2">  1       -2 0.14757552E+00 0.12484975E+04</pdfrwt>
<totfact> 0.88538909E-01</totfact>
</mgrwt>
</event>
<event>
 4    5  0.2025789E-007  0.7194964E+03  0.7818608E-02  0.9924294E-01
         -2   -1    0    0    0  501 -0.00000000000E+00  0.00000000000E+00  0.64967134760E+03  0.64967134761E+03  0.25500000000E-02 0.  1.
          2   -1    0    0  501    0  0.00000000000E+00 -0.00000000000E+00 -0.95203940260E+03  0.95203940260E+03  0.25500000000E-02 0. -1.
    8880023    1    1    2    0    0  0.22994682051E+03  0.17603769287E+03 -0.75506146820E+03  0.10429730757E+04  0.65864270000E+03 0.  0.
    8880022    1    1    2    0    0 -0.22994682051E+03 -0.17603769287E+03  0.45269341320E+03  0.55873767453E+03  0.15294330000E+03 0.  0.
<mgrwt>
<rscale>  0 0.59098218E+03</rscale>
<asrwt>0</asrwt>
<pdfrwt beam="1">  1        2 0.14646760E+00 0.71949636E+03</pdfrwt>
<pdfrwt beam="2">  1       -2 0.99949438E-01 0.71949636E+03</pdfrwt>
<totfact> 0.22809802E+01</totfact>
</mgrwt>
</event>
<event>
 4    5  0.2025789E-007  0.1018877E+04  0.7818608E-02  0.9357267E-01
          2   -1    0    0  501    0  0.00000000000E+00  0.00000000000E+00  0.38139914348E+04  0.38139914348E+04  0.25500000000E-02 0. -1.
         -2   -1    0    0    0  501 -0.00000000000E+00 -0.00000000000E+00 -0.37209012149E+03  0.37209012150E+03  0.25500000000E-02 0.  1.
    8880023    1    1    2    0    0  0.51504875642E+03  0.58225843426E+03  0.31991141591E+04  0.33574457128E+04  0.65864270000E+03 0.  0.
    8880022    1    1    2    0    0 -0.51504875642E+03 -0.58225843426E+03  0.24278715423E+03  0.82863584344E+03  0.15294330000E+03 0.  0.
<mgrwt>
<rscale>  0 0.95677456E+03</rscale>
<asrwt>0</asrwt>
<pdfrwt beam="1">  1        2 0.58676792E+00 0.10188770E+04</pdfrwt>
<pdfrwt beam="2">  1       -2 0.57244633E-01 0.10188770E+04</pdfrwt>
<totfact> 0.14307045E+00</totfact>
</mgrwt>
</event>
<event>
 4    5  0.2025789E-007  0.1416381E+04  0.7818608E-02  0.8971058E-01
         -2   -1    0    0    0  501 -0.00000000000E+00  0.00000000000E+00  0.11367611884E+04  0.11367611884E+04  0.25500000000E-02 0.  1.
          2   -1    0    0  501    0  0.00000000000E+00 -0.00000000000E+00 -0.21189804595E+04  0.21189804595E+04  0.25500000000E-02 0. -1.
    8880023    1    1    2    0    0 -0.49759061164E+02 -0.12529359059E+04 -0.13327123704E+04  0.19448025136E+04  0.65864270000E+03 0.  0.
    8880022    1    1    2    0    0  0.49759061164E+02  0.12529359059E+04  0.35049309921E+03  0.13109391343E+04  0.15294330000E+03 0.  0.
<mgrwt>
<rscale>  0 0.13764311E+04</rscale>
<asrwt>0</asrwt>
<pdfrwt beam="1">  1        2 0.32599699E+00 0.14163808E+04</pdfrwt>
<pdfrwt beam="2">  1       -2 0.17488634E+00 0.14163808E+04</pdfrwt>
<totfact> 0.10714565E+00</totfact>
</mgrwt>
</event>
<event>
 4    5  0.2025789E-007  0.2689304E+04  0.7818608E-02  0.8344892E-01
         -2   -1    0    0    0  501 -0.00000000000E+00  0.00000000000E+00  0.32625956049E+04  0.32625956049E+04  0.25500000000E-02 0.  1.
          2   -1    0    0  501    0  0.00000000000E+00 -0.00000000000E+00 -0.30731782148E+04  0.30731782148E+04  0.25500000000E-02 0. -1.
    8880023    1    1    2    0    0  0.29377952934E+03  0.25907991302E+04 -0.16372746427E+04  0.31484956736E+04  0.65864270000E+03 0.  0.
    8880022    1    1    2    0    0 -0.29377952934E+03 -0.25907991302E+04  0.18266920328E+04  0.31872781461E+04  0.15294330000E+03 0.  0.
<mgrwt>
<rscale>  0 0.26697366E+04</rscale>
<asrwt>0</asrwt>
<pdfrwt beam="1">  1        2 0.47279665E+00 0.26893041E+04</pdfrwt>
<pdfrwt beam="2">  1       -2 0.50193778E+00 0.26893041E+04</pdfrwt>
<totfact> 0.20325560E-03</totfact>
</mgrwt>
</event>
<event>
 4    5  0.2025789E-007  0.1142657E+04  0.7818608E-02  0.9214986E-01
         -2   -1    0    0    0  501 -0.00000000000E+00  0.00000000000E+00  0.65223693101E+03  0.65223693101E+03  0.25500000000E-02 0.  1.
          2   -1    0    0  501    0  0.00000000000E+00 -0.00000000000E+00 -0.21593251533E+04  0.21593251533E+04  0.25500000000E-02 0. -1.
    8880023    1    1    2    0    0  0.85800582479E+03 -0.36834879024E+03 -0.14317717990E+03  0.11515922619E+04  0.65864270000E+03 0.  0.
    8880022    1    1    2    0    0 -0.85800582479E+03  0.36834879024E+03 -0.13639110424E+04  0.16599698224E+04  0.15294330000E+03 0.  0.
<mgrwt>
<rscale>  0 0.10900081E+04</rscale>
<asrwt>0</asrwt>
<pdfrwt beam="1">  1        2 0.33220387E+00 0.11426570E+04</pdfrwt>
<pdfrwt beam="2">  1       -2 0.10034414E+00 0.11426570E+04</pdfrwt>
<totfact> 0.43970912E+00</totfact>
</mgrwt>
</event>
<event>
 4    5  0.2025789E-007  0.7898884E+03  0.7818608E-02  0.9733102E-01
         -2   -1    0    0    0  501 -0.00000000000E+00  0.00000000000E+00  0.40252296896E+03  0.40252296897E+03  0.25500000000E-02 0.  1.
          2   -1    0    0  501    0  0.00000000000E+00 -0.00000000000E+00 -0.10350666474E+04  0.10350666474E+04  0.25500000000E-02 0. -1.
    8880023    1    1    2    0    0 -0.42868938450E+03 -0.79616710598E+02 -0.56374726007E+03  0.97043010490E+03  0.65864270000E+03 0.  0.
    8880022    1    1    2    0    0  0.42868938450E+03  0.79616710598E+02 -0.68796418391E+02  0.46715951150E+03  0.15294330000E+03 0.  0.
<mgrwt>
<rscale>  0 0.69079678E+03</rscale>
<asrwt>0</asrwt>
<pdfrwt beam="1">  1        2 0.15924102E+00 0.78988836E+03</pdfrwt>
<pdfrwt beam="2">  1       -2 0.61926611E-01 0.78988836E+03</pdfrwt>
<totfact> 0.58638530E+01</totfact>
</mgrwt>
</event>
<event>
 4    5  0.2025789E-007  0.6626453E+03  0.7818608E-02  0.1021596E+00
          2   -1    0    0  501    0  0.00000000000E+00  0.00000000000E+00  0.88040259682E+03  0.88040259683E+03  0.25500000000E-02 0. -1.
         -2   -1    0    0    0  501 -0.00000000000E+00 -0.00000000000E+00 -0.24634025741E+03  0.24634025743E+03  0.25500000000E-02 0.  1.
    8880023    1    1    2    0    0  0.48722050062E+02 -0.53987992057E+02  0.68182841427E+03  0.95078322147E+03  0.65864270000E+03 0. -1.
    8880022    1    1    2    0    0 -0.48722050062E+02  0.53987992057E+02 -0.47766074861E+02  0.17595963279E+03  0.15294330000E+03 0.  0.
<mgrwt>
<rscale>  0 0.47114934E+03</rscale>
<asrwt>0</asrwt>
<pdfrwt beam="1">  1        2 0.13544655E+00 0.66264527E+03</pdfrwt>
<pdfrwt beam="2">  1       -2 0.37898501E-01 0.66264527E+03</pdfrwt>
<totfact> 0.20162522E+02</totfact>
</mgrwt>
</event>
<event>
 4    5  0.2025789E-007  0.6663429E+03  0.7818608E-02  0.1018432E+00
          2   -1    0    0  501    0  0.00000000000E+00  0.00000000000E+00  0.90983522065E+03  0.90983522065E+03  0.25500000000E-02 0. -1.
         -2   -1    0    0    0  501 -0.00000000000E+00 -0.00000000000E+00 -0.61749417916E+03  0.61749417916E+03  0.25500000000E-02 0.  1.
    8880023    1    1    2    0    0  0.20867429128E+02  0.98829033071E+02  0.76847440133E+03  0.10171360475E+04  0.65864270000E+03 0. -1.
    8880022    1    1    2    0    0 -0.20867429128E+02 -0.98829033071E+02 -0.47613335984E+03  0.51019335231E+03  0.15294330000E+03 0.  0.
<mgrwt>
<rscale>  0 0.48256574E+03</rscale>
<asrwt>0</asrwt>
<pdfrwt beam="1">  1        2 0.13997465E+00 0.66634288E+03</pdfrwt>
<pdfrwt beam="2">  1       -2 0.94999104E-01 0.66634288E+03</pdfrwt>
<totfact> 0.27555869E+01</totfact>
</mgrwt>
</event>
<event>
 4    5  0.2025789E-007  0.7843346E+03  0.7818608E-02  0.9745752E-01
         -2   -1    0    0    0  501 -0.00000000000E+00  0.00000000000E+00  0.18748246599E+03  0.18748246601E+03  0.25500000000E-02 0.  1.
          2   -1    0    0  501    0  0.00000000000E+00 -0.00000000000E+00 -0.23590987002E+04  0.23590987002E+04  0.25500000000E-02 0. -1.
    8880023    1    1    2    0    0 -0.31815892384E+03  0.28309985408E+03 -0.88413796152E+03  0.11818971061E+04  0.65864270000E+03 0.  1.
    8880022    1    1    2    0    0  0.31815892384E+03 -0.28309985408E+03 -0.12874782727E+04  0.13646840601E+04  0.15294330000E+03 0.  0.
<mgrwt>
<rscale>  0 0.68356890E+03</rscale>
<asrwt>0</asrwt>
<pdfrwt beam="1">  1        2 0.36293824E+00 0.78433464E+03</pdfrwt>
<pdfrwt beam="2">  1       -2 0.28843458E-01 0.78433464E+03</pdfrwt>
<totfact> 0.47803376E+01</totfact>
</mgrwt>
</event>
<event>
 4    5  0.2025789E-007  0.7080082E+03  0.7818608E-02  0.9965473E-01
          2   -1    0    0  501    0  0.00000000000E+00  0.00000000000E+00  0.29534274775E+04  0.29534274775E+04  0.25500000000E-02 0. -1.
         -2   -1    0    0    0  501 -0.00000000000E+00 -0.00000000000E+00 -0.28389831111E+03  0.28389831112E+03  0.25500000000E-02 0.  1.
    8880023    1    1    2    0    0 -0.18777698880E+03 -0.17945812662E+03  0.28149731921E+04  0.29026452927E+04  0.65864270000E+03 0. -1.
    8880022    1    1    2    0    0  0.18777698880E+03  0.17945812662E+03 -0.14544402569E+03  0.33468049593E+03  0.15294330000E+03 0.  0.
<mgrwt>
<rscale>  0 0.57190456E+03</rscale>
<asrwt>0</asrwt>
<pdfrwt beam="1">  1        2 0.45437344E+00 0.70800821E+03</pdfrwt>
<pdfrwt beam="2">  1       -2 0.43676665E-01 0.70800821E+03</pdfrwt>
<totfact> 0.99033093E+00</totfact>
</mgrwt>
</event>
<event>
 4    5  0.2025789E-007  0.1097152E+04  0.7818608E-02  0.9264234E-01
          2   -1    0    0  501    0  0.00000000000E+00  0.00000000000E+00  0.27241130678E+04  0.27241130678E+04  0.25500000000E-02 0. -1.
         -2   -1    0    0    0  501 -0.00000000000E+00 -0.00000000000E+00 -0.64701643768E+03  0.64701643769E+03  0.25500000000E-02 0.  1.
    8880023    1    1    2    0    0  0.49695951096E+03 -0.72316213208E+03  0.22130867486E+04  0.24701205209E+04  0.65864270000E+03 0.  0.
    8880022    1    1    2    0    0 -0.49695951096E+03  0.72316213208E+03 -0.13599011853E+03  0.90100898451E+03  0.15294330000E+03 0.  0.
<mgrwt>
<rscale>  0 0.10414332E+04</rscale>
<asrwt>0</asrwt>
<pdfrwt beam="1">  1        2 0.41909432E+00 0.10971520E+04</pdfrwt>
<pdfrwt beam="2">  1       -2 0.99540989E-01 0.10971520E+04</pdfrwt>
<totfact> 0.21439028E+00</totfact>
</mgrwt>
</event>
<event>
 4    5  0.2025789E-007  0.8615732E+03  0.7818608E-02  0.9590771E-01
          2   -1    0    0  501    0  0.00000000000E+00  0.00000000000E+00  0.11649033136E+04  0.11649033136E+04  0.25500000000E-02 0. -1.
         -2   -1    0    0    0  501 -0.00000000000E+00 -0.00000000000E+00 -0.90788756318E+03  0.90788756318E+03  0.25500000000E-02 0.  1.
    8880023    1    1    2    0    0  0.55483070827E+03 -0.25710196462E+02  0.87496400063E+03  0.12279537197E+04  0.65864270000E+03 0. -1.
    8880022    1    1    2    0    0 -0.55483070827E+03  0.25710196462E+02 -0.61794825021E+03  0.84483715709E+03  0.15294330000E+03 0.  0.
<mgrwt>
<rscale>  0 0.77910028E+03</rscale>
<asrwt>0</asrwt>
<pdfrwt beam="1">  1        2 0.17921589E+00 0.86157317E+03</pdfrwt>
<pdfrwt beam="2">  1       -2 0.13967501E+00 0.86157317E+03</pdfrwt>
<totfact> 0.72296255E+00</totfact>
</mgrwt>
</event>
<event>
 4    5  0.2025789E-007  0.1299047E+04  0.7818608E-02  0.9066383E-01
         -2   -1    0    0    0  501 -0.00000000000E+00  0.00000000000E+00  0.24881249271E+04  0.24881249271E+04  0.25500000000E-02 0.  1.
          2   -1    0    0  501    0  0.00000000000E+00 -0.00000000000E+00 -0.87375843362E+03  0.87375843362E+03  0.25500000000E-02 0. -1.
    8880023    1    1    2    0    0 -0.11121020792E+04  0.13016361372E+03 -0.10619399345E+03  0.13033805934E+04  0.65864270000E+03 0.  0.
    8880022    1    1    2    0    0  0.11121020792E+04 -0.13016361372E+03  0.17205604869E+04  0.20585027673E+04  0.15294330000E+03 0.  0.
<mgrwt>
<rscale>  0 0.12545762E+04</rscale>
<asrwt>0</asrwt>
<pdfrwt beam="1">  1        2 0.13442438E+00 0.12990473E+04</pdfrwt>
<pdfrwt beam="2">  1       -2 0.38278845E+00 0.12990473E+04</pdfrwt>
<totfact> 0.28594828E-01</totfact>
</mgrwt>
</event>
<event>
 4    5  0.2025789E-007  0.7682750E+03  0.7818608E-02  0.9784137E-01
         -2   -1    0    0    0  501 -0.00000000000E+00  0.00000000000E+00  0.61438375902E+03  0.61438375903E+03  0.25500000000E-02 0.  1.
          2   -1    0    0  501    0  0.00000000000E+00 -0.00000000000E+00 -0.15386200137E+04  0.15386200137E+04  0.25500000000E-02 0. -1.
    8880023    1    1    2    0    0  0.23495923712E+03 -0.31816728705E+03 -0.13492288983E+04  0.15526316665E+04  0.65864270000E+03 0. -1.
    8880022    1    1    2    0    0 -0.23495923712E+03  0.31816728705E+03  0.42499264366E+03  0.60037210615E+03  0.15294330000E+03 0.  0.
<mgrwt>
<rscale>  0 0.66220837E+03</rscale>
<asrwt>0</asrwt>
<pdfrwt beam="1">  1        2 0.23671077E+00 0.76827500E+03</pdfrwt>
<pdfrwt beam="2">  1       -2 0.94520579E-01 0.76827500E+03</pdfrwt>
<totfact> 0.11645199E+01</totfact>
</mgrwt>
</event>
<event>
 4    5  0.2025789E-007  0.8133031E+03  0.7818608E-02  0.9682737E-01
         -2   -1    0    0    0  501 -0.00000000000E+00  0.00000000000E+00  0.11221093591E+04  0.11221093591E+04  0.25500000000E-02 0.  1.
          2   -1    0    0  501    0  0.00000000000E+00 -0.00000000000E+00 -0.15752712517E+04  0.15752712517E+04  0.25500000000E-02 0. -1.
    8880023    1    1    2    0    0 -0.32620092863E+03 -0.34820202694E+03 -0.14040314098E+04  0.16225800761E+04  0.65864270000E+03 0. -1.
    8880022    1    1    2    0    0  0.32620092863E+03  0.34820202694E+03  0.95086951723E+03  0.10748005346E+04  0.15294330000E+03 0.  0.
<mgrwt>
<rscale>  0 0.72053968E+03</rscale>
<asrwt>0</asrwt>
<pdfrwt beam="1">  1        2 0.24234942E+00 0.81330308E+03</pdfrwt>
<pdfrwt beam="2">  1       -2 0.17263221E+00 0.81330308E+03</pdfrwt>
<totfact> 0.23967778E+00</totfact>
</mgrwt>
</event>
<event>
 4    5  0.2025789E-007  0.8225880E+03  0.7818608E-02  0.9663930E-01
          2   -1    0    0  501    0  0.00000000000E+00  0.00000000000E+00  0.78306826981E+03  0.78306826981E+03  0.25500000000E-02 0. -1.
         -2   -1    0    0    0  501 -0.00000000000E+00 -0.00000000000E+00 -0.78955346842E+03  0.78955346843E+03  0.25500000000E-02 0.  1.
    8880023    1    1    2    0    0 -0.45485498845E+03 -0.18959884398E+03  0.40101913103E+03  0.91513241221E+03  0.65864270000E+03 0.  0.
    8880022    1    1    2    0    0  0.45485498845E+03  0.18959884398E+03 -0.40750432965E+03  0.65748932603E+03  0.15294330000E+03 0.  0.
<mgrwt>
<rscale>  0 0.73205615E+03</rscale>
<asrwt>0</asrwt>
<pdfrwt beam="1">  1        2 0.12047204E+00 0.82258798E+03</pdfrwt>
<pdfrwt beam="2">  1       -2 0.12146976E+00 0.82258798E+03</pdfrwt>
<totfact> 0.18395600E+01</totfact>
</mgrwt>
</event>
<event>
 4    5  0.2025789E-007  0.8835747E+03  0.7818608E-02  0.9552931E-01
         -2   -1    0    0    0  501 -0.00000000000E+00  0.00000000000E+00  0.21876093494E+04  0.21876093494E+04  0.25500000000E-02 0.  1.
          2   -1    0    0  501    0  0.00000000000E+00 -0.00000000000E+00 -0.98210130624E+03  0.98210130624E+03  0.25500000000E-02 0. -1.
    8880023    1    1    2    0    0  0.45584731765E+03  0.37295737168E+03 -0.72665059864E+03  0.11439953133E+04  0.65864270000E+03 0.  0.
    8880022    1    1    2    0    0 -0.45584731765E+03 -0.37295737168E+03  0.19321586418E+04  0.20257153423E+04  0.15294330000E+03 0.  0.
<mgrwt>
<rscale>  0 0.80491412E+03</rscale>
<asrwt>0</asrwt>
<pdfrwt beam="1">  1        2 0.15109251E+00 0.88357466E+03</pdfrwt>
<pdfrwt beam="2">  1       -2 0.33655528E+00 0.88357466E+03</pdfrwt>
<totfact> 0.50290791E-01</totfact>
</mgrwt>
</event>
<event>
 4    5  0.2025789E-007  0.1631660E+04  0.7818608E-02  0.8821859E-01
         -2   -1    0    0    0  501 -0.00000000000E+00  0.00000000000E+00  0.27726921182E+04  0.27726921182E+04  0.25500000000E-02 0.  1.
          2   -1    0    0  501    0  0.00000000000E+00 -0.00000000000E+00 -0.10435333737E+04  0.10435333737E+04  0.25500000000E-02 0. -1.
    8880023    1    1    2    0    0  0.14553922161E+04 -0.33217113747E+03  0.16392713150E+04  0.23129039793E+04  0.65864270000E+03 0.  0.
    8880022    1    1    2    0    0 -0.14553922161E+04  0.33217113747E+03  0.89887429447E+02  0.15033215126E+04  0.15294330000E+03 0.  0.
<mgrwt>
<rscale>  0 0.15978676E+04</rscale>
<asrwt>0</asrwt>
<pdfrwt beam="1">  1        2 0.16054360E+00 0.16316600E+04</pdfrwt>
<pdfrwt beam="2">  1       -2 0.42656802E+00 0.16316600E+04</pdfrwt>
<totfact> 0.10958805E-01</totfact>
</mgrwt>
</event>
<event>
 4    5  0.2025789E-007  0.1139790E+04  0.7818608E-02  0.9217997E-01
         -2   -1    0    0    0  501 -0.00000000000E+00  0.00000000000E+00  0.12545851237E+04  0.12545851237E+04  0.25500000000E-02 0.  1.
          2   -1    0    0  501    0  0.00000000000E+00 -0.00000000000E+00 -0.10430022517E+04  0.10430022517E+04  0.25500000000E-02 0. -1.
    8880023    1    1    2    0    0 -0.39560611837E+03  0.84190612034E+03 -0.35980561469E+03  0.11952323636E+04  0.65864270000E+03 0.  0.
    8880022    1    1    2    0    0  0.39560611837E+03 -0.84190612034E+03  0.57138848670E+03  0.11023550118E+04  0.15294330000E+03 0.  0.
<mgrwt>
<rscale>  0 0.10869586E+04</rscale>
<asrwt>0</asrwt>
<pdfrwt beam="1">  1        2 0.16046188E+00 0.11397896E+04</pdfrwt>
<pdfrwt beam="2">  1       -2 0.19301310E+00 0.11397896E+04</pdfrwt>
<totfact> 0.34210485E+00</totfact>
</mgrwt>
</event>
<event>
 4    5  0.2025789E-007  0.6989102E+03  0.7818608E-02  0.1000175E+00
          2   -1    0    0  501    0  0.00000000000E+00  0.00000000000E+00  0.14157261628E+04  0.14157261628E+04  0.25500000000E-02 0. -1.
         -2   -1    0    0    0  501 -0.00000000000E+00 -0.00000000000E+00 -0.35398081073E+03  0.35398081074E+03  0.25500000000E-02 0.  1.
    8880023    1    1    2    0    0 -0.22880998341E+03 -0.48076072745E+02  0.12504827705E+04  0.14325441294E+04  0.65864270000E+03 0.  0.
    8880022    1    1    2    0    0  0.22880998341E+03  0.48076072745E+02 -0.18873741844E+03  0.33716284406E+03  0.15294330000E+03 0.  1.
<mgrwt>
<rscale>  0 0.55573470E+03</rscale>
<asrwt>0</asrwt>
<pdfrwt beam="1">  1        2 0.21780402E+00 0.69891024E+03</pdfrwt>
<pdfrwt beam="2">  1       -2 0.54458588E-01 0.69891024E+03</pdfrwt>
<totfact> 0.46169599E+01</totfact>
</mgrwt>
</event>
<event>
 4    5  0.2025789E-007  0.1140280E+04  0.7818608E-02  0.9217481E-01
          2   -1    0    0  501    0  0.00000000000E+00  0.00000000000E+00  0.10175236680E+04  0.10175236680E+04  0.25500000000E-02 0. -1.
         -2   -1    0    0    0  501 -0.00000000000E+00 -0.00000000000E+00 -0.16644784373E+04  0.16644784373E+04  0.25500000000E-02 0.  1.
    8880023    1    1    2    0    0 -0.77442021199E+03  0.51643197089E+03  0.45829992066E+03  0.12289335494E+04  0.65864270000E+03 0. -1.
    8880022    1    1    2    0    0  0.77442021199E+03 -0.51643197089E+03 -0.11052546900E+04  0.14530685558E+04  0.15294330000E+03 0.  0.
<mgrwt>
<rscale>  0 0.10874805E+04</rscale>
<asrwt>0</asrwt>
<pdfrwt beam="1">  1        2 0.15654210E+00 0.11402802E+04</pdfrwt>
<pdfrwt beam="2">  1       -2 0.25607361E+00 0.11402802E+04</pdfrwt>
<totfact> 0.14197469E+00</totfact>
</mgrwt>
</event>
<event>
 4    5  0.2025789E-007  0.9791697E+03  0.7818608E-02  0.9409332E-01
          2   -1    0    0  501    0  0.00000000000E+00  0.00000000000E+00  0.82126108253E+03  0.82126108254E+03  0.25500000000E-02 0. -1.
         -2   -1    0    0    0  501 -0.00000000000E+00 -0.00000000000E+00 -0.99268524203E+03  0.99268524203E+03  0.25500000000E-02 0.  1.
    8880023    1    1    2    0    0  0.24911904747E+03  0.68036966116E+03 -0.37086299252E+03  0.10470495409E+04  0.65864270000E+03 0.  0.
    8880022    1    1    2    0    0 -0.24911904747E+03 -0.68036966116E+03  0.19943883303E+03  0.76689678365E+03  0.15294330000E+03 0.  0.
<mgrwt>
<rscale>  0 0.91311651E+03</rscale>
<asrwt>0</asrwt>
<pdfrwt beam="1">  1        2 0.12634786E+00 0.97916974E+03</pdfrwt>
<pdfrwt beam="2">  1       -2 0.15272081E+00 0.97916974E+03</pdfrwt>
<totfact> 0.94378552E+00</totfact>
</mgrwt>
</event>
<event>
 4    5  0.2025789E-007  0.1704878E+04  0.7818608E-02  0.8777064E-01
         -2   -1    0    0    0  501 -0.00000000000E+00  0.00000000000E+00  0.22929050506E+04  0.22929050506E+04  0.25500000000E-02 0.  1.
          2   -1    0    0  501    0  0.00000000000E+00 -0.00000000000E+00 -0.12554788171E+04  0.12554788171E+04  0.25500000000E-02 0. -1.
    8880023    1    1    2    0    0  0.10339583021E+04 -0.11847901554E+04  0.92380708880E+02  0.17073786588E+04  0.65864270000E+03 0. -1.
    8880022    1    1    2    0    0 -0.10339583021E+04  0.11847901554E+04  0.94504552459E+03  0.18410052089E+04  0.15294330000E+03 0.  0.
<mgrwt>
<rscale>  0 0.16727444E+04</rscale>
<asrwt>0</asrwt>
<pdfrwt beam="1">  1        2 0.19315059E+00 0.17048776E+04</pdfrwt>
<pdfrwt beam="2">  1       -2 0.35275462E+00 0.17048776E+04</pdfrwt>
<totfact> 0.24284438E-01</totfact>
</mgrwt>
</event>
<event>
 4    5  0.2025789E-007  0.1024909E+04  0.7818608E-02  0.9349670E-01
          2   -1    0    0  501    0  0.00000000000E+00  0.00000000000E+00  0.17123983452E+04  0.17123983452E+04  0.25500000000E-02 0. -1.
         -2   -1    0    0    0  501 -0.00000000000E+00 -0.00000000000E+00 -0.53539934155E+03  0.53539934156E+03  0.25500000000E-02 0.  1.
    8880023    1    1    2    0    0  0.47996448070E+03 -0.62150048976E+03  0.31605583634E+03  0.10725345027E+04  0.65864270000E+03 0.  0.
    8880022    1    1    2    0    0 -0.47996448070E+03  0.62150048976E+03  0.86094316735E+03  0.11752631841E+04  0.15294330000E+03 0.  0.
<mgrwt>
<rscale>  0 0.96335928E+03</rscale>
<asrwt>0</asrwt>
<pdfrwt beam="1">  1        2 0.26344590E+00 0.10249092E+04</pdfrwt>
<pdfrwt beam="2">  1       -2 0.82369129E-01 0.10249092E+04</pdfrwt>
<totfact> 0.12443125E+01</totfact>
</mgrwt>
</event>
<event>
 4    5  0.2038573E-007  0.1128888E+04  0.7818608E-02  0.9229554E-01
          2   -1    0    0  501    0  0.00000000000E+00  0.00000000000E+00  0.15568058771E+04  0.15568058771E+04  0.25500000000E-02 0. -1.
         -2   -1    0    0    0  501 -0.00000000000E+00 -0.00000000000E+00 -0.18506352728E+04  0.18506352728E+04  0.25500000000E-02 0.  1.
    8880023    1    1    2    0    0 -0.11823532467E+03  0.90917504681E+03  0.12003159788E+04  0.16477704673E+04  0.65864270000E+03 0. -1.
    8880022    1    1    2    0    0  0.11823532467E+03 -0.90917504681E+03 -0.14941453745E+04  0.17596706825E+04  0.15294330000E+03 0.  0.
<mgrwt>
<rscale>  0 0.10753520E+04</rscale>
<asrwt>0</asrwt>
<pdfrwt beam="1">  1        2 0.23950860E+00 0.11288884E+04</pdfrwt>
<pdfrwt beam="2">  1       -2 0.28471312E+00 0.11288884E+04</pdfrwt>
<totfact> 0.45728127E-01</totfact>
</mgrwt>
</event>
<event>
 4    5  0.2025789E-007  0.1425789E+04  0.7818608E-02  0.8963899E-01
          2   -1    0    0  501    0  0.00000000000E+00  0.00000000000E+00  0.21264990694E+04  0.21264990694E+04  0.25500000000E-02 0. -1.
         -2   -1    0    0    0  501 -0.00000000000E+00 -0.00000000000E+00 -0.11747665951E+04  0.11747665951E+04  0.25500000000E-02 0.  1.
    8880023    1    1    2    0    0  0.10744902251E+04  0.66673382664E+03  0.13532274482E+04  0.19657309003E+04  0.65864270000E+03 0. -1.
    8880022    1    1    2    0    0 -0.10744902251E+04 -0.66673382664E+03 -0.40149497386E+03  0.13355347642E+04  0.15294330000E+03 0.  0.
<mgrwt>
<rscale>  0 0.13861587E+04</rscale>
<asrwt>0</asrwt>
<pdfrwt beam="1">  1        2 0.32715370E+00 0.14257887E+04</pdfrwt>
<pdfrwt beam="2">  1       -2 0.18073332E+00 0.14257887E+04</pdfrwt>
<totfact> 0.96472420E-01</totfact>
</mgrwt>
</event>
<event>
 4    5  0.2025789E-007  0.1249501E+04  0.7818608E-02  0.9110444E-01
          2   -1    0    0  501    0  0.00000000000E+00  0.00000000000E+00  0.93624320384E+03  0.93624320384E+03  0.25500000000E-02 0. -1.
         -2   -1    0    0    0  501 -0.00000000000E+00 -0.00000000000E+00 -0.21984127344E+04  0.21984127344E+04  0.25500000000E-02 0.  1.
    8880023    1    1    2    0    0  0.42815084605E+03  0.97166260663E+03  0.25625197766E+03  0.12755064290E+04  0.65864270000E+03 0.  0.
    8880022    1    1    2    0    0 -0.42815084605E+03 -0.97166260663E+03 -0.15184215083E+04  0.18591495093E+04  0.15294330000E+03 0.  0.
<mgrwt>
<rscale>  0 0.12027597E+04</rscale>
<asrwt>0</asrwt>
<pdfrwt beam="1">  1        2 0.14403742E+00 0.12495005E+04</pdfrwt>
<pdfrwt beam="2">  1       -2 0.33821734E+00 0.12495005E+04</pdfrwt>
<totfact> 0.49943103E-01</totfact>
</mgrwt>
</event>
<event>
 4    5  0.2025789E-007  0.9450456E+03  0.7818608E-02  0.9457278E-01
         -2   -1    0    0    0  501 -0.00000000000E+00  0.00000000000E+00  0.15936172619E+04  0.15936172619E+04  0.25500000000E-02 0.  1.
          2   -1    0    0  501    0  0.00000000000E+00 -0.00000000000E+00 -0.73713402850E+03  0.73713402850E+03  0.25500000000E-02 0. -1.
    8880023    1    1    2    0    0  0.15907338046E+03 -0.65878427434E+03 -0.29143169631E+03  0.98896091954E+03  0.65864270000E+03 0.  0.
    8880022    1    1    2    0    0 -0.15907338046E+03  0.65878427434E+03  0.11479149297E+04  0.13417903709E+04  0.15294330000E+03 0.  0.
<mgrwt>
<rscale>  0 0.87508136E+03</rscale>
<asrwt>0</asrwt>
<pdfrwt beam="1">  1        2 0.11340524E+00 0.94504564E+03</pdfrwt>
<pdfrwt beam="2">  1       -2 0.24517188E+00 0.94504564E+03</pdfrwt>
<totfact> 0.26488013E+00</totfact>
</mgrwt>
</event>
<event>
 4    5  0.2025789E-007  0.6980924E+03  0.7818608E-02  0.1000521E+00
          2   -1    0    0  501    0  0.00000000000E+00  0.00000000000E+00  0.42108557440E+03  0.42108557441E+03  0.25500000000E-02 0. -1.
         -2   -1    0    0    0  501 -0.00000000000E+00 -0.00000000000E+00 -0.12047184934E+04  0.12047184934E+04  0.25500000000E-02 0.  1.
    8880023    1    1    2    0    0  0.22888873777E+03 -0.33656749510E+02  0.94920959249E+02  0.70451616435E+03  0.65864270000E+03 0.  0.
    8880022    1    1    2    0    0 -0.22888873777E+03  0.33656749510E+02 -0.87855387828E+03  0.92128790349E+03  0.15294330000E+03 0.  0.
<mgrwt>
<rscale>  0 0.55422449E+03</rscale>
<asrwt>0</asrwt>
<pdfrwt beam="1">  1        2 0.64782397E-01 0.69809243E+03</pdfrwt>
<pdfrwt beam="2">  1       -2 0.18534131E+00 0.69809243E+03</pdfrwt>
<totfact> 0.12777375E+01</totfact>
</mgrwt>
</event>
<event>
 4    5  0.2025789E-007  0.8688626E+03  0.7818608E-02  0.9577989E-01
         -2   -1    0    0    0  501 -0.00000000000E+00  0.00000000000E+00  0.30914852319E+03  0.30914852320E+03  0.25500000000E-02 0.  1.
          2   -1    0    0  501    0  0.00000000000E+00 -0.00000000000E+00 -0.29572106332E+04  0.29572106332E+04  0.25500000000E-02 0. -1.
    8880023    1    1    2    0    0 -0.36242893486E+03  0.43561131782E+03 -0.25200350784E+04  0.26656141798E+04  0.65864270000E+03 0. -1.
    8880022    1    1    2    0    0  0.36242893486E+03 -0.43561131782E+03 -0.12802703160E+03  0.60074497657E+03  0.15294330000E+03 0.  0.
<mgrwt>
<rscale>  0 0.78770307E+03</rscale>
<asrwt>0</asrwt>
<pdfrwt beam="1">  1        2 0.45495546E+00 0.86886257E+03</pdfrwt>
<pdfrwt beam="2">  1       -2 0.47561313E-01 0.86886257E+03</pdfrwt>
<totfact> 0.80803597E+00</totfact>
</mgrwt>
</event>
<event>
 4    5  0.2025789E-007  0.2037868E+04  0.7818608E-02  0.8601248E-01
         -2   -1    0    0    0  501 -0.00000000000E+00  0.00000000000E+00  0.97977681324E+03  0.97977681324E+03  0.25500000000E-02 0.  1.
          2   -1    0    0  501    0  0.00000000000E+00 -0.00000000000E+00 -0.46627091190E+04  0.46627091190E+04  0.25500000000E-02 0. -1.
    8880023    1    1    2    0    0 -0.10358629018E+04 -0.16266787863E+04 -0.29246848659E+04  0.35646441052E+04  0.65864270000E+03 0.  0.
    8880022    1    1    2    0    0  0.10358629018E+04  0.16266787863E+04 -0.75824743985E+03  0.20778418271E+04  0.15294330000E+03 0.  0.
<mgrwt>
<rscale>  0 0.20115326E+04</rscale>
<asrwt>0</asrwt>
<pdfrwt beam="1">  1        2 0.71733985E+00 0.20378680E+04</pdfrwt>
<pdfrwt beam="2">  1       -2 0.15073490E+00 0.20378680E+04</pdfrwt>
<totfact> 0.22545957E-02</totfact>
</mgrwt>
</event>
<event>
 4    5  0.2025789E-007  0.1123140E+04  0.7818608E-02  0.9235720E-01
         -2   -1    0    0    0  501 -0.00000000000E+00  0.00000000000E+00  0.25404097679E+04  0.25404097679E+04  0.25500000000E-02 0.  1.
          2   -1    0    0  501    0  0.00000000000E+00 -0.00000000000E+00 -0.87652047396E+03  0.87652047396E+03  0.25500000000E-02 0. -1.
    8880023    1    1    2    0    0  0.23357035994E+01  0.90974042682E+03 -0.37089205331E+03  0.11827950884E+04  0.65864270000E+03 0.  0.
    8880022    1    1    2    0    0 -0.23357035994E+01 -0.90974042682E+03  0.20347813472E+04  0.22341351534E+04  0.15294330000E+03 0.  0.
<mgrwt>
<rscale>  0 0.10692227E+04</rscale>
<asrwt>0</asrwt>
<pdfrwt beam="1">  1        2 0.13484931E+00 0.11231399E+04</pdfrwt>
<pdfrwt beam="2">  1       -2 0.39083226E+00 0.11231399E+04</pdfrwt>
<totfact> 0.25852431E-01</totfact>
</mgrwt>
</event>
<event>
 4    5  0.2025789E-007  0.1081125E+04  0.7818608E-02  0.9282368E-01
          2   -1    0    0  501    0  0.00000000000E+00  0.00000000000E+00  0.26055307987E+04  0.26055307987E+04  0.25500000000E-02 0. -1.
         -2   -1    0    0    0  501 -0.00000000000E+00 -0.00000000000E+00 -0.81789666802E+03  0.81789666802E+03  0.25500000000E-02 0.  1.
    8880023    1    1    2    0    0 -0.66346596028E+03 -0.54298620764E+03  0.22064514370E+04  0.24570834850E+04  0.65864270000E+03 0.  0.
    8880022    1    1    2    0    0  0.66346596028E+03  0.54298620764E+03 -0.41881730624E+03  0.96634398180E+03  0.15294330000E+03 0.  0.
<mgrwt>
<rscale>  0 0.10242245E+04</rscale>
<asrwt>0</asrwt>
<pdfrwt beam="1">  1        2 0.40085090E+00 0.10811250E+04</pdfrwt>
<pdfrwt beam="2">  1       -2 0.12583025E+00 0.10811250E+04</pdfrwt>
<totfact> 0.14200304E+00</totfact>
</mgrwt>
</event>
<event>
 4    5  0.2025789E-007  0.9000985E+03  0.7818608E-02  0.9525874E-01
         -2   -1    0    0    0  501 -0.00000000000E+00  0.00000000000E+00  0.15881084364E+04  0.15881084365E+04  0.25500000000E-02 0.  1.
          2   -1    0    0  501    0  0.00000000000E+00 -0.00000000000E+00 -0.82939776633E+03  0.82939776633E+03  0.25500000000E-02 0. -1.
    8880023    1    1    2    0    0  0.49924788019E+03 -0.35653695942E+03 -0.48489746293E+03  0.10224005111E+04  0.65864270000E+03 0. -1.
    8880022    1    1    2    0    0 -0.49924788019E+03  0.35653695942E+03  0.12436081330E+04  0.13951056917E+04  0.15294330000E+03 0.  0.
<mgrwt>
<rscale>  0 0.82402855E+03</rscale>
<asrwt>0</asrwt>
<pdfrwt beam="1">  1        2 0.12759966E+00 0.90009847E+03</pdfrwt>
<pdfrwt beam="2">  1       -2 0.24432437E+00 0.90009847E+03</pdfrwt>
<totfact> 0.23061839E+00</totfact>
</mgrwt>
</event>
<event>
 4    5  0.2025789E-007  0.6590646E+03  0.7818608E-02  0.1025136E+00
          2   -1    0    0  501    0  0.00000000000E+00  0.00000000000E+00  0.41819558541E+03  0.41819558542E+03  0.25500000000E-02 0. -1.
         -2   -1    0    0    0  501 -0.00000000000E+00 -0.00000000000E+00 -0.42495177620E+03  0.42495177621E+03  0.25500000000E-02 0.  1.
    8880023    1    1    2    0    0 -0.30956330997E+01 -0.23373892594E+02  0.82969794071E+02  0.66426659918E+03  0.65864270000E+03 0.  0.
    8880022    1    1    2    0    0  0.30956330997E+01  0.23373892594E+02 -0.89725984858E+02  0.17888076244E+03  0.15294330000E+03 0.  0.
<mgrwt>
<rscale>  0 0.45877915E+03</rscale>
<asrwt>0</asrwt>
<pdfrwt beam="1">  1        2 0.64337782E-01 0.65906459E+03</pdfrwt>
<pdfrwt beam="2">  1       -2 0.65377196E-01 0.65906459E+03</pdfrwt>
<totfact> 0.16527155E+02</totfact>
</mgrwt>
</event>
<event>
 4    5  0.2025789E-007  0.8270179E+03  0.7818608E-02  0.9655163E-01
         -2   -1    0    0    0  501 -0.00000000000E+00  0.00000000000E+00  0.50969124162E+03  0.50969124163E+03  0.25500000000E-02 0.  1.
          2   -1    0    0  501    0  0.00000000000E+00 -0.00000000000E+00 -0.11680294175E+04  0.11680294175E+04  0.25500000000E-02 0. -1.
    8880023    1    1    2    0    0 -0.40152594297E+03 -0.29820355501E+03 -0.78427980047E+03  0.11397602620E+04  0.65864270000E+03 0. -1.
    8880022    1    1    2    0    0  0.40152594297E+03  0.29820355501E+03  0.12594162459E+03  0.53796039716E+03  0.15294330000E+03 0.  0.
<mgrwt>
<rscale>  0 0.73750304E+03</rscale>
<asrwt>0</asrwt>
<pdfrwt beam="1">  1        2 0.17969683E+00 0.82701793E+03</pdfrwt>
<pdfrwt beam="2">  1       -2 0.78414038E-01 0.82701793E+03</pdfrwt>
<totfact> 0.28928861E+01</totfact>
</mgrwt>
</event>
<event>
 4    5  0.2025789E-007  0.1336099E+04  0.7818608E-02  0.9034997E-01
         -2   -1    0    0    0  501 -0.00000000000E+00  0.00000000000E+00  0.97328606186E+03  0.97328606186E+03  0.25500000000E-02 0.  1.
          2   -1    0    0  501    0  0.00000000000E+00 -0.00000000000E+00 -0.22755110441E+04  0.22755110441E+04  0.25500000000E-02 0. -1.
    8880023    1    1    2    0    0 -0.10237393685E+04 -0.55073341597E+03 -0.15541725565E+04  0.20495394926E+04  0.65864270000E+03 0. -1.
    8880022    1    1    2    0    0  0.10237393685E+04  0.55073341597E+03  0.25194757426E+03  0.11992576134E+04  0.15294330000E+03 0.  0.
<mgrwt>
<rscale>  0 0.12931727E+04</rscale>
<asrwt>0</asrwt>
<pdfrwt beam="1">  1        2 0.35007862E+00 0.13360987E+04</pdfrwt>
<pdfrwt beam="2">  1       -2 0.14973632E+00 0.13360987E+04</pdfrwt>
<totfact> 0.13531891E+00</totfact>
</mgrwt>
</event>
<event>
 4    5  0.2025789E-007  0.7728074E+03  0.7818608E-02  0.9773012E-01
          2   -1    0    0  501    0  0.00000000000E+00  0.00000000000E+00  0.91652027789E+03  0.91652027789E+03  0.25500000000E-02 0. -1.
         -2   -1    0    0    0  501 -0.00000000000E+00 -0.00000000000E+00 -0.10390585029E+04  0.10390585029E+04  0.25500000000E-02 0.  1.
    8880023    1    1    2    0    0  0.39542673192E+03  0.84016120658E+02  0.68949563440E+03  0.10356811502E+04  0.65864270000E+03 0.  0.
    8880022    1    1    2    0    0 -0.39542673192E+03 -0.84016120658E+02 -0.81203385939E+03  0.91989763053E+03  0.15294330000E+03 0.  0.
<mgrwt>
<rscale>  0 0.66831195E+03</rscale>
<asrwt>0</asrwt>
<pdfrwt beam="1">  1        2 0.14100312E+00 0.77280736E+03</pdfrwt>
<pdfrwt beam="2">  1       -2 0.15985515E+00 0.77280736E+03</pdfrwt>
<totfact> 0.73275691E+00</totfact>
</mgrwt>
</event>
<event>
 4    5  0.2025789E-007  0.2022920E+04  0.7818608E-02  0.8608319E-01
         -2   -1    0    0    0  501 -0.00000000000E+00  0.00000000000E+00  0.12353598955E+04  0.12353598955E+04  0.25500000000E-02 0.  1.
          2   -1    0    0  501    0  0.00000000000E+00 -0.00000000000E+00 -0.40462836737E+04  0.40462836737E+04  0.25500000000E-02 0. -1.
    8880023    1    1    2    0    0  0.56366705011E+03  0.18277510623E+04 -0.18777873979E+03  0.20316164871E+04  0.65864270000E+03 0.  0.
    8880022    1    1    2    0    0 -0.56366705011E+03 -0.18277510623E+04 -0.26231450384E+04  0.32500270821E+04  0.15294330000E+03 0.  0.
<mgrwt>
<rscale>  0 0.19963713E+04</rscale>
<asrwt>0</asrwt>
<pdfrwt beam="1">  1        2 0.62250517E+00 0.20229198E+04</pdfrwt>
<pdfrwt beam="2">  1       -2 0.19005537E+00 0.20229198E+04</pdfrwt>
<totfact> 0.43511638E-02</totfact>
</mgrwt>
</event>
<event>
 4    5  0.3144167E-007  0.9259004E+03  0.7818608E-02  0.9485671E-01
          2   -1    0    0  501    0  0.00000000000E+00  0.00000000000E+00  0.24001024455E+04  0.24001024455E+04  0.25500000000E-02 0. -1.
         -2   -1    0    0    0  501 -0.00000000000E+00 -0.00000000000E+00 -0.11699399891E+04  0.11699399892E+04  0.25500000000E-02 0.  1.
    8880023    1    1    2    0    0  0.30637412017E+03  0.57412216589E+03  0.22030009990E+04  0.23896662886E+04  0.65864270000E+03 0. -1.
    8880022    1    1    2    0    0 -0.30637412017E+03 -0.57412216589E+03 -0.97283854271E+03  0.11803761460E+04  0.15294330000E+03 0.  0.
<mgrwt>
<rscale>  0 0.85348565E+03</rscale>
<asrwt>0</asrwt>
<pdfrwt beam="1">  1        2 0.36924653E+00 0.92590041E+03</pdfrwt>
<pdfrwt beam="2">  1       -2 0.17999077E+00 0.92590041E+03</pdfrwt>
<totfact> 0.73287470E-01</totfact>
</mgrwt>
</event>
<event>
 4    5  0.2025789E-007  0.8279473E+03  0.7818608E-02  0.9653340E-01
         -2   -1    0    0    0  501 -0.00000000000E+00  0.00000000000E+00  0.17696158002E+04  0.17696158002E+04  0.25500000000E-02 0.  1.
          2   -1    0    0  501    0  0.00000000000E+00 -0.00000000000E+00 -0.50784571763E+03  0.50784571764E+03  0.25500000000E-02 0. -1.
    8880023    1    1    2    0    0 -0.54584381262E+01  0.50165395346E+03 -0.84875116084E+02  0.83228629399E+03  0.65864270000E+03 0. -1.
    8880022    1    1    2    0    0  0.54584381262E+01 -0.50165395346E+03  0.13466451986E+04  0.14451752238E+04  0.15294330000E+03 0.  0.
<mgrwt>
<rscale>  0 0.73864204E+03</rscale>
<asrwt>0</asrwt>
<pdfrwt beam="1">  1        2 0.78130112E-01 0.82794727E+03</pdfrwt>
<pdfrwt beam="2">  1       -2 0.27224858E+00 0.82794727E+03</pdfrwt>
<totfact> 0.29064089E+00</totfact>
</mgrwt>
</event>
<event>
 4    5  0.2025789E-007  0.1312747E+04  0.7818608E-02  0.9054630E-01
         -2   -1    0    0    0  501 -0.00000000000E+00  0.00000000000E+00  0.11168582922E+04  0.11168582922E+04  0.25500000000E-02 0.  1.
          2   -1    0    0  501    0  0.00000000000E+00 -0.00000000000E+00 -0.18146837911E+04  0.18146837911E+04  0.25500000000E-02 0. -1.
    8880023    1    1    2    0    0  0.96117421271E+03  0.60468010444E+03 -0.11046207463E+04  0.17156605420E+04  0.65864270000E+03 0.  0.
    8880022    1    1    2    0    0 -0.96117421271E+03 -0.60468010444E+03  0.40679524746E+03  0.12158815412E+04  0.15294330000E+03 0.  0.
<mgrwt>
<rscale>  0 0.12688611E+04</rscale>
<asrwt>0</asrwt>
<pdfrwt beam="1">  1        2 0.27918212E+00 0.13127468E+04</pdfrwt>
<pdfrwt beam="2">  1       -2 0.17182435E+00 0.13127468E+04</pdfrwt>
<totfact> 0.16809110E+00</totfact>
</mgrwt>
</event>
<event>
 4    5  0.2025789E-007  0.7146853E+03  0.7818608E-02  0.9940997E-01
          2   -1    0    0  501    0  0.00000000000E+00  0.00000000000E+00  0.85499963280E+03  0.85499963280E+03  0.25500000000E-02 0. -1.
         -2   -1    0    0    0  501 -0.00000000000E+00 -0.00000000000E+00 -0.76485349792E+03  0.76485349792E+03  0.25500000000E-02 0.  1.
    8880023    1    1    2    0    0  0.23198284508E+03  0.15214741581E+03  0.65680578520E+03  0.97065386327E+03  0.65864270000E+03 0. -1.
    8880022    1    1    2    0    0 -0.23198284508E+03 -0.15214741581E+03 -0.56665965032E+03  0.64919926745E+03  0.15294330000E+03 0.  0.
<mgrwt>
<rscale>  0 0.58314874E+03</rscale>
<asrwt>0</asrwt>
<pdfrwt beam="1">  1        2 0.13153841E+00 0.71468530E+03</pdfrwt>
<pdfrwt beam="2">  1       -2 0.11766977E+00 0.71468530E+03</pdfrwt>
<totfact> 0.17881866E+01</totfact>
</mgrwt>
</event>
<event>
 4    5  0.2025789E-007  0.1170950E+04  0.7818608E-02  0.9185891E-01
         -2   -1    0    0    0  501 -0.00000000000E+00  0.00000000000E+00  0.20744683254E+04  0.20744683254E+04  0.25500000000E-02 0.  1.
          2   -1    0    0  501    0  0.00000000000E+00 -0.00000000000E+00 -0.16529291181E+04  0.16529291181E+04  0.25500000000E-02 0. -1.
    8880023    1    1    2    0    0  0.17400528631E+03  0.95238476630E+03 -0.12980018700E+04  0.17481228915E+04  0.65864270000E+03 0. -1.
    8880022    1    1    2    0    0 -0.17400528631E+03 -0.95238476630E+03  0.17195410773E+04  0.19792745521E+04  0.15294330000E+03 0.  0.
<mgrwt>
<rscale>  0 0.11200249E+04</rscale>
<asrwt>0</asrwt>
<pdfrwt beam="1">  1        2 0.25429679E+00 0.11709504E+04</pdfrwt>
<pdfrwt beam="2">  1       -2 0.31914897E+00 0.11709504E+04</pdfrwt>
<totfact> 0.24785258E-01</totfact>
</mgrwt>
</event>
<event>
 4    5  0.2025789E-007  0.1115615E+04  0.7818608E-02  0.9243867E-01
          2   -1    0    0  501    0  0.00000000000E+00  0.00000000000E+00  0.10199187191E+04  0.10199187191E+04  0.25500000000E-02 0. -1.
         -2   -1    0    0    0  501 -0.00000000000E+00 -0.00000000000E+00 -0.15223802107E+04  0.15223802107E+04  0.25500000000E-02 0.  1.
    8880023    1    1    2    0    0 -0.72571241111E+03 -0.53303701840E+03  0.46785651411E+03  0.12097466225E+04  0.65864270000E+03 0. -1.
    8880022    1    1    2    0    0  0.72571241111E+03  0.53303701840E+03 -0.97031800562E+03  0.13325523073E+04  0.15294330000E+03 0.  0.
<mgrwt>
<rscale>  0 0.10611901E+04</rscale>
<asrwt>0</asrwt>
<pdfrwt beam="1">  1        2 0.15691057E+00 0.11156152E+04</pdfrwt>
<pdfrwt beam="2">  1       -2 0.23421234E+00 0.11156152E+04</pdfrwt>
<totfact> 0.19325179E+00</totfact>
</mgrwt>
</event>
<event>
 4    5  0.2025789E-007  0.8680474E+03  0.7818608E-02  0.9579406E-01
          2   -1    0    0  501    0  0.00000000000E+00  0.00000000000E+00  0.12492414710E+04  0.12492414710E+04  0.25500000000E-02 0. -1.
         -2   -1    0    0    0  501 -0.00000000000E+00 -0.00000000000E+00 -0.87844564314E+03  0.87844564314E+03  0.25500000000E-02 0.  1.
    8880023    1    1    2    0    0  0.16456032013E+03  0.54093985225E+03  0.96180177031E+03  0.12955959534E+04  0.65864270000E+03 0. -1.
    8880022    1    1    2    0    0 -0.16456032013E+03 -0.54093985225E+03 -0.59100594250E+03  0.83209116074E+03  0.15294330000E+03 0.  0.
<mgrwt>
<rscale>  0 0.78674358E+03</rscale>
<asrwt>0</asrwt>
<pdfrwt beam="1">  1        2 0.19219099E+00 0.86804737E+03</pdfrwt>
<pdfrwt beam="2">  1       -2 0.13514548E+00 0.86804737E+03</pdfrwt>
<totfact> 0.70090619E+00</totfact>
</mgrwt>
</event>
<event>
 4    5  0.2025789E-007  0.9677060E+03  0.7818608E-02  0.9425084E-01
          2   -1    0    0  501    0  0.00000000000E+00  0.00000000000E+00  0.17759849572E+04  0.17759849572E+04  0.25500000000E-02 0. -1.
         -2   -1    0    0    0  501 -0.00000000000E+00 -0.00000000000E+00 -0.54009602538E+03  0.54009602538E+03  0.25500000000E-02 0.  1.
    8880023    1    1    2    0    0 -0.28640604073E+02 -0.70839569590E+03  0.12620160897E+04  0.15903268730E+04  0.65864270000E+03 0.  0.
    8880022    1    1    2    0    0  0.28640604073E+02  0.70839569590E+03 -0.26127157854E+02  0.72575410957E+03  0.15294330000E+03 0.  0.
<mgrwt>
<rscale>  0 0.90039808E+03</rscale>
<asrwt>0</asrwt>
<pdfrwt beam="1">  1        2 0.27322845E+00 0.96770603E+03</pdfrwt>
<pdfrwt beam="2">  1       -2 0.83091696E-01 0.96770603E+03</pdfrwt>
<totfact> 0.11319688E+01</totfact>
</mgrwt>
</event>
<event>
 4    5  0.2025789E-007  0.1350111E+04  0.7818608E-02  0.9023451E-01
         -2   -1    0    0    0  501 -0.00000000000E+00  0.00000000000E+00  0.13753126386E+04  0.13753126386E+04  0.25500000000E-02 0.  1.
          2   -1    0    0  501    0  0.00000000000E+00 -0.00000000000E+00 -0.15705412002E+04  0.15705412002E+04  0.25500000000E-02 0. -1.
    8880023    1    1    2    0    0  0.10307314438E+04 -0.57147310212E+03 -0.84365771003E+03  0.15920293194E+04  0.65864270000E+03 0.  0.
    8880022    1    1    2    0    0 -0.10307314438E+04  0.57147310212E+03  0.64842914850E+03  0.13538245194E+04  0.15294330000E+03 0.  0.
<mgrwt>
<rscale>  0 0.13077388E+04</rscale>
<asrwt>0</asrwt>
<pdfrwt beam="1">  1        2 0.24162172E+00 0.13501107E+04</pdfrwt>
<pdfrwt beam="2">  1       -2 0.21158656E+00 0.13501107E+04</pdfrwt>
<totfact> 0.12368437E+00</totfact>
</mgrwt>
</event>
<event>
 4    5  0.2025789E-007  0.9328656E+03  0.7818608E-02  0.9475208E-01
         -2   -1    0    0    0  501 -0.00000000000E+00  0.00000000000E+00  0.11270950829E+04  0.11270950829E+04  0.25500000000E-02 0.  1.
          2   -1    0    0  501    0  0.00000000000E+00 -0.00000000000E+00 -0.10363974899E+04  0.10363974899E+04  0.25500000000E-02 0. -1.
    8880023    1    1    2    0    0  0.62799961927E+03  0.20504742813E+03 -0.66691066226E+03  0.11467379855E+04  0.65864270000E+03 0. -1.
    8880022    1    1    2    0    0 -0.62799961927E+03 -0.20504742813E+03  0.75760825521E+03  0.10167545874E+04  0.15294330000E+03 0.  0.
<mgrwt>
<rscale>  0 0.86136602E+03</rscale>
<asrwt>0</asrwt>
<pdfrwt beam="1">  1        2 0.15944577E+00 0.93286557E+03</pdfrwt>
<pdfrwt beam="2">  1       -2 0.17339924E+00 0.93286557E+03</pdfrwt>
<totfact> 0.48063169E+00</totfact>
</mgrwt>
</event>
<event>
 4    5  0.2025789E-007  0.1104590E+04  0.7818608E-02  0.9255963E-01
          2   -1    0    0  501    0  0.00000000000E+00  0.00000000000E+00  0.18092891458E+04  0.18092891458E+04  0.25500000000E-02 0. -1.
         -2   -1    0    0    0  501 -0.00000000000E+00 -0.00000000000E+00 -0.79781034414E+03  0.79781034414E+03  0.25500000000E-02 0.  1.
    8880023    1    1    2    0    0  0.53204037632E+03  0.70939540921E+03  0.12579866215E+04  0.16741115121E+04  0.65864270000E+03 0. -1.
    8880022    1    1    2    0    0 -0.53204037632E+03 -0.70939540921E+03 -0.24650781985E+03  0.93298797790E+03  0.15294330000E+03 0.  0.
<mgrwt>
<rscale>  0 0.10494008E+04</rscale>
<asrwt>0</asrwt>
<pdfrwt beam="1">  1        2 0.27835217E+00 0.11045900E+04</pdfrwt>
<pdfrwt beam="2">  1       -2 0.12274005E+00 0.11045900E+04</pdfrwt>
<totfact> 0.42147044E+00</totfact>
</mgrwt>
</event>
<event>
 4    5  0.2025789E-007  0.1112853E+04  0.7818608E-02  0.9246879E-01
          2   -1    0    0  501    0  0.00000000000E+00  0.00000000000E+00  0.30835945217E+04  0.30835945217E+04  0.25500000000E-02 0. -1.
         -2   -1    0    0    0  501 -0.00000000000E+00 -0.00000000000E+00 -0.34930217783E+03  0.34930217784E+03  0.25500000000E-02 0.  1.
    8880023    1    1    2    0    0 -0.81855591497E+03  0.36687499209E+03  0.11143084545E+04  0.15748411297E+04  0.65864270000E+03 0.  0.
    8880022    1    1    2    0    0  0.81855591497E+03 -0.36687499209E+03  0.16199838894E+04  0.18580555699E+04  0.15294330000E+03 0.  0.
<mgrwt>
<rscale>  0 0.10582385E+04</rscale>
<asrwt>0</asrwt>
<pdfrwt beam="1">  1        2 0.47439915E+00 0.11128528E+04</pdfrwt>
<pdfrwt beam="2">  1       -2 0.53738797E-01 0.11128528E+04</pdfrwt>
<totfact> 0.50778738E+00</totfact>
</mgrwt>
</event>
<event>
 4    5  0.2025789E-007  0.6998126E+03  0.7818608E-02  0.9997980E-01
         -2   -1    0    0    0  501 -0.00000000000E+00  0.00000000000E+00  0.76124024638E+03  0.76124024639E+03  0.25500000000E-02 0.  1.
          2   -1    0    0  501    0  0.00000000000E+00 -0.00000000000E+00 -0.11852008724E+04  0.11852008724E+04  0.25500000000E-02 0. -1.
    8880023    1    1    2    0    0  0.22453132926E+03 -0.74250366464E+02 -0.10489274741E+04  0.12609466630E+04  0.65864270000E+03 0. -1.
    8880022    1    1    2    0    0 -0.22453132926E+03  0.74250366464E+02  0.62496684807E+03  0.68549445581E+03  0.15294330000E+03 0.  0.
<mgrwt>
<rscale>  0 0.55738916E+03</rscale>
<asrwt>0</asrwt>
<pdfrwt beam="1">  1        2 0.18233860E+00 0.69981258E+03</pdfrwt>
<pdfrwt beam="2">  1       -2 0.11711388E+00 0.69981258E+03</pdfrwt>
<totfact> 0.11185644E+01</totfact>
</mgrwt>
</event>
<event>
 4    5  0.2437570E-007  0.6827358E+03  0.7818608E-02  0.1007817E+00
          2   -1    0    0  501    0  0.00000000000E+00  0.00000000000E+00  0.25662130785E+04  0.25662130785E+04  0.25500000000E-02 0. -1.
         -2   -1    0    0    0  501 -0.00000000000E+00 -0.00000000000E+00 -0.10515447191E+04  0.10515447191E+04  0.25500000000E-02 0.  1.
    8880023    1    1    2    0    0 -0.39517027000E+02 -0.17537489118E+03  0.25067107514E+04  0.25980236614E+04  0.65864270000E+03 0. -1.
    8880022    1    1    2    0    0  0.39517027000E+02  0.17537489118E+03 -0.99204239200E+03  0.10197341361E+04  0.15294330000E+03 0.  0.
<mgrwt>
<rscale>  0 0.52351696E+03</rscale>
<asrwt>0</asrwt>
<pdfrwt beam="1">  1        2 0.39480201E+00 0.68273579E+03</pdfrwt>
<pdfrwt beam="2">  1       -2 0.16177611E+00 0.68273579E+03</pdfrwt>
<totfact> 0.83466829E-01</totfact>
</mgrwt>
</event>
<event>
 4    5  0.2025789E-007  0.1030301E+04  0.7818608E-02  0.9342946E-01
          2   -1    0    0  501    0  0.00000000000E+00  0.00000000000E+00  0.19111901808E+04  0.19111901808E+04  0.25500000000E-02 0. -1.
         -2   -1    0    0    0  501 -0.00000000000E+00 -0.00000000000E+00 -0.11278310873E+04  0.11278310873E+04  0.25500000000E-02 0.  1.
    8880023    1    1    2    0    0  0.75302315778E+03  0.24630335605E+03  0.15922242578E+04  0.18964961146E+04  0.65864270000E+03 0.  0.
    8880022    1    1    2    0    0 -0.75302315778E+03 -0.24630335605E+03 -0.80886516425E+03  0.11425251535E+04  0.15294330000E+03 0.  0.
<mgrwt>
<rscale>  0 0.96923483E+03</rscale>
<asrwt>0</asrwt>
<pdfrwt beam="1">  1        2 0.29402926E+00 0.10303006E+04</pdfrwt>
<pdfrwt beam="2">  1       -2 0.17351248E+00 0.10303006E+04</pdfrwt>
<totfact> 0.14951040E+00</totfact>
</mgrwt>
</event>
<event>
 4    5  0.2025789E-007  0.1135948E+04  0.7818608E-02  0.9222050E-01
          2   -1    0    0  501    0  0.00000000000E+00  0.00000000000E+00  0.18283711452E+04  0.18283711452E+04  0.25500000000E-02 0. -1.
         -2   -1    0    0    0  501 -0.00000000000E+00 -0.00000000000E+00 -0.27917729664E+04  0.27917729664E+04  0.25500000000E-02 0.  1.
    8880023    1    1    2    0    0 -0.32408350320E+03 -0.86691219549E+03  0.15590045085E+04  0.19289562295E+04  0.65864270000E+03 0. -1.
    8880022    1    1    2    0    0  0.32408350320E+03  0.86691219549E+03 -0.25224063296E+04  0.26911878821E+04  0.15294330000E+03 0.  0.
<mgrwt>
<rscale>  0 0.10828705E+04</rscale>
<asrwt>0</asrwt>
<pdfrwt beam="1">  1        2 0.28128787E+00 0.11359477E+04</pdfrwt>
<pdfrwt beam="2">  1       -2 0.42950353E+00 0.11359477E+04</pdfrwt>
<totfact> 0.39301555E-02</totfact>
</mgrwt>
</event>
<event>
 4    5  0.2025789E-007  0.1244752E+04  0.7818608E-02  0.9114801E-01
         -2   -1    0    0    0  501 -0.00000000000E+00  0.00000000000E+00  0.10861500980E+04  0.10861500980E+04  0.25500000000E-02 0.  1.
          2   -1    0    0  501    0  0.00000000000E+00 -0.00000000000E+00 -0.22470729684E+04  0.22470729684E+04  0.25500000000E-02 0. -1.
    8880023    1    1    2    0    0  0.64495623038E+03 -0.83643885691E+03 -0.17241204987E+04  0.21264995181E+04  0.65864270000E+03 0. -1.
    8880022    1    1    2    0    0 -0.64495623038E+03  0.83643885691E+03  0.56319762822E+03  0.12067235482E+04  0.15294330000E+03 0.  0.
<mgrwt>
<rscale>  0 0.11977805E+04</rscale>
<asrwt>0</asrwt>
<pdfrwt beam="1">  1        2 0.34570353E+00 0.12447525E+04</pdfrwt>
<pdfrwt beam="2">  1       -2 0.16710002E+00 0.12447525E+04</pdfrwt>
<totfact> 0.10520054E+00</totfact>
</mgrwt>
</event>
<event>
 4    5  0.2025789E-007  0.7662924E+03  0.7818608E-02  0.9789081E-01
         -2   -1    0    0    0  501 -0.00000000000E+00  0.00000000000E+00  0.48667055802E+03  0.48667055803E+03  0.25500000000E-02 0.  1.
          2   -1    0    0  501    0  0.00000000000E+00 -0.00000000000E+00 -0.10795981969E+04  0.10795981969E+04  0.25500000000E-02 0. -1.
    8880023    1    1    2    0    0  0.32241441412E+03  0.22235729782E+03 -0.79115782905E+03  0.11014239597E+04  0.65864270000E+03 0. -1.
    8880022    1    1    2    0    0 -0.32241441412E+03 -0.22235729782E+03  0.19823019017E+03  0.46484479521E+03  0.15294330000E+03 0.  0.
<mgrwt>
<rscale>  0 0.65951808E+03</rscale>
<asrwt>0</asrwt>
<pdfrwt beam="1">  1        2 0.16609203E+00 0.76629239E+03</pdfrwt>
<pdfrwt beam="2">  1       -2 0.74872394E-01 0.76629239E+03</pdfrwt>
<totfact> 0.36501971E+01</totfact>
</mgrwt>
</event>
<event>
 4    5  0.2025789E-007  0.7683666E+03  0.7818608E-02  0.9783910E-01
          2   -1    0    0  501    0  0.00000000000E+00  0.00000000000E+00  0.74523764259E+03  0.74523764259E+03  0.25500000000E-02 0. -1.
         -2   -1    0    0    0  501 -0.00000000000E+00 -0.00000000000E+00 -0.64990973893E+03  0.64990973893E+03  0.25500000000E-02 0.  1.
    8880023    1    1    2    0    0 -0.37828736389E+03  0.11608499090E+03  0.40627622436E+03  0.86916490468E+03  0.65864270000E+03 0. -1.
    8880022    1    1    2    0    0  0.37828736389E+03 -0.11608499090E+03 -0.31094832069E+03  0.52598247685E+03  0.15294330000E+03 0.  0.
<mgrwt>
<rscale>  0 0.66233239E+03</rscale>
<asrwt>0</asrwt>
<pdfrwt beam="1">  1        2 0.11465194E+00 0.76836662E+03</pdfrwt>
<pdfrwt beam="2">  1       -2 0.99986114E-01 0.76836662E+03</pdfrwt>
<totfact> 0.31621055E+01</totfact>
</mgrwt>
</event>
<event>
 4    5  0.2025789E-007  0.1023995E+04  0.7818608E-02  0.9350817E-01
         -2   -1    0    0    0  501 -0.00000000000E+00  0.00000000000E+00  0.41593303131E+03  0.41593303131E+03  0.25500000000E-02 0.  1.
          2   -1    0    0  501    0  0.00000000000E+00 -0.00000000000E+00 -0.33514018386E+04  0.33514018386E+04  0.25500000000E-02 0. -1.
    8880023    1    1    2    0    0 -0.61458528834E+03 -0.48686807218E+03 -0.27677152573E+04  0.29510698989E+04  0.65864270000E+03 0.  0.
    8880022    1    1    2    0    0  0.61458528834E+03  0.48686807218E+03 -0.16775354997E+03  0.81626497101E+03  0.15294330000E+03 0.  0.
<mgrwt>
<rscale>  0 0.96236207E+03</rscale>
<asrwt>0</asrwt>
<pdfrwt beam="1">  1        2 0.51560026E+00 0.10239950E+04</pdfrwt>
<pdfrwt beam="2">  1       -2 0.63989699E-01 0.10239950E+04</pdfrwt>
<totfact> 0.23879504E+00</totfact>
</mgrwt>
</event>
<event>
 4    5  0.2025789E-007  0.8782888E+03  0.7818608E-02  0.9561824E-01
         -2   -1    0    0    0  501 -0.00000000000E+00  0.00000000000E+00  0.92320383645E+03  0.92320383646E+03  0.25500000000E-02 0.  1.
          2   -1    0    0  501    0  0.00000000000E+00 -0.00000000000E+00 -0.32872648127E+04  0.32872648127E+04  0.25500000000E-02 0. -1.
    8880023    1    1    2    0    0  0.43092737981E+03 -0.38972125131E+03 -0.31220549205E+04  0.32432419264E+04  0.65864270000E+03 0. -1.
    8880022    1    1    2    0    0 -0.43092737981E+03  0.38972125131E+03  0.75799394433E+03  0.96722672267E+03  0.15294330000E+03 0.  0.
<mgrwt>
<rscale>  0 0.79875266E+03</rscale>
<asrwt>0</asrwt>
<pdfrwt beam="1">  1        2 0.50573304E+00 0.87828883E+03</pdfrwt>
<pdfrwt beam="2">  1       -2 0.14203136E+00 0.87828883E+03</pdfrwt>
<totfact> 0.41232014E-01</totfact>
</mgrwt>
</event>
<event>
 4    5  0.2025789E-007  0.7865980E+03  0.7818608E-02  0.9740560E-01
          2   -1    0    0  501    0  0.00000000000E+00  0.00000000000E+00  0.70390939802E+03  0.70390939802E+03  0.25500000000E-02 0. -1.
         -2   -1    0    0    0  501 -0.00000000000E+00 -0.00000000000E+00 -0.94467168550E+03  0.94467168550E+03  0.25500000000E-02 0.  1.
    8880023    1    1    2    0    0  0.42391167722E+03  0.72285123195E+02  0.38362664269E+03  0.87516047464E+03  0.65864270000E+03 0. -1.
    8880022    1    1    2    0    0 -0.42391167722E+03 -0.72285123195E+02 -0.62438893017E+03  0.77342060889E+03  0.15294330000E+03 0.  0.
<mgrwt>
<rscale>  0 0.68652359E+03</rscale>
<asrwt>0</asrwt>
<pdfrwt beam="1">  1        2 0.10829375E+00 0.78659803E+03</pdfrwt>
<pdfrwt beam="2">  1       -2 0.14533410E+00 0.78659803E+03</pdfrwt>
<totfact> 0.13399968E+01</totfact>
</mgrwt>
</event>
<event>
 4    5  0.2165897E-007  0.1427794E+04  0.7818608E-02  0.8962382E-01
          2   -1    0    0  501    0  0.00000000000E+00  0.00000000000E+00  0.17785882232E+04  0.17785882232E+04  0.25500000000E-02 0. -1.
         -2   -1    0    0    0  501 -0.00000000000E+00 -0.00000000000E+00 -0.17838829024E+04  0.17838829024E+04  0.25500000000E-02 0.  1.
    8880023    1    1    2    0    0  0.12598024353E+04 -0.13297928080E+03  0.11560282895E+04  0.18371165662E+04  0.65864270000E+03 0.  0.
    8880022    1    1    2    0    0 -0.12598024353E+04  0.13297928080E+03 -0.11613229688E+04  0.17253545595E+04  0.15294330000E+03 0.  0.
<mgrwt>
<rscale>  0 0.13882315E+04</rscale>
<asrwt>0</asrwt>
<pdfrwt beam="1">  1        2 0.27362896E+00 0.14277941E+04</pdfrwt>
<pdfrwt beam="2">  1       -2 0.27444352E+00 0.14277941E+04</pdfrwt>
<totfact> 0.38203304E-01</totfact>
</mgrwt>
</event>
<event>
 4    5  0.2025789E-007  0.1247377E+04  0.7818608E-02  0.9112390E-01
          2   -1    0    0  501    0  0.00000000000E+00  0.00000000000E+00  0.13706462920E+04  0.13706462920E+04  0.25500000000E-02 0. -1.
         -2   -1    0    0    0  501 -0.00000000000E+00 -0.00000000000E+00 -0.17130821855E+04  0.17130821855E+04  0.25500000000E-02 0.  1.
    8880023    1    1    2    0    0 -0.99374749167E+03 -0.36688731869E+03  0.82841452240E+03  0.14974048247E+04  0.65864270000E+03 0.  0.
    8880022    1    1    2    0    0  0.99374749167E+03  0.36688731869E+03 -0.11708504159E+04  0.15863236528E+04  0.15294330000E+03 0.  0.
<mgrwt>
<rscale>  0 0.12005336E+04</rscale>
<asrwt>0</asrwt>
<pdfrwt beam="1">  1        2 0.21086866E+00 0.12473775E+04</pdfrwt>
<pdfrwt beam="2">  1       -2 0.26355111E+00 0.12473775E+04</pdfrwt>
<totfact> 0.77227783E-01</totfact>
</mgrwt>
</event>
<event>
 4    5  0.2025789E-007  0.2332975E+04  0.7818608E-02  0.8473901E-01
          2   -1    0    0  501    0  0.00000000000E+00  0.00000000000E+00  0.13515701709E+04  0.13515701709E+04  0.25500000000E-02 0. -1.
         -2   -1    0    0    0  501 -0.00000000000E+00 -0.00000000000E+00 -0.49236880824E+04  0.49236880824E+04  0.25500000000E-02 0.  1.
    8880023    1    1    2    0    0  0.12345115321E+04 -0.18667999964E+04 -0.36486878993E+03  0.23613344510E+04  0.65864270000E+03 0.  0.
    8880022    1    1    2    0    0 -0.12345115321E+04  0.18667999964E+04 -0.32072491215E+04  0.39139238023E+04  0.15294330000E+03 0.  0.
<mgrwt>
<rscale>  0 0.23102230E+04</rscale>
<asrwt>0</asrwt>
<pdfrwt beam="1">  1        2 0.20793388E+00 0.23329747E+04</pdfrwt>
<pdfrwt beam="2">  1       -2 0.75749046E+00 0.23329747E+04</pdfrwt>
<totfact> 0.17555854E-03</totfact>
</mgrwt>
</event>
<event>
 4    5  0.2025789E-007  0.1070998E+04  0.7818608E-02  0.9294054E-01
          2   -1    0    0  501    0  0.00000000000E+00  0.00000000000E+00  0.37732550413E+04  0.37732550413E+04  0.25500000000E-02 0. -1.
         -2   -1    0    0    0  501 -0.00000000000E+00 -0.00000000000E+00 -0.30465583737E+03  0.30465583738E+03  0.25500000000E-02 0.  1.
    8880023    1    1    2    0    0  0.10680118784E+03 -0.83774747430E+03  0.27747203191E+04  0.29742411435E+04  0.65864270000E+03 0.  0.
    8880022    1    1    2    0    0 -0.10680118784E+03  0.83774747430E+03  0.69387888479E+03  0.11036697351E+04  0.15294330000E+03 0.  0.
<mgrwt>
<rscale>  0 0.10133208E+04</rscale>
<asrwt>0</asrwt>
<pdfrwt beam="1">  1        2 0.58050081E+00 0.10709984E+04</pdfrwt>
<pdfrwt beam="2">  1       -2 0.46870126E-01 0.10709984E+04</pdfrwt>
<totfact> 0.22967977E+00</totfact>
</mgrwt>
</event>
<event>
 4    5  0.2025789E-007  0.8080967E+03  0.7818608E-02  0.9693555E-01
          2   -1    0    0  501    0  0.00000000000E+00  0.00000000000E+00  0.27946249269E+04  0.27946249269E+04  0.25500000000E-02 0. -1.
         -2   -1    0    0    0  501 -0.00000000000E+00 -0.00000000000E+00 -0.49341419464E+03  0.49341419465E+03  0.25500000000E-02 0.  1.
    8880023    1    1    2    0    0  0.36679055706E+03 -0.29098916635E+03  0.25926916922E+04  0.27157080891E+04  0.65864270000E+03 0. -1.
    8880022    1    1    2    0    0 -0.36679055706E+03  0.29098916635E+03 -0.29148096000E+03  0.57233103248E+03  0.15294330000E+03 0.  0.
<mgrwt>
<rscale>  0 0.71401807E+03</rscale>
<asrwt>0</asrwt>
<pdfrwt beam="1">  1        2 0.42994229E+00 0.80809666E+03</pdfrwt>
<pdfrwt beam="2">  1       -2 0.75909877E-01 0.80809666E+03</pdfrwt>
<totfact> 0.37966091E+00</totfact>
</mgrwt>
</event>
<event>
 4    5  0.2025789E-007  0.1848890E+04  0.7818608E-02  0.8695964E-01
          2   -1    0    0  501    0  0.00000000000E+00  0.00000000000E+00  0.34863097921E+04  0.34863097921E+04  0.25500000000E-02 0. -1.
         -2   -1    0    0    0  501 -0.00000000000E+00 -0.00000000000E+00 -0.16654977910E+04  0.16654977910E+04  0.25500000000E-02 0.  1.
    8880023    1    1    2    0    0 -0.15416513678E+04  0.77967664626E+03 -0.79556946666E+03  0.20127904996E+04  0.65864270000E+03 0.  0.
    8880022    1    1    2    0    0  0.15416513678E+04 -0.77967664626E+03  0.26163814678E+04  0.31390170835E+04  0.15294330000E+03 0.  0.
<mgrwt>
<rscale>  0 0.18195652E+04</rscale>
<asrwt>0</asrwt>
<pdfrwt beam="1">  1        2 0.53635535E+00 0.18488902E+04</pdfrwt>
<pdfrwt beam="2">  1       -2 0.25623043E+00 0.18488902E+04</pdfrwt>
<totfact> 0.44158140E-02</totfact>
</mgrwt>
</event>
<event>
 4    5  0.2025789E-007  0.7545303E+03  0.7818608E-02  0.9819479E-01
         -2   -1    0    0    0  501 -0.00000000000E+00  0.00000000000E+00  0.92621799312E+03  0.92621799312E+03  0.25500000000E-02 0.  1.
          2   -1    0    0  501    0  0.00000000000E+00 -0.00000000000E+00 -0.95736702408E+03  0.95736702408E+03  0.25500000000E-02 0. -1.
    8880023    1    1    2    0    0 -0.35627093268E+03 -0.92611069918E+02 -0.74856922228E+03  0.10628602328E+04  0.65864270000E+03 0. -1.
    8880022    1    1    2    0    0  0.35627093268E+03  0.92611069918E+02  0.71742019132E+03  0.82072478437E+03  0.15294330000E+03 0.  0.
<mgrwt>
<rscale>  0 0.64327568E+03</rscale>
<asrwt>0</asrwt>
<pdfrwt beam="1">  1        2 0.14728723E+00 0.75453031E+03</pdfrwt>
<pdfrwt beam="2">  1       -2 0.14249508E+00 0.75453031E+03</pdfrwt>
<totfact> 0.93641323E+00</totfact>
</mgrwt>
</event>
<event>
 4    5  0.2025789E-007  0.1504525E+04  0.7818608E-02  0.8906447E-01
         -2   -1    0    0    0  501 -0.00000000000E+00  0.00000000000E+00  0.15606236836E+04  0.15606236836E+04  0.25500000000E-02 0.  1.
          2   -1    0    0  501    0  0.00000000000E+00 -0.00000000000E+00 -0.27376322937E+04  0.27376322937E+04  0.25500000000E-02 0. -1.
    8880023    1    1    2    0    0  0.12952849304E+04 -0.38990206917E+03 -0.21505933540E+04  0.26246235263E+04  0.65864270000E+03 0.  0.
    8880022    1    1    2    0    0 -0.12952849304E+04  0.38990206917E+03  0.97358474379E+03  0.16736324510E+04  0.15294330000E+03 0.  0.
<mgrwt>
<rscale>  0 0.14673689E+04</rscale>
<asrwt>0</asrwt>
<pdfrwt beam="1">  1        2 0.42117420E+00 0.15045255E+04</pdfrwt>
<pdfrwt beam="2">  1       -2 0.24009595E+00 0.15045255E+04</pdfrwt>
<totfact> 0.17504654E-01</totfact>
</mgrwt>
</event>
<event>
 4    5  0.2025789E-007  0.1441339E+04  0.7818608E-02  0.8952209E-01
          2   -1    0    0  501    0  0.00000000000E+00  0.00000000000E+00  0.20678775529E+04  0.20678775529E+04  0.25500000000E-02 0. -1.
         -2   -1    0    0    0  501 -0.00000000000E+00 -0.00000000000E+00 -0.94734544492E+03  0.94734544492E+03  0.25500000000E-02 0.  1.
    8880023    1    1    2    0    0 -0.80377528094E+03  0.99879557653E+03  0.26268405925E+03  0.14650803484E+04  0.65864270000E+03 0.  0.
    8880022    1    1    2    0    0  0.80377528094E+03 -0.99879557653E+03  0.85784804876E+03  0.15501426495E+04  0.15294330000E+03 0.  0.
<mgrwt>
<rscale>  0 0.14022252E+04</rscale>
<asrwt>0</asrwt>
<pdfrwt beam="1">  1        2 0.31813501E+00 0.14413388E+04</pdfrwt>
<pdfrwt beam="2">  1       -2 0.14574545E+00 0.14413388E+04</pdfrwt>
<totfact> 0.18811767E+00</totfact>
</mgrwt>
</event>
<event>
 4    5  0.2025789E-007  0.7216774E+03  0.7818608E-02  0.9916951E-01
         -2   -1    0    0    0  501 -0.00000000000E+00  0.00000000000E+00  0.33923845549E+03  0.33923845550E+03  0.25500000000E-02 0.  1.
          2   -1    0    0  501    0  0.00000000000E+00 -0.00000000000E+00 -0.82978600133E+03  0.82978600133E+03  0.25500000000E-02 0. -1.
    8880023    1    1    2    0    0  0.11133462765E+03 -0.27315319525E+03 -0.27152718933E+03  0.77106762881E+03  0.65864270000E+03 0.  1.
    8880022    1    1    2    0    0 -0.11133462765E+03  0.27315319525E+03 -0.21902035651E+03  0.39795682802E+03  0.15294330000E+03 0. -1.
<mgrwt>
<rscale>  0 0.59446779E+03</rscale>
<asrwt>0</asrwt>
<pdfrwt beam="1">  1        2 0.12765938E+00 0.72167740E+03</pdfrwt>
<pdfrwt beam="2">  1       -2 0.52190532E-01 0.72167740E+03</pdfrwt>
<totfact> 0.11523514E+02</totfact>
</mgrwt>
</event>
<event>
 4    5  0.2025789E-007  0.9611850E+03  0.7818608E-02  0.9434201E-01
         -2   -1    0    0    0  501 -0.00000000000E+00  0.00000000000E+00  0.33646965662E+03  0.33646965663E+03  0.25500000000E-02 0.  1.
          2   -1    0    0  501    0  0.00000000000E+00 -0.00000000000E+00 -0.30306716451E+04  0.30306716451E+04  0.25500000000E-02 0. -1.
    8880023    1    1    2    0    0  0.36631737690E+03  0.59655512164E+03 -0.55231292517E+03  0.11085694418E+04  0.65864270000E+03 0.  0.
    8880022    1    1    2    0    0 -0.36631737690E+03 -0.59655512164E+03 -0.21418890633E+04  0.22585718599E+04  0.15294330000E+03 0.  0.
<mgrwt>
<rscale>  0 0.89313759E+03</rscale>
<asrwt>0</asrwt>
<pdfrwt beam="1">  1        2 0.46625716E+00 0.96118502E+03</pdfrwt>
<pdfrwt beam="2">  1       -2 0.51764565E-01 0.96118502E+03</pdfrwt>
<totfact> 0.60437311E+00</totfact>
</mgrwt>
</event>
<event>
 4    5  0.2025789E-007  0.7056158E+03  0.7818608E-02  0.9974656E-01
          2   -1    0    0  501    0  0.00000000000E+00  0.00000000000E+00  0.82977787649E+03  0.82977787649E+03  0.25500000000E-02 0. -1.
         -2   -1    0    0    0  501 -0.00000000000E+00 -0.00000000000E+00 -0.42192486269E+03  0.42192486270E+03  0.25500000000E-02 0.  1.
    8880023    1    1    2    0    0  0.15655648713E+03 -0.19893098013E+03  0.57655200865E+03  0.91121122330E+03  0.65864270000E+03 0. -1.
    8880022    1    1    2    0    0 -0.15655648713E+03  0.19893098013E+03 -0.16869899486E+03  0.34049151590E+03  0.15294330000E+03 0.  0.
<mgrwt>
<rscale>  0 0.56775609E+03</rscale>
<asrwt>0</asrwt>
<pdfrwt beam="1">  1        2 0.12765814E+00 0.70561581E+03</pdfrwt>
<pdfrwt beam="2">  1       -2 0.64911517E-01 0.70561581E+03</pdfrwt>
<totfact> 0.73006540E+01</totfact>
</mgrwt>
</event>
<event>
 4    5  0.2025789E-007  0.6763327E+03  0.7818608E-02  0.1011479E+00
         -2   -1    0    0    0  501 -0.00000000000E+00  0.00000000000E+00  0.21417396376E+03  0.21417396378E+03  0.25500000000E-02 0.  1.
          2   -1    0    0  501    0  0.00000000000E+00 -0.00000000000E+00 -0.19058074772E+04  0.19058074772E+04  0.25500000000E-02 0. -1.
    8880023    1    1    2    0    0 -0.15255137098E+03  0.18542621341E+02 -0.17657540662E+04  0.18908499089E+04  0.65864270000E+03 0. -1.
    8880022    1    1    2    0    0  0.15255137098E+03 -0.18542621341E+02  0.74120552797E+02  0.22913153200E+03  0.15294330000E+03 0.  0.
<mgrwt>
<rscale>  0 0.50891012E+03</rscale>
<asrwt>0</asrwt>
<pdfrwt beam="1">  1        2 0.29320114E+00 0.67633273E+03</pdfrwt>
<pdfrwt beam="2">  1       -2 0.32949842E-01 0.67633273E+03</pdfrwt>
<totfact> 0.67074637E+01</totfact>
</mgrwt>
</event>
<event>
 4    5  0.2025789E-007  0.1660467E+04  0.7818608E-02  0.8803921E-01
         -2   -1    0    0    0  501 -0.00000000000E+00  0.00000000000E+00  0.17235941813E+04  0.17235941813E+04  0.25500000000E-02 0.  1.
          2   -1    0    0  501    0  0.00000000000E+00 -0.00000000000E+00 -0.23037145475E+04  0.23037145475E+04  0.25500000000E-02 0. -1.
    8880023    1    1    2    0    0 -0.15146512836E+04 -0.17079503712E+03 -0.15023367242E+04  0.22392331935E+04  0.65864270000E+03 0. -1.
    8880022    1    1    2    0    0  0.15146512836E+04  0.17079503712E+03  0.92221635810E+03  0.17880755353E+04  0.15294330000E+03 0.  0.
<mgrwt>
<rscale>  0 0.16273484E+04</rscale>
<asrwt>0</asrwt>
<pdfrwt beam="1">  1        2 0.35441762E+00 0.16604667E+04</pdfrwt>
<pdfrwt beam="2">  1       -2 0.26516833E+00 0.16604667E+04</pdfrwt>
<totfact> 0.21541268E-01</totfact>
</mgrwt>
</event>
<event>
 4    5  0.2025789E-007  0.7562993E+03  0.7818608E-02  0.9814784E-01
          2   -1    0    0  501    0  0.00000000000E+00  0.00000000000E+00  0.44120046651E+03  0.44120046651E+03  0.25500000000E-02 0. -1.
         -2   -1    0    0    0  501 -0.00000000000E+00 -0.00000000000E+00 -0.29066559115E+04  0.29066559115E+04  0.25500000000E-02 0.  1.
    8880023    1    1    2    0    0  0.21556140703E+03 -0.30283936495E+03  0.89408334856E+02  0.76156579346E+03  0.65864270000E+03 0.  0.
    8880022    1    1    2    0    0 -0.21556140703E+03  0.30283936495E+03 -0.25548637799E+04  0.25862905846E+04  0.15294330000E+03 0.  0.
<mgrwt>
<rscale>  0 0.64575143E+03</rscale>
<asrwt>0</asrwt>
<pdfrwt beam="1">  1        2 0.67876996E-01 0.75629928E+03</pdfrwt>
<pdfrwt beam="2">  1       -2 0.44717782E+00 0.75629928E+03</pdfrwt>
<totfact> 0.27451498E-01</totfact>
</mgrwt>
</event>
<event>
 4    5  0.2025789E-007  0.7708623E+03  0.7818608E-02  0.9777757E-01
          2   -1    0    0  501    0  0.00000000000E+00  0.00000000000E+00  0.10483217787E+04  0.10483217787E+04  0.25500000000E-02 0. -1.
         -2   -1    0    0    0  501 -0.00000000000E+00 -0.00000000000E+00 -0.20350858952E+04  0.20350858952E+04  0.25500000000E-02 0.  1.
    8880023    1    1    2    0    0  0.15724674273E+03 -0.36836380765E+03  0.87893426865E+03  0.11690825838E+04  0.65864270000E+03 0. -1.
    8880022    1    1    2    0    0 -0.15724674273E+03  0.36836380765E+03 -0.18656983852E+04  0.19143250900E+04  0.15294330000E+03 0.  0.
<mgrwt>
<rscale>  0 0.66570031E+03</rscale>
<asrwt>0</asrwt>
<pdfrwt beam="1">  1        2 0.16128027E+00 0.77086227E+03</pdfrwt>
<pdfrwt beam="2">  1       -2 0.31309014E+00 0.77086227E+03</pdfrwt>
<totfact> 0.64837466E-01</totfact>
</mgrwt>
</event>
<event>
 4    5  0.2025789E-007  0.1588299E+04  0.7818608E-02  0.8849677E-01
         -2   -1    0    0    0  501 -0.00000000000E+00  0.00000000000E+00  0.11201380188E+04  0.11201380188E+04  0.25500000000E-02 0.  1.
          2   -1    0    0  501    0  0.00000000000E+00 -0.00000000000E+00 -0.33990436919E+04  0.33990436919E+04  0.25500000000E-02 0. -1.
    8880023    1    1    2    0    0  0.11888151226E+04 -0.82195005025E+03 -0.25849721007E+04  0.30339370871E+04  0.65864270000E+03 0.  0.
    8880022    1    1    2    0    0 -0.11888151226E+04  0.82195005025E+03  0.30606642752E+03  0.14852446236E+04  0.15294330000E+03 0.  0.
<mgrwt>
<rscale>  0 0.15534346E+04</rscale>
<asrwt>0</asrwt>
<pdfrwt beam="1">  1        2 0.52292979E+00 0.15882989E+04</pdfrwt>
<pdfrwt beam="2">  1       -2 0.17232893E+00 0.15882989E+04</pdfrwt>
<totfact> 0.18390266E-01</totfact>
</mgrwt>
</event>
<event>
 4    5  0.2025789E-007  0.7899865E+03  0.7818608E-02  0.9732881E-01
          2   -1    0    0  501    0  0.00000000000E+00  0.00000000000E+00  0.71003660066E+03  0.71003660066E+03  0.25500000000E-02 0. -1.
         -2   -1    0    0    0  501 -0.00000000000E+00 -0.00000000000E+00 -0.66846462171E+03  0.66846462172E+03  0.25500000000E-02 0.  1.
    8880023    1    1    2    0    0  0.23731454458E+03  0.36599222643E+03  0.30459384840E+03  0.84667356261E+03  0.65864270000E+03 0. -1.
    8880022    1    1    2    0    0 -0.23731454458E+03 -0.36599222643E+03 -0.26302186945E+03  0.53182765977E+03  0.15294330000E+03 0.  1.
<mgrwt>
<rscale>  0 0.69092388E+03</rscale>
<asrwt>0</asrwt>
<pdfrwt beam="1">  1        2 0.10923640E+00 0.78998652E+03</pdfrwt>
<pdfrwt beam="2">  1       -2 0.10284071E+00 0.78998652E+03</pdfrwt>
<totfact> 0.31403117E+01</totfact>
</mgrwt>
</event>
<event>
 4    5  0.2025789E-007  0.1024615E+04  0.7818608E-02  0.9350039E-01
          2   -1    0    0  501    0  0.00000000000E+00  0.00000000000E+00  0.11422425884E+04  0.11422425884E+04  0.25500000000E-02 0. -1.
         -2   -1    0    0    0  501 -0.00000000000E+00 -0.00000000000E+00 -0.84964050544E+03  0.84964050544E+03  0.25500000000E-02 0.  1.
    8880023    1    1    2    0    0  0.77606322835E+03  0.11727049632E+03  0.53557484751E+03  0.11561475370E+04  0.65864270000E+03 0.  0.
    8880022    1    1    2    0    0 -0.77606322835E+03 -0.11727049632E+03 -0.24297276454E+03  0.83573555688E+03  0.15294330000E+03 0. -1.
<mgrwt>
<rscale>  0 0.96303879E+03</rscale>
<asrwt>0</asrwt>
<pdfrwt beam="1">  1        2 0.17572963E+00 0.10246154E+04</pdfrwt>
<pdfrwt beam="2">  1       -2 0.13071393E+00 0.10246154E+04</pdfrwt>
<totfact> 0.87003187E+00</totfact>
</mgrwt>
</event>
<event>
 4    5  0.2025789E-007  0.1237771E+04  0.7818608E-02  0.9121253E-01
          2   -1    0    0  501    0  0.00000000000E+00  0.00000000000E+00  0.90925288838E+03  0.90925288839E+03  0.25500000000E-02 0. -1.
         -2   -1    0    0    0  501 -0.00000000000E+00 -0.00000000000E+00 -0.22600234773E+04  0.22600234773E+04  0.25500000000E-02 0.  1.
    8880023    1    1    2    0    0  0.10229279174E+04  0.22778199438E+03  0.23743270784E+03  0.12603375176E+04  0.65864270000E+03 0.  0.
    8880022    1    1    2    0    0 -0.10229279174E+04 -0.22778199438E+03 -0.15882032968E+04  0.19089388482E+04  0.15294330000E+03 0.  0.
<mgrwt>
<rscale>  0 0.11904542E+04</rscale>
<asrwt>0</asrwt>
<pdfrwt beam="1">  1        2 0.13988506E+00 0.12377707E+04</pdfrwt>
<pdfrwt beam="2">  1       -2 0.34769592E+00 0.12377707E+04</pdfrwt>
<totfact> 0.45515560E-01</totfact>
</mgrwt>
</event>
<event>
 4    5  0.2025789E-007  0.7278139E+03  0.7818608E-02  0.9896982E-01
         -2   -1    0    0    0  501 -0.00000000000E+00  0.00000000000E+00  0.94577055891E+03  0.94577055891E+03  0.25500000000E-02 0.  1.
          2   -1    0    0  501    0  0.00000000000E+00 -0.00000000000E+00 -0.11167656906E+04  0.11167656906E+04  0.25500000000E-02 0. -1.
    8880023    1    1    2    0    0 -0.21458880430E+03  0.22328115982E+03 -0.95797958565E+03  0.12030951434E+04  0.65864270000E+03 0. -1.
    8880022    1    1    2    0    0  0.21458880430E+03 -0.22328115982E+03  0.78698445392E+03  0.85944110617E+03  0.15294330000E+03 0.  0.
<mgrwt>
<rscale>  0 0.60407769E+03</rscale>
<asrwt>0</asrwt>
<pdfrwt beam="1">  1        2 0.17181011E+00 0.72781388E+03</pdfrwt>
<pdfrwt beam="2">  1       -2 0.14550316E+00 0.72781388E+03</pdfrwt>
<totfact> 0.70649797E+00</totfact>
</mgrwt>
</event>
<event>
 4    5  0.2025789E-007  0.9893759E+03  0.7818608E-02  0.9395591E-01
         -2   -1    0    0    0  501 -0.00000000000E+00  0.00000000000E+00  0.10105528906E+04  0.10105528906E+04  0.25500000000E-02 0.  1.
          2   -1    0    0  501    0  0.00000000000E+00 -0.00000000000E+00 -0.15714457448E+04  0.15714457448E+04  0.25500000000E-02 0. -1.
    8880023    1    1    2    0    0  0.48382959573E+03 -0.55764092161E+03 -0.12268254615E+04  0.15760600859E+04  0.65864270000E+03 0.  0.
    8880022    1    1    2    0    0 -0.48382959573E+03  0.55764092161E+03  0.66593260725E+03  0.10059385496E+04  0.15294330000E+03 0.  0.
<mgrwt>
<rscale>  0 0.92439409E+03</rscale>
<asrwt>0</asrwt>
<pdfrwt beam="1">  1        2 0.24176088E+00 0.98937591E+03</pdfrwt>
<pdfrwt beam="2">  1       -2 0.15546968E+00 0.98937591E+03</pdfrwt>
<totfact> 0.31330270E+00</totfact>
</mgrwt>
</event>
<event>
 4    5  0.2025789E-007  0.6949750E+03  0.7818608E-02  0.1001872E+00
         -2   -1    0    0    0  501 -0.00000000000E+00  0.00000000000E+00  0.10237612849E+04  0.10237612849E+04  0.25500000000E-02 0.  1.
          2   -1    0    0  501    0  0.00000000000E+00 -0.00000000000E+00 -0.85054058166E+03  0.85054058167E+03  0.25500000000E-02 0. -1.
    8880023    1    1    2    0    0 -0.50923847978E+02 -0.21583987286E+03 -0.68438325509E+03  0.97538235329E+03  0.65864270000E+03 0. -1.
    8880022    1    1    2    0    0  0.50923847978E+02  0.21583987286E+03  0.85760395830E+03  0.89891951326E+03  0.15294330000E+03 0.  0.
<mgrwt>
<rscale>  0 0.54836894E+03</rscale>
<asrwt>0</asrwt>
<pdfrwt beam="1">  1        2 0.13085240E+00 0.69497503E+03</pdfrwt>
<pdfrwt beam="2">  1       -2 0.15750174E+00 0.69497503E+03</pdfrwt>
<totfact> 0.85387995E+00</totfact>
</mgrwt>
</event>
<event>
 4    5  0.2025789E-007  0.7271452E+03  0.7818608E-02  0.9899111E-01
          2   -1    0    0  501    0  0.00000000000E+00  0.00000000000E+00  0.30209874746E+04  0.30209874746E+04  0.25500000000E-02 0. -1.
         -2   -1    0    0    0  501 -0.00000000000E+00 -0.00000000000E+00 -0.12699710266E+03  0.12699710268E+03  0.25500000000E-02 0.  1.
    8880023    1    1    2    0    0  0.23853226556E+03  0.19501856730E+03  0.25859463221E+04  0.26862349991E+04  0.65864270000E+03 0.  0.
    8880022    1    1    2    0    0 -0.23853226556E+03 -0.19501856730E+03  0.30804404988E+03  0.46174957822E+03  0.15294330000E+03 0.  0.
<mgrwt>
<rscale>  0 0.60304374E+03</rscale>
<asrwt>0</asrwt>
<pdfrwt beam="1">  1        2 0.46476728E+00 0.72714516E+03</pdfrwt>
<pdfrwt beam="2">  1       -2 0.19538017E-01 0.72714516E+03</pdfrwt>
<totfact> 0.39827171E+01</totfact>
</mgrwt>
</event>
<event>
 4    5  0.2025789E-007  0.7649534E+03  0.7818608E-02  0.9792448E-01
         -2   -1    0    0    0  501 -0.00000000000E+00  0.00000000000E+00  0.97133258344E+03  0.97133258344E+03  0.25500000000E-02 0.  1.
          2   -1    0    0  501    0  0.00000000000E+00 -0.00000000000E+00 -0.15763011936E+04  0.15763011936E+04  0.25500000000E-02 0. -1.
    8880023    1    1    2    0    0  0.33717321275E+03  0.19405612664E+03 -0.14305664724E+04  0.16222435680E+04  0.65864270000E+03 0. -1.
    8880022    1    1    2    0    0 -0.33717321275E+03 -0.19405612664E+03  0.82559786229E+03  0.92539020900E+03  0.15294330000E+03 0.  0.
<mgrwt>
<rscale>  0 0.65769388E+03</rscale>
<asrwt>0</asrwt>
<pdfrwt beam="1">  1        2 0.24250788E+00 0.76495344E+03</pdfrwt>
<pdfrwt beam="2">  1       -2 0.14943578E+00 0.76495344E+03</pdfrwt>
<totfact> 0.35690112E+00</totfact>
</mgrwt>
</event>
<event>
 4    5  0.2025789E-007  0.8365766E+03  0.7818608E-02  0.9636669E-01
         -2   -1    0    0    0  501 -0.00000000000E+00  0.00000000000E+00  0.72759309855E+03  0.72759309855E+03  0.25500000000E-02 0.  1.
          2   -1    0    0  501    0  0.00000000000E+00 -0.00000000000E+00 -0.92048299822E+03  0.92048299823E+03  0.25500000000E-02 0. -1.
    8880023    1    1    2    0    0  0.51377616301E+03  0.45653303974E+02 -0.55105580579E+03  0.10017598900E+04  0.65864270000E+03 0.  0.
    8880022    1    1    2    0    0 -0.51377616301E+03 -0.45653303974E+02  0.35816590611E+03  0.64631620679E+03  0.15294330000E+03 0.  0.
<mgrwt>
<rscale>  0 0.74915975E+03</rscale>
<asrwt>0</asrwt>
<pdfrwt beam="1">  1        2 0.14161277E+00 0.83657658E+03</pdfrwt>
<pdfrwt beam="2">  1       -2 0.11193740E+00 0.83657658E+03</pdfrwt>
<totfact> 0.18016213E+01</totfact>
</mgrwt>
</event>
<event>
 4    5  0.2025789E-007  0.1326383E+04  0.7818608E-02  0.9043105E-01
          2   -1    0    0  501    0  0.00000000000E+00  0.00000000000E+00  0.36920772059E+04  0.36920772059E+04  0.25500000000E-02 0. -1.
         -2   -1    0    0    0  501 -0.00000000000E+00 -0.00000000000E+00 -0.10088924658E+04  0.10088924658E+04  0.25500000000E-02 0.  1.
    8880023    1    1    2    0    0 -0.95979406558E+03  0.63582702503E+03  0.31740860591E+04  0.34400745880E+04  0.65864270000E+03 0.  0.
    8880022    1    1    2    0    0  0.95979406558E+03 -0.63582702503E+03 -0.49090131897E+03  0.12608950837E+04  0.15294330000E+03 0.  0.
<mgrwt>
<rscale>  0 0.12830630E+04</rscale>
<asrwt>0</asrwt>
<pdfrwt beam="1">  1        2 0.56801187E+00 0.13263826E+04</pdfrwt>
<pdfrwt beam="2">  1       -2 0.15521423E+00 0.13263826E+04</pdfrwt>
<totfact> 0.15841298E-01</totfact>
</mgrwt>
</event>
<event>
 4    5  0.2025789E-007  0.7063799E+03  0.7818608E-02  0.9971698E-01
          2   -1    0    0  501    0  0.00000000000E+00  0.00000000000E+00  0.18122160150E+04  0.18122160150E+04  0.25500000000E-02 0. -1.
         -2   -1    0    0    0  501 -0.00000000000E+00 -0.00000000000E+00 -0.44378273741E+03  0.44378273742E+03  0.25500000000E-02 0.  1.
    8880023    1    1    2    0    0 -0.20731905072E+03 -0.14893336812E+03  0.16816342971E+04  0.18239699703E+04  0.65864270000E+03 0. -1.
    8880022    1    1    2    0    0  0.20731905072E+03  0.14893336812E+03 -0.31320101955E+03  0.43202878213E+03  0.15294330000E+03 0.  0.
<mgrwt>
<rscale>  0 0.56908843E+03</rscale>
<asrwt>0</asrwt>
<pdfrwt beam="1">  1        2 0.27880247E+00 0.70637989E+03</pdfrwt>
<pdfrwt beam="2">  1       -2 0.68274266E-01 0.70637989E+03</pdfrwt>
<totfact> 0.17285556E+01</totfact>
</mgrwt>
</event>
<event>
 4    5  0.2025789E-007  0.9058534E+03  0.7818608E-02  0.9516700E-01
          2   -1    0    0  501    0  0.00000000000E+00  0.00000000000E+00  0.22389646965E+04  0.22389646965E+04  0.25500000000E-02 0. -1.
         -2   -1    0    0    0  501 -0.00000000000E+00 -0.00000000000E+00 -0.76433529675E+03  0.76433529675E+03  0.25500000000E-02 0.  1.
    8880023    1    1    2    0    0 -0.37118317893E+03  0.49898212898E+03  0.19866009962E+04  0.21833812864E+04  0.65864270000E+03 0. -1.
    8880022    1    1    2    0    0  0.37118317893E+03 -0.49898212898E+03 -0.51197159642E+03  0.81991870689E+03  0.15294330000E+03 0.  0.
<mgrwt>
<rscale>  0 0.83063744E+03</rscale>
<asrwt>0</asrwt>
<pdfrwt beam="1">  1        2 0.34445611E+00 0.90585337E+03</pdfrwt>
<pdfrwt beam="2">  1       -2 0.11759005E+00 0.90585337E+03</pdfrwt>
<totfact> 0.27854911E+00</totfact>
</mgrwt>
</event>
<event>
 4    5  0.2025789E-007  0.7187361E+03  0.7818608E-02  0.9926886E-01
          2   -1    0    0  501    0  0.00000000000E+00  0.00000000000E+00  0.30619453028E+04  0.30619453028E+04  0.25500000000E-02 0. -1.
         -2   -1    0    0    0  501 -0.00000000000E+00 -0.00000000000E+00 -0.39435894837E+03  0.39435894838E+03  0.25500000000E-02 0.  1.
    8880023    1    1    2    0    0  0.43355463048E+02  0.28441465452E+03  0.29431099454E+04  0.30296002623E+04  0.65864270000E+03 0. -1.
    8880022    1    1    2    0    0 -0.43355463048E+02 -0.28441465452E+03 -0.27552359105E+03  0.42670398887E+03  0.15294330000E+03 0.  0.
<mgrwt>
<rscale>  0 0.58975790E+03</rscale>
<asrwt>0</asrwt>
<pdfrwt beam="1">  1        2 0.47106850E+00 0.71873611E+03</pdfrwt>
<pdfrwt beam="2">  1       -2 0.60670608E-01 0.71873611E+03</pdfrwt>
<totfact> 0.43283505E+00</totfact>
</mgrwt>
</event>
<event>
 4    5  0.5670101E-007  0.1325724E+04  0.7818608E-02  0.9043658E-01
          2   -1    0    0  501    0  0.00000000000E+00  0.00000000000E+00  0.23962373768E+04  0.23962373768E+04  0.25500000000E-02 0. -1.
         -2   -1    0    0    0  501 -0.00000000000E+00 -0.00000000000E+00 -0.26903576120E+04  0.26903576120E+04  0.25500000000E-02 0.  1.
    8880023    1    1    2    0    0  0.25541142622E+03  0.11218280177E+04  0.20670060993E+04  0.24556175433E+04  0.65864270000E+03 0.  0.
    8880022    1    1    2    0    0 -0.25541142622E+03 -0.11218280177E+04 -0.23611263346E+04  0.26309774455E+04  0.15294330000E+03 0.  0.
<mgrwt>
<rscale>  0 0.12823771E+04</rscale>
<asrwt>0</asrwt>
<pdfrwt beam="1">  1        2 0.36865190E+00 0.13257237E+04</pdfrwt>
<pdfrwt beam="2">  1       -2 0.41390117E+00 0.13257237E+04</pdfrwt>
<totfact> 0.23219440E-02</totfact>
</mgrwt>
</event>
<event>
 4    5  0.2025789E-007  0.1239702E+04  0.7818608E-02  0.9119463E-01
          2   -1    0    0  501    0  0.00000000000E+00  0.00000000000E+00  0.18139248330E+04  0.18139248330E+04  0.25500000000E-02 0. -1.
         -2   -1    0    0    0  501 -0.00000000000E+00 -0.00000000000E+00 -0.96526535259E+03  0.96526535259E+03  0.25500000000E-02 0.  1.
    8880023    1    1    2    0    0 -0.90584592052E+03  0.53150266876E+03  0.11340402733E+04  0.16801516201E+04  0.65864270000E+03 0. -1.
    8880022    1    1    2    0    0  0.90584592052E+03 -0.53150266876E+03 -0.28538079288E+03  0.10990385656E+04  0.15294330000E+03 0.  0.
<mgrwt>
<rscale>  0 0.11924818E+04</rscale>
<asrwt>0</asrwt>
<pdfrwt beam="1">  1        2 0.27906536E+00 0.12397024E+04</pdfrwt>
<pdfrwt beam="2">  1       -2 0.14850236E+00 0.12397024E+04</pdfrwt>
<totfact> 0.25261307E+00</totfact>
</mgrwt>
</event>
<event>
 4    5  0.2025789E-007  0.9863247E+03  0.7818608E-02  0.9399672E-01
          2   -1    0    0  501    0  0.00000000000E+00  0.00000000000E+00  0.17803336636E+04  0.17803336636E+04  0.25500000000E-02 0. -1.
         -2   -1    0    0    0  501 -0.00000000000E+00 -0.00000000000E+00 -0.52392510620E+03  0.52392510621E+03  0.25500000000E-02 0.  1.
    8880023    1    1    2    0    0 -0.91813718338E+02  0.72842047518E+03  0.11983689438E+04  0.15520710291E+04  0.65864270000E+03 0.  0.
    8880022    1    1    2    0    0  0.91813718338E+02 -0.72842047518E+03  0.58039613579E+02  0.75218774073E+03  0.15294330000E+03 0.  0.
<mgrwt>
<rscale>  0 0.92102688E+03</rscale>
<asrwt>0</asrwt>
<pdfrwt beam="1">  1        2 0.27389749E+00 0.98632467E+03</pdfrwt>
<pdfrwt beam="2">  1       -2 0.80603863E-01 0.98632467E+03</pdfrwt>
<totfact> 0.12037058E+01</totfact>
</mgrwt>
</event>
<event>
 4    5  0.2025789E-007  0.1740498E+04  0.7818608E-02  0.8756185E-01
          2   -1    0    0  501    0  0.00000000000E+00  0.00000000000E+00  0.30717857625E+04  0.30717857625E+04  0.25500000000E-02 0. -1.
         -2   -1    0    0    0  501 -0.00000000000E+00 -0.00000000000E+00 -0.16221735575E+04  0.16221735575E+04  0.25500000000E-02 0.  1.
    8880023    1    1    2    0    0  0.15329073319E+04 -0.49569987955E+03 -0.80583833052E+03  0.19179960584E+04  0.65864270000E+03 0.  0.
    8880022    1    1    2    0    0 -0.15329073319E+04  0.49569987955E+03  0.22554505355E+04  0.27759632616E+04  0.15294330000E+03 0.  0.
<mgrwt>
<rscale>  0 0.17091112E+04</rscale>
<asrwt>0</asrwt>
<pdfrwt beam="1">  1        2 0.47258242E+00 0.17404981E+04</pdfrwt>
<pdfrwt beam="2">  1       -2 0.24956516E+00 0.17404981E+04</pdfrwt>
<totfact> 0.92626090E-02</totfact>
</mgrwt>
</event>
<event>
 4    5  0.2025789E-007  0.1145275E+04  0.7818608E-02  0.9212247E-01
          2   -1    0    0  501    0  0.00000000000E+00  0.00000000000E+00  0.20184926910E+04  0.20184926910E+04  0.25500000000E-02 0. -1.
         -2   -1    0    0    0  501 -0.00000000000E+00 -0.00000000000E+00 -0.12576633585E+04  0.12576633585E+04  0.25500000000E-02 0.  1.
    8880023    1    1    2    0    0  0.60924063370E+03  0.71180763247E+03  0.16279280896E+04  0.19904281767E+04  0.65864270000E+03 0. -1.
    8880022    1    1    2    0    0 -0.60924063370E+03 -0.71180763247E+03 -0.86709875715E+03  0.12857278729E+04  0.15294330000E+03 0.  0.
<mgrwt>
<rscale>  0 0.10927910E+04</rscale>
<asrwt>0</asrwt>
<pdfrwt beam="1">  1        2 0.31053733E+00 0.11452748E+04</pdfrwt>
<pdfrwt beam="2">  1       -2 0.19348667E+00 0.11452748E+04</pdfrwt>
<totfact> 0.93766922E-01</totfact>
</mgrwt>
</event>
<event>
 4    5  0.2025789E-007  0.1133490E+04  0.7818608E-02  0.9224654E-01
          2   -1    0    0  501    0  0.00000000000E+00  0.00000000000E+00  0.26626167114E+04  0.26626167114E+04  0.25500000000E-02 0. -1.
         -2   -1    0    0    0  501 -0.00000000000E+00 -0.00000000000E+00 -0.93630247203E+03  0.93630247204E+03  0.25500000000E-02 0.  1.
    8880023    1    1    2    0    0  0.38572073490E+03 -0.83797885143E+03  0.22556318676E+04  0.25244156491E+04  0.65864270000E+03 0.  0.
    8880022    1    1    2    0    0 -0.38572073490E+03  0.83797885143E+03 -0.52931762825E+03  0.10745035344E+04  0.15294330000E+03 0.  0.
<mgrwt>
<rscale>  0 0.10802538E+04</rscale>
<asrwt>0</asrwt>
<pdfrwt beam="1">  1        2 0.40963333E+00 0.11334899E+04</pdfrwt>
<pdfrwt beam="2">  1       -2 0.14404654E+00 0.11334899E+04</pdfrwt>
<totfact> 0.92180409E-01</totfact>
</mgrwt>
</event>
<event>
 4    5  0.2025789E-007  0.7661428E+03  0.7818608E-02  0.9789456E-01
         -2   -1    0    0    0  501 -0.00000000000E+00  0.00000000000E+00  0.43292910157E+03  0.43292910158E+03  0.25500000000E-02 0.  1.
          2   -1    0    0  501    0  0.00000000000E+00 -0.00000000000E+00 -0.29127080238E+04  0.29127080238E+04  0.25500000000E-02 0. -1.
    8880023    1    1    2    0    0 -0.37811717982E+03  0.10095555473E+03 -0.27442221607E+04  0.28491630524E+04  0.65864270000E+03 0. -1.
    8880022    1    1    2    0    0  0.37811717982E+03 -0.10095555473E+03  0.26444323850E+03  0.49647407294E+03  0.15294330000E+03 0.  0.
<mgrwt>
<rscale>  0 0.65931461E+03</rscale>
<asrwt>0</asrwt>
<pdfrwt beam="1">  1        2 0.44810891E+00 0.76614283E+03</pdfrwt>
<pdfrwt beam="2">  1       -2 0.66604479E-01 0.76614283E+03</pdfrwt>
<totfact> 0.43324629E+00</totfact>
</mgrwt>
</event>
<event>
 4    5  0.2025789E-007  0.9402713E+03  0.7818608E-02  0.9464252E-01
          2   -1    0    0  501    0  0.00000000000E+00  0.00000000000E+00  0.31089543798E+04  0.31089543798E+04  0.25500000000E-02 0. -1.
         -2   -1    0    0    0  501 -0.00000000000E+00 -0.00000000000E+00 -0.53770450363E+03  0.53770450364E+03  0.25500000000E-02 0.  1.
    8880023    1    1    2    0    0 -0.58955902801E+03 -0.32049982967E+03  0.27741130113E+04  0.29291318157E+04  0.65864270000E+03 0. -1.
    8880022    1    1    2    0    0  0.58955902801E+03  0.32049982967E+03 -0.20286313509E+03  0.71752706773E+03  0.15294330000E+03 0.  0.
<mgrwt>
<rscale>  0 0.86971481E+03</rscale>
<asrwt>0</asrwt>
<pdfrwt beam="1">  1        2 0.47830067E+00 0.94027134E+03</pdfrwt>
<pdfrwt beam="2">  1       -2 0.82723770E-01 0.94027134E+03</pdfrwt>
<totfact> 0.19676087E+00</totfact>
</mgrwt>
</event>
<event>
 4    5  0.2025789E-007  0.7926797E+03  0.7818608E-02  0.9726853E-01
         -2   -1    0    0    0  501 -0.00000000000E+00  0.00000000000E+00  0.16189951284E+04  0.16189951284E+04  0.25500000000E-02 0.  1.
          2   -1    0    0  501    0  0.00000000000E+00 -0.00000000000E+00 -0.10560072383E+04  0.10560072383E+04  0.25500000000E-02 0. -1.
    8880023    1    1    2    0    0  0.40899210566E+03 -0.16509499173E+03 -0.86462987713E+03  0.11729986912E+04  0.65864270000E+03 0. -1.
    8880022    1    1    2    0    0 -0.40899210566E+03  0.16509499173E+03  0.14276177672E+04  0.15020036755E+04  0.15294330000E+03 0.  0.
<mgrwt>
<rscale>  0 0.69440218E+03</rscale>
<asrwt>0</asrwt>
<pdfrwt beam="1">  1        2 0.16246265E+00 0.79267970E+03</pdfrwt>
<pdfrwt beam="2">  1       -2 0.24907617E+00 0.79267970E+03</pdfrwt>
<totfact> 0.15519080E+00</totfact>
</mgrwt>
</event>
<event>
 4    5  0.2025789E-007  0.7516746E+03  0.7818608E-02  0.9827158E-01
         -2   -1    0    0    0  501 -0.00000000000E+00  0.00000000000E+00  0.52527951857E+03  0.52527951858E+03  0.25500000000E-02 0.  1.
          2   -1    0    0  501    0  0.00000000000E+00 -0.00000000000E+00 -0.11901471920E+04  0.11901471920E+04  0.25500000000E-02 0. -1.
    8880023    1    1    2    0    0 -0.24283764952E+03 -0.26876453995E+03 -0.96325790467E+03  0.12218348903E+04  0.65864270000E+03 0. -1.
    8880022    1    1    2    0    0  0.24283764952E+03  0.26876453995E+03  0.29839023123E+03  0.49359182030E+03  0.15294330000E+03 0.  0.
<mgrwt>
<rscale>  0 0.63925222E+03</rscale>
<asrwt>0</asrwt>
<pdfrwt beam="1">  1        2 0.18309957E+00 0.75167460E+03</pdfrwt>
<pdfrwt beam="2">  1       -2 0.80812234E-01 0.75167460E+03</pdfrwt>
<totfact> 0.26423030E+01</totfact>
</mgrwt>
</event>
<event>
 4    5  0.2025789E-007  0.1496641E+04  0.7818608E-02  0.8912011E-01
          2   -1    0    0  501    0  0.00000000000E+00  0.00000000000E+00  0.11791409296E+04  0.11791409296E+04  0.25500000000E-02 0. -1.
         -2   -1    0    0    0  501 -0.00000000000E+00 -0.00000000000E+00 -0.23543607587E+04  0.23543607587E+04  0.25500000000E-02 0.  1.
    8880023    1    1    2    0    0  0.62792125518E+03  0.11882087603E+04  0.30602654516E+03  0.15276084621E+04  0.65864270000E+03 0.  0.
    8880022    1    1    2    0    0 -0.62792125518E+03 -0.11882087603E+04 -0.14812463742E+04  0.20058932262E+04  0.15294330000E+03 0.  0.
<mgrwt>
<rscale>  0 0.14592522E+04</rscale>
<asrwt>0</asrwt>
<pdfrwt beam="1">  1        2 0.18140630E+00 0.14966414E+04</pdfrwt>
<pdfrwt beam="2">  1       -2 0.36220935E+00 0.14966414E+04</pdfrwt>
<totfact> 0.24030167E-01</totfact>
</mgrwt>
</event>
<event>
 4    5  0.2025789E-007  0.6998471E+03  0.7818608E-02  0.9997836E-01
         -2   -1    0    0    0  501 -0.00000000000E+00  0.00000000000E+00  0.22623097865E+03  0.22623097866E+03  0.25500000000E-02 0.  1.
          2   -1    0    0  501    0  0.00000000000E+00 -0.00000000000E+00 -0.18758203368E+04  0.18758203368E+04  0.25500000000E-02 0. -1.
    8880023    1    1    2    0    0 -0.11391499564E+02 -0.23631744887E+03 -0.16787857305E+04  0.18188203425E+04  0.65864270000E+03 0. -1.
    8880022    1    1    2    0    0  0.11391499564E+02  0.23631744887E+03  0.29196372342E+02  0.28323097302E+03  0.15294330000E+03 0.  0.
<mgrwt>
<rscale>  0 0.55745215E+03</rscale>
<asrwt>0</asrwt>
<pdfrwt beam="1">  1        2 0.28858773E+00 0.69984706E+03</pdfrwt>
<pdfrwt beam="2">  1       -2 0.34804767E-01 0.69984706E+03</pdfrwt>
<totfact> 0.62606875E+01</totfact>
</mgrwt>
</event>
<event>
 4    5  0.2025789E-007  0.1232903E+04  0.7818608E-02  0.9125783E-01
         -2   -1    0    0    0  501 -0.00000000000E+00  0.00000000000E+00  0.21009846218E+04  0.21009846218E+04  0.25500000000E-02 0.  1.
          2   -1    0    0  501    0  0.00000000000E+00 -0.00000000000E+00 -0.11659775159E+04  0.11659775159E+04  0.25500000000E-02 0. -1.
    8880023    1    1    2    0    0  0.72425060323E+03  0.74946733904E+03 -0.62682350250E+03  0.13830972989E+04  0.65864270000E+03 0.  0.
    8880022    1    1    2    0    0 -0.72425060323E+03 -0.74946733904E+03  0.15618306084E+04  0.18838648388E+04  0.15294330000E+03 0.  0.
<mgrwt>
<rscale>  0 0.11853432E+04</rscale>
<asrwt>0</asrwt>
<pdfrwt beam="1">  1        2 0.17938116E+00 0.12329033E+04</pdfrwt>
<pdfrwt beam="2">  1       -2 0.32322840E+00 0.12329033E+04</pdfrwt>
<totfact> 0.44261081E-01</totfact>
</mgrwt>
</event>
<event>
 4    5  0.2025789E-007  0.1557887E+04  0.7818608E-02  0.8869806E-01
         -2   -1    0    0    0  501 -0.00000000000E+00  0.00000000000E+00  0.17422631374E+04  0.17422631375E+04  0.25500000000E-02 0.  1.
          2   -1    0    0  501    0  0.00000000000E+00 -0.00000000000E+00 -0.13506625879E+04  0.13506625879E+04  0.25500000000E-02 0. -1.
    8880023    1    1    2    0    0  0.95347160321E+03 -0.10411984255E+04 -0.16727236373E+03  0.15668415712E+04  0.65864270000E+03 0.  0.
    8880022    1    1    2    0    0 -0.95347160321E+03  0.10411984255E+04  0.55887291328E+03  0.15260841541E+04  0.15294330000E+03 0.  0.
<mgrwt>
<rscale>  0 0.15222266E+04</rscale>
<asrwt>0</asrwt>
<pdfrwt beam="1">  1        2 0.20779425E+00 0.15578872E+04</pdfrwt>
<pdfrwt beam="2">  1       -2 0.26804048E+00 0.15578872E+04</pdfrwt>
<totfact> 0.72109133E-01</totfact>
</mgrwt>
</event>
<event>
 4    5  0.2025789E-007  0.8024215E+03  0.7818608E-02  0.9705584E-01
         -2   -1    0    0    0  501 -0.00000000000E+00  0.00000000000E+00  0.59900839317E+03  0.59900839317E+03  0.25500000000E-02 0.  1.
          2   -1    0    0  501    0  0.00000000000E+00 -0.00000000000E+00 -0.14109718100E+04  0.14109718100E+04  0.25500000000E-02 0. -1.
    8880023    1    1    2    0    0  0.43214556888E+03  0.15270987788E+03 -0.11628501323E+04  0.14128342917E+04  0.65864270000E+03 0. -1.
    8880022    1    1    2    0    0 -0.43214556888E+03 -0.15270987788E+03  0.35088671542E+03  0.59714591146E+03  0.15294330000E+03 0.  0.
<mgrwt>
<rscale>  0 0.70685266E+03</rscale>
<asrwt>0</asrwt>
<pdfrwt beam="1">  1        2 0.21707259E+00 0.80242153E+03</pdfrwt>
<pdfrwt beam="2">  1       -2 0.92155138E-01 0.80242153E+03</pdfrwt>
<totfact> 0.14501517E+01</totfact>
</mgrwt>
</event>
<event>
 4    5  0.2025789E-007  0.7020618E+03  0.7818608E-02  0.9988753E-01
          2   -1    0    0  501    0  0.00000000000E+00  0.00000000000E+00  0.10935659945E+04  0.10935659945E+04  0.25500000000E-02 0. -1.
         -2   -1    0    0    0  501 -0.00000000000E+00 -0.00000000000E+00 -0.55269732478E+03  0.55269732478E+03  0.25500000000E-02 0.  1.
    8880023    1    1    2    0    0  0.11649085636E+03 -0.21333193029E+03  0.92837258498E+03  0.11639443693E+04  0.65864270000E+03 0. -1.
    8880022    1    1    2    0    0 -0.11649085636E+03  0.21333193029E+03 -0.38750391528E+03  0.48231894993E+03  0.15294330000E+03 0.  0.
<mgrwt>
<rscale>  0 0.56146157E+03</rscale>
<asrwt>0</asrwt>
<pdfrwt beam="1">  1        2 0.16824092E+00 0.70206185E+03</pdfrwt>
<pdfrwt beam="2">  1       -2 0.85030357E-01 0.70206185E+03</pdfrwt>
<totfact> 0.27067112E+01</totfact>
</mgrwt>
</event>
<event>
 4    5  0.2025789E-007  0.1019678E+04  0.7818608E-02  0.9356253E-01
          2   -1    0    0  501    0  0.00000000000E+00  0.00000000000E+00  0.15410879645E+04  0.15410879645E+04  0.25500000000E-02 0. -1.
         -2   -1    0    0    0  501 -0.00000000000E+00 -0.00000000000E+00 -0.78824137946E+03  0.78824137946E+03  0.25500000000E-02 0.  1.
    8880023    1    1    2    0    0 -0.63398658177E+02 -0.77583156056E+03  0.10671885416E+04  0.14760201861E+04  0.65864270000E+03 0.  0.
    8880022    1    1    2    0    0  0.63398658177E+02  0.77583156056E+03 -0.31434195656E+03  0.85330915786E+03  0.15294330000E+03 0.  0.
<mgrwt>
<rscale>  0 0.95765013E+03</rscale>
<asrwt>0</asrwt>
<pdfrwt beam="1">  1        2 0.23709045E+00 0.10196785E+04</pdfrwt>
<pdfrwt beam="2">  1       -2 0.12126791E+00 0.10196785E+04</pdfrwt>
<totfact> 0.61759797E+00</totfact>
</mgrwt>
</event>
<event>
 4    5  0.2025789E-007  0.7121616E+03  0.7818608E-02  0.9950060E-01
          2   -1    0    0  501    0  0.00000000000E+00  0.00000000000E+00  0.14976432169E+04  0.14976432169E+04  0.25500000000E-02 0. -1.
         -2   -1    0    0    0  501 -0.00000000000E+00 -0.00000000000E+00 -0.57575169314E+03  0.57575169315E+03  0.25500000000E-02 0.  1.
    8880023    1    1    2    0    0 -0.10726058053E+03 -0.24871485492E+03  0.13605365763E+04  0.15356542231E+04  0.65864270000E+03 0. -1.
    8880022    1    1    2    0    0  0.10726058053E+03  0.24871485492E+03 -0.43864505259E+03  0.53774068692E+03  0.15294330000E+03 0.  0.
<mgrwt>
<rscale>  0 0.57895312E+03</rscale>
<asrwt>0</asrwt>
<pdfrwt beam="1">  1        2 0.23040665E+00 0.71216158E+03</pdfrwt>
<pdfrwt beam="2">  1       -2 0.88577183E-01 0.71216158E+03</pdfrwt>
<totfact> 0.14370290E+01</totfact>
</mgrwt>
</event>
<event>
 4    5  0.2025789E-007  0.1620846E+04  0.7818608E-02  0.8828703E-01
         -2   -1    0    0    0  501 -0.00000000000E+00  0.00000000000E+00  0.67982455497E+03  0.67982455497E+03  0.25500000000E-02 0.  1.
          2   -1    0    0  501    0  0.00000000000E+00 -0.00000000000E+00 -0.37764782122E+04  0.37764782122E+04  0.25500000000E-02 0. -1.
    8880023    1    1    2    0    0  0.88073913573E+03  0.11906426537E+04 -0.10725071023E+04  0.19435568025E+04  0.65864270000E+03 0.  0.
    8880022    1    1    2    0    0 -0.88073913573E+03 -0.11906426537E+04 -0.20241465549E+04  0.25127459646E+04  0.15294330000E+03 0.  0.
<mgrwt>
<rscale>  0 0.15867928E+04</rscale>
<asrwt>0</asrwt>
<pdfrwt beam="1">  1        2 0.58099664E+00 0.16208459E+04</pdfrwt>
<pdfrwt beam="2">  1       -2 0.10458840E+00 0.16208459E+04</pdfrwt>
<totfact> 0.36125033E-01</totfact>
</mgrwt>
</event>
<event>
 4    5  0.2025789E-007  0.1053349E+04  0.7818608E-02  0.9314866E-01
         -2   -1    0    0    0  501 -0.00000000000E+00  0.00000000000E+00  0.56478116440E+03  0.56478116441E+03  0.25500000000E-02 0.  1.
          2   -1    0    0  501    0  0.00000000000E+00 -0.00000000000E+00 -0.22923610559E+04  0.22923610559E+04  0.25500000000E-02 0. -1.
    8880023    1    1    2    0    0  0.76096181827E+03 -0.31092002727E+03 -0.17247890217E+04  0.20210001306E+04  0.65864270000E+03 0.  0.
    8880022    1    1    2    0    0 -0.76096181827E+03  0.31092002727E+03 -0.27908697858E+01  0.83614208971E+03  0.15294330000E+03 0.  0.
<mgrwt>
<rscale>  0 0.99425702E+03</rscale>
<asrwt>0</asrwt>
<pdfrwt beam="1">  1        2 0.35267093E+00 0.10533491E+04</pdfrwt>
<pdfrwt beam="2">  1       -2 0.86889411E-01 0.10533491E+04</pdfrwt>
<totfact> 0.52433979E+00</totfact>
</mgrwt>
</event>
<event>
 4    5  0.2025789E-007  0.8365955E+03  0.7818608E-02  0.9636633E-01
          2   -1    0    0  501    0  0.00000000000E+00  0.00000000000E+00  0.10600927094E+04  0.10600927094E+04  0.25500000000E-02 0. -1.
         -2   -1    0    0    0  501 -0.00000000000E+00 -0.00000000000E+00 -0.64724620434E+03  0.64724620434E+03  0.25500000000E-02 0.  1.
    8880023    1    1    2    0    0  0.77816078357E+02  0.50992799699E+03  0.70595371248E+03  0.10946518874E+04  0.65864270000E+03 0.  0.
    8880022    1    1    2    0    0 -0.77816078357E+02 -0.50992799699E+03 -0.29310720743E+03  0.61268702633E+03  0.15294330000E+03 0.  0.
<mgrwt>
<rscale>  0 0.74918276E+03</rscale>
<asrwt>0</asrwt>
<pdfrwt beam="1">  1        2 0.16309118E+00 0.83659555E+03</pdfrwt>
<pdfrwt beam="2">  1       -2 0.99576341E-01 0.83659555E+03</pdfrwt>
<totfact> 0.19408570E+01</totfact>
</mgrwt>
</event>
<event>
 4    5  0.2025789E-007  0.9098982E+03  0.7818608E-02  0.9510325E-01
         -2   -1    0    0    0  501 -0.00000000000E+00  0.00000000000E+00  0.99054721331E+03  0.99054721332E+03  0.25500000000E-02 0.  1.
          2   -1    0    0  501    0  0.00000000000E+00 -0.00000000000E+00 -0.83773397752E+03  0.83773397752E+03  0.25500000000E-02 0. -1.
    8880023    1    1    2    0    0  0.30024480954E+03 -0.55132351032E+03 -0.38461662195E+03  0.98784852626E+03  0.65864270000E+03 0. -1.
    8880022    1    1    2    0    0 -0.30024480954E+03  0.55132351032E+03  0.53742985774E+03  0.84043266458E+03  0.15294330000E+03 0.  0.
<mgrwt>
<rscale>  0 0.83526864E+03</rscale>
<asrwt>0</asrwt>
<pdfrwt beam="1">  1        2 0.12888215E+00 0.90989822E+03</pdfrwt>
<pdfrwt beam="2">  1       -2 0.15239188E+00 0.90989822E+03</pdfrwt>
<totfact> 0.92987283E+00</totfact>
</mgrwt>
</event>
<event>
 4    5  0.2025789E-007  0.1017121E+04  0.7818608E-02  0.9359493E-01
          2   -1    0    0  501    0  0.00000000000E+00  0.00000000000E+00  0.11535166615E+04  0.11535166615E+04  0.25500000000E-02 0. -1.
         -2   -1    0    0    0  501 -0.00000000000E+00 -0.00000000000E+00 -0.88166846038E+03  0.88166846039E+03  0.25500000000E-02 0.  1.
    8880023    1    1    2    0    0 -0.93432220153E+02  0.76941216697E+03  0.59868384707E+03  0.11802360855E+04  0.65864270000E+03 0.  0.
    8880022    1    1    2    0    0  0.93432220153E+02 -0.76941216697E+03 -0.32683564593E+03  0.85494903644E+03  0.15294330000E+03 0.  0.
<mgrwt>
<rscale>  0 0.95485542E+03</rscale>
<asrwt>0</asrwt>
<pdfrwt beam="1">  1        2 0.17746410E+00 0.10171209E+04</pdfrwt>
<pdfrwt beam="2">  1       -2 0.13564130E+00 0.10171209E+04</pdfrwt>
<totfact> 0.77965597E+00</totfact>
</mgrwt>
</event>
<event>
 4    5  0.2555036E-007  0.1032602E+04  0.7818608E-02  0.9340095E-01
         -2   -1    0    0    0  501 -0.00000000000E+00  0.00000000000E+00  0.92265562197E+03  0.92265562198E+03  0.25500000000E-02 0.  1.
          2   -1    0    0  501    0  0.00000000000E+00 -0.00000000000E+00 -0.29688790887E+04  0.29688790887E+04  0.25500000000E-02 0. -1.
    8880023    1    1    2    0    0 -0.67292364010E+03  0.42382808223E+03 -0.26742666052E+04  0.28666999408E+04  0.65864270000E+03 0. -1.
    8880022    1    1    2    0    0  0.67292364010E+03 -0.42382808223E+03  0.62804313849E+03  0.10248347699E+04  0.15294330000E+03 0.  0.
<mgrwt>
<rscale>  0 0.97174004E+03</rscale>
<asrwt>0</asrwt>
<pdfrwt beam="1">  1        2 0.45675062E+00 0.10326019E+04</pdfrwt>
<pdfrwt beam="2">  1       -2 0.14194702E+00 0.10326019E+04</pdfrwt>
<totfact> 0.63755402E-01</totfact>
</mgrwt>
</event>
<event>
 4    5  0.2025789E-007  0.1058087E+04  0.7818608E-02  0.9309222E-01
          2   -1    0    0  501    0  0.00000000000E+00  0.00000000000E+00  0.13168108296E+04  0.13168108296E+04  0.25500000000E-02 0. -1.
         -2   -1    0    0    0  501 -0.00000000000E+00 -0.00000000000E+00 -0.80255958929E+03  0.80255958929E+03  0.25500000000E-02 0.  1.
    8880023    1    1    2    0    0  0.17720102369E+03 -0.80891165996E+03  0.68455469362E+03  0.12602236354E+04  0.65864270000E+03 0.  0.
    8880022    1    1    2    0    0 -0.17720102369E+03  0.80891165996E+03 -0.17030345327E+03  0.85914678352E+03  0.15294330000E+03 0.  0.
<mgrwt>
<rscale>  0 0.99938268E+03</rscale>
<asrwt>0</asrwt>
<pdfrwt beam="1">  1        2 0.20258628E+00 0.10580872E+04</pdfrwt>
<pdfrwt beam="2">  1       -2 0.12347071E+00 0.10580872E+04</pdfrwt>
<totfact> 0.78908235E+00</totfact>
</mgrwt>
</event>
<event>
 4    5  0.2025789E-007  0.7257260E+03  0.7818608E-02  0.9903667E-01
         -2   -1    0    0    0  501 -0.00000000000E+00  0.00000000000E+00  0.29265405082E+03  0.29265405083E+03  0.25500000000E-02 0.  1.
          2   -1    0    0  501    0  0.00000000000E+00 -0.00000000000E+00 -0.22785703291E+04  0.22785703291E+04  0.25500000000E-02 0. -1.
    8880023    1    1    2    0    0  0.30460478104E+03 -0.91630357460E+01 -0.20918631896E+04  0.22141747547E+04  0.65864270000E+03 0. -1.
    8880022    1    1    2    0    0 -0.30460478104E+03  0.91630357460E+01  0.10594691135E+03  0.35704962525E+03  0.15294330000E+03 0.  0.
<mgrwt>
<rscale>  0 0.60083906E+03</rscale>
<asrwt>0</asrwt>
<pdfrwt beam="1">  1        2 0.35054927E+00 0.72572601E+03</pdfrwt>
<pdfrwt beam="2">  1       -2 0.45023702E-01 0.72572601E+03</pdfrwt>
<totfact> 0.22759789E+01</totfact>
</mgrwt>
</event>
<event>
 4    5  0.2025789E-007  0.8813996E+03  0.7818608E-02  0.9556576E-01
         -2   -1    0    0    0  501 -0.00000000000E+00  0.00000000000E+00  0.10784336671E+04  0.10784336671E+04  0.25500000000E-02 0.  1.
          2   -1    0    0  501    0  0.00000000000E+00 -0.00000000000E+00 -0.18198688589E+04  0.18198688589E+04  0.25500000000E-02 0. -1.
    8880023    1    1    2    0    0  0.16107141934E+03  0.56312611205E+03 -0.16124295940E+04  0.18376056221E+04  0.65864270000E+03 0. -1.
    8880022    1    1    2    0    0 -0.16107141934E+03 -0.56312611205E+03  0.87099440231E+03  0.10606969040E+04  0.15294330000E+03 0.  0.
<mgrwt>
<rscale>  0 0.80238163E+03</rscale>
<asrwt>0</asrwt>
<pdfrwt beam="1">  1        2 0.27997982E+00 0.88139958E+03</pdfrwt>
<pdfrwt beam="2">  1       -2 0.16591287E+00 0.88139958E+03</pdfrwt>
<totfact> 0.19420661E+00</totfact>
</mgrwt>
</event>
<event>
 4    5  0.2025789E-007  0.9531377E+03  0.7818608E-02  0.9445614E-01
         -2   -1    0    0    0  501 -0.00000000000E+00  0.00000000000E+00  0.73268590206E+03  0.73268590207E+03  0.25500000000E-02 0.  1.
          2   -1    0    0  501    0  0.00000000000E+00 -0.00000000000E+00 -0.23369924427E+04  0.23369924427E+04  0.25500000000E-02 0. -1.
    8880023    1    1    2    0    0 -0.58609889049E+03  0.36214555362E+03 -0.20320209932E+04  0.22444555764E+04  0.65864270000E+03 0. -1.
    8880022    1    1    2    0    0  0.58609889049E+03 -0.36214555362E+03  0.42771445257E+03  0.82522276834E+03  0.15294330000E+03 0.  0.
<mgrwt>
<rscale>  0 0.88415048E+03</rscale>
<asrwt>0</asrwt>
<pdfrwt beam="1">  1        2 0.35953729E+00 0.95313772E+03</pdfrwt>
<pdfrwt beam="2">  1       -2 0.11272091E+00 0.95313772E+03</pdfrwt>
<totfact> 0.27046827E+00</totfact>
</mgrwt>
</event>
<event>
 4    5  0.2025789E-007  0.9642939E+03  0.7818608E-02  0.9429840E-01
         -2   -1    0    0    0  501 -0.00000000000E+00  0.00000000000E+00  0.66858848844E+03  0.66858848844E+03  0.25500000000E-02 0.  1.
          2   -1    0    0  501    0  0.00000000000E+00 -0.00000000000E+00 -0.31263650910E+04  0.31263650910E+04  0.25500000000E-02 0. -1.
    8880023    1    1    2    0    0  0.15547537491E+03 -0.68693510439E+03 -0.28257305055E+04  0.29857353409E+04  0.65864270000E+03 0.  0.
    8880022    1    1    2    0    0 -0.15547537491E+03  0.68693510439E+03  0.36795390297E+03  0.80921823853E+03  0.15294330000E+03 0.  0.
<mgrwt>
<rscale>  0 0.89660137E+03</rscale>
<asrwt>0</asrwt>
<pdfrwt beam="1">  1        2 0.48097924E+00 0.96429385E+03</pdfrwt>
<pdfrwt beam="2">  1       -2 0.10285977E+00 0.96429385E+03</pdfrwt>
<totfact> 0.11499401E+00</totfact>
</mgrwt>
</event>
<event>
 4    5  0.2025789E-007  0.8477656E+03  0.7818608E-02  0.9615708E-01
          2   -1    0    0  501    0  0.00000000000E+00  0.00000000000E+00  0.23367392271E+04  0.23367392271E+04  0.25500000000E-02 0. -1.
         -2   -1    0    0    0  501 -0.00000000000E+00 -0.00000000000E+00 -0.81657426241E+03  0.81657426242E+03  0.25500000000E-02 0.  1.
    8880023    1    1    2    0    0  0.49335468546E+03 -0.20370919448E+03  0.21515334455E+04  0.23125316549E+04  0.65864270000E+03 0.  0.
    8880022    1    1    2    0    0 -0.49335468546E+03  0.20370919448E+03 -0.63136848090E+03  0.84078183453E+03  0.15294330000E+03 0.  0.
<mgrwt>
<rscale>  0 0.76265198E+03</rscale>
<asrwt>0</asrwt>
<pdfrwt beam="1">  1        2 0.35949834E+00 0.84776559E+03</pdfrwt>
<pdfrwt beam="2">  1       -2 0.12562681E+00 0.84776559E+03</pdfrwt>
<totfact> 0.21025005E+00</totfact>
</mgrwt>
</event>
<event>
 4    5  0.2025789E-007  0.8593692E+03  0.7818608E-02  0.9594687E-01
          2   -1    0    0  501    0  0.00000000000E+00  0.00000000000E+00  0.10131437381E+04  0.10131437381E+04  0.25500000000E-02 0. -1.
         -2   -1    0    0    0  501 -0.00000000000E+00 -0.00000000000E+00 -0.65848917508E+03  0.65848917509E+03  0.25500000000E-02 0.  1.
    8880023    1    1    2    0    0 -0.44548580341E+03 -0.32595635155E+03  0.60041581985E+03  0.10483389276E+04  0.65864270000E+03 0. -1.
    8880022    1    1    2    0    0  0.44548580341E+03  0.32595635155E+03 -0.24576125680E+03  0.62329398562E+03  0.15294330000E+03 0.  0.
<mgrwt>
<rscale>  0 0.77648858E+03</rscale>
<asrwt>0</asrwt>
<pdfrwt beam="1">  1        2 0.15586827E+00 0.85936916E+03</pdfrwt>
<pdfrwt beam="2">  1       -2 0.10130603E+00 0.85936916E+03</pdfrwt>
<totfact> 0.19900275E+01</totfact>
</mgrwt>
</event>
<event>
 4    5  0.2359624E-007  0.9764677E+03  0.7818608E-02  0.9413014E-01
         -2   -1    0    0    0  501 -0.00000000000E+00  0.00000000000E+00  0.14569540024E+04  0.14569540024E+04  0.25500000000E-02 0.  1.
          2   -1    0    0  501    0  0.00000000000E+00 -0.00000000000E+00 -0.21344623717E+04  0.21344623717E+04  0.25500000000E-02 0. -1.
    8880023    1    1    2    0    0 -0.66812606537E+03  0.27071477582E+03 -0.19158767648E+04  0.21503657626E+04  0.65864270000E+03 0.  0.
    8880022    1    1    2    0    0  0.66812606537E+03 -0.27071477582E+03  0.12383683954E+04  0.14410506115E+04  0.15294330000E+03 0.  0.
<mgrwt>
<rscale>  0 0.91012374E+03</rscale>
<asrwt>0</asrwt>
<pdfrwt beam="1">  1        2 0.32837883E+00 0.97646768E+03</pdfrwt>
<pdfrwt beam="2">  1       -2 0.22414677E+00 0.97646768E+03</pdfrwt>
<totfact> 0.52630227E-01</totfact>
</mgrwt>
</event>
<event>
 4    5  0.2025789E-007  0.9572229E+03  0.7818608E-02  0.9439797E-01
          2   -1    0    0  501    0  0.00000000000E+00  0.00000000000E+00  0.22763354957E+04  0.22763354957E+04  0.25500000000E-02 0. -1.
         -2   -1    0    0    0  501 -0.00000000000E+00 -0.00000000000E+00 -0.61453959457E+03  0.61453959457E+03  0.25500000000E-02 0.  1.
    8880023    1    1    2    0    0 -0.33443464391E+03  0.60878480308E+03  0.19109265146E+04  0.21372683074E+04  0.65864270000E+03 0. -1.
    8880022    1    1    2    0    0  0.33443464391E+03 -0.60878480308E+03 -0.24913061349E+03  0.75360678281E+03  0.15294330000E+03 0.  0.
<mgrwt>
<rscale>  0 0.88871660E+03</rscale>
<asrwt>0</asrwt>
<pdfrwt beam="1">  1        2 0.35020547E+00 0.95722290E+03</pdfrwt>
<pdfrwt beam="2">  1       -2 0.94544551E-01 0.95722290E+03</pdfrwt>
<totfact> 0.44547144E+00</totfact>
</mgrwt>
</event>
<event>
 4    5  0.2025789E-007  0.6666189E+03  0.7818608E-02  0.1018212E+00
          2   -1    0    0  501    0  0.00000000000E+00  0.00000000000E+00  0.10545374484E+04  0.10545374484E+04  0.25500000000E-02 0. -1.
         -2   -1    0    0    0  501 -0.00000000000E+00 -0.00000000000E+00 -0.87698343147E+03  0.87698343147E+03  0.25500000000E-02 0.  1.
    8880023    1    1    2    0    0  0.51298164041E+02  0.89101622091E+02  0.93705604247E+03  0.11499803623E+04  0.65864270000E+03 0. -1.
    8880022    1    1    2    0    0 -0.51298164041E+02 -0.89101622091E+02 -0.75950202557E+03  0.78154051754E+03  0.15294330000E+03 0.  0.
<mgrwt>
<rscale>  0 0.48337346E+03</rscale>
<asrwt>0</asrwt>
<pdfrwt beam="1">  1        2 0.16223653E+00 0.66661894E+03</pdfrwt>
<pdfrwt beam="2">  1       -2 0.13492053E+00 0.66661894E+03</pdfrwt>
<totfact> 0.94582803E+00</totfact>
</mgrwt>
</event>
<event>
 4    5  0.2025789E-007  0.9988334E+03  0.7818608E-02  0.9383086E-01
          2   -1    0    0  501    0  0.00000000000E+00  0.00000000000E+00  0.17736511974E+04  0.17736511974E+04  0.25500000000E-02 0. -1.
         -2   -1    0    0    0  501 -0.00000000000E+00 -0.00000000000E+00 -0.67862058762E+03  0.67862058763E+03  0.25500000000E-02 0.  1.
    8880023    1    1    2    0    0  0.53151233564E+03  0.53042677478E+03  0.13184182084E+04  0.16540540211E+04  0.65864270000E+03 0. -1.
    8880022    1    1    2    0    0 -0.53151233564E+03 -0.53042677478E+03 -0.22338759863E+03  0.79821776388E+03  0.15294330000E+03 0.  0.
<mgrwt>
<rscale>  0 0.93480844E+03</rscale>
<asrwt>0</asrwt>
<pdfrwt beam="1">  1        2 0.27286942E+00 0.99883339E+03</pdfrwt>
<pdfrwt beam="2">  1       -2 0.10440317E+00 0.99883339E+03</pdfrwt>
<totfact> 0.66348507E+00</totfact>
</mgrwt>
</event>
<event>
 4    5  0.2025789E-007  0.6736455E+03  0.7818608E-02  0.1013174E+00
          2   -1    0    0  501    0  0.00000000000E+00  0.00000000000E+00  0.28721708360E+04  0.28721708360E+04  0.25500000000E-02 0. -1.
         -2   -1    0    0    0  501 -0.00000000000E+00 -0.00000000000E+00 -0.27644862252E+03  0.27644862253E+03  0.25500000000E-02 0.  1.
    8880023    1    1    2    0    0  0.50230334461E+02 -0.13215505845E+03  0.27861366055E+04  0.28664185732E+04  0.65864270000E+03 0. -1.
    8880022    1    1    2    0    0 -0.50230334461E+02  0.13215505845E+03 -0.19041439203E+03  0.28220088533E+03  0.15294330000E+03 0.  0.
<mgrwt>
<rscale>  0 0.50232452E+03</rscale>
<asrwt>0</asrwt>
<pdfrwt beam="1">  1        2 0.44187242E+00 0.67364549E+03</pdfrwt>
<pdfrwt beam="2">  1       -2 0.42530559E-01 0.67364549E+03</pdfrwt>
<totfact> 0.11757355E+01</totfact>
</mgrwt>
</event>
<event>
 4    5  0.2025789E-007  0.1131105E+04  0.7818608E-02  0.9227190E-01
         -2   -1    0    0    0  501 -0.00000000000E+00  0.00000000000E+00  0.24612767853E+04  0.24612767853E+04  0.25500000000E-02 0.  1.
          2   -1    0    0  501    0  0.00000000000E+00 -0.00000000000E+00 -0.83725833071E+03  0.83725833071E+03  0.25500000000E-02 0. -1.
    8880023    1    1    2    0    0 -0.38859855704E+03  0.83341380717E+03  0.19965271236E+04  0.22946716920E+04  0.65864270000E+03 0.  0.
    8880022    1    1    2    0    0  0.38859855704E+03 -0.83341380717E+03 -0.37250866902E+03  0.10038634240E+04  0.15294330000E+03 0.  0.
<mgrwt>
<rscale>  0 0.10777133E+04</rscale>
<asrwt>0</asrwt>
<pdfrwt beam="1">  1        2 0.12880898E+00 0.11311046E+04</pdfrwt>
<pdfrwt beam="2">  1       -2 0.37865796E+00 0.11311046E+04</pdfrwt>
<totfact> 0.32959795E-01</totfact>
</mgrwt>
</event>
<event>
 4    5  0.2025789E-007  0.7506177E+03  0.7818608E-02  0.9830032E-01
          2   -1    0    0  501    0  0.00000000000E+00  0.00000000000E+00  0.16495997503E+04  0.16495997503E+04  0.25500000000E-02 0. -1.
         -2   -1    0    0    0  501 -0.00000000000E+00 -0.00000000000E+00 -0.70012443207E+03  0.70012443208E+03  0.25500000000E-02 0.  1.
    8880023    1    1    2    0    0  0.29465195151E+03  0.20687410344E+03  0.14982770925E+04  0.16757867166E+04  0.65864270000E+03 0.  0.
    8880022    1    1    2    0    0 -0.29465195151E+03 -0.20687410344E+03 -0.54880177435E+03  0.67393746576E+03  0.15294330000E+03 0.  0.
<mgrwt>
<rscale>  0 0.63775440E+03</rscale>
<asrwt>0</asrwt>
<pdfrwt beam="1">  1        2 0.25378457E+00 0.75061766E+03</pdfrwt>
<pdfrwt beam="2">  1       -2 0.10771145E+00 0.75061766E+03</pdfrwt>
<totfact> 0.74334297E+00</totfact>
</mgrwt>
</event>
<event>
 4    5  0.2025789E-007  0.7908532E+03  0.7818608E-02  0.9730934E-01
          2   -1    0    0  501    0  0.00000000000E+00  0.00000000000E+00  0.30439867568E+04  0.30439867568E+04  0.25500000000E-02 0. -1.
         -2   -1    0    0    0  501 -0.00000000000E+00 -0.00000000000E+00 -0.29703373666E+03  0.29703373668E+03  0.25500000000E-02 0.  1.
    8880023    1    1    2    0    0  0.36821931832E+02 -0.43621416936E+03  0.29260033435E+03  0.84324600096E+03  0.65864270000E+03 0.  1.
    8880022    1    1    2    0    0 -0.36821931832E+02  0.43621416936E+03  0.24543526857E+04  0.24977744925E+04  0.15294330000E+03 0.  0.
<mgrwt>
<rscale>  0 0.69204508E+03</rscale>
<asrwt>0</asrwt>
<pdfrwt beam="1">  1        2 0.46830565E+00 0.79085325E+03</pdfrwt>
<pdfrwt beam="2">  1       -2 0.45697498E-01 0.79085325E+03</pdfrwt>
<totfact> 0.78476725E+00</totfact>
</mgrwt>
</event>
<event>
 4    5  0.2025789E-007  0.7268519E+03  0.7818608E-02  0.9900049E-01
         -2   -1    0    0    0  501 -0.00000000000E+00  0.00000000000E+00  0.12334964874E+03  0.12334964876E+03  0.25500000000E-02 0.  1.
          2   -1    0    0  501    0  0.00000000000E+00 -0.00000000000E+00 -0.40853016227E+04  0.40853016227E+04  0.25500000000E-02 0. -1.
    8880023    1    1    2    0    0 -0.29578411882E+03  0.83756699079E+02 -0.37156809978E+04  0.37861060357E+04  0.65864270000E+03 0. -1.
    8880022    1    1    2    0    0  0.29578411882E+03 -0.83756699079E+02 -0.24627097617E+03  0.42254523581E+03  0.15294330000E+03 0.  0.
<mgrwt>
<rscale>  0 0.60258927E+03</rscale>
<asrwt>0</asrwt>
<pdfrwt beam="1">  1        2 0.62850784E+00 0.72685187E+03</pdfrwt>
<pdfrwt beam="2">  1       -2 0.18976872E-01 0.72685187E+03</pdfrwt>
<totfact> 0.75744039E+00</totfact>
</mgrwt>
</event>
<event>
 4    5  0.2025789E-007  0.1357148E+04  0.7818608E-02  0.9017716E-01
          2   -1    0    0  501    0  0.00000000000E+00  0.00000000000E+00  0.23477830514E+04  0.23477830514E+04  0.25500000000E-02 0. -1.
         -2   -1    0    0    0  501 -0.00000000000E+00 -0.00000000000E+00 -0.69435295972E+03  0.69435295972E+03  0.25500000000E-02 0.  1.
    8880023    1    1    2    0    0 -0.51859228170E+03 -0.10672873139E+04  0.87560094466E+03  0.16150936151E+04  0.65864270000E+03 0. -1.
    8880022    1    1    2    0    0  0.51859228170E+03  0.10672873139E+04  0.77782914698E+03  0.14270423960E+04  0.15294330000E+03 0.  1.
<mgrwt>
<rscale>  0 0.13150483E+04</rscale>
<asrwt>0</asrwt>
<pdfrwt beam="1">  1        2 0.36119739E+00 0.13571479E+04</pdfrwt>
<pdfrwt beam="2">  1       -2 0.10682353E+00 0.13571479E+04</pdfrwt>
<totfact> 0.28973138E+00</totfact>
</mgrwt>
</event>
<event>
 4    5  0.2025789E-007  0.1453531E+04  0.7818608E-02  0.8943166E-01
          2   -1    0    0  501    0  0.00000000000E+00  0.00000000000E+00  0.15191784211E+04  0.15191784211E+04  0.25500000000E-02 0. -1.
         -2   -1    0    0    0  501 -0.00000000000E+00 -0.00000000000E+00 -0.15649170415E+04  0.15649170415E+04  0.25500000000E-02 0.  1.
    8880023    1    1    2    0    0 -0.11424127446E+04  0.61142065111E+03 -0.71260720273E+03  0.16188147896E+04  0.65864270000E+03 0.  1.
    8880022    1    1    2    0    0  0.11424127446E+04 -0.61142065111E+03  0.66686858232E+03  0.14652806730E+04  0.15294330000E+03 0.  0.
<mgrwt>
<rscale>  0 0.14148122E+04</rscale>
<asrwt>0</asrwt>
<pdfrwt beam="1">  1        2 0.23371975E+00 0.14535310E+04</pdfrwt>
<pdfrwt beam="2">  1       -2 0.24075647E+00 0.14535310E+04</pdfrwt>
<totfact> 0.85712316E-01</totfact>
</mgrwt>
</event>
<event>
 4    5  0.2025789E-007  0.7757263E+03  0.7818608E-02  0.9765973E-01
         -2   -1    0    0    0  501 -0.00000000000E+00  0.00000000000E+00  0.67254918095E+03  0.67254918095E+03  0.25500000000E-02 0.  1.
          2   -1    0    0  501    0  0.00000000000E+00 -0.00000000000E+00 -0.13763941234E+04  0.13763941234E+04  0.25500000000E-02 0. -1.
    8880023    1    1    2    0    0 -0.10352861691E+03  0.39651340609E+03 -0.11737713572E+04  0.14069436595E+04  0.65864270000E+03 0. -1.
    8880022    1    1    2    0    0  0.10352861691E+03 -0.39651340609E+03  0.46992641474E+03  0.64199964487E+03  0.15294330000E+03 0.  0.
<mgrwt>
<rscale>  0 0.67221010E+03</rscale>
<asrwt>0</asrwt>
<pdfrwt beam="1">  1        2 0.21175294E+00 0.77572628E+03</pdfrwt>
<pdfrwt beam="2">  1       -2 0.10346910E+00 0.77572628E+03</pdfrwt>
<totfact> 0.11584550E+01</totfact>
</mgrwt>
</event>
<event>
 4    5  0.2025789E-007  0.1488507E+04  0.7818608E-02  0.8917795E-01
          2   -1    0    0  501    0  0.00000000000E+00  0.00000000000E+00  0.21298599248E+04  0.21298599248E+04  0.25500000000E-02 0. -1.
         -2   -1    0    0    0  501 -0.00000000000E+00 -0.00000000000E+00 -0.10753748530E+04  0.10753748530E+04  0.25500000000E-02 0.  1.
    8880023    1    1    2    0    0 -0.58833030282E+03 -0.11982110154E+04  0.11157396791E+04  0.18602492899E+04  0.65864270000E+03 0.  0.
    8880022    1    1    2    0    0  0.58833030282E+03  0.11982110154E+04 -0.61254607322E+02  0.13449854879E+04  0.15294330000E+03 0.  0.
<mgrwt>
<rscale>  0 0.14508743E+04</rscale>
<asrwt>0</asrwt>
<pdfrwt beam="1">  1        2 0.32767076E+00 0.14885068E+04</pdfrwt>
<pdfrwt beam="2">  1       -2 0.16544229E+00 0.14885068E+04</pdfrwt>
<totfact> 0.12258958E+00</totfact>
</mgrwt>
</event>
<event>
 4    5  0.2025789E-007  0.1039269E+04  0.7818608E-02  0.9331895E-01
          2   -1    0    0  501    0  0.00000000000E+00  0.00000000000E+00  0.11665411420E+04  0.11665411420E+04  0.25500000000E-02 0. -1.
         -2   -1    0    0    0  501 -0.00000000000E+00 -0.00000000000E+00 -0.13169964673E+04  0.13169964673E+04  0.25500000000E-02 0.  1.
    8880023    1    1    2    0    0 -0.61448889506E+03 -0.51833612128E+03  0.73875675827E+03  0.12750845819E+04  0.65864270000E+03 0.  0.
    8880022    1    1    2    0    0  0.61448889506E+03  0.51833612128E+03 -0.88921208356E+03  0.12084530274E+04  0.15294330000E+03 0.  0.
<mgrwt>
<rscale>  0 0.97898871E+03</rscale>
<asrwt>0</asrwt>
<pdfrwt beam="1">  1        2 0.17946787E+00 0.10392686E+04</pdfrwt>
<pdfrwt beam="2">  1       -2 0.20261484E+00 0.10392686E+04</pdfrwt>
<totfact> 0.25056673E+00</totfact>
</mgrwt>
</event>
<event>
 4    5  0.2025789E-007  0.1186561E+04  0.7818608E-02  0.9170298E-01
          2   -1    0    0  501    0  0.00000000000E+00  0.00000000000E+00  0.18251676279E+04  0.18251676279E+04  0.25500000000E-02 0. -1.
         -2   -1    0    0    0  501 -0.00000000000E+00 -0.00000000000E+00 -0.90255453348E+03  0.90255453348E+03  0.25500000000E-02 0.  1.
    8880023    1    1    2    0    0  0.98661302935E+03 -0.26691444513E+02 -0.22357444144E+03  0.12074408640E+04  0.65864270000E+03 0.  1.
    8880022    1    1    2    0    0 -0.98661302935E+03  0.26691444513E+02  0.11461875359E+04  0.15202812974E+04  0.15294330000E+03 0.  0.
<mgrwt>
<rscale>  0 0.11365336E+04</rscale>
<asrwt>0</asrwt>
<pdfrwt beam="1">  1        2 0.28079502E+00 0.11865614E+04</pdfrwt>
<pdfrwt beam="2">  1       -2 0.13885454E+00 0.11865614E+04</pdfrwt>
<totfact> 0.29885987E+00</totfact>
</mgrwt>
</event>
<event>
 4    5  0.2025789E-007  0.7841928E+03  0.7818608E-02  0.9746079E-01
         -2   -1    0    0    0  501 -0.00000000000E+00  0.00000000000E+00  0.29805657848E+03  0.29805657849E+03  0.25500000000E-02 0.  1.
          2   -1    0    0  501    0  0.00000000000E+00 -0.00000000000E+00 -0.17519039596E+04  0.17519039596E+04  0.25500000000E-02 0. -1.
    8880023    1    1    2    0    0 -0.33081363886E+01  0.42560224591E+03 -0.13862364958E+04  0.15926738662E+04  0.65864270000E+03 0. -1.
    8880022    1    1    2    0    0  0.33081363886E+01 -0.42560224591E+03 -0.67610885355E+02  0.45728667193E+03  0.15294330000E+03 0.  0.
<mgrwt>
<rscale>  0 0.68338337E+03</rscale>
<asrwt>0</asrwt>
<pdfrwt beam="1">  1        2 0.26952368E+00 0.78419285E+03</pdfrwt>
<pdfrwt beam="2">  1       -2 0.45854859E-01 0.78419285E+03</pdfrwt>
<totfact> 0.42309578E+01</totfact>
</mgrwt>
</event>
<event>
 4    5  0.2025789E-007  0.6658847E+03  0.7818608E-02  0.1018802E+00
         -2   -1    0    0    0  501 -0.00000000000E+00  0.00000000000E+00  0.13779208046E+03  0.13779208049E+03  0.25500000000E-02 0.  1.
          2   -1    0    0  501    0  0.00000000000E+00 -0.00000000000E+00 -0.14219944408E+04  0.14219944408E+04  0.25500000000E-02 0. -1.
    8880023    1    1    2    0    0 -0.93848923392E+02  0.28009679970E+02 -0.78959914761E+03  0.10328935970E+04  0.65864270000E+03 0.  1.
    8880022    1    1    2    0    0  0.93848923392E+02 -0.28009679970E+02 -0.49460321275E+03  0.52689292429E+03  0.15294330000E+03 0.  0.
<mgrwt>
<rscale>  0 0.48121246E+03</rscale>
<asrwt>0</asrwt>
<pdfrwt beam="1">  1        2 0.21876837E+00 0.66588465E+03</pdfrwt>
<pdfrwt beam="2">  1       -2 0.21198783E-01 0.66588465E+03</pdfrwt>
<totfact> 0.27570456E+02</totfact>
</mgrwt>
</event>
<event>
 4    5  0.2025789E-007  0.1174010E+04  0.7818608E-02  0.9182810E-01
          2   -1    0    0  501    0  0.00000000000E+00  0.00000000000E+00  0.28866969823E+04  0.28866969823E+04  0.25500000000E-02 0. -1.
         -2   -1    0    0    0  501 -0.00000000000E+00 -0.00000000000E+00 -0.48423370076E+03  0.48423370077E+03  0.25500000000E-02 0.  1.
    8880023    1    1    2    0    0  0.97013282354E+03 -0.57716362643E+02  0.19764661670E+04  0.22988513630E+04  0.65864270000E+03 0.  0.
    8880022    1    1    2    0    0 -0.97013282354E+03  0.57716362643E+02  0.42599711455E+03  0.10720793200E+04  0.15294330000E+03 0.  0.
<mgrwt>
<rscale>  0 0.11232632E+04</rscale>
<asrwt>0</asrwt>
<pdfrwt beam="1">  1        2 0.44410723E+00 0.11740098E+04</pdfrwt>
<pdfrwt beam="2">  1       -2 0.74497493E-01 0.11740098E+04</pdfrwt>
<totfact> 0.33037299E+00</totfact>
</mgrwt>
</event>
<event>
 4    5  0.2025789E-007  0.1096308E+04  0.7818608E-02  0.9265178E-01
         -2   -1    0    0    0  501 -0.00000000000E+00  0.00000000000E+00  0.66327757677E+03  0.66327757677E+03  0.25500000000E-02 0.  1.
          2   -1    0    0  501    0  0.00000000000E+00 -0.00000000000E+00 -0.17267702361E+04  0.17267702361E+04  0.25500000000E-02 0. -1.
    8880023    1    1    2    0    0  0.59169012802E+03  0.64651604278E+03 -0.13575554838E+03  0.11046809387E+04  0.65864270000E+03 0.  0.
    8880022    1    1    2    0    0 -0.59169012802E+03 -0.64651604278E+03 -0.92773711097E+03  0.12853668742E+04  0.15294330000E+03 0.  0.
<mgrwt>
<rscale>  0 0.10405280E+04</rscale>
<asrwt>0</asrwt>
<pdfrwt beam="1">  1        2 0.26565696E+00 0.10963076E+04</pdfrwt>
<pdfrwt beam="2">  1       -2 0.10204271E+00 0.10963076E+04</pdfrwt>
<totfact> 0.73637723E+00</totfact>
</mgrwt>
</event>
<event>
 4    5  0.2025789E-007  0.3217795E+04  0.7818608E-02  0.8188403E-01
         -2   -1    0    0    0  501 -0.00000000000E+00  0.00000000000E+00  0.41066757155E+04  0.41066757155E+04  0.25500000000E-02 0.  1.
          2   -1    0    0  501    0  0.00000000000E+00 -0.00000000000E+00 -0.33234951061E+04  0.33234951061E+04  0.25500000000E-02 0. -1.
    8880023    1    1    2    0    0  0.23093587928E+04  0.21417885825E+04  0.22759211123E+04  0.39413225549E+04  0.65864270000E+03 0.  0.
    8880022    1    1    2    0    0 -0.23093587928E+04 -0.21417885825E+04 -0.14927405029E+04  0.34888482667E+04  0.15294330000E+03 0.  0.
<mgrwt>
<rscale>  0 0.32015685E+04</rscale>
<asrwt>0</asrwt>
<pdfrwt beam="1">  1        2 0.51130694E+00 0.32177953E+04</pdfrwt>
<pdfrwt beam="2">  1       -2 0.63179626E+00 0.32177953E+04</pdfrwt>
<totfact> 0.31543663E-04</totfact>
</mgrwt>
</event>
<event>
 4    5  0.2025789E-007  0.1728346E+04  0.7818608E-02  0.8763244E-01
         -2   -1    0    0    0  501 -0.00000000000E+00  0.00000000000E+00  0.16690253570E+04  0.16690253570E+04  0.25500000000E-02 0.  1.
          2   -1    0    0  501    0  0.00000000000E+00 -0.00000000000E+00 -0.18674883714E+04  0.18674883714E+04  0.25500000000E-02 0. -1.
    8880023    1    1    2    0    0  0.12527395034E+04 -0.99197391539E+03 -0.68504628595E+03  0.18591576406E+04  0.65864270000E+03 0.  0.
    8880022    1    1    2    0    0 -0.12527395034E+04  0.99197391539E+03  0.48658327147E+03  0.16773560878E+04  0.15294330000E+03 0.  0.
<mgrwt>
<rscale>  0 0.16967084E+04</rscale>
<asrwt>0</asrwt>
<pdfrwt beam="1">  1        2 0.28730590E+00 0.17283457E+04</pdfrwt>
<pdfrwt beam="2">  1       -2 0.25677313E+00 0.17283457E+04</pdfrwt>
<totfact> 0.42375886E-01</totfact>
</mgrwt>
</event>
<event>
 4    5  0.2025789E-007  0.9201829E+03  0.7818608E-02  0.9494379E-01
         -2   -1    0    0    0  501 -0.00000000000E+00  0.00000000000E+00  0.27290262067E+03  0.27290262068E+03  0.25500000000E-02 0.  1.
          2   -1    0    0  501    0  0.00000000000E+00 -0.00000000000E+00 -0.29181226903E+04  0.29181226903E+04  0.25500000000E-02 0. -1.
    8880023    1    1    2    0    0  0.16490271202E+03  0.62107439092E+03 -0.22259621384E+04  0.24086601984E+04  0.65864270000E+03 0. -1.
    8880022    1    1    2    0    0 -0.16490271202E+03 -0.62107439092E+03 -0.41925793123E+03  0.78236511259E+03  0.15294330000E+03 0.  0.
<mgrwt>
<rscale>  0 0.84699529E+03</rscale>
<asrwt>0</asrwt>
<pdfrwt beam="1">  1        2 0.44894193E+00 0.92018287E+03</pdfrwt>
<pdfrwt beam="2">  1       -2 0.41985021E-01 0.92018287E+03</pdfrwt>
<totfact> 0.10865792E+01</totfact>
</mgrwt>
</event>
<event>
 4    5  0.2025789E-007  0.6828219E+03  0.7818608E-02  0.1007770E+00
         -2   -1    0    0    0  501 -0.00000000000E+00  0.00000000000E+00  0.38777904714E+03  0.38777904715E+03  0.25500000000E-02 0.  1.
          2   -1    0    0  501    0  0.00000000000E+00 -0.00000000000E+00 -0.16226717695E+04  0.16226717695E+04  0.25500000000E-02 0. -1.
    8880023    1    1    2    0    0 -0.74646466383E+02  0.16390065545E+03 -0.15043557813E+04  0.16520690188E+04  0.65864270000E+03 0. -1.
    8880022    1    1    2    0    0  0.74646466383E+02 -0.16390065545E+03  0.26946305902E+03  0.35838179780E+03  0.15294330000E+03 0.  0.
<mgrwt>
<rscale>  0 0.52370447E+03</rscale>
<asrwt>0</asrwt>
<pdfrwt beam="1">  1        2 0.24964181E+00 0.68282188E+03</pdfrwt>
<pdfrwt beam="2">  1       -2 0.59658316E-01 0.68282188E+03</pdfrwt>
<totfact> 0.29360935E+01</totfact>
</mgrwt>
</event>
<event>
 4    5  0.2286096E-007  0.8928497E+03  0.7818608E-02  0.9537609E-01
         -2   -1    0    0    0  501 -0.00000000000E+00  0.00000000000E+00  0.14384644764E+04  0.14384644764E+04  0.25500000000E-02 0.  1.
          2   -1    0    0  501    0  0.00000000000E+00 -0.00000000000E+00 -0.17493239633E+04  0.17493239633E+04  0.25500000000E-02 0. -1.
    8880023    1    1    2    0    0  0.52307328112E+03 -0.29960759001E+03 -0.15571412683E+04  0.17949566850E+04  0.65864270000E+03 0. -1.
    8880022    1    1    2    0    0 -0.52307328112E+03  0.29960759001E+03  0.12462817813E+04  0.13928317547E+04  0.15294330000E+03 0.  0.
<mgrwt>
<rscale>  0 0.81566954E+03</rscale>
<asrwt>0</asrwt>
<pdfrwt beam="1">  1        2 0.26912676E+00 0.89284969E+03</pdfrwt>
<pdfrwt beam="2">  1       -2 0.22130223E+00 0.89284969E+03</pdfrwt>
<totfact> 0.90564476E-01</totfact>
</mgrwt>
</event>
<event>
 4    5  0.2025789E-007  0.8933627E+03  0.7818608E-02  0.9536772E-01
         -2   -1    0    0    0  501 -0.00000000000E+00  0.00000000000E+00  0.15045965669E+04  0.15045965669E+04  0.25500000000E-02 0.  1.
          2   -1    0    0  501    0  0.00000000000E+00 -0.00000000000E+00 -0.83354763591E+03  0.83354763591E+03  0.25500000000E-02 0. -1.
    8880023    1    1    2    0    0 -0.27880497427E+03  0.53530783687E+03 -0.49129157814E+03  0.10195412277E+04  0.65864270000E+03 0. -1.
    8880022    1    1    2    0    0  0.27880497427E+03 -0.53530783687E+03  0.11623405092E+04  0.13186029752E+04  0.15294330000E+03 0.  0.
<mgrwt>
<rscale>  0 0.81626242E+03</rscale>
<asrwt>0</asrwt>
<pdfrwt beam="1">  1        2 0.12823810E+00 0.89336269E+03</pdfrwt>
<pdfrwt beam="2">  1       -2 0.23147639E+00 0.89336269E+03</pdfrwt>
<totfact> 0.27497519E+00</totfact>
</mgrwt>
</event>
<event>
 4    5  0.2025789E-007  0.1130049E+04  0.7818608E-02  0.9228316E-01
          2   -1    0    0  501    0  0.00000000000E+00  0.00000000000E+00  0.34761226814E+04  0.34761226814E+04  0.25500000000E-02 0. -1.
         -2   -1    0    0    0  501 -0.00000000000E+00 -0.00000000000E+00 -0.48676365901E+03  0.48676365901E+03  0.25500000000E-02 0.  1.
    8880023    1    1    2    0    0 -0.76943185494E+03  0.50117299335E+03  0.27909778683E+04  0.30110741299E+04  0.65864270000E+03 0. -1.
    8880022    1    1    2    0    0  0.76943185494E+03 -0.50117299335E+03  0.19838115414E+03  0.95181221047E+03  0.15294330000E+03 0.  0.
<mgrwt>
<rscale>  0 0.10765883E+04</rscale>
<asrwt>0</asrwt>
<pdfrwt beam="1">  1        2 0.53478810E+00 0.11300487E+04</pdfrwt>
<pdfrwt beam="2">  1       -2 0.74886717E-01 0.11300487E+04</pdfrwt>
<totfact> 0.13723051E+00</totfact>
</mgrwt>
</event>
<event>
 4    5  0.2025789E-007  0.8652480E+03  0.7818608E-02  0.9584296E-01
          2   -1    0    0  501    0  0.00000000000E+00  0.00000000000E+00  0.11970235022E+04  0.11970235022E+04  0.25500000000E-02 0. -1.
         -2   -1    0    0    0  501 -0.00000000000E+00 -0.00000000000E+00 -0.11770449146E+04  0.11770449146E+04  0.25500000000E-02 0.  1.
    8880023    1    1    2    0    0  0.54425521977E+03  0.13649208625E+03  0.94508258368E+03  0.12813411451E+04  0.65864270000E+03 0.  0.
    8880022    1    1    2    0    0 -0.54425521977E+03 -0.13649208625E+03 -0.92510399609E+03  0.10927272718E+04  0.15294330000E+03 0.  0.
<mgrwt>
<rscale>  0 0.78344378E+03</rscale>
<asrwt>0</asrwt>
<pdfrwt beam="1">  1        2 0.18415746E+00 0.86524796E+03</pdfrwt>
<pdfrwt beam="2">  1       -2 0.18108383E+00 0.86524796E+03</pdfrwt>
<totfact> 0.34160853E+00</totfact>
</mgrwt>
</event>
<event>
 4    5  0.2025789E-007  0.1007034E+04  0.7818608E-02  0.9372413E-01
         -2   -1    0    0    0  501 -0.00000000000E+00  0.00000000000E+00  0.18852627432E+04  0.18852627432E+04  0.25500000000E-02 0.  1.
          2   -1    0    0  501    0  0.00000000000E+00 -0.00000000000E+00 -0.87562893329E+03  0.87562893329E+03  0.25500000000E-02 0. -1.
    8880023    1    1    2    0    0  0.63299136800E+02 -0.75914407941E+03 -0.45335688315E+03  0.11043772833E+04  0.65864270000E+03 0. -1.
    8880022    1    1    2    0    0 -0.63299136800E+02  0.75914407941E+03  0.14629906931E+04  0.16565143933E+04  0.15294330000E+03 0.  0.
<mgrwt>
<rscale>  0 0.94381193E+03</rscale>
<asrwt>0</asrwt>
<pdfrwt beam="1">  1        2 0.13471214E+00 0.10070336E+04</pdfrwt>
<pdfrwt beam="2">  1       -2 0.29004042E+00 0.10070336E+04</pdfrwt>
<totfact> 0.11160842E+00</totfact>
</mgrwt>
</event>
<event>
 4    5  0.2025789E-007  0.1177447E+04  0.7818608E-02  0.9179363E-01
          2   -1    0    0  501    0  0.00000000000E+00  0.00000000000E+00  0.36412834428E+04  0.36412834428E+04  0.25500000000E-02 0. -1.
         -2   -1    0    0    0  501 -0.00000000000E+00 -0.00000000000E+00 -0.62348322568E+03  0.62348322568E+03  0.25500000000E-02 0.  1.
    8880023    1    1    2    0    0  0.54478920728E+03  0.80980031341E+03  0.30571683564E+04  0.32760739298E+04  0.65864270000E+03 0.  0.
    8880022    1    1    2    0    0 -0.54478920728E+03 -0.80980031341E+03 -0.39368139341E+02  0.98869273861E+03  0.15294330000E+03 0.  0.
<mgrwt>
<rscale>  0 0.11268998E+04</rscale>
<asrwt>0</asrwt>
<pdfrwt beam="1">  1        2 0.56019746E+00 0.11774473E+04</pdfrwt>
<pdfrwt beam="2">  1       -2 0.95920495E-01 0.11774473E+04</pdfrwt>
<totfact> 0.59194577E-01</totfact>
</mgrwt>
</event>
<event>
 4    5  0.2025789E-007  0.1563536E+04  0.7818608E-02  0.8866027E-01
          2   -1    0    0  501    0  0.00000000000E+00  0.00000000000E+00  0.13704642268E+04  0.13704642268E+04  0.25500000000E-02 0. -1.
         -2   -1    0    0    0  501 -0.00000000000E+00 -0.00000000000E+00 -0.23160247094E+04  0.23160247094E+04  0.25500000000E-02 0.  1.
    8880023    1    1    2    0    0  0.23505550488E+03 -0.13984220746E+04  0.51391401121E+03  0.16458290331E+04  0.65864270000E+03 0.  0.
    8880022    1    1    2    0    0 -0.23505550488E+03  0.13984220746E+04 -0.14594744937E+04  0.20406599031E+04  0.15294330000E+03 0.  0.
<mgrwt>
<rscale>  0 0.15280265E+04</rscale>
<asrwt>0</asrwt>
<pdfrwt beam="1">  1        2 0.21084065E+00 0.15635362E+04</pdfrwt>
<pdfrwt beam="2">  1       -2 0.35631149E+00 0.15635362E+04</pdfrwt>
<totfact> 0.20011005E-01</totfact>
</mgrwt>
</event>
<event>
 4    5  0.2025789E-007  0.9113096E+03  0.7818608E-02  0.9508115E-01
          2   -1    0    0  501    0  0.00000000000E+00  0.00000000000E+00  0.75058028172E+03  0.75058028172E+03  0.25500000000E-02 0. -1.
         -2   -1    0    0    0  501 -0.00000000000E+00 -0.00000000000E+00 -0.13135271972E+04  0.13135271972E+04  0.25500000000E-02 0.  1.
    8880023    1    1    2    0    0 -0.62511938174E+03  0.76815919639E+02  0.32259596487E+03  0.96672296432E+03  0.65864270000E+03 0.  0.
    8880022    1    1    2    0    0  0.62511938174E+03 -0.76815919639E+02 -0.88554288036E+03  0.10973845146E+04  0.15294330000E+03 0.  0.
<mgrwt>
<rscale>  0 0.83688198E+03</rscale>
<asrwt>0</asrwt>
<pdfrwt beam="1">  1        2 0.11547389E+00 0.91130957E+03</pdfrwt>
<pdfrwt beam="2">  1       -2 0.20208111E+00 0.91130957E+03</pdfrwt>
<totfact> 0.48397579E+00</totfact>
</mgrwt>
</event>
<event>
 4    5  0.2025789E-007  0.1090232E+04  0.7818608E-02  0.9272010E-01
          2   -1    0    0  501    0  0.00000000000E+00  0.00000000000E+00  0.15417340563E+04  0.15417340563E+04  0.25500000000E-02 0. -1.
         -2   -1    0    0    0  501 -0.00000000000E+00 -0.00000000000E+00 -0.70026804409E+03  0.70026804409E+03  0.25500000000E-02 0.  1.
    8880023    1    1    2    0    0  0.10250518669E+03  0.86272129544E+03  0.81194317201E+03  0.13593591386E+04  0.65864270000E+03 0.  0.
    8880022    1    1    2    0    0 -0.10250518669E+03 -0.86272129544E+03  0.29522840218E+02  0.88264296180E+03  0.15294330000E+03 0. -1.
<mgrwt>
<rscale>  0 0.10340098E+04</rscale>
<asrwt>0</asrwt>
<pdfrwt beam="1">  1        2 0.23718985E+00 0.10902319E+04</pdfrwt>
<pdfrwt beam="2">  1       -2 0.10773355E+00 0.10902319E+04</pdfrwt>
<totfact> 0.81942861E+00</totfact>
</mgrwt>
</event>
<event>
 4    5  0.2025789E-007  0.1812627E+04  0.7818608E-02  0.8715584E-01
          2   -1    0    0  501    0  0.00000000000E+00  0.00000000000E+00  0.25367436664E+04  0.25367436664E+04  0.25500000000E-02 0. -1.
         -2   -1    0    0    0  501 -0.00000000000E+00 -0.00000000000E+00 -0.12683668966E+04  0.12683668966E+04  0.25500000000E-02 0.  1.
    8880023    1    1    2    0    0  0.13229815518E+04  0.10495356764E+04  0.25700052269E+03  0.18307552533E+04  0.65864270000E+03 0.  0.
    8880022    1    1    2    0    0 -0.13229815518E+04 -0.10495356764E+04  0.10113762471E+04  0.19743553097E+04  0.15294330000E+03 0.  0.
<mgrwt>
<rscale>  0 0.17826444E+04</rscale>
<asrwt>0</asrwt>
<pdfrwt beam="1">  1        2 0.39026826E+00 0.18126267E+04</pdfrwt>
<pdfrwt beam="2">  1       -2 0.19513337E+00 0.18126267E+04</pdfrwt>
<totfact> 0.43239878E-01</totfact>
</mgrwt>
</event>
<event>
 4    5  0.2025789E-007  0.7347474E+03  0.7818608E-02  0.9875520E-01
          2   -1    0    0  501    0  0.00000000000E+00  0.00000000000E+00  0.28002070935E+04  0.28002070935E+04  0.25500000000E-02 0. -1.
         -2   -1    0    0    0  501 -0.00000000000E+00 -0.00000000000E+00 -0.48181942392E+03  0.48181942392E+03  0.25500000000E-02 0.  1.
    8880023    1    1    2    0    0 -0.15968100351E+03 -0.28380543258E+03  0.26758326653E+04  0.27748755297E+04  0.65864270000E+03 0.  0.
    8880022    1    1    2    0    0  0.15968100351E+03  0.28380543258E+03 -0.35744499567E+03  0.50715098776E+03  0.15294330000E+03 0.  0.
<mgrwt>
<rscale>  0 0.61462482E+03</rscale>
<asrwt>0</asrwt>
<pdfrwt beam="1">  1        2 0.43080108E+00 0.73474741E+03</pdfrwt>
<pdfrwt beam="2">  1       -2 0.74126066E-01 0.73474741E+03</pdfrwt>
<totfact> 0.40265326E+00</totfact>
</mgrwt>
</event>
<event>
 4    5  0.2025789E-007  0.9980439E+03  0.7818608E-02  0.9384121E-01
          2   -1    0    0  501    0  0.00000000000E+00  0.00000000000E+00  0.19649796003E+04  0.19649796003E+04  0.25500000000E-02 0. -1.
         -2   -1    0    0    0  501 -0.00000000000E+00 -0.00000000000E+00 -0.45300580216E+03  0.45300580217E+03  0.25500000000E-02 0.  1.
    8880023    1    1    2    0    0  0.73256554786E+03 -0.16009132211E+03  0.12702311281E+04  0.16154190906E+04  0.65864270000E+03 0. -1.
    8880022    1    1    2    0    0 -0.73256554786E+03  0.16009132211E+03  0.24174267001E+03  0.80256631180E+03  0.15294330000E+03 0.  0.
<mgrwt>
<rscale>  0 0.93394040E+03</rscale>
<asrwt>0</asrwt>
<pdfrwt beam="1">  1        2 0.30230455E+00 0.99804395E+03</pdfrwt>
<pdfrwt beam="2">  1       -2 0.69693201E-01 0.99804395E+03</pdfrwt>
<totfact> 0.13150894E+01</totfact>
</mgrwt>
</event>
<event>
 4    5  0.2199526E-007  0.8620122E+03  0.7818608E-02  0.9589994E-01
          2   -1    0    0  501    0  0.00000000000E+00  0.00000000000E+00  0.25697419122E+04  0.25697419122E+04  0.25500000000E-02 0. -1.
         -2   -1    0    0    0  501 -0.00000000000E+00 -0.00000000000E+00 -0.11940161783E+04  0.11940161783E+04  0.25500000000E-02 0.  1.
    8880023    1    1    2    0    0  0.34384426521E+03 -0.43706507535E+03  0.24210206505E+04  0.25699038806E+04  0.65864270000E+03 0. -1.
    8880022    1    1    2    0    0 -0.34384426521E+03  0.43706507535E+03 -0.10452949166E+04  0.11938542099E+04  0.15294330000E+03 0.  0.
<mgrwt>
<rscale>  0 0.77961987E+03</rscale>
<asrwt>0</asrwt>
<pdfrwt beam="1">  1        2 0.39534490E+00 0.86201216E+03</pdfrwt>
<pdfrwt beam="2">  1       -2 0.18369480E+00 0.86201216E+03</pdfrwt>
<totfact> 0.56009914E-01</totfact>
</mgrwt>
</event>
<event>
 4    5  0.2025789E-007  0.1360247E+04  0.7818608E-02  0.9015204E-01
         -2   -1    0    0    0  501 -0.00000000000E+00  0.00000000000E+00  0.46371637568E+03  0.46371637569E+03  0.25500000000E-02 0.  1.
          2   -1    0    0  501    0  0.00000000000E+00 -0.00000000000E+00 -0.35529477588E+04  0.35529477588E+04  0.25500000000E-02 0. -1.
    8880023    1    1    2    0    0  0.11555989725E+04 -0.28469796193E+03 -0.14933083561E+04  0.20199608826E+04  0.65864270000E+03 0.  1.
    8880022    1    1    2    0    0 -0.11555989725E+04  0.28469796193E+03 -0.15959230270E+04  0.19967032518E+04  0.15294330000E+03 0.  0.
<mgrwt>
<rscale>  0 0.13182663E+04</rscale>
<asrwt>0</asrwt>
<pdfrwt beam="1">  1        2 0.54660733E+00 0.13602471E+04</pdfrwt>
<pdfrwt beam="2">  1       -2 0.71340983E-01 0.13602471E+04</pdfrwt>
<totfact> 0.13104680E+00</totfact>
</mgrwt>
</event>
<event>
 4    5  0.2025789E-007  0.1980436E+04  0.7818608E-02  0.8628790E-01
          2   -1    0    0  501    0  0.00000000000E+00  0.00000000000E+00  0.18526272261E+04  0.18526272261E+04  0.25500000000E-02 0. -1.
         -2   -1    0    0    0  501 -0.00000000000E+00 -0.00000000000E+00 -0.35605299360E+04  0.35605299361E+04  0.25500000000E-02 0.  1.
    8880023    1    1    2    0    0 -0.12630992962E+04  0.13758252159E+04  0.92148432346E+03  0.21843210436E+04  0.65864270000E+03 0.  0.
    8880022    1    1    2    0    0  0.12630992962E+04 -0.13758252159E+04 -0.26293870334E+04  0.32288361186E+04  0.15294330000E+03 0.  0.
<mgrwt>
<rscale>  0 0.19532612E+04</rscale>
<asrwt>0</asrwt>
<pdfrwt beam="1">  1        2 0.28501957E+00 0.19804356E+04</pdfrwt>
<pdfrwt beam="2">  1       -2 0.54777383E+00 0.19804356E+04</pdfrwt>
<totfact> 0.61543722E-03</totfact>
</mgrwt>
</event>
<event>
 4    5  0.2025789E-007  0.1166428E+04  0.7818608E-02  0.9190468E-01
         -2   -1    0    0    0  501 -0.00000000000E+00  0.00000000000E+00  0.18184315188E+04  0.18184315188E+04  0.25500000000E-02 0.  1.
          2   -1    0    0  501    0  0.00000000000E+00 -0.00000000000E+00 -0.75554913920E+03  0.75554913921E+03  0.25500000000E-02 0. -1.
    8880023    1    1    2    0    0  0.71275512239E+03 -0.64708858592E+03  0.48886103400E+02  0.11674517377E+04  0.65864270000E+03 0.  0.
    8880022    1    1    2    0    0 -0.71275512239E+03  0.64708858592E+03  0.10139962762E+04  0.14065289203E+04  0.15294330000E+03 0.  0.
<mgrwt>
<rscale>  0 0.11152354E+04</rscale>
<asrwt>0</asrwt>
<pdfrwt beam="1">  1        2 0.11623833E+00 0.11664278E+04</pdfrwt>
<pdfrwt beam="2">  1       -2 0.27975869E+00 0.11664278E+04</pdfrwt>
<totfact> 0.15426583E+00</totfact>
</mgrwt>
</event>
<event>
 4    5  0.2025789E-007  0.1135283E+04  0.7818608E-02  0.9222754E-01
         -2   -1    0    0    0  501 -0.00000000000E+00  0.00000000000E+00  0.26361014944E+04  0.26361014944E+04  0.25500000000E-02 0.  1.
          2   -1    0    0  501    0  0.00000000000E+00 -0.00000000000E+00 -0.20100416200E+04  0.20100416200E+04  0.25500000000E-02 0. -1.
    8880023    1    1    2    0    0 -0.73312466381E+03 -0.56354645848E+03 -0.17533437195E+04  0.20887988866E+04  0.65864270000E+03 0.  0.
    8880022    1    1    2    0    0  0.73312466381E+03  0.56354645848E+03  0.23794035939E+04  0.25573442277E+04  0.15294330000E+03 0.  0.
<mgrwt>
<rscale>  0 0.10821625E+04</rscale>
<asrwt>0</asrwt>
<pdfrwt beam="1">  1        2 0.30923717E+00 0.11352826E+04</pdfrwt>
<pdfrwt beam="2">  1       -2 0.40555408E+00 0.11352826E+04</pdfrwt>
<totfact> 0.44869145E-02</totfact>
</mgrwt>
</event>
<event>
 4    5  0.2025789E-007  0.1069374E+04  0.7818608E-02  0.9295946E-01
         -2   -1    0    0    0  501 -0.00000000000E+00  0.00000000000E+00  0.40045580447E+03  0.40045580448E+03  0.25500000000E-02 0.  1.
          2   -1    0    0  501    0  0.00000000000E+00 -0.00000000000E+00 -0.30354602157E+04  0.30354602157E+04  0.25500000000E-02 0. -1.
    8880023    1    1    2    0    0  0.56438725853E+03 -0.62547362004E+03 -0.22618410093E+04  0.25018963177E+04  0.65864270000E+03 0. -1.
    8880022    1    1    2    0    0 -0.56438725853E+03  0.62547362004E+03 -0.37316340185E+03  0.93401970239E+03  0.15294330000E+03 0.  0.
<mgrwt>
<rscale>  0 0.10115694E+04</rscale>
<asrwt>0</asrwt>
<pdfrwt beam="1">  1        2 0.46699386E+00 0.10693739E+04</pdfrwt>
<pdfrwt beam="2">  1       -2 0.61608587E-01 0.10693739E+04</pdfrwt>
<totfact> 0.41046180E+00</totfact>
</mgrwt>
</event>
<event>
 4    5  0.2025789E-007  0.1128328E+04  0.7818608E-02  0.9230153E-01
          2   -1    0    0  501    0  0.00000000000E+00  0.00000000000E+00  0.25760275556E+04  0.25760275556E+04  0.25500000000E-02 0. -1.
         -2   -1    0    0    0  501 -0.00000000000E+00 -0.00000000000E+00 -0.13048963348E+04  0.13048963348E+04  0.25500000000E-02 0.  1.
    8880023    1    1    2    0    0  0.12159304234E+03 -0.90803607759E+03  0.22589152743E+04  0.25250391698E+04  0.65864270000E+03 0. -1.
    8880022    1    1    2    0    0 -0.12159304234E+03  0.90803607759E+03 -0.98778405351E+03  0.13558847206E+04  0.15294330000E+03 0.  0.
<mgrwt>
<rscale>  0 0.10747549E+04</rscale>
<asrwt>0</asrwt>
<pdfrwt beam="1">  1        2 0.39631193E+00 0.11283282E+04</pdfrwt>
<pdfrwt beam="2">  1       -2 0.20075328E+00 0.11283282E+04</pdfrwt>
<totfact> 0.40805829E-01</totfact>
</mgrwt>
</event>
<event>
 4    5  0.2025789E-007  0.7783132E+03  0.7818608E-02  0.9759814E-01
          2   -1    0    0  501    0  0.00000000000E+00  0.00000000000E+00  0.13273955887E+04  0.13273955887E+04  0.25500000000E-02 0. -1.
         -2   -1    0    0    0  501 -0.00000000000E+00 -0.00000000000E+00 -0.33126587739E+03  0.33126587740E+03  0.25500000000E-02 0.  1.
    8880023    1    1    2    0    0  0.41466314511E+03 -0.39624153626E+01  0.30012003741E+03  0.83417232499E+03  0.65864270000E+03 0.  0.
    8880022    1    1    2    0    0 -0.41466314511E+03  0.39624153626E+01  0.69600967389E+03  0.82448914111E+03  0.15294330000E+03 0.  0.
<mgrwt>
<rscale>  0 0.67564454E+03</rscale>
<asrwt>0</asrwt>
<pdfrwt beam="1">  1        2 0.20421470E+00 0.77831320E+03</pdfrwt>
<pdfrwt beam="2">  1       -2 0.50963982E-01 0.77831320E+03</pdfrwt>
<totfact> 0.58922617E+01</totfact>
</mgrwt>
</event>
<event>
 4    5  0.2025789E-007  0.7503850E+03  0.7818608E-02  0.9830667E-01
         -2   -1    0    0    0  501 -0.00000000000E+00  0.00000000000E+00  0.15327930829E+03  0.15327930831E+03  0.25500000000E-02 0.  1.
          2   -1    0    0  501    0  0.00000000000E+00 -0.00000000000E+00 -0.30241138466E+04  0.30241138466E+04  0.25500000000E-02 0. -1.
    8880023    1    1    2    0    0  0.35908364201E+03 -0.18066257348E+02 -0.25892249851E+04  0.26957677350E+04  0.65864270000E+03 0. -1.
    8880022    1    1    2    0    0 -0.35908364201E+03  0.18066257348E+02 -0.28160955329E+03  0.48162541994E+03  0.15294330000E+03 0.  0.
<mgrwt>
<rscale>  0 0.63742406E+03</rscale>
<asrwt>0</asrwt>
<pdfrwt beam="1">  1        2 0.46524824E+00 0.75038501E+03</pdfrwt>
<pdfrwt beam="2">  1       -2 0.23581434E-01 0.75038501E+03</pdfrwt>
<totfact> 0.28340697E+01</totfact>
</mgrwt>
</event>
<event>
 4    5  0.2025789E-007  0.8029930E+03  0.7818608E-02  0.9704362E-01
          2   -1    0    0  501    0  0.00000000000E+00  0.00000000000E+00  0.25147984034E+04  0.25147984034E+04  0.25500000000E-02 0. -1.
         -2   -1    0    0    0  501 -0.00000000000E+00 -0.00000000000E+00 -0.32821974427E+03  0.32821974428E+03  0.25500000000E-02 0.  1.
    8880023    1    1    2    0    0 -0.35346195657E+03 -0.29334648975E+03  0.22169948736E+04  0.23579363846E+04  0.65864270000E+03 0.  0.
    8880022    1    1    2    0    0  0.35346195657E+03  0.29334648975E+03 -0.30416214488E+02  0.48508176312E+03  0.15294330000E+03 0.  0.
<mgrwt>
<rscale>  0 0.70757697E+03</rscale>
<asrwt>0</asrwt>
<pdfrwt beam="1">  1        2 0.38689208E+00 0.80299298E+03</pdfrwt>
<pdfrwt beam="2">  1       -2 0.50495343E-01 0.80299298E+03</pdfrwt>
<totfact> 0.13156618E+01</totfact>
</mgrwt>
</event>
<event>
 4    5  0.2025789E-007  0.6778514E+03  0.7818608E-02  0.1010566E+00
          2   -1    0    0  501    0  0.00000000000E+00  0.00000000000E+00  0.10797816315E+04  0.10797816315E+04  0.25500000000E-02 0. -1.
         -2   -1    0    0    0  501 -0.00000000000E+00 -0.00000000000E+00 -0.41868560962E+03  0.41868560963E+03  0.25500000000E-02 0.  1.
    8880023    1    1    2    0    0 -0.94638495228E+02  0.12928985148E+03  0.92953300421E+03  0.11504408384E+04  0.65864270000E+03 0.  0.
    8880022    1    1    2    0    0  0.94638495228E+02 -0.12928985148E+03 -0.26843698235E+03  0.34802640271E+03  0.15294330000E+03 0.  1.
<mgrwt>
<rscale>  0 0.51250275E+03</rscale>
<asrwt>0</asrwt>
<pdfrwt beam="1">  1        2 0.16612025E+00 0.67785140E+03</pdfrwt>
<pdfrwt beam="2">  1       -2 0.64413171E-01 0.67785140E+03</pdfrwt>
<totfact> 0.51079248E+01</totfact>
</mgrwt>
</event>
<event>
 4    5  0.2025789E-007  0.9130453E+03  0.7818608E-02  0.9505406E-01
         -2   -1    0    0    0  501 -0.00000000000E+00  0.00000000000E+00  0.94622957082E+03  0.94622957082E+03  0.25500000000E-02 0.  1.
          2   -1    0    0  501    0  0.00000000000E+00 -0.00000000000E+00 -0.85199742081E+03  0.85199742081E+03  0.25500000000E-02 0. -1.
    8880023    1    1    2    0    0  0.15644786179E+03  0.61267092715E+03 -0.38429644963E+03  0.99062382663E+03  0.65864270000E+03 0.  0.
    8880022    1    1    2    0    0 -0.15644786179E+03 -0.61267092715E+03  0.47852859964E+03  0.80760316500E+03  0.15294330000E+03 0.  0.
<mgrwt>
<rscale>  0 0.83886434E+03</rscale>
<asrwt>0</asrwt>
<pdfrwt beam="1">  1        2 0.13107653E+00 0.91304535E+03</pdfrwt>
<pdfrwt beam="2">  1       -2 0.14557378E+00 0.91304535E+03</pdfrwt>
<totfact> 0.10254736E+01</totfact>
</mgrwt>
</event>
<event>
 4    5  0.2025789E-007  0.9559112E+03  0.7818608E-02  0.9441660E-01
         -2   -1    0    0    0  501 -0.00000000000E+00  0.00000000000E+00  0.10769047030E+04  0.10769047030E+04  0.25500000000E-02 0.  1.
          2   -1    0    0  501    0  0.00000000000E+00 -0.00000000000E+00 -0.79452001302E+03  0.79452001303E+03  0.25500000000E-02 0. -1.
    8880023    1    1    2    0    0  0.67613595394E+03 -0.15098409020E+03 -0.24571114564E+03  0.98698540874E+03  0.65864270000E+03 0. -1.
    8880022    1    1    2    0    0 -0.67613595394E+03  0.15098409020E+03  0.52809583566E+03  0.88443930734E+03  0.15294330000E+03 0.  0.
<mgrwt>
<rscale>  0 0.88725136E+03</rscale>
<asrwt>0</asrwt>
<pdfrwt beam="1">  1        2 0.12223385E+00 0.95591120E+03</pdfrwt>
<pdfrwt beam="2">  1       -2 0.16567765E+00 0.95591120E+03</pdfrwt>
<totfact> 0.79244724E+00</totfact>
</mgrwt>
</event>
<event>
 4    5  0.2025789E-007  0.1166658E+04  0.7818608E-02  0.9190235E-01
          2   -1    0    0  501    0  0.00000000000E+00  0.00000000000E+00  0.90412345541E+03  0.90412345541E+03  0.25500000000E-02 0. -1.
         -2   -1    0    0    0  501 -0.00000000000E+00 -0.00000000000E+00 -0.14759820273E+04  0.14759820273E+04  0.25500000000E-02 0.  1.
    8880023    1    1    2    0    0 -0.15241985946E+02  0.96283325247E+03  0.13694839907E+03  0.11746681491E+04  0.65864270000E+03 0.  0.
    8880022    1    1    2    0    0  0.15241985946E+02 -0.96283325247E+03 -0.70880697096E+03  0.12054373336E+04  0.15294330000E+03 0.  0.
<mgrwt>
<rscale>  0 0.11154791E+04</rscale>
<asrwt>0</asrwt>
<pdfrwt beam="1">  1        2 0.13909592E+00 0.11666578E+04</pdfrwt>
<pdfrwt beam="2">  1       -2 0.22707416E+00 0.11666578E+04</pdfrwt>
<totfact> 0.25392878E+00</totfact>
</mgrwt>
</event>
<event>
 4    5  0.2025789E-007  0.6604592E+03  0.7818608E-02  0.1023691E+00
          2   -1    0    0  501    0  0.00000000000E+00  0.00000000000E+00  0.25194002088E+03  0.25194002090E+03  0.25500000000E-02 0. -1.
         -2   -1    0    0    0  501 -0.00000000000E+00 -0.00000000000E+00 -0.25160514669E+04  0.25160514669E+04  0.25500000000E-02 0.  1.
    8880023    1    1    2    0    0  0.36290047563E+02 -0.32851111545E+02 -0.18940738920E+03  0.68708189354E+03  0.65864270000E+03 0. -1.
    8880022    1    1    2    0    0 -0.36290047563E+02  0.32851111545E+02 -0.20747040568E+04  0.20809095942E+04  0.15294330000E+03 0.  0.
<mgrwt>
<rscale>  0 0.46377926E+03</rscale>
<asrwt>0</asrwt>
<pdfrwt beam="1">  1        2 0.38760005E-01 0.66045921E+03</pdfrwt>
<pdfrwt beam="2">  1       -2 0.38708482E+00 0.66045921E+03</pdfrwt>
<totfact> 0.12933878E+00</totfact>
</mgrwt>
</event>
<event>
 4    5  0.2025789E-007  0.1002062E+04  0.7818608E-02  0.9378865E-01
         -2   -1    0    0    0  501 -0.00000000000E+00  0.00000000000E+00  0.14438599829E+04  0.14438599829E+04  0.25500000000E-02 0.  1.
          2   -1    0    0  501    0  0.00000000000E+00 -0.00000000000E+00 -0.10848697956E+04  0.10848697956E+04  0.25500000000E-02 0. -1.
    8880023    1    1    2    0    0 -0.70330433929E+03  0.27510089653E+03 -0.69763812377E+03  0.12209941257E+04  0.65864270000E+03 0.  0.
    8880022    1    1    2    0    0  0.70330433929E+03 -0.27510089653E+03  0.10566283110E+04  0.13077356528E+04  0.15294330000E+03 0.  0.
<mgrwt>
<rscale>  0 0.93835587E+03</rscale>
<asrwt>0</asrwt>
<pdfrwt beam="1">  1        2 0.16690305E+00 0.10020617E+04</pdfrwt>
<pdfrwt beam="2">  1       -2 0.22213230E+00 0.10020617E+04</pdfrwt>
<totfact> 0.21191370E+00</totfact>
</mgrwt>
</event>
<event>
 4    5  0.3108079E-007  0.1152406E+04  0.7818608E-02  0.9204835E-01
         -2   -1    0    0    0  501 -0.00000000000E+00  0.00000000000E+00  0.19399145478E+04  0.19399145478E+04  0.25500000000E-02 0.  1.
          2   -1    0    0  501    0  0.00000000000E+00 -0.00000000000E+00 -0.18531812435E+04  0.18531812435E+04  0.25500000000E-02 0. -1.
    8880023    1    1    2    0    0 -0.84438896723E+03 -0.42571896598E+03 -0.15290557530E+04  0.19146934658E+04  0.65864270000E+03 0.  0.
    8880022    1    1    2    0    0  0.84438896723E+03  0.42571896598E+03  0.16157890573E+04  0.18784023255E+04  0.15294330000E+03 0.  0.
<mgrwt>
<rscale>  0 0.11003657E+04</rscale>
<asrwt>0</asrwt>
<pdfrwt beam="1">  1        2 0.28510481E+00 0.11524060E+04</pdfrwt>
<pdfrwt beam="2">  1       -2 0.29844839E+00 0.11524060E+04</pdfrwt>
<totfact> 0.25747754E-01</totfact>
</mgrwt>
</event>
<event>
 4    5  0.2025789E-007  0.8403860E+03  0.7818608E-02  0.9629453E-01
         -2   -1    0    0    0  501 -0.00000000000E+00  0.00000000000E+00  0.10232739743E+04  0.10232739743E+04  0.25500000000E-02 0.  1.
          2   -1    0    0  501    0  0.00000000000E+00 -0.00000000000E+00 -0.58509859283E+03  0.58509859283E+03  0.25500000000E-02 0. -1.
    8880023    1    1    2    0    0 -0.29819818563E+03  0.42838790536E+03 -0.96213562861E+02  0.84587564767E+03  0.65864270000E+03 0. -1.
    8880022    1    1    2    0    0  0.29819818563E+03 -0.42838790536E+03  0.53438894436E+03  0.76249691950E+03  0.15294330000E+03 0.  0.
<mgrwt>
<rscale>  0 0.75377090E+03</rscale>
<asrwt>0</asrwt>
<pdfrwt beam="1">  1        2 0.90015169E-01 0.84038596E+03</pdfrwt>
<pdfrwt beam="2">  1       -2 0.15742676E+00 0.84038596E+03</pdfrwt>
<totfact> 0.13544080E+01</totfact>
</mgrwt>
</event>
<event>
 4    5  0.2025789E-007  0.1056036E+04  0.7818608E-02  0.9311660E-01
         -2   -1    0    0    0  501 -0.00000000000E+00  0.00000000000E+00  0.72604849114E+03  0.72604849115E+03  0.25500000000E-02 0.  1.
          2   -1    0    0  501    0  0.00000000000E+00 -0.00000000000E+00 -0.34631735253E+04  0.34631735253E+04  0.25500000000E-02 0. -1.
    8880023    1    1    2    0    0  0.95226858658E+02 -0.81995932329E+03 -0.30997744647E+04  0.32747234058E+04  0.65864270000E+03 0.  0.
    8880022    1    1    2    0    0 -0.95226858658E+02  0.81995932329E+03  0.36264943049E+03  0.91449861067E+03  0.15294330000E+03 0.  0.
<mgrwt>
<rscale>  0 0.99716423E+03</rscale>
<asrwt>0</asrwt>
<pdfrwt beam="1">  1        2 0.53279592E+00 0.10560358E+04</pdfrwt>
<pdfrwt beam="2">  1       -2 0.11169977E+00 0.10560358E+04</pdfrwt>
<totfact> 0.55756142E-01</totfact>
</mgrwt>
</event>
<event>
 4    5  0.2025789E-007  0.1211528E+04  0.7818608E-02  0.9145997E-01
         -2   -1    0    0    0  501 -0.00000000000E+00  0.00000000000E+00  0.18412154732E+04  0.18412154732E+04  0.25500000000E-02 0.  1.
          2   -1    0    0  501    0  0.00000000000E+00 -0.00000000000E+00 -0.30482995179E+04  0.30482995179E+04  0.25500000000E-02 0. -1.
    8880023    1    1    2    0    0 -0.75968698600E+03 -0.67591790190E+03 -0.27673185825E+04  0.30209024596E+04  0.65864270000E+03 0.  0.
    8880022    1    1    2    0    0  0.75968698600E+03  0.67591790190E+03  0.15602345378E+04  0.18686125315E+04  0.15294330000E+03 0.  0.
<mgrwt>
<rscale>  0 0.11628641E+04</rscale>
<asrwt>0</asrwt>
<pdfrwt beam="1">  1        2 0.46896916E+00 0.12115278E+04</pdfrwt>
<pdfrwt beam="2">  1       -2 0.28326392E+00 0.12115278E+04</pdfrwt>
<totfact> 0.64370325E-02</totfact>
</mgrwt>
</event>
<event>
 4    5  0.2025789E-007  0.9417928E+03  0.7818608E-02  0.9462022E-01
         -2   -1    0    0    0  501 -0.00000000000E+00  0.00000000000E+00  0.30794125103E+03  0.30794125104E+03  0.25500000000E-02 0.  1.
          2   -1    0    0  501    0  0.00000000000E+00 -0.00000000000E+00 -0.28456653939E+04  0.28456653939E+04  0.25500000000E-02 0. -1.
    8880023    1    1    2    0    0  0.42680125761E+03  0.52058065581E+03 -0.21829599394E+04  0.23774540660E+04  0.65864270000E+03 0.  0.
    8880022    1    1    2    0    0 -0.42680125761E+03 -0.52058065581E+03 -0.35476420346E+03  0.77615257893E+03  0.15294330000E+03 0.  0.
<mgrwt>
<rscale>  0 0.87142635E+03</rscale>
<asrwt>0</asrwt>
<pdfrwt beam="1">  1        2 0.43779466E+00 0.94179283E+03</pdfrwt>
<pdfrwt beam="2">  1       -2 0.47375579E-01 0.94179283E+03</pdfrwt>
<totfact> 0.94116452E+00</totfact>
</mgrwt>
</event>
<event>
 4    5  0.2025789E-007  0.8548200E+03  0.7818608E-02  0.9602845E-01
          2   -1    0    0  501    0  0.00000000000E+00  0.00000000000E+00  0.19966281135E+04  0.19966281135E+04  0.25500000000E-02 0. -1.
         -2   -1    0    0    0  501 -0.00000000000E+00 -0.00000000000E+00 -0.38108556720E+03  0.38108556721E+03  0.25500000000E-02 0.  1.
    8880023    1    1    2    0    0 -0.54457831256E+03  0.18480384751E+02  0.15970855947E+04  0.18114634046E+04  0.65864270000E+03 0. -1.
    8880022    1    1    2    0    0  0.54457831256E+03 -0.18480384751E+02  0.18456951607E+02  0.56625027612E+03  0.15294330000E+03 0.  0.
<mgrwt>
<rscale>  0 0.77108173E+03</rscale>
<asrwt>0</asrwt>
<pdfrwt beam="1">  1        2 0.30717355E+00 0.85482002E+03</pdfrwt>
<pdfrwt beam="2">  1       -2 0.58628549E-01 0.85482002E+03</pdfrwt>
<totfact> 0.18615309E+01</totfact>
</mgrwt>
</event>
<event>
 4    5  0.2025789E-007  0.1327485E+04  0.7818608E-02  0.9042181E-01
         -2   -1    0    0    0  501 -0.00000000000E+00  0.00000000000E+00  0.93014857968E+03  0.93014857969E+03  0.25500000000E-02 0.  1.
          2   -1    0    0  501    0  0.00000000000E+00 -0.00000000000E+00 -0.17274363486E+04  0.17274363486E+04  0.25500000000E-02 0. -1.
    8880023    1    1    2    0    0 -0.10947003598E+04 -0.36060589229E+03 -0.17532683669E+03  0.13390127681E+04  0.65864270000E+03 0.  0.
    8880022    1    1    2    0    0  0.10947003598E+04  0.36060589229E+03 -0.62196093223E+03  0.13185721602E+04  0.15294330000E+03 0.  0.
<mgrwt>
<rscale>  0 0.12842101E+04</rscale>
<asrwt>0</asrwt>
<pdfrwt beam="1">  1        2 0.26575944E+00 0.13274847E+04</pdfrwt>
<pdfrwt beam="2">  1       -2 0.14309978E+00 0.13274847E+04</pdfrwt>
<totfact> 0.30861266E+00</totfact>
</mgrwt>
</event>
<event>
 4    5  0.2025789E-007  0.1028332E+04  0.7818608E-02  0.9345394E-01
         -2   -1    0    0    0  501 -0.00000000000E+00  0.00000000000E+00  0.67004210756E+03  0.67004210757E+03  0.25500000000E-02 0.  1.
          2   -1    0    0  501    0  0.00000000000E+00 -0.00000000000E+00 -0.16050722602E+04  0.16050722602E+04  0.25500000000E-02 0. -1.
    8880023    1    1    2    0    0  0.76578955509E+03  0.19293459881E+03  0.17361938327E+02  0.10284789960E+04  0.65864270000E+03 0.  0.
    8880022    1    1    2    0    0 -0.76578955509E+03 -0.19293459881E+03 -0.95239209093E+03  0.12466353717E+04  0.15294330000E+03 0.  0.
<mgrwt>
<rscale>  0 0.96709091E+03</rscale>
<asrwt>0</asrwt>
<pdfrwt beam="1">  1        2 0.24693419E+00 0.10283324E+04</pdfrwt>
<pdfrwt beam="2">  1       -2 0.10308340E+00 0.10283324E+04</pdfrwt>
<totfact> 0.84531734E+00</totfact>
</mgrwt>
</event>
<event>
 4    5  0.2025789E-007  0.6825678E+03  0.7818608E-02  0.1007907E+00
          2   -1    0    0  501    0  0.00000000000E+00  0.00000000000E+00  0.25383309600E+04  0.25383309600E+04  0.25500000000E-02 0. -1.
         -2   -1    0    0    0  501 -0.00000000000E+00 -0.00000000000E+00 -0.43664321862E+03  0.43664321862E+03  0.25500000000E-02 0.  1.
    8880023    1    1    2    0    0 -0.87166678270E+02 -0.15649468629E+03  0.24562380571E+04  0.25493144600E+04  0.65864270000E+03 0. -1.
    8880022    1    1    2    0    0  0.87166678270E+02  0.15649468629E+03 -0.35455031573E+03  0.42565971860E+03  0.15294330000E+03 0.  0.
<mgrwt>
<rscale>  0 0.52315054E+03</rscale>
<asrwt>0</asrwt>
<pdfrwt beam="1">  1        2 0.39051246E+00 0.68256782E+03</pdfrwt>
<pdfrwt beam="2">  1       -2 0.67175879E-01 0.68256782E+03</pdfrwt>
<totfact> 0.71511267E+00</totfact>
</mgrwt>
</event>
<event>
 4    5  0.2025789E-007  0.1422228E+04  0.7818608E-02  0.8966600E-01
          2   -1    0    0  501    0  0.00000000000E+00  0.00000000000E+00  0.24056902080E+04  0.24056902080E+04  0.25500000000E-02 0. -1.
         -2   -1    0    0    0  501 -0.00000000000E+00 -0.00000000000E+00 -0.13159062973E+04  0.13159062973E+04  0.25500000000E-02 0.  1.
    8880023    1    1    2    0    0  0.38036246318E+03 -0.12017685461E+04  0.17783727539E+04  0.22771348445E+04  0.65864270000E+03 0. -1.
    8880022    1    1    2    0    0 -0.38036246318E+03  0.12017685461E+04 -0.68858884316E+03  0.14444616609E+04  0.15294330000E+03 0.  0.
<mgrwt>
<rscale>  0 0.13824780E+04</rscale>
<asrwt>0</asrwt>
<pdfrwt beam="1">  1        2 0.37010618E+00 0.14222283E+04</pdfrwt>
<pdfrwt beam="2">  1       -2 0.20244712E+00 0.14222283E+04</pdfrwt>
<totfact> 0.47925067E-01</totfact>
</mgrwt>
</event>
<event>
 4    5  0.2025789E-007  0.7017067E+03  0.7818608E-02  0.9990193E-01
         -2   -1    0    0    0  501 -0.00000000000E+00  0.00000000000E+00  0.45738633679E+03  0.45738633679E+03  0.25500000000E-02 0.  1.
          2   -1    0    0  501    0  0.00000000000E+00 -0.00000000000E+00 -0.74267670550E+03  0.74267670551E+03  0.25500000000E-02 0. -1.
    8880023    1    1    2    0    0 -0.26052610182E+02 -0.24063122013E+03 -0.48322264849E+03  0.85199557328E+03  0.65864270000E+03 0.  1.
    8880022    1    1    2    0    0  0.26052610182E+02  0.24063122013E+03  0.19793227978E+03  0.34806746903E+03  0.15294330000E+03 0.  1.
<mgrwt>
<rscale>  0 0.56082336E+03</rscale>
<asrwt>0</asrwt>
<pdfrwt beam="1">  1        2 0.11425795E+00 0.70170673E+03</pdfrwt>
<pdfrwt beam="2">  1       -2 0.70367129E-01 0.70170673E+03</pdfrwt>
<totfact> 0.70938211E+01</totfact>
</mgrwt>
</event>
<event>
 4    5  0.2025789E-007  0.7300299E+03  0.7818608E-02  0.9890003E-01
         -2   -1    0    0    0  501 -0.00000000000E+00  0.00000000000E+00  0.13647110242E+04  0.13647110242E+04  0.25500000000E-02 0.  1.
          2   -1    0    0  501    0  0.00000000000E+00 -0.00000000000E+00 -0.57631040934E+03  0.57631040935E+03  0.25500000000E-02 0. -1.
    8880023    1    1    2    0    0  0.31016610641E+03 -0.54132824099E+02 -0.30632679030E+03  0.79169418649E+03  0.65864270000E+03 0. -1.
    8880022    1    1    2    0    0 -0.31016610641E+03  0.54132824099E+02  0.10947274051E+04  0.11493272470E+04  0.15294330000E+03 0.  0.
<mgrwt>
<rscale>  0 0.60748221E+03</rscale>
<asrwt>0</asrwt>
<pdfrwt beam="1">  1        2 0.88663141E-01 0.73002985E+03</pdfrwt>
<pdfrwt beam="2">  1       -2 0.20995554E+00 0.73002985E+03</pdfrwt>
<totfact> 0.61097711E+00</totfact>
</mgrwt>
</event>
<event>
 4    5  0.2025789E-007  0.7936607E+03  0.7818608E-02  0.9724674E-01
         -2   -1    0    0    0  501 -0.00000000000E+00  0.00000000000E+00  0.99171864501E+03  0.99171864502E+03  0.25500000000E-02 0.  1.
          2   -1    0    0  501    0  0.00000000000E+00 -0.00000000000E+00 -0.90697220227E+03  0.90697220227E+03  0.25500000000E-02 0. -1.
    8880023    1    1    2    0    0  0.28931616295E+03  0.33523604712E+03 -0.65096847527E+03  0.10264780619E+04  0.65864270000E+03 0.  0.
    8880022    1    1    2    0    0 -0.28931616295E+03 -0.33523604712E+03  0.73571491802E+03  0.87221278542E+03  0.15294330000E+03 0.  0.
<mgrwt>
<rscale>  0 0.69566506E+03</rscale>
<asrwt>0</asrwt>
<pdfrwt beam="1">  1        2 0.13953419E+00 0.79366067E+03</pdfrwt>
<pdfrwt beam="2">  1       -2 0.15257210E+00 0.79366067E+03</pdfrwt>
<totfact> 0.84083553E+00</totfact>
</mgrwt>
</event>
<event>
 4    5  0.2025789E-007  0.1474028E+04  0.7818608E-02  0.8928197E-01
         -2   -1    0    0    0  501 -0.00000000000E+00  0.00000000000E+00  0.17916663574E+04  0.17916663574E+04  0.25500000000E-02 0.  1.
          2   -1    0    0  501    0  0.00000000000E+00 -0.00000000000E+00 -0.25667506962E+04  0.25667506962E+04  0.25500000000E-02 0. -1.
    8880023    1    1    2    0    0 -0.10944941672E+04 -0.73554784037E+03 -0.20452816821E+04  0.25210980689E+04  0.65864270000E+03 0.  0.
    8880022    1    1    2    0    0  0.10944941672E+04  0.73554784037E+03  0.12701973433E+04  0.18373189847E+04  0.15294330000E+03 0.  0.
<mgrwt>
<rscale>  0 0.14359539E+04</rscale>
<asrwt>0</asrwt>
<pdfrwt beam="1">  1        2 0.39488472E+00 0.14740279E+04</pdfrwt>
<pdfrwt beam="2">  1       -2 0.27564098E+00 0.14740279E+04</pdfrwt>
<totfact> 0.13414397E-01</totfact>
</mgrwt>
</event>
<event>
 4    5  0.2025789E-007  0.7276050E+03  0.7818608E-02  0.9897646E-01
          2   -1    0    0  501    0  0.00000000000E+00  0.00000000000E+00  0.12294289485E+04  0.12294289485E+04  0.25500000000E-02 0. -1.
         -2   -1    0    0    0  501 -0.00000000000E+00 -0.00000000000E+00 -0.86388619081E+03  0.86388619081E+03  0.25500000000E-02 0.  1.
    8880023    1    1    2    0    0  0.30731841985E+03 -0.33974252933E+02  0.10786762314E+04  0.13011346893E+04  0.65864270000E+03 0. -1.
    8880022    1    1    2    0    0 -0.30731841985E+03  0.33974252933E+02 -0.71313347376E+03  0.79218045005E+03  0.15294330000E+03 0.  0.
<mgrwt>
<rscale>  0 0.60375509E+03</rscale>
<asrwt>0</asrwt>
<pdfrwt beam="1">  1        2 0.18914292E+00 0.72760502E+03</pdfrwt>
<pdfrwt beam="2">  1       -2 0.13290557E+00 0.72760502E+03</pdfrwt>
<totfact> 0.76468473E+00</totfact>
</mgrwt>
</event>
<event>
 4    5  0.2025789E-007  0.8822811E+03  0.7818608E-02  0.9555097E-01
         -2   -1    0    0    0  501 -0.00000000000E+00  0.00000000000E+00  0.63693374180E+03  0.63693374181E+03  0.25500000000E-02 0.  1.
          2   -1    0    0  501    0  0.00000000000E+00 -0.00000000000E+00 -0.13995512675E+04  0.13995512675E+04  0.25500000000E-02 0. -1.
    8880023    1    1    2    0    0 -0.78564160999E+02  0.58175375938E+03 -0.10447539149E+04  0.13674540990E+04  0.65864270000E+03 0. -1.
    8880022    1    1    2    0    0  0.78564160999E+02 -0.58175375938E+03  0.28213638912E+03  0.66903091037E+03  0.15294330000E+03 0.  0.
<mgrwt>
<rscale>  0 0.80340850E+03</rscale>
<asrwt>0</asrwt>
<pdfrwt beam="1">  1        2 0.21531558E+00 0.88228112E+03</pdfrwt>
<pdfrwt beam="2">  1       -2 0.97989807E-01 0.88228112E+03</pdfrwt>
<totfact> 0.12634658E+01</totfact>
</mgrwt>
</event>
<event>
 4    5  0.2477485E-007  0.1212861E+04  0.7818608E-02  0.9144721E-01
         -2   -1    0    0    0  501 -0.00000000000E+00  0.00000000000E+00  0.12275567799E+04  0.12275567799E+04  0.25500000000E-02 0.  1.
          2   -1    0    0  501    0  0.00000000000E+00 -0.00000000000E+00 -0.20594430524E+04  0.20594430524E+04  0.25500000000E-02 0. -1.
    8880023    1    1    2    0    0 -0.90866373677E+03 -0.45994834063E+03 -0.15960493237E+04  0.20045961969E+04  0.65864270000E+03 0.  0.
    8880022    1    1    2    0    0  0.90866373677E+03  0.45994834063E+03  0.76416305119E+03  0.12824036355E+04  0.15294330000E+03 0.  0.
<mgrwt>
<rscale>  0 0.11642681E+04</rscale>
<asrwt>0</asrwt>
<pdfrwt beam="1">  1        2 0.31683739E+00 0.12128613E+04</pdfrwt>
<pdfrwt beam="2">  1       -2 0.18885489E+00 0.12128613E+04</pdfrwt>
<totfact> 0.94770396E-01</totfact>
</mgrwt>
</event>
<event>
 4    5  0.2025789E-007  0.1214613E+04  0.7818608E-02  0.9143047E-01
         -2   -1    0    0    0  501 -0.00000000000E+00  0.00000000000E+00  0.65653580446E+03  0.65653580446E+03  0.25500000000E-02 0.  1.
          2   -1    0    0  501    0  0.00000000000E+00 -0.00000000000E+00 -0.27279719383E+04  0.27279719383E+04  0.25500000000E-02 0. -1.
    8880023    1    1    2    0    0 -0.89343717457E+02  0.10166076225E+04 -0.20128474554E+04  0.23509228917E+04  0.65864270000E+03 0. -1.
    8880022    1    1    2    0    0  0.89343717457E+02 -0.10166076225E+04 -0.58588678478E+02  0.10335848510E+04  0.15294330000E+03 0.  0.
<mgrwt>
<rscale>  0 0.11661116E+04</rscale>
<asrwt>0</asrwt>
<pdfrwt beam="1">  1        2 0.41968798E+00 0.12146125E+04</pdfrwt>
<pdfrwt beam="2">  1       -2 0.10100551E+00 0.12146125E+04</pdfrwt>
<totfact> 0.20288952E+00</totfact>
</mgrwt>
</event>
<event>
 4    5  0.2025789E-007  0.8619158E+03  0.7818608E-02  0.9590165E-01
          2   -1    0    0  501    0  0.00000000000E+00  0.00000000000E+00  0.60841944369E+03  0.60841944369E+03  0.25500000000E-02 0. -1.
         -2   -1    0    0    0  501 -0.00000000000E+00 -0.00000000000E+00 -0.14802866659E+04  0.14802866659E+04  0.25500000000E-02 0.  1.
    8880023    1    1    2    0    0  0.48647295952E+03  0.26913327279E+03  0.18796378637E+03  0.88217302731E+03  0.65864270000E+03 0. -1.
    8880022    1    1    2    0    0 -0.48647295952E+03 -0.26913327279E+03 -0.10598310086E+04  0.12065330823E+04  0.15294330000E+03 0.  0.
<mgrwt>
<rscale>  0 0.77950585E+03</rscale>
<asrwt>0</asrwt>
<pdfrwt beam="1">  1        2 0.93602992E-01 0.86191581E+03</pdfrwt>
<pdfrwt beam="2">  1       -2 0.22773641E+00 0.86191581E+03</pdfrwt>
<totfact> 0.43557434E+00</totfact>
</mgrwt>
</event>
<event>
 4    5  0.2025789E-007  0.7266827E+03  0.7818608E-02  0.9900590E-01
          2   -1    0    0  501    0  0.00000000000E+00  0.00000000000E+00  0.12846192288E+04  0.12846192288E+04  0.25500000000E-02 0. -1.
         -2   -1    0    0    0  501 -0.00000000000E+00 -0.00000000000E+00 -0.40288324345E+03  0.40288324346E+03  0.25500000000E-02 0.  1.
    8880023    1    1    2    0    0 -0.53091304458E+02 -0.30238869016E+03  0.10721357000E+04  0.12951998966E+04  0.65864270000E+03 0.  0.
    8880022    1    1    2    0    0  0.53091304458E+02  0.30238869016E+03 -0.19039971466E+03  0.39230257570E+03  0.15294330000E+03 0.  0.
<mgrwt>
<rscale>  0 0.60232694E+03</rscale>
<asrwt>0</asrwt>
<pdfrwt beam="1">  1        2 0.19763373E+00 0.72668275E+03</pdfrwt>
<pdfrwt beam="2">  1       -2 0.61982037E-01 0.72668275E+03</pdfrwt>
<totfact> 0.41680046E+01</totfact>
</mgrwt>
</event>
<event>
 4    5  0.2025789E-007  0.1917018E+04  0.7818608E-02  0.8660426E-01
         -2   -1    0    0    0  501 -0.00000000000E+00  0.00000000000E+00  0.19056427227E+04  0.19056427227E+04  0.25500000000E-02 0.  1.
          2   -1    0    0  501    0  0.00000000000E+00 -0.00000000000E+00 -0.31146818665E+04  0.31146818665E+04  0.25500000000E-02 0. -1.
    8880023    1    1    2    0    0 -0.14860224223E+04  0.10163100961E+04 -0.22334310631E+04  0.29433269222E+04  0.65864270000E+03 0. -1.
    8880022    1    1    2    0    0  0.14860224223E+04 -0.10163100961E+04  0.10243919194E+04  0.20769976670E+04  0.15294330000E+03 0.  0.
<mgrwt>
<rscale>  0 0.18888499E+04</rscale>
<asrwt>0</asrwt>
<pdfrwt beam="1">  1        2 0.47918183E+00 0.19170183E+04</pdfrwt>
<pdfrwt beam="2">  1       -2 0.29317580E+00 0.19170183E+04</pdfrwt>
<totfact> 0.46011622E-02</totfact>
</mgrwt>
</event>
<event>
 4    5  0.2025789E-007  0.7452785E+03  0.7818608E-02  0.9844830E-01
          2   -1    0    0  501    0  0.00000000000E+00  0.00000000000E+00  0.19232057091E+04  0.19232057091E+04  0.25500000000E-02 0. -1.
         -2   -1    0    0    0  501 -0.00000000000E+00 -0.00000000000E+00 -0.18719206841E+03  0.18719206843E+03  0.25500000000E-02 0.  1.
    8880023    1    1    2    0    0  0.20317238930E+03  0.28346227391E+03  0.14627914197E+04  0.16417060712E+04  0.65864270000E+03 0. -1.
    8880022    1    1    2    0    0 -0.20317238930E+03 -0.28346227391E+03  0.27322222101E+03  0.46869170632E+03  0.15294330000E+03 0.  1.
<mgrwt>
<rscale>  0 0.63011239E+03</rscale>
<asrwt>0</asrwt>
<pdfrwt beam="1">  1        2 0.29587780E+00 0.74527853E+03</pdfrwt>
<pdfrwt beam="2">  1       -2 0.28798780E-01 0.74527853E+03</pdfrwt>
<totfact> 0.83669759E+01</totfact>
</mgrwt>
</event>
<event>
 4    5  0.2025789E-007  0.8448469E+03  0.7818608E-02  0.9621108E-01
         -2   -1    0    0    0  501 -0.00000000000E+00  0.00000000000E+00  0.16113193165E+03  0.16113193167E+03  0.25500000000E-02 0.  1.
          2   -1    0    0  501    0  0.00000000000E+00 -0.00000000000E+00 -0.41047756574E+04  0.41047756574E+04  0.25500000000E-02 0. -1.
    8880023    1    1    2    0    0 -0.41815222923E+03  0.32419863711E+03 -0.33551535037E+04  0.34598874667E+04  0.65864270000E+03 0. -1.
    8880022    1    1    2    0    0  0.41815222923E+03 -0.32419863711E+03 -0.58849022212E+03  0.80602012237E+03  0.15294330000E+03 0.  0.
<mgrwt>
<rscale>  0 0.75914737E+03</rscale>
<asrwt>0</asrwt>
<pdfrwt beam="1">  1        2 0.63150387E+00 0.84484688E+03</pdfrwt>
<pdfrwt beam="2">  1       -2 0.24789531E-01 0.84484688E+03</pdfrwt>
<totfact> 0.44405437E+00</totfact>
</mgrwt>
</event>
<event>
 4    5  0.2025789E-007  0.1152907E+04  0.7818608E-02  0.9204318E-01
          2   -1    0    0  501    0  0.00000000000E+00  0.00000000000E+00  0.13706546676E+04  0.13706546676E+04  0.25500000000E-02 0. -1.
         -2   -1    0    0    0  501 -0.00000000000E+00 -0.00000000000E+00 -0.11302755775E+04  0.11302755775E+04  0.25500000000E-02 0.  1.
    8880023    1    1    2    0    0  0.93139918149E+03  0.16697117191E+03  0.78849556480E+03  0.13967531169E+04  0.65864270000E+03 0.  0.
    8880022    1    1    2    0    0 -0.93139918149E+03 -0.16697117191E+03 -0.54811647467E+03  0.11041771282E+04  0.15294330000E+03 0.  0.
<mgrwt>
<rscale>  0 0.11008973E+04</rscale>
<asrwt>0</asrwt>
<pdfrwt beam="1">  1        2 0.21086995E+00 0.11529068E+04</pdfrwt>
<pdfrwt beam="2">  1       -2 0.17388855E+00 0.11529068E+04</pdfrwt>
<totfact> 0.29355429E+00</totfact>
</mgrwt>
</event>
<event>
 4    5  0.2025789E-007  0.7706315E+03  0.7818608E-02  0.9778322E-01
          2   -1    0    0  501    0  0.00000000000E+00  0.00000000000E+00  0.14563122776E+04  0.14563122776E+04  0.25500000000E-02 0. -1.
         -2   -1    0    0    0  501 -0.00000000000E+00 -0.00000000000E+00 -0.77549500162E+03  0.77549500162E+03  0.25500000000E-02 0.  1.
    8880023    1    1    2    0    0  0.39839494991E+03 -0.36663386087E+02  0.12807180123E+04  0.14946944749E+04  0.65864270000E+03 0.  0.
    8880022    1    1    2    0    0 -0.39839494991E+03  0.36663386087E+02 -0.59990073627E+03  0.73711280438E+03  0.15294330000E+03 0.  0.
<mgrwt>
<rscale>  0 0.66538973E+03</rscale>
<asrwt>0</asrwt>
<pdfrwt beam="1">  1        2 0.22404804E+00 0.77063152E+03</pdfrwt>
<pdfrwt beam="2">  1       -2 0.11930692E+00 0.77063152E+03</pdfrwt>
<totfact> 0.73936003E+00</totfact>
</mgrwt>
</event>
<event>
 4    5  0.2025789E-007  0.1276144E+04  0.7818608E-02  0.9086440E-01
         -2   -1    0    0    0  501 -0.00000000000E+00  0.00000000000E+00  0.98845511600E+03  0.98845511601E+03  0.25500000000E-02 0.  1.
          2   -1    0    0  501    0  0.00000000000E+00 -0.00000000000E+00 -0.19380299902E+04  0.19380299902E+04  0.25500000000E-02 0. -1.
    8880023    1    1    2    0    0 -0.75828087514E+03  0.78723800775E+03 -0.12461377725E+04  0.17836488221E+04  0.65864270000E+03 0. -1.
    8880022    1    1    2    0    0  0.75828087514E+03 -0.78723800775E+03  0.29656289830E+03  0.11428362840E+04  0.15294330000E+03 0.  0.
<mgrwt>
<rscale>  0 0.12306549E+04</rscale>
<asrwt>0</asrwt>
<pdfrwt beam="1">  1        2 0.29815846E+00 0.12761441E+04</pdfrwt>
<pdfrwt beam="2">  1       -2 0.15207002E+00 0.12761441E+04</pdfrwt>
<totfact> 0.20161636E+00</totfact>
</mgrwt>
</event>
<event>
 4    5  0.2025789E-007  0.9970214E+03  0.7818608E-02  0.9385465E-01
          2   -1    0    0  501    0  0.00000000000E+00  0.00000000000E+00  0.23506305970E+04  0.23506305970E+04  0.25500000000E-02 0. -1.
         -2   -1    0    0    0  501 -0.00000000000E+00 -0.00000000000E+00 -0.57152431269E+03  0.57152431270E+03  0.25500000000E-02 0.  1.
    8880023    1    1    2    0    0 -0.72280483668E+03 -0.19440840782E+03  0.19028592607E+04  0.21482376576E+04  0.65864270000E+03 0. -1.
    8880022    1    1    2    0    0  0.72280483668E+03  0.19440840782E+03 -0.12375297642E+03  0.77391725214E+03  0.15294330000E+03 0.  0.
<mgrwt>
<rscale>  0 0.93281571E+03</rscale>
<asrwt>0</asrwt>
<pdfrwt beam="1">  1        2 0.36163548E+00 0.99702140E+03</pdfrwt>
<pdfrwt beam="2">  1       -2 0.87926816E-01 0.99702140E+03</pdfrwt>
<totfact> 0.47652296E+00</totfact>
</mgrwt>
</event>
<event>
 4    5  0.2025789E-007  0.6797384E+03  0.7818608E-02  0.1009472E+00
          2   -1    0    0  501    0  0.00000000000E+00  0.00000000000E+00  0.27404092539E+04  0.27404092539E+04  0.25500000000E-02 0. -1.
         -2   -1    0    0    0  501 -0.00000000000E+00 -0.00000000000E+00 -0.19205084700E+03  0.19205084702E+03  0.25500000000E-02 0.  1.
    8880023    1    1    2    0    0  0.10946441996E+03  0.12748200900E+03  0.26099770709E+04  0.26970399772E+04  0.65864270000E+03 0. -1.
    8880022    1    1    2    0    0 -0.10946441996E+03 -0.12748200900E+03 -0.61618664030E+02  0.23542012367E+03  0.15294330000E+03 0.  0.
<mgrwt>
<rscale>  0 0.51685020E+03</rscale>
<asrwt>0</asrwt>
<pdfrwt beam="1">  1        2 0.42160139E+00 0.67973843E+03</pdfrwt>
<pdfrwt beam="2">  1       -2 0.29546287E-01 0.67973843E+03</pdfrwt>
<totfact> 0.28131446E+01</totfact>
</mgrwt>
</event>
<event>
 4    5  0.2025789E-007  0.8134426E+03  0.7818608E-02  0.9682450E-01
         -2   -1    0    0    0  501 -0.00000000000E+00  0.00000000000E+00  0.31067049831E+03  0.31067049832E+03  0.25500000000E-02 0.  1.
          2   -1    0    0  501    0  0.00000000000E+00 -0.00000000000E+00 -0.22789811670E+04  0.22789811670E+04  0.25500000000E-02 0. -1.
    8880023    1    1    2    0    0  0.19112593767E+03  0.43743520996E+03 -0.19210329952E+04  0.20861583501E+04  0.65864270000E+03 0.  0.
    8880022    1    1    2    0    0 -0.19112593767E+03 -0.43743520996E+03 -0.47277673449E+02  0.50349331513E+03  0.15294330000E+03 0.  0.
<mgrwt>
<rscale>  0 0.72071381E+03</rscale>
<asrwt>0</asrwt>
<pdfrwt beam="1">  1        2 0.35061248E+00 0.81344262E+03</pdfrwt>
<pdfrwt beam="2">  1       -2 0.47795463E-01 0.81344262E+03</pdfrwt>
<totfact> 0.19930272E+01</totfact>
</mgrwt>
</event>
<event>
 4    5  0.2025789E-007  0.7350780E+03  0.7818608E-02  0.9874524E-01
         -2   -1    0    0    0  501 -0.00000000000E+00  0.00000000000E+00  0.10097847667E+04  0.10097847667E+04  0.25500000000E-02 0.  1.
          2   -1    0    0  501    0  0.00000000000E+00 -0.00000000000E+00 -0.98234405629E+03  0.98234405629E+03  0.25500000000E-02 0. -1.
    8880023    1    1    2    0    0  0.23802572262E+03  0.22332297772E+03 -0.80190726262E+03  0.10878395383E+04  0.65864270000E+03 0. -1.
    8880022    1    1    2    0    0 -0.23802572262E+03 -0.22332297772E+03  0.82934797298E+03  0.90428928464E+03  0.15294330000E+03 0.  0.
<mgrwt>
<rscale>  0 0.61512020E+03</rscale>
<asrwt>0</asrwt>
<pdfrwt beam="1">  1        2 0.15112986E+00 0.73507796E+03</pdfrwt>
<pdfrwt beam="2">  1       -2 0.15535150E+00 0.73507796E+03</pdfrwt>
<totfact> 0.72008826E+00</totfact>
</mgrwt>
</event>
<event>
 4    5  0.2025789E-007  0.1308354E+04  0.7818608E-02  0.9058379E-01
          2   -1    0    0  501    0  0.00000000000E+00  0.00000000000E+00  0.51978283799E+04  0.51978283799E+04  0.25500000000E-02 0. -1.
         -2   -1    0    0    0  501 -0.00000000000E+00 -0.00000000000E+00 -0.45400535144E+03  0.45400535145E+03  0.25500000000E-02 0.  1.
    8880023    1    1    2    0    0 -0.11204001079E+04  0.15061141039E+03  0.41787333619E+04  0.43787672826E+04  0.65864270000E+03 0.  0.
    8880022    1    1    2    0    0  0.11204001079E+04 -0.15061141039E+03  0.56508966650E+03  0.12730664487E+04  0.15294330000E+03 0.  0.
<mgrwt>
<rscale>  0 0.12642826E+04</rscale>
<asrwt>0</asrwt>
<pdfrwt beam="1">  1        2 0.79966591E+00 0.13083541E+04</pdfrwt>
<pdfrwt beam="2">  1       -2 0.69846977E-01 0.13083541E+04</pdfrwt>
<totfact> 0.36242490E-02</totfact>
</mgrwt>
</event>
<event>
 4    5  0.2025789E-007  0.7263793E+03  0.7818608E-02  0.9901563E-01
         -2   -1    0    0    0  501 -0.00000000000E+00  0.00000000000E+00  0.13213392291E+03  0.13213392294E+03  0.25500000000E-02 0.  1.
          2   -1    0    0  501    0  0.00000000000E+00 -0.00000000000E+00 -0.22387385216E+04  0.22387385216E+04  0.25500000000E-02 0. -1.
    8880023    1    1    2    0    0 -0.60339935943E+02  0.30029285697E+03 -0.16252423004E+04  0.17801796115E+04  0.65864270000E+03 0.  1.
    8880022    1    1    2    0    0  0.60339935943E+02 -0.30029285697E+03 -0.48136229829E+03  0.59069283307E+03  0.15294330000E+03 0. -1.
<mgrwt>
<rscale>  0 0.60185577E+03</rscale>
<asrwt>0</asrwt>
<pdfrwt beam="1">  1        2 0.34442129E+00 0.72637932E+03</pdfrwt>
<pdfrwt beam="2">  1       -2 0.20328297E-01 0.72637932E+03</pdfrwt>
<totfact> 0.10529675E+02</totfact>
</mgrwt>
</event>
<event>
 4    5  0.2025789E-007  0.1418651E+04  0.7818608E-02  0.8969324E-01
         -2   -1    0    0    0  501 -0.00000000000E+00  0.00000000000E+00  0.12542537471E+04  0.12542537471E+04  0.25500000000E-02 0.  1.
          2   -1    0    0  501    0  0.00000000000E+00 -0.00000000000E+00 -0.21240562911E+04  0.21240562911E+04  0.25500000000E-02 0. -1.
    8880023    1    1    2    0    0 -0.11744100559E+04 -0.44667966915E+03 -0.14117550670E+04  0.20014055765E+04  0.65864270000E+03 0.  0.
    8880022    1    1    2    0    0  0.11744100559E+04  0.44667966915E+03  0.54195252305E+03  0.13769044617E+04  0.15294330000E+03 0.  0.
<mgrwt>
<rscale>  0 0.13787794E+04</rscale>
<asrwt>0</asrwt>
<pdfrwt beam="1">  1        2 0.32677789E+00 0.14186514E+04</pdfrwt>
<pdfrwt beam="2">  1       -2 0.19296211E+00 0.14186514E+04</pdfrwt>
<totfact> 0.79945074E-01</totfact>
</mgrwt>
</event>
<event>
 4    5  0.2025789E-007  0.1002811E+04  0.7818608E-02  0.9377890E-01
          2   -1    0    0  501    0  0.00000000000E+00  0.00000000000E+00  0.29969006803E+04  0.29969006803E+04  0.25500000000E-02 0. -1.
         -2   -1    0    0    0  501 -0.00000000000E+00 -0.00000000000E+00 -0.11801654530E+04  0.11801654530E+04  0.25500000000E-02 0.  1.
    8880023    1    1    2    0    0  0.53314229395E+03  0.53626307136E+03  0.27727856048E+04  0.29485537139E+04  0.65864270000E+03 0.  0.
    8880022    1    1    2    0    0 -0.53314229395E+03 -0.53626307136E+03 -0.95605037752E+03  0.12285124194E+04  0.15294330000E+03 0.  0.
<mgrwt>
<rscale>  0 0.93917817E+03</rscale>
<asrwt>0</asrwt>
<pdfrwt beam="1">  1        2 0.46106163E+00 0.10028105E+04</pdfrwt>
<pdfrwt beam="2">  1       -2 0.18156392E+00 0.10028105E+04</pdfrwt>
<totfact> 0.31436970E-01</totfact>
</mgrwt>
</event>
<event>
 4    5  0.3268911E-007  0.8787206E+03  0.7818608E-02  0.9561093E-01
         -2   -1    0    0    0  501 -0.00000000000E+00  0.00000000000E+00  0.83557110930E+03  0.83557110930E+03  0.25500000000E-02 0.  1.
          2   -1    0    0  501    0  0.00000000000E+00 -0.00000000000E+00 -0.31259057095E+04  0.31259057095E+04  0.25500000000E-02 0. -1.
    8880023    1    1    2    0    0  0.47093360823E+03  0.34141058136E+03 -0.29445149908E+04  0.30728355611E+04  0.65864270000E+03 0. -1.
    8880022    1    1    2    0    0 -0.47093360823E+03 -0.34141058136E+03  0.65418039058E+03  0.88864125768E+03  0.15294330000E+03 0.  0.
<mgrwt>
<rscale>  0 0.79925684E+03</rscale>
<asrwt>0</asrwt>
<pdfrwt beam="1">  1        2 0.48090857E+00 0.87872058E+03</pdfrwt>
<pdfrwt beam="2">  1       -2 0.12854940E+00 0.87872058E+03</pdfrwt>
<totfact> 0.67560046E-01</totfact>
</mgrwt>
</event>
<event>
 4    5  0.2025789E-007  0.8032718E+03  0.7818608E-02  0.9703766E-01
          2   -1    0    0  501    0  0.00000000000E+00  0.00000000000E+00  0.84270997484E+03  0.84270997484E+03  0.25500000000E-02 0. -1.
         -2   -1    0    0    0  501 -0.00000000000E+00 -0.00000000000E+00 -0.55421568490E+03  0.55421568490E+03  0.25500000000E-02 0.  1.
    8880023    1    1    2    0    0 -0.23270449670E+03 -0.39659037324E+03  0.40343505761E+03  0.89889118301E+03  0.65864270000E+03 0.  0.
    8880022    1    1    2    0    0  0.23270449670E+03  0.39659037324E+03 -0.11494076766E+03  0.49803447674E+03  0.15294330000E+03 0.  0.
<mgrwt>
<rscale>  0 0.70793008E+03</rscale>
<asrwt>0</asrwt>
<pdfrwt beam="1">  1        2 0.12964769E+00 0.80327176E+03</pdfrwt>
<pdfrwt beam="2">  1       -2 0.85263951E-01 0.80327176E+03</pdfrwt>
<totfact> 0.38799833E+01</totfact>
</mgrwt>
</event>
<event>
 4    5  0.2025789E-007  0.1442427E+04  0.7818608E-02  0.8951398E-01
          2   -1    0    0  501    0  0.00000000000E+00  0.00000000000E+00  0.25358553280E+04  0.25358553280E+04  0.25500000000E-02 0. -1.
         -2   -1    0    0    0  501 -0.00000000000E+00 -0.00000000000E+00 -0.94314595032E+03  0.94314595032E+03  0.25500000000E-02 0.  1.
    8880023    1    1    2    0    0  0.57577446481E+03 -0.11468517000E+04  0.16421629294E+04  0.21857022554E+04  0.65864270000E+03 0.  0.
    8880022    1    1    2    0    0 -0.57577446481E+03  0.11468517000E+04 -0.49453551738E+02  0.12932990230E+04  0.15294330000E+03 0.  0.
<mgrwt>
<rscale>  0 0.14033489E+04</rscale>
<asrwt>0</asrwt>
<pdfrwt beam="1">  1        2 0.39013159E+00 0.14424269E+04</pdfrwt>
<pdfrwt beam="2">  1       -2 0.14509938E+00 0.14424269E+04</pdfrwt>
<totfact> 0.10325180E+00</totfact>
</mgrwt>
</event>
<event>
 4    5  0.2025789E-007  0.1592158E+04  0.7818608E-02  0.8847160E-01
         -2   -1    0    0    0  501 -0.00000000000E+00  0.00000000000E+00  0.12695801367E+04  0.12695801367E+04  0.25500000000E-02 0.  1.
          2   -1    0    0  501    0  0.00000000000E+00 -0.00000000000E+00 -0.33427997849E+04  0.33427997849E+04  0.25500000000E-02 0. -1.
    8880023    1    1    2    0    0 -0.14791469093E+03 -0.14419707462E+04 -0.26115010429E+04  0.30585791296E+04  0.65864270000E+03 0. -1.
    8880022    1    1    2    0    0  0.14791469093E+03  0.14419707462E+04  0.53828139460E+03  0.15538007921E+04  0.15294330000E+03 0.  0.
<mgrwt>
<rscale>  0 0.15573925E+04</rscale>
<asrwt>0</asrwt>
<pdfrwt beam="1">  1        2 0.51427689E+00 0.15921585E+04</pdfrwt>
<pdfrwt beam="2">  1       -2 0.19532002E+00 0.15921585E+04</pdfrwt>
<totfact> 0.13925480E-01</totfact>
</mgrwt>
</event>
<event>
 4    5  0.2025789E-007  0.1294438E+04  0.7818608E-02  0.9070378E-01
         -2   -1    0    0    0  501 -0.00000000000E+00  0.00000000000E+00  0.16560310593E+04  0.16560310593E+04  0.25500000000E-02 0.  1.
          2   -1    0    0  501    0  0.00000000000E+00 -0.00000000000E+00 -0.11132940206E+04  0.11132940206E+04  0.25500000000E-02 0. -1.
    8880023    1    1    2    0    0 -0.10929683713E+04  0.21720937477E+03 -0.34133262604E+03  0.13386851538E+04  0.65864270000E+03 0.  0.
    8880022    1    1    2    0    0  0.10929683713E+04 -0.21720937477E+03  0.88406966470E+03  0.14306399261E+04  0.15294330000E+03 0.  0.
<mgrwt>
<rscale>  0 0.12497662E+04</rscale>
<asrwt>0</asrwt>
<pdfrwt beam="1">  1        2 0.17127600E+00 0.12944381E+04</pdfrwt>
<pdfrwt beam="2">  1       -2 0.25477401E+00 0.12944381E+04</pdfrwt>
<totfact> 0.12376860E+00</totfact>
</mgrwt>
</event>
<event>
 4    5  0.2025789E-007  0.9252763E+03  0.7818608E-02  0.9486616E-01
          2   -1    0    0  501    0  0.00000000000E+00  0.00000000000E+00  0.22426448569E+04  0.22426448569E+04  0.25500000000E-02 0. -1.
         -2   -1    0    0    0  501 -0.00000000000E+00 -0.00000000000E+00 -0.87268135485E+03  0.87268135485E+03  0.25500000000E-02 0.  1.
    8880023    1    1    2    0    0  0.45620700737E+03 -0.46281868608E+03  0.19960410046E+04  0.22000717871E+04  0.65864270000E+03 0.  0.
    8880022    1    1    2    0    0 -0.45620700737E+03  0.46281868608E+03 -0.62607750256E+03  0.91525442473E+03  0.15294330000E+03 0.  0.
<mgrwt>
<rscale>  0 0.85277811E+03</rscale>
<asrwt>0</asrwt>
<pdfrwt beam="1">  1        2 0.34502228E+00 0.92527627E+03</pdfrwt>
<pdfrwt beam="2">  1       -2 0.13425867E+00 0.92527627E+03</pdfrwt>
<totfact> 0.19799491E+00</totfact>
</mgrwt>
</event>
<event>
 4    5  0.2025789E-007  0.8569474E+03  0.7818608E-02  0.9599017E-01
         -2   -1    0    0    0  501 -0.00000000000E+00  0.00000000000E+00  0.30046591962E+03  0.30046591963E+03  0.25500000000E-02 0.  1.
          2   -1    0    0  501    0  0.00000000000E+00 -0.00000000000E+00 -0.23779729662E+04  0.23779729662E+04  0.25500000000E-02 0. -1.
    8880023    1    1    2    0    0 -0.23112453654E+03 -0.49712185177E+03 -0.18966140730E+04  0.20812265218E+04  0.65864270000E+03 0. -1.
    8880022    1    1    2    0    0  0.23112453654E+03  0.49712185177E+03 -0.18089297364E+03  0.59721236409E+03  0.15294330000E+03 0.  0.
<mgrwt>
<rscale>  0 0.77361301E+03</rscale>
<asrwt>0</asrwt>
<pdfrwt beam="1">  1        2 0.36584198E+00 0.85694743E+03</pdfrwt>
<pdfrwt beam="2">  1       -2 0.46225528E-01 0.85694743E+03</pdfrwt>
<totfact> 0.18658807E+01</totfact>
</mgrwt>
</event>
<event>
 4    5  0.2025789E-007  0.8835374E+03  0.7818608E-02  0.9552994E-01
          2   -1    0    0  501    0  0.00000000000E+00  0.00000000000E+00  0.20904303881E+04  0.20904303882E+04  0.25500000000E-02 0. -1.
         -2   -1    0    0    0  501 -0.00000000000E+00 -0.00000000000E+00 -0.44206536615E+03  0.44206536616E+03  0.25500000000E-02 0.  1.
    8880023    1    1    2    0    0 -0.96002212253E+02 -0.58104360077E+03  0.17061001985E+04  0.19213058539E+04  0.65864270000E+03 0.  0.
    8880022    1    1    2    0    0  0.96002212253E+02  0.58104360077E+03 -0.57735176468E+02  0.61118990041E+03  0.15294330000E+03 0.  0.
<mgrwt>
<rscale>  0 0.80487074E+03</rscale>
<asrwt>0</asrwt>
<pdfrwt beam="1">  1        2 0.32160468E+00 0.88353738E+03</pdfrwt>
<pdfrwt beam="2">  1       -2 0.68010056E-01 0.88353738E+03</pdfrwt>
<totfact> 0.11991451E+01</totfact>
</mgrwt>
</event>
<event>
 4    5  0.2025789E-007  0.8724065E+03  0.7818608E-02  0.9571865E-01
          2   -1    0    0  501    0  0.00000000000E+00  0.00000000000E+00  0.11242347476E+04  0.11242347476E+04  0.25500000000E-02 0. -1.
         -2   -1    0    0    0  501 -0.00000000000E+00 -0.00000000000E+00 -0.17208460987E+04  0.17208460987E+04  0.25500000000E-02 0.  1.
    8880023    1    1    2    0    0  0.37524640229E+03  0.43182523201E+03  0.88914435075E+03  0.12456607789E+04  0.65864270000E+03 0.  0.
    8880022    1    1    2    0    0 -0.37524640229E+03 -0.43182523201E+03 -0.14857557018E+04  0.15994200674E+04  0.15294330000E+03 0.  0.
<mgrwt>
<rscale>  0 0.79186692E+03</rscale>
<asrwt>0</asrwt>
<pdfrwt beam="1">  1        2 0.17295919E+00 0.87240650E+03</pdfrwt>
<pdfrwt beam="2">  1       -2 0.26474555E+00 0.87240650E+03</pdfrwt>
<totfact> 0.11179168E+00</totfact>
</mgrwt>
</event>
<event>
 4    5  0.2025789E-007  0.8678174E+03  0.7818608E-02  0.9579806E-01
         -2   -1    0    0    0  501 -0.00000000000E+00  0.00000000000E+00  0.22771156479E+04  0.22771156479E+04  0.25500000000E-02 0.  1.
          2   -1    0    0  501    0  0.00000000000E+00 -0.00000000000E+00 -0.26190568245E+03  0.26190568246E+03  0.25500000000E-02 0. -1.
    8880023    1    1    2    0    0 -0.24188926727E+03  0.51067248105E+03  0.75817361237E+03  0.11523602880E+04  0.65864270000E+03 0.  0.
    8880022    1    1    2    0    0  0.24188926727E+03 -0.51067248105E+03  0.12570363530E+04  0.13866610424E+04  0.15294330000E+03 0.  0.
<mgrwt>
<rscale>  0 0.78647277E+03</rscale>
<asrwt>0</asrwt>
<pdfrwt beam="1">  1        2 0.40293185E-01 0.86781738E+03</pdfrwt>
<pdfrwt beam="2">  1       -2 0.35032546E+00 0.86781738E+03</pdfrwt>
<totfact> 0.20458802E+00</totfact>
</mgrwt>
</event>
<event>
 4    5  0.2025789E-007  0.1171022E+04  0.7818608E-02  0.9185819E-01
          2   -1    0    0  501    0  0.00000000000E+00  0.00000000000E+00  0.16546646269E+04  0.16546646269E+04  0.25500000000E-02 0. -1.
         -2   -1    0    0    0  501 -0.00000000000E+00 -0.00000000000E+00 -0.24218335636E+04  0.24218335636E+04  0.25500000000E-02 0.  1.
    8880023    1    1    2    0    0  0.53079028677E+03 -0.80978019699E+03  0.13236510813E+04  0.17672986978E+04  0.65864270000E+03 0. -1.
    8880022    1    1    2    0    0 -0.53079028677E+03  0.80978019699E+03 -0.20908200180E+04  0.23091994926E+04  0.15294330000E+03 0.  0.
<mgrwt>
<rscale>  0 0.11201008E+04</rscale>
<asrwt>0</asrwt>
<pdfrwt beam="1">  1        2 0.25456379E+00 0.11710220E+04</pdfrwt>
<pdfrwt beam="2">  1       -2 0.37258978E+00 0.11710220E+04</pdfrwt>
<totfact> 0.11459454E-01</totfact>
</mgrwt>
</event>
<event>
 4    5  0.2025789E-007  0.1103217E+04  0.7818608E-02  0.9257482E-01
          2   -1    0    0  501    0  0.00000000000E+00  0.00000000000E+00  0.80602703055E+03  0.80602703055E+03  0.25500000000E-02 0. -1.
         -2   -1    0    0    0  501 -0.00000000000E+00 -0.00000000000E+00 -0.16686373951E+04  0.16686373951E+04  0.25500000000E-02 0.  1.
    8880023    1    1    2    0    0 -0.84445806518E+03  0.26489419584E+03  0.15874207694E+03  0.11145795674E+04  0.65864270000E+03 0.  0.
    8880022    1    1    2    0    0  0.84445806518E+03 -0.26489419584E+03 -0.10213524415E+04  0.13600848582E+04  0.15294330000E+03 0.  0.
<mgrwt>
<rscale>  0 0.10479313E+04</rscale>
<asrwt>0</asrwt>
<pdfrwt beam="1">  1        2 0.12400416E+00 0.11032174E+04</pdfrwt>
<pdfrwt beam="2">  1       -2 0.25671345E+00 0.11032174E+04</pdfrwt>
<totfact> 0.19665625E+00</totfact>
</mgrwt>
</event>
<event>
 4    5  0.2025789E-007  0.7034549E+03  0.7818608E-02  0.9983160E-01
          2   -1    0    0  501    0  0.00000000000E+00  0.00000000000E+00  0.11839412202E+04  0.11839412202E+04  0.25500000000E-02 0. -1.
         -2   -1    0    0    0  501 -0.00000000000E+00 -0.00000000000E+00 -0.33745691150E+03  0.33745691151E+03  0.25500000000E-02 0.  1.
    8880023    1    1    2    0    0  0.10730933351E+03  0.22253818312E+03  0.97614928365E+03  0.12032107738E+04  0.65864270000E+03 0. -1.
    8880022    1    1    2    0    0 -0.10730933351E+03 -0.22253818312E+03 -0.12966497492E+03  0.31818735792E+03  0.15294330000E+03 0.  0.
<mgrwt>
<rscale>  0 0.56394844E+03</rscale>
<asrwt>0</asrwt>
<pdfrwt beam="1">  1        2 0.18214480E+00 0.70345486E+03</pdfrwt>
<pdfrwt beam="2">  1       -2 0.51916448E-01 0.70345486E+03</pdfrwt>
<totfact> 0.69257177E+01</totfact>
</mgrwt>
</event>
<event>
 4    5  0.2025789E-007  0.1321923E+04  0.7818608E-02  0.9046855E-01
          2   -1    0    0  501    0  0.00000000000E+00  0.00000000000E+00  0.15808310995E+04  0.15808310995E+04  0.25500000000E-02 0. -1.
         -2   -1    0    0    0  501 -0.00000000000E+00 -0.00000000000E+00 -0.11226363409E+04  0.11226363409E+04  0.25500000000E-02 0.  1.
    8880023    1    1    2    0    0  0.80553315284E+03 -0.81534449677E+03  0.73773007092E+03  0.15138448311E+04  0.65864270000E+03 0. -1.
    8880022    1    1    2    0    0 -0.80553315284E+03  0.81534449677E+03 -0.27953531230E+03  0.11896226093E+04  0.15294330000E+03 0.  0.
<mgrwt>
<rscale>  0 0.12784200E+04</rscale>
<asrwt>0</asrwt>
<pdfrwt beam="1">  1        2 0.24320478E+00 0.13219230E+04</pdfrwt>
<pdfrwt beam="2">  1       -2 0.17271328E+00 0.13219230E+04</pdfrwt>
<totfact> 0.22352097E+00</totfact>
</mgrwt>
</event>
<event>
 4    5  0.2025789E-007  0.9322132E+03  0.7818608E-02  0.9476181E-01
          2   -1    0    0  501    0  0.00000000000E+00  0.00000000000E+00  0.43842998012E+04  0.43842998012E+04  0.25500000000E-02 0. -1.
         -2   -1    0    0    0  501 -0.00000000000E+00 -0.00000000000E+00 -0.47290476743E+03  0.47290476744E+03  0.25500000000E-02 0.  1.
    8880023    1    1    2    0    0 -0.50661404027E+03 -0.42255595931E+03  0.40585195115E+04  0.41642048648E+04  0.65864270000E+03 0. -1.
    8880022    1    1    2    0    0  0.50661404027E+03  0.42255595931E+03 -0.14712447774E+03  0.69299970383E+03  0.15294330000E+03 0.  0.
<mgrwt>
<rscale>  0 0.86062917E+03</rscale>
<asrwt>0</asrwt>
<pdfrwt beam="1">  1        2 0.67450766E+00 0.93221324E+03</pdfrwt>
<pdfrwt beam="2">  1       -2 0.72754580E-01 0.93221324E+03</pdfrwt>
<totfact> 0.29431409E-01</totfact>
</mgrwt>
</event>
<event>
 4    5  0.2025789E-007  0.8444400E+03  0.7818608E-02  0.9621864E-01
          2   -1    0    0  501    0  0.00000000000E+00  0.00000000000E+00  0.13090843473E+04  0.13090843473E+04  0.25500000000E-02 0. -1.
         -2   -1    0    0    0  501 -0.00000000000E+00 -0.00000000000E+00 -0.58772907230E+03  0.58772907231E+03  0.25500000000E-02 0.  1.
    8880023    1    1    2    0    0  0.51294618723E+03 -0.12710230688E+03  0.97599103729E+03  0.12905957921E+04  0.65864270000E+03 0.  1.
    8880022    1    1    2    0    0 -0.51294618723E+03  0.12710230688E+03 -0.25463576234E+03  0.60621762749E+03  0.15294330000E+03 0.  0.
<mgrwt>
<rscale>  0 0.75865806E+03</rscale>
<asrwt>0</asrwt>
<pdfrwt beam="1">  1        2 0.20139759E+00 0.84444005E+03</pdfrwt>
<pdfrwt beam="2">  1       -2 0.90419858E-01 0.84444005E+03</pdfrwt>
<totfact> 0.17248292E+01</totfact>
</mgrwt>
</event>
<event>
 4    5  0.2025789E-007  0.8817254E+03  0.7818608E-02  0.9556029E-01
          2   -1    0    0  501    0  0.00000000000E+00  0.00000000000E+00  0.12676385199E+04  0.12676385199E+04  0.25500000000E-02 0. -1.
         -2   -1    0    0    0  501 -0.00000000000E+00 -0.00000000000E+00 -0.53409767937E+03  0.53409767938E+03  0.25500000000E-02 0.  1.
    8880023    1    1    2    0    0 -0.32251721069E+03 -0.48950191483E+03  0.80219123817E+03  0.11920362682E+04  0.65864270000E+03 0.  0.
    8880022    1    1    2    0    0  0.32251721069E+03  0.48950191483E+03 -0.68650397687E+02  0.60969993105E+03  0.15294330000E+03 0.  0.
<mgrwt>
<rscale>  0 0.80276124E+03</rscale>
<asrwt>0</asrwt>
<pdfrwt beam="1">  1        2 0.19502131E+00 0.88172540E+03</pdfrwt>
<pdfrwt beam="2">  1       -2 0.82168873E-01 0.88172540E+03</pdfrwt>
<totfact> 0.22612922E+01</totfact>
</mgrwt>
</event>
<event>
 4    5  0.2025789E-007  0.7503796E+03  0.7818608E-02  0.9830682E-01
          2   -1    0    0  501    0  0.00000000000E+00  0.00000000000E+00  0.13978900157E+04  0.13978900157E+04  0.25500000000E-02 0. -1.
         -2   -1    0    0    0  501 -0.00000000000E+00 -0.00000000000E+00 -0.30005486843E+03  0.30005486844E+03  0.25500000000E-02 0.  1.
    8880023    1    1    2    0    0  0.27287926084E+03  0.23408587428E+03  0.10691370576E+04  0.13061866412E+04  0.65864270000E+03 0.  0.
    8880022    1    1    2    0    0 -0.27287926084E+03 -0.23408587428E+03  0.28698089679E+02  0.39175824292E+03  0.15294330000E+03 0.  0.
<mgrwt>
<rscale>  0 0.63741633E+03</rscale>
<asrwt>0</asrwt>
<pdfrwt beam="1">  1        2 0.21506001E+00 0.75037957E+03</pdfrwt>
<pdfrwt beam="2">  1       -2 0.46162286E-01 0.75037957E+03</pdfrwt>
<totfact> 0.65802634E+01</totfact>
</mgrwt>
</event>
<event>
 4    5  0.2211657E-007  0.8917031E+03  0.7818608E-02  0.9539484E-01
         -2   -1    0    0    0  501 -0.00000000000E+00  0.00000000000E+00  0.79614350034E+03  0.79614350034E+03  0.25500000000E-02 0.  1.
          2   -1    0    0  501    0  0.00000000000E+00 -0.00000000000E+00 -0.31526439546E+04  0.31526439546E+04  0.25500000000E-02 0. -1.
    8880023    1    1    2    0    0 -0.34889735578E+03 -0.48948427851E+03 -0.29551520100E+04  0.30867552271E+04  0.65864270000E+03 0. -1.
    8880022    1    1    2    0    0  0.34889735578E+03  0.48948427851E+03  0.59865155567E+03  0.86203222787E+03  0.15294330000E+03 0.  0.
<mgrwt>
<rscale>  0 0.81434367E+03</rscale>
<asrwt>0</asrwt>
<pdfrwt beam="1">  1        2 0.48502214E+00 0.89170311E+03</pdfrwt>
<pdfrwt beam="2">  1       -2 0.12248362E+00 0.89170311E+03</pdfrwt>
<totfact> 0.73203137E-01</totfact>
</mgrwt>
</event>
<event>
 4    5  0.2025789E-007  0.1140009E+04  0.7818608E-02  0.9217766E-01
          2   -1    0    0  501    0  0.00000000000E+00  0.00000000000E+00  0.15860776270E+04  0.15860776270E+04  0.25500000000E-02 0. -1.
         -2   -1    0    0    0  501 -0.00000000000E+00 -0.00000000000E+00 -0.87324970450E+03  0.87324970451E+03  0.25500000000E-02 0.  1.
    8880023    1    1    2    0    0 -0.27622128148E+03  0.88854495163E+03  0.95341721446E+03  0.14861443128E+04  0.65864270000E+03 0.  0.
    8880022    1    1    2    0    0  0.27622128148E+03 -0.88854495163E+03 -0.24058929199E+03  0.97318301868E+03  0.15294330000E+03 0.  0.
<mgrwt>
<rscale>  0 0.10871920E+04</rscale>
<asrwt>0</asrwt>
<pdfrwt beam="1">  1        2 0.24401194E+00 0.11400090E+04</pdfrwt>
<pdfrwt beam="2">  1       -2 0.13434611E+00 0.11400090E+04</pdfrwt>
<totfact> 0.44405305E+00</totfact>
</mgrwt>
</event>
<event>
 4    5  0.2025789E-007  0.6932088E+03  0.7818608E-02  0.1002663E+00
          2   -1    0    0  501    0  0.00000000000E+00  0.00000000000E+00  0.30545061100E+03  0.30545061102E+03  0.25500000000E-02 0. -1.
         -2   -1    0    0    0  501 -0.00000000000E+00 -0.00000000000E+00 -0.10826934593E+04  0.10826934593E+04  0.25500000000E-02 0.  1.
    8880023    1    1    2    0    0 -0.10725862372E+03  0.18768016912E+03 -0.15276368641E+03  0.70984167840E+03  0.65864270000E+03 0.  0.
    8880022    1    1    2    0    0  0.10725862372E+03 -0.18768016912E+03 -0.62447916187E+03  0.67830239191E+03  0.15294330000E+03 0.  0.
<mgrwt>
<rscale>  0 0.54497707E+03</rscale>
<asrwt>0</asrwt>
<pdfrwt beam="1">  1        2 0.46992402E-01 0.69320882E+03</pdfrwt>
<pdfrwt beam="2">  1       -2 0.16656822E+00 0.69320882E+03</pdfrwt>
<totfact> 0.24703143E+01</totfact>
</mgrwt>
</event>
<event>
 4    5  0.2025789E-007  0.1194593E+04  0.7818608E-02  0.9162397E-01
         -2   -1    0    0    0  501 -0.00000000000E+00  0.00000000000E+00  0.10115412711E+04  0.10115412711E+04  0.25500000000E-02 0.  1.
          2   -1    0    0  501    0  0.00000000000E+00 -0.00000000000E+00 -0.13934015605E+04  0.13934015605E+04  0.25500000000E-02 0. -1.
    8880023    1    1    2    0    0  0.96052654693E+03  0.26576323948E+03 -0.65221745983E+03  0.13610434115E+04  0.65864270000E+03 0.  0.
    8880022    1    1    2    0    0 -0.96052654693E+03 -0.26576323948E+03  0.27035717041E+03  0.10438994202E+04  0.15294330000E+03 0.  0.
<mgrwt>
<rscale>  0 0.11450130E+04</rscale>
<asrwt>0</asrwt>
<pdfrwt beam="1">  1        2 0.21436947E+00 0.11945926E+04</pdfrwt>
<pdfrwt beam="2">  1       -2 0.15562173E+00 0.11945926E+04</pdfrwt>
<totfact> 0.38545206E+00</totfact>
</mgrwt>
</event>
<event>
 4    5  0.2025789E-007  0.8336321E+03  0.7818608E-02  0.9642306E-01
         -2   -1    0    0    0  501 -0.00000000000E+00  0.00000000000E+00  0.26899908676E+03  0.26899908678E+03  0.25500000000E-02 0.  1.
          2   -1    0    0  501    0  0.00000000000E+00 -0.00000000000E+00 -0.25816662989E+04  0.25816662989E+04  0.25500000000E-02 0. -1.
    8880023    1    1    2    0    0 -0.25716933029E+03 -0.44158375177E+03 -0.21292166446E+04  0.22865926616E+04  0.65864270000E+03 0. -1.
    8880022    1    1    2    0    0  0.25716933029E+03  0.44158375177E+03 -0.18345056753E+03  0.56407272405E+03  0.15294330000E+03 0.  0.
<mgrwt>
<rscale>  0 0.74558244E+03</rscale>
<asrwt>0</asrwt>
<pdfrwt beam="1">  1        2 0.39717941E+00 0.83363210E+03</pdfrwt>
<pdfrwt beam="2">  1       -2 0.41384477E-01 0.83363210E+03</pdfrwt>
<totfact> 0.17867043E+01</totfact>
</mgrwt>
</event>
<event>
 4    5  0.2025789E-007  0.7552001E+03  0.7818608E-02  0.9817696E-01
         -2   -1    0    0    0  501 -0.00000000000E+00  0.00000000000E+00  0.59328323594E+03  0.59328323595E+03  0.25500000000E-02 0.  1.
          2   -1    0    0  501    0  0.00000000000E+00 -0.00000000000E+00 -0.18341361416E+04  0.18341361416E+04  0.25500000000E-02 0. -1.
    8880023    1    1    2    0    0 -0.20234405256E+03 -0.30915035213E+03 -0.16748756389E+04  0.18372630916E+04  0.65864270000E+03 0.  0.
    8880022    1    1    2    0    0  0.20234405256E+03  0.30915035213E+03  0.43402273324E+03  0.59015628592E+03  0.15294330000E+03 0.  0.
<mgrwt>
<rscale>  0 0.64421460E+03</rscale>
<asrwt>0</asrwt>
<pdfrwt beam="1">  1        2 0.28217479E+00 0.75520015E+03</pdfrwt>
<pdfrwt beam="2">  1       -2 0.91274345E-01 0.75520015E+03</pdfrwt>
<totfact> 0.87110942E+00</totfact>
</mgrwt>
</event>
<event>
 4    5  0.2025789E-007  0.7579743E+03  0.7818608E-02  0.9810380E-01
          2   -1    0    0  501    0  0.00000000000E+00  0.00000000000E+00  0.28476445968E+04  0.28476445968E+04  0.25500000000E-02 0. -1.
         -2   -1    0    0    0  501 -0.00000000000E+00 -0.00000000000E+00 -0.21116258179E+03  0.21116258181E+03  0.25500000000E-02 0.  1.
    8880023    1    1    2    0    0  0.32945959307E+03 -0.17936353012E+03  0.25283510024E+04  0.26395234223E+04  0.65864270000E+03 0. -1.
    8880022    1    1    2    0    0 -0.32945959307E+03  0.17936353012E+03  0.10813101266E+03  0.41928375633E+03  0.15294330000E+03 0.  0.
<mgrwt>
<rscale>  0 0.64808448E+03</rscale>
<asrwt>0</asrwt>
<pdfrwt beam="1">  1        2 0.43809916E+00 0.75797434E+03</pdfrwt>
<pdfrwt beam="2">  1       -2 0.32486552E-01 0.75797434E+03</pdfrwt>
<totfact> 0.20116534E+01</totfact>
</mgrwt>
</event>
<event>
 4    5  0.2025789E-007  0.9951698E+03  0.7818608E-02  0.9387904E-01
         -2   -1    0    0    0  501 -0.00000000000E+00  0.00000000000E+00  0.70425945304E+03  0.70425945304E+03  0.25500000000E-02 0.  1.
          2   -1    0    0  501    0  0.00000000000E+00 -0.00000000000E+00 -0.16557110892E+04  0.16557110892E+04  0.25500000000E-02 0. -1.
    8880023    1    1    2    0    0 -0.61742524435E+03  0.41873475259E+03 -0.11999386224E+04  0.15589148883E+04  0.65864270000E+03 0.  0.
    8880022    1    1    2    0    0  0.61742524435E+03 -0.41873475259E+03  0.24848698617E+03  0.80105565393E+03  0.15294330000E+03 0.  0.
<mgrwt>
<rscale>  0 0.93077816E+03</rscale>
<asrwt>0</asrwt>
<pdfrwt beam="1">  1        2 0.25472478E+00 0.99516980E+03</pdfrwt>
<pdfrwt beam="2">  1       -2 0.10834761E+00 0.99516980E+03</pdfrwt>
<totfact> 0.70504897E+00</totfact>
</mgrwt>
</event>
<event>
 4    5  0.2025789E-007  0.8283324E+03  0.7818608E-02  0.9652586E-01
          2   -1    0    0  501    0  0.00000000000E+00  0.00000000000E+00  0.28785505982E+04  0.28785505982E+04  0.25500000000E-02 0. -1.
         -2   -1    0    0    0  501 -0.00000000000E+00 -0.00000000000E+00 -0.22445753016E+03  0.22445753017E+03  0.25500000000E-02 0.  1.
    8880023    1    1    2    0    0 -0.48221230853E+03 -0.14069725624E+03  0.23600555285E+04  0.25011990589E+04  0.65864270000E+03 0. -1.
    8880022    1    1    2    0    0  0.48221230853E+03  0.14069725624E+03  0.29403753954E+03  0.60180906946E+03  0.15294330000E+03 0.  0.
<mgrwt>
<rscale>  0 0.73911372E+03</rscale>
<asrwt>0</asrwt>
<pdfrwt beam="1">  1        2 0.44285393E+00 0.82833244E+03</pdfrwt>
<pdfrwt beam="2">  1       -2 0.34531928E-01 0.82833244E+03</pdfrwt>
<totfact> 0.16989840E+01</totfact>
</mgrwt>
</event>
<event>
 4    5  0.2025789E-007  0.7020113E+03  0.7818608E-02  0.9988957E-01
         -2   -1    0    0    0  501 -0.00000000000E+00  0.00000000000E+00  0.23774081516E+03  0.23774081517E+03  0.25500000000E-02 0.  1.
          2   -1    0    0  501    0  0.00000000000E+00 -0.00000000000E+00 -0.18004279346E+04  0.18004279346E+04  0.25500000000E-02 0. -1.
    8880023    1    1    2    0    0  0.23605213962E+03  0.57350722798E+02 -0.16013995130E+04  0.17485137473E+04  0.65864270000E+03 0. -1.
    8880022    1    1    2    0    0 -0.23605213962E+03 -0.57350722798E+02  0.38712393560E+02  0.28965500247E+03  0.15294330000E+03 0.  0.
<mgrwt>
<rscale>  0 0.56137091E+03</rscale>
<asrwt>0</asrwt>
<pdfrwt beam="1">  1        2 0.27698890E+00 0.70201134E+03</pdfrwt>
<pdfrwt beam="2">  1       -2 0.36575511E-01 0.70201134E+03</pdfrwt>
<totfact> 0.62571351E+01</totfact>
</mgrwt>
</event>
<event>
 4    5  0.2025789E-007  0.1053524E+04  0.7818608E-02  0.9314657E-01
         -2   -1    0    0    0  501 -0.00000000000E+00  0.00000000000E+00  0.28160575419E+04  0.28160575420E+04  0.25500000000E-02 0.  1.
          2   -1    0    0  501    0  0.00000000000E+00 -0.00000000000E+00 -0.53110161600E+03  0.53110161601E+03  0.25500000000E-02 0. -1.
    8880023    1    1    2    0    0  0.18638885261E+03 -0.80085096249E+03  0.16265461493E+03  0.10660064721E+04  0.65864270000E+03 0.  0.
    8880022    1    1    2    0    0 -0.18638885261E+03  0.80085096249E+03  0.21223013110E+04  0.22811526859E+04  0.15294330000E+03 0.  0.
<mgrwt>
<rscale>  0 0.99444655E+03</rscale>
<asrwt>0</asrwt>
<pdfrwt beam="1">  1        2 0.81707939E-01 0.10535242E+04</pdfrwt>
<pdfrwt beam="2">  1       -2 0.43323963E+00 0.10535242E+04</pdfrwt>
<totfact> 0.26045957E-01</totfact>
</mgrwt>
</event>
<event>
 4    5  0.2025789E-007  0.9540215E+03  0.7818608E-02  0.9444352E-01
          2   -1    0    0  501    0  0.00000000000E+00  0.00000000000E+00  0.50359132426E+03  0.50359132427E+03  0.25500000000E-02 0. -1.
         -2   -1    0    0    0  501 -0.00000000000E+00 -0.00000000000E+00 -0.17074110262E+04  0.17074110262E+04  0.25500000000E-02 0.  1.
    8880023    1    1    2    0    0 -0.21466142174E+03 -0.65594757728E+03 -0.18633892082E+03  0.97204894413E+03  0.65864270000E+03 0.  0.
    8880022    1    1    2    0    0  0.21466142174E+03  0.65594757728E+03 -0.10174807811E+04  0.12389534063E+04  0.15294330000E+03 0.  0.
<mgrwt>
<rscale>  0 0.88513895E+03</rscale>
<asrwt>0</asrwt>
<pdfrwt beam="1">  1        2 0.77475589E-01 0.95402147E+03</pdfrwt>
<pdfrwt beam="2">  1       -2 0.26267862E+00 0.95402147E+03</pdfrwt>
<totfact> 0.33025378E+00</totfact>
</mgrwt>
</event>
<event>
 4    5  0.2025789E-007  0.7712032E+03  0.7818608E-02  0.9776922E-01
          2   -1    0    0  501    0  0.00000000000E+00  0.00000000000E+00  0.28073914709E+04  0.28073914709E+04  0.25500000000E-02 0. -1.
         -2   -1    0    0    0  501 -0.00000000000E+00 -0.00000000000E+00 -0.15277879072E+03  0.15277879075E+03  0.25500000000E-02 0.  1.
    8880023    1    1    2    0    0  0.33421666123E+03 -0.22190858575E+03  0.22161585906E+04  0.23465108783E+04  0.65864270000E+03 0. -1.
    8880022    1    1    2    0    0 -0.33421666123E+03  0.22190858575E+03  0.43845408957E+03  0.61365938333E+03  0.15294330000E+03 0.  0.
<mgrwt>
<rscale>  0 0.66615892E+03</rscale>
<asrwt>0</asrwt>
<pdfrwt beam="1">  1        2 0.43190639E+00 0.77120322E+03</pdfrwt>
<pdfrwt beam="2">  1       -2 0.23504429E-01 0.77120322E+03</pdfrwt>
<totfact> 0.38397126E+01</totfact>
</mgrwt>
</event>
<event>
 4    5  0.2025789E-007  0.7485754E+03  0.7818608E-02  0.9835636E-01
          2   -1    0    0  501    0  0.00000000000E+00  0.00000000000E+00  0.72921680317E+03  0.72921680318E+03  0.25500000000E-02 0. -1.
         -2   -1    0    0    0  501 -0.00000000000E+00 -0.00000000000E+00 -0.18068021458E+04  0.18068021458E+04  0.25500000000E-02 0.  1.
    8880023    1    1    2    0    0  0.16420269837E+03 -0.31558271890E+03  0.50745412329E+03  0.90436434700E+03  0.65864270000E+03 0. -1.
    8880022    1    1    2    0    0 -0.16420269837E+03  0.31558271890E+03 -0.15850394659E+04  0.16316546020E+04  0.15294330000E+03 0.  0.
<mgrwt>
<rscale>  0 0.63484656E+03</rscale>
<asrwt>0</asrwt>
<pdfrwt beam="1">  1        2 0.11218720E+00 0.74857544E+03</pdfrwt>
<pdfrwt beam="2">  1       -2 0.27796956E+00 0.74857544E+03</pdfrwt>
<totfact> 0.17491096E+00</totfact>
</mgrwt>
</event>
<event>
 4    5  0.2025789E-007  0.9094312E+03  0.7818608E-02  0.9511058E-01
         -2   -1    0    0    0  501 -0.00000000000E+00  0.00000000000E+00  0.39905171927E+03  0.39905171928E+03  0.25500000000E-02 0.  1.
          2   -1    0    0  501    0  0.00000000000E+00 -0.00000000000E+00 -0.17575493556E+04  0.17575493556E+04  0.25500000000E-02 0. -1.
    8880023    1    1    2    0    0 -0.51142636021E+03  0.36290218689E+03 -0.11744466265E+04  0.14853922054E+04  0.65864270000E+03 0.  0.
    8880022    1    1    2    0    0  0.51142636021E+03 -0.36290218689E+03 -0.18405100979E+03  0.67120886941E+03  0.15294330000E+03 0.  0.
<mgrwt>
<rscale>  0 0.83473451E+03</rscale>
<asrwt>0</asrwt>
<pdfrwt beam="1">  1        2 0.27039220E+00 0.90943121E+03</pdfrwt>
<pdfrwt beam="2">  1       -2 0.61392573E-01 0.90943121E+03</pdfrwt>
<totfact> 0.22693373E+01</totfact>
</mgrwt>
</event>
<event>
 4    5  0.2025789E-007  0.9701594E+03  0.7818608E-02  0.9421684E-01
          2   -1    0    0  501    0  0.00000000000E+00  0.00000000000E+00  0.10600047117E+04  0.10600047117E+04  0.25500000000E-02 0. -1.
         -2   -1    0    0    0  501 -0.00000000000E+00 -0.00000000000E+00 -0.86689007294E+03  0.86689007294E+03  0.25500000000E-02 0.  1.
    8880023    1    1    2    0    0 -0.34714565639E+03  0.62200391730E+03  0.55043755073E+03  0.11154329578E+04  0.65864270000E+03 0.  0.
    8880022    1    1    2    0    0  0.34714565639E+03 -0.62200391730E+03 -0.35732291199E+03  0.81146182679E+03  0.15294330000E+03 0.  0.
<mgrwt>
<rscale>  0 0.90312469E+03</rscale>
<asrwt>0</asrwt>
<pdfrwt beam="1">  1        2 0.16307765E+00 0.97015936E+03</pdfrwt>
<pdfrwt beam="2">  1       -2 0.13336770E+00 0.97015936E+03</pdfrwt>
<totfact> 0.93383531E+00</totfact>
</mgrwt>
</event>
<event>
 4    5  0.2025789E-007  0.7170832E+03  0.7818608E-02  0.9932582E-01
          2   -1    0    0  501    0  0.00000000000E+00  0.00000000000E+00  0.22261796522E+04  0.22261796522E+04  0.25500000000E-02 0. -1.
         -2   -1    0    0    0  501 -0.00000000000E+00 -0.00000000000E+00 -0.88908210159E+03  0.88908210159E+03  0.25500000000E-02 0.  1.
    8880023    1    1    2    0    0  0.18561946522E+03 -0.21434439720E+03  0.21363694983E+04  0.22535045920E+04  0.65864270000E+03 0. -1.
    8880022    1    1    2    0    0 -0.18561946522E+03  0.21434439720E+03 -0.79927194772E+03  0.86175716179E+03  0.15294330000E+03 0.  0.
<mgrwt>
<rscale>  0 0.58707890E+03</rscale>
<asrwt>0</asrwt>
<pdfrwt beam="1">  1        2 0.34248918E+00 0.71708320E+03</pdfrwt>
<pdfrwt beam="2">  1       -2 0.13678186E+00 0.71708320E+03</pdfrwt>
<totfact> 0.19992193E+00</totfact>
</mgrwt>
</event>
<event>
 4    5  0.2025789E-007  0.1301229E+04  0.7818608E-02  0.9064500E-01
          2   -1    0    0  501    0  0.00000000000E+00  0.00000000000E+00  0.24893278599E+04  0.24893278599E+04  0.25500000000E-02 0. -1.
         -2   -1    0    0    0  501 -0.00000000000E+00 -0.00000000000E+00 -0.10581926953E+04  0.10581926953E+04  0.25500000000E-02 0.  1.
    8880023    1    1    2    0    0  0.88440074005E+03 -0.69081209881E+03  0.19155213082E+04  0.23156895546E+04  0.65864270000E+03 0.  0.
    8880022    1    1    2    0    0 -0.88440074005E+03  0.69081209881E+03 -0.48438614356E+03  0.12318310006E+04  0.15294330000E+03 0.  0.
<mgrwt>
<rscale>  0 0.12568521E+04</rscale>
<asrwt>0</asrwt>
<pdfrwt beam="1">  1        2 0.38297351E+00 0.13012287E+04</pdfrwt>
<pdfrwt beam="2">  1       -2 0.16279888E+00 0.13012287E+04</pdfrwt>
<totfact> 0.81803179E-01</totfact>
</mgrwt>
</event>
<event>
 4    5  0.2025789E-007  0.1052698E+04  0.7818608E-02  0.9315646E-01
         -2   -1    0    0    0  501 -0.00000000000E+00  0.00000000000E+00  0.92268101414E+03  0.92268101414E+03  0.25500000000E-02 0.  1.
          2   -1    0    0  501    0  0.00000000000E+00 -0.00000000000E+00 -0.19260632326E+04  0.19260632326E+04  0.25500000000E-02 0. -1.
    8880023    1    1    2    0    0  0.99809661463E+02  0.81510727144E+03 -0.15330292465E+04  0.18596641389E+04  0.65864270000E+03 0.  0.
    8880022    1    1    2    0    0 -0.99809661463E+02 -0.81510727144E+03  0.52964702804E+03  0.98908010788E+03  0.15294330000E+03 0.  0.
<mgrwt>
<rscale>  0 0.99355165E+03</rscale>
<asrwt>0</asrwt>
<pdfrwt beam="1">  1        2 0.29631742E+00 0.10526975E+04</pdfrwt>
<pdfrwt beam="2">  1       -2 0.14195093E+00 0.10526975E+04</pdfrwt>
<totfact> 0.25197212E+00</totfact>
</mgrwt>
</event>
<event>
 4    5  0.2025789E-007  0.1112575E+04  0.7818608E-02  0.9247183E-01
         -2   -1    0    0    0  501 -0.00000000000E+00  0.00000000000E+00  0.56949141162E+03  0.56949141162E+03  0.25500000000E-02 0.  1.
          2   -1    0    0  501    0  0.00000000000E+00 -0.00000000000E+00 -0.24892252948E+04  0.24892252948E+04  0.25500000000E-02 0. -1.
    8880023    1    1    2    0    0  0.89458844387E+03  0.61034771302E+02 -0.18339794057E+04  0.21450651259E+04  0.65864270000E+03 0.  0.
    8880022    1    1    2    0    0 -0.89458844387E+03 -0.61034771302E+02 -0.85754477419E+02  0.91365158054E+03  0.15294330000E+03 0.  0.
<mgrwt>
<rscale>  0 0.10579420E+04</rscale>
<asrwt>0</asrwt>
<pdfrwt beam="1">  1        2 0.38295773E+00 0.11125754E+04</pdfrwt>
<pdfrwt beam="2">  1       -2 0.87614065E-01 0.11125754E+04</pdfrwt>
<totfact> 0.39507246E+00</totfact>
</mgrwt>
</event>
<event>
 4    5  0.2025789E-007  0.9168255E+03  0.7818608E-02  0.9499544E-01
         -2   -1    0    0    0  501 -0.00000000000E+00  0.00000000000E+00  0.18234918251E+04  0.18234918251E+04  0.25500000000E-02 0.  1.
          2   -1    0    0  501    0  0.00000000000E+00 -0.00000000000E+00 -0.94315242743E+03  0.94315242743E+03  0.25500000000E-02 0. -1.
    8880023    1    1    2    0    0 -0.33316991141E+03 -0.54383514832E+03 -0.63513884822E+03  0.11153342195E+04  0.65864270000E+03 0.  0.
    8880022    1    1    2    0    0  0.33316991141E+03  0.54383514832E+03  0.15154782459E+04  0.16513100331E+04  0.15294330000E+03 0.  0.
<mgrwt>
<rscale>  0 0.84317473E+03</rscale>
<asrwt>0</asrwt>
<pdfrwt beam="1">  1        2 0.14510037E+00 0.91682554E+03</pdfrwt>
<pdfrwt beam="2">  1       -2 0.28053721E+00 0.91682554E+03</pdfrwt>
<totfact> 0.11613343E+00</totfact>
</mgrwt>
</event>
<event>
 4    5  0.2025789E-007  0.9217195E+03  0.7818608E-02  0.9492028E-01
          2   -1    0    0  501    0  0.00000000000E+00  0.00000000000E+00  0.25972671305E+04  0.25972671305E+04  0.25500000000E-02 0. -1.
         -2   -1    0    0    0  501 -0.00000000000E+00 -0.00000000000E+00 -0.91013841765E+03  0.91013841765E+03  0.25500000000E-02 0.  1.
    8880023    1    1    2    0    0 -0.19071255297E+03 -0.61594263555E+03  0.23778236945E+04  0.25502180958E+04  0.65864270000E+03 0. -1.
    8880022    1    1    2    0    0  0.19071255297E+03  0.61594263555E+03 -0.69069498163E+03  0.95718745229E+03  0.15294330000E+03 0.  0.
<mgrwt>
<rscale>  0 0.84874157E+03</rscale>
<asrwt>0</asrwt>
<pdfrwt beam="1">  1        2 0.39957955E+00 0.92171949E+03</pdfrwt>
<pdfrwt beam="2">  1       -2 0.14002130E+00 0.92171949E+03</pdfrwt>
<totfact> 0.11196536E+00</totfact>
</mgrwt>
</event>
<event>
 4    5  0.2025789E-007  0.7532781E+03  0.7818608E-02  0.9822831E-01
          2   -1    0    0  501    0  0.00000000000E+00  0.00000000000E+00  0.10758922411E+04  0.10758922411E+04  0.25500000000E-02 0. -1.
         -2   -1    0    0    0  501 -0.00000000000E+00 -0.00000000000E+00 -0.11340554972E+04  0.11340554972E+04  0.25500000000E-02 0.  1.
    8880023    1    1    2    0    0 -0.47095438682E+02  0.36249107618E+03  0.89967194942E+03  0.11733872266E+04  0.65864270000E+03 0.  0.
    8880022    1    1    2    0    0  0.47095438682E+02 -0.36249107618E+03 -0.95783520553E+03  0.10365605118E+04  0.15294330000E+03 0.  0.
<mgrwt>
<rscale>  0 0.64151562E+03</rscale>
<asrwt>0</asrwt>
<pdfrwt beam="1">  1        2 0.16552188E+00 0.75327815E+03</pdfrwt>
<pdfrwt beam="2">  1       -2 0.17447008E+00 0.75327815E+03</pdfrwt>
<totfact> 0.45637674E+00</totfact>
</mgrwt>
</event>
<event>
 4    5  0.2025789E-007  0.1351831E+04  0.7818608E-02  0.9022045E-01
         -2   -1    0    0    0  501 -0.00000000000E+00  0.00000000000E+00  0.92313675375E+03  0.92313675376E+03  0.25500000000E-02 0.  1.
          2   -1    0    0  501    0  0.00000000000E+00 -0.00000000000E+00 -0.19960007468E+04  0.19960007468E+04  0.25500000000E-02 0. -1.
    8880023    1    1    2    0    0  0.11773306657E+04  0.86768711429E+02 -0.10775389741E+04  0.17287384859E+04  0.65864270000E+03 0. -1.
    8880022    1    1    2    0    0 -0.11773306657E+04 -0.86768711429E+02  0.46749810992E+01  0.11903990146E+04  0.15294330000E+03 0.  0.
<mgrwt>
<rscale>  0 0.13095258E+04</rscale>
<asrwt>0</asrwt>
<pdfrwt beam="1">  1        2 0.30707704E+00 0.13518308E+04</pdfrwt>
<pdfrwt beam="2">  1       -2 0.14202104E+00 0.13518308E+04</pdfrwt>
<totfact> 0.22278026E+00</totfact>
</mgrwt>
</event>
<event>
 4    5  0.2025789E-007  0.7224140E+03  0.7818608E-02  0.9914501E-01
         -2   -1    0    0    0  501 -0.00000000000E+00  0.00000000000E+00  0.13944775091E+04  0.13944775091E+04  0.25500000000E-02 0.  1.
          2   -1    0    0  501    0  0.00000000000E+00 -0.00000000000E+00 -0.16432501622E+04  0.16432501622E+04  0.25500000000E-02 0. -1.
    8880023    1    1    2    0    0  0.63554293677E+02  0.28988390126E+03 -0.15416080666E+04  0.17024797977E+04  0.65864270000E+03 0. -1.
    8880022    1    1    2    0    0 -0.63554293677E+02 -0.28988390126E+03  0.12928354135E+04  0.13352478735E+04  0.15294330000E+03 0.  0.
<mgrwt>
<rscale>  0 0.59563636E+03</rscale>
<asrwt>0</asrwt>
<pdfrwt beam="1">  1        2 0.25280772E+00 0.72241403E+03</pdfrwt>
<pdfrwt beam="2">  1       -2 0.21453500E+00 0.72241403E+03</pdfrwt>
<totfact> 0.11785938E+00</totfact>
</mgrwt>
</event>
<event>
 4    5  0.2025789E-007  0.7966004E+03  0.7818608E-02  0.9718195E-01
          2   -1    0    0  501    0  0.00000000000E+00  0.00000000000E+00  0.11702193208E+04  0.11702193208E+04  0.25500000000E-02 0. -1.
         -2   -1    0    0    0  501 -0.00000000000E+00 -0.00000000000E+00 -0.13392803421E+04  0.13392803421E+04  0.25500000000E-02 0.  1.
    8880023    1    1    2    0    0 -0.38014692722E+03 -0.23717145559E+03  0.98223420582E+03  0.12646565648E+04  0.65864270000E+03 0. -1.
    8880022    1    1    2    0    0  0.38014692722E+03  0.23717145559E+03 -0.11512952272E+04  0.12448430980E+04  0.15294330000E+03 0.  0.
<mgrwt>
<rscale>  0 0.69943702E+03</rscale>
<asrwt>0</asrwt>
<pdfrwt beam="1">  1        2 0.18003374E+00 0.79660040E+03</pdfrwt>
<pdfrwt beam="2">  1       -2 0.20604313E+00 0.79660040E+03</pdfrwt>
<totfact> 0.24454534E+00</totfact>
</mgrwt>
</event>
<event>
 4    5  0.2025789E-007  0.1079730E+04  0.7818608E-02  0.9283967E-01
         -2   -1    0    0    0  501 -0.00000000000E+00  0.00000000000E+00  0.55219272114E+03  0.55219272114E+03  0.25500000000E-02 0.  1.
          2   -1    0    0  501    0  0.00000000000E+00 -0.00000000000E+00 -0.27951203612E+04  0.27951203612E+04  0.25500000000E-02 0. -1.
    8880023    1    1    2    0    0  0.68730448149E+03  0.50952879886E+03 -0.22304931800E+04  0.24780873833E+04  0.65864270000E+03 0.  0.
    8880022    1    1    2    0    0 -0.68730448149E+03 -0.50952879886E+03 -0.12434460155E+02  0.86922569909E+03  0.15294330000E+03 0.  0.
<mgrwt>
<rscale>  0 0.10227240E+04</rscale>
<asrwt>0</asrwt>
<pdfrwt beam="1">  1        2 0.43001851E+00 0.10797302E+04</pdfrwt>
<pdfrwt beam="2">  1       -2 0.84952728E-01 0.10797302E+04</pdfrwt>
<totfact> 0.28219755E+00</totfact>
</mgrwt>
</event>
<event>
 4    5  0.2025789E-007  0.1559038E+04  0.7818608E-02  0.8869034E-01
          2   -1    0    0  501    0  0.00000000000E+00  0.00000000000E+00  0.26539311138E+04  0.26539311138E+04  0.25500000000E-02 0. -1.
         -2   -1    0    0    0  501 -0.00000000000E+00 -0.00000000000E+00 -0.96339365103E+03  0.96339365103E+03  0.25500000000E-02 0.  1.
    8880023    1    1    2    0    0 -0.28820349412E+03 -0.13833754177E+04  0.22400707807E+03  0.15750486271E+04  0.65864270000E+03 0.  1.
    8880022    1    1    2    0    0  0.28820349412E+03  0.13833754177E+04  0.14665303847E+04  0.20422761377E+04  0.15294330000E+03 0.  0.
<mgrwt>
<rscale>  0 0.15234081E+04</rscale>
<asrwt>0</asrwt>
<pdfrwt beam="1">  1        2 0.40829709E+00 0.15590378E+04</pdfrwt>
<pdfrwt beam="2">  1       -2 0.14821441E+00 0.15590378E+04</pdfrwt>
<totfact> 0.82226653E-01</totfact>
</mgrwt>
</event>
<event>
 4    5  0.2025789E-007  0.8235063E+03  0.7818608E-02  0.9662102E-01
         -2   -1    0    0    0  501 -0.00000000000E+00  0.00000000000E+00  0.17324048659E+04  0.17324048659E+04  0.25500000000E-02 0.  1.
          2   -1    0    0  501    0  0.00000000000E+00 -0.00000000000E+00 -0.76991238338E+03  0.76991238339E+03  0.25500000000E-02 0. -1.
    8880023    1    1    2    0    0 -0.99640539498E+02 -0.48417378082E+03 -0.49147840523E+03  0.95901705731E+03  0.65864270000E+03 0. -1.
    8880022    1    1    2    0    0  0.99640539498E+02  0.48417378082E+03  0.14539708877E+04  0.15433001920E+04  0.15294330000E+03 0.  0.
<mgrwt>
<rscale>  0 0.73318776E+03</rscale>
<asrwt>0</asrwt>
<pdfrwt beam="1">  1        2 0.11844806E+00 0.82350634E+03</pdfrwt>
<pdfrwt beam="2">  1       -2 0.26652383E+00 0.82350634E+03</pdfrwt>
<totfact> 0.18879509E+00</totfact>
</mgrwt>
</event>
<event>
 4    5  0.2025789E-007  0.8821682E+03  0.7818608E-02  0.9555286E-01
          2   -1    0    0  501    0  0.00000000000E+00  0.00000000000E+00  0.21374632069E+04  0.21374632069E+04  0.25500000000E-02 0. -1.
         -2   -1    0    0    0  501 -0.00000000000E+00 -0.00000000000E+00 -0.47520405002E+03  0.47520405003E+03  0.25500000000E-02 0.  1.
    8880023    1    1    2    0    0  0.32113576870E+03  0.49120507602E+03  0.17875640582E+04  0.19933905982E+04  0.65864270000E+03 0.  0.
    8880022    1    1    2    0    0 -0.32113576870E+03 -0.49120507602E+03 -0.12530490137E+03  0.61927665866E+03  0.15294330000E+03 0.  0.
<mgrwt>
<rscale>  0 0.80327706E+03</rscale>
<asrwt>0</asrwt>
<pdfrwt beam="1">  1        2 0.32884049E+00 0.88216825E+03</pdfrwt>
<pdfrwt beam="2">  1       -2 0.73108315E-01 0.88216825E+03</pdfrwt>
<totfact> 0.96431298E+00</totfact>
</mgrwt>
</event>
<event>
 4    5  0.2025789E-007  0.1311265E+04  0.7818608E-02  0.9055893E-01
          2   -1    0    0  501    0  0.00000000000E+00  0.00000000000E+00  0.14274201854E+04  0.14274201854E+04  0.25500000000E-02 0. -1.
         -2   -1    0    0    0  501 -0.00000000000E+00 -0.00000000000E+00 -0.12819553828E+04  0.12819553828E+04  0.25500000000E-02 0.  1.
    8880023    1    1    2    0    0  0.33024702733E+03  0.10846851671E+04  0.64458300316E+03  0.14611305434E+04  0.65864270000E+03 0.  0.
    8880022    1    1    2    0    0 -0.33024702733E+03 -0.10846851671E+04 -0.49911820053E+03  0.12482450248E+04  0.15294330000E+03 0.  0.
<mgrwt>
<rscale>  0 0.12673165E+04</rscale>
<asrwt>0</asrwt>
<pdfrwt beam="1">  1        2 0.21960310E+00 0.13112647E+04</pdfrwt>
<pdfrwt beam="2">  1       -2 0.19722391E+00 0.13112647E+04</pdfrwt>
<totfact> 0.18575703E+00</totfact>
</mgrwt>
</event>
<event>
 4    5  0.2025789E-007  0.9803816E+03  0.7818608E-02  0.9407687E-01
         -2   -1    0    0    0  501 -0.00000000000E+00  0.00000000000E+00  0.22322364224E+04  0.22322364224E+04  0.25500000000E-02 0.  1.
          2   -1    0    0  501    0  0.00000000000E+00 -0.00000000000E+00 -0.60027119086E+03  0.60027119087E+03  0.25500000000E-02 0. -1.
    8880023    1    1    2    0    0  0.31501095737E+03  0.65429801604E+03 -0.62792631769E+02  0.98239041013E+03  0.65864270000E+03 0.  0.
    8880022    1    1    2    0    0 -0.31501095737E+03 -0.65429801604E+03  0.16947578633E+04  0.18501172031E+04  0.15294330000E+03 0.  0.
<mgrwt>
<rscale>  0 0.91445774E+03</rscale>
<asrwt>0</asrwt>
<pdfrwt beam="1">  1        2 0.92349416E-01 0.98038156E+03</pdfrwt>
<pdfrwt beam="2">  1       -2 0.34342098E+00 0.98038156E+03</pdfrwt>
<totfact> 0.86139519E-01</totfact>
</mgrwt>
</event>
<event>
 4    5  0.2025789E-007  0.7877836E+03  0.7818608E-02  0.9737861E-01
          2   -1    0    0  501    0  0.00000000000E+00  0.00000000000E+00  0.39643523086E+04  0.39643523086E+04  0.25500000000E-02 0. -1.
         -2   -1    0    0    0  501 -0.00000000000E+00 -0.00000000000E+00 -0.15144198168E+03  0.15144198170E+03  0.25500000000E-02 0.  1.
    8880023    1    1    2    0    0 -0.43098861884E+03  0.32273515370E+02  0.34274681808E+04  0.35168368041E+04  0.65864270000E+03 0. -1.
    8880022    1    1    2    0    0  0.43098861884E+03 -0.32273515370E+02  0.38544214610E+03  0.59895748628E+03  0.15294330000E+03 0.  0.
<mgrwt>
<rscale>  0 0.68806626E+03</rscale>
<asrwt>0</asrwt>
<pdfrwt beam="1">  1        2 0.60990026E+00 0.78778358E+03</pdfrwt>
<pdfrwt beam="2">  1       -2 0.23298770E-01 0.78778358E+03</pdfrwt>
<totfact> 0.65018939E+00</totfact>
</mgrwt>
</event>
<event>
 4    5  0.2025789E-007  0.8379710E+03  0.7818608E-02  0.9634018E-01
          2   -1    0    0  501    0  0.00000000000E+00  0.00000000000E+00  0.38610381199E+03  0.38610381200E+03  0.25500000000E-02 0. -1.
         -2   -1    0    0    0  501 -0.00000000000E+00 -0.00000000000E+00 -0.15813054348E+04  0.15813054348E+04  0.25500000000E-02 0.  1.
    8880023    1    1    2    0    0  0.49666754969E+03  0.14733161322E+03 -0.11533497243E+04  0.14256265472E+04  0.65864270000E+03 0.  0.
    8880022    1    1    2    0    0 -0.49666754969E+03 -0.14733161322E+03 -0.41851898463E+02  0.54178269960E+03  0.15294330000E+03 0.  0.
<mgrwt>
<rscale>  0 0.75084989E+03</rscale>
<asrwt>0</asrwt>
<pdfrwt beam="1">  1        2 0.59400587E-01 0.83797104E+03</pdfrwt>
<pdfrwt beam="2">  1       -2 0.24327776E+00 0.83797104E+03</pdfrwt>
<totfact> 0.59473771E+00</totfact>
</mgrwt>
</event>
<event>
 4    5  0.2025789E-007  0.7769345E+03  0.7818608E-02  0.9763088E-01
          2   -1    0    0  501    0  0.00000000000E+00  0.00000000000E+00  0.14774567702E+04  0.14774567702E+04  0.25500000000E-02 0. -1.
         -2   -1    0    0    0  501 -0.00000000000E+00 -0.00000000000E+00 -0.29581544341E+03  0.29581544342E+03  0.25500000000E-02 0.  1.
    8880023    1    1    2    0    0  0.24178603628E+03  0.33370115906E+03  0.39363467051E+03  0.87096234763E+03  0.65864270000E+03 0.  1.
    8880022    1    1    2    0    0 -0.24178603628E+03 -0.33370115906E+03  0.78800665625E+03  0.90230986596E+03  0.15294330000E+03 0.  0.
<mgrwt>
<rscale>  0 0.67381643E+03</rscale>
<asrwt>0</asrwt>
<pdfrwt beam="1">  1        2 0.22730104E+00 0.77693446E+03</pdfrwt>
<pdfrwt beam="2">  1       -2 0.45510068E-01 0.77693446E+03</pdfrwt>
<totfact> 0.60921578E+01</totfact>
</mgrwt>
</event>
<event>
 4    5  0.2025789E-007  0.8523347E+03  0.7818608E-02  0.9607347E-01
          2   -1    0    0  501    0  0.00000000000E+00  0.00000000000E+00  0.24761158475E+04  0.24761158475E+04  0.25500000000E-02 0. -1.
         -2   -1    0    0    0  501 -0.00000000000E+00 -0.00000000000E+00 -0.27294650471E+03  0.27294650472E+03  0.25500000000E-02 0.  1.
    8880023    1    1    2    0    0  0.52739855716E+03 -0.12047822218E+03  0.19585194908E+04  0.21359478089E+04  0.65864270000E+03 0.  0.
    8880022    1    1    2    0    0 -0.52739855716E+03  0.12047822218E+03  0.24464985190E+03  0.61311454327E+03  0.15294330000E+03 0.  0.
<mgrwt>
<rscale>  0 0.76811831E+03</rscale>
<asrwt>0</asrwt>
<pdfrwt beam="1">  1        2 0.38094089E+00 0.85233470E+03</pdfrwt>
<pdfrwt beam="2">  1       -2 0.41991771E-01 0.85233470E+03</pdfrwt>
<totfact> 0.19895146E+01</totfact>
</mgrwt>
</event>
<event>
 4    5  0.2025789E-007  0.7236020E+03  0.7818608E-02  0.9910581E-01
         -2   -1    0    0    0  501 -0.00000000000E+00  0.00000000000E+00  0.45908715317E+03  0.45908715318E+03  0.25500000000E-02 0.  1.
          2   -1    0    0  501    0  0.00000000000E+00 -0.00000000000E+00 -0.61217137644E+03  0.61217137645E+03  0.25500000000E-02 0. -1.
    8880023    1    1    2    0    0 -0.23830213471E+03  0.18166381056E+03 -0.93925194740E+02  0.72967238946E+03  0.65864270000E+03 0. -1.
    8880022    1    1    2    0    0  0.23830213471E+03 -0.18166381056E+03 -0.59159028531E+02  0.34158614016E+03  0.15294330000E+03 0.  1.
<mgrwt>
<rscale>  0 0.59751203E+03</rscale>
<asrwt>0</asrwt>
<pdfrwt beam="1">  1        2 0.94180212E-01 0.72360200E+03</pdfrwt>
<pdfrwt beam="2">  1       -2 0.70628793E-01 0.72360200E+03</pdfrwt>
<totfact> 0.89403974E+01</totfact>
</mgrwt>
</event>
<event>
 4    5  0.2025789E-007  0.9250873E+03  0.7818608E-02  0.9486902E-01
         -2   -1    0    0    0  501 -0.00000000000E+00  0.00000000000E+00  0.76373550668E+03  0.76373550668E+03  0.25500000000E-02 0.  1.
          2   -1    0    0  501    0  0.00000000000E+00 -0.00000000000E+00 -0.98878952983E+03  0.98878952983E+03  0.25500000000E-02 0. -1.
    8880023    1    1    2    0    0  0.26296246907E+03  0.59399239181E+03 -0.47498285651E+03  0.10399015059E+04  0.65864270000E+03 0.  0.
    8880022    1    1    2    0    0 -0.26296246907E+03 -0.59399239181E+03  0.24992883336E+03  0.71262353064E+03  0.15294330000E+03 0.  0.
<mgrwt>
<rscale>  0 0.85256379E+03</rscale>
<asrwt>0</asrwt>
<pdfrwt beam="1">  1        2 0.15212147E+00 0.92508725E+03</pdfrwt>
<pdfrwt beam="2">  1       -2 0.11749777E+00 0.92508725E+03</pdfrwt>
<totfact> 0.14316042E+01</totfact>
</mgrwt>
</event>
<event>
 4    5  0.2025789E-007  0.8365374E+03  0.7818608E-02  0.9636744E-01
         -2   -1    0    0    0  501 -0.00000000000E+00  0.00000000000E+00  0.10150254450E+04  0.10150254450E+04  0.25500000000E-02 0.  1.
          2   -1    0    0  501    0  0.00000000000E+00 -0.00000000000E+00 -0.30310255504E+04  0.30310255504E+04  0.25500000000E-02 0. -1.
    8880023    1    1    2    0    0 -0.35916008022E+03  0.37011982291E+03 -0.28961406811E+04  0.30145357350E+04  0.65864270000E+03 0.  0.
    8880022    1    1    2    0    0  0.35916008022E+03 -0.37011982291E+03  0.88014057568E+03  0.10315152604E+04  0.15294330000E+03 0.  0.
<mgrwt>
<rscale>  0 0.74911225E+03</rscale>
<asrwt>0</asrwt>
<pdfrwt beam="1">  1        2 0.46631162E+00 0.83653742E+03</pdfrwt>
<pdfrwt beam="2">  1       -2 0.15615776E+00 0.83653742E+03</pdfrwt>
<totfact> 0.47052978E-01</totfact>
</mgrwt>
</event>
<event>
 4    5  0.2025789E-007  0.1202732E+04  0.7818608E-02  0.9154471E-01
         -2   -1    0    0    0  501 -0.00000000000E+00  0.00000000000E+00  0.60438096127E+03  0.60438096127E+03  0.25500000000E-02 0.  1.
          2   -1    0    0  501    0  0.00000000000E+00 -0.00000000000E+00 -0.30539416832E+04  0.30539416832E+04  0.25500000000E-02 0. -1.
    8880023    1    1    2    0    0 -0.99596019024E+03 -0.14428173225E+03 -0.23444989963E+04  0.26350027835E+04  0.65864270000E+03 0.  0.
    8880022    1    1    2    0    0  0.99596019024E+03  0.14428173225E+03 -0.10506172565E+03  0.10233198611E+04  0.15294330000E+03 0.  0.
<mgrwt>
<rscale>  0 0.11535973E+04</rscale>
<asrwt>0</asrwt>
<pdfrwt beam="1">  1        2 0.46983717E+00 0.12027319E+04</pdfrwt>
<pdfrwt beam="2">  1       -2 0.92981688E-01 0.12027319E+04</pdfrwt>
<totfact> 0.15652237E+00</totfact>
</mgrwt>
</event>
<event>
 4    5  0.2025789E-007  0.7258337E+03  0.7818608E-02  0.9903319E-01
         -2   -1    0    0    0  501 -0.00000000000E+00  0.00000000000E+00  0.18184799409E+03  0.18184799410E+03  0.25500000000E-02 0.  1.
          2   -1    0    0  501    0  0.00000000000E+00 -0.00000000000E+00 -0.29223370945E+04  0.29223370945E+04  0.25500000000E-02 0. -1.
    8880023    1    1    2    0    0  0.30445566988E+03 -0.18197726944E+02 -0.26550170068E+04  0.27524443546E+04  0.65864270000E+03 0. -1.
    8880022    1    1    2    0    0 -0.30445566988E+03  0.18197726944E+02 -0.85472093598E+02  0.35174073405E+03  0.15294330000E+03 0.  0.
<mgrwt>
<rscale>  0 0.60100693E+03</rscale>
<asrwt>0</asrwt>
<pdfrwt beam="1">  1        2 0.44959029E+00 0.72583374E+03</pdfrwt>
<pdfrwt beam="2">  1       -2 0.27976617E-01 0.72583374E+03</pdfrwt>
<totfact> 0.24076887E+01</totfact>
</mgrwt>
</event>
<event>
 4    5  0.2025789E-007  0.8402511E+03  0.7818608E-02  0.9629707E-01
          2   -1    0    0  501    0  0.00000000000E+00  0.00000000000E+00  0.83747803832E+03  0.83747803833E+03  0.25500000000E-02 0. -1.
         -2   -1    0    0    0  501 -0.00000000000E+00 -0.00000000000E+00 -0.98450706237E+03  0.98450706237E+03  0.25500000000E-02 0.  1.
    8880023    1    1    2    0    0  0.43205286347E+03 -0.29247569904E+03  0.49928578346E+03  0.97739869613E+03  0.65864270000E+03 0. -1.
    8880022    1    1    2    0    0 -0.43205286347E+03  0.29247569904E+03 -0.64631480750E+03  0.84458640457E+03  0.15294330000E+03 0.  0.
<mgrwt>
<rscale>  0 0.75360798E+03</rscale>
<asrwt>0</asrwt>
<pdfrwt beam="1">  1        2 0.12884277E+00 0.84025110E+03</pdfrwt>
<pdfrwt beam="2">  1       -2 0.15146263E+00 0.84025110E+03</pdfrwt>
<totfact> 0.95204588E+00</totfact>
</mgrwt>
</event>
<event>
 4    5  0.2048958E-007  0.8124189E+03  0.7818608E-02  0.9684560E-01
          2   -1    0    0  501    0  0.00000000000E+00  0.00000000000E+00  0.27413150503E+04  0.27413150503E+04  0.25500000000E-02 0. -1.
         -2   -1    0    0    0  501 -0.00000000000E+00 -0.00000000000E+00 -0.11171007348E+04  0.11171007348E+04  0.25500000000E-02 0.  1.
    8880023    1    1    2    0    0  0.16152810619E+03  0.44735104001E+03  0.26206803599E+04  0.27437182868E+04  0.65864270000E+03 0. -1.
    8880022    1    1    2    0    0 -0.16152810619E+03 -0.44735104001E+03 -0.99646604444E+03  0.11146974983E+04  0.15294330000E+03 0.  0.
<mgrwt>
<rscale>  0 0.71943553E+03</rscale>
<asrwt>0</asrwt>
<pdfrwt beam="1">  1        2 0.42174077E+00 0.81241891E+03</pdfrwt>
<pdfrwt beam="2">  1       -2 0.17186165E+00 0.81241891E+03</pdfrwt>
<totfact> 0.54341643E-01</totfact>
</mgrwt>
</event>
<event>
 4    5  0.2025789E-007  0.1325386E+04  0.7818608E-02  0.9043941E-01
         -2   -1    0    0    0  501 -0.00000000000E+00  0.00000000000E+00  0.68145564187E+03  0.68145564188E+03  0.25500000000E-02 0.  1.
          2   -1    0    0  501    0  0.00000000000E+00 -0.00000000000E+00 -0.31308879221E+04  0.31308879221E+04  0.25500000000E-02 0. -1.
    8880023    1    1    2    0    0 -0.11130144362E+04  0.28989302959E+03 -0.28373095192E+03  0.13554160111E+04  0.65864270000E+03 0.  1.
    8880022    1    1    2    0    0  0.11130144362E+04 -0.28989302959E+03 -0.21657013283E+04  0.24569275529E+04  0.15294330000E+03 0.  0.
<mgrwt>
<rscale>  0 0.12820260E+04</rscale>
<asrwt>0</asrwt>
<pdfrwt beam="1">  1        2 0.48167506E+00 0.13253865E+04</pdfrwt>
<pdfrwt beam="2">  1       -2 0.10483933E+00 0.13253865E+04</pdfrwt>
<totfact> 0.10355042E+00</totfact>
</mgrwt>
</event>
<event>
 4    5  0.2025789E-007  0.1389927E+04  0.7818608E-02  0.8991549E-01
          2   -1    0    0  501    0  0.00000000000E+00  0.00000000000E+00  0.18199424810E+04  0.18199424810E+04  0.25500000000E-02 0. -1.
         -2   -1    0    0    0  501 -0.00000000000E+00 -0.00000000000E+00 -0.10834766550E+04  0.10834766550E+04  0.25500000000E-02 0.  1.
    8880023    1    1    2    0    0  0.49123240285E+01 -0.12239537305E+04  0.90483267473E+03  0.16584990928E+04  0.65864270000E+03 0.  0.
    8880022    1    1    2    0    0 -0.49123240285E+01  0.12239537305E+04 -0.16836684873E+03  0.12449200432E+04  0.15294330000E+03 0.  0.
<mgrwt>
<rscale>  0 0.13490474E+04</rscale>
<asrwt>0</asrwt>
<pdfrwt beam="1">  1        2 0.27999115E+00 0.13899270E+04</pdfrwt>
<pdfrwt beam="2">  1       -2 0.16668872E+00 0.13899270E+04</pdfrwt>
<totfact> 0.18038478E+00</totfact>
</mgrwt>
</event>
<event>
 4    5  0.2025789E-007  0.8479561E+03  0.7818608E-02  0.9615357E-01
         -2   -1    0    0    0  501 -0.00000000000E+00  0.00000000000E+00  0.12163269615E+04  0.12163269615E+04  0.25500000000E-02 0.  1.
          2   -1    0    0  501    0  0.00000000000E+00 -0.00000000000E+00 -0.84039242496E+03  0.84039242496E+03  0.25500000000E-02 0. -1.
    8880023    1    1    2    0    0 -0.37651760818E+03  0.37875300267E+03 -0.52569397416E+03  0.99768918358E+03  0.65864270000E+03 0. -1.
    8880022    1    1    2    0    0  0.37651760818E+03 -0.37875300267E+03  0.90162851071E+03  0.10590302029E+04  0.15294330000E+03 0.  0.
<mgrwt>
<rscale>  0 0.76288039E+03</rscale>
<asrwt>0</asrwt>
<pdfrwt beam="1">  1        2 0.12929114E+00 0.84795610E+03</pdfrwt>
<pdfrwt beam="2">  1       -2 0.18712722E+00 0.84795610E+03</pdfrwt>
<totfact> 0.52670626E+00</totfact>
</mgrwt>
</event>
<event>
 4    5  0.2025789E-007  0.1514822E+04  0.7818608E-02  0.8899240E-01
          2   -1    0    0  501    0  0.00000000000E+00  0.00000000000E+00  0.28652326122E+04  0.28652326122E+04  0.25500000000E-02 0. -1.
         -2   -1    0    0    0  501 -0.00000000000E+00 -0.00000000000E+00 -0.15151052932E+04  0.15151052932E+04  0.25500000000E-02 0.  1.
    8880023    1    1    2    0    0 -0.13173727061E+04 -0.35412522423E+03  0.22692142938E+04  0.27283730021E+04  0.65864270000E+03 0.  0.
    8880022    1    1    2    0    0  0.13173727061E+04  0.35412522423E+03 -0.91908697484E+03  0.16519649032E+04  0.15294330000E+03 0.  0.
<mgrwt>
<rscale>  0 0.14779645E+04</rscale>
<asrwt>0</asrwt>
<pdfrwt beam="1">  1        2 0.44080501E+00 0.15148220E+04</pdfrwt>
<pdfrwt beam="2">  1       -2 0.23309312E+00 0.15148220E+04</pdfrwt>
<totfact> 0.16190317E-01</totfact>
</mgrwt>
</event>
<event>
 4    5  0.2025789E-007  0.7618642E+03  0.7818608E-02  0.9800305E-01
          2   -1    0    0  501    0  0.00000000000E+00  0.00000000000E+00  0.22914178541E+04  0.22914178541E+04  0.25500000000E-02 0. -1.
         -2   -1    0    0    0  501 -0.00000000000E+00 -0.00000000000E+00 -0.86924132800E+03  0.86924132801E+03  0.25500000000E-02 0.  1.
    8880023    1    1    2    0    0  0.49586178809E+02 -0.37969467957E+03  0.21737569203E+04  0.23034010058E+04  0.65864270000E+03 0. -1.
    8880022    1    1    2    0    0 -0.49586178809E+02  0.37969467957E+03 -0.75158039420E+03  0.85725817628E+03  0.15294330000E+03 0.  0.
<mgrwt>
<rscale>  0 0.65346178E+03</rscale>
<asrwt>0</asrwt>
<pdfrwt beam="1">  1        2 0.35252583E+00 0.76186419E+03</pdfrwt>
<pdfrwt beam="2">  1       -2 0.13372943E+00 0.76186419E+03</pdfrwt>
<totfact> 0.19320030E+00</totfact>
</mgrwt>
</event>
<event>
 4    5  0.2025789E-007  0.7868398E+03  0.7818608E-02  0.9740009E-01
          2   -1    0    0  501    0  0.00000000000E+00  0.00000000000E+00  0.20984115915E+04  0.20984115915E+04  0.25500000000E-02 0. -1.
         -2   -1    0    0    0  501 -0.00000000000E+00 -0.00000000000E+00 -0.40835442382E+03  0.40835442383E+03  0.25500000000E-02 0.  1.
    8880023    1    1    2    0    0  0.25402498891E+03  0.34753131098E+03  0.18598125008E+04  0.20194106694E+04  0.65864270000E+03 0. -1.
    8880022    1    1    2    0    0 -0.25402498891E+03 -0.34753131098E+03 -0.16975533313E+03  0.48735534597E+03  0.15294330000E+03 0.  0.
<mgrwt>
<rscale>  0 0.68683850E+03</rscale>
<asrwt>0</asrwt>
<pdfrwt beam="1">  1        2 0.32283255E+00 0.78683983E+03</pdfrwt>
<pdfrwt beam="2">  1       -2 0.62823758E-01 0.78683983E+03</pdfrwt>
<totfact> 0.14266347E+01</totfact>
</mgrwt>
</event>
<event>
 4    5  0.2025789E-007  0.9131735E+03  0.7818608E-02  0.9505206E-01
         -2   -1    0    0    0  501 -0.00000000000E+00  0.00000000000E+00  0.14112463272E+04  0.14112463272E+04  0.25500000000E-02 0.  1.
          2   -1    0    0  501    0  0.00000000000E+00 -0.00000000000E+00 -0.13027516355E+04  0.13027516355E+04  0.25500000000E-02 0. -1.
    8880023    1    1    2    0    0  0.36526002320E+03 -0.51639196764E+03 -0.10461284931E+04  0.13886218272E+04  0.65864270000E+03 0. -1.
    8880022    1    1    2    0    0 -0.36526002320E+03  0.51639196764E+03  0.11546231848E+04  0.13253761355E+04  0.15294330000E+03 0.  0.
<mgrwt>
<rscale>  0 0.83901057E+03</rscale>
<asrwt>0</asrwt>
<pdfrwt beam="1">  1        2 0.20042333E+00 0.91317345E+03</pdfrwt>
<pdfrwt beam="2">  1       -2 0.21711482E+00 0.91317345E+03</pdfrwt>
<totfact> 0.17074808E+00</totfact>
</mgrwt>
</event>
<event>
 4    5  0.2025789E-007  0.1013675E+04  0.7818608E-02  0.9363881E-01
          2   -1    0    0  501    0  0.00000000000E+00  0.00000000000E+00  0.11826768921E+04  0.11826768921E+04  0.25500000000E-02 0. -1.
         -2   -1    0    0    0  501 -0.00000000000E+00 -0.00000000000E+00 -0.71865561040E+03  0.71865561040E+03  0.25500000000E-02 0.  1.
    8880023    1    1    2    0    0 -0.73712845800E+03 -0.22442988795E+03  0.46624418035E+03  0.11157602700E+04  0.65864270000E+03 0.  0.
    8880022    1    1    2    0    0  0.73712845800E+03  0.22442988795E+03 -0.22228986126E+01  0.78557223251E+03  0.15294330000E+03 0.  0.
<mgrwt>
<rscale>  0 0.95108690E+03</rscale>
<asrwt>0</asrwt>
<pdfrwt beam="1">  1        2 0.18195029E+00 0.10136752E+04</pdfrwt>
<pdfrwt beam="2">  1       -2 0.11056240E+00 0.10136752E+04</pdfrwt>
<totfact> 0.12489924E+01</totfact>
</mgrwt>
</event>
<event>
 4    5  0.2025789E-007  0.8381257E+03  0.7818608E-02  0.9633725E-01
         -2   -1    0    0    0  501 -0.00000000000E+00  0.00000000000E+00  0.60677947692E+03  0.60677947693E+03  0.25500000000E-02 0.  1.
          2   -1    0    0  501    0  0.00000000000E+00 -0.00000000000E+00 -0.10227674131E+04  0.10227674131E+04  0.25500000000E-02 0. -1.
    8880023    1    1    2    0    0  0.36502746302E+03  0.36796657112E+03 -0.62980187385E+03  0.10483821120E+04  0.65864270000E+03 0.  0.
    8880022    1    1    2    0    0 -0.36502746302E+03 -0.36796657112E+03  0.21381393769E+03  0.58116477800E+03  0.15294330000E+03 0.  0.
<mgrwt>
<rscale>  0 0.75103716E+03</rscale>
<asrwt>0</asrwt>
<pdfrwt beam="1">  1        2 0.15734883E+00 0.83812568E+03</pdfrwt>
<pdfrwt beam="2">  1       -2 0.93350689E-01 0.83812568E+03</pdfrwt>
<totfact> 0.23838035E+01</totfact>
</mgrwt>
</event>
<event>
 4    5  0.2025789E-007  0.1497296E+04  0.7818608E-02  0.8911548E-01
          2   -1    0    0  501    0  0.00000000000E+00  0.00000000000E+00  0.14759725581E+04  0.14759725581E+04  0.25500000000E-02 0. -1.
         -2   -1    0    0    0  501 -0.00000000000E+00 -0.00000000000E+00 -0.28321968847E+04  0.28321968847E+04  0.25500000000E-02 0.  1.
    8880023    1    1    2    0    0  0.12706109970E+04 -0.44003786182E+03  0.84866498641E+03  0.17210834062E+04  0.65864270000E+03 0.  0.
    8880022    1    1    2    0    0 -0.12706109970E+04  0.44003786182E+03 -0.22048893130E+04  0.25870860367E+04  0.15294330000E+03 0.  0.
<mgrwt>
<rscale>  0 0.14599265E+04</rscale>
<asrwt>0</asrwt>
<pdfrwt beam="1">  1        2 0.22707270E+00 0.14972962E+04</pdfrwt>
<pdfrwt beam="2">  1       -2 0.43572259E+00 0.14972962E+04</pdfrwt>
<totfact> 0.53246994E-02</totfact>
</mgrwt>
</event>
<event>
 4    5  0.2025789E-007  0.7190361E+03  0.7818608E-02  0.9925861E-01
          2   -1    0    0  501    0  0.00000000000E+00  0.00000000000E+00  0.58842199539E+03  0.58842199539E+03  0.25500000000E-02 0. -1.
         -2   -1    0    0    0  501 -0.00000000000E+00 -0.00000000000E+00 -0.12465564300E+04  0.12465564300E+04  0.25500000000E-02 0.  1.
    8880023    1    1    2    0    0  0.28344765647E+03  0.53479922755E+02  0.33230791086E+03  0.79211200595E+03  0.65864270000E+03 0.  0.
    8880022    1    1    2    0    0 -0.28344765647E+03 -0.53479922755E+02 -0.99044234548E+03  0.10428664195E+04  0.15294330000E+03 0.  0.
<mgrwt>
<rscale>  0 0.59024154E+03</rscale>
<asrwt>0</asrwt>
<pdfrwt beam="1">  1        2 0.90526461E-01 0.71903608E+03</pdfrwt>
<pdfrwt beam="2">  1       -2 0.19177791E+00 0.71903608E+03</pdfrwt>
<totfact> 0.78299672E+00</totfact>
</mgrwt>
</event>
<event>
 4    5  0.2025789E-007  0.9038984E+03  0.7818608E-02  0.9519802E-01
          2   -1    0    0  501    0  0.00000000000E+00  0.00000000000E+00  0.17374457044E+04  0.17374457044E+04  0.25500000000E-02 0. -1.
         -2   -1    0    0    0  501 -0.00000000000E+00 -0.00000000000E+00 -0.95805199633E+03  0.95805199633E+03  0.25500000000E-02 0.  1.
    8880023    1    1    2    0    0  0.45400928109E+03  0.42082968937E+03  0.14887468104E+04  0.17416656759E+04  0.65864270000E+03 0. -1.
    8880022    1    1    2    0    0 -0.45400928109E+03 -0.42082968937E+03 -0.70935310235E+03  0.95383202483E+03  0.15294330000E+03 0.  0.
<mgrwt>
<rscale>  0 0.82839497E+03</rscale>
<asrwt>0</asrwt>
<pdfrwt beam="1">  1        2 0.26729934E+00 0.90389837E+03</pdfrwt>
<pdfrwt beam="2">  1       -2 0.14739262E+00 0.90389837E+03</pdfrwt>
<totfact> 0.29555489E+00</totfact>
</mgrwt>
</event>
<event>
 4    5  0.2025789E-007  0.1068613E+04  0.7818608E-02  0.9296834E-01
          2   -1    0    0  501    0  0.00000000000E+00  0.00000000000E+00  0.19656455671E+04  0.19656455671E+04  0.25500000000E-02 0. -1.
         -2   -1    0    0    0  501 -0.00000000000E+00 -0.00000000000E+00 -0.13069076476E+04  0.13069076477E+04  0.25500000000E-02 0.  1.
    8880023    1    1    2    0    0  0.78271178644E+03 -0.30900765934E+03  0.16484302563E+04  0.19644989159E+04  0.65864270000E+03 0. -1.
    8880022    1    1    2    0    0 -0.78271178644E+03  0.30900765934E+03 -0.98969233688E+03  0.13080542989E+04  0.15294330000E+03 0.  0.
<mgrwt>
<rscale>  0 0.10107488E+04</rscale>
<asrwt>0</asrwt>
<pdfrwt beam="1">  1        2 0.30240701E+00 0.10686130E+04</pdfrwt>
<pdfrwt beam="2">  1       -2 0.20106271E+00 0.10686130E+04</pdfrwt>
<totfact> 0.90303545E-01</totfact>
</mgrwt>
</event>
<event>
 4    5  0.2025789E-007  0.6800790E+03  0.7818608E-02  0.1009279E+00
         -2   -1    0    0    0  501 -0.00000000000E+00  0.00000000000E+00  0.11959961229E+03  0.11959961232E+03  0.25500000000E-02 0.  1.
          2   -1    0    0  501    0  0.00000000000E+00 -0.00000000000E+00 -0.26729472440E+04  0.26729472440E+04  0.25500000000E-02 0. -1.
    8880023    1    1    2    0    0 -0.74987622472E+02 -0.15190161147E+03 -0.24488533004E+04  0.25415329894E+04  0.65864270000E+03 0. -1.
    8880022    1    1    2    0    0  0.74987622472E+02  0.15190161147E+03 -0.10449433131E+03  0.25101386691E+03  0.15294330000E+03 0.  0.
<mgrwt>
<rscale>  0 0.51762193E+03</rscale>
<asrwt>0</asrwt>
<pdfrwt beam="1">  1        2 0.41122261E+00 0.68007900E+03</pdfrwt>
<pdfrwt beam="2">  1       -2 0.18399942E-01 0.68007900E+03</pdfrwt>
<totfact> 0.71710414E+01</totfact>
</mgrwt>
</event>
<event>
 4    5  0.2025789E-007  0.7710517E+03  0.7818608E-02  0.9777293E-01
          2   -1    0    0  501    0  0.00000000000E+00  0.00000000000E+00  0.30859830261E+04  0.30859830261E+04  0.25500000000E-02 0. -1.
         -2   -1    0    0    0  501 -0.00000000000E+00 -0.00000000000E+00 -0.20165713617E+03  0.20165713619E+03  0.25500000000E-02 0.  1.
    8880023    1    1    2    0    0  0.28061519487E+03 -0.28629642207E+03  0.27216548935E+04  0.28287675929E+04  0.65864270000E+03 0.  0.
    8880022    1    1    2    0    0 -0.28061519487E+03  0.28629642207E+03  0.16267099645E+03  0.45887256944E+03  0.15294330000E+03 0.  0.
<mgrwt>
<rscale>  0 0.66595517E+03</rscale>
<asrwt>0</asrwt>
<pdfrwt beam="1">  1        2 0.47476656E+00 0.77105171E+03</pdfrwt>
<pdfrwt beam="2">  1       -2 0.31024179E-01 0.77105171E+03</pdfrwt>
<totfact> 0.15669287E+01</totfact>
</mgrwt>
</event>
<event>
 4    5  0.2025789E-007  0.9237080E+03  0.7818608E-02  0.9488997E-01
          2   -1    0    0  501    0  0.00000000000E+00  0.00000000000E+00  0.27469807835E+04  0.27469807835E+04  0.25500000000E-02 0. -1.
         -2   -1    0    0    0  501 -0.00000000000E+00 -0.00000000000E+00 -0.54495949368E+03  0.54495949369E+03  0.25500000000E-02 0.  1.
    8880023    1    1    2    0    0  0.55201826792E+03 -0.33867695576E+03  0.24211282456E+04  0.25913506973E+04  0.65864270000E+03 0. -1.
    8880022    1    1    2    0    0 -0.55201826792E+03  0.33867695576E+03 -0.21910695572E+03  0.70058957995E+03  0.15294330000E+03 0.  0.
<mgrwt>
<rscale>  0 0.85099924E+03</rscale>
<asrwt>0</asrwt>
<pdfrwt beam="1">  1        2 0.42261242E+00 0.92370799E+03</pdfrwt>
<pdfrwt beam="2">  1       -2 0.83839923E-01 0.92370799E+03</pdfrwt>
<totfact> 0.31769349E+00</totfact>
</mgrwt>
</event>
<event>
 4    5  0.2025789E-007  0.1247602E+04  0.7818608E-02  0.9112184E-01
         -2   -1    0    0    0  501 -0.00000000000E+00  0.00000000000E+00  0.72033177384E+03  0.72033177384E+03  0.25500000000E-02 0.  1.
          2   -1    0    0  501    0  0.00000000000E+00 -0.00000000000E+00 -0.32969797568E+04  0.32969797568E+04  0.25500000000E-02 0. -1.
    8880023    1    1    2    0    0  0.10210364984E+04 -0.28316906436E+03 -0.26655486435E+04  0.29430698305E+04  0.65864270000E+03 0. -1.
    8880022    1    1    2    0    0 -0.10210364984E+04  0.28316906436E+03  0.88900660463E+02  0.10742417002E+04  0.15294330000E+03 0.  0.
<mgrwt>
<rscale>  0 0.12007689E+04</rscale>
<asrwt>0</asrwt>
<pdfrwt beam="1">  1        2 0.50722765E+00 0.12476019E+04</pdfrwt>
<pdfrwt beam="2">  1       -2 0.11082027E+00 0.12476019E+04</pdfrwt>
<totfact> 0.71337255E-01</totfact>
</mgrwt>
</event>
<event>
 4    5  0.2025789E-007  0.7126938E+03  0.7818608E-02  0.9948131E-01
         -2   -1    0    0    0  501 -0.00000000000E+00  0.00000000000E+00  0.37427529706E+03  0.37427529706E+03  0.25500000000E-02 0.  1.
          2   -1    0    0  501    0  0.00000000000E+00 -0.00000000000E+00 -0.22721653066E+04  0.22721653066E+04  0.25500000000E-02 0. -1.
    8880023    1    1    2    0    0  0.14436560177E+03  0.23082644232E+03 -0.21372745733E+04  0.22529702797E+04  0.65864270000E+03 0.  0.
    8880022    1    1    2    0    0 -0.14436560177E+03 -0.23082644232E+03  0.23938456374E+03  0.39347032394E+03  0.15294330000E+03 0.  1.
<mgrwt>
<rscale>  0 0.57984321E+03</rscale>
<asrwt>0</asrwt>
<pdfrwt beam="1">  1        2 0.34956388E+00 0.71269382E+03</pdfrwt>
<pdfrwt beam="2">  1       -2 0.57580817E-01 0.71269382E+03</pdfrwt>
<totfact> 0.13912783E+01</totfact>
</mgrwt>
</event>
<event>
 4    5  0.2025789E-007  0.7686273E+03  0.7818608E-02  0.9783263E-01
         -2   -1    0    0    0  501 -0.00000000000E+00  0.00000000000E+00  0.83404528963E+03  0.83404528963E+03  0.25500000000E-02 0.  1.
          2   -1    0    0  501    0  0.00000000000E+00 -0.00000000000E+00 -0.78570856482E+03  0.78570856483E+03  0.25500000000E-02 0. -1.
    8880023    1    1    2    0    0  0.54819037320E+02 -0.39239336736E+03 -0.50689119543E+03  0.92072068070E+03  0.65864270000E+03 0.  0.
    8880022    1    1    2    0    0 -0.54819037320E+02  0.39239336736E+03  0.55522792023E+03  0.69903317376E+03  0.15294330000E+03 0.  0.
<mgrwt>
<rscale>  0 0.66268506E+03</rscale>
<asrwt>0</asrwt>
<pdfrwt beam="1">  1        2 0.12087824E+00 0.76862727E+03</pdfrwt>
<pdfrwt beam="2">  1       -2 0.12831466E+00 0.76862727E+03</pdfrwt>
<totfact> 0.16042124E+01</totfact>
</mgrwt>
</event>
<event>
 4    5  0.2025789E-007  0.9371027E+03  0.7818608E-02  0.9468918E-01
         -2   -1    0    0    0  501 -0.00000000000E+00  0.00000000000E+00  0.65978097597E+03  0.65978097597E+03  0.25500000000E-02 0.  1.
          2   -1    0    0  501    0  0.00000000000E+00 -0.00000000000E+00 -0.18687405610E+04  0.18687405610E+04  0.25500000000E-02 0. -1.
    8880023    1    1    2    0    0  0.27458518177E+03  0.60741610952E+03 -0.15132927379E+04  0.17799484456E+04  0.65864270000E+03 0. -1.
    8880022    1    1    2    0    0 -0.27458518177E+03 -0.60741610952E+03  0.30433315287E+03  0.74857309136E+03  0.15294330000E+03 0.  0.
<mgrwt>
<rscale>  0 0.86614643E+03</rscale>
<asrwt>0</asrwt>
<pdfrwt beam="1">  1        2 0.28749854E+00 0.93710275E+03</pdfrwt>
<pdfrwt beam="2">  1       -2 0.10150477E+00 0.93710275E+03</pdfrwt>
<totfact> 0.63395932E+00</totfact>
</mgrwt>
</event>
<event>
 4    5  0.2025789E-007  0.9530704E+03  0.7818608E-02  0.9445710E-01
          2   -1    0    0  501    0  0.00000000000E+00  0.00000000000E+00  0.19585842761E+04  0.19585842761E+04  0.25500000000E-02 0. -1.
         -2   -1    0    0    0  501 -0.00000000000E+00 -0.00000000000E+00 -0.15064775243E+04  0.15064775243E+04  0.25500000000E-02 0.  1.
    8880023    1    1    2    0    0  0.45944638923E+03  0.51326610173E+03  0.17471828477E+04  0.19902239033E+04  0.65864270000E+03 0.  0.
    8880022    1    1    2    0    0 -0.45944638923E+03 -0.51326610173E+03 -0.12950760959E+04  0.14748378972E+04  0.15294330000E+03 0.  0.
<mgrwt>
<rscale>  0 0.88407521E+03</rscale>
<asrwt>0</asrwt>
<pdfrwt beam="1">  1        2 0.30132066E+00 0.95307045E+03</pdfrwt>
<pdfrwt beam="2">  1       -2 0.23176577E+00 0.95307045E+03</pdfrwt>
<totfact> 0.59222901E-01</totfact>
</mgrwt>
</event>
<event>
 4    5  0.2025789E-007  0.9572841E+03  0.7818608E-02  0.9439710E-01
         -2   -1    0    0    0  501 -0.00000000000E+00  0.00000000000E+00  0.88098495338E+03  0.88098495338E+03  0.25500000000E-02 0.  1.
          2   -1    0    0  501    0  0.00000000000E+00 -0.00000000000E+00 -0.12622782132E+04  0.12622782132E+04  0.25500000000E-02 0. -1.
    8880023    1    1    2    0    0 -0.57171875820E+02 -0.69232505544E+03 -0.85919219549E+03  0.12863141299E+04  0.65864270000E+03 0. -1.
    8880022    1    1    2    0    0  0.57171875820E+02  0.69232505544E+03  0.47789893565E+03  0.85694903669E+03  0.15294330000E+03 0.  0.
<mgrwt>
<rscale>  0 0.88878493E+03</rscale>
<asrwt>0</asrwt>
<pdfrwt beam="1">  1        2 0.19419665E+00 0.95728408E+03</pdfrwt>
<pdfrwt beam="2">  1       -2 0.13553615E+00 0.95728408E+03</pdfrwt>
<totfact> 0.67689954E+00</totfact>
</mgrwt>
</event>
<event>
 4    5  0.2025789E-007  0.9664407E+03  0.7818608E-02  0.9426844E-01
          2   -1    0    0  501    0  0.00000000000E+00  0.00000000000E+00  0.22568677734E+04  0.22568677734E+04  0.25500000000E-02 0. -1.
         -2   -1    0    0    0  501 -0.00000000000E+00 -0.00000000000E+00 -0.77227308733E+03  0.77227308733E+03  0.25500000000E-02 0.  1.
    8880023    1    1    2    0    0  0.23186991937E+03  0.66815698252E+03  0.19447337123E+04  0.21716345988E+04  0.65864270000E+03 0. -1.
    8880022    1    1    2    0    0 -0.23186991937E+03 -0.66815698252E+03 -0.46013902620E+03  0.85750626193E+03  0.15294330000E+03 0.  0.
<mgrwt>
<rscale>  0 0.89899076E+03</rscale>
<asrwt>0</asrwt>
<pdfrwt beam="1">  1        2 0.34721042E+00 0.96644070E+03</pdfrwt>
<pdfrwt beam="2">  1       -2 0.11881125E+00 0.96644070E+03</pdfrwt>
<totfact> 0.26303594E+00</totfact>
</mgrwt>
</event>
<event>
 4    5  0.2025789E-007  0.6669755E+03  0.7818608E-02  0.1017931E+00
         -2   -1    0    0    0  501 -0.00000000000E+00  0.00000000000E+00  0.42434082113E+03  0.42434082114E+03  0.25500000000E-02 0.  1.
          2   -1    0    0  501    0  0.00000000000E+00 -0.00000000000E+00 -0.78867880981E+03  0.78867880982E+03  0.25500000000E-02 0. -1.
    8880023    1    1    2    0    0 -0.31027289394E+02  0.10041650847E+03 -0.61087352698E+03  0.90444615102E+03  0.65864270000E+03 0. -1.
    8880022    1    1    2    0    0  0.31027289394E+02 -0.10041650847E+03  0.24653553830E+03  0.30857347994E+03  0.15294330000E+03 0.  0.
<mgrwt>
<rscale>  0 0.48440865E+03</rscale>
<asrwt>0</asrwt>
<pdfrwt beam="1">  1        2 0.12133520E+00 0.66697554E+03</pdfrwt>
<pdfrwt beam="2">  1       -2 0.65283204E-01 0.66697554E+03</pdfrwt>
<totfact> 0.77382291E+01</totfact>
</mgrwt>
</event>
<event>
 4    5  0.2025789E-007  0.8110342E+03  0.7818608E-02  0.9687427E-01
          2   -1    0    0  501    0  0.00000000000E+00  0.00000000000E+00  0.31490393333E+04  0.31490393333E+04  0.25500000000E-02 0. -1.
         -2   -1    0    0    0  501 -0.00000000000E+00 -0.00000000000E+00 -0.34437906813E+03  0.34437906814E+03  0.25500000000E-02 0.  1.
    8880023    1    1    2    0    0 -0.30996942866E+03  0.35761031824E+03  0.28785370824E+04  0.29906106613E+04  0.65864270000E+03 0. -1.
    8880022    1    1    2    0    0  0.30996942866E+03 -0.35761031824E+03 -0.73876817236E+02  0.50280774015E+03  0.15294330000E+03 0.  0.
<mgrwt>
<rscale>  0 0.71770350E+03</rscale>
<asrwt>0</asrwt>
<pdfrwt beam="1">  1        2 0.48446760E+00 0.81103415E+03</pdfrwt>
<pdfrwt beam="2">  1       -2 0.52981394E-01 0.81103415E+03</pdfrwt>
<totfact> 0.49786107E+00</totfact>
</mgrwt>
</event>
<event>
 4    5  0.2025789E-007  0.6672681E+03  0.7818608E-02  0.1017702E+00
         -2   -1    0    0    0  501 -0.00000000000E+00  0.00000000000E+00  0.19335152283E+03  0.19335152285E+03  0.25500000000E-02 0.  1.
          2   -1    0    0  501    0  0.00000000000E+00 -0.00000000000E+00 -0.18027037242E+04  0.18027037242E+04  0.25500000000E-02 0. -1.
    8880023    1    1    2    0    0  0.84302565379E+02 -0.65799561718E+02 -0.16711702824E+04  0.17994601479E+04  0.65864270000E+03 0. -1.
    8880022    1    1    2    0    0 -0.84302565379E+02  0.65799561718E+02  0.61818081032E+02  0.19659509915E+03  0.15294330000E+03 0.  0.
<mgrwt>
<rscale>  0 0.48525116E+03</rscale>
<asrwt>0</asrwt>
<pdfrwt beam="1">  1        2 0.27733902E+00 0.66726810E+03</pdfrwt>
<pdfrwt beam="2">  1       -2 0.29746389E-01 0.66726810E+03</pdfrwt>
<totfact> 0.92446767E+01</totfact>
</mgrwt>
</event>
<event>
 4    5  0.2025789E-007  0.7322640E+03  0.7818608E-02  0.9883083E-01
         -2   -1    0    0    0  501 -0.00000000000E+00  0.00000000000E+00  0.66425737477E+02  0.66425737526E+02  0.25500000000E-02 0.  1.
          2   -1    0    0  501    0  0.00000000000E+00 -0.00000000000E+00 -0.51875927623E+04  0.51875927623E+04  0.25500000000E-02 0. -1.
    8880023    1    1    2    0    0 -0.10713483330E+03  0.30153348444E+03 -0.42632324971E+04  0.43256631683E+04  0.65864270000E+03 0.  0.
    8880022    1    1    2    0    0  0.10713483330E+03 -0.30153348444E+03 -0.85793452767E+03  0.92835533150E+03  0.15294330000E+03 0.  0.
<mgrwt>
<rscale>  0 0.61088205E+03</rscale>
<asrwt>0</asrwt>
<pdfrwt beam="1">  1        2 0.79809088E+00 0.73226397E+03</pdfrwt>
<pdfrwt beam="2">  1       -2 0.10219348E-01 0.73226397E+03</pdfrwt>
<totfact> 0.15227894E+00</totfact>
</mgrwt>
</event>
<event>
 4    5  0.2025789E-007  0.6995079E+03  0.7818608E-02  0.9999249E-01
         -2   -1    0    0    0  501 -0.00000000000E+00  0.00000000000E+00  0.57034768738E+03  0.57034768738E+03  0.25500000000E-02 0.  1.
          2   -1    0    0  501    0  0.00000000000E+00 -0.00000000000E+00 -0.10587043630E+04  0.10587043630E+04  0.25500000000E-02 0. -1.
    8880023    1    1    2    0    0  0.54058418446E+02  0.22930051047E+03 -0.89431960569E+03  0.11353936763E+04  0.65864270000E+03 0. -1.
    8880022    1    1    2    0    0 -0.54058418446E+02 -0.22930051047E+03  0.40596293008E+03  0.49365837411E+03  0.15294330000E+03 0.  0.
<mgrwt>
<rscale>  0 0.55683182E+03</rscale>
<asrwt>0</asrwt>
<pdfrwt beam="1">  1        2 0.16287759E+00 0.69950786E+03</pdfrwt>
<pdfrwt beam="2">  1       -2 0.87745798E-01 0.69950786E+03</pdfrwt>
<totfact> 0.26477074E+01</totfact>
</mgrwt>
</event>
<event>
 4    5  0.2025789E-007  0.9228175E+03  0.7818608E-02  0.9490352E-01
         -2   -1    0    0    0  501 -0.00000000000E+00  0.00000000000E+00  0.23426806487E+04  0.23426806487E+04  0.25500000000E-02 0.  1.
          2   -1    0    0  501    0  0.00000000000E+00 -0.00000000000E+00 -0.41741778550E+03  0.41741778551E+03  0.25500000000E-02 0. -1.
    8880023    1    1    2    0    0  0.21673425144E+03  0.60894021851E+03  0.24718498672E+03  0.95534943837E+03  0.65864270000E+03 0. -1.
    8880022    1    1    2    0    0 -0.21673425144E+03 -0.60894021851E+03  0.16780778765E+04  0.18047489959E+04  0.15294330000E+03 0.  0.
<mgrwt>
<rscale>  0 0.84998850E+03</rscale>
<asrwt>0</asrwt>
<pdfrwt beam="1">  1        2 0.64218120E-01 0.92281750E+03</pdfrwt>
<pdfrwt beam="2">  1       -2 0.36041241E+00 0.92281750E+03</pdfrwt>
<totfact> 0.10408170E+00</totfact>
</mgrwt>
</event>
<event>
 4    5  0.2025789E-007  0.1023431E+04  0.7818608E-02  0.9351524E-01
          2   -1    0    0  501    0  0.00000000000E+00  0.00000000000E+00  0.14863385825E+04  0.14863385825E+04  0.25500000000E-02 0. -1.
         -2   -1    0    0    0  501 -0.00000000000E+00 -0.00000000000E+00 -0.16990131592E+04  0.16990131592E+04  0.25500000000E-02 0.  1.
    8880023    1    1    2    0    0 -0.98963497447E+02  0.77705077516E+03  0.11911986232E+04  0.15704668246E+04  0.65864270000E+03 0. -1.
    8880022    1    1    2    0    0  0.98963497447E+02 -0.77705077516E+03 -0.14038731999E+04  0.16148849171E+04  0.15294330000E+03 0.  0.
<mgrwt>
<rscale>  0 0.96174718E+03</rscale>
<asrwt>0</asrwt>
<pdfrwt beam="1">  1        2 0.22866747E+00 0.10234314E+04</pdfrwt>
<pdfrwt beam="2">  1       -2 0.26138664E+00 0.10234314E+04</pdfrwt>
<totfact> 0.70422431E-01</totfact>
</mgrwt>
</event>
<event>
 4    5  0.2025789E-007  0.1150861E+04  0.7818608E-02  0.9206435E-01
          2   -1    0    0  501    0  0.00000000000E+00  0.00000000000E+00  0.36310357377E+04  0.36310357377E+04  0.25500000000E-02 0. -1.
         -2   -1    0    0    0  501 -0.00000000000E+00 -0.00000000000E+00 -0.84169272478E+03  0.84169272479E+03  0.25500000000E-02 0.  1.
    8880023    1    1    2    0    0  0.41040747283E+03  0.84984566879E+03  0.32234410931E+04  0.34227262002E+04  0.65864270000E+03 0.  0.
    8880022    1    1    2    0    0 -0.41040747283E+03 -0.84984566879E+03 -0.43409808021E+03  0.10500022623E+04  0.15294330000E+03 0.  0.
<mgrwt>
<rscale>  0 0.10987259E+04</rscale>
<asrwt>0</asrwt>
<pdfrwt beam="1">  1        2 0.55862087E+00 0.11508615E+04</pdfrwt>
<pdfrwt beam="2">  1       -2 0.12949119E+00 0.11508615E+04</pdfrwt>
<totfact> 0.28987992E-01</totfact>
</mgrwt>
</event>
<event>
 4    5  0.2025789E-007  0.8086879E+03  0.7818608E-02  0.9692316E-01
         -2   -1    0    0    0  501 -0.00000000000E+00  0.00000000000E+00  0.29951579131E+03  0.29951579132E+03  0.25500000000E-02 0.  1.
          2   -1    0    0  501    0  0.00000000000E+00 -0.00000000000E+00 -0.19553061462E+04  0.19553061462E+04  0.25500000000E-02 0. -1.
    8880023    1    1    2    0    0 -0.39875120402E+03  0.24731237594E+03 -0.15526733601E+04  0.17506486522E+04  0.65864270000E+03 0. -1.
    8880022    1    1    2    0    0  0.39875120402E+03 -0.24731237594E+03 -0.10311699478E+03  0.50417328532E+03  0.15294330000E+03 0.  0.
<mgrwt>
<rscale>  0 0.71476112E+03</rscale>
<asrwt>0</asrwt>
<pdfrwt beam="1">  1        2 0.30081632E+00 0.80868791E+03</pdfrwt>
<pdfrwt beam="2">  1       -2 0.46079354E-01 0.80868791E+03</pdfrwt>
<totfact> 0.32348657E+01</totfact>
</mgrwt>
</event>
<event>
 4    5  0.2025789E-007  0.9052860E+03  0.7818608E-02  0.9517599E-01
         -2   -1    0    0    0  501 -0.00000000000E+00  0.00000000000E+00  0.28431347387E+03  0.28431347388E+03  0.25500000000E-02 0.  1.
          2   -1    0    0  501    0  0.00000000000E+00 -0.00000000000E+00 -0.23281324584E+04  0.23281324584E+04  0.25500000000E-02 0. -1.
    8880023    1    1    2    0    0 -0.23133671117E+03 -0.57638166041E+03 -0.15848646443E+04  0.18251955072E+04  0.65864270000E+03 0.  0.
    8880022    1    1    2    0    0  0.23133671117E+03  0.57638166041E+03 -0.45895434023E+03  0.78725042511E+03  0.15294330000E+03 0.  0.
<mgrwt>
<rscale>  0 0.82998689E+03</rscale>
<asrwt>0</asrwt>
<pdfrwt beam="1">  1        2 0.35817421E+00 0.90528598E+03</pdfrwt>
<pdfrwt beam="2">  1       -2 0.43740536E-01 0.90528598E+03</pdfrwt>
<totfact> 0.22089759E+01</totfact>
</mgrwt>
</event>
<event>
 4    5  0.2025789E-007  0.8142298E+03  0.7818608E-02  0.9680833E-01
          2   -1    0    0  501    0  0.00000000000E+00  0.00000000000E+00  0.20256913117E+04  0.20256913117E+04  0.25500000000E-02 0. -1.
         -2   -1    0    0    0  501 -0.00000000000E+00 -0.00000000000E+00 -0.65421708491E+03  0.65421708491E+03  0.25500000000E-02 0.  1.
    8880023    1    1    2    0    0  0.64897305300E+02 -0.47428715428E+03  0.18278892555E+04  0.20010370565E+04  0.65864270000E+03 0. -1.
    8880022    1    1    2    0    0 -0.64897305300E+02  0.47428715428E+03 -0.45641502870E+03  0.67887134009E+03  0.15294330000E+03 0.  0.
<mgrwt>
<rscale>  0 0.72169553E+03</rscale>
<asrwt>0</asrwt>
<pdfrwt beam="1">  1        2 0.31164482E+00 0.81422980E+03</pdfrwt>
<pdfrwt beam="2">  1       -2 0.10064878E+00 0.81422980E+03</pdfrwt>
<totfact> 0.53963568E+00</totfact>
</mgrwt>
</event>
<event>
 4    5  0.2025789E-007  0.1575164E+04  0.7818608E-02  0.8858306E-01
         -2   -1    0    0    0  501 -0.00000000000E+00  0.00000000000E+00  0.25718483973E+04  0.25718483973E+04  0.25500000000E-02 0.  1.
          2   -1    0    0  501    0  0.00000000000E+00 -0.00000000000E+00 -0.16279911444E+04  0.16279911444E+04  0.25500000000E-02 0. -1.
    8880023    1    1    2    0    0  0.52553254846E+03 -0.13308442502E+04 -0.93612446536E+03  0.18323400609E+04  0.65864270000E+03 0. -1.
    8880022    1    1    2    0    0 -0.52553254846E+03  0.13308442502E+04  0.18799817182E+04  0.23674994808E+04  0.15294330000E+03 0.  0.
<mgrwt>
<rscale>  0 0.15399603E+04</rscale>
<asrwt>0</asrwt>
<pdfrwt beam="1">  1        2 0.25046018E+00 0.15751638E+04</pdfrwt>
<pdfrwt beam="2">  1       -2 0.39566898E+00 0.15751638E+04</pdfrwt>
<totfact> 0.79502312E-02</totfact>
</mgrwt>
</event>
<event>
 4    5  0.2025789E-007  0.8784297E+03  0.7818608E-02  0.9561586E-01
          2   -1    0    0  501    0  0.00000000000E+00  0.00000000000E+00  0.36813677604E+04  0.36813677604E+04  0.25500000000E-02 0. -1.
         -2   -1    0    0    0  501 -0.00000000000E+00 -0.00000000000E+00 -0.32074882354E+03  0.32074882355E+03  0.25500000000E-02 0.  1.
    8880023    1    1    2    0    0 -0.16226313889E+01  0.58122794072E+03  0.32801519728E+04  0.33957378761E+04  0.65864270000E+03 0.  0.
    8880022    1    1    2    0    0  0.16226313889E+01 -0.58122794072E+03  0.80466964013E+02  0.60637870784E+03  0.15294330000E+03 0.  0.
<mgrwt>
<rscale>  0 0.79891719E+03</rscale>
<asrwt>0</asrwt>
<pdfrwt beam="1">  1        2 0.56636426E+00 0.87842971E+03</pdfrwt>
<pdfrwt beam="2">  1       -2 0.49345974E-01 0.87842971E+03</pdfrwt>
<totfact> 0.24957339E+00</totfact>
</mgrwt>
</event>
<event>
 4    5  0.2025789E-007  0.9885990E+03  0.7818608E-02  0.9396628E-01
          2   -1    0    0  501    0  0.00000000000E+00  0.00000000000E+00  0.56520414838E+03  0.56520414838E+03  0.25500000000E-02 0. -1.
         -2   -1    0    0    0  501 -0.00000000000E+00 -0.00000000000E+00 -0.19084464381E+04  0.19084464381E+04  0.25500000000E-02 0.  1.
    8880023    1    1    2    0    0 -0.52521299308E+03  0.51736749305E+03 -0.65749968094E+02  0.99078306179E+03  0.65864270000E+03 0.  0.
    8880022    1    1    2    0    0  0.52521299308E+03 -0.51736749305E+03 -0.12774923217E+04  0.14828675247E+04  0.15294330000E+03 0.  0.
<mgrwt>
<rscale>  0 0.92353710E+03</rscale>
<asrwt>0</asrwt>
<pdfrwt beam="1">  1        2 0.86954485E-01 0.98859902E+03</pdfrwt>
<pdfrwt beam="2">  1       -2 0.29360714E+00 0.98859902E+03</pdfrwt>
<totfact> 0.18660554E+00</totfact>
</mgrwt>
</event>
<event>
 4    5  0.2025789E-007  0.8810073E+03  0.7818608E-02  0.9557236E-01
          2   -1    0    0  501    0  0.00000000000E+00  0.00000000000E+00  0.18463090416E+04  0.18463090416E+04  0.25500000000E-02 0. -1.
         -2   -1    0    0    0  501 -0.00000000000E+00 -0.00000000000E+00 -0.53434784751E+03  0.53434784751E+03  0.25500000000E-02 0.  1.
    8880023    1    1    2    0    0 -0.33565200437E+03 -0.47927181134E+03  0.15066394238E+04  0.17453183941E+04  0.65864270000E+03 0. -1.
    8880022    1    1    2    0    0  0.33565200437E+03  0.47927181134E+03 -0.19467822966E+03  0.63533849506E+03  0.15294330000E+03 0.  0.
<mgrwt>
<rscale>  0 0.80192451E+03</rscale>
<asrwt>0</asrwt>
<pdfrwt beam="1">  1        2 0.28404755E+00 0.88100735E+03</pdfrwt>
<pdfrwt beam="2">  1       -2 0.82207360E-01 0.88100735E+03</pdfrwt>
<totfact> 0.10717936E+01</totfact>
</mgrwt>
</event>
<event>
 4    5  0.2025789E-007  0.7861747E+03  0.7818608E-02  0.9741527E-01
          2   -1    0    0  501    0  0.00000000000E+00  0.00000000000E+00  0.10464122446E+04  0.10464122446E+04  0.25500000000E-02 0. -1.
         -2   -1    0    0    0  501 -0.00000000000E+00 -0.00000000000E+00 -0.42972855821E+03  0.42972855821E+03  0.25500000000E-02 0.  1.
    8880023    1    1    2    0    0 -0.42925432361E+03 -0.10690864515E+01  0.10859261153E+03  0.79363907340E+03  0.65864270000E+03 0.  0.
    8880022    1    1    2    0    0  0.42925432361E+03  0.10690864515E+01  0.50809107486E+03  0.68250172941E+03  0.15294330000E+03 0.  0.
<mgrwt>
<rscale>  0 0.68597189E+03</rscale>
<asrwt>0</asrwt>
<pdfrwt beam="1">  1        2 0.16098650E+00 0.78617468E+03</pdfrwt>
<pdfrwt beam="2">  1       -2 0.66112086E-01 0.78617468E+03</pdfrwt>
<totfact> 0.50158323E+01</totfact>
</mgrwt>
</event>
<event>
 4    5  0.2025789E-007  0.7280807E+03  0.7818608E-02  0.9896136E-01
          2   -1    0    0  501    0  0.00000000000E+00  0.00000000000E+00  0.29665748290E+04  0.29665748290E+04  0.25500000000E-02 0. -1.
         -2   -1    0    0    0  501 -0.00000000000E+00 -0.00000000000E+00 -0.51431740127E+03  0.51431740128E+03  0.25500000000E-02 0.  1.
    8880023    1    1    2    0    0  0.30980823841E+03 -0.17611858121E+02  0.28570765257E+04  0.29483873222E+04  0.65864270000E+03 0.  0.
    8880022    1    1    2    0    0 -0.30980823841E+03  0.17611858121E+02 -0.40481909787E+03  0.53250490810E+03  0.15294330000E+03 0.  0.
<mgrwt>
<rscale>  0 0.60448940E+03</rscale>
<asrwt>0</asrwt>
<pdfrwt beam="1">  1        2 0.45639612E+00 0.72808072E+03</pdfrwt>
<pdfrwt beam="2">  1       -2 0.79125755E-01 0.72808072E+03</pdfrwt>
<totfact> 0.27718298E+00</totfact>
</mgrwt>
</event>
<event>
 4    5  0.2025789E-007  0.7078354E+03  0.7818608E-02  0.9966128E-01
          2   -1    0    0  501    0  0.00000000000E+00  0.00000000000E+00  0.22633805365E+04  0.22633805365E+04  0.25500000000E-02 0. -1.
         -2   -1    0    0    0  501 -0.00000000000E+00 -0.00000000000E+00 -0.39031256447E+03  0.39031256447E+03  0.25500000000E-02 0.  1.
    8880023    1    1    2    0    0 -0.93442658911E+02  0.24184542930E+03  0.21383514176E+04  0.22524603734E+04  0.65864270000E+03 0. -1.
    8880022    1    1    2    0    0  0.93442658911E+02 -0.24184542930E+03 -0.26528344558E+03  0.40123272759E+03  0.15294330000E+03 0.  0.
<mgrwt>
<rscale>  0 0.57160716E+03</rscale>
<asrwt>0</asrwt>
<pdfrwt beam="1">  1        2 0.34821240E+00 0.70783540E+03</pdfrwt>
<pdfrwt beam="2">  1       -2 0.60048085E-01 0.70783540E+03</pdfrwt>
<totfact> 0.12892369E+01</totfact>
</mgrwt>
</event>
<event>
 4    5  0.2025789E-007  0.9750361E+03  0.7818608E-02  0.9414972E-01
          2   -1    0    0  501    0  0.00000000000E+00  0.00000000000E+00  0.26353992921E+04  0.26353992921E+04  0.25500000000E-02 0. -1.
         -2   -1    0    0    0  501 -0.00000000000E+00 -0.00000000000E+00 -0.32420880547E+03  0.32420880548E+03  0.25500000000E-02 0.  1.
    8880023    1    1    2    0    0  0.46886983279E+01  0.71893192285E+03  0.18518334374E+04  0.20928407440E+04  0.65864270000E+03 0. -1.
    8880022    1    1    2    0    0 -0.46886983279E+01 -0.71893192285E+03  0.45935704927E+03  0.86676735362E+03  0.15294330000E+03 0.  0.
<mgrwt>
<rscale>  0 0.90853683E+03</rscale>
<asrwt>0</asrwt>
<pdfrwt beam="1">  1        2 0.40544604E+00 0.97503605E+03</pdfrwt>
<pdfrwt beam="2">  1       -2 0.49878278E-01 0.97503605E+03</pdfrwt>
<totfact> 0.11230311E+01</totfact>
</mgrwt>
</event>
<event>
 4    5  0.2025789E-007  0.6677715E+03  0.7818608E-02  0.1017313E+00
          2   -1    0    0  501    0  0.00000000000E+00  0.00000000000E+00  0.23992349370E+04  0.23992349370E+04  0.25500000000E-02 0. -1.
         -2   -1    0    0    0  501 -0.00000000000E+00 -0.00000000000E+00 -0.12067965056E+03  0.12067965058E+03  0.25500000000E-02 0.  1.
    8880023    1    1    2    0    0  0.10569949428E+03  0.30597006886E+02  0.22264391595E+04  0.23244246809E+04  0.65864270000E+03 0. -1.
    8880022    1    1    2    0    0 -0.10569949428E+03 -0.30597006886E+02  0.52116126960E+02  0.19548990671E+03  0.15294330000E+03 0.  0.
<mgrwt>
<rscale>  0 0.48668703E+03</rscale>
<asrwt>0</asrwt>
<pdfrwt beam="1">  1        2 0.36911305E+00 0.66777149E+03</pdfrwt>
<pdfrwt beam="2">  1       -2 0.18566101E-01 0.66777149E+03</pdfrwt>
<totfact> 0.10115586E+02</totfact>
</mgrwt>
</event>
<event>
 4    5  0.2025789E-007  0.1021089E+04  0.7818608E-02  0.9354472E-01
         -2   -1    0    0    0  501 -0.00000000000E+00  0.00000000000E+00  0.41956702627E+03  0.41956702628E+03  0.25500000000E-02 0.  1.
          2   -1    0    0  501    0  0.00000000000E+00 -0.00000000000E+00 -0.33255971723E+04  0.33255971723E+04  0.25500000000E-02 0. -1.
    8880023    1    1    2    0    0 -0.31391621043E+03 -0.71433144005E+03 -0.27519268132E+04  0.29352553866E+04  0.65864270000E+03 0.  0.
    8880022    1    1    2    0    0  0.31391621043E+03  0.71433144005E+03 -0.15410333282E+03  0.80990881192E+03  0.15294330000E+03 0.  0.
<mgrwt>
<rscale>  0 0.95919064E+03</rscale>
<asrwt>0</asrwt>
<pdfrwt beam="1">  1        2 0.51163032E+00 0.10210891E+04</pdfrwt>
<pdfrwt beam="2">  1       -2 0.64548775E-01 0.10210891E+04</pdfrwt>
<totfact> 0.24387631E+00</totfact>
</mgrwt>
</event>
<event>
 4    5  0.2025789E-007  0.7692840E+03  0.7818608E-02  0.9781639E-01
         -2   -1    0    0    0  501 -0.00000000000E+00  0.00000000000E+00  0.20975836868E+03  0.20975836870E+03  0.25500000000E-02 0.  1.
          2   -1    0    0  501    0  0.00000000000E+00 -0.00000000000E+00 -0.26385500748E+04  0.26385500748E+04  0.25500000000E-02 0. -1.
    8880023    1    1    2    0    0 -0.33082880848E+02 -0.39609752392E+03 -0.22648915531E+04  0.23919723408E+04  0.65864270000E+03 0.  0.
    8880022    1    1    2    0    0  0.33082880848E+02  0.39609752392E+03 -0.16390015299E+03  0.45633610270E+03  0.15294330000E+03 0.  0.
<mgrwt>
<rscale>  0 0.66357273E+03</rscale>
<asrwt>0</asrwt>
<pdfrwt beam="1">  1        2 0.40593076E+00 0.76928404E+03</pdfrwt>
<pdfrwt beam="2">  1       -2 0.32270520E-01 0.76928404E+03</pdfrwt>
<totfact> 0.26968567E+01</totfact>
</mgrwt>
</event>
<event>
 4    5  0.2025789E-007  0.7467664E+03  0.7818608E-02  0.9840658E-01
          2   -1    0    0  501    0  0.00000000000E+00  0.00000000000E+00  0.10796639181E+04  0.10796639181E+04  0.25500000000E-02 0. -1.
         -2   -1    0    0    0  501 -0.00000000000E+00 -0.00000000000E+00 -0.42709439197E+03  0.42709439198E+03  0.25500000000E-02 0.  1.
    8880023    1    1    2    0    0 -0.68441168931E+01  0.35185650343E+03  0.80120358533E+03  0.10952566970E+04  0.65864270000E+03 0. -1.
    8880022    1    1    2    0    0  0.68441168931E+01 -0.35185650343E+03 -0.14863405925E+03  0.41150161303E+03  0.15294330000E+03 0.  0.
<mgrwt>
<rscale>  0 0.63225511E+03</rscale>
<asrwt>0</asrwt>
<pdfrwt beam="1">  1        2 0.16610214E+00 0.74676639E+03</pdfrwt>
<pdfrwt beam="2">  1       -2 0.65706830E-01 0.74676639E+03</pdfrwt>
<totfact> 0.48633665E+01</totfact>
</mgrwt>
</event>
<event>
 4    5  0.2025789E-007  0.6847358E+03  0.7818608E-02  0.1006762E+00
          2   -1    0    0  501    0  0.00000000000E+00  0.00000000000E+00  0.13977098203E+04  0.13977098203E+04  0.25500000000E-02 0. -1.
         -2   -1    0    0    0  501 -0.00000000000E+00 -0.00000000000E+00 -0.27901922924E+03  0.27901922926E+03  0.25500000000E-02 0.  1.
    8880023    1    1    2    0    0 -0.16936333203E+03  0.79805434249E+02  0.12321851336E+04  0.14096606880E+04  0.65864270000E+03 0. -1.
    8880022    1    1    2    0    0  0.16936333203E+03 -0.79805434249E+02 -0.11349454250E+03  0.26706836159E+03  0.15294330000E+03 0.  0.
<mgrwt>
<rscale>  0 0.52781923E+03</rscale>
<asrwt>0</asrwt>
<pdfrwt beam="1">  1        2 0.21503228E+00 0.68473575E+03</pdfrwt>
<pdfrwt beam="2">  1       -2 0.42926036E-01 0.68473575E+03</pdfrwt>
<totfact> 0.76546338E+01</totfact>
</mgrwt>
</event>
<event>
 4    5  0.2025789E-007  0.1323390E+04  0.7818608E-02  0.9045620E-01
          2   -1    0    0  501    0  0.00000000000E+00  0.00000000000E+00  0.25063726455E+04  0.25063726455E+04  0.25500000000E-02 0. -1.
         -2   -1    0    0    0  501 -0.00000000000E+00 -0.00000000000E+00 -0.65395645362E+03  0.65395645363E+03  0.25500000000E-02 0.  1.
    8880023    1    1    2    0    0  0.38669990020E+02 -0.11471949978E+04  0.13731825287E+04  0.19070899807E+04  0.65864270000E+03 0.  0.
    8880022    1    1    2    0    0 -0.38669990020E+02  0.11471949978E+04  0.47923366321E+03  0.12532391185E+04  0.15294330000E+03 0.  0.
<mgrwt>
<rscale>  0 0.12799478E+04</rscale>
<asrwt>0</asrwt>
<pdfrwt beam="1">  1        2 0.38559580E+00 0.13233903E+04</pdfrwt>
<pdfrwt beam="2">  1       -2 0.10060868E+00 0.13233903E+04</pdfrwt>
<totfact> 0.27262798E+00</totfact>
</mgrwt>
</event>
<event>
 4    5  0.2025789E-007  0.7676852E+03  0.7818608E-02  0.9785603E-01
          2   -1    0    0  501    0  0.00000000000E+00  0.00000000000E+00  0.22468898124E+04  0.22468898124E+04  0.25500000000E-02 0. -1.
         -2   -1    0    0    0  501 -0.00000000000E+00 -0.00000000000E+00 -0.22483175732E+03  0.22483175733E+03  0.25500000000E-02 0.  1.
    8880023    1    1    2    0    0 -0.34229284444E+03  0.19587215473E+03  0.18713326757E+04  0.20226780469E+04  0.65864270000E+03 0. -1.
    8880022    1    1    2    0    0  0.34229284444E+03 -0.19587215473E+03  0.15072537944E+03  0.44904352281E+03  0.15294330000E+03 0.  0.
<mgrwt>
<rscale>  0 0.66140932E+03</rscale>
<asrwt>0</asrwt>
<pdfrwt beam="1">  1        2 0.34567534E+00 0.76768516E+03</pdfrwt>
<pdfrwt beam="2">  1       -2 0.34589503E-01 0.76768516E+03</pdfrwt>
<totfact> 0.39355961E+01</totfact>
</mgrwt>
</event>
<event>
 4    5  0.2025789E-007  0.8167082E+03  0.7818608E-02  0.9675770E-01
         -2   -1    0    0    0  501 -0.00000000000E+00  0.00000000000E+00  0.45821177387E+03  0.45821177388E+03  0.25500000000E-02 0.  1.
          2   -1    0    0  501    0  0.00000000000E+00 -0.00000000000E+00 -0.31859534824E+04  0.31859534824E+04  0.25500000000E-02 0. -1.
    8880023    1    1    2    0    0  0.28220419017E+03  0.39187108939E+03 -0.29717317864E+04  0.30819153415E+04  0.65864270000E+03 0.  0.
    8880022    1    1    2    0    0 -0.28220419017E+03 -0.39187108939E+03  0.24399007780E+03  0.56224991484E+03  0.15294330000E+03 0.  0.
<mgrwt>
<rscale>  0 0.72477963E+03</rscale>
<asrwt>0</asrwt>
<pdfrwt beam="1">  1        2 0.49014667E+00 0.81670825E+03</pdfrwt>
<pdfrwt beam="2">  1       -2 0.70494121E-01 0.81670825E+03</pdfrwt>
<totfact> 0.25695582E+00</totfact>
</mgrwt>
</event>
<event>
 4    5  0.2025789E-007  0.1521068E+04  0.7818608E-02  0.8894901E-01
         -2   -1    0    0    0  501 -0.00000000000E+00  0.00000000000E+00  0.93280480918E+03  0.93280480918E+03  0.25500000000E-02 0.  1.
          2   -1    0    0  501    0  0.00000000000E+00 -0.00000000000E+00 -0.40882396170E+04  0.40882396170E+04  0.25500000000E-02 0. -1.
    8880023    1    1    2    0    0 -0.13703250617E+04 -0.45227449132E+02  0.59897138022E+02  0.15222464223E+04  0.65864270000E+03 0.  1.
    8880022    1    1    2    0    0  0.13703250617E+04  0.45227449132E+02 -0.32153319459E+04  0.34987980039E+04  0.15294330000E+03 0.  0.
<mgrwt>
<rscale>  0 0.14843890E+04</rscale>
<asrwt>0</asrwt>
<pdfrwt beam="1">  1        2 0.62895993E+00 0.15210676E+04</pdfrwt>
<pdfrwt beam="2">  1       -2 0.14350843E+00 0.15210676E+04</pdfrwt>
<totfact> 0.93643930E-02</totfact>
</mgrwt>
</event>
<event>
 4    5  0.2025789E-007  0.6977213E+03  0.7818608E-02  0.1000679E+00
         -2   -1    0    0    0  501 -0.00000000000E+00  0.00000000000E+00  0.99788213173E+03  0.99788213174E+03  0.25500000000E-02 0.  1.
          2   -1    0    0  501    0  0.00000000000E+00 -0.00000000000E+00 -0.14681861577E+04  0.14681861577E+04  0.25500000000E-02 0. -1.
    8880023    1    1    2    0    0 -0.16538964415E+03 -0.16015946420E+03 -0.13631941365E+04  0.15313762596E+04  0.65864270000E+03 0.  0.
    8880022    1    1    2    0    0  0.16538964415E+03  0.16015946420E+03  0.89289011048E+03  0.93469202991E+03  0.15294330000E+03 0.  0.
<mgrwt>
<rscale>  0 0.55353568E+03</rscale>
<asrwt>0</asrwt>
<pdfrwt beam="1">  1        2 0.22587479E+00 0.69772129E+03</pdfrwt>
<pdfrwt beam="2">  1       -2 0.15352033E+00 0.69772129E+03</pdfrwt>
<totfact> 0.38572511E+00</totfact>
</mgrwt>
</event>
<event>
 4    5  0.4364007E-007  0.1018972E+04  0.7818608E-02  0.9357146E-01
          2   -1    0    0  501    0  0.00000000000E+00  0.00000000000E+00  0.35826544013E+04  0.35826544013E+04  0.25500000000E-02 0. -1.
         -2   -1    0    0    0  501 -0.00000000000E+00 -0.00000000000E+00 -0.18684905212E+04  0.18684905212E+04  0.25500000000E-02 0.  1.
    8880023    1    1    2    0    0 -0.77503502334E+03 -0.61765080456E+02  0.34209001161E+04  0.35694344122E+04  0.65864270000E+03 0.  0.
    8880022    1    1    2    0    0  0.77503502334E+03  0.61765080456E+02 -0.17067362359E+04  0.18817105103E+04  0.15294330000E+03 0.  0.
<mgrwt>
<rscale>  0 0.95687862E+03</rscale>
<asrwt>0</asrwt>
<pdfrwt beam="1">  1        2 0.55117760E+00 0.10189722E+04</pdfrwt>
<pdfrwt beam="2">  1       -2 0.28746008E+00 0.10189722E+04</pdfrwt>
<totfact> 0.28007650E-02</totfact>
</mgrwt>
</event>
<event>
 4    5  0.2025789E-007  0.9803688E+03  0.7818608E-02  0.9407704E-01
          2   -1    0    0  501    0  0.00000000000E+00  0.00000000000E+00  0.23289410708E+04  0.23289410708E+04  0.25500000000E-02 0. -1.
         -2   -1    0    0    0  501 -0.00000000000E+00 -0.00000000000E+00 -0.50275768923E+03  0.50275768924E+03  0.25500000000E-02 0.  1.
    8880023    1    1    2    0    0 -0.70568116553E+03  0.17125109905E+03  0.18450791402E+04  0.20893635601E+04  0.65864270000E+03 0.  0.
    8880022    1    1    2    0    0  0.70568116553E+03 -0.17125109905E+03 -0.18895758689E+02  0.74233519991E+03  0.15294330000E+03 0.  0.
<mgrwt>
<rscale>  0 0.91444365E+03</rscale>
<asrwt>0</asrwt>
<pdfrwt beam="1">  1        2 0.35829862E+00 0.98036883E+03</pdfrwt>
<pdfrwt beam="2">  1       -2 0.77347339E-01 0.98036883E+03</pdfrwt>
<totfact> 0.65722174E+00</totfact>
</mgrwt>
</event>
<event>
 4    5  0.2025789E-007  0.7140034E+03  0.7818608E-02  0.9943425E-01
          2   -1    0    0  501    0  0.00000000000E+00  0.00000000000E+00  0.88170045071E+03  0.88170045071E+03  0.25500000000E-02 0. -1.
         -2   -1    0    0    0  501 -0.00000000000E+00 -0.00000000000E+00 -0.32924555471E+03  0.32924555472E+03  0.25500000000E-02 0.  1.
    8880023    1    1    2    0    0  0.24758274982E+03  0.12121653175E+03  0.54042598638E+03  0.89546698353E+03  0.65864270000E+03 0.  0.
    8880022    1    1    2    0    0 -0.24758274982E+03 -0.12121653175E+03  0.12028909617E+02  0.31547902190E+03  0.15294330000E+03 0.  0.
<mgrwt>
<rscale>  0 0.58202127E+03</rscale>
<asrwt>0</asrwt>
<pdfrwt beam="1">  1        2 0.13564622E+00 0.71400341E+03</pdfrwt>
<pdfrwt beam="2">  1       -2 0.50653163E-01 0.71400341E+03</pdfrwt>
<totfact> 0.11285114E+02</totfact>
</mgrwt>
</event>
<event>
 4    5  0.2025789E-007  0.7634880E+03  0.7818608E-02  0.9796160E-01
          2   -1    0    0  501    0  0.00000000000E+00  0.00000000000E+00  0.12221745473E+04  0.12221745473E+04  0.25500000000E-02 0. -1.
         -2   -1    0    0    0  501 -0.00000000000E+00 -0.00000000000E+00 -0.36027153855E+03  0.36027153856E+03  0.25500000000E-02 0.  1.
    8880023    1    1    2    0    0 -0.21860119193E+03 -0.31830375690E+03  0.88210547981E+03  0.11666293527E+04  0.65864270000E+03 0.  1.
    8880022    1    1    2    0    0  0.21860119193E+03  0.31830375690E+03 -0.20202471028E+02  0.41581673321E+03  0.15294330000E+03 0.  0.
<mgrwt>
<rscale>  0 0.65569047E+03</rscale>
<asrwt>0</asrwt>
<pdfrwt beam="1">  1        2 0.18802686E+00 0.76348803E+03</pdfrwt>
<pdfrwt beam="2">  1       -2 0.55426390E-01 0.76348803E+03</pdfrwt>
<totfact> 0.57126269E+01</totfact>
</mgrwt>
</event>
<event>
 4    5  0.2025789E-007  0.7130606E+03  0.7818608E-02  0.9946807E-01
         -2   -1    0    0    0  501 -0.00000000000E+00  0.00000000000E+00  0.11043957031E+03  0.11043957034E+03  0.25500000000E-02 0.  1.
          2   -1    0    0  501    0  0.00000000000E+00 -0.00000000000E+00 -0.35182641837E+04  0.35182641837E+04  0.25500000000E-02 0. -1.
    8880023    1    1    2    0    0 -0.27241428092E+03  0.20871155185E+02 -0.31297151672E+04  0.32099178151E+04  0.65864270000E+03 0.  0.
    8880022    1    1    2    0    0  0.27241428092E+03 -0.20871155185E+02 -0.27810944612E+03  0.41878593888E+03  0.15294330000E+03 0.  0.
<mgrwt>
<rscale>  0 0.58045486E+03</rscale>
<asrwt>0</asrwt>
<pdfrwt beam="1">  1        2 0.54127133E+00 0.71306055E+03</pdfrwt>
<pdfrwt beam="2">  1       -2 0.16990706E-01 0.71306055E+03</pdfrwt>
<totfact> 0.24238019E+01</totfact>
</mgrwt>
</event>
<event>
 4    5  0.2025789E-007  0.9236844E+03  0.7818608E-02  0.9489033E-01
          2   -1    0    0  501    0  0.00000000000E+00  0.00000000000E+00  0.11211700197E+04  0.11211700197E+04  0.25500000000E-02 0. -1.
         -2   -1    0    0    0  501 -0.00000000000E+00 -0.00000000000E+00 -0.69404815370E+03  0.69404815371E+03  0.25500000000E-02 0.  1.
    8880023    1    1    2    0    0 -0.10111635288E+03 -0.63965476421E+03  0.63173793893E+03  0.11190557466E+04  0.65864270000E+03 0.  0.
    8880022    1    1    2    0    0  0.10111635288E+03  0.63965476421E+03 -0.20461607295E+03  0.69616242682E+03  0.15294330000E+03 0.  0.
<mgrwt>
<rscale>  0 0.85097251E+03</rscale>
<asrwt>0</asrwt>
<pdfrwt beam="1">  1        2 0.17248769E+00 0.92368444E+03</pdfrwt>
<pdfrwt beam="2">  1       -2 0.10677664E+00 0.92368444E+03</pdfrwt>
<totfact> 0.14930256E+01</totfact>
</mgrwt>
</event>
<event>
 4    5  0.2025789E-007  0.9800947E+03  0.7818608E-02  0.9408076E-01
         -2   -1    0    0    0  501 -0.00000000000E+00  0.00000000000E+00  0.27501311854E+03  0.27501311855E+03  0.25500000000E-02 0.  1.
          2   -1    0    0  501    0  0.00000000000E+00 -0.00000000000E+00 -0.32445881532E+04  0.32445881532E+04  0.25500000000E-02 0. -1.
    8880023    1    1    2    0    0  0.32696246091E+02 -0.72505611409E+03 -0.23739779988E+04  0.25683374308E+04  0.65864270000E+03 0.  0.
    8880022    1    1    2    0    0 -0.32696246091E+02  0.72505611409E+03 -0.59559703586E+03  0.95126384102E+03  0.15294330000E+03 0.  0.
<mgrwt>
<rscale>  0 0.91414030E+03</rscale>
<asrwt>0</asrwt>
<pdfrwt beam="1">  1        2 0.49916738E+00 0.98009470E+03</pdfrwt>
<pdfrwt beam="2">  1       -2 0.42309713E-01 0.98009470E+03</pdfrwt>
<totfact> 0.66277870E+00</totfact>
</mgrwt>
</event>
<event>
 4    5  0.2025789E-007  0.2908689E+04  0.7818608E-02  0.8275660E-01
          2   -1    0    0  501    0  0.00000000000E+00  0.00000000000E+00  0.41485996861E+04  0.41485996861E+04  0.25500000000E-02 0. -1.
         -2   -1    0    0    0  501 -0.00000000000E+00 -0.00000000000E+00 -0.22167819032E+04  0.22167819032E+04  0.25500000000E-02 0.  1.
    8880023    1    1    2    0    0 -0.26246232657E+04 -0.10667775528E+04  0.19955233624E+04  0.35274049002E+04  0.65864270000E+03 0.  0.
    8880022    1    1    2    0    0  0.26246232657E+04  0.10667775528E+04 -0.63705579539E+02  0.28379766891E+04  0.15294330000E+03 0.  0.
<mgrwt>
<rscale>  0 0.28906653E+04</rscale>
<asrwt>0</asrwt>
<pdfrwt beam="1">  1        2 0.63824610E+00 0.29086890E+04</pdfrwt>
<pdfrwt beam="2">  1       -2 0.34104337E+00 0.29086890E+04</pdfrwt>
<totfact> 0.36570899E-03</totfact>
</mgrwt>
</event>
<event>
 4    5  0.2025789E-007  0.1364729E+04  0.7818608E-02  0.9011585E-01
          2   -1    0    0  501    0  0.00000000000E+00  0.00000000000E+00  0.17302935931E+04  0.17302935931E+04  0.25500000000E-02 0. -1.
         -2   -1    0    0    0  501 -0.00000000000E+00 -0.00000000000E+00 -0.21342362429E+04  0.21342362429E+04  0.25500000000E-02 0.  1.
    8880023    1    1    2    0    0 -0.65328444682E+03  0.10009472411E+04  0.12280166302E+04  0.18358951491E+04  0.65864270000E+03 0.  0.
    8880022    1    1    2    0    0  0.65328444682E+03 -0.10009472411E+04 -0.16319592801E+04  0.20286346869E+04  0.15294330000E+03 0.  0.
<mgrwt>
<rscale>  0 0.13229190E+04</rscale>
<asrwt>0</asrwt>
<pdfrwt beam="1">  1        2 0.26619901E+00 0.13647293E+04</pdfrwt>
<pdfrwt beam="2">  1       -2 0.32834404E+00 0.13647293E+04</pdfrwt>
<totfact> 0.19169841E-01</totfact>
</mgrwt>
</event>
<event>
 4    5  0.2025789E-007  0.9193919E+03  0.7818608E-02  0.9495592E-01
         -2   -1    0    0    0  501 -0.00000000000E+00  0.00000000000E+00  0.88955660349E+03  0.88955660350E+03  0.25500000000E-02 0.  1.
          2   -1    0    0  501    0  0.00000000000E+00 -0.00000000000E+00 -0.27384706569E+04  0.27384706569E+04  0.25500000000E-02 0. -1.
    8880023    1    1    2    0    0 -0.28446016832E+03  0.57493796330E+03 -0.25228361748E+04  0.26851413036E+04  0.65864270000E+03 0.  0.
    8880022    1    1    2    0    0  0.28446016832E+03 -0.57493796330E+03  0.67392212135E+03  0.94288595687E+03  0.15294330000E+03 0.  0.
<mgrwt>
<rscale>  0 0.84609582E+03</rscale>
<asrwt>0</asrwt>
<pdfrwt beam="1">  1        2 0.42130318E+00 0.91939189E+03</pdfrwt>
<pdfrwt beam="2">  1       -2 0.13685486E+00 0.91939189E+03</pdfrwt>
<totfact> 0.98332772E-01</totfact>
</mgrwt>
</event>
<event>
 4    5  0.2025789E-007  0.8735132E+03  0.7818608E-02  0.9569964E-01
         -2   -1    0    0    0  501 -0.00000000000E+00  0.00000000000E+00  0.77274334083E+03  0.77274334083E+03  0.25500000000E-02 0.  1.
          2   -1    0    0  501    0  0.00000000000E+00 -0.00000000000E+00 -0.14931402700E+04  0.14931402700E+04  0.25500000000E-02 0. -1.
    8880023    1    1    2    0    0 -0.27875274635E+03 -0.50150968348E+03 -0.12126970055E+04  0.14945431709E+04  0.65864270000E+03 0. -1.
    8880022    1    1    2    0    0  0.27875274635E+03  0.50150968348E+03  0.49230007629E+03  0.77134043998E+03  0.15294330000E+03 0.  0.
<mgrwt>
<rscale>  0 0.79316477E+03</rscale>
<asrwt>0</asrwt>
<pdfrwt beam="1">  1        2 0.22971389E+00 0.87351317E+03</pdfrwt>
<pdfrwt beam="2">  1       -2 0.11888359E+00 0.87351317E+03</pdfrwt>
<totfact> 0.70189120E+00</totfact>
</mgrwt>
</event>
<event>
 4    5  0.2025789E-007  0.8231736E+03  0.7818608E-02  0.9662763E-01
          2   -1    0    0  501    0  0.00000000000E+00  0.00000000000E+00  0.37646841471E+03  0.37646841472E+03  0.25500000000E-02 0. -1.
         -2   -1    0    0    0  501 -0.00000000000E+00 -0.00000000000E+00 -0.15819456060E+04  0.15819456060E+04  0.25500000000E-02 0.  1.
    8880023    1    1    2    0    0 -0.44646861101E+03 -0.21087996964E+03 -0.23042095376E+03  0.85481495331E+03  0.65864270000E+03 0.  0.
    8880022    1    1    2    0    0  0.44646861101E+03  0.21087996964E+03 -0.97505623756E+03  0.11035990674E+04  0.15294330000E+03 0.  0.
<mgrwt>
<rscale>  0 0.73277791E+03</rscale>
<asrwt>0</asrwt>
<pdfrwt beam="1">  1        2 0.57918218E-01 0.82317361E+03</pdfrwt>
<pdfrwt beam="2">  1       -2 0.24337624E+00 0.82317361E+03</pdfrwt>
<totfact> 0.61202180E+00</totfact>
</mgrwt>
</event>
<event>
 4    5  0.2025789E-007  0.1192460E+04  0.7818608E-02  0.9164486E-01
          2   -1    0    0  501    0  0.00000000000E+00  0.00000000000E+00  0.25580198445E+04  0.25580198445E+04  0.25500000000E-02 0. -1.
         -2   -1    0    0    0  501 -0.00000000000E+00 -0.00000000000E+00 -0.53658301232E+03  0.53658301233E+03  0.25500000000E-02 0.  1.
    8880023    1    1    2    0    0 -0.33642050763E+03 -0.93539990111E+03  0.16203113464E+04  0.20118078433E+04  0.65864270000E+03 0. -1.
    8880022    1    1    2    0    0  0.33642050763E+03  0.93539990111E+03  0.40112548581E+03  0.10827950135E+04  0.15294330000E+03 0.  0.
<mgrwt>
<rscale>  0 0.11427627E+04</rscale>
<asrwt>0</asrwt>
<pdfrwt beam="1">  1        2 0.39354151E+00 0.11924605E+04</pdfrwt>
<pdfrwt beam="2">  1       -2 0.82551233E-01 0.11924605E+04</pdfrwt>
<totfact> 0.40950322E+00</totfact>
</mgrwt>
</event>
<event>
 4    5  0.2025789E-007  0.7732113E+03  0.7818608E-02  0.9772032E-01
         -2   -1    0    0    0  501 -0.00000000000E+00  0.00000000000E+00  0.14736196727E+04  0.14736196727E+04  0.25500000000E-02 0.  1.
          2   -1    0    0  501    0  0.00000000000E+00 -0.00000000000E+00 -0.12734848126E+04  0.12734848126E+04  0.25500000000E-02 0. -1.
    8880023    1    1    2    0    0 -0.13652670970E+03  0.38132124290E+03 -0.11182032456E+04  0.13594977519E+04  0.65864270000E+03 0. -1.
    8880022    1    1    2    0    0  0.13652670970E+03 -0.38132124290E+03  0.13183381057E+04  0.13876067335E+04  0.15294330000E+03 0.  0.
<mgrwt>
<rscale>  0 0.66885282E+03</rscale>
<asrwt>0</asrwt>
<pdfrwt beam="1">  1        2 0.19592074E+00 0.77321125E+03</pdfrwt>
<pdfrwt beam="2">  1       -2 0.22671072E+00 0.77321125E+03</pdfrwt>
<totfact> 0.15805375E+00</totfact>
</mgrwt>
</event>
<event>
 4    5  0.2025789E-007  0.1313663E+04  0.7818608E-02  0.9053850E-01
          2   -1    0    0  501    0  0.00000000000E+00  0.00000000000E+00  0.16148006005E+04  0.16148006005E+04  0.25500000000E-02 0. -1.
         -2   -1    0    0    0  501 -0.00000000000E+00 -0.00000000000E+00 -0.12285018951E+04  0.12285018951E+04  0.25500000000E-02 0.  1.
    8880023    1    1    2    0    0  0.10706490418E+04 -0.38158874015E+03  0.89408396890E+03  0.15890549666E+04  0.65864270000E+03 0.  0.
    8880022    1    1    2    0    0 -0.10706490418E+04  0.38158874015E+03 -0.50778526350E+03  0.12542475290E+04  0.15294330000E+03 0.  0.
<mgrwt>
<rscale>  0 0.12698155E+04</rscale>
<asrwt>0</asrwt>
<pdfrwt beam="1">  1        2 0.24843086E+00 0.13136626E+04</pdfrwt>
<pdfrwt beam="2">  1       -2 0.18900029E+00 0.13136626E+04</pdfrwt>
<totfact> 0.16511889E+00</totfact>
</mgrwt>
</event>
<event>
 4    5  0.2025789E-007  0.9718179E+03  0.7818608E-02  0.9419394E-01
         -2   -1    0    0    0  501 -0.00000000000E+00  0.00000000000E+00  0.22825562303E+04  0.22825562303E+04  0.25500000000E-02 0.  1.
          2   -1    0    0  501    0  0.00000000000E+00 -0.00000000000E+00 -0.11616199251E+04  0.11616199251E+04  0.25500000000E-02 0. -1.
    8880023    1    1    2    0    0  0.70367387477E+03 -0.12434984988E+03 -0.88182081722E+03  0.13122644425E+04  0.65864270000E+03 0. -1.
    8880022    1    1    2    0    0 -0.70367387477E+03  0.12434984988E+03  0.20027571224E+04  0.21319117129E+04  0.15294330000E+03 0.  0.
<mgrwt>
<rscale>  0 0.90496647E+03</rscale>
<asrwt>0</asrwt>
<pdfrwt beam="1">  1        2 0.17871076E+00 0.97181789E+03</pdfrwt>
<pdfrwt beam="2">  1       -2 0.35116250E+00 0.97181789E+03</pdfrwt>
<totfact> 0.31059488E-01</totfact>
</mgrwt>
</event>
<event>
 4    5  0.2025789E-007  0.7013172E+03  0.7818608E-02  0.9991780E-01
         -2   -1    0    0    0  501 -0.00000000000E+00  0.00000000000E+00  0.11685646977E+04  0.11685646977E+04  0.25500000000E-02 0.  1.
          2   -1    0    0  501    0  0.00000000000E+00 -0.00000000000E+00 -0.27382461128E+03  0.27382461129E+03  0.25500000000E-02 0. -1.
    8880023    1    1    2    0    0 -0.12916361961E+03  0.20335265014E+03  0.26267407308E+03  0.74889479627E+03  0.65864270000E+03 0. -1.
    8880022    1    1    2    0    0  0.12916361961E+03 -0.20335265014E+03  0.63206601338E+03  0.69349451277E+03  0.15294330000E+03 0.  0.
<mgrwt>
<rscale>  0 0.56012122E+03</rscale>
<asrwt>0</asrwt>
<pdfrwt beam="1">  1        2 0.42126864E-01 0.70131715E+03</pdfrwt>
<pdfrwt beam="2">  1       -2 0.17977918E+00 0.70131715E+03</pdfrwt>
<totfact> 0.22525340E+01</totfact>
</mgrwt>
</event>
<event>
 4    5  0.2025789E-007  0.9785445E+03  0.7818608E-02  0.9410182E-01
         -2   -1    0    0    0  501 -0.00000000000E+00  0.00000000000E+00  0.29690809963E+03  0.29690809964E+03  0.25500000000E-02 0.  1.
          2   -1    0    0  501    0  0.00000000000E+00 -0.00000000000E+00 -0.30461801480E+04  0.30461801480E+04  0.25500000000E-02 0. -1.
    8880023    1    1    2    0    0  0.51727439035E+03 -0.50612873960E+03 -0.22417975756E+04  0.24460592127E+04  0.65864270000E+03 0.  0.
    8880022    1    1    2    0    0 -0.51727439035E+03  0.50612873960E+03 -0.50747447283E+03  0.89702903496E+03  0.15294330000E+03 0.  0.
<mgrwt>
<rscale>  0 0.91242425E+03</rscale>
<asrwt>0</asrwt>
<pdfrwt beam="1">  1        2 0.46864308E+00 0.97854448E+03</pdfrwt>
<pdfrwt beam="2">  1       -2 0.45678171E-01 0.97854448E+03</pdfrwt>
<totfact> 0.76030963E+00</totfact>
</mgrwt>
</event>
<event>
 4    5  0.2025789E-007  0.7742516E+03  0.7818608E-02  0.9769517E-01
          2   -1    0    0  501    0  0.00000000000E+00  0.00000000000E+00  0.78012078629E+03  0.78012078629E+03  0.25500000000E-02 0. -1.
         -2   -1    0    0    0  501 -0.00000000000E+00 -0.00000000000E+00 -0.56740824635E+03  0.56740824636E+03  0.25500000000E-02 0.  1.
    8880023    1    1    2    0    0 -0.14819113581E+03  0.37907087478E+03  0.40307306031E+03  0.87288798769E+03  0.65864270000E+03 0. -1.
    8880022    1    1    2    0    0  0.14819113581E+03 -0.37907087478E+03 -0.19036052037E+03  0.47464104497E+03  0.15294330000E+03 0.  1.
<mgrwt>
<rscale>  0 0.67024380E+03</rscale>
<asrwt>0</asrwt>
<pdfrwt beam="1">  1        2 0.12001858E+00 0.77425160E+03</pdfrwt>
<pdfrwt beam="2">  1       -2 0.87293577E-01 0.77425160E+03</pdfrwt>
<totfact> 0.40852201E+01</totfact>
</mgrwt>
</event>
<event>
 4    5  0.2025789E-007  0.9515464E+03  0.7818608E-02  0.9447893E-01
         -2   -1    0    0    0  501 -0.00000000000E+00  0.00000000000E+00  0.25153565341E+03  0.25153565342E+03  0.25500000000E-02 0.  1.
          2   -1    0    0  501    0  0.00000000000E+00 -0.00000000000E+00 -0.35753343057E+04  0.35753343057E+04  0.25500000000E-02 0. -1.
    8880023    1    1    2    0    0  0.58177719881E+03  0.36491878618E+03 -0.27778882005E+04  0.29363418552E+04  0.65864270000E+03 0.  0.
    8880022    1    1    2    0    0 -0.58177719881E+03 -0.36491878618E+03 -0.54591045176E+03  0.89052810394E+03  0.15294330000E+03 0.  0.
<mgrwt>
<rscale>  0 0.88236966E+03</rscale>
<asrwt>0</asrwt>
<pdfrwt beam="1">  1        2 0.55005139E+00 0.95154644E+03</pdfrwt>
<pdfrwt beam="2">  1       -2 0.38697796E-01 0.95154644E+03</pdfrwt>
<totfact> 0.47521208E+00</totfact>
</mgrwt>
</event>
<event>
 4    5  0.2025789E-007  0.1109066E+04  0.7818608E-02  0.9251029E-01
          2   -1    0    0  501    0  0.00000000000E+00  0.00000000000E+00  0.18712109403E+04  0.18712109403E+04  0.25500000000E-02 0. -1.
         -2   -1    0    0    0  501 -0.00000000000E+00 -0.00000000000E+00 -0.12654749174E+04  0.12654749174E+04  0.25500000000E-02 0.  1.
    8880023    1    1    2    0    0  0.65610375668E+02 -0.88989489080E+03  0.14991228932E+04  0.18647780815E+04  0.65864270000E+03 0. -1.
    8880022    1    1    2    0    0 -0.65610375668E+02  0.88989489080E+03 -0.89338687029E+03  0.12719077762E+04  0.15294330000E+03 0.  0.
<mgrwt>
<rscale>  0 0.10541902E+04</rscale>
<asrwt>0</asrwt>
<pdfrwt beam="1">  1        2 0.28787861E+00 0.11090662E+04</pdfrwt>
<pdfrwt beam="2">  1       -2 0.19468845E+00 0.11090662E+04</pdfrwt>
<totfact> 0.11154698E+00</totfact>
</mgrwt>
</event>
<event>
 4    5  0.2025789E-007  0.8753431E+03  0.7818608E-02  0.9566833E-01
         -2   -1    0    0    0  501 -0.00000000000E+00  0.00000000000E+00  0.44328635092E+03  0.44328635093E+03  0.25500000000E-02 0.  1.
          2   -1    0    0  501    0  0.00000000000E+00 -0.00000000000E+00 -0.21439803847E+04  0.21439803847E+04  0.25500000000E-02 0. -1.
    8880023    1    1    2    0    0 -0.57634309710E+03  0.15618259629E+02 -0.17818755114E+04  0.19852722332E+04  0.65864270000E+03 0.  0.
    8880022    1    1    2    0    0  0.57634309710E+03 -0.15618259629E+02  0.81181477627E+02  0.60199450241E+03  0.15294330000E+03 0.  0.
<mgrwt>
<rscale>  0 0.79530833E+03</rscale>
<asrwt>0</asrwt>
<pdfrwt beam="1">  1        2 0.32984313E+00 0.87534308E+03</pdfrwt>
<pdfrwt beam="2">  1       -2 0.68197901E-01 0.87534308E+03</pdfrwt>
<totfact> 0.11148079E+01</totfact>
</mgrwt>
</event>
<event>
 4    5  0.2025789E-007  0.8194404E+03  0.7818608E-02  0.9670238E-01
          2   -1    0    0  501    0  0.00000000000E+00  0.00000000000E+00  0.15007558345E+04  0.15007558345E+04  0.25500000000E-02 0. -1.
         -2   -1    0    0    0  501 -0.00000000000E+00 -0.00000000000E+00 -0.13125466158E+04  0.13125466158E+04  0.25500000000E-02 0.  1.
    8880023    1    1    2    0    0  0.48587389131E+03  0.39986669019E+02  0.13301305416E+04  0.15622835325E+04  0.65864270000E+03 0. -1.
    8880022    1    1    2    0    0 -0.48587389131E+03 -0.39986669019E+02 -0.11419213229E+04  0.12510189178E+04  0.15294330000E+03 0.  0.
<mgrwt>
<rscale>  0 0.72816770E+03</rscale>
<asrwt>0</asrwt>
<pdfrwt beam="1">  1        2 0.23088551E+00 0.81944041E+03</pdfrwt>
<pdfrwt beam="2">  1       -2 0.20193025E+00 0.81944041E+03</pdfrwt>
<totfact> 0.16717513E+00</totfact>
</mgrwt>
</event>
<event>
 4    5  0.2025789E-007  0.6717192E+03  0.7818608E-02  0.1014459E+00
          2   -1    0    0  501    0  0.00000000000E+00  0.00000000000E+00  0.95155508725E+03  0.95155508726E+03  0.25500000000E-02 0. -1.
         -2   -1    0    0    0  501 -0.00000000000E+00 -0.00000000000E+00 -0.72911578491E+03  0.72911578491E+03  0.25500000000E-02 0.  1.
    8880023    1    1    2    0    0  0.43729532163E+01  0.13182314089E+03  0.81412612152E+03  0.10554657793E+04  0.65864270000E+03 0. -1.
    8880022    1    1    2    0    0 -0.43729532163E+01 -0.13182314089E+03 -0.59168681917E+03  0.62520509290E+03  0.15294330000E+03 0.  0.
<mgrwt>
<rscale>  0 0.49740199E+03</rscale>
<asrwt>0</asrwt>
<pdfrwt beam="1">  1        2 0.14639309E+00 0.67171919E+03</pdfrwt>
<pdfrwt beam="2">  1       -2 0.11217166E+00 0.67171919E+03</pdfrwt>
<totfact> 0.17396951E+01</totfact>
</mgrwt>
</event>
<event>
 4    5  0.2025789E-007  0.8863902E+03  0.7818608E-02  0.9548243E-01
         -2   -1    0    0    0  501 -0.00000000000E+00  0.00000000000E+00  0.14323337153E+04  0.14323337153E+04  0.25500000000E-02 0.  1.
          2   -1    0    0  501    0  0.00000000000E+00 -0.00000000000E+00 -0.12588773028E+04  0.12588773028E+04  0.25500000000E-02 0. -1.
    8880023    1    1    2    0    0  0.40684405988E+03  0.43168881278E+03 -0.10190199497E+04  0.13505884585E+04  0.65864270000E+03 0.  0.
    8880022    1    1    2    0    0 -0.40684405988E+03 -0.43168881278E+03  0.11924763621E+04  0.13406225596E+04  0.15294330000E+03 0.  0.
<mgrwt>
<rscale>  0 0.80818638E+03</rscale>
<asrwt>0</asrwt>
<pdfrwt beam="1">  1        2 0.19367343E+00 0.88639017E+03</pdfrwt>
<pdfrwt beam="2">  1       -2 0.22035903E+00 0.88639017E+03</pdfrwt>
<totfact> 0.17344246E+00</totfact>
</mgrwt>
</event>
<event>
 4    5  0.2025789E-007  0.8688572E+03  0.7818608E-02  0.9577998E-01
         -2   -1    0    0    0  501 -0.00000000000E+00  0.00000000000E+00  0.14672561943E+04  0.14672561943E+04  0.25500000000E-02 0.  1.
          2   -1    0    0  501    0  0.00000000000E+00 -0.00000000000E+00 -0.20985032095E+04  0.20985032095E+04  0.25500000000E-02 0. -1.
    8880023    1    1    2    0    0  0.48935235604E+03  0.28572175447E+03 -0.19431450153E+04  0.21285500713E+04  0.65864270000E+03 0. -1.
    8880022    1    1    2    0    0 -0.48935235604E+03 -0.28572175447E+03  0.13118980002E+04  0.14372093325E+04  0.15294330000E+03 0.  0.
<mgrwt>
<rscale>  0 0.78769677E+03</rscale>
<asrwt>0</asrwt>
<pdfrwt beam="1">  1        2 0.32284665E+00 0.86885721E+03</pdfrwt>
<pdfrwt beam="2">  1       -2 0.22573172E+00 0.86885721E+03</pdfrwt>
<totfact> 0.54901893E-01</totfact>
</mgrwt>
</event>
<event>
 4    5  0.2025789E-007  0.6782153E+03  0.7818608E-02  0.1010352E+00
          2   -1    0    0  501    0  0.00000000000E+00  0.00000000000E+00  0.14653660624E+04  0.14653660624E+04  0.25500000000E-02 0. -1.
         -2   -1    0    0    0  501 -0.00000000000E+00 -0.00000000000E+00 -0.19165369746E+03  0.19165369748E+03  0.25500000000E-02 0.  1.
    8880023    1    1    2    0    0 -0.15240786366E+03  0.54199740736E+02  0.12636824445E+04  0.14341789622E+04  0.65864270000E+03 0. -1.
    8880022    1    1    2    0    0  0.15240786366E+03 -0.54199740736E+02  0.10029920452E+02  0.22284079770E+03  0.15294330000E+03 0.  0.
<mgrwt>
<rscale>  0 0.51335083E+03</rscale>
<asrwt>0</asrwt>
<pdfrwt beam="1">  1        2 0.22544093E+00 0.67821529E+03</pdfrwt>
<pdfrwt beam="2">  1       -2 0.29485184E-01 0.67821529E+03</pdfrwt>
<totfact> 0.14372266E+02</totfact>
</mgrwt>
</event>
<event>
 4    5  0.2025789E-007  0.1172278E+04  0.7818608E-02  0.9184553E-01
          2   -1    0    0  501    0  0.00000000000E+00  0.00000000000E+00  0.27517737560E+04  0.27517737560E+04  0.25500000000E-02 0. -1.
         -2   -1    0    0    0  501 -0.00000000000E+00 -0.00000000000E+00 -0.48351295162E+03  0.48351295162E+03  0.25500000000E-02 0.  1.
    8880023    1    1    2    0    0  0.78487270848E+03 -0.56956141043E+03  0.17988015470E+04  0.21470730263E+04  0.65864270000E+03 0.  0.
    8880022    1    1    2    0    0 -0.78487270848E+03  0.56956141043E+03  0.46945925742E+03  0.10882136813E+04  0.15294330000E+03 0.  0.
<mgrwt>
<rscale>  0 0.11214303E+04</rscale>
<asrwt>0</asrwt>
<pdfrwt beam="1">  1        2 0.42334982E+00 0.11722779E+04</pdfrwt>
<pdfrwt beam="2">  1       -2 0.74386605E-01 0.11722779E+04</pdfrwt>
<totfact> 0.39954814E+00</totfact>
</mgrwt>
</event>
<event>
 4    5  0.2025789E-007  0.8245279E+03  0.7818608E-02  0.9660075E-01
         -2   -1    0    0    0  501 -0.00000000000E+00  0.00000000000E+00  0.59415020229E+03  0.59415020230E+03  0.25500000000E-02 0.  1.
          2   -1    0    0  501    0  0.00000000000E+00 -0.00000000000E+00 -0.18113518776E+04  0.18113518776E+04  0.25500000000E-02 0. -1.
    8880023    1    1    2    0    0  0.43098325191E+03 -0.24553919655E+03 -0.15731384804E+04  0.17761224466E+04  0.65864270000E+03 0.  0.
    8880022    1    1    2    0    0 -0.43098325191E+03  0.24553919655E+03  0.35593680517E+03  0.62937963325E+03  0.15294330000E+03 0.  0.
<mgrwt>
<rscale>  0 0.73444504E+03</rscale>
<asrwt>0</asrwt>
<pdfrwt beam="1">  1        2 0.27866952E+00 0.82452791E+03</pdfrwt>
<pdfrwt beam="2">  1       -2 0.91407724E-01 0.82452791E+03</pdfrwt>
<totfact> 0.88471860E+00</totfact>
</mgrwt>
</event>
<event>
 4    5  0.2025789E-007  0.9966161E+03  0.7818608E-02  0.9385998E-01
          2   -1    0    0  501    0  0.00000000000E+00  0.00000000000E+00  0.58338615946E+03  0.58338615947E+03  0.25500000000E-02 0. -1.
         -2   -1    0    0    0  501 -0.00000000000E+00 -0.00000000000E+00 -0.23771802472E+04  0.23771802472E+04  0.25500000000E-02 0.  1.
    8880023    1    1    2    0    0  0.61448747080E+03  0.42642533062E+03  0.15569922276E+02  0.99673770026E+03  0.65864270000E+03 0.  0.
    8880022    1    1    2    0    0 -0.61448747080E+03 -0.42642533062E+03 -0.18093640100E+04  0.19638287064E+04  0.15294330000E+03 0.  0.
<mgrwt>
<rscale>  0 0.93236980E+03</rscale>
<asrwt>0</asrwt>
<pdfrwt beam="1">  1        2 0.89751718E-01 0.99661608E+03</pdfrwt>
<pdfrwt beam="2">  1       -2 0.36572003E+00 0.99661608E+03</pdfrwt>
<totfact> 0.64478043E-01</totfact>
</mgrwt>
</event>
<event>
 4    5  0.2025789E-007  0.7219800E+03  0.7818608E-02  0.9915943E-01
          2   -1    0    0  501    0  0.00000000000E+00  0.00000000000E+00  0.32184636764E+04  0.32184636764E+04  0.25500000000E-02 0. -1.
         -2   -1    0    0    0  501 -0.00000000000E+00 -0.00000000000E+00 -0.25503345770E+03  0.25503345772E+03  0.25500000000E-02 0.  1.
    8880023    1    1    2    0    0  0.25164350894E+03  0.15530745273E+03  0.30460780313E+04  0.31304706418E+04  0.65864270000E+03 0.  0.
    8880022    1    1    2    0    0 -0.25164350894E+03 -0.15530745273E+03 -0.82647812586E+02  0.34302649228E+03  0.15294330000E+03 0.  0.
<mgrwt>
<rscale>  0 0.59494828E+03</rscale>
<asrwt>0</asrwt>
<pdfrwt beam="1">  1        2 0.49514829E+00 0.72197996E+03</pdfrwt>
<pdfrwt beam="2">  1       -2 0.39235914E-01 0.72197996E+03</pdfrwt>
<totfact> 0.83413592E+00</totfact>
</mgrwt>
</event>
<event>
 4    5  0.2025789E-007  0.1130992E+04  0.7818608E-02  0.9227310E-01
         -2   -1    0    0    0  501 -0.00000000000E+00  0.00000000000E+00  0.73953438925E+03  0.73953438926E+03  0.25500000000E-02 0.  1.
          2   -1    0    0  501    0  0.00000000000E+00 -0.00000000000E+00 -0.22456931469E+04  0.22456931469E+04  0.25500000000E-02 0. -1.
    8880023    1    1    2    0    0  0.55005148710E+03  0.73673382235E+03 -0.16916438195E+04  0.20348961599E+04  0.65864270000E+03 0.  0.
    8880022    1    1    2    0    0 -0.55005148710E+03 -0.73673382235E+03  0.18548506184E+03  0.95033137622E+03  0.15294330000E+03 0.  0.
<mgrwt>
<rscale>  0 0.10775937E+04</rscale>
<asrwt>0</asrwt>
<pdfrwt beam="1">  1        2 0.34549125E+00 0.11309923E+04</pdfrwt>
<pdfrwt beam="2">  1       -2 0.11377452E+00 0.11309923E+04</pdfrwt>
<totfact> 0.29062364E+00</totfact>
</mgrwt>
</event>
<event>
 4    5  0.2025789E-007  0.9483966E+03  0.7818608E-02  0.9452425E-01
         -2   -1    0    0    0  501 -0.00000000000E+00  0.00000000000E+00  0.45586524680E+03  0.45586524680E+03  0.25500000000E-02 0.  1.
          2   -1    0    0  501    0  0.00000000000E+00 -0.00000000000E+00 -0.25073548322E+04  0.25073548323E+04  0.25500000000E-02 0. -1.
    8880023    1    1    2    0    0 -0.12129019088E+03 -0.67151658871E+03 -0.20556669342E+04  0.22638954459E+04  0.65864270000E+03 0. -1.
    8880022    1    1    2    0    0  0.12129019088E+03  0.67151658871E+03  0.41773487272E+01  0.69932463318E+03  0.15294330000E+03 0.  0.
<mgrwt>
<rscale>  0 0.87884088E+03</rscale>
<asrwt>0</asrwt>
<pdfrwt beam="1">  1        2 0.38574689E+00 0.94839657E+03</pdfrwt>
<pdfrwt beam="2">  1       -2 0.70133116E-01 0.94839657E+03</pdfrwt>
<totfact> 0.64971612E+00</totfact>
</mgrwt>
</event>
<event>
 4    5  0.2025789E-007  0.1112849E+04  0.7818608E-02  0.9246884E-01
         -2   -1    0    0    0  501 -0.00000000000E+00  0.00000000000E+00  0.16606540749E+04  0.16606540749E+04  0.25500000000E-02 0.  1.
          2   -1    0    0  501    0  0.00000000000E+00 -0.00000000000E+00 -0.12368412057E+04  0.12368412057E+04  0.25500000000E-02 0. -1.
    8880023    1    1    2    0    0  0.30489077199E+03  0.84360183268E+03 -0.80137086696E+03  0.13713598753E+04  0.65864270000E+03 0.  0.
    8880022    1    1    2    0    0 -0.30489077199E+03 -0.84360183268E+03  0.12251837361E+04  0.15261354053E+04  0.15294330000E+03 0.  1.
<mgrwt>
<rscale>  0 0.10582344E+04</rscale>
<asrwt>0</asrwt>
<pdfrwt beam="1">  1        2 0.19028326E+00 0.11128489E+04</pdfrwt>
<pdfrwt beam="2">  1       -2 0.25548524E+00 0.11128489E+04</pdfrwt>
<totfact> 0.10525926E+00</totfact>
</mgrwt>
</event>
<event>
 4    5  0.2025789E-007  0.1235239E+04  0.7818608E-02  0.9123606E-01
          2   -1    0    0  501    0  0.00000000000E+00  0.00000000000E+00  0.27857897428E+04  0.27857897428E+04  0.25500000000E-02 0. -1.
         -2   -1    0    0    0  501 -0.00000000000E+00 -0.00000000000E+00 -0.60548152414E+03  0.60548152414E+03  0.25500000000E-02 0.  1.
    8880023    1    1    2    0    0 -0.67554696093E+03  0.79727059959E+03  0.19531803561E+04  0.23110014745E+04  0.65864270000E+03 0. -1.
    8880022    1    1    2    0    0  0.67554696093E+03 -0.79727059959E+03  0.22712786248E+03  0.10802697924E+04  0.15294330000E+03 0.  0.
<mgrwt>
<rscale>  0 0.11877957E+04</rscale>
<asrwt>0</asrwt>
<pdfrwt beam="1">  1        2 0.42858304E+00 0.12352386E+04</pdfrwt>
<pdfrwt beam="2">  1       -2 0.93151004E-01 0.12352386E+04</pdfrwt>
<totfact> 0.22644258E+00</totfact>
</mgrwt>
</event>
<event>
 4    5  0.2025789E-007  0.1123599E+04  0.7818608E-02  0.9235226E-01
         -2   -1    0    0    0  501 -0.00000000000E+00  0.00000000000E+00  0.10462935505E+04  0.10462935505E+04  0.25500000000E-02 0.  1.
          2   -1    0    0  501    0  0.00000000000E+00 -0.00000000000E+00 -0.18600569289E+04  0.18600569289E+04  0.25500000000E-02 0. -1.
    8880023    1    1    2    0    0  0.75492895200E+03 -0.50867122157E+03 -0.14134145065E+04  0.18056065207E+04  0.65864270000E+03 0. -1.
    8880022    1    1    2    0    0 -0.75492895200E+03  0.50867122157E+03  0.59965112813E+03  0.11007439587E+04  0.15294330000E+03 0.  0.
<mgrwt>
<rscale>  0 0.10697122E+04</rscale>
<asrwt>0</asrwt>
<pdfrwt beam="1">  1        2 0.28616260E+00 0.11235988E+04</pdfrwt>
<pdfrwt beam="2">  1       -2 0.16096824E+00 0.11235988E+04</pdfrwt>
<totfact> 0.19413497E+00</totfact>
</mgrwt>
</event>
<event>
 4    5  0.2025789E-007  0.7726893E+03  0.7818608E-02  0.9773299E-01
          2   -1    0    0  501    0  0.00000000000E+00  0.00000000000E+00  0.24993499539E+04  0.24993499539E+04  0.25500000000E-02 0. -1.
         -2   -1    0    0    0  501 -0.00000000000E+00 -0.00000000000E+00 -0.27227914611E+03  0.27227914612E+03  0.25500000000E-02 0.  1.
    8880023    1    1    2    0    0 -0.39947927482E+03  0.60455238730E+02  0.22078929890E+04  0.23391964825E+04  0.65864270000E+03 0.  0.
    8880022    1    1    2    0    0  0.39947927482E+03 -0.60455238730E+02  0.19177818797E+02  0.43243261747E+03  0.15294330000E+03 0.  0.
<mgrwt>
<rscale>  0 0.66815374E+03</rscale>
<asrwt>0</asrwt>
<pdfrwt beam="1">  1        2 0.38451537E+00 0.77268929E+03</pdfrwt>
<pdfrwt beam="2">  1       -2 0.41889100E-01 0.77268929E+03</pdfrwt>
<totfact> 0.19612058E+01</totfact>
</mgrwt>
</event>
<event>
 4    5  0.2025789E-007  0.2041276E+04  0.7818608E-02  0.8599645E-01
          2   -1    0    0  501    0  0.00000000000E+00  0.00000000000E+00  0.15688347015E+04  0.15688347015E+04  0.25500000000E-02 0. -1.
         -2   -1    0    0    0  501 -0.00000000000E+00 -0.00000000000E+00 -0.30934447254E+04  0.30934447254E+04  0.25500000000E-02 0.  1.
    8880023    1    1    2    0    0  0.12424794466E+04 -0.14796088473E+04  0.22191948041E+03  0.20533036741E+04  0.65864270000E+03 0.  0.
    8880022    1    1    2    0    0 -0.12424794466E+04  0.14796088473E+04 -0.17465295043E+04  0.26089757528E+04  0.15294330000E+03 0.  0.
<mgrwt>
<rscale>  0 0.20149887E+04</rscale>
<asrwt>0</asrwt>
<pdfrwt beam="1">  1        2 0.24135918E+00 0.20412760E+04</pdfrwt>
<pdfrwt beam="2">  1       -2 0.47591457E+00 0.20412760E+04</pdfrwt>
<totfact> 0.24048537E-02</totfact>
</mgrwt>
</event>
<event>
 4    5  0.2025789E-007  0.1079883E+04  0.7818608E-02  0.9283791E-01
         -2   -1    0    0    0  501 -0.00000000000E+00  0.00000000000E+00  0.19501146696E+04  0.19501146696E+04  0.25500000000E-02 0.  1.
          2   -1    0    0  501    0  0.00000000000E+00 -0.00000000000E+00 -0.10626037733E+04  0.10626037733E+04  0.25500000000E-02 0. -1.
    8880023    1    1    2    0    0 -0.71613811630E+03 -0.46849148707E+03 -0.63990551641E+03  0.12552399576E+04  0.65864270000E+03 0.  0.
    8880022    1    1    2    0    0  0.71613811630E+03  0.46849148707E+03  0.15274164127E+04  0.17574784852E+04  0.15294330000E+03 0.  0.
<mgrwt>
<rscale>  0 0.10228889E+04</rscale>
<asrwt>0</asrwt>
<pdfrwt beam="1">  1        2 0.16347750E+00 0.10798835E+04</pdfrwt>
<pdfrwt beam="2">  1       -2 0.30001764E+00 0.10798835E+04</pdfrwt>
<totfact> 0.72499895E-01</totfact>
</mgrwt>
</event>
<event>
 4    5  0.2025789E-007  0.8344350E+03  0.7818608E-02  0.9640764E-01
          2   -1    0    0  501    0  0.00000000000E+00  0.00000000000E+00  0.26018939618E+04  0.26018939618E+04  0.25500000000E-02 0. -1.
         -2   -1    0    0    0  501 -0.00000000000E+00 -0.00000000000E+00 -0.32209494535E+03  0.32209494536E+03  0.25500000000E-02 0.  1.
    8880023    1    1    2    0    0 -0.19069515049E+03  0.47550707679E+03  0.22370642981E+04  0.23876219342E+04  0.65864270000E+03 0.  0.
    8880022    1    1    2    0    0  0.19069515049E+03 -0.47550707679E+03  0.42734718319E+02  0.53636697295E+03  0.15294330000E+03 0.  0.
<mgrwt>
<rscale>  0 0.74655910E+03</rscale>
<asrwt>0</asrwt>
<pdfrwt beam="1">  1        2 0.40029137E+00 0.83443503E+03</pdfrwt>
<pdfrwt beam="2">  1       -2 0.49553070E-01 0.83443503E+03</pdfrwt>
<totfact> 0.12131342E+01</totfact>
</mgrwt>
</event>
<event>
 4    5  0.2025789E-007  0.7181772E+03  0.7818608E-02  0.9928803E-01
          2   -1    0    0  501    0  0.00000000000E+00  0.00000000000E+00  0.21777045529E+04  0.21777045529E+04  0.25500000000E-02 0. -1.
         -2   -1    0    0    0  501 -0.00000000000E+00 -0.00000000000E+00 -0.48369040341E+03  0.48369040342E+03  0.25500000000E-02 0.  1.
    8880023    1    1    2    0    0 -0.28308879218E+03  0.42766535458E+02  0.20544407880E+04  0.21763513959E+04  0.65864270000E+03 0. -1.
    8880022    1    1    2    0    0  0.28308879218E+03 -0.42766535458E+02 -0.36042663846E+03  0.48504356046E+03  0.15294330000E+03 0.  0.
<mgrwt>
<rscale>  0 0.58885465E+03</rscale>
<asrwt>0</asrwt>
<pdfrwt beam="1">  1        2 0.33503147E+00 0.71817717E+03</pdfrwt>
<pdfrwt beam="2">  1       -2 0.74413908E-01 0.71817717E+03</pdfrwt>
<totfact> 0.90278751E+00</totfact>
</mgrwt>
</event>
<event>
 4    5  0.2025789E-007  0.9855779E+03  0.7818608E-02  0.9400674E-01
          2   -1    0    0  501    0  0.00000000000E+00  0.00000000000E+00  0.20213420262E+04  0.20213420262E+04  0.25500000000E-02 0. -1.
         -2   -1    0    0    0  501 -0.00000000000E+00 -0.00000000000E+00 -0.39761673962E+03  0.39761673962E+03  0.25500000000E-02 0.  1.
    8880023    1    1    2    0    0 -0.10970555854E+03  0.72492639531E+03  0.12191716732E+04  0.15677191596E+04  0.65864270000E+03 0.  0.
    8880022    1    1    2    0    0  0.10970555854E+03 -0.72492639531E+03  0.40455361336E+03  0.85123960627E+03  0.15294330000E+03 0.  0.
<mgrwt>
<rscale>  0 0.92020222E+03</rscale>
<asrwt>0</asrwt>
<pdfrwt beam="1">  1        2 0.31097569E+00 0.98557790E+03</pdfrwt>
<pdfrwt beam="2">  1       -2 0.61171807E-01 0.98557790E+03</pdfrwt>
<totfact> 0.16247301E+01</totfact>
</mgrwt>
</event>
<event>
 4    5  0.2025789E-007  0.1229058E+04  0.7818608E-02  0.9129381E-01
          2   -1    0    0  501    0  0.00000000000E+00  0.00000000000E+00  0.15654985602E+04  0.15654985602E+04  0.25500000000E-02 0. -1.
         -2   -1    0    0    0  501 -0.00000000000E+00 -0.00000000000E+00 -0.12200670928E+04  0.12200670928E+04  0.25500000000E-02 0.  1.
    8880023    1    1    2    0    0  0.86789222838E+03  0.56880259126E+03 -0.60520382660E+03  0.13699836444E+04  0.65864270000E+03 0.  1.
    8880022    1    1    2    0    0 -0.86789222838E+03 -0.56880259126E+03  0.95063529399E+03  0.14155820086E+04  0.15294330000E+03 0.  0.
<mgrwt>
<rscale>  0 0.11813035E+04</rscale>
<asrwt>0</asrwt>
<pdfrwt beam="1">  1        2 0.24084593E+00 0.12290580E+04</pdfrwt>
<pdfrwt beam="2">  1       -2 0.18770263E+00 0.12290580E+04</pdfrwt>
<totfact> 0.18113781E+00</totfact>
</mgrwt>
</event>
<event>
 4    5  0.2025789E-007  0.1826524E+04  0.7818608E-02  0.8708004E-01
         -2   -1    0    0    0  501 -0.00000000000E+00  0.00000000000E+00  0.15577342939E+04  0.15577342939E+04  0.25500000000E-02 0.  1.
          2   -1    0    0  501    0  0.00000000000E+00 -0.00000000000E+00 -0.23399807443E+04  0.23399807443E+04  0.25500000000E-02 0. -1.
    8880023    1    1    2    0    0  0.45321587590E+03  0.16422471052E+04  0.33180981805E+03  0.18564180958E+04  0.65864270000E+03 0.  0.
    8880022    1    1    2    0    0 -0.45321587590E+03 -0.16422471052E+04 -0.11140562684E+04  0.20412969424E+04  0.15294330000E+03 0.  0.
<mgrwt>
<rscale>  0 0.17967974E+04</rscale>
<asrwt>0</asrwt>
<pdfrwt beam="1">  1        2 0.35999704E+00 0.18265241E+04</pdfrwt>
<pdfrwt beam="2">  1       -2 0.23965143E+00 0.18265241E+04</pdfrwt>
<totfact> 0.29021763E-01</totfact>
</mgrwt>
</event>
<event>
 4    5  0.2025789E-007  0.1571915E+04  0.7818608E-02  0.8860456E-01
         -2   -1    0    0    0  501 -0.00000000000E+00  0.00000000000E+00  0.97615938120E+03  0.97615938120E+03  0.25500000000E-02 0.  1.
          2   -1    0    0  501    0  0.00000000000E+00 -0.00000000000E+00 -0.32192286440E+04  0.32192286440E+04  0.25500000000E-02 0. -1.
    8880023    1    1    2    0    0  0.63080375840E+01  0.14272581026E+04 -0.22682937648E+04  0.27597232275E+04  0.65864270000E+03 0.  0.
    8880022    1    1    2    0    0 -0.63080375840E+01 -0.14272581026E+04  0.25224501989E+02  0.14356647977E+04  0.15294330000E+03 0.  0.
<mgrwt>
<rscale>  0 0.15366262E+04</rscale>
<asrwt>0</asrwt>
<pdfrwt beam="1">  1        2 0.49526594E+00 0.15719147E+04</pdfrwt>
<pdfrwt beam="2">  1       -2 0.15017837E+00 0.15719147E+04</pdfrwt>
<totfact> 0.35438084E-01</totfact>
</mgrwt>
</event>
<event>
 4    5  0.2025789E-007  0.9407032E+03  0.7818608E-02  0.9463618E-01
          2   -1    0    0  501    0  0.00000000000E+00  0.00000000000E+00  0.19218759575E+04  0.19218759575E+04  0.25500000000E-02 0. -1.
         -2   -1    0    0    0  501 -0.00000000000E+00 -0.00000000000E+00 -0.85988358961E+03  0.85988358961E+03  0.25500000000E-02 0.  1.
    8880023    1    1    2    0    0  0.54708983658E+03 -0.38962165265E+03  0.16346281443E+04  0.18859829527E+04  0.65864270000E+03 0. -1.
    8880022    1    1    2    0    0 -0.54708983658E+03  0.38962165265E+03 -0.57263577646E+03  0.89577659436E+03  0.15294330000E+03 0.  0.
<mgrwt>
<rscale>  0 0.87020075E+03</rscale>
<asrwt>0</asrwt>
<pdfrwt beam="1">  1        2 0.29567322E+00 0.94070321E+03</pdfrwt>
<pdfrwt beam="2">  1       -2 0.13228978E+00 0.94070321E+03</pdfrwt>
<totfact> 0.30837306E+00</totfact>
</mgrwt>
</event>
<event>
 4    5  0.2025789E-007  0.6658633E+03  0.7818608E-02  0.1018820E+00
         -2   -1    0    0    0  501 -0.00000000000E+00  0.00000000000E+00  0.36197920633E+03  0.36197920634E+03  0.25500000000E-02 0.  1.
          2   -1    0    0  501    0  0.00000000000E+00 -0.00000000000E+00 -0.13719855165E+04  0.13719855165E+04  0.25500000000E-02 0. -1.
    8880023    1    1    2    0    0  0.58277718924E+02  0.78532905545E+02 -0.12599343835E+04  0.14250644079E+04  0.65864270000E+03 0. -1.
    8880022    1    1    2    0    0 -0.58277718924E+02 -0.78532905545E+02  0.24992807326E+03  0.30890031498E+03  0.15294330000E+03 0.  0.
<mgrwt>
<rscale>  0 0.48114897E+03</rscale>
<asrwt>0</asrwt>
<pdfrwt beam="1">  1        2 0.21107469E+00 0.66586329E+03</pdfrwt>
<pdfrwt beam="2">  1       -2 0.55689109E-01 0.66586329E+03</pdfrwt>
<totfact> 0.46831648E+01</totfact>
</mgrwt>
</event>
<event>
 4    5  0.2025789E-007  0.1235686E+04  0.7818608E-02  0.9123190E-01
         -2   -1    0    0    0  501 -0.00000000000E+00  0.00000000000E+00  0.16646952259E+04  0.16646952259E+04  0.25500000000E-02 0.  1.
          2   -1    0    0  501    0  0.00000000000E+00 -0.00000000000E+00 -0.14201503648E+04  0.14201503648E+04  0.25500000000E-02 0. -1.
    8880023    1    1    2    0    0 -0.71198587656E+03  0.76562707427E+03 -0.89881322375E+03  0.15280000402E+04  0.65864270000E+03 0.  0.
    8880022    1    1    2    0    0  0.71198587656E+03 -0.76562707427E+03  0.11433580848E+04  0.15568455506E+04  0.15294330000E+03 0.  0.
<mgrwt>
<rscale>  0 0.11882651E+04</rscale>
<asrwt>0</asrwt>
<pdfrwt beam="1">  1        2 0.21848467E+00 0.12356856E+04</pdfrwt>
<pdfrwt beam="2">  1       -2 0.25610696E+00 0.12356856E+04</pdfrwt>
<totfact> 0.80403563E-01</totfact>
</mgrwt>
</event>
<event>
 4    5  0.2025789E-007  0.8888618E+03  0.7818608E-02  0.9544154E-01
          2   -1    0    0  501    0  0.00000000000E+00  0.00000000000E+00  0.13856890819E+04  0.13856890819E+04  0.25500000000E-02 0. -1.
         -2   -1    0    0    0  501 -0.00000000000E+00 -0.00000000000E+00 -0.79067320994E+03  0.79067320994E+03  0.25500000000E-02 0.  1.
    8880023    1    1    2    0    0 -0.59295755762E+03  0.68311352024E+02 -0.42456966276E+03  0.98505568916E+03  0.65864270000E+03 0.  1.
    8880022    1    1    2    0    0  0.59295755762E+03 -0.68311352024E+02  0.10195855347E+04  0.11913066027E+04  0.15294330000E+03 0.  0.
<mgrwt>
<rscale>  0 0.81105364E+03</rscale>
<asrwt>0</asrwt>
<pdfrwt beam="1">  1        2 0.21318293E+00 0.88886181E+03</pdfrwt>
<pdfrwt beam="2">  1       -2 0.12164203E+00 0.88886181E+03</pdfrwt>
<totfact> 0.76096868E+00</totfact>
</mgrwt>
</event>
<event>
 4    5  0.2025789E-007  0.7005020E+03  0.7818608E-02  0.9995125E-01
          2   -1    0    0  501    0  0.00000000000E+00  0.00000000000E+00  0.18156491552E+04  0.18156491552E+04  0.25500000000E-02 0. -1.
         -2   -1    0    0    0  501 -0.00000000000E+00 -0.00000000000E+00 -0.16122561530E+03  0.16122561532E+03  0.25500000000E-02 0.  1.
    8880023    1    1    2    0    0 -0.26043353656E+02  0.23709617951E+03  0.14968706614E+04  0.16526720297E+04  0.65864270000E+03 0.  0.
    8880022    1    1    2    0    0  0.26043353656E+02 -0.23709617951E+03  0.15755287849E+03  0.32420274080E+03  0.15294330000E+03 0.  0.
<mgrwt>
<rscale>  0 0.55864512E+03</rscale>
<asrwt>0</asrwt>
<pdfrwt beam="1">  1        2 0.27933063E+00 0.70050201E+03</pdfrwt>
<pdfrwt beam="2">  1       -2 0.24803942E-01 0.70050201E+03</pdfrwt>
<totfact> 0.12626456E+02</totfact>
</mgrwt>
</event>
<event>
 4    5  0.2025789E-007  0.6930474E+03  0.7818608E-02  0.1002737E+00
         -2   -1    0    0    0  501 -0.00000000000E+00  0.00000000000E+00  0.59651420487E+03  0.59651420487E+03  0.25500000000E-02 0.  1.
          2   -1    0    0  501    0  0.00000000000E+00 -0.00000000000E+00 -0.42706690454E+03  0.42706690455E+03  0.25500000000E-02 0. -1.
    8880023    1    1    2    0    0  0.22195481959E+02  0.21450366432E+03 -0.27994205607E+02  0.69361253106E+03  0.65864270000E+03 0.  0.
    8880022    1    1    2    0    0 -0.22195481959E+02 -0.21450366432E+03  0.19744150593E+03  0.32996857836E+03  0.15294330000E+03 0.  0.
<mgrwt>
<rscale>  0 0.54466419E+03</rscale>
<asrwt>0</asrwt>
<pdfrwt beam="1">  1        2 0.65702601E-01 0.69304738E+03</pdfrwt>
<pdfrwt beam="2">  1       -2 0.91771416E-01 0.69304738E+03</pdfrwt>
<totfact> 0.75644659E+01</totfact>
</mgrwt>
</event>
<event>
 4    5  0.2025789E-007  0.7015896E+03  0.7818608E-02  0.9990670E-01
          2   -1    0    0  501    0  0.00000000000E+00  0.00000000000E+00  0.18648684847E+04  0.18648684847E+04  0.25500000000E-02 0. -1.
         -2   -1    0    0    0  501 -0.00000000000E+00 -0.00000000000E+00 -0.13077353030E+03  0.13077353033E+03  0.25500000000E-02 0.  1.
    8880023    1    1    2    0    0 -0.13043977031E+03  0.20347787818E+03  0.12217090182E+04  0.14088296249E+04  0.65864270000E+03 0. -1.
    8880022    1    1    2    0    0  0.13043977031E+03 -0.20347787818E+03  0.51238593624E+03  0.58681239017E+03  0.15294330000E+03 0.  1.
<mgrwt>
<rscale>  0 0.56061251E+03</rscale>
<asrwt>0</asrwt>
<pdfrwt beam="1">  1        2 0.28690281E+00 0.70158961E+03</pdfrwt>
<pdfrwt beam="2">  1       -2 0.20119007E-01 0.70158961E+03</pdfrwt>
<totfact> 0.17209875E+02</totfact>
</mgrwt>
</event>
<event>
 4    5  0.2025789E-007  0.7286296E+03  0.7818608E-02  0.9894399E-01
         -2   -1    0    0    0  501 -0.00000000000E+00  0.00000000000E+00  0.33796462394E+03  0.33796462395E+03  0.25500000000E-02 0.  1.
          2   -1    0    0  501    0  0.00000000000E+00 -0.00000000000E+00 -0.11754229466E+04  0.11754229466E+04  0.25500000000E-02 0. -1.
    8880023    1    1    2    0    0 -0.27744464303E+03 -0.14182870344E+03 -0.90283585459E+03  0.11601783043E+04  0.65864270000E+03 0. -1.
    8880022    1    1    2    0    0  0.27744464303E+03  0.14182870344E+03  0.65377531971E+02  0.35320926625E+03  0.15294330000E+03 0.  0.
<mgrwt>
<rscale>  0 0.60533480E+03</rscale>
<asrwt>0</asrwt>
<pdfrwt beam="1">  1        2 0.18083430E+00 0.72862962E+03</pdfrwt>
<pdfrwt beam="2">  1       -2 0.51994558E-01 0.72862962E+03</pdfrwt>
<totfact> 0.69693512E+01</totfact>
</mgrwt>
</event>
<event>
 4    5  0.2025789E-007  0.1044039E+04  0.7818608E-02  0.9326081E-01
         -2   -1    0    0    0  501 -0.00000000000E+00  0.00000000000E+00  0.81502540769E+03  0.81502540770E+03  0.25500000000E-02 0.  1.
          2   -1    0    0  501    0  0.00000000000E+00 -0.00000000000E+00 -0.18369558818E+04  0.18369558818E+04  0.25500000000E-02 0. -1.
    8880023    1    1    2    0    0 -0.30380315860E+03  0.75094049926E+03 -0.13988613980E+04  0.17455175191E+04  0.65864270000E+03 0. -1.
    8880022    1    1    2    0    0  0.30380315860E+03 -0.75094049926E+03  0.37693092387E+03  0.90646377037E+03  0.15294330000E+03 0.  0.
<mgrwt>
<rscale>  0 0.98416813E+03</rscale>
<asrwt>0</asrwt>
<pdfrwt beam="1">  1        2 0.28260860E+00 0.10440394E+04</pdfrwt>
<pdfrwt beam="2">  1       -2 0.12538852E+00 0.10440394E+04</pdfrwt>
<totfact> 0.38823766E+00</totfact>
</mgrwt>
</event>
<event>
 4    5  0.2025789E-007  0.1574695E+04  0.7818608E-02  0.8858616E-01
          2   -1    0    0  501    0  0.00000000000E+00  0.00000000000E+00  0.27196976557E+04  0.27196976557E+04  0.25500000000E-02 0. -1.
         -2   -1    0    0    0  501 -0.00000000000E+00 -0.00000000000E+00 -0.95165561924E+03  0.95165561924E+03  0.25500000000E-02 0.  1.
    8880023    1    1    2    0    0  0.10121884461E+03 -0.14267477672E+04  0.15623341327E+04  0.22182318621E+04  0.65864270000E+03 0.  0.
    8880022    1    1    2    0    0 -0.10121884461E+03  0.14267477672E+04  0.20570790377E+03  0.14531214128E+04  0.15294330000E+03 0.  0.
<mgrwt>
<rscale>  0 0.15394794E+04</rscale>
<asrwt>0</asrwt>
<pdfrwt beam="1">  1        2 0.41841501E+00 0.15746951E+04</pdfrwt>
<pdfrwt beam="2">  1       -2 0.14640856E+00 0.15746951E+04</pdfrwt>
<totfact> 0.77534648E-01</totfact>
</mgrwt>
</event>
<event>
 4    5  0.2025789E-007  0.8130222E+03  0.7818608E-02  0.9683316E-01
          2   -1    0    0  501    0  0.00000000000E+00  0.00000000000E+00  0.14950357232E+04  0.14950357232E+04  0.25500000000E-02 0. -1.
         -2   -1    0    0    0  501 -0.00000000000E+00 -0.00000000000E+00 -0.56489344483E+03  0.56489344483E+03  0.25500000000E-02 0.  1.
    8880023    1    1    2    0    0  0.46166203100E+03  0.11858791029E+03  0.12314730853E+04  0.14756459905E+04  0.65864270000E+03 0. -1.
    8880022    1    1    2    0    0 -0.46166203100E+03 -0.11858791029E+03 -0.30133080689E+03  0.58428317752E+03  0.15294330000E+03 0.  0.
<mgrwt>
<rscale>  0 0.72018909E+03</rscale>
<asrwt>0</asrwt>
<pdfrwt beam="1">  1        2 0.23000549E+00 0.81302222E+03</pdfrwt>
<pdfrwt beam="2">  1       -2 0.86906684E-01 0.81302222E+03</pdfrwt>
<totfact> 0.14872188E+01</totfact>
</mgrwt>
</event>
<event>
 4    5  0.2025789E-007  0.9705434E+03  0.7818608E-02  0.9421153E-01
         -2   -1    0    0    0  501 -0.00000000000E+00  0.00000000000E+00  0.60090414586E+03  0.60090414587E+03  0.25500000000E-02 0.  1.
          2   -1    0    0  501    0  0.00000000000E+00 -0.00000000000E+00 -0.20949885301E+04  0.20949885301E+04  0.25500000000E-02 0. -1.
    8880023    1    1    2    0    0 -0.52655751146E+03 -0.48050129931E+03 -0.16829610622E+04  0.19427589800E+04  0.65864270000E+03 0.  0.
    8880022    1    1    2    0    0  0.52655751146E+03  0.48050129931E+03  0.18887667789E+03  0.75313369595E+03  0.15294330000E+03 0.  0.
<mgrwt>
<rscale>  0 0.90355128E+03</rscale>
<asrwt>0</asrwt>
<pdfrwt beam="1">  1        2 0.32230592E+00 0.97054341E+03</pdfrwt>
<pdfrwt beam="2">  1       -2 0.92446793E-01 0.97054341E+03</pdfrwt>
<totfact> 0.59090545E+00</totfact>
</mgrwt>
</event>
<event>
 4    5  0.2025789E-007  0.9299372E+03  0.7818608E-02  0.9479587E-01
          2   -1    0    0  501    0  0.00000000000E+00  0.00000000000E+00  0.23527420277E+04  0.23527420277E+04  0.25500000000E-02 0. -1.
         -2   -1    0    0    0  501 -0.00000000000E+00 -0.00000000000E+00 -0.43558552208E+03  0.43558552209E+03  0.25500000000E-02 0.  1.
    8880023    1    1    2    0    0 -0.33112636394E+03  0.56685832180E+03  0.18984798585E+04  0.21140030760E+04  0.65864270000E+03 0. -1.
    8880022    1    1    2    0    0  0.33112636394E+03 -0.56685832180E+03  0.18676647185E+02  0.67432447387E+03  0.15294330000E+03 0.  0.
<mgrwt>
<rscale>  0 0.85805632E+03</rscale>
<asrwt>0</asrwt>
<pdfrwt beam="1">  1        2 0.36196031E+00 0.92993722E+03</pdfrwt>
<pdfrwt beam="2">  1       -2 0.67013157E-01 0.92993722E+03</pdfrwt>
<totfact> 0.87996075E+00</totfact>
</mgrwt>
</event>
<event>
 4    5  0.2025789E-007  0.8914900E+03  0.7818608E-02  0.9539833E-01
         -2   -1    0    0    0  501 -0.00000000000E+00  0.00000000000E+00  0.11294676832E+04  0.11294676832E+04  0.25500000000E-02 0.  1.
          2   -1    0    0  501    0  0.00000000000E+00 -0.00000000000E+00 -0.97280925443E+03  0.97280925443E+03  0.25500000000E-02 0. -1.
    8880023    1    1    2    0    0 -0.59745762258E+03 -0.63155403992E+02 -0.63663724101E+03  0.10954731392E+04  0.65864270000E+03 0.  0.
    8880022    1    1    2    0    0  0.59745762258E+03  0.63155403992E+02  0.79329566980E+03  0.10068037985E+04  0.15294330000E+03 0.  1.
<mgrwt>
<rscale>  0 0.81409713E+03</rscale>
<asrwt>0</asrwt>
<pdfrwt beam="1">  1        2 0.14966296E+00 0.89149000E+03</pdfrwt>
<pdfrwt beam="2">  1       -2 0.17376426E+00 0.89149000E+03</pdfrwt>
<totfact> 0.52723364E+00</totfact>
</mgrwt>
</event>
<event>
 4    5  0.2025789E-007  0.1155710E+04  0.7818608E-02  0.9201426E-01
         -2   -1    0    0    0  501 -0.00000000000E+00  0.00000000000E+00  0.36416563576E+03  0.36416563577E+03  0.25500000000E-02 0.  1.
          2   -1    0    0  501    0  0.00000000000E+00 -0.00000000000E+00 -0.32370482688E+04  0.32370482688E+04  0.25500000000E-02 0. -1.
    8880023    1    1    2    0    0 -0.93960941195E+03  0.13780026772E+03 -0.19584411630E+04  0.22740177563E+04  0.65864270000E+03 0. -1.
    8880022    1    1    2    0    0  0.93960941195E+03 -0.13780026772E+03 -0.91444147003E+03  0.13271961483E+04  0.15294330000E+03 0.  1.
<mgrwt>
<rscale>  0 0.11038721E+04</rscale>
<asrwt>0</asrwt>
<pdfrwt beam="1">  1        2 0.49800741E+00 0.11557097E+04</pdfrwt>
<pdfrwt beam="2">  1       -2 0.56025485E-01 0.11557097E+04</pdfrwt>
<totfact> 0.36943823E+00</totfact>
</mgrwt>
</event>
<event>
 4    5  0.2025789E-007  0.1288498E+04  0.7818608E-02  0.9075557E-01
         -2   -1    0    0    0  501 -0.00000000000E+00  0.00000000000E+00  0.15689107353E+04  0.15689107353E+04  0.25500000000E-02 0.  1.
          2   -1    0    0  501    0  0.00000000000E+00 -0.00000000000E+00 -0.92330596079E+03  0.92330596079E+03  0.25500000000E-02 0. -1.
    8880023    1    1    2    0    0 -0.17682286105E+03  0.10932290166E+04  0.31574410927E+03  0.13266199741E+04  0.65864270000E+03 0. -1.
    8880022    1    1    2    0    0  0.17682286105E+03 -0.10932290166E+04  0.32986066529E+03  0.11655967220E+04  0.15294330000E+03 0.  1.
<mgrwt>
<rscale>  0 0.12435639E+04</rscale>
<asrwt>0</asrwt>
<pdfrwt beam="1">  1        2 0.14204707E+00 0.12884977E+04</pdfrwt>
<pdfrwt beam="2">  1       -2 0.24137088E+00 0.12884977E+04</pdfrwt>
<totfact> 0.19852601E+00</totfact>
</mgrwt>
</event>
<event>
 4    5  0.2025789E-007  0.2107255E+04  0.7818608E-02  0.8569275E-01
         -2   -1    0    0    0  501 -0.00000000000E+00  0.00000000000E+00  0.15775629528E+04  0.15775629528E+04  0.25500000000E-02 0.  1.
          2   -1    0    0  501    0  0.00000000000E+00 -0.00000000000E+00 -0.35557563560E+04  0.35557563560E+04  0.25500000000E-02 0. -1.
    8880023    1    1    2    0    0  0.83133694852E+03 -0.18208768063E+04 -0.22783974727E+04  0.31034849308E+04  0.65864270000E+03 0.  0.
    8880022    1    1    2    0    0 -0.83133694852E+03  0.18208768063E+04  0.30020406946E+03  0.20298343780E+04  0.15294330000E+03 0.  0.
<mgrwt>
<rscale>  0 0.20818641E+04</rscale>
<asrwt>0</asrwt>
<pdfrwt beam="1">  1        2 0.54703944E+00 0.21072550E+04</pdfrwt>
<pdfrwt beam="2">  1       -2 0.24270199E+00 0.21072550E+04</pdfrwt>
<totfact> 0.46530893E-02</totfact>
</mgrwt>
</event>
<event>
 4    5  0.2025789E-007  0.8385320E+03  0.7818608E-02  0.9632955E-01
         -2   -1    0    0    0  501 -0.00000000000E+00  0.00000000000E+00  0.20636073151E+04  0.20636073151E+04  0.25500000000E-02 0.  1.
          2   -1    0    0  501    0  0.00000000000E+00 -0.00000000000E+00 -0.10620636723E+04  0.10620636723E+04  0.25500000000E-02 0. -1.
    8880023    1    1    2    0    0  0.51244691397E+03 -0.81998734122E+02 -0.85161443592E+03  0.11951497755E+04  0.65864270000E+03 0.  0.
    8880022    1    1    2    0    0 -0.51244691397E+03  0.81998734122E+02  0.18531580787E+04  0.19305212120E+04  0.15294330000E+03 0.  0.
<mgrwt>
<rscale>  0 0.75152903E+03</rscale>
<asrwt>0</asrwt>
<pdfrwt beam="1">  1        2 0.16339441E+00 0.83853195E+03</pdfrwt>
<pdfrwt beam="2">  1       -2 0.31747804E+00 0.83853195E+03</pdfrwt>
<totfact> 0.59024400E-01</totfact>
</mgrwt>
</event>
<event>
 4    5  0.2025789E-007  0.9318613E+03  0.7818608E-02  0.9476707E-01
         -2   -1    0    0    0  501 -0.00000000000E+00  0.00000000000E+00  0.22348949199E+03  0.22348949201E+03  0.25500000000E-02 0.  1.
          2   -1    0    0  501    0  0.00000000000E+00 -0.00000000000E+00 -0.43854404089E+04  0.43854404089E+04  0.25500000000E-02 0. -1.
    8880023    1    1    2    0    0  0.53545777486E+03  0.38449992730E+03 -0.36313165928E+04  0.37489766105E+04  0.65864270000E+03 0. -1.
    8880022    1    1    2    0    0 -0.53545777486E+03 -0.38449992730E+03 -0.53063432414E+03  0.85995329043E+03  0.15294330000E+03 0.  0.
<mgrwt>
<rscale>  0 0.86023149E+03</rscale>
<asrwt>0</asrwt>
<pdfrwt beam="1">  1        2 0.67468308E+00 0.93186127E+03</pdfrwt>
<pdfrwt beam="2">  1       -2 0.34383002E-01 0.93186127E+03</pdfrwt>
<totfact> 0.13616796E+00</totfact>
</mgrwt>
</event>
<event>
 4    5  0.2025789E-007  0.1117172E+04  0.7818608E-02  0.9242174E-01
         -2   -1    0    0    0  501 -0.00000000000E+00  0.00000000000E+00  0.10750121871E+04  0.10750121871E+04  0.25500000000E-02 0.  1.
          2   -1    0    0  501    0  0.00000000000E+00 -0.00000000000E+00 -0.41947393165E+04  0.41947393165E+04  0.25500000000E-02 0. -1.
    8880023    1    1    2    0    0 -0.31260474916E+02  0.90182351553E+03 -0.39063283851E+04  0.40629391491E+04  0.65864270000E+03 0. -1.
    8880022    1    1    2    0    0  0.31260474916E+02 -0.90182351553E+03  0.78660125569E+03  0.12068123545E+04  0.15294330000E+03 0.  0.
<mgrwt>
<rscale>  0 0.10628528E+04</rscale>
<asrwt>0</asrwt>
<pdfrwt beam="1">  1        2 0.64534450E+00 0.11171719E+04</pdfrwt>
<pdfrwt beam="2">  1       -2 0.16538649E+00 0.11171719E+04</pdfrwt>
<totfact> 0.55640406E-02</totfact>
</mgrwt>
</event>
<event>
 4    5  0.2025789E-007  0.7388120E+03  0.7818608E-02  0.9863421E-01
          2   -1    0    0  501    0  0.00000000000E+00  0.00000000000E+00  0.91327341930E+03  0.91327341930E+03  0.25500000000E-02 0. -1.
         -2   -1    0    0    0  501 -0.00000000000E+00 -0.00000000000E+00 -0.12945619961E+04  0.12945619961E+04  0.25500000000E-02 0.  1.
    8880023    1    1    2    0    0  0.32545459448E+03 -0.78180957140E+02  0.72913708618E+03  0.10380192926E+04  0.65864270000E+03 0. -1.
    8880022    1    1    2    0    0 -0.32545459448E+03  0.78180957140E+02 -0.11104256630E+04  0.11698161228E+04  0.15294330000E+03 0.  0.
<mgrwt>
<rscale>  0 0.62067271E+03</rscale>
<asrwt>0</asrwt>
<pdfrwt beam="1">  1        2 0.14050360E+00 0.73881199E+03</pdfrwt>
<pdfrwt beam="2">  1       -2 0.19916339E+00 0.73881199E+03</pdfrwt>
<totfact> 0.39640895E+00</totfact>
</mgrwt>
</event>
<event>
 4    5  0.2025789E-007  0.6621646E+03  0.7818608E-02  0.1022041E+00
          2   -1    0    0  501    0  0.00000000000E+00  0.00000000000E+00  0.11856432982E+03  0.11856432985E+03  0.25500000000E-02 0. -1.
         -2   -1    0    0    0  501 -0.00000000000E+00 -0.00000000000E+00 -0.15478356576E+04  0.15478356576E+04  0.25500000000E-02 0.  1.
    8880023    1    1    2    0    0 -0.62558919058E+02 -0.27168655717E+02 -0.12840953486E+04  0.14447708555E+04  0.65864270000E+03 0.  0.
    8880022    1    1    2    0    0  0.62558919058E+02  0.27168655717E+02 -0.14517597919E+03  0.22162913201E+03  0.15294330000E+03 0.  0.
<mgrwt>
<rscale>  0 0.46957322E+03</rscale>
<asrwt>0</asrwt>
<pdfrwt beam="1">  1        2 0.18240667E-01 0.66216460E+03</pdfrwt>
<pdfrwt beam="2">  1       -2 0.23812855E+00 0.66216460E+03</pdfrwt>
<totfact> 0.24866487E+01</totfact>
</mgrwt>
</event>
<event>
 4    5  0.2025789E-007  0.1320368E+04  0.7818608E-02  0.9048167E-01
          2   -1    0    0  501    0  0.00000000000E+00  0.00000000000E+00  0.35416365743E+04  0.35416365743E+04  0.25500000000E-02 0. -1.
         -2   -1    0    0    0  501 -0.00000000000E+00 -0.00000000000E+00 -0.52097157185E+03  0.52097157186E+03  0.25500000000E-02 0.  1.
    8880023    1    1    2    0    0  0.59182749993E+03  0.97943960258E+03  0.24304725094E+04  0.27659661151E+04  0.65864270000E+03 0.  0.
    8880022    1    1    2    0    0 -0.59182749993E+03 -0.97943960258E+03  0.59019249305E+03  0.12966420310E+04  0.15294330000E+03 0.  0.
<mgrwt>
<rscale>  0 0.12768008E+04</rscale>
<asrwt>0</asrwt>
<pdfrwt beam="1">  1        2 0.54486717E+00 0.13203681E+04</pdfrwt>
<pdfrwt beam="2">  1       -2 0.80149473E-01 0.13203681E+04</pdfrwt>
<totfact> 0.10335525E+00</totfact>
</mgrwt>
</event>
<event>
 4    5  0.2025789E-007  0.9593368E+03  0.7818608E-02  0.9436806E-01
          2   -1    0    0  501    0  0.00000000000E+00  0.00000000000E+00  0.20104891020E+04  0.20104891020E+04  0.25500000000E-02 0. -1.
         -2   -1    0    0    0  501 -0.00000000000E+00 -0.00000000000E+00 -0.61712065054E+03  0.61712065055E+03  0.25500000000E-02 0.  1.
    8880023    1    1    2    0    0  0.67152999175E+03 -0.18858530623E+03  0.16162818463E+04  0.18795462645E+04  0.65864270000E+03 0.  0.
    8880022    1    1    2    0    0 -0.67152999175E+03  0.18858530623E+03 -0.22291339482E+03  0.74806348805E+03  0.15294330000E+03 0.  0.
<mgrwt>
<rscale>  0 0.89107627E+03</rscale>
<asrwt>0</asrwt>
<pdfrwt beam="1">  1        2 0.30930601E+00 0.95933683E+03</pdfrwt>
<pdfrwt beam="2">  1       -2 0.94941640E-01 0.95933683E+03</pdfrwt>
<totfact> 0.61896944E+00</totfact>
</mgrwt>
</event>
<event>
 4    5  0.2025789E-007  0.8970457E+03  0.7818608E-02  0.9530791E-01
         -2   -1    0    0    0  501 -0.00000000000E+00  0.00000000000E+00  0.64894509637E+03  0.64894509638E+03  0.25500000000E-02 0.  1.
          2   -1    0    0  501    0  0.00000000000E+00 -0.00000000000E+00 -0.21329994129E+04  0.21329994129E+04  0.25500000000E-02 0. -1.
    8880023    1    1    2    0    0 -0.52818058137E+03  0.30316021241E+03 -0.18494049708E+04  0.20554779962E+04  0.65864270000E+03 0.  0.
    8880022    1    1    2    0    0  0.52818058137E+03 -0.30316021241E+03  0.36535065426E+03  0.72646651300E+03  0.15294330000E+03 0.  0.
<mgrwt>
<rscale>  0 0.82051306E+03</rscale>
<asrwt>0</asrwt>
<pdfrwt beam="1">  1        2 0.32815375E+00 0.89704573E+03</pdfrwt>
<pdfrwt beam="2">  1       -2 0.99837708E-01 0.89704573E+03</pdfrwt>
<totfact> 0.47448222E+00</totfact>
</mgrwt>
</event>
<event>
 4    5  0.2025789E-007  0.1453807E+04  0.7818608E-02  0.8942962E-01
         -2   -1    0    0    0  501 -0.00000000000E+00  0.00000000000E+00  0.31783653273E+04  0.31783653273E+04  0.25500000000E-02 0.  1.
          2   -1    0    0  501    0  0.00000000000E+00 -0.00000000000E+00 -0.12092249716E+04  0.12092249716E+04  0.25500000000E-02 0. -1.
    8880023    1    1    2    0    0  0.12766493186E+04  0.22340976045E+03 -0.54686609127E+03  0.15532604842E+04  0.65864270000E+03 0.  0.
    8880022    1    1    2    0    0 -0.12766493186E+04 -0.22340976045E+03  0.25160064470E+04  0.28343298146E+04  0.15294330000E+03 0.  0.
<mgrwt>
<rscale>  0 0.14150974E+04</rscale>
<asrwt>0</asrwt>
<pdfrwt beam="1">  1        2 0.18603461E+00 0.14538073E+04</pdfrwt>
<pdfrwt beam="2">  1       -2 0.48897928E+00 0.14538073E+04</pdfrwt>
<totfact> 0.34174267E-02</totfact>
</mgrwt>
</event>
