<event>
 4    5  0.1905771E-007  0.9366123E+03  0.7818608E-02  0.9469643E-01
         -2   -1    0    0    0  501 -0.00000000000E+00  0.00000000000E+00  0.94713003961E+03  0.94713003961E+03  0.25500000000E-02 0.  1.
          2   -1    0    0  501    0  0.00000000000E+00 -0.00000000000E+00 -0.80102474722E+03  0.80102474723E+03  0.25500000000E-02 0. -1.
    8880023    1    1    2    0    0 -0.58945124752E+03  0.30980576434E+03 -0.23522602646E+03  0.96569864585E+03  0.65864270000E+03 0. -1.
    8880022    1    1    2    0    0  0.58945124752E+03 -0.30980576434E+03  0.38133131884E+03  0.78245614099E+03  0.15294330000E+03 0.  1.
<mgrwt>
<rscale>  0 0.86559361E+03</rscale>
<asrwt>0</asrwt>
<pdfrwt beam="1">  1        2 0.12323458E+00 0.93661229E+03</pdfrwt>
<pdfrwt beam="2">  1       -2 0.14571231E+00 0.93661229E+03</pdfrwt>
<totfact> 0.11095238E+01</totfact>
</mgrwt>
</event>
<event>
 4    5  0.1905771E-007  0.8582788E+03  0.7818608E-02  0.9596633E-01
         -2   -1    0    0    0  501 -0.00000000000E+00  0.00000000000E+00  0.47713704299E+03  0.47713704300E+03  0.25500000000E-02 0.  1.
          2   -1    0    0  501    0  0.00000000000E+00 -0.00000000000E+00 -0.21558774182E+04  0.21558774182E+04  0.25500000000E-02 0. -1.
    8880023    1    1    2    0    0 -0.19936173643E+03 -0.51292019655E+03 -0.18477640862E+04  0.20373695184E+04  0.65864270000E+03 0. -1.
    8880022    1    1    2    0    0  0.19936173643E+03  0.51292019655E+03  0.16902371100E+03  0.59564494279E+03  0.15294330000E+03 0.  0.
<mgrwt>
<rscale>  0 0.77519461E+03</rscale>
<asrwt>0</asrwt>
<pdfrwt beam="1">  1        2 0.33167344E+00 0.85827876E+03</pdfrwt>
<pdfrwt beam="2">  1       -2 0.73405700E-01 0.85827876E+03</pdfrwt>
<totfact> 0.93658671E+00</totfact>
</mgrwt>
</event>
<event>
 4    5  0.1905771E-007  0.7462807E+03  0.7818608E-02  0.9842015E-01
          2   -1    0    0  501    0  0.00000000000E+00  0.00000000000E+00  0.13147447756E+04  0.13147447756E+04  0.25500000000E-02 0. -1.
         -2   -1    0    0    0  501 -0.00000000000E+00 -0.00000000000E+00 -0.45198088729E+03  0.45198088730E+03  0.25500000000E-02 0.  1.
    8880023    1    1    2    0    0  0.29320850184E+03 -0.19275249263E+03  0.10904375238E+04  0.13213587509E+04  0.65864270000E+03 0. -1.
    8880022    1    1    2    0    0 -0.29320850184E+03  0.19275249263E+03 -0.22767363552E+03  0.44536691198E+03  0.15294330000E+03 0.  0.
<mgrwt>
<rscale>  0 0.63155686E+03</rscale>
<asrwt>0</asrwt>
<pdfrwt beam="1">  1        2 0.20226843E+00 0.74628075E+03</pdfrwt>
<pdfrwt beam="2">  1       -2 0.69535520E-01 0.74628075E+03</pdfrwt>
<totfact> 0.31201644E+01</totfact>
</mgrwt>
</event>
<event>
 4    5  0.1905771E-007  0.8121652E+03  0.7818608E-02  0.9685084E-01
          2   -1    0    0  501    0  0.00000000000E+00  0.00000000000E+00  0.75020003829E+03  0.75020003830E+03  0.25500000000E-02 0. -1.
         -2   -1    0    0    0  501 -0.00000000000E+00 -0.00000000000E+00 -0.91276739687E+03  0.91276739688E+03  0.25500000000E-02 0.  1.
    8880023    1    1    2    0    0  0.43358975381E+03 -0.19442732767E+03  0.40463356628E+03  0.90738117105E+03  0.65864270000E+03 0. -1.
    8880022    1    1    2    0    0 -0.43358975381E+03  0.19442732767E+03 -0.56720092486E+03  0.75558626412E+03  0.15294330000E+03 0.  0.
<mgrwt>
<rscale>  0 0.71911841E+03</rscale>
<asrwt>0</asrwt>
<pdfrwt beam="1">  1        2 0.11541539E+00 0.81216517E+03</pdfrwt>
<pdfrwt beam="2">  1       -2 0.14042575E+00 0.81216517E+03</pdfrwt>
<totfact> 0.13475209E+01</totfact>
</mgrwt>
</event>
<event>
 4    5  0.1905771E-007  0.6857786E+03  0.7818608E-02  0.1006227E+00
          2   -1    0    0  501    0  0.00000000000E+00  0.00000000000E+00  0.33931851786E+04  0.33931851786E+04  0.25500000000E-02 0. -1.
         -2   -1    0    0    0  501 -0.00000000000E+00 -0.00000000000E+00 -0.10909906407E+03  0.10909906410E+03  0.25500000000E-02 0.  1.
    8880023    1    1    2    0    0  0.55753217305E+02 -0.18268448977E+03  0.31489451214E+04  0.32227546645E+04  0.65864270000E+03 0. -1.
    8880022    1    1    2    0    0 -0.55753217305E+02  0.18268448977E+03  0.13514099319E+03  0.27952957822E+03  0.15294330000E+03 0.  0.
<mgrwt>
<rscale>  0 0.53002023E+03</rscale>
<asrwt>0</asrwt>
<pdfrwt beam="1">  1        2 0.52202846E+00 0.68577857E+03</pdfrwt>
<pdfrwt beam="2">  1       -2 0.16784472E-01 0.68577857E+03</pdfrwt>
<totfact> 0.30200203E+01</totfact>
</mgrwt>
</event>
<event>
 4    5  0.1905771E-007  0.1405278E+04  0.7818608E-02  0.8979593E-01
          2   -1    0    0  501    0  0.00000000000E+00  0.00000000000E+00  0.23847922908E+04  0.23847922908E+04  0.25500000000E-02 0. -1.
         -2   -1    0    0    0  501 -0.00000000000E+00 -0.00000000000E+00 -0.12102750009E+04  0.12102750009E+04  0.25500000000E-02 0.  1.
    8880023    1    1    2    0    0  0.87774415488E+03 -0.87781562835E+03 -0.51176158147E+03  0.14955618347E+04  0.65864270000E+03 0.  0.
    8880022    1    1    2    0    0 -0.87774415488E+03  0.87781562835E+03  0.16862788714E+04  0.20995054570E+04  0.15294330000E+03 0.  0.
<mgrwt>
<rscale>  0 0.13649433E+04</rscale>
<asrwt>0</asrwt>
<pdfrwt beam="1">  1        2 0.36689112E+00 0.14052777E+04</pdfrwt>
<pdfrwt beam="2">  1       -2 0.18619615E+00 0.14052777E+04</pdfrwt>
<totfact> 0.63385615E-01</totfact>
</mgrwt>
</event>
<event>
 4    5  0.1905771E-007  0.6629861E+03  0.7818608E-02  0.1021286E+00
          2   -1    0    0  501    0  0.00000000000E+00  0.00000000000E+00  0.25338744158E+04  0.25338744158E+04  0.25500000000E-02 0. -1.
         -2   -1    0    0    0  501 -0.00000000000E+00 -0.00000000000E+00 -0.20658001838E+03  0.20658001840E+03  0.25500000000E-02 0.  1.
    8880023    1    1    2    0    0 -0.71773353658E+02 -0.24268408126E+02  0.24448883208E+04  0.25331856382E+04  0.65864270000E+03 0. -1.
    8880022    1    1    2    0    0  0.71773353658E+02  0.24268408126E+02 -0.11759392346E+03  0.20726879596E+03  0.15294330000E+03 0.  0.
<mgrwt>
<rscale>  0 0.47225292E+03</rscale>
<asrwt>0</asrwt>
<pdfrwt beam="1">  1        2 0.38982682E+00 0.66298611E+03</pdfrwt>
<pdfrwt beam="2">  1       -2 0.31781542E-01 0.66298611E+03</pdfrwt>
<totfact> 0.32382678E+01</totfact>
</mgrwt>
</event>
<event>
 4    5  0.1905771E-007  0.7957169E+03  0.7818608E-02  0.9720135E-01
         -2   -1    0    0    0  501 -0.00000000000E+00  0.00000000000E+00  0.63162761449E+03  0.63162761450E+03  0.25500000000E-02 0.  1.
          2   -1    0    0  501    0  0.00000000000E+00 -0.00000000000E+00 -0.18684077752E+04  0.18684077752E+04  0.25500000000E-02 0. -1.
    8880023    1    1    2    0    0 -0.15068575062E+03  0.42029628185E+03  0.33170118352E+03  0.86208528661E+03  0.65864270000E+03 0.  1.
    8880022    1    1    2    0    0  0.15068575062E+03 -0.42029628185E+03 -0.15684813442E+04  0.16379501031E+04  0.15294330000E+03 0.  0.
<mgrwt>
<rscale>  0 0.69830535E+03</rscale>
<asrwt>0</asrwt>
<pdfrwt beam="1">  1        2 0.28744735E+00 0.79571689E+03</pdfrwt>
<pdfrwt beam="2">  1       -2 0.97173480E-01 0.79571689E+03</pdfrwt>
<totfact> 0.71669782E+00</totfact>
</mgrwt>
</event>
<event>
 4    5  0.1905771E-007  0.1027119E+04  0.7818608E-02  0.9346907E-01
         -2   -1    0    0    0  501 -0.00000000000E+00  0.00000000000E+00  0.11477318164E+04  0.11477318164E+04  0.25500000000E-02 0.  1.
          2   -1    0    0  501    0  0.00000000000E+00 -0.00000000000E+00 -0.16283658163E+04  0.16283658163E+04  0.25500000000E-02 0. -1.
    8880023    1    1    2    0    0 -0.15370756465E+03 -0.77300555436E+03 -0.12813544564E+04  0.16422067628E+04  0.65864270000E+03 0. -1.
    8880022    1    1    2    0    0  0.15370756465E+03  0.77300555436E+03  0.80072045643E+03  0.11338908699E+04  0.15294330000E+03 0.  0.
<mgrwt>
<rscale>  0 0.96576875E+03</rscale>
<asrwt>0</asrwt>
<pdfrwt beam="1">  1        2 0.25051782E+00 0.10271192E+04</pdfrwt>
<pdfrwt beam="2">  1       -2 0.17657413E+00 0.10271192E+04</pdfrwt>
<totfact> 0.20393226E+00</totfact>
</mgrwt>
</event>
<event>
 4    5  0.1905771E-007  0.7543534E+03  0.7818608E-02  0.9819952E-01
         -2   -1    0    0    0  501 -0.00000000000E+00  0.00000000000E+00  0.23232121251E+03  0.23232121253E+03  0.25500000000E-02 0.  1.
          2   -1    0    0  501    0  0.00000000000E+00 -0.00000000000E+00 -0.17857294681E+04  0.17857294681E+04  0.25500000000E-02 0. -1.
    8880023    1    1    2    0    0  0.21001881647E+03  0.30187892360E+03 -0.14018071258E+04  0.15918895100E+04  0.65864270000E+03 0.  0.
    8880022    1    1    2    0    0 -0.21001881647E+03 -0.30187892360E+03 -0.15160112977E+03  0.42616117063E+03  0.15294330000E+03 0.  0.
<mgrwt>
<rscale>  0 0.64302734E+03</rscale>
<asrwt>0</asrwt>
<pdfrwt beam="1">  1        2 0.27472760E+00 0.75435336E+03</pdfrwt>
<pdfrwt beam="2">  1       -2 0.35741726E-01 0.75435336E+03</pdfrwt>
<totfact> 0.66224107E+01</totfact>
</mgrwt>
</event>
<event>
 4    5  0.1905771E-007  0.1177940E+04  0.7818608E-02  0.9178870E-01
         -2   -1    0    0    0  501 -0.00000000000E+00  0.00000000000E+00  0.74325964675E+03  0.74325964676E+03  0.25500000000E-02 0.  1.
          2   -1    0    0  501    0  0.00000000000E+00 -0.00000000000E+00 -0.17521601910E+04  0.17521601910E+04  0.25500000000E-02 0. -1.
    8880023    1    1    2    0    0 -0.94283015488E+03  0.25456798675E+03 -0.93545119298E+03  0.15041983584E+04  0.65864270000E+03 0.  0.
    8880022    1    1    2    0    0  0.94283015488E+03 -0.25456798675E+03 -0.73449351251E+02  0.99122147931E+03  0.15294330000E+03 0.  0.
<mgrwt>
<rscale>  0 0.11274214E+04</rscale>
<asrwt>0</asrwt>
<pdfrwt beam="1">  1        2 0.26956311E+00 0.11779405E+04</pdfrwt>
<pdfrwt beam="2">  1       -2 0.11434764E+00 0.11779405E+04</pdfrwt>
<totfact> 0.53641347E+00</totfact>
</mgrwt>
</event>
<event>
 4    5  0.1905771E-007  0.7893433E+03  0.7818608E-02  0.9734330E-01
          2   -1    0    0  501    0  0.00000000000E+00  0.00000000000E+00  0.13032251082E+04  0.13032251082E+04  0.25500000000E-02 0. -1.
         -2   -1    0    0    0  501 -0.00000000000E+00 -0.00000000000E+00 -0.49060855073E+03  0.49060855074E+03  0.25500000000E-02 0.  1.
    8880023    1    1    2    0    0 -0.38368995140E+03 -0.20502347697E+03  0.10187164917E+04  0.12887381820E+04  0.65864270000E+03 0. -1.
    8880022    1    1    2    0    0  0.38368995140E+03  0.20502347697E+03 -0.20609993427E+03  0.50509547695E+03  0.15294330000E+03 0.  0.
<mgrwt>
<rscale>  0 0.69009065E+03</rscale>
<asrwt>0</asrwt>
<pdfrwt beam="1">  1        2 0.20049617E+00 0.78934328E+03</pdfrwt>
<pdfrwt beam="2">  1       -2 0.75478240E-01 0.78934328E+03</pdfrwt>
<totfact> 0.26330791E+01</totfact>
</mgrwt>
</event>
<event>
 4    5  0.1905771E-007  0.7272755E+03  0.7818608E-02  0.9898695E-01
          2   -1    0    0  501    0  0.00000000000E+00  0.00000000000E+00  0.20255647109E+04  0.20255647109E+04  0.25500000000E-02 0. -1.
         -2   -1    0    0    0  501 -0.00000000000E+00 -0.00000000000E+00 -0.43820382451E+03  0.43820382451E+03  0.25500000000E-02 0.  1.
    8880023    1    1    2    0    0  0.12072795532E+03 -0.28380318808E+03  0.18775739303E+04  0.20135077747E+04  0.65864270000E+03 0. -1.
    8880022    1    1    2    0    0 -0.12072795532E+03  0.28380318808E+03 -0.29021304392E+03  0.45026076071E+03  0.15294330000E+03 0.  0.
<mgrwt>
<rscale>  0 0.60324555E+03</rscale>
<asrwt>0</asrwt>
<pdfrwt beam="1">  1        2 0.31162535E+00 0.72727553E+03</pdfrwt>
<pdfrwt beam="2">  1       -2 0.67415971E-01 0.72727553E+03</pdfrwt>
<totfact> 0.13554561E+01</totfact>
</mgrwt>
</event>
<event>
 4    5  0.1905771E-007  0.1159391E+04  0.7818608E-02  0.9197645E-01
         -2   -1    0    0    0  501 -0.00000000000E+00  0.00000000000E+00  0.87612348406E+03  0.87612348407E+03  0.25500000000E-02 0.  1.
          2   -1    0    0  501    0  0.00000000000E+00 -0.00000000000E+00 -0.19501715714E+04  0.19501715714E+04  0.25500000000E-02 0. -1.
    8880023    1    1    2    0    0 -0.26398797075E+03 -0.91689019407E+03 -0.13896149705E+04  0.18097561297E+04  0.65864270000E+03 0.  0.
    8880022    1    1    2    0    0  0.26398797075E+03  0.91689019407E+03  0.31556688317E+03  0.10165389257E+04  0.15294330000E+03 0.  0.
<mgrwt>
<rscale>  0 0.11077771E+04</rscale>
<asrwt>0</asrwt>
<pdfrwt beam="1">  1        2 0.30002640E+00 0.11593910E+04</pdfrwt>
<pdfrwt beam="2">  1       -2 0.13478823E+00 0.11593910E+04</pdfrwt>
<totfact> 0.27608655E+00</totfact>
</mgrwt>
</event>
<event>
 4    5  0.1905771E-007  0.1282924E+04  0.7818608E-02  0.9080448E-01
         -2   -1    0    0    0  501 -0.00000000000E+00  0.00000000000E+00  0.17900118301E+04  0.17900118301E+04  0.25500000000E-02 0.  1.
          2   -1    0    0  501    0  0.00000000000E+00 -0.00000000000E+00 -0.17580662698E+04  0.17580662699E+04  0.25500000000E-02 0. -1.
    8880023    1    1    2    0    0 -0.10941256833E+04  0.12235950924E+03 -0.12910841954E+04  0.18201075425E+04  0.65864270000E+03 0.  0.
    8880022    1    1    2    0    0  0.10941256833E+04 -0.12235950924E+03  0.13230297557E+04  0.17279705575E+04  0.15294330000E+03 0.  0.
<mgrwt>
<rscale>  0 0.12377411E+04</rscale>
<asrwt>0</asrwt>
<pdfrwt beam="1">  1        2 0.27047173E+00 0.12829236E+04</pdfrwt>
<pdfrwt beam="2">  1       -2 0.27538643E+00 0.12829236E+04</pdfrwt>
<totfact> 0.39392515E-01</totfact>
</mgrwt>
</event>
<event>
 4    5  0.1905771E-007  0.1021278E+04  0.7818608E-02  0.9354234E-01
          2   -1    0    0  501    0  0.00000000000E+00  0.00000000000E+00  0.45590356936E+04  0.45590356936E+04  0.25500000000E-02 0. -1.
         -2   -1    0    0    0  501 -0.00000000000E+00 -0.00000000000E+00 -0.23771818594E+03  0.23771818595E+03  0.25500000000E-02 0.  1.
    8880023    1    1    2    0    0  0.39024457968E+03 -0.67594894368E+03  0.35301449888E+04  0.36749056661E+04  0.65864270000E+03 0. -1.
    8880022    1    1    2    0    0 -0.39024457968E+03  0.67594894368E+03  0.79117251884E+03  0.11218482134E+04  0.15294330000E+03 0.  0.
<mgrwt>
<rscale>  0 0.95939646E+03</rscale>
<asrwt>0</asrwt>
<pdfrwt beam="1">  1        2 0.70139002E+00 0.10212776E+04</pdfrwt>
<pdfrwt beam="2">  1       -2 0.36572033E-01 0.10212776E+04</pdfrwt>
<totfact> 0.81357919E-01</totfact>
</mgrwt>
</event>
<event>
 4    5  0.1905771E-007  0.9990761E+03  0.7818608E-02  0.9382767E-01
          2   -1    0    0  501    0  0.00000000000E+00  0.00000000000E+00  0.83357353258E+03  0.83357353259E+03  0.25500000000E-02 0. -1.
         -2   -1    0    0    0  501 -0.00000000000E+00 -0.00000000000E+00 -0.97896148438E+03  0.97896148438E+03  0.25500000000E-02 0.  1.
    8880023    1    1    2    0    0  0.47751814327E+03  0.57993044228E+03  0.10849888208E+03  0.10049503016E+04  0.65864270000E+03 0.  0.
    8880022    1    1    2    0    0 -0.47751814327E+03 -0.57993044228E+03 -0.25388683388E+03  0.80758471535E+03  0.15294330000E+03 0.  0.
<mgrwt>
<rscale>  0 0.93507531E+03</rscale>
<asrwt>0</asrwt>
<pdfrwt beam="1">  1        2 0.12824208E+00 0.99907612E+03</pdfrwt>
<pdfrwt beam="2">  1       -2 0.15060946E+00 0.99907612E+03</pdfrwt>
<totfact> 0.95824994E+00</totfact>
</mgrwt>
</event>
<event>
 4    5  0.1905771E-007  0.1222981E+04  0.7818608E-02  0.9135101E-01
         -2   -1    0    0    0  501 -0.00000000000E+00  0.00000000000E+00  0.57273240888E+03  0.57273240888E+03  0.25500000000E-02 0.  1.
          2   -1    0    0  501    0  0.00000000000E+00 -0.00000000000E+00 -0.33353814506E+04  0.33353814506E+04  0.25500000000E-02 0. -1.
    8880023    1    1    2    0    0  0.99303887698E+03  0.27521991704E+03 -0.33752417162E+03  0.12687020874E+04  0.65864270000E+03 0.  0.
    8880022    1    1    2    0    0 -0.99303887698E+03 -0.27521991704E+03 -0.24251248701E+04  0.26394117721E+04  0.15294330000E+03 0.  0.
<mgrwt>
<rscale>  0 0.11749157E+04</rscale>
<asrwt>0</asrwt>
<pdfrwt beam="1">  1        2 0.51313560E+00 0.12229810E+04</pdfrwt>
<pdfrwt beam="2">  1       -2 0.88112680E-01 0.12229810E+04</pdfrwt>
<totfact> 0.11650265E+00</totfact>
</mgrwt>
</event>
<event>
 4    5  0.1905771E-007  0.6780101E+03  0.7818608E-02  0.1010472E+00
         -2   -1    0    0    0  501 -0.00000000000E+00  0.00000000000E+00  0.46923499806E+03  0.46923499806E+03  0.25500000000E-02 0.  1.
          2   -1    0    0  501    0  0.00000000000E+00 -0.00000000000E+00 -0.59628780627E+03  0.59628780628E+03  0.25500000000E-02 0. -1.
    8880023    1    1    2    0    0  0.46002766478E+02  0.15417901094E+03 -0.33949669769E+03  0.75825829105E+03  0.65864270000E+03 0. -1.
    8880022    1    1    2    0    0 -0.46002766478E+02 -0.15417901094E+03  0.21244388948E+03  0.30726451329E+03  0.15294330000E+03 0.  0.
<mgrwt>
<rscale>  0 0.51287310E+03</rscale>
<asrwt>0</asrwt>
<pdfrwt beam="1">  1        2 0.91736586E-01 0.67801005E+03</pdfrwt>
<pdfrwt beam="2">  1       -2 0.72189999E-01 0.67801005E+03</pdfrwt>
<totfact> 0.88228485E+01</totfact>
</mgrwt>
</event>
<event>
 4    5  0.1905771E-007  0.1770297E+04  0.7818608E-02  0.8739148E-01
          2   -1    0    0  501    0  0.00000000000E+00  0.00000000000E+00  0.16645312454E+04  0.16645312454E+04  0.25500000000E-02 0. -1.
         -2   -1    0    0    0  501 -0.00000000000E+00 -0.00000000000E+00 -0.18873704585E+04  0.18873704585E+04  0.25500000000E-02 0.  1.
    8880023    1    1    2    0    0  0.16395209531E+04 -0.11005050995E+03  0.35082928504E+03  0.18047247613E+04  0.65864270000E+03 0.  0.
    8880022    1    1    2    0    0 -0.16395209531E+04  0.11005050995E+03 -0.57366849815E+03  0.17471769427E+04  0.15294330000E+03 0.  0.
<mgrwt>
<rscale>  0 0.17395066E+04</rscale>
<asrwt>0</asrwt>
<pdfrwt beam="1">  1        2 0.25608173E+00 0.17702967E+04</pdfrwt>
<pdfrwt beam="2">  1       -2 0.29036469E+00 0.17702967E+04</pdfrwt>
<totfact> 0.34158010E-01</totfact>
</mgrwt>
</event>
<event>
 4    5  0.1905771E-007  0.9591611E+03  0.7818608E-02  0.9437054E-01
          2   -1    0    0  501    0  0.00000000000E+00  0.00000000000E+00  0.55307666022E+03  0.55307666022E+03  0.25500000000E-02 0. -1.
         -2   -1    0    0    0  501 -0.00000000000E+00 -0.00000000000E+00 -0.21921495893E+04  0.21921495893E+04  0.25500000000E-02 0.  1.
    8880023    1    1    2    0    0  0.19297273193E+03  0.67003087261E+03 -0.18647328737E+01  0.95916293142E+03  0.65864270000E+03 0. -1.
    8880022    1    1    2    0    0 -0.19297273193E+03 -0.67003087261E+03 -0.16372081962E+04  0.17860633181E+04  0.15294330000E+03 0.  0.
<mgrwt>
<rscale>  0 0.89088022E+03</rscale>
<asrwt>0</asrwt>
<pdfrwt beam="1">  1        2 0.85088718E-01 0.95916112E+03</pdfrwt>
<pdfrwt beam="2">  1       -2 0.33725378E+00 0.95916112E+03</pdfrwt>
<totfact> 0.10412056E+00</totfact>
</mgrwt>
</event>
<event>
 4    5  0.1905771E-007  0.8468102E+03  0.7818608E-02  0.9617470E-01
         -2   -1    0    0    0  501 -0.00000000000E+00  0.00000000000E+00  0.38470462775E+03  0.38470462776E+03  0.25500000000E-02 0.  1.
          2   -1    0    0  501    0  0.00000000000E+00 -0.00000000000E+00 -0.21718623681E+04  0.21718623681E+04  0.25500000000E-02 0. -1.
    8880023    1    1    2    0    0 -0.14678171406E+03  0.51159795841E+03 -0.19239495380E+03  0.86839125234E+03  0.65864270000E+03 0.  1.
    8880022    1    1    2    0    0  0.14678171406E+03 -0.51159795841E+03 -0.15947627866E+04  0.16881757435E+04  0.15294330000E+03 0.  0.
<mgrwt>
<rscale>  0 0.76150595E+03</rscale>
<asrwt>0</asrwt>
<pdfrwt beam="1">  1        2 0.33413267E+00 0.84681022E+03</pdfrwt>
<pdfrwt beam="2">  1       -2 0.59185328E-01 0.84681022E+03</pdfrwt>
<totfact> 0.14631735E+01</totfact>
</mgrwt>
</event>
<event>
 4    5  0.1905771E-007  0.1219657E+04  0.7818608E-02  0.9138248E-01
          2   -1    0    0  501    0  0.00000000000E+00  0.00000000000E+00  0.20090538327E+04  0.20090538327E+04  0.25500000000E-02 0. -1.
         -2   -1    0    0    0  501 -0.00000000000E+00 -0.00000000000E+00 -0.85825116928E+03  0.85825116928E+03  0.25500000000E-02 0.  1.
    8880023    1    1    2    0    0 -0.70423427943E+03  0.74686406562E+03  0.13404307356E+04  0.18122683621E+04  0.65864270000E+03 0. -1.
    8880022    1    1    2    0    0  0.70423427943E+03 -0.74686406562E+03 -0.18962807220E+03  0.10550366399E+04  0.15294330000E+03 0.  1.
<mgrwt>
<rscale>  0 0.11714192E+04</rscale>
<asrwt>0</asrwt>
<pdfrwt beam="1">  1        2 0.30908520E+00 0.12196565E+04</pdfrwt>
<pdfrwt beam="2">  1       -2 0.13203864E+00 0.12196565E+04</pdfrwt>
<totfact> 0.26825378E+00</totfact>
</mgrwt>
</event>
<event>
 4    5  0.1905771E-007  0.9068306E+03  0.7818608E-02  0.9515154E-01
         -2   -1    0    0    0  501 -0.00000000000E+00  0.00000000000E+00  0.16996760983E+04  0.16996760983E+04  0.25500000000E-02 0.  1.
          2   -1    0    0  501    0  0.00000000000E+00 -0.00000000000E+00 -0.77187131929E+03  0.77187131929E+03  0.25500000000E-02 0. -1.
    8880023    1    1    2    0    0  0.54851270376E+03 -0.29608321210E+03 -0.40431209369E+03  0.99287961508E+03  0.65864270000E+03 0. -1.
    8880022    1    1    2    0    0 -0.54851270376E+03  0.29608321210E+03  0.13321168727E+04  0.14786678026E+04  0.15294330000E+03 0.  0.
<mgrwt>
<rscale>  0 0.83175732E+03</rscale>
<asrwt>0</asrwt>
<pdfrwt beam="1">  1        2 0.11874943E+00 0.90683056E+03</pdfrwt>
<pdfrwt beam="2">  1       -2 0.26148863E+00 0.90683056E+03</pdfrwt>
<totfact> 0.19946803E+00</totfact>
</mgrwt>
</event>
<event>
 4    5  0.1905771E-007  0.8940828E+03  0.7818608E-02  0.9535598E-01
          2   -1    0    0  501    0  0.00000000000E+00  0.00000000000E+00  0.15235654072E+04  0.15235654072E+04  0.25500000000E-02 0. -1.
         -2   -1    0    0    0  501 -0.00000000000E+00 -0.00000000000E+00 -0.48710701481E+03  0.48710701482E+03  0.25500000000E-02 0.  1.
    8880023    1    1    2    0    0 -0.40330634810E+03  0.45046411442E+03  0.10598007074E+04  0.13865647026E+04  0.65864270000E+03 0.  0.
    8880022    1    1    2    0    0  0.40330634810E+03 -0.45046411442E+03 -0.23342314990E+02  0.62410771945E+03  0.15294330000E+03 0.  0.
<mgrwt>
<rscale>  0 0.81709437E+03</rscale>
<asrwt>0</asrwt>
<pdfrwt beam="1">  1        2 0.23439467E+00 0.89408285E+03</pdfrwt>
<pdfrwt beam="2">  1       -2 0.74939542E-01 0.89408285E+03</pdfrwt>
<totfact> 0.19850098E+01</totfact>
</mgrwt>
</event>
<event>
 4    5  0.1905771E-007  0.1418246E+04  0.7818608E-02  0.8969633E-01
         -2   -1    0    0    0  501 -0.00000000000E+00  0.00000000000E+00  0.92312438614E+03  0.92312438614E+03  0.25500000000E-02 0.  1.
          2   -1    0    0  501    0  0.00000000000E+00 -0.00000000000E+00 -0.46587253098E+04  0.46587253099E+04  0.25500000000E-02 0. -1.
    8880023    1    1    2    0    0  0.73857658208E+03  0.10159310014E+04 -0.40389247472E+04  0.42806932250E+04  0.65864270000E+03 0. -1.
    8880022    1    1    2    0    0 -0.73857658208E+03 -0.10159310014E+04  0.30332382344E+03  0.13011564710E+04  0.15294330000E+03 0.  0.
<mgrwt>
<rscale>  0 0.13783600E+04</rscale>
<asrwt>0</asrwt>
<pdfrwt beam="1">  1        2 0.71672695E+00 0.14182459E+04</pdfrwt>
<pdfrwt beam="2">  1       -2 0.14201914E+00 0.14182459E+04</pdfrwt>
<totfact> 0.29086516E-02</totfact>
</mgrwt>
</event>
<event>
 4    5  0.1905771E-007  0.7092589E+03  0.7818608E-02  0.9960763E-01
         -2   -1    0    0    0  501 -0.00000000000E+00  0.00000000000E+00  0.14842719200E+04  0.14842719200E+04  0.25500000000E-02 0.  1.
          2   -1    0    0  501    0  0.00000000000E+00 -0.00000000000E+00 -0.86419745346E+03  0.86419745347E+03  0.25500000000E-02 0. -1.
    8880023    1    1    2    0    0  0.75194357605E+02 -0.25215821736E+03 -0.69835731233E+03  0.99536480747E+03  0.65864270000E+03 0. -1.
    8880022    1    1    2    0    0 -0.75194357605E+02  0.25215821736E+03  0.13184317789E+04  0.13531045660E+04  0.15294330000E+03 0.  0.
<mgrwt>
<rscale>  0 0.57404682E+03</rscale>
<asrwt>0</asrwt>
<pdfrwt beam="1">  1        2 0.13295346E+00 0.70925888E+03</pdfrwt>
<pdfrwt beam="2">  1       -2 0.22834952E+00 0.70925888E+03</pdfrwt>
<totfact> 0.28095992E+00</totfact>
</mgrwt>
</event>
<event>
 4    5  0.1905771E-007  0.2224333E+04  0.7818608E-02  0.8518268E-01
          2   -1    0    0  501    0  0.00000000000E+00  0.00000000000E+00  0.27755205014E+04  0.27755205014E+04  0.25500000000E-02 0. -1.
         -2   -1    0    0    0  501 -0.00000000000E+00 -0.00000000000E+00 -0.18617504597E+04  0.18617504597E+04  0.25500000000E-02 0.  1.
    8880023    1    1    2    0    0 -0.20107136003E+04  0.68620599633E+03  0.11324113193E+04  0.24959994900E+04  0.65864270000E+03 0.  0.
    8880022    1    1    2    0    0  0.20107136003E+04 -0.68620599633E+03 -0.21864127751E+03  0.21412714711E+04  0.15294330000E+03 0.  0.
<mgrwt>
<rscale>  0 0.22003858E+04</rscale>
<asrwt>0</asrwt>
<pdfrwt beam="1">  1        2 0.42700315E+00 0.22243332E+04</pdfrwt>
<pdfrwt beam="2">  1       -2 0.28642315E+00 0.22243332E+04</pdfrwt>
<totfact> 0.79837572E-02</totfact>
</mgrwt>
</event>
<event>
 4    5  0.1905771E-007  0.7879260E+03  0.7818608E-02  0.9737538E-01
         -2   -1    0    0    0  501 -0.00000000000E+00  0.00000000000E+00  0.83905518998E+03  0.83905518999E+03  0.25500000000E-02 0.  1.
          2   -1    0    0  501    0  0.00000000000E+00 -0.00000000000E+00 -0.62066215082E+03  0.62066215083E+03  0.25500000000E-02 0. -1.
    8880023    1    1    2    0    0 -0.35186258683E+03  0.25141579049E+03 -0.22739217575E+03  0.82008206149E+03  0.65864270000E+03 0.  0.
    8880022    1    1    2    0    0  0.35186258683E+03 -0.25141579049E+03  0.44578521491E+03  0.63963527933E+03  0.15294330000E+03 0.  0.
<mgrwt>
<rscale>  0 0.68825135E+03</rscale>
<asrwt>0</asrwt>
<pdfrwt beam="1">  1        2 0.95486485E-01 0.78792600E+03</pdfrwt>
<pdfrwt beam="2">  1       -2 0.12908541E+00 0.78792600E+03</pdfrwt>
<totfact> 0.21254934E+01</totfact>
</mgrwt>
</event>
<event>
 4    5  0.1905771E-007  0.1459527E+04  0.7818608E-02  0.8938757E-01
          2   -1    0    0  501    0  0.00000000000E+00  0.00000000000E+00  0.26370274514E+04  0.26370274514E+04  0.25500000000E-02 0. -1.
         -2   -1    0    0    0  501 -0.00000000000E+00 -0.00000000000E+00 -0.10676558897E+04  0.10676558897E+04  0.25500000000E-02 0.  1.
    8880023    1    1    2    0    0 -0.45006898422E+03  0.12222297443E+04  0.18571799727E+04  0.23620616621E+04  0.65864270000E+03 0.  0.
    8880022    1    1    2    0    0  0.45006898422E+03 -0.12222297443E+04 -0.28780841097E+03  0.13426216790E+04  0.15294330000E+03 0.  0.
<mgrwt>
<rscale>  0 0.14209989E+04</rscale>
<asrwt>0</asrwt>
<pdfrwt beam="1">  1        2 0.40569653E+00 0.14595266E+04</pdfrwt>
<pdfrwt beam="2">  1       -2 0.16425475E+00 0.14595266E+04</pdfrwt>
<totfact> 0.64302601E-01</totfact>
</mgrwt>
</event>
<event>
 4    5  0.2342173E-007  0.1075950E+04  0.7818608E-02  0.9288317E-01
          2   -1    0    0  501    0  0.00000000000E+00  0.00000000000E+00  0.30811451473E+04  0.30811451473E+04  0.25500000000E-02 0. -1.
         -2   -1    0    0    0  501 -0.00000000000E+00 -0.00000000000E+00 -0.13177420382E+04  0.13177420382E+04  0.25500000000E-02 0.  1.
    8880023    1    1    2    0    0 -0.70950781530E+03  0.46952808333E+03  0.28290325813E+04  0.30267298382E+04  0.65864270000E+03 0.  0.
    8880022    1    1    2    0    0  0.70950781530E+03 -0.46952808333E+03 -0.10656294721E+04  0.13721573473E+04  0.15294330000E+03 0.  0.
<mgrwt>
<rscale>  0 0.10186553E+04</rscale>
<asrwt>0</asrwt>
<pdfrwt beam="1">  1        2 0.47402233E+00 0.10759499E+04</pdfrwt>
<pdfrwt beam="2">  1       -2 0.20272955E+00 0.10759499E+04</pdfrwt>
<totfact> 0.19852370E-01</totfact>
</mgrwt>
</event>
<event>
 4    5  0.1905771E-007  0.1095475E+04  0.7818608E-02  0.9266111E-01
         -2   -1    0    0    0  501 -0.00000000000E+00  0.00000000000E+00  0.21865863538E+04  0.21865863538E+04  0.25500000000E-02 0.  1.
          2   -1    0    0  501    0  0.00000000000E+00 -0.00000000000E+00 -0.17672524797E+04  0.17672524797E+04  0.25500000000E-02 0. -1.
    8880023    1    1    2    0    0  0.25321079216E+03 -0.83793809158E+03 -0.14891107455E+04  0.18486527444E+04  0.65864270000E+03 0.  0.
    8880022    1    1    2    0    0 -0.25321079216E+03  0.83793809158E+03  0.19084446196E+04  0.21051860891E+04  0.15294330000E+03 0.  0.
<mgrwt>
<rscale>  0 0.10396355E+04</rscale>
<asrwt>0</asrwt>
<pdfrwt beam="1">  1        2 0.27188500E+00 0.10954753E+04</pdfrwt>
<pdfrwt beam="2">  1       -2 0.33639790E+00 0.10954753E+04</pdfrwt>
<totfact> 0.16972154E-01</totfact>
</mgrwt>
</event>
<event>
 4    5  0.1905771E-007  0.1174773E+04  0.7818608E-02  0.9182043E-01
          2   -1    0    0  501    0  0.00000000000E+00  0.00000000000E+00  0.29401205506E+04  0.29401205506E+04  0.25500000000E-02 0. -1.
         -2   -1    0    0    0  501 -0.00000000000E+00 -0.00000000000E+00 -0.86809564495E+03  0.86809564495E+03  0.25500000000E-02 0.  1.
    8880023    1    1    2    0    0 -0.52743784668E+03  0.81736855847E+03  0.24785643055E+04  0.27428768228E+04  0.65864270000E+03 0. -1.
    8880022    1    1    2    0    0  0.52743784668E+03 -0.81736855847E+03 -0.40653939982E+03  0.10653393727E+04  0.15294330000E+03 0.  0.
<mgrwt>
<rscale>  0 0.11240710E+04</rscale>
<asrwt>0</asrwt>
<pdfrwt beam="1">  1        2 0.45232624E+00 0.11747733E+04</pdfrwt>
<pdfrwt beam="2">  1       -2 0.13355318E+00 0.11747733E+04</pdfrwt>
<totfact> 0.76095861E-01</totfact>
</mgrwt>
</event>
<event>
 4    5  0.1905771E-007  0.8412442E+03  0.7818608E-02  0.9627839E-01
          2   -1    0    0  501    0  0.00000000000E+00  0.00000000000E+00  0.51608564079E+03  0.51608564079E+03  0.25500000000E-02 0. -1.
         -2   -1    0    0    0  501 -0.00000000000E+00 -0.00000000000E+00 -0.93512876755E+03  0.93512876755E+03  0.25500000000E-02 0.  1.
    8880023    1    1    2    0    0  0.20885983072E+03  0.47985325155E+03 -0.30005189250E+03  0.89315335546E+03  0.65864270000E+03 0.  0.
    8880022    1    1    2    0    0 -0.20885983072E+03 -0.47985325155E+03 -0.11899123426E+03  0.55806105289E+03  0.15294330000E+03 0. -1.
<mgrwt>
<rscale>  0 0.75480719E+03</rscale>
<asrwt>0</asrwt>
<pdfrwt beam="1">  1        2 0.79397791E-01 0.84124418E+03</pdfrwt>
<pdfrwt beam="2">  1       -2 0.14386596E+00 0.84124418E+03</pdfrwt>
<totfact> 0.19965244E+01</totfact>
</mgrwt>
</event>
<event>
 4    5  0.1905771E-007  0.8706506E+03  0.7818608E-02  0.9574892E-01
          2   -1    0    0  501    0  0.00000000000E+00  0.00000000000E+00  0.18310073336E+04  0.18310073336E+04  0.25500000000E-02 0. -1.
         -2   -1    0    0    0  501 -0.00000000000E+00 -0.00000000000E+00 -0.47759584042E+03  0.47759584043E+03  0.25500000000E-02 0.  1.
    8880023    1    1    2    0    0  0.50777607802E+03 -0.25765430829E+03  0.14691552917E+04  0.17077616243E+04  0.65864270000E+03 0. -1.
    8880022    1    1    2    0    0 -0.50777607802E+03  0.25765430829E+03 -0.11574379852E+03  0.60084154975E+03  0.15294330000E+03 0.  0.
<mgrwt>
<rscale>  0 0.78980537E+03</rscale>
<asrwt>0</asrwt>
<pdfrwt beam="1">  1        2 0.28169344E+00 0.87065062E+03</pdfrwt>
<pdfrwt beam="2">  1       -2 0.73476282E-01 0.87065062E+03</pdfrwt>
<totfact> 0.14067786E+01</totfact>
</mgrwt>
</event>
<event>
 4    5  0.1905771E-007  0.7189953E+03  0.7818608E-02  0.9926000E-01
          2   -1    0    0  501    0  0.00000000000E+00  0.00000000000E+00  0.16039242216E+04  0.16039242216E+04  0.25500000000E-02 0. -1.
         -2   -1    0    0    0  501 -0.00000000000E+00 -0.00000000000E+00 -0.56115488917E+03  0.56115488917E+03  0.25500000000E-02 0.  1.
    8880023    1    1    2    0    0 -0.28209129302E+03  0.59737713208E+02  0.14646884992E+04  0.16316453959E+04  0.65864270000E+03 0.  0.
    8880022    1    1    2    0    0  0.28209129302E+03 -0.59737713208E+02 -0.42191916671E+03  0.53343371494E+03  0.15294330000E+03 0.  0.
<mgrwt>
<rscale>  0 0.59017591E+03</rscale>
<asrwt>0</asrwt>
<pdfrwt beam="1">  1        2 0.24675757E+00 0.71899534E+03</pdfrwt>
<pdfrwt beam="2">  1       -2 0.86331521E-01 0.71899534E+03</pdfrwt>
<totfact> 0.13299337E+01</totfact>
</mgrwt>
</event>
<event>
 4    5  0.1905771E-007  0.7078090E+03  0.7818608E-02  0.9966229E-01
         -2   -1    0    0    0  501 -0.00000000000E+00  0.00000000000E+00  0.45975814619E+03  0.45975814620E+03  0.25500000000E-02 0.  1.
          2   -1    0    0  501    0  0.00000000000E+00 -0.00000000000E+00 -0.77945809967E+03  0.77945809967E+03  0.25500000000E-02 0. -1.
    8880023    1    1    2    0    0  0.16263515998E+03 -0.20182465155E+03 -0.51948338521E+03  0.87798438426E+03  0.65864270000E+03 0. -1.
    8880022    1    1    2    0    0 -0.16263515998E+03  0.20182465155E+03  0.19978343173E+03  0.36123186161E+03  0.15294330000E+03 0.  0.
<mgrwt>
<rscale>  0 0.57156171E+03</rscale>
<asrwt>0</asrwt>
<pdfrwt beam="1">  1        2 0.11991663E+00 0.70780901E+03</pdfrwt>
<pdfrwt beam="2">  1       -2 0.70732023E-01 0.70780901E+03</pdfrwt>
<totfact> 0.65847116E+01</totfact>
</mgrwt>
</event>
<event>
 4    5  0.1905771E-007  0.1520743E+04  0.7818608E-02  0.8895125E-01
          2   -1    0    0  501    0  0.00000000000E+00  0.00000000000E+00  0.20887148593E+04  0.20887148593E+04  0.25500000000E-02 0. -1.
         -2   -1    0    0    0  501 -0.00000000000E+00 -0.00000000000E+00 -0.16957214306E+04  0.16957214306E+04  0.25500000000E-02 0.  1.
    8880023    1    1    2    0    0  0.14973309982E+03 -0.13625088433E+04  0.14076221833E+04  0.20722115641E+04  0.65864270000E+03 0.  0.
    8880022    1    1    2    0    0 -0.14973309982E+03  0.13625088433E+04 -0.10146287546E+04  0.17122247259E+04  0.15294330000E+03 0.  0.
<mgrwt>
<rscale>  0 0.14840556E+04</rscale>
<asrwt>0</asrwt>
<pdfrwt beam="1">  1        2 0.32134075E+00 0.15207434E+04</pdfrwt>
<pdfrwt beam="2">  1       -2 0.26088022E+00 0.15207434E+04</pdfrwt>
<totfact> 0.30720647E-01</totfact>
</mgrwt>
</event>
<event>
 4    5  0.1905771E-007  0.9987819E+03  0.7818608E-02  0.9383153E-01
          2   -1    0    0  501    0  0.00000000000E+00  0.00000000000E+00  0.24754112887E+04  0.24754112887E+04  0.25500000000E-02 0. -1.
         -2   -1    0    0    0  501 -0.00000000000E+00 -0.00000000000E+00 -0.41298107476E+03  0.41298107477E+03  0.25500000000E-02 0.  1.
    8880023    1    1    2    0    0 -0.65837873885E+03 -0.36096054269E+03  0.18348148845E+04  0.20890454623E+04  0.65864270000E+03 0.  0.
    8880022    1    1    2    0    0  0.65837873885E+03  0.36096054269E+03  0.22761532946E+03  0.79934690114E+03  0.15294330000E+03 0.  0.
<mgrwt>
<rscale>  0 0.93475184E+03</rscale>
<asrwt>0</asrwt>
<pdfrwt beam="1">  1        2 0.38083250E+00 0.99878190E+03</pdfrwt>
<pdfrwt beam="2">  1       -2 0.63535551E-01 0.99878190E+03</pdfrwt>
<totfact> 0.83396616E+00</totfact>
</mgrwt>
</event>
<event>
 4    5  0.1905771E-007  0.9594451E+03  0.7818608E-02  0.9436653E-01
          2   -1    0    0  501    0  0.00000000000E+00  0.00000000000E+00  0.44208385548E+03  0.44208385549E+03  0.25500000000E-02 0. -1.
         -2   -1    0    0    0  501 -0.00000000000E+00 -0.00000000000E+00 -0.42470095657E+04  0.42470095657E+04  0.25500000000E-02 0.  1.
    8880023    1    1    2    0    0 -0.61515105666E+03 -0.32911060896E+03 -0.15736489287E+03  0.97226464052E+03  0.65864270000E+03 0. -1.
    8880022    1    1    2    0    0  0.61515105666E+03  0.32911060896E+03 -0.36475608174E+04  0.37168287807E+04  0.15294330000E+03 0.  0.
<mgrwt>
<rscale>  0 0.89119703E+03</rscale>
<asrwt>0</asrwt>
<pdfrwt beam="1">  1        2 0.68012904E-01 0.95944506E+03</pdfrwt>
<pdfrwt beam="2">  1       -2 0.65338606E+00 0.95944506E+03</pdfrwt>
<totfact> 0.23164425E-02</totfact>
</mgrwt>
</event>
<event>
 4    5  0.1905771E-007  0.6944664E+03  0.7818608E-02  0.1002098E+00
          2   -1    0    0  501    0  0.00000000000E+00  0.00000000000E+00  0.22748859467E+04  0.22748859467E+04  0.25500000000E-02 0. -1.
         -2   -1    0    0    0  501 -0.00000000000E+00 -0.00000000000E+00 -0.70775356288E+03  0.70775356289E+03  0.25500000000E-02 0.  1.
    8880023    1    1    2    0    0  0.20221969756E+03  0.87066141116E+02  0.21937704370E+04  0.23010676338E+04  0.65864270000E+03 0. -1.
    8880022    1    1    2    0    0 -0.20221969756E+03 -0.87066141116E+02 -0.62663805322E+03  0.68157187571E+03  0.15294330000E+03 0.  0.
<mgrwt>
<rscale>  0 0.54739783E+03</rscale>
<asrwt>0</asrwt>
<pdfrwt beam="1">  1        2 0.34998246E+00 0.69446636E+03</pdfrwt>
<pdfrwt beam="2">  1       -2 0.10888516E+00 0.69446636E+03</pdfrwt>
<totfact> 0.33274962E+00</totfact>
</mgrwt>
</event>
<event>
 4    5  0.1905771E-007  0.1263422E+04  0.7818608E-02  0.9097809E-01
          2   -1    0    0  501    0  0.00000000000E+00  0.00000000000E+00  0.87685871456E+03  0.87685871456E+03  0.25500000000E-02 0. -1.
         -2   -1    0    0    0  501 -0.00000000000E+00 -0.00000000000E+00 -0.23144365605E+04  0.23144365605E+04  0.25500000000E-02 0.  1.
    8880023    1    1    2    0    0  0.10219258085E+04 -0.34364707287E+03  0.14344839718E+03  0.12715397429E+04  0.65864270000E+03 0.  0.
    8880022    1    1    2    0    0 -0.10219258085E+04  0.34364707287E+03 -0.15810262431E+04  0.19197555321E+04  0.15294330000E+03 0.  0.
<mgrwt>
<rscale>  0 0.12173449E+04</rscale>
<asrwt>0</asrwt>
<pdfrwt beam="1">  1        2 0.13490134E+00 0.12634223E+04</pdfrwt>
<pdfrwt beam="2">  1       -2 0.35606716E+00 0.12634223E+04</pdfrwt>
<totfact> 0.42309389E-01</totfact>
</mgrwt>
</event>
<event>
 4    5  0.1905771E-007  0.1183685E+04  0.7818608E-02  0.9173148E-01
          2   -1    0    0  501    0  0.00000000000E+00  0.00000000000E+00  0.12939703568E+04  0.12939703568E+04  0.25500000000E-02 0. -1.
         -2   -1    0    0    0  501 -0.00000000000E+00 -0.00000000000E+00 -0.28587009164E+04  0.28587009164E+04  0.25500000000E-02 0.  1.
    8880023    1    1    2    0    0  0.85328061006E+03  0.48909209813E+03 -0.25130714995E+04  0.27778836274E+04  0.65864270000E+03 0.  0.
    8880022    1    1    2    0    0 -0.85328061006E+03 -0.48909209813E+03  0.94834093983E+03  0.13747876458E+04  0.15294330000E+03 0.  0.
<mgrwt>
<rscale>  0 0.11334940E+04</rscale>
<asrwt>0</asrwt>
<pdfrwt beam="1">  1        2 0.19907236E+00 0.11836845E+04</pdfrwt>
<pdfrwt beam="2">  1       -2 0.43980014E+00 0.11836845E+04</pdfrwt>
<totfact> 0.66652978E-02</totfact>
</mgrwt>
</event>
<event>
 4    5  0.1905771E-007  0.7329113E+03  0.7818608E-02  0.9881099E-01
          2   -1    0    0  501    0  0.00000000000E+00  0.00000000000E+00  0.22454714143E+04  0.22454714143E+04  0.25500000000E-02 0. -1.
         -2   -1    0    0    0  501 -0.00000000000E+00 -0.00000000000E+00 -0.21739657652E+03  0.21739657653E+03  0.25500000000E-02 0.  1.
    8880023    1    1    2    0    0  0.17466294474E+03 -0.26989190897E+03  0.19703065519E+04  0.21022052472E+04  0.65864270000E+03 0.  0.
    8880022    1    1    2    0    0 -0.17466294474E+03  0.26989190897E+03  0.57768285961E+02  0.36066274367E+03  0.15294330000E+03 0.  0.
<mgrwt>
<rscale>  0 0.61186128E+03</rscale>
<asrwt>0</asrwt>
<pdfrwt beam="1">  1        2 0.34545717E+00 0.73291131E+03</pdfrwt>
<pdfrwt beam="2">  1       -2 0.33445624E-01 0.73291131E+03</pdfrwt>
<totfact> 0.42211981E+01</totfact>
</mgrwt>
</event>
<event>
 4    5  0.1905771E-007  0.8112239E+03  0.7818608E-02  0.9687033E-01
          2   -1    0    0  501    0  0.00000000000E+00  0.00000000000E+00  0.28207694369E+04  0.28207694369E+04  0.25500000000E-02 0. -1.
         -2   -1    0    0    0  501 -0.00000000000E+00 -0.00000000000E+00 -0.16784416753E+03  0.16784416755E+03  0.25500000000E-02 0.  1.
    8880023    1    1    2    0    0 -0.46103104355E+03  0.10827926363E+03  0.20632749988E+04  0.22170223159E+04  0.65864270000E+03 0.  0.
    8880022    1    1    2    0    0  0.46103104355E+03 -0.10827926363E+03  0.58965027057E+03  0.77159128860E+03  0.15294330000E+03 0.  0.
<mgrwt>
<rscale>  0 0.71794105E+03</rscale>
<asrwt>0</asrwt>
<pdfrwt beam="1">  1        2 0.43396452E+00 0.81122391E+03</pdfrwt>
<pdfrwt beam="2">  1       -2 0.25822180E-01 0.81122391E+03</pdfrwt>
<totfact> 0.31645894E+01</totfact>
</mgrwt>
</event>
<event>
 4    5  0.1905771E-007  0.9586599E+03  0.7818608E-02  0.9437762E-01
         -2   -1    0    0    0  501 -0.00000000000E+00  0.00000000000E+00  0.86608809880E+03  0.86608809881E+03  0.25500000000E-02 0.  1.
          2   -1    0    0  501    0  0.00000000000E+00 -0.00000000000E+00 -0.81324898526E+03  0.81324898527E+03  0.25500000000E-02 0. -1.
    8880023    1    1    2    0    0 -0.43573234190E+02  0.69521224499E+03  0.10428085638E+03  0.96431498774E+03  0.65864270000E+03 0.  1.
    8880022    1    1    2    0    0  0.43573234190E+02 -0.69521224499E+03 -0.51441742839E+02  0.71502209633E+03  0.15294330000E+03 0.  0.
<mgrwt>
<rscale>  0 0.89032094E+03</rscale>
<asrwt>0</asrwt>
<pdfrwt beam="1">  1        2 0.12511523E+00 0.95865995E+03</pdfrwt>
<pdfrwt beam="2">  1       -2 0.13324432E+00 0.95865995E+03</pdfrwt>
<totfact> 0.13688239E+01</totfact>
</mgrwt>
</event>
<event>
 4    5  0.1905771E-007  0.1549766E+04  0.7818608E-02  0.8875271E-01
         -2   -1    0    0    0  501 -0.00000000000E+00  0.00000000000E+00  0.15369287623E+04  0.15369287623E+04  0.25500000000E-02 0.  1.
          2   -1    0    0  501    0  0.00000000000E+00 -0.00000000000E+00 -0.22965231611E+04  0.22965231611E+04  0.25500000000E-02 0. -1.
    8880023    1    1    2    0    0  0.25772678795E+03  0.13789633510E+04 -0.15700794576E+04  0.22061103168E+04  0.65864270000E+03 0. -1.
    8880022    1    1    2    0    0 -0.25772678795E+03 -0.13789633510E+04  0.81048505882E+03  0.16273416065E+04  0.15294330000E+03 0.  0.
<mgrwt>
<rscale>  0 0.15138857E+04</rscale>
<asrwt>0</asrwt>
<pdfrwt beam="1">  1        2 0.35331125E+00 0.15497655E+04</pdfrwt>
<pdfrwt beam="2">  1       -2 0.23645058E+00 0.15497655E+04</pdfrwt>
<totfact> 0.33090241E-01</totfact>
</mgrwt>
</event>
<event>
 4    5  0.2167940E-007  0.9373231E+03  0.7818608E-02  0.9468593E-01
         -2   -1    0    0    0  501 -0.00000000000E+00  0.00000000000E+00  0.10707655323E+04  0.10707655323E+04  0.25500000000E-02 0.  1.
          2   -1    0    0  501    0  0.00000000000E+00 -0.00000000000E+00 -0.21005808951E+04  0.21005808951E+04  0.25500000000E-02 0. -1.
    8880023    1    1    2    0    0  0.18014913108E+03  0.64211416872E+03 -0.18676268374E+04  0.20896422002E+04  0.65864270000E+03 0.  0.
    8880022    1    1    2    0    0 -0.18014913108E+03 -0.64211416872E+03  0.83781147459E+03  0.10817042272E+04  0.15294330000E+03 0.  0.
<mgrwt>
<rscale>  0 0.86639472E+03</rscale>
<asrwt>0</asrwt>
<pdfrwt beam="1">  1        2 0.32316629E+00 0.93732306E+03</pdfrwt>
<pdfrwt beam="2">  1       -2 0.16473316E+00 0.93732306E+03</pdfrwt>
<totfact> 0.13769331E+00</totfact>
</mgrwt>
</event>
<event>
 4    5  0.1905771E-007  0.6983393E+03  0.7818608E-02  0.1000416E+00
         -2   -1    0    0    0  501 -0.00000000000E+00  0.00000000000E+00  0.59293574357E+03  0.59293574358E+03  0.25500000000E-02 0.  1.
          2   -1    0    0  501    0  0.00000000000E+00 -0.00000000000E+00 -0.66640553823E+03  0.66640553823E+03  0.25500000000E-02 0. -1.
    8880023    1    1    2    0    0  0.94804478238E+02 -0.21184838049E+03 -0.42015369995E+03  0.81498893444E+03  0.65864270000E+03 0.  0.
    8880022    1    1    2    0    0 -0.94804478238E+02  0.21184838049E+03  0.34668390530E+03  0.44435234737E+03  0.15294330000E+03 0.  0.
<mgrwt>
<rscale>  0 0.55468154E+03</rscale>
<asrwt>0</asrwt>
<pdfrwt beam="1">  1        2 0.10252393E+00 0.69833934E+03</pdfrwt>
<pdfrwt beam="2">  1       -2 0.91220883E-01 0.69833934E+03</pdfrwt>
<totfact> 0.45406871E+01</totfact>
</mgrwt>
</event>
<event>
 4    5  0.1905771E-007  0.6693193E+03  0.7818608E-02  0.1016156E+00
         -2   -1    0    0    0  501 -0.00000000000E+00  0.00000000000E+00  0.21221721818E+03  0.21221721820E+03  0.25500000000E-02 0.  1.
          2   -1    0    0  501    0  0.00000000000E+00 -0.00000000000E+00 -0.17471943299E+04  0.17471943299E+04  0.25500000000E-02 0. -1.
    8880023    1    1    2    0    0 -0.11578223771E+03 -0.27796238930E+02 -0.16161546957E+04  0.17492696660E+04  0.65864270000E+03 0. -1.
    8880022    1    1    2    0    0  0.11578223771E+03  0.27796238930E+02  0.81177584012E+02  0.21014188214E+03  0.15294330000E+03 0.  0.
<mgrwt>
<rscale>  0 0.49099820E+03</rscale>
<asrwt>0</asrwt>
<pdfrwt beam="1">  1        2 0.26879912E+00 0.66931933E+03</pdfrwt>
<pdfrwt beam="2">  1       -2 0.32648804E-01 0.66931933E+03</pdfrwt>
<totfact> 0.83289000E+01</totfact>
</mgrwt>
</event>
<event>
 4    5  0.1905771E-007  0.8552299E+03  0.7818608E-02  0.9602106E-01
         -2   -1    0    0    0  501 -0.00000000000E+00  0.00000000000E+00  0.74820344677E+03  0.74820344678E+03  0.25500000000E-02 0.  1.
          2   -1    0    0  501    0  0.00000000000E+00 -0.00000000000E+00 -0.38189919180E+04  0.38189919180E+04  0.25500000000E-02 0. -1.
    8880023    1    1    2    0    0  0.39991280916E+03 -0.37104941284E+03 -0.36547940599E+04  0.37535233778E+04  0.65864270000E+03 0.  0.
    8880022    1    1    2    0    0 -0.39991280916E+03  0.37104941284E+03  0.58400558866E+03  0.81367198692E+03  0.15294330000E+03 0.  0.
<mgrwt>
<rscale>  0 0.77156977E+03</rscale>
<asrwt>0</asrwt>
<pdfrwt beam="1">  1        2 0.58753721E+00 0.85522987E+03</pdfrwt>
<pdfrwt beam="2">  1       -2 0.11510822E+00 0.85522987E+03</pdfrwt>
<totfact> 0.30067117E-01</totfact>
</mgrwt>
</event>
<event>
 4    5  0.1905771E-007  0.7501312E+03  0.7818608E-02  0.9831361E-01
         -2   -1    0    0    0  501 -0.00000000000E+00  0.00000000000E+00  0.32027434565E+03  0.32027434566E+03  0.25500000000E-02 0.  1.
          2   -1    0    0  501    0  0.00000000000E+00 -0.00000000000E+00 -0.22954594208E+04  0.22954594208E+04  0.25500000000E-02 0. -1.
    8880023    1    1    2    0    0  0.69495373167E+01 -0.35894048945E+03 -0.20804528237E+04  0.22115561781E+04  0.65864270000E+03 0.  0.
    8880022    1    1    2    0    0 -0.69495373167E+01  0.35894048945E+03  0.10526774853E+03  0.40417758836E+03  0.15294330000E+03 0.  0.
<mgrwt>
<rscale>  0 0.63706337E+03</rscale>
<asrwt>0</asrwt>
<pdfrwt beam="1">  1        2 0.35314759E+00 0.75013117E+03</pdfrwt>
<pdfrwt beam="2">  1       -2 0.49272978E-01 0.75013117E+03</pdfrwt>
<totfact> 0.18512452E+01</totfact>
</mgrwt>
</event>
<event>
 4    5  0.1905771E-007  0.6615038E+03  0.7818608E-02  0.1022666E+00
         -2   -1    0    0    0  501 -0.00000000000E+00  0.00000000000E+00  0.97276775321E+02  0.97276775354E+02  0.25500000000E-02 0.  1.
          2   -1    0    0  501    0  0.00000000000E+00 -0.00000000000E+00 -0.27150821701E+04  0.27150821701E+04  0.25500000000E-02 0. -1.
    8880023    1    1    2    0    0 -0.59539190627E+02 -0.15237079746E+02 -0.25495282144E+04  0.26339478746E+04  0.65864270000E+03 0. -1.
    8880022    1    1    2    0    0  0.59539190627E+02  0.15237079746E+02 -0.68277180337E+02  0.17841107082E+03  0.15294330000E+03 0.  0.
<mgrwt>
<rscale>  0 0.46736689E+03</rscale>
<asrwt>0</asrwt>
<pdfrwt beam="1">  1        2 0.41770489E+00 0.66150381E+03</pdfrwt>
<pdfrwt beam="2">  1       -2 0.14965660E-01 0.66150381E+03</pdfrwt>
<totfact> 0.96715387E+01</totfact>
</mgrwt>
</event>
<event>
 4    5  0.1905771E-007  0.8909522E+03  0.7818608E-02  0.9540715E-01
         -2   -1    0    0    0  501 -0.00000000000E+00  0.00000000000E+00  0.12673197477E+04  0.12673197477E+04  0.25500000000E-02 0.  1.
          2   -1    0    0  501    0  0.00000000000E+00 -0.00000000000E+00 -0.17719252651E+04  0.17719252651E+04  0.25500000000E-02 0. -1.
    8880023    1    1    2    0    0  0.56732101690E+03 -0.19527517595E+03 -0.15710424983E+04  0.18060925414E+04  0.65864270000E+03 0. -1.
    8880022    1    1    2    0    0 -0.56732101690E+03  0.19527517595E+03  0.10664369809E+04  0.12331524714E+04  0.15294330000E+03 0.  0.
<mgrwt>
<rscale>  0 0.81347473E+03</rscale>
<asrwt>0</asrwt>
<pdfrwt beam="1">  1        2 0.27260389E+00 0.89095215E+03</pdfrwt>
<pdfrwt beam="2">  1       -2 0.19497227E+00 0.89095215E+03</pdfrwt>
<totfact> 0.12997644E+00</totfact>
</mgrwt>
</event>
<event>
 4    5  0.1905771E-007  0.6704301E+03  0.7818608E-02  0.1015356E+00
          2   -1    0    0  501    0  0.00000000000E+00  0.00000000000E+00  0.34983524320E+04  0.34983524320E+04  0.25500000000E-02 0. -1.
         -2   -1    0    0    0  501 -0.00000000000E+00 -0.00000000000E+00 -0.14936626197E+03  0.14936626199E+03  0.25500000000E-02 0.  1.
    8880023    1    1    2    0    0  0.12309596967E+03  0.22663377157E+02  0.33815968698E+04  0.34474155309E+04  0.65864270000E+03 0. -1.
    8880022    1    1    2    0    0 -0.12309596967E+03 -0.22663377157E+02 -0.32610699738E+02  0.20030316315E+03  0.15294330000E+03 0.  0.
<mgrwt>
<rscale>  0 0.49400201E+03</rscale>
<asrwt>0</asrwt>
<pdfrwt beam="1">  1        2 0.53820807E+00 0.67043005E+03</pdfrwt>
<pdfrwt beam="2">  1       -2 0.22979425E-01 0.67043005E+03</pdfrwt>
<totfact> 0.14887642E+01</totfact>
</mgrwt>
</event>
<event>
 4    5  0.1905771E-007  0.7458935E+03  0.7818608E-02  0.9843101E-01
         -2   -1    0    0    0  501 -0.00000000000E+00  0.00000000000E+00  0.35943019362E+03  0.35943019363E+03  0.25500000000E-02 0.  1.
          2   -1    0    0  501    0  0.00000000000E+00 -0.00000000000E+00 -0.14646077129E+04  0.14646077129E+04  0.25500000000E-02 0. -1.
    8880023    1    1    2    0    0 -0.34946585417E+03 -0.20507310072E+02 -0.12157612153E+04  0.14263353294E+04  0.65864270000E+03 0. -1.
    8880022    1    1    2    0    0  0.34946585417E+03  0.20507310072E+02  0.11058369605E+03  0.39770257711E+03  0.15294330000E+03 0.  0.
<mgrwt>
<rscale>  0 0.63099932E+03</rscale>
<asrwt>0</asrwt>
<pdfrwt beam="1">  1        2 0.22532426E+00 0.74589352E+03</pdfrwt>
<pdfrwt beam="2">  1       -2 0.55296954E-01 0.74589352E+03</pdfrwt>
<totfact> 0.41778522E+01</totfact>
</mgrwt>
</event>
<event>
 4    5  0.1905771E-007  0.1445147E+04  0.7818608E-02  0.8949373E-01
          2   -1    0    0  501    0  0.00000000000E+00  0.00000000000E+00  0.93453004064E+03  0.93453004064E+03  0.25500000000E-02 0. -1.
         -2   -1    0    0    0  501 -0.00000000000E+00 -0.00000000000E+00 -0.24217905508E+04  0.24217905508E+04  0.25500000000E-02 0.  1.
    8880023    1    1    2    0    0  0.50611020850E+03  0.11825787271E+04 -0.14691732388E+04  0.20608057164E+04  0.65864270000E+03 0.  1.
    8880022    1    1    2    0    0 -0.50611020850E+03 -0.11825787271E+04 -0.18087271407E+02  0.12955148750E+04  0.15294330000E+03 0.  0.
<mgrwt>
<rscale>  0 0.14061578E+04</rscale>
<asrwt>0</asrwt>
<pdfrwt beam="1">  1        2 0.14377385E+00 0.14451471E+04</pdfrwt>
<pdfrwt beam="2">  1       -2 0.37258316E+00 0.14451471E+04</pdfrwt>
<totfact> 0.29719065E-01</totfact>
</mgrwt>
</event>
<event>
 4    5  0.1905771E-007  0.1049731E+04  0.7818608E-02  0.9319204E-01
         -2   -1    0    0    0  501 -0.00000000000E+00  0.00000000000E+00  0.65736985954E+03  0.65736985954E+03  0.25500000000E-02 0.  1.
          2   -1    0    0  501    0  0.00000000000E+00 -0.00000000000E+00 -0.16078687929E+04  0.16078687929E+04  0.25500000000E-02 0. -1.
    8880023    1    1    2    0    0  0.75212962810E+03 -0.32004179764E+03 -0.97588139931E+03  0.14332761219E+04  0.65864270000E+03 0.  0.
    8880022    1    1    2    0    0 -0.75212962810E+03  0.32004179764E+03  0.25382465952E+02  0.83196253058E+03  0.15294330000E+03 0.  0.
<mgrwt>
<rscale>  0 0.99033931E+03</rscale>
<asrwt>0</asrwt>
<pdfrwt beam="1">  1        2 0.24736443E+00 0.10497314E+04</pdfrwt>
<pdfrwt beam="2">  1       -2 0.10113382E+00 0.10497314E+04</pdfrwt>
<totfact> 0.87983905E+00</totfact>
</mgrwt>
</event>
<event>
 4    5  0.1905771E-007  0.1121860E+04  0.7818608E-02  0.9237100E-01
         -2   -1    0    0    0  501 -0.00000000000E+00  0.00000000000E+00  0.98010020009E+03  0.98010020010E+03  0.25500000000E-02 0.  1.
          2   -1    0    0  501    0  0.00000000000E+00 -0.00000000000E+00 -0.17119710905E+04  0.17119710905E+04  0.25500000000E-02 0. -1.
    8880023    1    1    2    0    0 -0.64497080782E+03  0.63935239143E+03 -0.12136377204E+04  0.16527206497E+04  0.65864270000E+03 0. -1.
    8880022    1    1    2    0    0  0.64497080782E+03 -0.63935239143E+03  0.48176682994E+03  0.10393506409E+04  0.15294330000E+03 0.  0.
<mgrwt>
<rscale>  0 0.10678568E+04</rscale>
<asrwt>0</asrwt>
<pdfrwt beam="1">  1        2 0.26338017E+00 0.11218596E+04</pdfrwt>
<pdfrwt beam="2">  1       -2 0.15078465E+00 0.11218596E+04</pdfrwt>
<totfact> 0.27975028E+00</totfact>
</mgrwt>
</event>
<event>
 4    5  0.1905771E-007  0.1096344E+04  0.7818608E-02  0.9265138E-01
         -2   -1    0    0    0  501 -0.00000000000E+00  0.00000000000E+00  0.71849455822E+03  0.71849455823E+03  0.25500000000E-02 0.  1.
          2   -1    0    0  501    0  0.00000000000E+00 -0.00000000000E+00 -0.26739674431E+04  0.26739674431E+04  0.25500000000E-02 0. -1.
    8880023    1    1    2    0    0  0.46064645258E+03  0.74562994318E+03 -0.22100703248E+04  0.24670590211E+04  0.65864270000E+03 0.  0.
    8880022    1    1    2    0    0 -0.46064645258E+03 -0.74562994318E+03  0.25459743996E+03  0.92540298027E+03  0.15294330000E+03 0.  0.
<mgrwt>
<rscale>  0 0.10405666E+04</rscale>
<asrwt>0</asrwt>
<pdfrwt beam="1">  1        2 0.41137960E+00 0.10963436E+04</pdfrwt>
<pdfrwt beam="2">  1       -2 0.11053763E+00 0.10963436E+04</pdfrwt>
<totfact> 0.17822898E+00</totfact>
</mgrwt>
</event>
<event>
 4    5  0.1905771E-007  0.8115835E+03  0.7818608E-02  0.9686288E-01
         -2   -1    0    0    0  501 -0.00000000000E+00  0.00000000000E+00  0.36543937914E+03  0.36543937915E+03  0.25500000000E-02 0.  1.
          2   -1    0    0  501    0  0.00000000000E+00 -0.00000000000E+00 -0.23432339739E+04  0.23432339739E+04  0.25500000000E-02 0. -1.
    8880023    1    1    2    0    0 -0.45935503394E+03  0.11768831096E+03 -0.20503882177E+04  0.22051665777E+04  0.65864270000E+03 0. -1.
    8880022    1    1    2    0    0  0.45935503394E+03 -0.11768831096E+03  0.72593622942E+02  0.50350677538E+03  0.15294330000E+03 0.  0.
<mgrwt>
<rscale>  0 0.71839103E+03</rscale>
<asrwt>0</asrwt>
<pdfrwt beam="1">  1        2 0.36049753E+00 0.81158351E+03</pdfrwt>
<pdfrwt beam="2">  1       -2 0.56221444E-01 0.81158351E+03</pdfrwt>
<totfact> 0.13153467E+01</totfact>
</mgrwt>
</event>
<event>
 4    5  0.1905771E-007  0.1062432E+04  0.7818608E-02  0.9304084E-01
          2   -1    0    0  501    0  0.00000000000E+00  0.00000000000E+00  0.19657013568E+04  0.19657013568E+04  0.25500000000E-02 0. -1.
         -2   -1    0    0    0  501 -0.00000000000E+00 -0.00000000000E+00 -0.10180956179E+04  0.10180956179E+04  0.25500000000E-02 0.  1.
    8880023    1    1    2    0    0  0.58664593591E+03  0.59228206573E+03  0.15955741724E+04  0.19169294837E+04  0.65864270000E+03 0. -1.
    8880022    1    1    2    0    0 -0.58664593591E+03 -0.59228206573E+03 -0.64796843358E+03  0.10668674910E+04  0.15294330000E+03 0.  0.
<mgrwt>
<rscale>  0 0.10040778E+04</rscale>
<asrwt>0</asrwt>
<pdfrwt beam="1">  1        2 0.30241559E+00 0.10624320E+04</pdfrwt>
<pdfrwt beam="2">  1       -2 0.15663010E+00 0.10624320E+04</pdfrwt>
<totfact> 0.18424819E+00</totfact>
</mgrwt>
</event>
<event>
 4    5  0.1905771E-007  0.9346597E+03  0.7818608E-02  0.9472538E-01
         -2   -1    0    0    0  501 -0.00000000000E+00  0.00000000000E+00  0.45531132183E+03  0.45531132183E+03  0.25500000000E-02 0.  1.
          2   -1    0    0  501    0  0.00000000000E+00 -0.00000000000E+00 -0.21591943452E+04  0.21591943452E+04  0.25500000000E-02 0. -1.
    8880023    1    1    2    0    0  0.43038315998E+03  0.50452840182E+03 -0.16929843283E+04  0.19338522991E+04  0.65864270000E+03 0.  0.
    8880022    1    1    2    0    0 -0.43038315998E+03 -0.50452840182E+03 -0.10898695017E+02  0.68065336788E+03  0.15294330000E+03 0.  0.
<mgrwt>
<rscale>  0 0.86339141E+03</rscale>
<asrwt>0</asrwt>
<pdfrwt beam="1">  1        2 0.33218374E+00 0.93465971E+03</pdfrwt>
<pdfrwt beam="2">  1       -2 0.70047897E-01 0.93465971E+03</pdfrwt>
<totfact> 0.10236894E+01</totfact>
</mgrwt>
</event>
<event>
 4    5  0.1905771E-007  0.8447293E+03  0.7818608E-02  0.9621326E-01
          2   -1    0    0  501    0  0.00000000000E+00  0.00000000000E+00  0.23809605344E+04  0.23809605344E+04  0.25500000000E-02 0. -1.
         -2   -1    0    0    0  501 -0.00000000000E+00 -0.00000000000E+00 -0.36843925294E+03  0.36843925295E+03  0.25500000000E-02 0.  1.
    8880023    1    1    2    0    0  0.52891861655E+03 -0.15585868989E+01  0.20297805658E+04  0.21985396707E+04  0.65864270000E+03 0.  0.
    8880022    1    1    2    0    0 -0.52891861655E+03  0.15585868989E+01 -0.17259284399E+02  0.55086011659E+03  0.15294330000E+03 0.  1.
<mgrwt>
<rscale>  0 0.75900593E+03</rscale>
<asrwt>0</asrwt>
<pdfrwt beam="1">  1        2 0.36630162E+00 0.84472927E+03</pdfrwt>
<pdfrwt beam="2">  1       -2 0.56682963E-01 0.84472927E+03</pdfrwt>
<totfact> 0.12258068E+01</totfact>
</mgrwt>
</event>
<event>
 4    5  0.1905771E-007  0.1179355E+04  0.7818608E-02  0.9177456E-01
          2   -1    0    0  501    0  0.00000000000E+00  0.00000000000E+00  0.13050596608E+04  0.13050596608E+04  0.25500000000E-02 0. -1.
         -2   -1    0    0    0  501 -0.00000000000E+00 -0.00000000000E+00 -0.12535199172E+04  0.12535199172E+04  0.25500000000E-02 0.  1.
    8880023    1    1    2    0    0  0.65992039630E+03  0.72220043458E+03  0.70330752029E+03  0.13731424076E+04  0.65864270000E+03 0.  0.
    8880022    1    1    2    0    0 -0.65992039630E+03 -0.72220043458E+03 -0.65176777675E+03  0.11854371704E+04  0.15294330000E+03 0.  0.
<mgrwt>
<rscale>  0 0.11289175E+04</rscale>
<asrwt>0</asrwt>
<pdfrwt beam="1">  1        2 0.20077841E+00 0.11793552E+04</pdfrwt>
<pdfrwt beam="2">  1       -2 0.19284922E+00 0.11793552E+04</pdfrwt>
<totfact> 0.23689669E+00</totfact>
</mgrwt>
</event>
<event>
 4    5  0.1905771E-007  0.9235297E+03  0.7818608E-02  0.9489268E-01
          2   -1    0    0  501    0  0.00000000000E+00  0.00000000000E+00  0.21447720054E+04  0.21447720054E+04  0.25500000000E-02 0. -1.
         -2   -1    0    0    0  501 -0.00000000000E+00 -0.00000000000E+00 -0.10946623989E+04  0.10946623989E+04  0.25500000000E-02 0.  1.
    8880023    1    1    2    0    0 -0.63548435646E+03 -0.12351709557E+03  0.19281252282E+04  0.21378900678E+04  0.65864270000E+03 0.  0.
    8880022    1    1    2    0    0  0.63548435646E+03  0.12351709557E+03 -0.87801562167E+03  0.11015443364E+04  0.15294330000E+03 0.  0.
<mgrwt>
<rscale>  0 0.85079688E+03</rscale>
<asrwt>0</asrwt>
<pdfrwt beam="1">  1        2 0.32996492E+00 0.92352967E+03</pdfrwt>
<pdfrwt beam="2">  1       -2 0.16840960E+00 0.92352967E+03</pdfrwt>
<totfact> 0.12273768E+00</totfact>
</mgrwt>
</event>
<event>
 4    5  0.1905771E-007  0.7866461E+03  0.7818608E-02  0.9740450E-01
         -2   -1    0    0    0  501 -0.00000000000E+00  0.00000000000E+00  0.26232315094E+03  0.26232315095E+03  0.25500000000E-02 0.  1.
          2   -1    0    0  501    0  0.00000000000E+00 -0.00000000000E+00 -0.19318920272E+04  0.19318920272E+04  0.25500000000E-02 0. -1.
    8880023    1    1    2    0    0  0.42630710545E+03 -0.57133060430E+02 -0.15240316148E+04  0.17150756554E+04  0.65864270000E+03 0.  0.
    8880022    1    1    2    0    0 -0.42630710545E+03  0.57133060430E+02 -0.14553726150E+03  0.47913952274E+03  0.15294330000E+03 0.  0.
<mgrwt>
<rscale>  0 0.68658625E+03</rscale>
<asrwt>0</asrwt>
<pdfrwt beam="1">  1        2 0.29721415E+00 0.78664613E+03</pdfrwt>
<pdfrwt beam="2">  1       -2 0.40357409E-01 0.78664613E+03</pdfrwt>
<totfact> 0.43427838E+01</totfact>
</mgrwt>
</event>
<event>
 4    5  0.1905771E-007  0.7126457E+03  0.7818608E-02  0.9948305E-01
          2   -1    0    0  501    0  0.00000000000E+00  0.00000000000E+00  0.25526494652E+04  0.25526494652E+04  0.25500000000E-02 0. -1.
         -2   -1    0    0    0  501 -0.00000000000E+00 -0.00000000000E+00 -0.14945916856E+03  0.14945916858E+03  0.25500000000E-02 0.  1.
    8880023    1    1    2    0    0  0.10137216753E+03 -0.25254183329E+03  0.22384284176E+04  0.23491329637E+04  0.65864270000E+03 0.  1.
    8880022    1    1    2    0    0 -0.10137216753E+03  0.25254183329E+03  0.16476187905E+03  0.35297567014E+03  0.15294330000E+03 0.  0.
<mgrwt>
<rscale>  0 0.57976286E+03</rscale>
<asrwt>0</asrwt>
<pdfrwt beam="1">  1        2 0.39271530E+00 0.71264570E+03</pdfrwt>
<pdfrwt beam="2">  1       -2 0.22993718E-01 0.71264570E+03</pdfrwt>
<totfact> 0.56592663E+01</totfact>
</mgrwt>
</event>
<event>
 4    5  0.1905771E-007  0.9870898E+03  0.7818608E-02  0.9398646E-01
          2   -1    0    0  501    0  0.00000000000E+00  0.00000000000E+00  0.30669447834E+04  0.30669447834E+04  0.25500000000E-02 0. -1.
         -2   -1    0    0    0  501 -0.00000000000E+00 -0.00000000000E+00 -0.78329501461E+03  0.78329501461E+03  0.25500000000E-02 0.  1.
    8880023    1    1    2    0    0 -0.48651174122E+03  0.55121894169E+03  0.27800243045E+04  0.29500646325E+04  0.65864270000E+03 0. -1.
    8880022    1    1    2    0    0  0.48651174122E+03 -0.55121894169E+03 -0.49637453567E+03  0.90017516556E+03  0.15294330000E+03 0.  0.
<mgrwt>
<rscale>  0 0.92187154E+03</rscale>
<asrwt>0</asrwt>
<pdfrwt beam="1">  1        2 0.47183766E+00 0.98708976E+03</pdfrwt>
<pdfrwt beam="2">  1       -2 0.12050693E+00 0.98708976E+03</pdfrwt>
<totfact> 0.84828564E-01</totfact>
</mgrwt>
</event>
<event>
 4    5  0.1905771E-007  0.9690090E+03  0.7818608E-02  0.9423276E-01
         -2   -1    0    0    0  501 -0.00000000000E+00  0.00000000000E+00  0.84643660595E+03  0.84643660596E+03  0.25500000000E-02 0.  1.
          2   -1    0    0  501    0  0.00000000000E+00 -0.00000000000E+00 -0.13155744684E+04  0.13155744684E+04  0.25500000000E-02 0. -1.
    8880023    1    1    2    0    0 -0.65387207540E+03  0.27860287983E+03 -0.89529774772E+03  0.13192939471E+04  0.65864270000E+03 0.  0.
    8880022    1    1    2    0    0  0.65387207540E+03 -0.27860287983E+03  0.42615988529E+03  0.84271712720E+03  0.15294330000E+03 0.  0.
<mgrwt>
<rscale>  0 0.90184653E+03</rscale>
<asrwt>0</asrwt>
<pdfrwt beam="1">  1        2 0.20239607E+00 0.96900901E+03</pdfrwt>
<pdfrwt beam="2">  1       -2 0.13022102E+00 0.96900901E+03</pdfrwt>
<totfact> 0.69704410E+00</totfact>
</mgrwt>
</event>
<event>
 4    5  0.1905771E-007  0.8296446E+03  0.7818608E-02  0.9650024E-01
         -2   -1    0    0    0  501 -0.00000000000E+00  0.00000000000E+00  0.69099155819E+03  0.69099155819E+03  0.25500000000E-02 0.  1.
          2   -1    0    0  501    0  0.00000000000E+00 -0.00000000000E+00 -0.10563623031E+04  0.10563623031E+04  0.25500000000E-02 0. -1.
    8880023    1    1    2    0    0 -0.12945869715E+03 -0.48758638103E+03 -0.73105440287E+03  0.11057806199E+04  0.65864270000E+03 0. -1.
    8880022    1    1    2    0    0  0.12945869715E+03  0.48758638103E+03  0.36568365799E+03  0.64157324131E+03  0.15294330000E+03 0.  0.
<mgrwt>
<rscale>  0 0.74071908E+03</rscale>
<asrwt>0</asrwt>
<pdfrwt beam="1">  1        2 0.16251728E+00 0.82964465E+03</pdfrwt>
<pdfrwt beam="2">  1       -2 0.10630639E+00 0.82964465E+03</pdfrwt>
<totfact> 0.16697292E+01</totfact>
</mgrwt>
</event>
<event>
 4    5  0.2581299E-007  0.1233917E+04  0.7818608E-02  0.9124837E-01
         -2   -1    0    0    0  501 -0.00000000000E+00  0.00000000000E+00  0.19698962050E+04  0.19698962050E+04  0.25500000000E-02 0.  1.
          2   -1    0    0  501    0  0.00000000000E+00 -0.00000000000E+00 -0.20503282266E+04  0.20503282266E+04  0.25500000000E-02 0. -1.
    8880023    1    1    2    0    0  0.85999696686E+03  0.59088613951E+03 -0.16920826102E+04  0.20942050948E+04  0.65864270000E+03 0.  0.
    8880022    1    1    2    0    0 -0.85999696686E+03 -0.59088613951E+03  0.16116505886E+04  0.19260193368E+04  0.15294330000E+03 0.  0.
<mgrwt>
<rscale>  0 0.11864080E+04</rscale>
<asrwt>0</asrwt>
<pdfrwt beam="1">  1        2 0.31543511E+00 0.12339171E+04</pdfrwt>
<pdfrwt beam="2">  1       -2 0.30306095E+00 0.12339171E+04</pdfrwt>
<totfact> 0.18540341E-01</totfact>
</mgrwt>
</event>
<event>
 4    5  0.1905771E-007  0.7143911E+03  0.7818608E-02  0.9942042E-01
          2   -1    0    0  501    0  0.00000000000E+00  0.00000000000E+00  0.39291654650E+04  0.39291654650E+04  0.25500000000E-02 0. -1.
         -2   -1    0    0    0  501 -0.00000000000E+00 -0.00000000000E+00 -0.18145058530E+03  0.18145058531E+03  0.25500000000E-02 0.  1.
    8880023    1    1    2    0    0 -0.24341963779E+03 -0.13149669241E+03  0.37258651300E+04  0.37937350557E+04  0.65864270000E+03 0. -1.
    8880022    1    1    2    0    0  0.24341963779E+03  0.13149669241E+03  0.21849749788E+02  0.31688099463E+03  0.15294330000E+03 0.  0.
<mgrwt>
<rscale>  0 0.58266291E+03</rscale>
<asrwt>0</asrwt>
<pdfrwt beam="1">  1        2 0.60448690E+00 0.71439114E+03</pdfrwt>
<pdfrwt beam="2">  1       -2 0.27915479E-01 0.71439114E+03</pdfrwt>
<totfact> 0.50692858E+00</totfact>
</mgrwt>
</event>
<event>
 4    5  0.1905771E-007  0.8053978E+03  0.7818608E-02  0.9699244E-01
         -2   -1    0    0    0  501 -0.00000000000E+00  0.00000000000E+00  0.34556163520E+03  0.34556163521E+03  0.25500000000E-02 0.  1.
          2   -1    0    0  501    0  0.00000000000E+00 -0.00000000000E+00 -0.15619543955E+04  0.15619543955E+04  0.25500000000E-02 0. -1.
    8880023    1    1    2    0    0 -0.30801088826E+03  0.34638817426E+03 -0.11655811429E+04  0.14167727699E+04  0.65864270000E+03 0. -1.
    8880022    1    1    2    0    0  0.30801088826E+03 -0.34638817426E+03 -0.50811617376E+02  0.49074326081E+03  0.15294330000E+03 0.  0.
<mgrwt>
<rscale>  0 0.71061816E+03</rscale>
<asrwt>0</asrwt>
<pdfrwt beam="1">  1        2 0.24030067E+00 0.80539784E+03</pdfrwt>
<pdfrwt beam="2">  1       -2 0.53163330E-01 0.80539784E+03</pdfrwt>
<totfact> 0.39756940E+01</totfact>
</mgrwt>
</event>
<event>
 4    5  0.1905771E-007  0.8419257E+03  0.7818608E-02  0.9626560E-01
          2   -1    0    0  501    0  0.00000000000E+00  0.00000000000E+00  0.11591462629E+04  0.11591462629E+04  0.25500000000E-02 0. -1.
         -2   -1    0    0    0  501 -0.00000000000E+00 -0.00000000000E+00 -0.41708861429E+03  0.41708861430E+03  0.25500000000E-02 0.  1.
    8880023    1    1    2    0    0 -0.51355346421E+03  0.10626156168E+03  0.40425492515E+03  0.93394910507E+03  0.65864270000E+03 0. -1.
    8880022    1    1    2    0    0  0.51355346421E+03 -0.10626156168E+03  0.33780272348E+03  0.64228577214E+03  0.15294330000E+03 0. -1.
<mgrwt>
<rscale>  0 0.75562945E+03</rscale>
<asrwt>0</asrwt>
<pdfrwt beam="1">  1        2 0.17833019E+00 0.84192570E+03</pdfrwt>
<pdfrwt beam="2">  1       -2 0.64167479E-01 0.84192570E+03</pdfrwt>
<totfact> 0.45400505E+01</totfact>
</mgrwt>
</event>
<event>
 4    5  0.1905771E-007  0.8156368E+03  0.7818608E-02  0.9677953E-01
         -2   -1    0    0    0  501 -0.00000000000E+00  0.00000000000E+00  0.58165034459E+03  0.58165034460E+03  0.25500000000E-02 0.  1.
          2   -1    0    0  501    0  0.00000000000E+00 -0.00000000000E+00 -0.16881320014E+04  0.16881320014E+04  0.25500000000E-02 0. -1.
    8880023    1    1    2    0    0 -0.13564694181E+03  0.46157681460E+03 -0.14468637980E+04  0.16609269415E+04  0.65864270000E+03 0. -1.
    8880022    1    1    2    0    0  0.13564694181E+03 -0.46157681460E+03  0.34038214119E+03  0.60885540455E+03  0.15294330000E+03 0.  0.
<mgrwt>
<rscale>  0 0.72344766E+03</rscale>
<asrwt>0</asrwt>
<pdfrwt beam="1">  1        2 0.25971261E+00 0.81563684E+03</pdfrwt>
<pdfrwt beam="2">  1       -2 0.89484669E-01 0.81563684E+03</pdfrwt>
<totfact> 0.10868919E+01</totfact>
</mgrwt>
</event>
<event>
 4    5  0.1905771E-007  0.6742457E+03  0.7818608E-02  0.1012786E+00
          2   -1    0    0  501    0  0.00000000000E+00  0.00000000000E+00  0.21893595528E+04  0.21893595528E+04  0.25500000000E-02 0. -1.
         -2   -1    0    0    0  501 -0.00000000000E+00 -0.00000000000E+00 -0.19793352513E+03  0.19793352515E+03  0.25500000000E-02 0.  1.
    8880023    1    1    2    0    0 -0.11925845374E+03 -0.81082868719E+02  0.20589231741E+04  0.21665114478E+04  0.65864270000E+03 0. -1.
    8880022    1    1    2    0    0  0.11925845374E+03  0.81082868719E+02 -0.67497146484E+02  0.22078163009E+03  0.15294330000E+03 0.  0.
<mgrwt>
<rscale>  0 0.50382241E+03</rscale>
<asrwt>0</asrwt>
<pdfrwt beam="1">  1        2 0.33682456E+00 0.67424566E+03</pdfrwt>
<pdfrwt beam="2">  1       -2 0.30451310E-01 0.67424566E+03</pdfrwt>
<totfact> 0.54463513E+01</totfact>
</mgrwt>
</event>
<event>
 4    5  0.1905771E-007  0.9012896E+03  0.7818608E-02  0.9523965E-01
          2   -1    0    0  501    0  0.00000000000E+00  0.00000000000E+00  0.88073160997E+03  0.88073160997E+03  0.25500000000E-02 0. -1.
         -2   -1    0    0    0  501 -0.00000000000E+00 -0.00000000000E+00 -0.92468924684E+03  0.92468924685E+03  0.25500000000E-02 0.  1.
    8880023    1    1    2    0    0  0.55819469509E+03 -0.25871109618E+03  0.44466335062E+03  0.10050116669E+04  0.65864270000E+03 0. -1.
    8880022    1    1    2    0    0 -0.55819469509E+03  0.25871109618E+03 -0.48862098750E+03  0.80040918994E+03  0.15294330000E+03 0.  0.
<mgrwt>
<rscale>  0 0.82539839E+03</rscale>
<asrwt>0</asrwt>
<pdfrwt beam="1">  1        2 0.13549717E+00 0.90128961E+03</pdfrwt>
<pdfrwt beam="2">  1       -2 0.14225988E+00 0.90128961E+03</pdfrwt>
<totfact> 0.10417373E+01</totfact>
</mgrwt>
</event>
<event>
 4    5  0.1905771E-007  0.6640789E+03  0.7818608E-02  0.1020319E+00
         -2   -1    0    0    0  501 -0.00000000000E+00  0.00000000000E+00  0.37466732640E+03  0.37466732640E+03  0.25500000000E-02 0.  1.
          2   -1    0    0  501    0  0.00000000000E+00 -0.00000000000E+00 -0.12687385574E+04  0.12687385574E+04  0.25500000000E-02 0. -1.
    8880023    1    1    2    0    0  0.27429751557E+02 -0.80237932668E+02 -0.11532279128E+04  0.13307649463E+04  0.65864270000E+03 0. -1.
    8880022    1    1    2    0    0 -0.27429751557E+02  0.80237932668E+02  0.25915668178E+03  0.31264093755E+03  0.15294330000E+03 0.  0.
<mgrwt>
<rscale>  0 0.47571657E+03</rscale>
<asrwt>0</asrwt>
<pdfrwt beam="1">  1        2 0.19519055E+00 0.66407885E+03</pdfrwt>
<pdfrwt beam="2">  1       -2 0.57641128E-01 0.66407885E+03</pdfrwt>
<totfact> 0.49944753E+01</totfact>
</mgrwt>
</event>
<event>
 4    5  0.2282983E-007  0.9855154E+03  0.7818608E-02  0.9400758E-01
          2   -1    0    0  501    0  0.00000000000E+00  0.00000000000E+00  0.28247096785E+04  0.28247096785E+04  0.25500000000E-02 0. -1.
         -2   -1    0    0    0  501 -0.00000000000E+00 -0.00000000000E+00 -0.11191612646E+04  0.11191612646E+04  0.25500000000E-02 0.  1.
    8880023    1    1    2    0    0  0.21281312820E+03 -0.70152766451E+03  0.25981183959E+04  0.27787514997E+04  0.65864270000E+03 0. -1.
    8880022    1    1    2    0    0 -0.21281312820E+03  0.70152766451E+03 -0.89256998200E+03  0.11651194434E+04  0.15294330000E+03 0.  0.
<mgrwt>
<rscale>  0 0.92013324E+03</rscale>
<asrwt>0</asrwt>
<pdfrwt beam="1">  1        2 0.43457072E+00 0.98551545E+03</pdfrwt>
<pdfrwt beam="2">  1       -2 0.17217866E+00 0.98551545E+03</pdfrwt>
<totfact> 0.46641436E-01</totfact>
</mgrwt>
</event>
<event>
 4    5  0.1905771E-007  0.7008816E+03  0.7818608E-02  0.9993563E-01
         -2   -1    0    0    0  501 -0.00000000000E+00  0.00000000000E+00  0.63515455021E+03  0.63515455022E+03  0.25500000000E-02 0.  1.
          2   -1    0    0  501    0  0.00000000000E+00 -0.00000000000E+00 -0.12746485901E+04  0.12746485901E+04  0.25500000000E-02 0. -1.
    8880023    1    1    2    0    0  0.46877225681E+02  0.23500500298E+03 -0.11376613289E+04  0.13362291463E+04  0.65864270000E+03 0. -1.
    8880022    1    1    2    0    0 -0.46877225681E+02 -0.23500500298E+03  0.49816728907E+03  0.57357399403E+03  0.15294330000E+03 0.  0.
<mgrwt>
<rscale>  0 0.55933370E+03</rscale>
<asrwt>0</asrwt>
<pdfrwt beam="1">  1        2 0.19609978E+00 0.70088161E+03</pdfrwt>
<pdfrwt beam="2">  1       -2 0.97716085E-01 0.70088161E+03</pdfrwt>
<totfact> 0.15320909E+01</totfact>
</mgrwt>
</event>
<event>
 4    5  0.1905771E-007  0.9263975E+03  0.7818608E-02  0.9484919E-01
         -2   -1    0    0    0  501 -0.00000000000E+00  0.00000000000E+00  0.74147214875E+03  0.74147214875E+03  0.25500000000E-02 0.  1.
          2   -1    0    0  501    0  0.00000000000E+00 -0.00000000000E+00 -0.27835731340E+04  0.27835731340E+04  0.25500000000E-02 0. -1.
    8880023    1    1    2    0    0  0.65045121933E+03  0.36268631932E+02 -0.25317117913E+04  0.26958814890E+04  0.65864270000E+03 0.  0.
    8880022    1    1    2    0    0 -0.65045121933E+03 -0.36268631932E+02  0.48961080605E+03  0.82916379372E+03  0.15294330000E+03 0.  0.
<mgrwt>
<rscale>  0 0.85404905E+03</rscale>
<asrwt>0</asrwt>
<pdfrwt beam="1">  1        2 0.42824202E+00 0.92639754E+03</pdfrwt>
<pdfrwt beam="2">  1       -2 0.11407264E+00 0.92639754E+03</pdfrwt>
<totfact> 0.14592972E+00</totfact>
</mgrwt>
</event>
<event>
 4    5  0.1905771E-007  0.1269786E+04  0.7818608E-02  0.9092101E-01
          2   -1    0    0  501    0  0.00000000000E+00  0.00000000000E+00  0.17790243216E+04  0.17790243216E+04  0.25500000000E-02 0. -1.
         -2   -1    0    0    0  501 -0.00000000000E+00 -0.00000000000E+00 -0.17316582888E+04  0.17316582888E+04  0.25500000000E-02 0.  1.
    8880023    1    1    2    0    0 -0.64741288640E+03 -0.87143736746E+03  0.13195538160E+04  0.18312779719E+04  0.65864270000E+03 0.  0.
    8880022    1    1    2    0    0  0.64741288640E+03  0.87143736746E+03 -0.12721877832E+04  0.16794046385E+04  0.15294330000E+03 0.  0.
<mgrwt>
<rscale>  0 0.12240050E+04</rscale>
<asrwt>0</asrwt>
<pdfrwt beam="1">  1        2 0.27369605E+00 0.12697861E+04</pdfrwt>
<pdfrwt beam="2">  1       -2 0.26640897E+00 0.12697861E+04</pdfrwt>
<totfact> 0.43561359E-01</totfact>
</mgrwt>
</event>
<event>
 4    5  0.1905771E-007  0.8485002E+03  0.7818608E-02  0.9614356E-01
         -2   -1    0    0    0  501 -0.00000000000E+00  0.00000000000E+00  0.17056029039E+03  0.17056029041E+03  0.25500000000E-02 0.  1.
          2   -1    0    0  501    0  0.00000000000E+00 -0.00000000000E+00 -0.32307646196E+04  0.32307646196E+04  0.25500000000E-02 0. -1.
    8880023    1    1    2    0    0 -0.15984507993E+03 -0.51048207285E+03 -0.23542586480E+04  0.25024960308E+04  0.65864270000E+03 0.  0.
    8880022    1    1    2    0    0  0.15984507993E+03  0.51048207285E+03 -0.70594568127E+03  0.89882887927E+03  0.15294330000E+03 0.  0.
<mgrwt>
<rscale>  0 0.76353248E+03</rscale>
<asrwt>0</asrwt>
<pdfrwt beam="1">  1        2 0.49704066E+00 0.84850021E+03</pdfrwt>
<pdfrwt beam="2">  1       -2 0.26240047E-01 0.84850021E+03</pdfrwt>
<totfact> 0.17068585E+01</totfact>
</mgrwt>
</event>
<event>
 4    5  0.1905771E-007  0.7576543E+03  0.7818608E-02  0.9811218E-01
          2   -1    0    0  501    0  0.00000000000E+00  0.00000000000E+00  0.32632703307E+04  0.32632703307E+04  0.25500000000E-02 0. -1.
         -2   -1    0    0    0  501 -0.00000000000E+00 -0.00000000000E+00 -0.13860418066E+03  0.13860418069E+03  0.25500000000E-02 0.  1.
    8880023    1    1    2    0    0  0.37417493206E+03 -0.14933060243E+02  0.10904178316E+04  0.13277993560E+04  0.65864270000E+03 0.  1.
    8880022    1    1    2    0    0 -0.37417493206E+03  0.14933060243E+02  0.20342483184E+04  0.20740751554E+04  0.15294330000E+03 0.  0.
<mgrwt>
<rscale>  0 0.64763959E+03</rscale>
<asrwt>0</asrwt>
<pdfrwt beam="1">  1        2 0.50204156E+00 0.75765433E+03</pdfrwt>
<pdfrwt beam="2">  1       -2 0.21323721E-01 0.75765433E+03</pdfrwt>
<totfact> 0.23934915E+01</totfact>
</mgrwt>
</event>
<event>
 4    5  0.1905771E-007  0.1520600E+04  0.7818608E-02  0.8895225E-01
         -2   -1    0    0    0  501 -0.00000000000E+00  0.00000000000E+00  0.17984818167E+04  0.17984818167E+04  0.25500000000E-02 0.  1.
          2   -1    0    0  501    0  0.00000000000E+00 -0.00000000000E+00 -0.18984777326E+04  0.18984777326E+04  0.25500000000E-02 0. -1.
    8880023    1    1    2    0    0  0.76418960424E+02  0.13684205699E+04 -0.11966662795E+04  0.19350026109E+04  0.65864270000E+03 0. -1.
    8880022    1    1    2    0    0 -0.76418960424E+02 -0.13684205699E+04  0.10966703635E+04  0.17619569384E+04  0.15294330000E+03 0.  0.
<mgrwt>
<rscale>  0 0.14839083E+04</rscale>
<asrwt>0</asrwt>
<pdfrwt beam="1">  1        2 0.29207350E+00 0.15206002E+04</pdfrwt>
<pdfrwt beam="2">  1       -2 0.27668951E+00 0.15206002E+04</pdfrwt>
<totfact> 0.31407572E-01</totfact>
</mgrwt>
</event>
<event>
 4    5  0.1905771E-007  0.1443860E+04  0.7818608E-02  0.8950331E-01
          2   -1    0    0  501    0  0.00000000000E+00  0.00000000000E+00  0.14290950622E+04  0.14290950622E+04  0.25500000000E-02 0. -1.
         -2   -1    0    0    0  501 -0.00000000000E+00 -0.00000000000E+00 -0.20080169878E+04  0.20080169878E+04  0.25500000000E-02 0.  1.
    8880023    1    1    2    0    0  0.12186264246E+04 -0.40727333170E+03  0.71152981912E+03  0.16096604671E+04  0.65864270000E+03 0. -1.
    8880022    1    1    2    0    0 -0.12186264246E+04  0.40727333170E+03 -0.12904517447E+04  0.18274515829E+04  0.15294330000E+03 0.  0.
<mgrwt>
<rscale>  0 0.14048289E+04</rscale>
<asrwt>0</asrwt>
<pdfrwt beam="1">  1        2 0.21986078E+00 0.14438602E+04</pdfrwt>
<pdfrwt beam="2">  1       -2 0.30892569E+00 0.14438602E+04</pdfrwt>
<totfact> 0.36979018E-01</totfact>
</mgrwt>
</event>
<event>
 4    5  0.1905771E-007  0.1109644E+04  0.7818608E-02  0.9250394E-01
          2   -1    0    0  501    0  0.00000000000E+00  0.00000000000E+00  0.32727774141E+04  0.32727774141E+04  0.25500000000E-02 0. -1.
         -2   -1    0    0    0  501 -0.00000000000E+00 -0.00000000000E+00 -0.12607868622E+04  0.12607868622E+04  0.25500000000E-02 0.  1.
    8880023    1    1    2    0    0  0.83979239528E+03  0.30372357989E+03  0.29966434478E+04  0.31954939273E+04  0.65864270000E+03 0. -1.
    8880022    1    1    2    0    0 -0.83979239528E+03 -0.30372357989E+03 -0.98465289596E+03  0.13380703489E+04  0.15294330000E+03 0.  0.
<mgrwt>
<rscale>  0 0.10548079E+04</rscale>
<asrwt>0</asrwt>
<pdfrwt beam="1">  1        2 0.50350421E+00 0.11096439E+04</pdfrwt>
<pdfrwt beam="2">  1       -2 0.19396721E+00 0.11096439E+04</pdfrwt>
<totfact> 0.16991424E-01</totfact>
</mgrwt>
</event>
<event>
 4    5  0.1905771E-007  0.6687297E+03  0.7818608E-02  0.1016590E+00
          2   -1    0    0  501    0  0.00000000000E+00  0.00000000000E+00  0.41011668241E+03  0.41011668242E+03  0.25500000000E-02 0. -1.
         -2   -1    0    0    0  501 -0.00000000000E+00 -0.00000000000E+00 -0.94883727695E+03  0.94883727695E+03  0.25500000000E-02 0.  1.
    8880023    1    1    2    0    0 -0.41201603838E+02  0.10812772989E+03  0.11423455811E+03  0.67841647876E+03  0.65864270000E+03 0. -1.
    8880022    1    1    2    0    0  0.41201603838E+02 -0.10812772989E+03 -0.65295515264E+03  0.68053748061E+03  0.15294330000E+03 0.  0.
<mgrwt>
<rscale>  0 0.48937372E+03</rscale>
<asrwt>0</asrwt>
<pdfrwt beam="1">  1        2 0.63094874E-01 0.66872968E+03</pdfrwt>
<pdfrwt beam="2">  1       -2 0.14597497E+00 0.66872968E+03</pdfrwt>
<totfact> 0.25373717E+01</totfact>
</mgrwt>
</event>
<event>
 4    5  0.1905771E-007  0.1196430E+04  0.7818608E-02  0.9160600E-01
         -2   -1    0    0    0  501 -0.00000000000E+00  0.00000000000E+00  0.10857679248E+04  0.10857679248E+04  0.25500000000E-02 0.  1.
          2   -1    0    0  501    0  0.00000000000E+00 -0.00000000000E+00 -0.14195486246E+04  0.14195486246E+04  0.25500000000E-02 0. -1.
    8880023    1    1    2    0    0  0.17434443866E+03  0.98348282800E+03  0.39446131373E+03  0.12597795008E+04  0.65864270000E+03 0.  0.
    8880022    1    1    2    0    0 -0.17434443866E+03 -0.98348282800E+03 -0.72824201350E+03  0.12455370486E+04  0.15294330000E+03 0.  0.
<mgrwt>
<rscale>  0 0.11469515E+04</rscale>
<asrwt>0</asrwt>
<pdfrwt beam="1">  1        2 0.21839210E+00 0.11964300E+04</pdfrwt>
<pdfrwt beam="2">  1       -2 0.16704122E+00 0.11964300E+04</pdfrwt>
<totfact> 0.30657673E+00</totfact>
</mgrwt>
</event>
<event>
 4    5  0.1905771E-007  0.1344341E+04  0.7818608E-02  0.9028184E-01
          2   -1    0    0  501    0  0.00000000000E+00  0.00000000000E+00  0.20386507809E+04  0.20386507809E+04  0.25500000000E-02 0. -1.
         -2   -1    0    0    0  501 -0.00000000000E+00 -0.00000000000E+00 -0.10469664503E+04  0.10469664503E+04  0.25500000000E-02 0.  1.
    8880023    1    1    2    0    0  0.11394929367E+04  0.27385809359E+03  0.12937439724E+04  0.18657508088E+04  0.65864270000E+03 0.  0.
    8880022    1    1    2    0    0 -0.11394929367E+04 -0.27385809359E+03 -0.30205964179E+03  0.12198664223E+04  0.15294330000E+03 0.  0.
<mgrwt>
<rscale>  0 0.13017428E+04</rscale>
<asrwt>0</asrwt>
<pdfrwt beam="1">  1        2 0.31363858E+00 0.13443410E+04</pdfrwt>
<pdfrwt beam="2">  1       -2 0.16107176E+00 0.13443410E+04</pdfrwt>
<totfact> 0.15058386E+00</totfact>
</mgrwt>
</event>
<event>
 4    5  0.1905771E-007  0.6939252E+03  0.7818608E-02  0.1002340E+00
          2   -1    0    0  501    0  0.00000000000E+00  0.00000000000E+00  0.43948533190E+04  0.43948533190E+04  0.25500000000E-02 0. -1.
         -2   -1    0    0    0  501 -0.00000000000E+00 -0.00000000000E+00 -0.19188670185E+03  0.19188670187E+03  0.25500000000E-02 0.  1.
    8880023    1    1    2    0    0  0.14307713013E+03 -0.16507855171E+03  0.42582314211E+04  0.43144022802E+04  0.65864270000E+03 0. -1.
    8880022    1    1    2    0    0 -0.14307713013E+03  0.16507855171E+03 -0.55264803997E+02  0.27233774064E+03  0.15294330000E+03 0.  0.
<mgrwt>
<rscale>  0 0.54635965E+03</rscale>
<asrwt>0</asrwt>
<pdfrwt beam="1">  1        2 0.67613129E+00 0.69392521E+03</pdfrwt>
<pdfrwt beam="2">  1       -2 0.29521030E-01 0.69392521E+03</pdfrwt>
<totfact> 0.18782437E+00</totfact>
</mgrwt>
</event>
<event>
 4    5  0.1905771E-007  0.6744474E+03  0.7818608E-02  0.1012657E+00
         -2   -1    0    0    0  501 -0.00000000000E+00  0.00000000000E+00  0.12203390724E+03  0.12203390727E+03  0.25500000000E-02 0.  1.
          2   -1    0    0  501    0  0.00000000000E+00 -0.00000000000E+00 -0.27205020337E+04  0.27205020337E+04  0.25500000000E-02 0. -1.
    8880023    1    1    2    0    0 -0.14091115010E+03 -0.34829985188E+02 -0.25337387486E+04  0.26219670731E+04  0.65864270000E+03 0. -1.
    8880022    1    1    2    0    0  0.14091115010E+03  0.34829985188E+02 -0.64729377862E+02  0.22056886785E+03  0.15294330000E+03 0.  0.
<mgrwt>
<rscale>  0 0.50432226E+03</rscale>
<asrwt>0</asrwt>
<pdfrwt beam="1">  1        2 0.41853873E+00 0.67444739E+03</pdfrwt>
<pdfrwt beam="2">  1       -2 0.18774449E-01 0.67444739E+03</pdfrwt>
<totfact> 0.65044857E+01</totfact>
</mgrwt>
</event>
<event>
 4    5  0.1905771E-007  0.8819601E+03  0.7818608E-02  0.9555635E-01
         -2   -1    0    0    0  501 -0.00000000000E+00  0.00000000000E+00  0.90878337398E+03  0.90878337399E+03  0.25500000000E-02 0.  1.
          2   -1    0    0  501    0  0.00000000000E+00 -0.00000000000E+00 -0.66166626040E+03  0.66166626040E+03  0.25500000000E-02 0. -1.
    8880023    1    1    2    0    0 -0.40696221916E+03 -0.42240393602E+03  0.36223628269E+03  0.95345092362E+03  0.65864270000E+03 0.  1.
    8880022    1    1    2    0    0  0.40696221916E+03  0.42240393602E+03 -0.11511916910E+03  0.61699871078E+03  0.15294330000E+03 0.  0.
<mgrwt>
<rscale>  0 0.80303459E+03</rscale>
<asrwt>0</asrwt>
<pdfrwt beam="1">  1        2 0.10179481E+00 0.88196006E+03</pdfrwt>
<pdfrwt beam="2">  1       -2 0.13981283E+00 0.88196006E+03</pdfrwt>
<totfact> 0.15887738E+01</totfact>
</mgrwt>
</event>
<event>
 4    5  0.1905771E-007  0.1830802E+04  0.7818608E-02  0.8705686E-01
         -2   -1    0    0    0  501 -0.00000000000E+00  0.00000000000E+00  0.13829665480E+04  0.13829665480E+04  0.25500000000E-02 0.  1.
          2   -1    0    0  501    0  0.00000000000E+00 -0.00000000000E+00 -0.34517681088E+04  0.34517681088E+04  0.25500000000E-02 0. -1.
    8880023    1    1    2    0    0  0.36219579946E+03  0.16693835465E+04 -0.24688814871E+04  0.30736319276E+04  0.65864270000E+03 0.  0.
    8880022    1    1    2    0    0 -0.36219579946E+03 -0.16693835465E+04  0.40007992632E+03  0.17611027292E+04  0.15294330000E+03 0.  0.
<mgrwt>
<rscale>  0 0.18011534E+04</rscale>
<asrwt>0</asrwt>
<pdfrwt beam="1">  1        2 0.53104125E+00 0.18308024E+04</pdfrwt>
<pdfrwt beam="2">  1       -2 0.21276409E+00 0.18308024E+04</pdfrwt>
<totfact> 0.87696473E-02</totfact>
</mgrwt>
</event>
<event>
 4    5  0.1905771E-007  0.7782227E+03  0.7818608E-02  0.9760029E-01
         -2   -1    0    0    0  501 -0.00000000000E+00  0.00000000000E+00  0.16818100459E+04  0.16818100459E+04  0.25500000000E-02 0.  1.
          2   -1    0    0  501    0  0.00000000000E+00 -0.00000000000E+00 -0.82236078554E+03  0.82236078555E+03  0.25500000000E-02 0. -1.
    8880023    1    1    2    0    0  0.32505008485E+03 -0.25722122389E+03 -0.59785813827E+03  0.98135868847E+03  0.65864270000E+03 0. -1.
    8880022    1    1    2    0    0 -0.32505008485E+03  0.25722122389E+03  0.14573073986E+04  0.15228121429E+04  0.15294330000E+03 0.  0.
<mgrwt>
<rscale>  0 0.67552467E+03</rscale>
<asrwt>0</asrwt>
<pdfrwt beam="1">  1        2 0.12651705E+00 0.77822267E+03</pdfrwt>
<pdfrwt beam="2">  1       -2 0.25874000E+00 0.77822267E+03</pdfrwt>
<totfact> 0.19406501E+00</totfact>
</mgrwt>
</event>
<event>
 4    5  0.1905771E-007  0.8205473E+03  0.7818608E-02  0.9668012E-01
          2   -1    0    0  501    0  0.00000000000E+00  0.00000000000E+00  0.22651963480E+04  0.22651963480E+04  0.25500000000E-02 0. -1.
         -2   -1    0    0    0  501 -0.00000000000E+00 -0.00000000000E+00 -0.37237828250E+03  0.37237828251E+03  0.25500000000E-02 0.  1.
    8880023    1    1    2    0    0  0.36429792527E+03 -0.32676390403E+03  0.19558458923E+04  0.21209976398E+04  0.65864270000E+03 0. -1.
    8880022    1    1    2    0    0 -0.36429792527E+03  0.32676390403E+03 -0.63027826833E+02  0.51657699068E+03  0.15294330000E+03 0.  0.
<mgrwt>
<rscale>  0 0.72953688E+03</rscale>
<asrwt>0</asrwt>
<pdfrwt beam="1">  1        2 0.34849175E+00 0.82054728E+03</pdfrwt>
<pdfrwt beam="2">  1       -2 0.57288966E-01 0.82054728E+03</pdfrwt>
<totfact> 0.13960041E+01</totfact>
</mgrwt>
</event>
<event>
 4    5  0.1905771E-007  0.9936834E+03  0.7818608E-02  0.9389869E-01
          2   -1    0    0  501    0  0.00000000000E+00  0.00000000000E+00  0.15290195936E+04  0.15290195936E+04  0.25500000000E-02 0. -1.
         -2   -1    0    0    0  501 -0.00000000000E+00 -0.00000000000E+00 -0.13984816516E+04  0.13984816516E+04  0.25500000000E-02 0.  1.
    8880023    1    1    2    0    0  0.74253861792E+03 -0.47253997042E+02  0.12361950374E+04  0.15860595563E+04  0.65864270000E+03 0.  0.
    8880022    1    1    2    0    0 -0.74253861792E+03  0.47253997042E+02 -0.11056570953E+04  0.13414416889E+04  0.15294330000E+03 0.  0.
<mgrwt>
<rscale>  0 0.92914159E+03</rscale>
<asrwt>0</asrwt>
<pdfrwt beam="1">  1        2 0.23523378E+00 0.99368342E+03</pdfrwt>
<pdfrwt beam="2">  1       -2 0.21515102E+00 0.99368342E+03</pdfrwt>
<totfact> 0.12916223E+00</totfact>
</mgrwt>
</event>
<event>
 4    5  0.1905771E-007  0.7724187E+03  0.7818608E-02  0.9773957E-01
          2   -1    0    0  501    0  0.00000000000E+00  0.00000000000E+00  0.15905333715E+04  0.15905333715E+04  0.25500000000E-02 0. -1.
         -2   -1    0    0    0  501 -0.00000000000E+00 -0.00000000000E+00 -0.12522969165E+04  0.12522969165E+04  0.25500000000E-02 0.  1.
    8880023    1    1    2    0    0 -0.16558634107E+03  0.36796966465E+03  0.14540511702E+04  0.16464797364E+04  0.65864270000E+03 0.  0.
    8880022    1    1    2    0    0  0.16558634107E+03 -0.36796966465E+03 -0.11158147153E+04  0.11963505516E+04  0.15294330000E+03 0.  1.
<mgrwt>
<rscale>  0 0.66779107E+03</rscale>
<asrwt>0</asrwt>
<pdfrwt beam="1">  1        2 0.24469744E+00 0.77241874E+03</pdfrwt>
<pdfrwt beam="2">  1       -2 0.19266107E+00 0.77241874E+03</pdfrwt>
<totfact> 0.17281273E+00</totfact>
</mgrwt>
</event>
<event>
 4    5  0.1905771E-007  0.7648602E+03  0.7818608E-02  0.9792684E-01
          2   -1    0    0  501    0  0.00000000000E+00  0.00000000000E+00  0.56283703078E+03  0.56283703078E+03  0.25500000000E-02 0. -1.
         -2   -1    0    0    0  501 -0.00000000000E+00 -0.00000000000E+00 -0.14054726306E+04  0.14054726306E+04  0.25500000000E-02 0.  1.
    8880023    1    1    2    0    0  0.34192851311E+03  0.18516431460E+03  0.24502538016E+03  0.80314916091E+03  0.65864270000E+03 0.  0.
    8880022    1    1    2    0    0 -0.34192851311E+03 -0.18516431460E+03 -0.10876609800E+04  0.11651605005E+04  0.15294330000E+03 0.  0.
<mgrwt>
<rscale>  0 0.65756664E+03</rscale>
<asrwt>0</asrwt>
<pdfrwt beam="1">  1        2 0.86590313E-01 0.76486021E+03</pdfrwt>
<pdfrwt beam="2">  1       -2 0.21622656E+00 0.76486021E+03</pdfrwt>
<totfact> 0.57106496E+00</totfact>
</mgrwt>
</event>
<event>
 4    5  0.1905771E-007  0.8093942E+03  0.7818608E-02  0.9690840E-01
          2   -1    0    0  501    0  0.00000000000E+00  0.00000000000E+00  0.78058382375E+03  0.78058382376E+03  0.25500000000E-02 0. -1.
         -2   -1    0    0    0  501 -0.00000000000E+00 -0.00000000000E+00 -0.12213635087E+04  0.12213635087E+04  0.25500000000E-02 0.  1.
    8880023    1    1    2    0    0  0.37938307387E+03 -0.27816778836E+03  0.49122936740E+03  0.94679740857E+03  0.65864270000E+03 0. -1.
    8880022    1    1    2    0    0 -0.37938307387E+03  0.27816778836E+03 -0.93200905237E+03  0.10551499239E+04  0.15294330000E+03 0.  0.
<mgrwt>
<rscale>  0 0.71564796E+03</rscale>
<asrwt>0</asrwt>
<pdfrwt beam="1">  1        2 0.12008982E+00 0.80939424E+03</pdfrwt>
<pdfrwt beam="2">  1       -2 0.18790208E+00 0.80939424E+03</pdfrwt>
<totfact> 0.57699876E+00</totfact>
</mgrwt>
</event>
<event>
 4    5  0.1905771E-007  0.9589225E+03  0.7818608E-02  0.9437391E-01
         -2   -1    0    0    0  501 -0.00000000000E+00  0.00000000000E+00  0.16429361670E+04  0.16429361670E+04  0.25500000000E-02 0.  1.
          2   -1    0    0  501    0  0.00000000000E+00 -0.00000000000E+00 -0.50757375292E+03  0.50757375292E+03  0.25500000000E-02 0. -1.
    8880023    1    1    2    0    0  0.37184068731E+02  0.69594508330E+03  0.10656710051E+04  0.14335923798E+04  0.65864270000E+03 0.  1.
    8880022    1    1    2    0    0 -0.37184068731E+02 -0.69594508330E+03  0.69691409009E+02  0.71691754019E+03  0.15294330000E+03 0.  0.
<mgrwt>
<rscale>  0 0.89061398E+03</rscale>
<asrwt>0</asrwt>
<pdfrwt beam="1">  1        2 0.78088269E-01 0.95892253E+03</pdfrwt>
<pdfrwt beam="2">  1       -2 0.25275941E+00 0.95892253E+03</pdfrwt>
<totfact> 0.37564376E+00</totfact>
</mgrwt>
</event>
<event>
 4    5  0.1905771E-007  0.7511206E+03  0.7818608E-02  0.9828663E-01
         -2   -1    0    0    0  501 -0.00000000000E+00  0.00000000000E+00  0.44316191744E+03  0.44316191745E+03  0.25500000000E-02 0.  1.
          2   -1    0    0  501    0  0.00000000000E+00 -0.00000000000E+00 -0.16082521203E+04  0.16082521203E+04  0.25500000000E-02 0. -1.
    8880023    1    1    2    0    0 -0.35217861951E+03 -0.79637845354E+02 -0.14039613799E+04  0.15922593158E+04  0.65864270000E+03 0. -1.
    8880022    1    1    2    0    0  0.35217861951E+03  0.79637845354E+02  0.23887117699E+03  0.45915472192E+03  0.15294330000E+03 0.  0.
<mgrwt>
<rscale>  0 0.63846774E+03</rscale>
<asrwt>0</asrwt>
<pdfrwt beam="1">  1        2 0.24742340E+00 0.75112061E+03</pdfrwt>
<pdfrwt beam="2">  1       -2 0.68178758E-01 0.75112061E+03</pdfrwt>
<totfact> 0.22281786E+01</totfact>
</mgrwt>
</event>
<event>
 4    5  0.1905771E-007  0.1743734E+04  0.7818608E-02  0.8754316E-01
          2   -1    0    0  501    0  0.00000000000E+00  0.00000000000E+00  0.32185056232E+04  0.32185056232E+04  0.25500000000E-02 0. -1.
         -2   -1    0    0    0  501 -0.00000000000E+00 -0.00000000000E+00 -0.14932798245E+04  0.14932798245E+04  0.25500000000E-02 0.  1.
    8880023    1    1    2    0    0  0.13473872852E+04  0.88957640728E+03  0.23904571003E+04  0.29588670188E+04  0.65864270000E+03 0.  0.
    8880022    1    1    2    0    0 -0.13473872852E+04 -0.88957640728E+03 -0.66523130155E+03  0.17529184289E+04  0.15294330000E+03 0.  0.
<mgrwt>
<rscale>  0 0.17124134E+04</rscale>
<asrwt>0</asrwt>
<pdfrwt beam="1">  1        2 0.49515471E+00 0.17437342E+04</pdfrwt>
<pdfrwt beam="2">  1       -2 0.22973536E+00 0.17437342E+04</pdfrwt>
<totfact> 0.99014061E-02</totfact>
</mgrwt>
</event>
<event>
 4    5  0.1905771E-007  0.1056478E+04  0.7818608E-02  0.9311134E-01
         -2   -1    0    0    0  501 -0.00000000000E+00  0.00000000000E+00  0.88389224664E+03  0.88389224664E+03  0.25500000000E-02 0.  1.
          2   -1    0    0  501    0  0.00000000000E+00 -0.00000000000E+00 -0.19655714821E+04  0.19655714821E+04  0.25500000000E-02 0. -1.
    8880023    1    1    2    0    0  0.33820253673E+03 -0.75362762499E+03 -0.15590033678E+04  0.18832517782E+04  0.65864270000E+03 0. -1.
    8880022    1    1    2    0    0 -0.33820253673E+03  0.75362762499E+03  0.47732413235E+03  0.96621195053E+03  0.15294330000E+03 0.  0.
<mgrwt>
<rscale>  0 0.99764252E+03</rscale>
<asrwt>0</asrwt>
<pdfrwt beam="1">  1        2 0.30239561E+00 0.10564780E+04</pdfrwt>
<pdfrwt beam="2">  1       -2 0.13598342E+00 0.10564780E+04</pdfrwt>
<totfact> 0.26784500E+00</totfact>
</mgrwt>
</event>
<event>
 4    5  0.1905771E-007  0.8242969E+03  0.7818608E-02  0.9660532E-01
         -2   -1    0    0    0  501 -0.00000000000E+00  0.00000000000E+00  0.46079662205E+03  0.46079662205E+03  0.25500000000E-02 0.  1.
          2   -1    0    0  501    0  0.00000000000E+00 -0.00000000000E+00 -0.12038392833E+04  0.12038392833E+04  0.25500000000E-02 0. -1.
    8880023    1    1    2    0    0 -0.49432794685E+03 -0.35986597818E+02 -0.87830923418E+02  0.82896298568E+03  0.65864270000E+03 0.  1.
    8880022    1    1    2    0    0  0.49432794685E+03  0.35986597818E+02 -0.65521173785E+03  0.83567291968E+03  0.15294330000E+03 0.  0.
<mgrwt>
<rscale>  0 0.73416086E+03</rscale>
<asrwt>0</asrwt>
<pdfrwt beam="1">  1        2 0.18520604E+00 0.82429689E+03</pdfrwt>
<pdfrwt beam="2">  1       -2 0.70891788E-01 0.82429689E+03</pdfrwt>
<totfact> 0.34448870E+01</totfact>
</mgrwt>
</event>
<event>
 4    5  0.1905771E-007  0.6632224E+03  0.7818608E-02  0.1021074E+00
         -2   -1    0    0    0  501 -0.00000000000E+00  0.00000000000E+00  0.55683072633E+03  0.55683072633E+03  0.25500000000E-02 0.  1.
          2   -1    0    0  501    0  0.00000000000E+00 -0.00000000000E+00 -0.22959791024E+04  0.22959791024E+04  0.25500000000E-02 0. -1.
    8880023    1    1    2    0    0  0.38219703870E+02 -0.67771833374E+02 -0.22333073909E+04  0.23297051049E+04  0.65864270000E+03 0. -1.
    8880022    1    1    2    0    0 -0.38219703870E+02  0.67771833374E+02  0.49415901483E+03  0.52310472386E+03  0.15294330000E+03 0.  0.
<mgrwt>
<rscale>  0 0.47301141E+03</rscale>
<asrwt>0</asrwt>
<pdfrwt beam="1">  1        2 0.35322755E+00 0.66322242E+03</pdfrwt>
<pdfrwt beam="2">  1       -2 0.85666267E-01 0.66322242E+03</pdfrwt>
<totfact> 0.57207286E+00</totfact>
</mgrwt>
</event>
<event>
 4    5  0.1905771E-007  0.7023444E+03  0.7818608E-02  0.9987611E-01
          2   -1    0    0  501    0  0.00000000000E+00  0.00000000000E+00  0.27112580162E+04  0.27112580162E+04  0.25500000000E-02 0. -1.
         -2   -1    0    0    0  501 -0.00000000000E+00 -0.00000000000E+00 -0.12185125699E+03  0.12185125702E+03  0.25500000000E-02 0.  1.
    8880023    1    1    2    0    0  0.22696215108E+03 -0.89250651402E+02  0.23679444731E+04  0.24699086483E+04  0.65864270000E+03 0. -1.
    8880022    1    1    2    0    0 -0.22696215108E+03  0.89250651402E+02  0.22146228614E+03  0.36320062499E+03  0.15294330000E+03 0.  0.
<mgrwt>
<rscale>  0 0.56196817E+03</rscale>
<asrwt>0</asrwt>
<pdfrwt beam="1">  1        2 0.41711657E+00 0.70234443E+03</pdfrwt>
<pdfrwt beam="2">  1       -2 0.18746349E-01 0.70234443E+03</pdfrwt>
<totfact> 0.65758771E+01</totfact>
</mgrwt>
</event>
<event>
 4    5  0.1905771E-007  0.7284883E+03  0.7818608E-02  0.9894846E-01
          2   -1    0    0  501    0  0.00000000000E+00  0.00000000000E+00  0.30035345745E+04  0.30035345745E+04  0.25500000000E-02 0. -1.
         -2   -1    0    0    0  501 -0.00000000000E+00 -0.00000000000E+00 -0.41039672374E+03  0.41039672375E+03  0.25500000000E-02 0.  1.
    8880023    1    1    2    0    0  0.29319515205E+03  0.10450624309E+03  0.28757300872E+04  0.29665668191E+04  0.65864270000E+03 0. -1.
    8880022    1    1    2    0    0 -0.29319515205E+03 -0.10450624309E+03 -0.28259223643E+03  0.44736447907E+03  0.15294330000E+03 0.  0.
<mgrwt>
<rscale>  0 0.60511730E+03</rscale>
<asrwt>0</asrwt>
<pdfrwt beam="1">  1        2 0.46208223E+00 0.72848827E+03</pdfrwt>
<pdfrwt beam="2">  1       -2 0.63137959E-01 0.72848827E+03</pdfrwt>
<totfact> 0.43112540E+00</totfact>
</mgrwt>
</event>
<event>
 4    5  0.1905771E-007  0.1010459E+04  0.7818608E-02  0.9368000E-01
         -2   -1    0    0    0  501 -0.00000000000E+00  0.00000000000E+00  0.62558120196E+03  0.62558120197E+03  0.25500000000E-02 0.  1.
          2   -1    0    0  501    0  0.00000000000E+00 -0.00000000000E+00 -0.15375785380E+04  0.15375785380E+04  0.25500000000E-02 0. -1.
    8880023    1    1    2    0    0  0.32621474459E+03  0.69339883944E+03 -0.94161539461E+03  0.13811834664E+04  0.65864270000E+03 0.  0.
    8880022    1    1    2    0    0 -0.32621474459E+03 -0.69339883944E+03  0.29618058553E+02  0.78197627363E+03  0.15294330000E+03 0.  0.
<mgrwt>
<rscale>  0 0.94756631E+03</rscale>
<asrwt>0</asrwt>
<pdfrwt beam="1">  1        2 0.23655054E+00 0.10104594E+04</pdfrwt>
<pdfrwt beam="2">  1       -2 0.96243263E-01 0.10104594E+04</pdfrwt>
<totfact> 0.10874468E+01</totfact>
</mgrwt>
</event>
<event>
 4    5  0.1905771E-007  0.1104440E+04  0.7818608E-02  0.9256129E-01
          2   -1    0    0  501    0  0.00000000000E+00  0.00000000000E+00  0.20181054511E+04  0.20181054511E+04  0.25500000000E-02 0. -1.
         -2   -1    0    0    0  501 -0.00000000000E+00 -0.00000000000E+00 -0.15838445566E+04  0.15838445566E+04  0.25500000000E-02 0.  1.
    8880023    1    1    2    0    0  0.72077199781E+03  0.51620270331E+03  0.17131638780E+04  0.20383125823E+04  0.65864270000E+03 0. -1.
    8880022    1    1    2    0    0 -0.72077199781E+03 -0.51620270331E+03 -0.12789029836E+04  0.15636374254E+04  0.15294330000E+03 0.  0.
<mgrwt>
<rscale>  0 0.10492402E+04</rscale>
<asrwt>0</asrwt>
<pdfrwt beam="1">  1        2 0.31047776E+00 0.11044400E+04</pdfrwt>
<pdfrwt beam="2">  1       -2 0.24366839E+00 0.11044400E+04</pdfrwt>
<totfact> 0.45263426E-01</totfact>
</mgrwt>
</event>
<event>
 4    5  0.1905771E-007  0.8760197E+03  0.7818608E-02  0.9565679E-01
         -2   -1    0    0    0  501 -0.00000000000E+00  0.00000000000E+00  0.16260453123E+04  0.16260453123E+04  0.25500000000E-02 0.  1.
          2   -1    0    0  501    0  0.00000000000E+00 -0.00000000000E+00 -0.15210291752E+04  0.15210291752E+04  0.25500000000E-02 0. -1.
    8880023    1    1    2    0    0 -0.39362413085E+03  0.42268227949E+03 -0.13300348397E+04  0.15926089121E+04  0.65864270000E+03 0. -1.
    8880022    1    1    2    0    0  0.39362413085E+03 -0.42268227949E+03  0.14350509769E+04  0.15544655754E+04  0.15294330000E+03 0.  0.
<mgrwt>
<rscale>  0 0.79610013E+03</rscale>
<asrwt>0</asrwt>
<pdfrwt beam="1">  1        2 0.23400449E+00 0.87601968E+03</pdfrwt>
<pdfrwt beam="2">  1       -2 0.25016082E+00 0.87601968E+03</pdfrwt>
<totfact> 0.80652423E-01</totfact>
</mgrwt>
</event>
<event>
 4    5  0.1905771E-007  0.1709099E+04  0.7818608E-02  0.8774559E-01
         -2   -1    0    0    0  501 -0.00000000000E+00  0.00000000000E+00  0.10715501343E+04  0.10715501343E+04  0.25500000000E-02 0.  1.
          2   -1    0    0  501    0  0.00000000000E+00 -0.00000000000E+00 -0.34315372805E+04  0.34315372805E+04  0.25500000000E-02 0. -1.
    8880023    1    1    2    0    0  0.15024982830E+04  0.47928044110E+03 -0.23658271704E+04  0.29185885695E+04  0.65864270000E+03 0.  0.
    8880022    1    1    2    0    0 -0.15024982830E+04 -0.47928044110E+03  0.58400242328E+01  0.15844988452E+04  0.15294330000E+03 0.  0.
<mgrwt>
<rscale>  0 0.16770567E+04</rscale>
<asrwt>0</asrwt>
<pdfrwt beam="1">  1        2 0.52792881E+00 0.17090995E+04</pdfrwt>
<pdfrwt beam="2">  1       -2 0.16485387E+00 0.17090995E+04</pdfrwt>
<totfact> 0.19514512E-01</totfact>
</mgrwt>
</event>
<event>
 4    5  0.2395795E-007  0.1440619E+04  0.7818608E-02  0.8952746E-01
          2   -1    0    0  501    0  0.00000000000E+00  0.00000000000E+00  0.25266949944E+04  0.25266949944E+04  0.25500000000E-02 0. -1.
         -2   -1    0    0    0  501 -0.00000000000E+00 -0.00000000000E+00 -0.18112116147E+04  0.18112116147E+04  0.25500000000E-02 0.  1.
    8880023    1    1    2    0    0 -0.97943917942E+03  0.82599781620E+03  0.20343693613E+04  0.24927981072E+04  0.65864270000E+03 0.  0.
    8880022    1    1    2    0    0  0.97943917942E+03 -0.82599781620E+03 -0.13188859816E+04  0.18451085020E+04  0.15294330000E+03 0.  0.
<mgrwt>
<rscale>  0 0.14014821E+04</rscale>
<asrwt>0</asrwt>
<pdfrwt beam="1">  1        2 0.38872231E+00 0.14406192E+04</pdfrwt>
<pdfrwt beam="2">  1       -2 0.27864794E+00 0.14406192E+04</pdfrwt>
<totfact> 0.13629801E-01</totfact>
</mgrwt>
</event>
<event>
 4    5  0.1905771E-007  0.8342553E+03  0.7818608E-02  0.9641109E-01
         -2   -1    0    0    0  501 -0.00000000000E+00  0.00000000000E+00  0.46484999825E+03  0.46484999825E+03  0.25500000000E-02 0.  1.
          2   -1    0    0  501    0  0.00000000000E+00 -0.00000000000E+00 -0.14625787276E+04  0.14625787276E+04  0.25500000000E-02 0. -1.
    8880023    1    1    2    0    0 -0.14560463746E+03  0.49088790740E+03 -0.45490964126E+02  0.83549463323E+03  0.65864270000E+03 0.  1.
    8880022    1    1    2    0    0  0.14560463746E+03 -0.49088790740E+03 -0.95223776518E+03  0.10919340926E+04  0.15294330000E+03 0.  0.
<mgrwt>
<rscale>  0 0.74634052E+03</rscale>
<asrwt>0</asrwt>
<pdfrwt beam="1">  1        2 0.22501211E+00 0.83425527E+03</pdfrwt>
<pdfrwt beam="2">  1       -2 0.71515385E-01 0.83425527E+03</pdfrwt>
<totfact> 0.23960587E+01</totfact>
</mgrwt>
</event>
<event>
 4    5  0.1905771E-007  0.8550942E+03  0.7818608E-02  0.9602350E-01
          2   -1    0    0  501    0  0.00000000000E+00  0.00000000000E+00  0.14721881176E+04  0.14721881176E+04  0.25500000000E-02 0. -1.
         -2   -1    0    0    0  501 -0.00000000000E+00 -0.00000000000E+00 -0.37663008708E+03  0.37663008709E+03  0.25500000000E-02 0.  1.
    8880023    1    1    2    0    0  0.21350046245E+03  0.50179026182E+03  0.91965493443E+03  0.12557672233E+04  0.65864270000E+03 0.  0.
    8880022    1    1    2    0    0 -0.21350046245E+03 -0.50179026182E+03  0.17590309605E+03  0.59305098140E+03  0.15294330000E+03 0.  0.
<mgrwt>
<rscale>  0 0.77140826E+03</rscale>
<asrwt>0</asrwt>
<pdfrwt beam="1">  1        2 0.22649048E+00 0.85509422E+03</pdfrwt>
<pdfrwt beam="2">  1       -2 0.57943091E-01 0.85509422E+03</pdfrwt>
<totfact> 0.37109519E+01</totfact>
</mgrwt>
</event>
<event>
 4    5  0.2650702E-007  0.9685458E+03  0.7818608E-02  0.9423918E-01
          2   -1    0    0  501    0  0.00000000000E+00  0.00000000000E+00  0.21932152215E+04  0.21932152215E+04  0.25500000000E-02 0. -1.
         -2   -1    0    0    0  501 -0.00000000000E+00 -0.00000000000E+00 -0.14406539542E+04  0.14406539542E+04  0.25500000000E-02 0.  1.
    8880023    1    1    2    0    0 -0.48088119412E+03 -0.52251703622E+03  0.19819300314E+04  0.22059301058E+04  0.65864270000E+03 0. -1.
    8880022    1    1    2    0    0  0.48088119412E+03  0.52251703622E+03 -0.12293687641E+04  0.14279390698E+04  0.15294330000E+03 0.  0.
<mgrwt>
<rscale>  0 0.90133170E+03</rscale>
<asrwt>0</asrwt>
<pdfrwt beam="1">  1        2 0.33741773E+00 0.96854581E+03</pdfrwt>
<pdfrwt beam="2">  1       -2 0.22163907E+00 0.96854581E+03</pdfrwt>
<totfact> 0.50695453E-01</totfact>
</mgrwt>
</event>
<event>
 4    5  0.1905771E-007  0.8994845E+03  0.7818608E-02  0.9526860E-01
         -2   -1    0    0    0  501 -0.00000000000E+00  0.00000000000E+00  0.15086066182E+04  0.15086066182E+04  0.25500000000E-02 0.  1.
          2   -1    0    0  501    0  0.00000000000E+00 -0.00000000000E+00 -0.76354823046E+03  0.76354823046E+03  0.25500000000E-02 0. -1.
    8880023    1    1    2    0    0  0.22551952615E+03 -0.56956398148E+03 -0.38441260630E+03  0.97818476977E+03  0.65864270000E+03 0.  0.
    8880022    1    1    2    0    0 -0.22551952615E+03  0.56956398148E+03  0.11294709940E+04  0.12939700789E+04  0.15294330000E+03 0.  0.
<mgrwt>
<rscale>  0 0.82332208E+03</rscale>
<asrwt>0</asrwt>
<pdfrwt beam="1">  1        2 0.11746896E+00 0.89948451E+03</pdfrwt>
<pdfrwt beam="2">  1       -2 0.23209333E+00 0.89948451E+03</pdfrwt>
<totfact> 0.30611213E+00</totfact>
</mgrwt>
</event>
<event>
 4    5  0.1905771E-007  0.1074167E+04  0.7818608E-02  0.9290378E-01
         -2   -1    0    0    0  501 -0.00000000000E+00  0.00000000000E+00  0.12531712742E+04  0.12531712742E+04  0.25500000000E-02 0.  1.
          2   -1    0    0  501    0  0.00000000000E+00 -0.00000000000E+00 -0.12520749250E+04  0.12520749250E+04  0.25500000000E-02 0. -1.
    8880023    1    1    2    0    0  0.68243950380E+03 -0.50428271629E+03 -0.79134295356E+03  0.13341883715E+04  0.65864270000E+03 0. -1.
    8880022    1    1    2    0    0 -0.68243950380E+03  0.50428271629E+03  0.79243930278E+03  0.11710578277E+04  0.15294330000E+03 0.  0.
<mgrwt>
<rscale>  0 0.10167353E+04</rscale>
<asrwt>0</asrwt>
<pdfrwt beam="1">  1        2 0.19262691E+00 0.10741671E+04</pdfrwt>
<pdfrwt beam="2">  1       -2 0.19279558E+00 0.10741671E+04</pdfrwt>
<totfact> 0.25756201E+00</totfact>
</mgrwt>
</event>
<event>
 4    5  0.1905771E-007  0.9441899E+03  0.7818608E-02  0.9458523E-01
         -2   -1    0    0    0  501 -0.00000000000E+00  0.00000000000E+00  0.77678983785E+03  0.77678983786E+03  0.25500000000E-02 0.  1.
          2   -1    0    0  501    0  0.00000000000E+00 -0.00000000000E+00 -0.30020173554E+04  0.30020173554E+04  0.25500000000E-02 0. -1.
    8880023    1    1    2    0    0  0.60725432254E+02 -0.67379280840E+03 -0.27509573875E+04  0.29084808889E+04  0.65864270000E+03 0.  0.
    8880022    1    1    2    0    0 -0.60725432254E+02  0.67379280840E+03  0.52572987002E+03  0.87032630434E+03  0.15294330000E+03 0.  0.
<mgrwt>
<rscale>  0 0.87412032E+03</rscale>
<asrwt>0</asrwt>
<pdfrwt beam="1">  1        2 0.46184882E+00 0.94418988E+03</pdfrwt>
<pdfrwt beam="2">  1       -2 0.11950613E+00 0.94418988E+03</pdfrwt>
<totfact> 0.95737481E-01</totfact>
</mgrwt>
</event>
<event>
 4    5  0.1905771E-007  0.9077941E+03  0.7818608E-02  0.9513634E-01
         -2   -1    0    0    0  501 -0.00000000000E+00  0.00000000000E+00  0.41518968060E+03  0.41518968061E+03  0.25500000000E-02 0.  1.
          2   -1    0    0  501    0  0.00000000000E+00 -0.00000000000E+00 -0.29018069301E+04  0.29018069301E+04  0.25500000000E-02 0. -1.
    8880023    1    1    2    0    0  0.23699732908E+03 -0.57802430879E+03 -0.25143673612E+04  0.26732252559E+04  0.65864270000E+03 0. -1.
    8880022    1    1    2    0    0 -0.23699732908E+03  0.57802430879E+03  0.27750111694E+02  0.64377135480E+03  0.15294330000E+03 0.  0.
<mgrwt>
<rscale>  0 0.83286085E+03</rscale>
<asrwt>0</asrwt>
<pdfrwt beam="1">  1        2 0.44643182E+00 0.90779405E+03</pdfrwt>
<pdfrwt beam="2">  1       -2 0.63875337E-01 0.90779405E+03</pdfrwt>
<totfact> 0.46972876E+00</totfact>
</mgrwt>
</event>
<event>
 4    5  0.1905771E-007  0.6800704E+03  0.7818608E-02  0.1009284E+00
         -2   -1    0    0    0  501 -0.00000000000E+00  0.00000000000E+00  0.31314553587E+03  0.31314553588E+03  0.25500000000E-02 0.  1.
          2   -1    0    0  501    0  0.00000000000E+00 -0.00000000000E+00 -0.70834584928E+03  0.70834584929E+03  0.25500000000E-02 0. -1.
    8880023    1    1    2    0    0  0.15489337186E+03 -0.68510077012E+02 -0.17025564350E+03  0.70105832689E+03  0.65864270000E+03 0.  1.
    8880022    1    1    2    0    0 -0.15489337186E+03  0.68510077012E+02 -0.22494466992E+03  0.32043305828E+03  0.15294330000E+03 0.  0.
<mgrwt>
<rscale>  0 0.51760256E+03</rscale>
<asrwt>0</asrwt>
<pdfrwt beam="1">  1        2 0.10897628E+00 0.68007043E+03</pdfrwt>
<pdfrwt beam="2">  1       -2 0.48176236E-01 0.68007043E+03</pdfrwt>
<totfact> 0.16706201E+02</totfact>
</mgrwt>
</event>
<event>
 4    5  0.1905771E-007  0.1011994E+04  0.7818608E-02  0.9366031E-01
         -2   -1    0    0    0  501 -0.00000000000E+00  0.00000000000E+00  0.57303957760E+03  0.57303957761E+03  0.25500000000E-02 0.  1.
          2   -1    0    0  501    0  0.00000000000E+00 -0.00000000000E+00 -0.20114669576E+04  0.20114669576E+04  0.25500000000E-02 0. -1.
    8880023    1    1    2    0    0  0.76658527535E+03 -0.51667618934E+02 -0.14880216635E+04  0.17995391645E+04  0.65864270000E+03 0.  0.
    8880022    1    1    2    0    0 -0.76658527535E+03  0.51667618934E+02  0.49594283427E+02  0.78496737078E+03  0.15294330000E+03 0.  0.
<mgrwt>
<rscale>  0 0.94924728E+03</rscale>
<asrwt>0</asrwt>
<pdfrwt beam="1">  1        2 0.30945645E+00 0.10119944E+04</pdfrwt>
<pdfrwt beam="2">  1       -2 0.88159936E-01 0.10119944E+04</pdfrwt>
<totfact> 0.72986003E+00</totfact>
</mgrwt>
</event>
<event>
 4    5  0.1911482E-007  0.1381239E+04  0.7818608E-02  0.8998400E-01
         -2   -1    0    0    0  501 -0.00000000000E+00  0.00000000000E+00  0.20487926698E+04  0.20487926698E+04  0.25500000000E-02 0.  1.
          2   -1    0    0  501    0  0.00000000000E+00 -0.00000000000E+00 -0.18166160105E+04  0.18166160105E+04  0.25500000000E-02 0. -1.
    8880023    1    1    2    0    0  0.12138958067E+04  0.21602777992E+02 -0.13052847188E+04  0.19004178785E+04  0.65864270000E+03 0. -1.
    8880022    1    1    2    0    0 -0.12138958067E+04 -0.21602777992E+02  0.15374613780E+04  0.19649908018E+04  0.15294330000E+03 0.  0.
<mgrwt>
<rscale>  0 0.13400432E+04</rscale>
<asrwt>0</asrwt>
<pdfrwt beam="1">  1        2 0.27947939E+00 0.13812385E+04</pdfrwt>
<pdfrwt beam="2">  1       -2 0.31519887E+00 0.13812385E+04</pdfrwt>
<totfact> 0.20638004E-01</totfact>
</mgrwt>
</event>
<event>
 4    5  0.1905771E-007  0.6812447E+03  0.7818608E-02  0.1008628E+00
          2   -1    0    0  501    0  0.00000000000E+00  0.00000000000E+00  0.15824349892E+04  0.15824349892E+04  0.25500000000E-02 0. -1.
         -2   -1    0    0    0  501 -0.00000000000E+00 -0.00000000000E+00 -0.71469605319E+03  0.71469605319E+03  0.25500000000E-02 0.  1.
    8880023    1    1    2    0    0  0.14003053313E+03  0.10332273222E+03  0.14871771687E+04  0.16357842996E+04  0.65864270000E+03 0. -1.
    8880022    1    1    2    0    0 -0.14003053313E+03 -0.10332273222E+03 -0.61943823268E+03  0.66134674288E+03  0.15294330000E+03 0.  0.
<mgrwt>
<rscale>  0 0.52023511E+03</rscale>
<asrwt>0</asrwt>
<pdfrwt beam="1">  1        2 0.24345154E+00 0.68124470E+03</pdfrwt>
<pdfrwt beam="2">  1       -2 0.10995324E+00 0.68124470E+03</pdfrwt>
<totfact> 0.77820597E+00</totfact>
</mgrwt>
</event>
<event>
 4    5  0.1905771E-007  0.1198513E+04  0.7818608E-02  0.9158569E-01
         -2   -1    0    0    0  501 -0.00000000000E+00  0.00000000000E+00  0.11063404706E+04  0.11063404706E+04  0.25500000000E-02 0.  1.
          2   -1    0    0  501    0  0.00000000000E+00 -0.00000000000E+00 -0.17668174251E+04  0.17668174251E+04  0.25500000000E-02 0. -1.
    8880023    1    1    2    0    0 -0.10012026480E+04  0.14750305325E+02 -0.12248000726E+04  0.17136422433E+04  0.65864270000E+03 0.  0.
    8880022    1    1    2    0    0  0.10012026480E+04 -0.14750305325E+02  0.56432311803E+03  0.11595156525E+04  0.15294330000E+03 0.  0.
<mgrwt>
<rscale>  0 0.11491493E+04</rscale>
<asrwt>0</asrwt>
<pdfrwt beam="1">  1        2 0.27181807E+00 0.11985135E+04</pdfrwt>
<pdfrwt beam="2">  1       -2 0.17020623E+00 0.11985135E+04</pdfrwt>
<totfact> 0.18573038E+00</totfact>
</mgrwt>
</event>
<event>
 4    5  0.1905771E-007  0.1861924E+04  0.7818608E-02  0.8689034E-01
          2   -1    0    0  501    0  0.00000000000E+00  0.00000000000E+00  0.29414056573E+04  0.29414056573E+04  0.25500000000E-02 0. -1.
         -2   -1    0    0    0  501 -0.00000000000E+00 -0.00000000000E+00 -0.14423120553E+04  0.14423120553E+04  0.25500000000E-02 0.  1.
    8880023    1    1    2    0    0 -0.43456779297E+03 -0.16864460309E+04  0.18229383437E+04  0.26057367083E+04  0.65864270000E+03 0.  0.
    8880022    1    1    2    0    0  0.43456779297E+03  0.16864460309E+04 -0.32384474166E+03  0.17779810042E+04  0.15294330000E+03 0.  0.
<mgrwt>
<rscale>  0 0.18328276E+04</rscale>
<asrwt>0</asrwt>
<pdfrwt beam="1">  1        2 0.45252394E+00 0.18619236E+04</pdfrwt>
<pdfrwt beam="2">  1       -2 0.22189417E+00 0.18619236E+04</pdfrwt>
<totfact> 0.16445921E-01</totfact>
</mgrwt>
</event>
<event>
 4    5  0.1905771E-007  0.6838536E+03  0.7818608E-02  0.1007223E+00
          2   -1    0    0  501    0  0.00000000000E+00  0.00000000000E+00  0.21228694333E+03  0.21228694335E+03  0.25500000000E-02 0. -1.
         -2   -1    0    0    0  501 -0.00000000000E+00 -0.00000000000E+00 -0.18323248077E+04  0.18323248077E+04  0.25500000000E-02 0.  1.
    8880023    1    1    2    0    0  0.18278925617E+03 -0.20824329054E+02 -0.38127945861E+03  0.78296219364E+03  0.65864270000E+03 0. -1.
    8880022    1    1    2    0    0 -0.18278925617E+03  0.20824329054E+02 -0.12387584058E+04  0.12616495574E+04  0.15294330000E+03 0.  0.
<mgrwt>
<rscale>  0 0.52593512E+03</rscale>
<asrwt>0</asrwt>
<pdfrwt beam="1">  1        2 0.32659531E-01 0.68385362E+03</pdfrwt>
<pdfrwt beam="2">  1       -2 0.28189611E+00 0.68385362E+03</pdfrwt>
<totfact> 0.69109366E+00</totfact>
</mgrwt>
</event>
<event>
 4    5  0.1905771E-007  0.7645493E+03  0.7818608E-02  0.9793469E-01
          2   -1    0    0  501    0  0.00000000000E+00  0.00000000000E+00  0.17362087067E+04  0.17362087067E+04  0.25500000000E-02 0. -1.
         -2   -1    0    0    0  501 -0.00000000000E+00 -0.00000000000E+00 -0.18145305289E+04  0.18145305289E+04  0.25500000000E-02 0.  1.
    8880023    1    1    2    0    0 -0.35594607736E+03 -0.15500887463E+03  0.16256277924E+04  0.17964412840E+04  0.65864270000E+03 0.  0.
    8880022    1    1    2    0    0  0.35594607736E+03  0.15500887463E+03 -0.17039496146E+04  0.17542979517E+04  0.15294330000E+03 0.  0.
<mgrwt>
<rscale>  0 0.65714204E+03</rscale>
<asrwt>0</asrwt>
<pdfrwt beam="1">  1        2 0.26710903E+00 0.76454926E+03</pdfrwt>
<pdfrwt beam="2">  1       -2 0.27915854E+00 0.76454926E+03</pdfrwt>
<totfact> 0.41933910E-01</totfact>
</mgrwt>
</event>
<event>
 4    5  0.1905771E-007  0.6645428E+03  0.7818608E-02  0.1019920E+00
         -2   -1    0    0    0  501 -0.00000000000E+00  0.00000000000E+00  0.24115729218E+03  0.24115729219E+03  0.25500000000E-02 0.  1.
          2   -1    0    0  501    0  0.00000000000E+00 -0.00000000000E+00 -0.13461285175E+04  0.13461285175E+04  0.25500000000E-02 0. -1.
    8880023    1    1    2    0    0 -0.85150050861E+02  0.23588026038E+02 -0.12109430139E+04  0.13813037737E+04  0.65864270000E+03 0. -1.
    8880022    1    1    2    0    0  0.85150050861E+02 -0.23588026038E+02  0.10597178861E+03  0.20598203594E+03  0.15294330000E+03 0.  0.
<mgrwt>
<rscale>  0 0.47715455E+03</rscale>
<asrwt>0</asrwt>
<pdfrwt beam="1">  1        2 0.20709669E+00 0.66454280E+03</pdfrwt>
<pdfrwt beam="2">  1       -2 0.37101123E-01 0.66454280E+03</pdfrwt>
<totfact> 0.10895844E+02</totfact>
</mgrwt>
</event>
<event>
 4    5  0.1905771E-007  0.1177396E+04  0.7818608E-02  0.9179414E-01
         -2   -1    0    0    0  501 -0.00000000000E+00  0.00000000000E+00  0.47432597203E+03  0.47432597204E+03  0.25500000000E-02 0.  1.
          2   -1    0    0  501    0  0.00000000000E+00 -0.00000000000E+00 -0.29506642585E+04  0.29506642585E+04  0.25500000000E-02 0. -1.
    8880023    1    1    2    0    0 -0.13052733883E+03  0.96716785317E+03 -0.20171653536E+04  0.23356406642E+04  0.65864270000E+03 0.  0.
    8880022    1    1    2    0    0  0.13052733883E+03 -0.96716785317E+03 -0.45917293294E+03  0.10893495664E+04  0.15294330000E+03 0.  0.
<mgrwt>
<rscale>  0 0.11268455E+04</rscale>
<asrwt>0</asrwt>
<pdfrwt beam="1">  1        2 0.45394833E+00 0.11773960E+04</pdfrwt>
<pdfrwt beam="2">  1       -2 0.72973229E-01 0.11773960E+04</pdfrwt>
<totfact> 0.31601969E+00</totfact>
</mgrwt>
</event>
<event>
 4    5  0.1905771E-007  0.1323134E+04  0.7818608E-02  0.9045836E-01
          2   -1    0    0  501    0  0.00000000000E+00  0.00000000000E+00  0.14804309717E+04  0.14804309717E+04  0.25500000000E-02 0. -1.
         -2   -1    0    0    0  501 -0.00000000000E+00 -0.00000000000E+00 -0.16651588860E+04  0.16651588860E+04  0.25500000000E-02 0.  1.
    8880023    1    1    2    0    0  0.11452526755E+04 -0.72584314366E+02  0.86667680772E+03  0.15817114366E+04  0.65864270000E+03 0. -1.
    8880022    1    1    2    0    0 -0.11452526755E+04  0.72584314366E+02 -0.10514047221E+04  0.15638784211E+04  0.15294330000E+03 0.  0.
<mgrwt>
<rscale>  0 0.12796805E+04</rscale>
<asrwt>0</asrwt>
<pdfrwt beam="1">  1        2 0.22775861E+00 0.13231335E+04</pdfrwt>
<pdfrwt beam="2">  1       -2 0.25617829E+00 0.13231335E+04</pdfrwt>
<totfact> 0.73466860E-01</totfact>
</mgrwt>
</event>
<event>
 4    5  0.1905771E-007  0.9233902E+03  0.7818608E-02  0.9489480E-01
         -2   -1    0    0    0  501 -0.00000000000E+00  0.00000000000E+00  0.54925132993E+03  0.54925132994E+03  0.25500000000E-02 0.  1.
          2   -1    0    0  501    0  0.00000000000E+00 -0.00000000000E+00 -0.13669055236E+04  0.13669055236E+04  0.25500000000E-02 0. -1.
    8880023    1    1    2    0    0  0.11671509322E+03 -0.63656638052E+03 -0.84349149052E+03  0.12506507389E+04  0.65864270000E+03 0.  0.
    8880022    1    1    2    0    0 -0.11671509322E+03  0.63656638052E+03  0.25837296807E+02  0.66550611471E+03  0.15294330000E+03 0.  0.
<mgrwt>
<rscale>  0 0.85063854E+03</rscale>
<asrwt>0</asrwt>
<pdfrwt beam="1">  1        2 0.21029316E+00 0.92339015E+03</pdfrwt>
<pdfrwt beam="2">  1       -2 0.84500205E-01 0.92339015E+03</pdfrwt>
<totfact> 0.18518694E+01</totfact>
</mgrwt>
</event>
<event>
 4    5  0.1905771E-007  0.1490641E+04  0.7818608E-02  0.8916273E-01
         -2   -1    0    0    0  501 -0.00000000000E+00  0.00000000000E+00  0.17267426705E+04  0.17267426705E+04  0.25500000000E-02 0.  1.
          2   -1    0    0  501    0  0.00000000000E+00 -0.00000000000E+00 -0.22310513435E+04  0.22310513435E+04  0.25500000000E-02 0. -1.
    8880023    1    1    2    0    0 -0.37772504446E+03 -0.12827799916E+04 -0.16258828270E+04  0.22057891761E+04  0.65864270000E+03 0.  0.
    8880022    1    1    2    0    0  0.37772504446E+03  0.12827799916E+04  0.11215741540E+04  0.17520048379E+04  0.15294330000E+03 0.  0.
<mgrwt>
<rscale>  0 0.14530728E+04</rscale>
<asrwt>0</asrwt>
<pdfrwt beam="1">  1        2 0.34323867E+00 0.14906411E+04</pdfrwt>
<pdfrwt beam="2">  1       -2 0.26565272E+00 0.14906411E+04</pdfrwt>
<totfact> 0.23979495E-01</totfact>
</mgrwt>
</event>
<event>
 4    5  0.1905771E-007  0.6877696E+03  0.7818608E-02  0.1005231E+00
         -2   -1    0    0    0  501 -0.00000000000E+00  0.00000000000E+00  0.27791747433E+03  0.27791747434E+03  0.25500000000E-02 0.  1.
          2   -1    0    0  501    0  0.00000000000E+00 -0.00000000000E+00 -0.15477830934E+04  0.15477830934E+04  0.25500000000E-02 0. -1.
    8880023    1    1    2    0    0  0.18180308600E+03 -0.78513990142E+02 -0.13879571653E+04  0.15490164969E+04  0.65864270000E+03 0. -1.
    8880022    1    1    2    0    0 -0.18180308600E+03  0.78513990142E+02  0.11809154626E+03  0.27668407081E+03  0.15294330000E+03 0.  0.
<mgrwt>
<rscale>  0 0.53414769E+03</rscale>
<asrwt>0</asrwt>
<pdfrwt beam="1">  1        2 0.23812047E+00 0.68776959E+03</pdfrwt>
<pdfrwt beam="2">  1       -2 0.42756535E-01 0.68776959E+03</pdfrwt>
<totfact> 0.63607146E+01</totfact>
</mgrwt>
</event>
<event>
 4    5  0.1905771E-007  0.6736175E+03  0.7818608E-02  0.1013192E+00
          2   -1    0    0  501    0  0.00000000000E+00  0.00000000000E+00  0.22611658180E+04  0.22611658180E+04  0.25500000000E-02 0. -1.
         -2   -1    0    0    0  501 -0.00000000000E+00 -0.00000000000E+00 -0.96611599624E+02  0.96611599657E+02  0.25500000000E-02 0.  1.
    8880023    1    1    2    0    0 -0.96971841457E+02 -0.10269738489E+03  0.19298980891E+04  0.20440809992E+04  0.65864270000E+03 0. -1.
    8880022    1    1    2    0    0  0.96971841457E+02  0.10269738489E+03  0.23465612925E+03  0.31369641838E+03  0.15294330000E+03 0.  0.
<mgrwt>
<rscale>  0 0.50225417E+03</rscale>
<asrwt>0</asrwt>
<pdfrwt beam="1">  1        2 0.34787167E+00 0.67361747E+03</pdfrwt>
<pdfrwt beam="2">  1       -2 0.14863323E-01 0.67361747E+03</pdfrwt>
<totfact> 0.17631804E+02</totfact>
</mgrwt>
</event>
<event>
 4    5  0.1905771E-007  0.1224869E+04  0.7818608E-02  0.9133319E-01
         -2   -1    0    0    0  501 -0.00000000000E+00  0.00000000000E+00  0.17349625318E+04  0.17349625318E+04  0.25500000000E-02 0.  1.
          2   -1    0    0  501    0  0.00000000000E+00 -0.00000000000E+00 -0.10013953916E+04  0.10013953916E+04  0.25500000000E-02 0. -1.
    8880023    1    1    2    0    0 -0.97025927500E+03 -0.35368266471E+03 -0.30658358641E+03  0.12626552141E+04  0.65864270000E+03 0.  0.
    8880022    1    1    2    0    0  0.97025927500E+03  0.35368266471E+03  0.10401507266E+04  0.14737027092E+04  0.15294330000E+03 0.  0.
<mgrwt>
<rscale>  0 0.11769010E+04</rscale>
<asrwt>0</asrwt>
<pdfrwt beam="1">  1        2 0.15406083E+00 0.12248693E+04</pdfrwt>
<pdfrwt beam="2">  1       -2 0.26691731E+00 0.12248693E+04</pdfrwt>
<totfact> 0.12376123E+00</totfact>
</mgrwt>
</event>
<event>
 4    5  0.1905771E-007  0.9149230E+03  0.7818608E-02  0.9502488E-01
         -2   -1    0    0    0  501 -0.00000000000E+00  0.00000000000E+00  0.10453525906E+04  0.10453525907E+04  0.25500000000E-02 0.  1.
          2   -1    0    0  501    0  0.00000000000E+00 -0.00000000000E+00 -0.13577622500E+04  0.13577622500E+04  0.25500000000E-02 0. -1.
    8880023    1    1    2    0    0  0.19939111748E+03 -0.60292381279E+03 -0.10666896898E+04  0.14053152822E+04  0.65864270000E+03 0.  0.
    8880022    1    1    2    0    0 -0.19939111748E+03  0.60292381279E+03  0.75428003038E+03  0.99779955853E+03  0.15294330000E+03 0.  0.
<mgrwt>
<rscale>  0 0.84100654E+03</rscale>
<asrwt>0</asrwt>
<pdfrwt beam="1">  1        2 0.20888650E+00 0.91492303E+03</pdfrwt>
<pdfrwt beam="2">  1       -2 0.16082348E+00 0.91492303E+03</pdfrwt>
<totfact> 0.38080618E+00</totfact>
</mgrwt>
</event>
<event>
 4    5  0.1905771E-007  0.7018356E+03  0.7818608E-02  0.9989670E-01
         -2   -1    0    0    0  501 -0.00000000000E+00  0.00000000000E+00  0.21716164841E+03  0.21716164842E+03  0.25500000000E-02 0.  1.
          2   -1    0    0  501    0  0.00000000000E+00 -0.00000000000E+00 -0.11653276722E+04  0.11653276722E+04  0.25500000000E-02 0. -1.
    8880023    1    1    2    0    0 -0.23738668853E+03 -0.49097530400E+02 -0.78371352506E+03  0.10520361700E+04  0.65864270000E+03 0.  1.
    8880022    1    1    2    0    0  0.23738668853E+03  0.49097530400E+02 -0.16445249869E+03  0.33045315058E+03  0.15294330000E+03 0.  0.
<mgrwt>
<rscale>  0 0.56105517E+03</rscale>
<asrwt>0</asrwt>
<pdfrwt beam="1">  1        2 0.17928118E+00 0.70183560E+03</pdfrwt>
<pdfrwt beam="2">  1       -2 0.33409485E-01 0.70183560E+03</pdfrwt>
<totfact> 0.16893062E+02</totfact>
</mgrwt>
</event>
<event>
 4    5  0.1905771E-007  0.7874889E+03  0.7818608E-02  0.9738531E-01
          2   -1    0    0  501    0  0.00000000000E+00  0.00000000000E+00  0.27127590723E+04  0.27127590723E+04  0.25500000000E-02 0. -1.
         -2   -1    0    0    0  501 -0.00000000000E+00 -0.00000000000E+00 -0.27071243543E+03  0.27071243545E+03  0.25500000000E-02 0.  1.
    8880023    1    1    2    0    0 -0.56699293873E+02 -0.42791800593E+03  0.23973116604E+04  0.25233394606E+04  0.65864270000E+03 0. -1.
    8880022    1    1    2    0    0  0.56699293873E+02  0.42791800593E+03  0.44734976445E+02  0.46013204720E+03  0.15294330000E+03 0.  0.
<mgrwt>
<rscale>  0 0.68768318E+03</rscale>
<asrwt>0</asrwt>
<pdfrwt beam="1">  1        2 0.41734756E+00 0.78748894E+03</pdfrwt>
<pdfrwt beam="2">  1       -2 0.41648066E-01 0.78748894E+03</pdfrwt>
<totfact> 0.14916985E+01</totfact>
</mgrwt>
</event>
<event>
 4    5  0.1905771E-007  0.1105007E+04  0.7818608E-02  0.9255501E-01
          2   -1    0    0  501    0  0.00000000000E+00  0.00000000000E+00  0.10589571903E+04  0.10589571903E+04  0.25500000000E-02 0. -1.
         -2   -1    0    0    0  501 -0.00000000000E+00 -0.00000000000E+00 -0.12440100798E+04  0.12440100798E+04  0.25500000000E-02 0.  1.
    8880023    1    1    2    0    0 -0.85023786088E+03 -0.25362688919E+03  0.45841073212E+03  0.11963200343E+04  0.65864270000E+03 0. -1.
    8880022    1    1    2    0    0  0.85023786088E+03  0.25362688919E+03 -0.64346362167E+03  0.11066472358E+04  0.15294330000E+03 0.  0.
<mgrwt>
<rscale>  0 0.10498475E+04</rscale>
<asrwt>0</asrwt>
<pdfrwt beam="1">  1        2 0.16291649E+00 0.11050073E+04</pdfrwt>
<pdfrwt beam="2">  1       -2 0.19138616E+00 0.11050073E+04</pdfrwt>
<totfact> 0.34388792E+00</totfact>
</mgrwt>
</event>
<event>
 4    5  0.1905771E-007  0.8611172E+03  0.7818608E-02  0.9591579E-01
         -2   -1    0    0    0  501 -0.00000000000E+00  0.00000000000E+00  0.47413779256E+03  0.47413779256E+03  0.25500000000E-02 0.  1.
          2   -1    0    0  501    0  0.00000000000E+00 -0.00000000000E+00 -0.13866897004E+04  0.13866897004E+04  0.25500000000E-02 0. -1.
    8880023    1    1    2    0    0  0.45188405345E+03  0.32173509014E+03 -0.95247272199E+03  0.12840277093E+04  0.65864270000E+03 0.  0.
    8880022    1    1    2    0    0 -0.45188405345E+03 -0.32173509014E+03  0.39920814125E+02  0.57679978364E+03  0.15294330000E+03 0.  0.
<mgrwt>
<rscale>  0 0.77856040E+03</rscale>
<asrwt>0</asrwt>
<pdfrwt beam="1">  1        2 0.21333688E+00 0.86111722E+03</pdfrwt>
<pdfrwt beam="2">  1       -2 0.72944276E-01 0.86111722E+03</pdfrwt>
<totfact> 0.25251786E+01</totfact>
</mgrwt>
</event>
<event>
 4    5  0.1905771E-007  0.1327855E+04  0.7818608E-02  0.9041871E-01
         -2   -1    0    0    0  501 -0.00000000000E+00  0.00000000000E+00  0.44908938646E+03  0.44908938647E+03  0.25500000000E-02 0.  1.
          2   -1    0    0  501    0  0.00000000000E+00 -0.00000000000E+00 -0.38540357558E+04  0.38540357558E+04  0.25500000000E-02 0. -1.
    8880023    1    1    2    0    0  0.35255029253E+03 -0.10977688139E+04 -0.11116707510E+04  0.17317650368E+04  0.65864270000E+03 0.  0.
    8880022    1    1    2    0    0 -0.35255029253E+03  0.10977688139E+04 -0.22932756183E+04  0.25713601055E+04  0.15294330000E+03 0.  0.
<mgrwt>
<rscale>  0 0.12845953E+04</rscale>
<asrwt>0</asrwt>
<pdfrwt beam="1">  1        2 0.59292855E+00 0.13278548E+04</pdfrwt>
<pdfrwt beam="2">  1       -2 0.69090678E-01 0.13278548E+04</pdfrwt>
<totfact> 0.85032981E-01</totfact>
</mgrwt>
</event>
<event>
 4    5  0.1905771E-007  0.7419575E+03  0.7818608E-02  0.9854281E-01
          2   -1    0    0  501    0  0.00000000000E+00  0.00000000000E+00  0.26157647374E+04  0.26157647374E+04  0.25500000000E-02 0. -1.
         -2   -1    0    0    0  501 -0.00000000000E+00 -0.00000000000E+00 -0.12061001353E+03  0.12061001356E+03  0.25500000000E-02 0.  1.
    8880023    1    1    2    0    0 -0.33416900642E+03  0.70864809239E+02  0.15078730091E+04  0.16805302627E+04  0.65864270000E+03 0. -1.
    8880022    1    1    2    0    0  0.33416900642E+03 -0.70864809239E+02  0.98728171480E+03  0.10558444883E+04  0.15294330000E+03 0.  1.
<mgrwt>
<rscale>  0 0.62529107E+03</rscale>
<asrwt>0</asrwt>
<pdfrwt beam="1">  1        2 0.40242531E+00 0.74195751E+03</pdfrwt>
<pdfrwt beam="2">  1       -2 0.18555388E-01 0.74195751E+03</pdfrwt>
<totfact> 0.75611771E+01</totfact>
</mgrwt>
</event>
<event>
 4    5  0.1905771E-007  0.1120227E+04  0.7818608E-02  0.9238864E-01
         -2   -1    0    0    0  501 -0.00000000000E+00  0.00000000000E+00  0.13218040075E+04  0.13218040075E+04  0.25500000000E-02 0.  1.
          2   -1    0    0  501    0  0.00000000000E+00 -0.00000000000E+00 -0.24626298721E+04  0.24626298721E+04  0.25500000000E-02 0. -1.
    8880023    1    1    2    0    0  0.54739663169E+03  0.72211782606E+03 -0.21470525574E+04  0.24217229647E+04  0.65864270000E+03 0. -1.
    8880022    1    1    2    0    0 -0.54739663169E+03 -0.72211782606E+03  0.10062266929E+04  0.13627109149E+04  0.15294330000E+03 0.  0.
<mgrwt>
<rscale>  0 0.10661140E+04</rscale>
<asrwt>0</asrwt>
<pdfrwt beam="1">  1        2 0.37886613E+00 0.11202265E+04</pdfrwt>
<pdfrwt beam="2">  1       -2 0.20335446E+00 0.11202265E+04</pdfrwt>
<totfact> 0.45655916E-01</totfact>
</mgrwt>
</event>
<event>
 4    5  0.1905771E-007  0.1135318E+04  0.7818608E-02  0.9222717E-01
          2   -1    0    0  501    0  0.00000000000E+00  0.00000000000E+00  0.21109975619E+04  0.21109975619E+04  0.25500000000E-02 0. -1.
         -2   -1    0    0    0  501 -0.00000000000E+00 -0.00000000000E+00 -0.93359478653E+03  0.93359478654E+03  0.25500000000E-02 0.  1.
    8880023    1    1    2    0    0  0.54600202922E+03  0.74633660710E+03  0.16437298745E+04  0.19976973378E+04  0.65864270000E+03 0.  0.
    8880022    1    1    2    0    0 -0.54600202922E+03 -0.74633660710E+03 -0.46632709907E+03  0.10468950107E+04  0.15294330000E+03 0.  0.
<mgrwt>
<rscale>  0 0.10822001E+04</rscale>
<asrwt>0</asrwt>
<pdfrwt beam="1">  1        2 0.32476885E+00 0.11353179E+04</pdfrwt>
<pdfrwt beam="2">  1       -2 0.14362997E+00 0.11353179E+04</pdfrwt>
<totfact> 0.19112870E+00</totfact>
</mgrwt>
</event>
<event>
 4    5  0.1905771E-007  0.6833155E+03  0.7818608E-02  0.1007507E+00
          2   -1    0    0  501    0  0.00000000000E+00  0.00000000000E+00  0.18993782649E+04  0.18993782649E+04  0.25500000000E-02 0. -1.
         -2   -1    0    0    0  501 -0.00000000000E+00 -0.00000000000E+00 -0.20170345311E+03  0.20170345313E+03  0.25500000000E-02 0.  1.
    8880023    1    1    2    0    0 -0.87912396201E+02 -0.15931511250E+03  0.17310628537E+04  0.18610477436E+04  0.65864270000E+03 0. -1.
    8880022    1    1    2    0    0  0.87912396201E+02  0.15931511250E+03 -0.33388041937E+02  0.24003397434E+03  0.15294330000E+03 0.  0.
<mgrwt>
<rscale>  0 0.52477545E+03</rscale>
<asrwt>0</asrwt>
<pdfrwt beam="1">  1        2 0.29221203E+00 0.68331552E+03</pdfrwt>
<pdfrwt beam="2">  1       -2 0.31031301E-01 0.68331552E+03</pdfrwt>
<totfact> 0.75590945E+01</totfact>
</mgrwt>
</event>
<event>
 4    5  0.2480207E-007  0.9863348E+03  0.7818608E-02  0.9399658E-01
         -2   -1    0    0    0  501 -0.00000000000E+00  0.00000000000E+00  0.11496564228E+04  0.11496564228E+04  0.25500000000E-02 0.  1.
          2   -1    0    0  501    0  0.00000000000E+00 -0.00000000000E+00 -0.37768105753E+04  0.37768105753E+04  0.25500000000E-02 0. -1.
    8880023    1    1    2    0    0  0.22310405996E+03  0.69947886958E+03 -0.35802840614E+04  0.37136626499E+04  0.65864270000E+03 0.  0.
    8880022    1    1    2    0    0 -0.22310405996E+03 -0.69947886958E+03  0.95312990895E+03  0.12128043482E+04  0.15294330000E+03 0.  0.
<mgrwt>
<rscale>  0 0.92103805E+03</rscale>
<asrwt>0</asrwt>
<pdfrwt beam="1">  1        2 0.58104777E+00 0.98633479E+03</pdfrwt>
<pdfrwt beam="2">  1       -2 0.17687022E+00 0.98633479E+03</pdfrwt>
<totfact> 0.10168611E-01</totfact>
</mgrwt>
</event>
<event>
 4    5  0.1905771E-007  0.7322110E+03  0.7818608E-02  0.9883246E-01
          2   -1    0    0  501    0  0.00000000000E+00  0.00000000000E+00  0.10857616468E+04  0.10857616468E+04  0.25500000000E-02 0. -1.
         -2   -1    0    0    0  501 -0.00000000000E+00 -0.00000000000E+00 -0.58821773074E+03  0.58821773074E+03  0.25500000000E-02 0.  1.
    8880023    1    1    2    0    0 -0.26747864206E+03  0.17543616118E+03  0.88509607169E+03  0.11487070701E+04  0.65864270000E+03 0. -1.
    8880022    1    1    2    0    0  0.26747864206E+03 -0.17543616118E+03 -0.38755215561E+03  0.52527230742E+03  0.15294330000E+03 0.  0.
<mgrwt>
<rscale>  0 0.61080173E+03</rscale>
<asrwt>0</asrwt>
<pdfrwt beam="1">  1        2 0.16704025E+00 0.73221095E+03</pdfrwt>
<pdfrwt beam="2">  1       -2 0.90495036E-01 0.73221095E+03</pdfrwt>
<totfact> 0.23648461E+01</totfact>
</mgrwt>
</event>
<event>
 4    5  0.1905771E-007  0.1047474E+04  0.7818608E-02  0.9321924E-01
          2   -1    0    0  501    0  0.00000000000E+00  0.00000000000E+00  0.19484221008E+04  0.19484221008E+04  0.25500000000E-02 0. -1.
         -2   -1    0    0    0  501 -0.00000000000E+00 -0.00000000000E+00 -0.87267184436E+03  0.87267184437E+03  0.25500000000E-02 0.  1.
    8880023    1    1    2    0    0 -0.69280754538E+03 -0.42826403065E+03  0.15466127176E+04  0.18679436500E+04  0.65864270000E+03 0.  0.
    8880022    1    1    2    0    0  0.69280754538E+03  0.42826403065E+03 -0.47086246119E+03  0.95315029520E+03  0.15294330000E+03 0.  0.
<mgrwt>
<rscale>  0 0.98789339E+03</rscale>
<asrwt>0</asrwt>
<pdfrwt beam="1">  1        2 0.29975724E+00 0.10474744E+04</pdfrwt>
<pdfrwt beam="2">  1       -2 0.13425721E+00 0.10474744E+04</pdfrwt>
<totfact> 0.28317632E+00</totfact>
</mgrwt>
</event>
<event>
 4    5  0.1905771E-007  0.7125937E+03  0.7818608E-02  0.9948493E-01
         -2   -1    0    0    0  501 -0.00000000000E+00  0.00000000000E+00  0.22082685645E+03  0.22082685647E+03  0.25500000000E-02 0.  1.
          2   -1    0    0  501    0  0.00000000000E+00 -0.00000000000E+00 -0.18837117898E+04  0.18837117898E+04  0.25500000000E-02 0. -1.
    8880023    1    1    2    0    0 -0.22635142383E+03 -0.15081297397E+03 -0.16441518254E+04  0.17919333000E+04  0.65864270000E+03 0. -1.
    8880022    1    1    2    0    0  0.22635142383E+03  0.15081297397E+03 -0.18733107911E+02  0.31260534630E+03  0.15294330000E+03 0.  0.
<mgrwt>
<rscale>  0 0.57967593E+03</rscale>
<asrwt>0</asrwt>
<pdfrwt beam="1">  1        2 0.28980180E+00 0.71259366E+03</pdfrwt>
<pdfrwt beam="2">  1       -2 0.33973364E-01 0.71259366E+03</pdfrwt>
<totfact> 0.64801716E+01</totfact>
</mgrwt>
</event>
<event>
 4    5  0.1905771E-007  0.7612299E+03  0.7818608E-02  0.9801934E-01
         -2   -1    0    0    0  501 -0.00000000000E+00  0.00000000000E+00  0.25774414232E+04  0.25774414232E+04  0.25500000000E-02 0.  1.
          2   -1    0    0  501    0  0.00000000000E+00 -0.00000000000E+00 -0.62318775464E+03  0.62318775464E+03  0.25500000000E-02 0. -1.
    8880023    1    1    2    0    0  0.37764392760E+03  0.55188308587E+02 -0.36570473684E+03  0.84451811483E+03  0.65864270000E+03 0. -1.
    8880022    1    1    2    0    0 -0.37764392760E+03 -0.55188308587E+02  0.23199584054E+04  0.23561110630E+04  0.15294330000E+03 0.  0.
<mgrwt>
<rscale>  0 0.65258864E+03</rscale>
<asrwt>0</asrwt>
<pdfrwt beam="1">  1        2 0.95875039E-01 0.76122985E+03</pdfrwt>
<pdfrwt beam="2">  1       -2 0.39652945E+00 0.76122985E+03</pdfrwt>
<totfact> 0.39326101E-01</totfact>
</mgrwt>
</event>
<event>
 4    5  0.1905771E-007  0.7021546E+03  0.7818608E-02  0.9988378E-01
          2   -1    0    0  501    0  0.00000000000E+00  0.00000000000E+00  0.11727544508E+04  0.11727544508E+04  0.25500000000E-02 0. -1.
         -2   -1    0    0    0  501 -0.00000000000E+00 -0.00000000000E+00 -0.26362760740E+03  0.26362760741E+03  0.25500000000E-02 0.  1.
    8880023    1    1    2    0    0  0.57106187081E+02 -0.23653696843E+03  0.90946318107E+03  0.11489753427E+04  0.65864270000E+03 0.  0.
    8880022    1    1    2    0    0 -0.57106187081E+02  0.23653696843E+03 -0.33633762457E+00  0.28740671560E+03  0.15294330000E+03 0. -1.
<mgrwt>
<rscale>  0 0.56162794E+03</rscale>
<asrwt>0</asrwt>
<pdfrwt beam="1">  1        2 0.18042376E+00 0.70215458E+03</pdfrwt>
<pdfrwt beam="2">  1       -2 0.40558094E-01 0.70215458E+03</pdfrwt>
<totfact> 0.11524602E+02</totfact>
</mgrwt>
</event>
<event>
 4    5  0.1905771E-007  0.9227050E+03  0.7818608E-02  0.9490524E-01
          2   -1    0    0  501    0  0.00000000000E+00  0.00000000000E+00  0.22812429632E+04  0.22812429632E+04  0.25500000000E-02 0. -1.
         -2   -1    0    0    0  501 -0.00000000000E+00 -0.00000000000E+00 -0.54721469280E+03  0.54721469281E+03  0.25500000000E-02 0.  1.
    8880023    1    1    2    0    0 -0.41261554720E+03 -0.49731556505E+03  0.19273518298E+04  0.21368363632E+04  0.65864270000E+03 0.  0.
    8880022    1    1    2    0    0  0.41261554720E+03  0.49731556505E+03 -0.19332355940E+03  0.69162129281E+03  0.15294330000E+03 0.  0.
<mgrwt>
<rscale>  0 0.84986081E+03</rscale>
<asrwt>0</asrwt>
<pdfrwt beam="1">  1        2 0.35096046E+00 0.92270503E+03</pdfrwt>
<pdfrwt beam="2">  1       -2 0.84186874E-01 0.92270503E+03</pdfrwt>
<totfact> 0.58149062E+00</totfact>
</mgrwt>
</event>
<event>
 4    5  0.1905771E-007  0.7305644E+03  0.7818608E-02  0.9888337E-01
         -2   -1    0    0    0  501 -0.00000000000E+00  0.00000000000E+00  0.34202998599E+03  0.34202998600E+03  0.25500000000E-02 0.  1.
          2   -1    0    0  501    0  0.00000000000E+00 -0.00000000000E+00 -0.36941712263E+04  0.36941712263E+04  0.25500000000E-02 0. -1.
    8880023    1    1    2    0    0  0.18795706784E+03 -0.25413840339E+03 -0.35559300906E+04  0.36302015375E+04  0.65864270000E+03 0. -1.
    8880022    1    1    2    0    0 -0.18795706784E+03  0.25413840339E+03  0.20378885027E+03  0.40599967480E+03  0.15294330000E+03 0.  0.
<mgrwt>
<rscale>  0 0.60829865E+03</rscale>
<asrwt>0</asrwt>
<pdfrwt beam="1">  1        2 0.56833401E+00 0.73056444E+03</pdfrwt>
<pdfrwt beam="2">  1       -2 0.52620000E-01 0.73056444E+03</pdfrwt>
<totfact> 0.22103011E+00</totfact>
</mgrwt>
</event>
<event>
 4    5  0.1905771E-007  0.9258233E+03  0.7818608E-02  0.9485787E-01
          2   -1    0    0  501    0  0.00000000000E+00  0.00000000000E+00  0.20469855669E+04  0.20469855669E+04  0.25500000000E-02 0. -1.
         -2   -1    0    0    0  501 -0.00000000000E+00 -0.00000000000E+00 -0.47078088238E+03  0.47078088239E+03  0.25500000000E-02 0.  1.
    8880023    1    1    2    0    0  0.23176630519E+03 -0.60796631826E+03  0.16004558585E+04  0.18489477618E+04  0.65864270000E+03 0.  0.
    8880022    1    1    2    0    0 -0.23176630519E+03  0.60796631826E+03 -0.24251173988E+02  0.66881868755E+03  0.15294330000E+03 0.  0.
<mgrwt>
<rscale>  0 0.85339830E+03</rscale>
<asrwt>0</asrwt>
<pdfrwt beam="1">  1        2 0.31492086E+00 0.92582335E+03</pdfrwt>
<pdfrwt beam="2">  1       -2 0.72427827E-01 0.92582335E+03</pdfrwt>
<totfact> 0.10981622E+01</totfact>
</mgrwt>
</event>
<event>
 4    5  0.1905771E-007  0.1240572E+04  0.7818608E-02  0.9118658E-01
          2   -1    0    0  501    0  0.00000000000E+00  0.00000000000E+00  0.18292966398E+04  0.18292966398E+04  0.25500000000E-02 0. -1.
         -2   -1    0    0    0  501 -0.00000000000E+00 -0.00000000000E+00 -0.10604296783E+04  0.10604296783E+04  0.25500000000E-02 0.  1.
    8880023    1    1    2    0    0 -0.95688697866E+03  0.43540399229E+03 -0.40643037299E+03  0.13054520982E+04  0.65864270000E+03 0.  0.
    8880022    1    1    2    0    0  0.95688697866E+03 -0.43540399229E+03  0.11752973345E+04  0.15842742199E+04  0.15294330000E+03 0.  0.
<mgrwt>
<rscale>  0 0.11933947E+04</rscale>
<asrwt>0</asrwt>
<pdfrwt beam="1">  1        2 0.28143025E+00 0.12405723E+04</pdfrwt>
<pdfrwt beam="2">  1       -2 0.16314303E+00 0.12405723E+04</pdfrwt>
<totfact> 0.19203203E+00</totfact>
</mgrwt>
</event>
<event>
 4    5  0.1905771E-007  0.7557897E+03  0.7818608E-02  0.9816132E-01
         -2   -1    0    0    0  501 -0.00000000000E+00  0.00000000000E+00  0.64209551987E+03  0.64209551987E+03  0.25500000000E-02 0.  1.
          2   -1    0    0  501    0  0.00000000000E+00 -0.00000000000E+00 -0.81338638897E+03  0.81338638897E+03  0.25500000000E-02 0. -1.
    8880023    1    1    2    0    0  0.63474142072E+02 -0.36521068520E+03 -0.52543492977E+03  0.92048893691E+03  0.65864270000E+03 0. -1.
    8880022    1    1    2    0    0 -0.63474142072E+02  0.36521068520E+03  0.35414406067E+03  0.53499297193E+03  0.15294330000E+03 0.  0.
<mgrwt>
<rscale>  0 0.64503946E+03</rscale>
<asrwt>0</asrwt>
<pdfrwt beam="1">  1        2 0.12513637E+00 0.75578966E+03</pdfrwt>
<pdfrwt beam="2">  1       -2 0.98783926E-01 0.75578966E+03</pdfrwt>
<totfact> 0.29040016E+01</totfact>
</mgrwt>
</event>
<event>
 4    5  0.1905771E-007  0.1442366E+04  0.7818608E-02  0.8951443E-01
          2   -1    0    0  501    0  0.00000000000E+00  0.00000000000E+00  0.78038486167E+03  0.78038486167E+03  0.25500000000E-02 0. -1.
         -2   -1    0    0    0  501 -0.00000000000E+00 -0.00000000000E+00 -0.30233829322E+04  0.30233829322E+04  0.25500000000E-02 0.  1.
    8880023    1    1    2    0    0 -0.12695850199E+04  0.18645231550E+03 -0.20358024105E+04  0.24949774046E+04  0.65864270000E+03 0.  0.
    8880022    1    1    2    0    0  0.12695850199E+04 -0.18645231550E+03 -0.20719566008E+03  0.13087903893E+04  0.15294330000E+03 0.  0.
<mgrwt>
<rscale>  0 0.14032864E+04</rscale>
<asrwt>0</asrwt>
<pdfrwt beam="1">  1        2 0.12005921E+00 0.14423664E+04</pdfrwt>
<pdfrwt beam="2">  1       -2 0.46513583E+00 0.14423664E+04</pdfrwt>
<totfact> 0.94009464E-02</totfact>
</mgrwt>
</event>
<event>
 4    5  0.1905771E-007  0.1918105E+04  0.7818608E-02  0.8659873E-01
         -2   -1    0    0    0  501 -0.00000000000E+00  0.00000000000E+00  0.17083852647E+04  0.17083852647E+04  0.25500000000E-02 0.  1.
          2   -1    0    0  501    0  0.00000000000E+00 -0.00000000000E+00 -0.27857218461E+04  0.27857218461E+04  0.25500000000E-02 0. -1.
    8880023    1    1    2    0    0 -0.17465203264E+04  0.44156734444E+03 -0.17189882323E+04  0.25756641317E+04  0.65864270000E+03 0.  0.
    8880022    1    1    2    0    0  0.17465203264E+04 -0.44156734444E+03  0.64165165092E+03  0.19184429792E+04  0.15294330000E+03 0.  0.
<mgrwt>
<rscale>  0 0.18899539E+04</rscale>
<asrwt>0</asrwt>
<pdfrwt beam="1">  1        2 0.42857259E+00 0.19181046E+04</pdfrwt>
<pdfrwt beam="2">  1       -2 0.26282850E+00 0.19181046E+04</pdfrwt>
<totfact> 0.11316929E-01</totfact>
</mgrwt>
</event>
<event>
 4    5  0.1905771E-007  0.1052351E+04  0.7818608E-02  0.9316060E-01
          2   -1    0    0  501    0  0.00000000000E+00  0.00000000000E+00  0.11742332917E+04  0.11742332917E+04  0.25500000000E-02 0. -1.
         -2   -1    0    0    0  501 -0.00000000000E+00 -0.00000000000E+00 -0.15932631840E+04  0.15932631840E+04  0.25500000000E-02 0.  1.
    8880023    1    1    2    0    0  0.19505166228E+02 -0.82051991487E+03  0.77755085907E+03  0.13084452327E+04  0.65864270000E+03 0. -1.
    8880022    1    1    2    0    0 -0.19505166228E+02  0.82051991487E+03 -0.11965807513E+04  0.14590512430E+04  0.15294330000E+03 0.  0.
<mgrwt>
<rscale>  0 0.99317700E+03</rscale>
<asrwt>0</asrwt>
<pdfrwt beam="1">  1        2 0.18065128E+00 0.10523515E+04</pdfrwt>
<pdfrwt beam="2">  1       -2 0.24511741E+00 0.10523515E+04</pdfrwt>
<totfact> 0.13376477E+00</totfact>
</mgrwt>
</event>
<event>
 4    5  0.1905771E-007  0.1152893E+04  0.7818608E-02  0.9204332E-01
         -2   -1    0    0    0  501 -0.00000000000E+00  0.00000000000E+00  0.97446633788E+03  0.97446633789E+03  0.25500000000E-02 0.  1.
          2   -1    0    0  501    0  0.00000000000E+00 -0.00000000000E+00 -0.32653407538E+04  0.32653407538E+04  0.25500000000E-02 0. -1.
    8880023    1    1    2    0    0 -0.77905017523E+03 -0.53706023952E+03 -0.28886163596E+04  0.31101877042E+04  0.65864270000E+03 0.  0.
    8880022    1    1    2    0    0  0.77905017523E+03  0.53706023952E+03  0.59774194364E+03  0.11296193875E+04  0.15294330000E+03 0.  0.
<mgrwt>
<rscale>  0 0.11008831E+04</rscale>
<asrwt>0</asrwt>
<pdfrwt beam="1">  1        2 0.50236011E+00 0.11528934E+04</pdfrwt>
<pdfrwt beam="2">  1       -2 0.14991790E+00 0.11528934E+04</pdfrwt>
<totfact> 0.35142903E-01</totfact>
</mgrwt>
</event>
<event>
 4    5  0.1905771E-007  0.1034544E+04  0.7818608E-02  0.9337696E-01
         -2   -1    0    0    0  501 -0.00000000000E+00  0.00000000000E+00  0.96734385802E+03  0.96734385803E+03  0.25500000000E-02 0.  1.
          2   -1    0    0  501    0  0.00000000000E+00 -0.00000000000E+00 -0.99326434316E+03  0.99326434317E+03  0.25500000000E-02 0. -1.
    8880023    1    1    2    0    0 -0.45303751698E+03  0.65668015997E+03 -0.34104130957E+03  0.10893076725E+04  0.65864270000E+03 0. -1.
    8880022    1    1    2    0    0  0.45303751698E+03 -0.65668015997E+03  0.31512082443E+03  0.87130052869E+03  0.15294330000E+03 0.  0.
<mgrwt>
<rscale>  0 0.97385343E+03</rscale>
<asrwt>0</asrwt>
<pdfrwt beam="1">  1        2 0.15280990E+00 0.10345444E+04</pdfrwt>
<pdfrwt beam="2">  1       -2 0.14882213E+00 0.10345444E+04</pdfrwt>
<totfact> 0.76918792E+00</totfact>
</mgrwt>
</event>
<event>
 4    5  0.1905771E-007  0.9281260E+03  0.7818608E-02  0.9482310E-01
          2   -1    0    0  501    0  0.00000000000E+00  0.00000000000E+00  0.85547974019E+03  0.85547974020E+03  0.25500000000E-02 0. -1.
         -2   -1    0    0    0  501 -0.00000000000E+00 -0.00000000000E+00 -0.88303874354E+03  0.88303874354E+03  0.25500000000E-02 0.  1.
    8880023    1    1    2    0    0 -0.31301056187E+03  0.57413592754E+03  0.32076798244E+03  0.98199286146E+03  0.65864270000E+03 0.  0.
    8880022    1    1    2    0    0  0.31301056187E+03 -0.57413592754E+03 -0.34832698578E+03  0.75652562228E+03  0.15294330000E+03 0.  0.
<mgrwt>
<rscale>  0 0.85600676E+03</rscale>
<asrwt>0</asrwt>
<pdfrwt beam="1">  1        2 0.13161227E+00 0.92812601E+03</pdfrwt>
<pdfrwt beam="2">  1       -2 0.13585211E+00 0.92812601E+03</pdfrwt>
<totfact> 0.12191855E+01</totfact>
</mgrwt>
</event>
<event>
 4    5  0.1905771E-007  0.1140173E+04  0.7818608E-02  0.9217594E-01
          2   -1    0    0  501    0  0.00000000000E+00  0.00000000000E+00  0.12775632840E+04  0.12775632840E+04  0.25500000000E-02 0. -1.
         -2   -1    0    0    0  501 -0.00000000000E+00 -0.00000000000E+00 -0.14639034257E+04  0.14639034257E+04  0.25500000000E-02 0.  1.
    8880023    1    1    2    0    0  0.24834431906E+03  0.89694449623E+03  0.78755049797E+03  0.13857237543E+04  0.65864270000E+03 0. -1.
    8880022    1    1    2    0    0 -0.24834431906E+03 -0.89694449623E+03 -0.97389063970E+03  0.13557429554E+04  0.15294330000E+03 0.  0.
<mgrwt>
<rscale>  0 0.10873665E+04</rscale>
<asrwt>0</asrwt>
<pdfrwt beam="1">  1        2 0.19654820E+00 0.11401730E+04</pdfrwt>
<pdfrwt beam="2">  1       -2 0.22521591E+00 0.11401730E+04</pdfrwt>
<totfact> 0.15260531E+00</totfact>
</mgrwt>
</event>
<event>
 4    5  0.1905771E-007  0.1290218E+04  0.7818608E-02  0.9074053E-01
          2   -1    0    0  501    0  0.00000000000E+00  0.00000000000E+00  0.37076572635E+04  0.37076572635E+04  0.25500000000E-02 0. -1.
         -2   -1    0    0    0  501 -0.00000000000E+00 -0.00000000000E+00 -0.44816517679E+03  0.44816517680E+03  0.25500000000E-02 0.  1.
    8880023    1    1    2    0    0  0.35601220142E+03  0.10507657768E+04  0.24664804483E+04  0.27835569715E+04  0.65864270000E+03 0.  0.
    8880022    1    1    2    0    0 -0.35601220142E+03 -0.10507657768E+04  0.79301163844E+03  0.13722654689E+04  0.15294330000E+03 0.  0.
<mgrwt>
<rscale>  0 0.12453609E+04</rscale>
<asrwt>0</asrwt>
<pdfrwt beam="1">  1        2 0.57040880E+00 0.12902184E+04</pdfrwt>
<pdfrwt beam="2">  1       -2 0.68948489E-01 0.12902184E+04</pdfrwt>
<totfact> 0.11042501E+00</totfact>
</mgrwt>
</event>
<event>
 4    5  0.1905771E-007  0.1006265E+04  0.7818608E-02  0.9373407E-01
         -2   -1    0    0    0  501 -0.00000000000E+00  0.00000000000E+00  0.58679342518E+03  0.58679342519E+03  0.25500000000E-02 0.  1.
          2   -1    0    0  501    0  0.00000000000E+00 -0.00000000000E+00 -0.22167360692E+04  0.22167360692E+04  0.25500000000E-02 0. -1.
    8880023    1    1    2    0    0  0.34445138911E+03  0.67831540368E+03 -0.17496406940E+04  0.20183684774E+04  0.65864270000E+03 0. -1.
    8880022    1    1    2    0    0 -0.34445138911E+03 -0.67831540368E+03  0.11969805000E+03  0.78516101694E+03  0.15294330000E+03 0.  0.
<mgrwt>
<rscale>  0 0.94296875E+03</rscale>
<asrwt>0</asrwt>
<pdfrwt beam="1">  1        2 0.34103631E+00 0.10062648E+04</pdfrwt>
<pdfrwt beam="2">  1       -2 0.90275913E-01 0.10062648E+04</pdfrwt>
<totfact> 0.53217507E+00</totfact>
</mgrwt>
</event>
<event>
 4    5  0.1905771E-007  0.1014816E+04  0.7818608E-02  0.9362426E-01
          2   -1    0    0  501    0  0.00000000000E+00  0.00000000000E+00  0.23022215064E+04  0.23022215064E+04  0.25500000000E-02 0. -1.
         -2   -1    0    0    0  501 -0.00000000000E+00 -0.00000000000E+00 -0.51273850977E+03  0.51273850977E+03  0.25500000000E-02 0.  1.
    8880023    1    1    2    0    0 -0.48571374434E+02 -0.77050747604E+03  0.17548559440E+04  0.20271582423E+04  0.65864270000E+03 0.  0.
    8880022    1    1    2    0    0  0.48571374434E+02  0.77050747604E+03  0.34627052629E+02  0.78780177382E+03  0.15294330000E+03 0.  0.
<mgrwt>
<rscale>  0 0.95233486E+03</rscale>
<asrwt>0</asrwt>
<pdfrwt beam="1">  1        2 0.35418794E+00 0.10148158E+04</pdfrwt>
<pdfrwt beam="2">  1       -2 0.78882845E-01 0.10148158E+04</pdfrwt>
<totfact> 0.64811999E+00</totfact>
</mgrwt>
</event>
<event>
 4    5  0.1905771E-007  0.1258338E+04  0.7818608E-02  0.9102400E-01
          2   -1    0    0  501    0  0.00000000000E+00  0.00000000000E+00  0.49515720552E+04  0.49515720552E+04  0.25500000000E-02 0. -1.
         -2   -1    0    0    0  501 -0.00000000000E+00 -0.00000000000E+00 -0.65227068250E+03  0.65227068250E+03  0.25500000000E-02 0.  1.
    8880023    1    1    2    0    0  0.66383462975E+02  0.10701386299E+04  0.43412908710E+04  0.45199800978E+04  0.65864270000E+03 0.  0.
    8880022    1    1    2    0    0 -0.66383462975E+02 -0.10701386299E+04 -0.41989498254E+02  0.10838626400E+04  0.15294330000E+03 0.  0.
<mgrwt>
<rscale>  0 0.12120204E+04</rscale>
<asrwt>0</asrwt>
<pdfrwt beam="1">  1        2 0.76178029E+00 0.12583377E+04</pdfrwt>
<pdfrwt beam="2">  1       -2 0.10034934E+00 0.12583377E+04</pdfrwt>
<totfact> 0.33509754E-02</totfact>
</mgrwt>
</event>
<event>
 4    5  0.1905771E-007  0.8458158E+03  0.7818608E-02  0.9619310E-01
         -2   -1    0    0    0  501 -0.00000000000E+00  0.00000000000E+00  0.16160435849E+04  0.16160435849E+04  0.25500000000E-02 0.  1.
          2   -1    0    0  501    0  0.00000000000E+00 -0.00000000000E+00 -0.48872965372E+03  0.48872965373E+03  0.25500000000E-02 0. -1.
    8880023    1    1    2    0    0 -0.31423003686E+02  0.52972323653E+03 -0.40409355432E+01  0.84582542401E+03  0.65864270000E+03 0.  0.
    8880022    1    1    2    0    0  0.31423003686E+02 -0.52972323653E+03  0.11313548668E+04  0.12589478147E+04  0.15294330000E+03 0.  0.
<mgrwt>
<rscale>  0 0.76031189E+03</rscale>
<asrwt>0</asrwt>
<pdfrwt beam="1">  1        2 0.75189178E-01 0.84581577E+03</pdfrwt>
<pdfrwt beam="2">  1       -2 0.24862209E+00 0.84581577E+03</pdfrwt>
<totfact> 0.42125296E+00</totfact>
</mgrwt>
</event>
<event>
 4    5  0.2445323E-007  0.7724859E+03  0.7818608E-02  0.9773793E-01
         -2   -1    0    0    0  501 -0.00000000000E+00  0.00000000000E+00  0.77967303928E+03  0.77967303928E+03  0.25500000000E-02 0.  1.
          2   -1    0    0  501    0  0.00000000000E+00 -0.00000000000E+00 -0.19467976823E+04  0.19467976824E+04  0.25500000000E-02 0. -1.
    8880023    1    1    2    0    0 -0.40016371085E+03 -0.52851658838E+02 -0.18009469916E+04  0.19596286807E+04  0.65864270000E+03 0. -1.
    8880022    1    1    2    0    0  0.40016371085E+03  0.52851658838E+02  0.63382234851E+03  0.76684204097E+03  0.15294330000E+03 0.  0.
<mgrwt>
<rscale>  0 0.66788115E+03</rscale>
<asrwt>0</asrwt>
<pdfrwt beam="1">  1        2 0.29950733E+00 0.77248592E+03</pdfrwt>
<pdfrwt beam="2">  1       -2 0.11994970E+00 0.77248592E+03</pdfrwt>
<totfact> 0.39206248E+00</totfact>
</mgrwt>
</event>
<event>
 4    5  0.1905771E-007  0.8096013E+03  0.7818608E-02  0.9690408E-01
         -2   -1    0    0    0  501 -0.00000000000E+00  0.00000000000E+00  0.12759661653E+03  0.12759661656E+03  0.25500000000E-02 0.  1.
          2   -1    0    0  501    0  0.00000000000E+00 -0.00000000000E+00 -0.36045839651E+04  0.36045839651E+04  0.25500000000E-02 0. -1.
    8880023    1    1    2    0    0  0.32651541481E+03  0.33916340699E+03 -0.16296858078E+04  0.18197060672E+04  0.65864270000E+03 0.  0.
    8880022    1    1    2    0    0 -0.32651541481E+03 -0.33916340699E+03 -0.18473015408E+04  0.19124745144E+04  0.15294330000E+03 0.  0.
<mgrwt>
<rscale>  0 0.71590782E+03</rscale>
<asrwt>0</asrwt>
<pdfrwt beam="1">  1        2 0.55455130E+00 0.80960135E+03</pdfrwt>
<pdfrwt beam="2">  1       -2 0.19630251E-01 0.80960135E+03</pdfrwt>
<totfact> 0.16174111E+01</totfact>
</mgrwt>
</event>
<event>
 4    5  0.1905771E-007  0.1165049E+04  0.7818608E-02  0.9191869E-01
          2   -1    0    0  501    0  0.00000000000E+00  0.00000000000E+00  0.12596037713E+04  0.12596037713E+04  0.25500000000E-02 0. -1.
         -2   -1    0    0    0  501 -0.00000000000E+00 -0.00000000000E+00 -0.15347736632E+04  0.15347736632E+04  0.25500000000E-02 0.  1.
    8880023    1    1    2    0    0  0.26185482755E+03  0.92464152240E+03  0.74630469495E+03  0.13835862097E+04  0.65864270000E+03 0.  0.
    8880022    1    1    2    0    0 -0.26185482755E+03 -0.92464152240E+03 -0.10214745868E+04  0.14107912249E+04  0.15294330000E+03 0.  0.
<mgrwt>
<rscale>  0 0.11137751E+04</rscale>
<asrwt>0</asrwt>
<pdfrwt beam="1">  1        2 0.19378520E+00 0.11650494E+04</pdfrwt>
<pdfrwt beam="2">  1       -2 0.23611902E+00 0.11650494E+04</pdfrwt>
<totfact> 0.13334455E+00</totfact>
</mgrwt>
</event>
<event>
 4    5  0.1905771E-007  0.7920826E+03  0.7818608E-02  0.9728184E-01
         -2   -1    0    0    0  501 -0.00000000000E+00  0.00000000000E+00  0.10270385166E+04  0.10270385166E+04  0.25500000000E-02 0.  1.
          2   -1    0    0  501    0  0.00000000000E+00 -0.00000000000E+00 -0.17751596879E+04  0.17751596879E+04  0.25500000000E-02 0. -1.
    8880023    1    1    2    0    0 -0.34632069115E+03  0.27137904982E+03 -0.16258474844E+04  0.18085283682E+04  0.65864270000E+03 0. -1.
    8880022    1    1    2    0    0  0.34632069115E+03 -0.27137904982E+03  0.87772631315E+03  0.99366983632E+03  0.15294330000E+03 0.  0.
<mgrwt>
<rscale>  0 0.69363241E+03</rscale>
<asrwt>0</asrwt>
<pdfrwt beam="1">  1        2 0.27310149E+00 0.79208258E+03</pdfrwt>
<pdfrwt beam="2">  1       -2 0.15800593E+00 0.79208258E+03</pdfrwt>
<totfact> 0.23812754E+00</totfact>
</mgrwt>
</event>
<event>
 4    5  0.1905771E-007  0.8246883E+03  0.7818608E-02  0.9659757E-01
         -2   -1    0    0    0  501 -0.00000000000E+00  0.00000000000E+00  0.82495303122E+03  0.82495303123E+03  0.25500000000E-02 0.  1.
          2   -1    0    0  501    0  0.00000000000E+00 -0.00000000000E+00 -0.99568522109E+03  0.99568522109E+03  0.25500000000E-02 0. -1.
    8880023    1    1    2    0    0  0.23993881038E+03 -0.43443059622E+03 -0.69810661789E+03  0.10804923100E+04  0.65864270000E+03 0.  0.
    8880022    1    1    2    0    0 -0.23993881038E+03  0.43443059622E+03  0.52737442802E+03  0.74014594237E+03  0.15294330000E+03 0.  0.
<mgrwt>
<rscale>  0 0.73464229E+03</rscale>
<asrwt>0</asrwt>
<pdfrwt beam="1">  1        2 0.15318234E+00 0.82468829E+03</pdfrwt>
<pdfrwt beam="2">  1       -2 0.12691585E+00 0.82468829E+03</pdfrwt>
<totfact> 0.11801745E+01</totfact>
</mgrwt>
</event>
<event>
 4    5  0.1905771E-007  0.8146103E+03  0.7818608E-02  0.9680053E-01
         -2   -1    0    0    0  501 -0.00000000000E+00  0.00000000000E+00  0.55881901811E+03  0.55881901811E+03  0.25500000000E-02 0.  1.
          2   -1    0    0  501    0  0.00000000000E+00 -0.00000000000E+00 -0.28640605616E+04  0.28640605616E+04  0.25500000000E-02 0. -1.
    8880023    1    1    2    0    0 -0.24867854690E+03 -0.40980329545E+03 -0.26764066998E+04  0.27976316394E+04  0.65864270000E+03 0.  0.
    8880022    1    1    2    0    0  0.24867854690E+03  0.40980329545E+03  0.37116515629E+03  0.62524794035E+03  0.15294330000E+03 0.  0.
<mgrwt>
<rscale>  0 0.72216970E+03</rscale>
<asrwt>0</asrwt>
<pdfrwt beam="1">  1        2 0.44062469E+00 0.81461032E+03</pdfrwt>
<pdfrwt beam="2">  1       -2 0.85972158E-01 0.81461032E+03</pdfrwt>
<totfact> 0.26038343E+00</totfact>
</mgrwt>
</event>
<event>
 4    5  0.1905771E-007  0.6799010E+03  0.7818608E-02  0.1009380E+00
         -2   -1    0    0    0  501 -0.00000000000E+00  0.00000000000E+00  0.86905501319E+03  0.86905501320E+03  0.25500000000E-02 0.  1.
          2   -1    0    0  501    0  0.00000000000E+00 -0.00000000000E+00 -0.12901986681E+04  0.12901986681E+04  0.25500000000E-02 0. -1.
    8880023    1    1    2    0    0 -0.13297401174E+03 -0.10379322959E+03 -0.11828012434E+04  0.13642888661E+04  0.65864270000E+03 0.  0.
    8880022    1    1    2    0    0  0.13297401174E+03  0.10379322959E+03  0.76165758853E+03  0.79496481525E+03  0.15294330000E+03 0.  1.
<mgrwt>
<rscale>  0 0.51721899E+03</rscale>
<asrwt>0</asrwt>
<pdfrwt beam="1">  1        2 0.19849210E+00 0.67990097E+03</pdfrwt>
<pdfrwt beam="2">  1       -2 0.13370077E+00 0.67990097E+03</pdfrwt>
<totfact> 0.69917487E+00</totfact>
</mgrwt>
</event>
<event>
 4    5  0.1905771E-007  0.7070833E+03  0.7818608E-02  0.9968995E-01
          2   -1    0    0  501    0  0.00000000000E+00  0.00000000000E+00  0.13296064461E+04  0.13296064461E+04  0.25500000000E-02 0. -1.
         -2   -1    0    0    0  501 -0.00000000000E+00 -0.00000000000E+00 -0.23342435934E+03  0.23342435935E+03  0.25500000000E-02 0.  1.
    8880023    1    1    2    0    0 -0.24946455949E+03 -0.62642276262E+02  0.10414771543E+04  0.12588254408E+04  0.65864270000E+03 0. -1.
    8880022    1    1    2    0    0  0.24946455949E+03  0.62642276262E+02  0.54704932421E+02  0.30420536462E+03  0.15294330000E+03 0.  0.
<mgrwt>
<rscale>  0 0.57030883E+03</rscale>
<asrwt>0</asrwt>
<pdfrwt beam="1">  1        2 0.20455483E+00 0.70708332E+03</pdfrwt>
<pdfrwt beam="2">  1       -2 0.35911440E-01 0.70708332E+03</pdfrwt>
<totfact> 0.11806610E+02</totfact>
</mgrwt>
</event>
<event>
 4    5  0.1905771E-007  0.1631419E+04  0.7818608E-02  0.8822011E-01
          2   -1    0    0  501    0  0.00000000000E+00  0.00000000000E+00  0.12571526992E+04  0.12571526992E+04  0.25500000000E-02 0. -1.
         -2   -1    0    0    0  501 -0.00000000000E+00 -0.00000000000E+00 -0.24152056387E+04  0.24152056387E+04  0.25500000000E-02 0.  1.
    8880023    1    1    2    0    0  0.38209913957E+03 -0.14428164080E+04  0.20629977377E+03  0.16444113666E+04  0.65864270000E+03 0.  0.
    8880022    1    1    2    0    0 -0.38209913957E+03  0.14428164080E+04 -0.13643527132E+04  0.20279469713E+04  0.15294330000E+03 0.  0.
<mgrwt>
<rscale>  0 0.15976212E+04</rscale>
<asrwt>0</asrwt>
<pdfrwt beam="1">  1        2 0.19340811E+00 0.16314194E+04</pdfrwt>
<pdfrwt beam="2">  1       -2 0.37157010E+00 0.16314194E+04</pdfrwt>
<totfact> 0.18521204E-01</totfact>
</mgrwt>
</event>
<event>
 4    5  0.1905771E-007  0.7777939E+03  0.7818608E-02  0.9761045E-01
         -2   -1    0    0    0  501 -0.00000000000E+00  0.00000000000E+00  0.56913408589E+03  0.56913408590E+03  0.25500000000E-02 0.  1.
          2   -1    0    0  501    0  0.00000000000E+00 -0.00000000000E+00 -0.83209623880E+03  0.83209623880E+03  0.25500000000E-02 0. -1.
    8880023    1    1    2    0    0 -0.16309344012E+03 -0.38020211906E+03 -0.47549403405E+03  0.91162377340E+03  0.65864270000E+03 0.  0.
    8880022    1    1    2    0    0  0.16309344012E+03  0.38020211906E+03  0.21253188115E+03  0.48960655130E+03  0.15294330000E+03 0.  0.
<mgrwt>
<rscale>  0 0.67495659E+03</rscale>
<asrwt>0</asrwt>
<pdfrwt beam="1">  1        2 0.12801481E+00 0.77779389E+03</pdfrwt>
<pdfrwt beam="2">  1       -2 0.87559090E-01 0.77779389E+03</pdfrwt>
<totfact> 0.37221096E+01</totfact>
</mgrwt>
</event>
<event>
 4    5  0.1905771E-007  0.8171967E+03  0.7818608E-02  0.9674777E-01
          2   -1    0    0  501    0  0.00000000000E+00  0.00000000000E+00  0.61804931965E+03  0.61804931966E+03  0.25500000000E-02 0. -1.
         -2   -1    0    0    0  501 -0.00000000000E+00 -0.00000000000E+00 -0.11060103282E+04  0.11060103282E+04  0.25500000000E-02 0.  1.
    8880023    1    1    2    0    0 -0.18052240357E+03  0.44878931445E+03  0.22630237871E+03  0.84795233346E+03  0.65864270000E+03 0.  0.
    8880022    1    1    2    0    0  0.18052240357E+03 -0.44878931445E+03 -0.71426338721E+03  0.87610731436E+03  0.15294330000E+03 0.  0.
<mgrwt>
<rscale>  0 0.72538620E+03</rscale>
<asrwt>0</asrwt>
<pdfrwt beam="1">  1        2 0.95084511E-01 0.81719667E+03</pdfrwt>
<pdfrwt beam="2">  1       -2 0.17015543E+00 0.81719667E+03</pdfrwt>
<totfact> 0.10265587E+01</totfact>
</mgrwt>
</event>
<event>
 4    5  0.1905771E-007  0.7706763E+03  0.7818608E-02  0.9778213E-01
         -2   -1    0    0    0  501 -0.00000000000E+00  0.00000000000E+00  0.17360403114E+04  0.17360403114E+04  0.25500000000E-02 0.  1.
          2   -1    0    0  501    0  0.00000000000E+00 -0.00000000000E+00 -0.47110443103E+03  0.47110443103E+03  0.25500000000E-02 0. -1.
    8880023    1    1    2    0    0 -0.87692809914E+02  0.39043790674E+03 -0.99466672026E+02  0.77706860253E+03  0.65864270000E+03 0. -1.
    8880022    1    1    2    0    0  0.87692809914E+02 -0.39043790674E+03  0.13644025524E+04  0.14300761399E+04  0.15294330000E+03 0.  0.
<mgrwt>
<rscale>  0 0.66545004E+03</rscale>
<asrwt>0</asrwt>
<pdfrwt beam="1">  1        2 0.72477606E-01 0.77067632E+03</pdfrwt>
<pdfrwt beam="2">  1       -2 0.26708312E+00 0.77067632E+03</pdfrwt>
<totfact> 0.34319675E+00</totfact>
</mgrwt>
</event>
<event>
 4    5  0.1905771E-007  0.9893679E+03  0.7818608E-02  0.9395602E-01
          2   -1    0    0  501    0  0.00000000000E+00  0.00000000000E+00  0.12086926279E+04  0.12086926279E+04  0.25500000000E-02 0. -1.
         -2   -1    0    0    0  501 -0.00000000000E+00 -0.00000000000E+00 -0.13705228225E+04  0.13705228225E+04  0.25500000000E-02 0.  1.
    8880023    1    1    2    0    0 -0.32551918851E+03  0.66262809224E+03  0.85893873364E+03  0.13102002462E+04  0.65864270000E+03 0.  0.
    8880022    1    1    2    0    0  0.32551918851E+03 -0.66262809224E+03 -0.10207689282E+04  0.12690152042E+04  0.15294330000E+03 0.  0.
<mgrwt>
<rscale>  0 0.92438532E+03</rscale>
<asrwt>0</asrwt>
<pdfrwt beam="1">  1        2 0.18595271E+00 0.98936795E+03</pdfrwt>
<pdfrwt beam="2">  1       -2 0.21084967E+00 0.98936795E+03</pdfrwt>
<totfact> 0.21042546E+00</totfact>
</mgrwt>
</event>
<event>
 4    5  0.1905771E-007  0.6910142E+03  0.7818608E-02  0.1003674E+00
         -2   -1    0    0    0  501 -0.00000000000E+00  0.00000000000E+00  0.55274447774E+03  0.55274447774E+03  0.25500000000E-02 0.  1.
          2   -1    0    0  501    0  0.00000000000E+00 -0.00000000000E+00 -0.20978785997E+04  0.20978785997E+04  0.25500000000E-02 0. -1.
    8880023    1    1    2    0    0 -0.17698048441E+03 -0.11121309154E+03 -0.20061554021E+04  0.21218294341E+04  0.65864270000E+03 0. -1.
    8880022    1    1    2    0    0  0.17698048441E+03  0.11121309154E+03  0.46102128011E+03  0.52879364342E+03  0.15294330000E+03 0.  0.
<mgrwt>
<rscale>  0 0.54068095E+03</rscale>
<asrwt>0</asrwt>
<pdfrwt beam="1">  1        2 0.32275055E+00 0.69101422E+03</pdfrwt>
<pdfrwt beam="2">  1       -2 0.85037613E-01 0.69101422E+03</pdfrwt>
<totfact> 0.74359665E+00</totfact>
</mgrwt>
</event>
<event>
 4    5  0.1905771E-007  0.6780978E+03  0.7818608E-02  0.1010421E+00
         -2   -1    0    0    0  501 -0.00000000000E+00  0.00000000000E+00  0.77895263331E+03  0.77895263332E+03  0.25500000000E-02 0.  1.
          2   -1    0    0  501    0  0.00000000000E+00 -0.00000000000E+00 -0.79495125161E+03  0.79495125161E+03  0.25500000000E-02 0. -1.
    8880023    1    1    2    0    0  0.12993449734E+03 -0.95516658734E+02 -0.62711339650E+03  0.92362753533E+03  0.65864270000E+03 0. -1.
    8880022    1    1    2    0    0 -0.12993449734E+03  0.95516658734E+02  0.61111477820E+03  0.65027634960E+03  0.15294330000E+03 0.  0.
<mgrwt>
<rscale>  0 0.51307751E+03</rscale>
<asrwt>0</asrwt>
<pdfrwt beam="1">  1        2 0.12230019E+00 0.67809779E+03</pdfrwt>
<pdfrwt beam="2">  1       -2 0.11983887E+00 0.67809779E+03</pdfrwt>
<totfact> 0.18918493E+01</totfact>
</mgrwt>
</event>
<event>
 4    5  0.1905771E-007  0.7106051E+03  0.7818608E-02  0.9955761E-01
         -2   -1    0    0    0  501 -0.00000000000E+00  0.00000000000E+00  0.37204673274E+03  0.37204673275E+03  0.25500000000E-02 0.  1.
          2   -1    0    0  501    0  0.00000000000E+00 -0.00000000000E+00 -0.12775865826E+04  0.12775865826E+04  0.25500000000E-02 0. -1.
    8880023    1    1    2    0    0  0.21434783575E+03 -0.15875877504E+03 -0.10824787663E+04  0.12948821680E+04  0.65864270000E+03 0. -1.
    8880022    1    1    2    0    0 -0.21434783575E+03  0.15875877504E+03  0.17693891645E+03  0.35475114730E+03  0.15294330000E+03 0.  0.
<mgrwt>
<rscale>  0 0.57633334E+03</rscale>
<asrwt>0</asrwt>
<pdfrwt beam="1">  1        2 0.19655178E+00 0.71060506E+03</pdfrwt>
<pdfrwt beam="2">  1       -2 0.57237960E-01 0.71060506E+03</pdfrwt>
<totfact> 0.49841839E+01</totfact>
</mgrwt>
</event>
<event>
 4    5  0.1905771E-007  0.9965768E+03  0.7818608E-02  0.9386050E-01
         -2   -1    0    0    0  501 -0.00000000000E+00  0.00000000000E+00  0.15072778065E+04  0.15072778065E+04  0.25500000000E-02 0.  1.
          2   -1    0    0  501    0  0.00000000000E+00 -0.00000000000E+00 -0.86003032525E+03  0.86003032525E+03  0.25500000000E-02 0. -1.
    8880023    1    1    2    0    0 -0.48174360420E+03 -0.57208234241E+03 -0.39788677501E+03  0.10730699878E+04  0.65864270000E+03 0.  0.
    8880022    1    1    2    0    0  0.48174360420E+03  0.57208234241E+03  0.10451342563E+04  0.12942381440E+04  0.15294330000E+03 0.  0.
<mgrwt>
<rscale>  0 0.93232657E+03</rscale>
<asrwt>0</asrwt>
<pdfrwt beam="1">  1        2 0.13231236E+00 0.99657680E+03</pdfrwt>
<pdfrwt beam="2">  1       -2 0.23188889E+00 0.99657680E+03</pdfrwt>
<totfact> 0.25870904E+00</totfact>
</mgrwt>
</event>
<event>
 4    5  0.1905771E-007  0.1034086E+04  0.7818608E-02  0.9338261E-01
          2   -1    0    0  501    0  0.00000000000E+00  0.00000000000E+00  0.22356261346E+04  0.22356261346E+04  0.25500000000E-02 0. -1.
         -2   -1    0    0    0  501 -0.00000000000E+00 -0.00000000000E+00 -0.63496466522E+03  0.63496466522E+03  0.25500000000E-02 0.  1.
    8880023    1    1    2    0    0 -0.79435751213E+03  0.67232971191E+02  0.17619475672E+04  0.20429864330E+04  0.65864270000E+03 0. -1.
    8880022    1    1    2    0    0  0.79435751213E+03 -0.67232971191E+02 -0.16128609791E+03  0.82760436677E+03  0.15294330000E+03 0.  0.
<mgrwt>
<rscale>  0 0.97335509E+03</rscale>
<asrwt>0</asrwt>
<pdfrwt beam="1">  1        2 0.34394248E+00 0.10340862E+04</pdfrwt>
<pdfrwt beam="2">  1       -2 0.97686873E-01 0.10340862E+04</pdfrwt>
<totfact> 0.43031380E+00</totfact>
</mgrwt>
</event>
<event>
 4    5  0.1905771E-007  0.6943454E+03  0.7818608E-02  0.1002152E+00
         -2   -1    0    0    0  501 -0.00000000000E+00  0.00000000000E+00  0.24705597319E+04  0.24705597319E+04  0.25500000000E-02 0.  1.
          2   -1    0    0  501    0  0.00000000000E+00 -0.00000000000E+00 -0.53637289494E+03  0.53637289495E+03  0.25500000000E-02 0. -1.
    8880023    1    1    2    0    0  0.99842774930E+02  0.19579784806E+03 -0.30026936627E+03  0.75649010278E+03  0.65864270000E+03 0. -1.
    8880022    1    1    2    0    0 -0.99842774930E+02 -0.19579784806E+03  0.22344562032E+04  0.22504425241E+04  0.15294330000E+03 0.  0.
<mgrwt>
<rscale>  0 0.54716629E+03</rscale>
<asrwt>0</asrwt>
<pdfrwt beam="1">  1        2 0.82518905E-01 0.69434544E+03</pdfrwt>
<pdfrwt beam="2">  1       -2 0.38008612E+00 0.69434544E+03</pdfrwt>
<totfact> 0.60828968E-01</totfact>
</mgrwt>
</event>
<event>
 4    5  0.1905771E-007  0.7926036E+03  0.7818608E-02  0.9727023E-01
          2   -1    0    0  501    0  0.00000000000E+00  0.00000000000E+00  0.68876838119E+03  0.68876838120E+03  0.25500000000E-02 0. -1.
         -2   -1    0    0    0  501 -0.00000000000E+00 -0.00000000000E+00 -0.61374768228E+03  0.61374768229E+03  0.25500000000E-02 0.  1.
    8880023    1    1    2    0    0 -0.43652910002E+03  0.62069513786E+02  0.20379258551E+03  0.81838371433E+03  0.65864270000E+03 0.  0.
    8880022    1    1    2    0    0  0.43652910002E+03 -0.62069513786E+02 -0.12877188660E+03  0.48413234916E+03  0.15294330000E+03 0.  0.
<mgrwt>
<rscale>  0 0.69430413E+03</rscale>
<asrwt>0</asrwt>
<pdfrwt beam="1">  1        2 0.10596437E+00 0.79260361E+03</pdfrwt>
<pdfrwt beam="2">  1       -2 0.94422721E-01 0.79260361E+03</pdfrwt>
<totfact> 0.39921434E+01</totfact>
</mgrwt>
</event>
<event>
 4    5  0.1905771E-007  0.8563191E+03  0.7818608E-02  0.9600145E-01
         -2   -1    0    0    0  501 -0.00000000000E+00  0.00000000000E+00  0.14426432731E+04  0.14426432731E+04  0.25500000000E-02 0.  1.
          2   -1    0    0  501    0  0.00000000000E+00 -0.00000000000E+00 -0.11446699362E+04  0.11446699362E+04  0.25500000000E-02 0. -1.
    8880023    1    1    2    0    0  0.53749926245E+03  0.10279481246E+03 -0.91172675678E+03  0.12508109833E+04  0.65864270000E+03 0. -1.
    8880022    1    1    2    0    0 -0.53749926245E+03 -0.10279481246E+03  0.12097000937E+04  0.13365022261E+04  0.15294330000E+03 0.  0.
<mgrwt>
<rscale>  0 0.77286593E+03</rscale>
<asrwt>0</asrwt>
<pdfrwt beam="1">  1        2 0.17610307E+00 0.85631912E+03</pdfrwt>
<pdfrwt beam="2">  1       -2 0.22194512E+00 0.85631912E+03</pdfrwt>
<totfact> 0.19909006E+00</totfact>
</mgrwt>
</event>
<event>
 4    5  0.1905771E-007  0.6730564E+03  0.7818608E-02  0.1013560E+00
         -2   -1    0    0    0  501 -0.00000000000E+00  0.00000000000E+00  0.12585542156E+04  0.12585542156E+04  0.25500000000E-02 0.  1.
          2   -1    0    0  501    0  0.00000000000E+00 -0.00000000000E+00 -0.23321089244E+04  0.23321089244E+04  0.25500000000E-02 0. -1.
    8880023    1    1    2    0    0  0.10198876057E+03  0.93771017379E+02 -0.22745630306E+04  0.23720543623E+04  0.65864270000E+03 0. -1.
    8880022    1    1    2    0    0 -0.10198876057E+03 -0.93771017379E+02  0.12010083218E+04  0.12186087777E+04  0.15294330000E+03 0.  0.
<mgrwt>
<rscale>  0 0.50083816E+03</rscale>
<asrwt>0</asrwt>
<pdfrwt beam="1">  1        2 0.35878599E+00 0.67305640E+03</pdfrwt>
<pdfrwt beam="2">  1       -2 0.19362373E+00 0.67305640E+03</pdfrwt>
<totfact> 0.68264369E-01</totfact>
</mgrwt>
</event>
<event>
 4    5  0.1905771E-007  0.1026460E+04  0.7818608E-02  0.9347730E-01
          2   -1    0    0  501    0  0.00000000000E+00  0.00000000000E+00  0.97721518390E+03  0.97721518390E+03  0.25500000000E-02 0. -1.
         -2   -1    0    0    0  501 -0.00000000000E+00 -0.00000000000E+00 -0.11137445260E+04  0.11137445260E+04  0.25500000000E-02 0.  1.
    8880023    1    1    2    0    0 -0.32151491920E+03 -0.71863637636E+03  0.42599809000E+03  0.11113481289E+04  0.65864270000E+03 0. -1.
    8880022    1    1    2    0    0  0.32151491920E+03  0.71863637636E+03 -0.56252743207E+03  0.97961158096E+03  0.15294330000E+03 0.  0.
<mgrwt>
<rscale>  0 0.96505030E+03</rscale>
<asrwt>0</asrwt>
<pdfrwt beam="1">  1        2 0.15034080E+00 0.10264601E+04</pdfrwt>
<pdfrwt beam="2">  1       -2 0.17134531E+00 0.10264601E+04</pdfrwt>
<totfact> 0.53713123E+00</totfact>
</mgrwt>
</event>
<event>
 4    5  0.1905771E-007  0.8178385E+03  0.7818608E-02  0.9673475E-01
         -2   -1    0    0    0  501 -0.00000000000E+00  0.00000000000E+00  0.43206864584E+03  0.43206864584E+03  0.25500000000E-02 0.  1.
          2   -1    0    0  501    0  0.00000000000E+00 -0.00000000000E+00 -0.17971903354E+04  0.17971903354E+04  0.25500000000E-02 0. -1.
    8880023    1    1    2    0    0 -0.76368865274E+02  0.47876656726E+03 -0.14954270272E+04  0.17044535281E+04  0.65864270000E+03 0.  1.
    8880022    1    1    2    0    0  0.76368865274E+02 -0.47876656726E+03  0.13030533772E+03  0.52480545307E+03  0.15294330000E+03 0.  0.
<mgrwt>
<rscale>  0 0.72618271E+03</rscale>
<asrwt>0</asrwt>
<pdfrwt beam="1">  1        2 0.27649082E+00 0.81783851E+03</pdfrwt>
<pdfrwt beam="2">  1       -2 0.66472100E-01 0.81783851E+03</pdfrwt>
<totfact> 0.18392145E+01</totfact>
</mgrwt>
</event>
<event>
 4    5  0.1905771E-007  0.7307014E+03  0.7818608E-02  0.9887911E-01
          2   -1    0    0  501    0  0.00000000000E+00  0.00000000000E+00  0.84363461045E+03  0.84363461046E+03  0.25500000000E-02 0. -1.
         -2   -1    0    0    0  501 -0.00000000000E+00 -0.00000000000E+00 -0.20043286498E+04  0.20043286498E+04  0.25500000000E-02 0.  1.
    8880023    1    1    2    0    0 -0.12966441847E+03  0.28861994472E+03  0.66545293022E+03  0.98830771651E+03  0.65864270000E+03 0. -1.
    8880022    1    1    2    0    0  0.12966441847E+03 -0.28861994472E+03 -0.18261469695E+04  0.18596555437E+04  0.15294330000E+03 0.  0.
<mgrwt>
<rscale>  0 0.60850753E+03</rscale>
<asrwt>0</asrwt>
<pdfrwt beam="1">  1        2 0.12978994E+00 0.73070140E+03</pdfrwt>
<pdfrwt beam="2">  1       -2 0.30835825E+00 0.73070140E+03</pdfrwt>
<totfact> 0.95142538E-01</totfact>
</mgrwt>
</event>
<event>
 4    5  0.1905771E-007  0.1460654E+04  0.7818608E-02  0.8937931E-01
         -2   -1    0    0    0  501 -0.00000000000E+00  0.00000000000E+00  0.22826105734E+04  0.22826105734E+04  0.25500000000E-02 0.  1.
          2   -1    0    0  501    0  0.00000000000E+00 -0.00000000000E+00 -0.96702612998E+03  0.96702612998E+03  0.25500000000E-02 0. -1.
    8880023    1    1    2    0    0 -0.77463462730E+03 -0.10486384227E+04  0.10574968839E+03  0.14644775690E+04  0.65864270000E+03 0. -1.
    8880022    1    1    2    0    0  0.77463462730E+03  0.10486384227E+04  0.12098347550E+04  0.17851591343E+04  0.15294330000E+03 0.  0.
<mgrwt>
<rscale>  0 0.14221625E+04</rscale>
<asrwt>0</asrwt>
<pdfrwt beam="1">  1        2 0.14877325E+00 0.14606545E+04</pdfrwt>
<pdfrwt beam="2">  1       -2 0.35117086E+00 0.14606545E+04</pdfrwt>
<totfact> 0.38604802E-01</totfact>
</mgrwt>
</event>
<event>
 4    5  0.1905771E-007  0.9286317E+03  0.7818608E-02  0.9481549E-01
          2   -1    0    0  501    0  0.00000000000E+00  0.00000000000E+00  0.13677132794E+04  0.13677132794E+04  0.25500000000E-02 0. -1.
         -2   -1    0    0    0  501 -0.00000000000E+00 -0.00000000000E+00 -0.50365696836E+03  0.50365696837E+03  0.25500000000E-02 0.  1.
    8880023    1    1    2    0    0 -0.29959707652E+03  0.58205522576E+03  0.74076847898E+03  0.11878951300E+04  0.65864270000E+03 0. -1.
    8880022    1    1    2    0    0  0.29959707652E+03 -0.58205522576E+03  0.12328783205E+03  0.68347511779E+03  0.15294330000E+03 0.  1.
<mgrwt>
<rscale>  0 0.85657923E+03</rscale>
<asrwt>0</asrwt>
<pdfrwt beam="1">  1        2 0.21041743E+00 0.92863174E+03</pdfrwt>
<pdfrwt beam="2">  1       -2 0.77485687E-01 0.92863174E+03</pdfrwt>
<totfact> 0.22491542E+01</totfact>
</mgrwt>
</event>
<event>
 4    5  0.1905771E-007  0.7724893E+03  0.7818608E-02  0.9773785E-01
         -2   -1    0    0    0  501 -0.00000000000E+00  0.00000000000E+00  0.19770293867E+03  0.19770293869E+03  0.25500000000E-02 0.  1.
          2   -1    0    0  501    0  0.00000000000E+00 -0.00000000000E+00 -0.29950761504E+04  0.29950761504E+04  0.25500000000E-02 0. -1.
    8880023    1    1    2    0    0  0.16240691857E+03  0.36953153466E+03 -0.26105297219E+04  0.27224263438E+04  0.65864270000E+03 0.  0.
    8880022    1    1    2    0    0 -0.16240691857E+03 -0.36953153466E+03 -0.18684348988E+03  0.47035274532E+03  0.15294330000E+03 0.  1.
<mgrwt>
<rscale>  0 0.66788572E+03</rscale>
<asrwt>0</asrwt>
<pdfrwt beam="1">  1        2 0.46078091E+00 0.77248933E+03</pdfrwt>
<pdfrwt beam="2">  1       -2 0.30415839E-01 0.77248933E+03</pdfrwt>
<totfact> 0.18495690E+01</totfact>
</mgrwt>
</event>
<event>
 4    5  0.1905771E-007  0.9467250E+03  0.7818608E-02  0.9454842E-01
          2   -1    0    0  501    0  0.00000000000E+00  0.00000000000E+00  0.28780998402E+04  0.28780998402E+04  0.25500000000E-02 0. -1.
         -2   -1    0    0    0  501 -0.00000000000E+00 -0.00000000000E+00 -0.23828838837E+03  0.23828838839E+03  0.25500000000E-02 0.  1.
    8880023    1    1    2    0    0 -0.58373814673E+03 -0.34889514783E+03  0.17063704661E+04  0.19514067803E+04  0.65864270000E+03 0. -1.
    8880022    1    1    2    0    0  0.58373814673E+03  0.34889514783E+03  0.93344098568E+03  0.11649814483E+04  0.15294330000E+03 0.  1.
<mgrwt>
<rscale>  0 0.87696622E+03</rscale>
<asrwt>0</asrwt>
<pdfrwt beam="1">  1        2 0.44278459E+00 0.94672502E+03</pdfrwt>
<pdfrwt beam="2">  1       -2 0.36659752E-01 0.94672502E+03</pdfrwt>
<totfact> 0.14912814E+01</totfact>
</mgrwt>
</event>
<event>
 4    5  0.1905771E-007  0.1477900E+04  0.7818608E-02  0.8925401E-01
          2   -1    0    0  501    0  0.00000000000E+00  0.00000000000E+00  0.13892658797E+04  0.13892658797E+04  0.25500000000E-02 0. -1.
         -2   -1    0    0    0  501 -0.00000000000E+00 -0.00000000000E+00 -0.15836920749E+04  0.15836920749E+04  0.25500000000E-02 0.  1.
    8880023    1    1    2    0    0 -0.11723663570E+04 -0.61313527182E+03  0.37464217778E+03  0.15246457635E+04  0.65864270000E+03 0. -1.
    8880022    1    1    2    0    0  0.11723663570E+04  0.61313527182E+03 -0.56906837291E+03  0.14483121910E+04  0.15294330000E+03 0.  0.
<mgrwt>
<rscale>  0 0.14399450E+04</rscale>
<asrwt>0</asrwt>
<pdfrwt beam="1">  1        2 0.21373321E+00 0.14778998E+04</pdfrwt>
<pdfrwt beam="2">  1       -2 0.24364494E+00 0.14778998E+04</pdfrwt>
<totfact> 0.97406644E-01</totfact>
</mgrwt>
</event>
<event>
 4    5  0.1905771E-007  0.1571655E+04  0.7818608E-02  0.8860628E-01
         -2   -1    0    0    0  501 -0.00000000000E+00  0.00000000000E+00  0.22968563830E+04  0.22968563830E+04  0.25500000000E-02 0.  1.
          2   -1    0    0  501    0  0.00000000000E+00 -0.00000000000E+00 -0.14402729890E+04  0.14402729890E+04  0.25500000000E-02 0. -1.
    8880023    1    1    2    0    0 -0.14029691898E+04  0.26070610827E+03  0.14924865832E+04  0.21673985858E+04  0.65864270000E+03 0.  0.
    8880022    1    1    2    0    0  0.14029691898E+04 -0.26070610827E+03 -0.63590318913E+03  0.15697307863E+04  0.15294330000E+03 0.  0.
<mgrwt>
<rscale>  0 0.15363600E+04</rscale>
<asrwt>0</asrwt>
<pdfrwt beam="1">  1        2 0.22158046E+00 0.15716553E+04</pdfrwt>
<pdfrwt beam="2">  1       -2 0.35336252E+00 0.15716553E+04</pdfrwt>
<totfact> 0.19017260E-01</totfact>
</mgrwt>
</event>
<event>
 4    5  0.1905771E-007  0.1679783E+04  0.7818608E-02  0.8792124E-01
         -2   -1    0    0    0  501 -0.00000000000E+00  0.00000000000E+00  0.11382916284E+04  0.11382916284E+04  0.25500000000E-02 0.  1.
          2   -1    0    0  501    0  0.00000000000E+00 -0.00000000000E+00 -0.26827604855E+04  0.26827604855E+04  0.25500000000E-02 0. -1.
    8880023    1    1    2    0    0  0.42946430180E+02  0.15446732210E+04 -0.15240056473E+04  0.22680968178E+04  0.65864270000E+03 0. -1.
    8880022    1    1    2    0    0 -0.42946430180E+02 -0.15446732210E+04 -0.20463209676E+02  0.15529552961E+04  0.15294330000E+03 0.  0.
<mgrwt>
<rscale>  0 0.16471007E+04</rscale>
<asrwt>0</asrwt>
<pdfrwt beam="1">  1        2 0.41273238E+00 0.16797827E+04</pdfrwt>
<pdfrwt beam="2">  1       -2 0.17512179E+00 0.16797827E+04</pdfrwt>
<totfact> 0.49324026E-01</totfact>
</mgrwt>
</event>
<event>
 4    5  0.1905771E-007  0.1077268E+04  0.7818608E-02  0.9286797E-01
         -2   -1    0    0    0  501 -0.00000000000E+00  0.00000000000E+00  0.11728579194E+04  0.11728579194E+04  0.25500000000E-02 0.  1.
          2   -1    0    0  501    0  0.00000000000E+00 -0.00000000000E+00 -0.30353495012E+04  0.30353495012E+04  0.25500000000E-02 0. -1.
    8880023    1    1    2    0    0 -0.16240676660E+03 -0.83685189975E+03 -0.27588971908E+04  0.29617597768E+04  0.65864270000E+03 0. -1.
    8880022    1    1    2    0    0  0.16240676660E+03  0.83685189975E+03  0.89640560894E+03  0.12464476438E+04  0.15294330000E+03 0.  0.
<mgrwt>
<rscale>  0 0.10200748E+04</rscale>
<asrwt>0</asrwt>
<pdfrwt beam="1">  1        2 0.46697684E+00 0.10772684E+04</pdfrwt>
<pdfrwt beam="2">  1       -2 0.18043968E+00 0.10772684E+04</pdfrwt>
<totfact> 0.29894148E-01</totfact>
</mgrwt>
</event>
<event>
 4    5  0.1905771E-007  0.1102311E+04  0.7818608E-02  0.9258487E-01
         -2   -1    0    0    0  501 -0.00000000000E+00  0.00000000000E+00  0.94953727972E+03  0.94953727972E+03  0.25500000000E-02 0.  1.
          2   -1    0    0  501    0  0.00000000000E+00 -0.00000000000E+00 -0.20029356214E+04  0.20029356214E+04  0.25500000000E-02 0. -1.
    8880023    1    1    2    0    0 -0.18096820463E+03  0.86517679702E+03 -0.15692302107E+04  0.19177001959E+04  0.65864270000E+03 0.  0.
    8880022    1    1    2    0    0  0.18096820463E+03 -0.86517679702E+03  0.51583186902E+03  0.10347727051E+04  0.15294330000E+03 0.  0.
<mgrwt>
<rscale>  0 0.10469613E+04</rscale>
<asrwt>0</asrwt>
<pdfrwt beam="1">  1        2 0.30814394E+00 0.11023115E+04</pdfrwt>
<pdfrwt beam="2">  1       -2 0.14608266E+00 0.11023115E+04</pdfrwt>
<totfact> 0.21063749E+00</totfact>
</mgrwt>
</event>
<event>
 4    5  0.1905771E-007  0.7205610E+03  0.7818608E-02  0.9920692E-01
         -2   -1    0    0    0  501 -0.00000000000E+00  0.00000000000E+00  0.30277904679E+03  0.30277904680E+03  0.25500000000E-02 0.  1.
          2   -1    0    0  501    0  0.00000000000E+00 -0.00000000000E+00 -0.13729835047E+04  0.13729835047E+04  0.25500000000E-02 0. -1.
    8880023    1    1    2    0    0  0.24266618389E+02 -0.29122002038E+03 -0.11303559975E+04  0.13404897823E+04  0.65864270000E+03 0. -1.
    8880022    1    1    2    0    0 -0.24266618389E+02  0.29122002038E+03  0.60151539606E+02  0.33527276921E+03  0.15294330000E+03 0.  0.
<mgrwt>
<rscale>  0 0.59268850E+03</rscale>
<asrwt>0</asrwt>
<pdfrwt beam="1">  1        2 0.21122823E+00 0.72056101E+03</pdfrwt>
<pdfrwt beam="2">  1       -2 0.46581392E-01 0.72056101E+03</pdfrwt>
<totfact> 0.66946851E+01</totfact>
</mgrwt>
</event>
<event>
 4    5  0.1905771E-007  0.1405537E+04  0.7818608E-02  0.8979393E-01
         -2   -1    0    0    0  501 -0.00000000000E+00  0.00000000000E+00  0.16666233178E+04  0.16666233178E+04  0.25500000000E-02 0.  1.
          2   -1    0    0  501    0  0.00000000000E+00 -0.00000000000E+00 -0.13253666726E+04  0.13253666726E+04  0.25500000000E-02 0. -1.
    8880023    1    1    2    0    0  0.73147796316E+03  0.10033259727E+04 -0.49164908892E+03  0.14890440057E+04  0.65864270000E+03 0.  0.
    8880022    1    1    2    0    0 -0.73147796316E+03 -0.10033259727E+04  0.83290573411E+03  0.15029459847E+04  0.15294330000E+03 0.  0.
<mgrwt>
<rscale>  0 0.13652114E+04</rscale>
<asrwt>0</asrwt>
<pdfrwt beam="1">  1        2 0.20390256E+00 0.14055366E+04</pdfrwt>
<pdfrwt beam="2">  1       -2 0.25640359E+00 0.14055366E+04</pdfrwt>
<totfact> 0.89195831E-01</totfact>
</mgrwt>
</event>
<event>
 4    5  0.1905771E-007  0.8414357E+03  0.7818608E-02  0.9627479E-01
          2   -1    0    0  501    0  0.00000000000E+00  0.00000000000E+00  0.67392060382E+03  0.67392060383E+03  0.25500000000E-02 0. -1.
         -2   -1    0    0    0  501 -0.00000000000E+00 -0.00000000000E+00 -0.11855223026E+04  0.11855223026E+04  0.25500000000E-02 0.  1.
    8880023    1    1    2    0    0 -0.43662083365E+03  0.28907803012E+03  0.28984043742E+03  0.88995592324E+03  0.65864270000E+03 0.  1.
    8880022    1    1    2    0    0  0.43662083365E+03 -0.28907803012E+03 -0.80144213621E+03  0.96948698319E+03  0.15294330000E+03 0.  0.
<mgrwt>
<rscale>  0 0.75503834E+03</rscale>
<asrwt>0</asrwt>
<pdfrwt beam="1">  1        2 0.10368009E+00 0.84143572E+03</pdfrwt>
<pdfrwt beam="2">  1       -2 0.18238805E+00 0.84143572E+03</pdfrwt>
<totfact> 0.75643095E+00</totfact>
</mgrwt>
</event>
<event>
 4    5  0.1905771E-007  0.8627028E+03  0.7818608E-02  0.9588774E-01
          2   -1    0    0  501    0  0.00000000000E+00  0.00000000000E+00  0.14201802840E+04  0.14201802840E+04  0.25500000000E-02 0. -1.
         -2   -1    0    0    0  501 -0.00000000000E+00 -0.00000000000E+00 -0.63039523118E+03  0.63039523118E+03  0.25500000000E-02 0.  1.
    8880023    1    1    2    0    0 -0.30161131251E+03 -0.46848315543E+03  0.10974807194E+04  0.13959656107E+04  0.65864270000E+03 0.  0.
    8880022    1    1    2    0    0  0.30161131251E+03  0.46848315543E+03 -0.30769566655E+03  0.65460990443E+03  0.15294330000E+03 0.  0.
<mgrwt>
<rscale>  0 0.78043688E+03</rscale>
<asrwt>0</asrwt>
<pdfrwt beam="1">  1        2 0.21848927E+00 0.86270276E+03</pdfrwt>
<pdfrwt beam="2">  1       -2 0.96983882E-01 0.86270276E+03</pdfrwt>
<totfact> 0.12628466E+01</totfact>
</mgrwt>
</event>
<event>
 4    5  0.1905771E-007  0.1830502E+04  0.7818608E-02  0.8705849E-01
         -2   -1    0    0    0  501 -0.00000000000E+00  0.00000000000E+00  0.31492911020E+04  0.31492911020E+04  0.25500000000E-02 0.  1.
          2   -1    0    0  501    0  0.00000000000E+00 -0.00000000000E+00 -0.12301715449E+04  0.12301715449E+04  0.25500000000E-02 0. -1.
    8880023    1    1    2    0    0 -0.40782133521E+03  0.16584959488E+04  0.33565665875E+02  0.18308096334E+04  0.65864270000E+03 0.  1.
    8880022    1    1    2    0    0  0.40782133521E+03 -0.16584959488E+04  0.18855538912E+04  0.25486530135E+04  0.15294330000E+03 0.  0.
<mgrwt>
<rscale>  0 0.18008475E+04</rscale>
<asrwt>0</asrwt>
<pdfrwt beam="1">  1        2 0.18925716E+00 0.18305019E+04</pdfrwt>
<pdfrwt beam="2">  1       -2 0.48450632E+00 0.18305019E+04</pdfrwt>
<totfact> 0.34024654E-02</totfact>
</mgrwt>
</event>
<event>
 4    5  0.1905771E-007  0.8277454E+03  0.7818608E-02  0.9653735E-01
          2   -1    0    0  501    0  0.00000000000E+00  0.00000000000E+00  0.68842726061E+03  0.68842726061E+03  0.25500000000E-02 0. -1.
         -2   -1    0    0    0  501 -0.00000000000E+00 -0.00000000000E+00 -0.69229862283E+03  0.69229862284E+03  0.25500000000E-02 0.  1.
    8880023    1    1    2    0    0 -0.51189570114E+02  0.49873023979E+03 -0.13922301520E+03  0.83937207387E+03  0.65864270000E+03 0.  0.
    8880022    1    1    2    0    0  0.51189570114E+02 -0.49873023979E+03  0.13535165297E+03  0.54135380958E+03  0.15294330000E+03 0.  0.
<mgrwt>
<rscale>  0 0.73839472E+03</rscale>
<asrwt>0</asrwt>
<pdfrwt beam="1">  1        2 0.10591189E+00 0.82774539E+03</pdfrwt>
<pdfrwt beam="2">  1       -2 0.10650748E+00 0.82774539E+03</pdfrwt>
<totfact> 0.29931659E+01</totfact>
</mgrwt>
</event>
<event>
 4    5  0.1905771E-007  0.1234590E+04  0.7818608E-02  0.9124210E-01
         -2   -1    0    0    0  501 -0.00000000000E+00  0.00000000000E+00  0.40206482315E+03  0.40206482315E+03  0.25500000000E-02 0.  1.
          2   -1    0    0  501    0  0.00000000000E+00 -0.00000000000E+00 -0.40651836077E+04  0.40651836077E+04  0.25500000000E-02 0. -1.
    8880023    1    1    2    0    0 -0.94597374287E+03 -0.44219521781E+03 -0.29377919232E+04  0.31866651100E+04  0.65864270000E+03 0.  0.
    8880022    1    1    2    0    0  0.94597374287E+03  0.44219521781E+03 -0.72532686133E+03  0.12805833209E+04  0.15294330000E+03 0.  0.
<mgrwt>
<rscale>  0 0.11871150E+04</rscale>
<asrwt>0</asrwt>
<pdfrwt beam="1">  1        2 0.62541283E+00 0.12345903E+04</pdfrwt>
<pdfrwt beam="2">  1       -2 0.61856129E-01 0.12345903E+04</pdfrwt>
<totfact> 0.74618467E-01</totfact>
</mgrwt>
</event>
<event>
 4    5  0.1905771E-007  0.8447841E+03  0.7818608E-02  0.9621224E-01
          2   -1    0    0  501    0  0.00000000000E+00  0.00000000000E+00  0.17893378394E+04  0.17893378394E+04  0.25500000000E-02 0. -1.
         -2   -1    0    0    0  501 -0.00000000000E+00 -0.00000000000E+00 -0.46044648631E+03  0.46044648632E+03  0.25500000000E-02 0.  1.
    8880023    1    1    2    0    0 -0.47545237296E+03 -0.23193759894E+03  0.37192840741E+02  0.84560246122E+03  0.65864270000E+03 0.  0.
    8880022    1    1    2    0    0  0.47545237296E+03  0.23193759894E+03  0.12916985123E+04  0.14041818645E+04  0.15294330000E+03 0.  0.
<mgrwt>
<rscale>  0 0.75907190E+03</rscale>
<asrwt>0</asrwt>
<pdfrwt beam="1">  1        2 0.27528274E+00 0.84478412E+03</pdfrwt>
<pdfrwt beam="2">  1       -2 0.70837922E-01 0.84478412E+03</pdfrwt>
<totfact> 0.16120221E+01</totfact>
</mgrwt>
</event>
<event>
 4    5  0.1905771E-007  0.7276818E+03  0.7818608E-02  0.9897402E-01
         -2   -1    0    0    0  501 -0.00000000000E+00  0.00000000000E+00  0.43516286412E+03  0.43516286413E+03  0.25500000000E-02 0.  1.
          2   -1    0    0  501    0  0.00000000000E+00 -0.00000000000E+00 -0.18145299552E+04  0.18145299552E+04  0.25500000000E-02 0. -1.
    8880023    1    1    2    0    0 -0.33656966108E+02  0.30753508576E+03 -0.16550694884E+04  0.18079756187E+04  0.65864270000E+03 0. -1.
    8880022    1    1    2    0    0  0.33656966108E+02 -0.30753508576E+03  0.27570239734E+03  0.44171720055E+03  0.15294330000E+03 0.  0.
<mgrwt>
<rscale>  0 0.60387375E+03</rscale>
<asrwt>0</asrwt>
<pdfrwt beam="1">  1        2 0.27915845E+00 0.72768182E+03</pdfrwt>
<pdfrwt beam="2">  1       -2 0.66948134E-01 0.72768182E+03</pdfrwt>
<totfact> 0.17928926E+01</totfact>
</mgrwt>
</event>
<event>
 4    5  0.1905771E-007  0.1004711E+04  0.7818608E-02  0.9375421E-01
          2   -1    0    0  501    0  0.00000000000E+00  0.00000000000E+00  0.10496177989E+04  0.10496177990E+04  0.25500000000E-02 0. -1.
         -2   -1    0    0    0  501 -0.00000000000E+00 -0.00000000000E+00 -0.15972561991E+04  0.15972561991E+04  0.25500000000E-02 0.  1.
    8880023    1    1    2    0    0  0.50336770678E+03  0.56767436514E+03  0.66746479450E+03  0.12062141979E+04  0.65864270000E+03 0. -1.
    8880022    1    1    2    0    0 -0.50336770678E+03 -0.56767436514E+03 -0.12151031947E+04  0.14406598001E+04  0.15294330000E+03 0.  0.
<mgrwt>
<rscale>  0 0.94126380E+03</rscale>
<asrwt>0</asrwt>
<pdfrwt beam="1">  1        2 0.16147966E+00 0.10047106E+04</pdfrwt>
<pdfrwt beam="2">  1       -2 0.24573172E+00 0.10047106E+04</pdfrwt>
<totfact> 0.15921472E+00</totfact>
</mgrwt>
</event>
<event>
 4    5  0.1905771E-007  0.6753194E+03  0.7818608E-02  0.1012106E+00
         -2   -1    0    0    0  501 -0.00000000000E+00  0.00000000000E+00  0.14946931953E+04  0.14946931953E+04  0.25500000000E-02 0.  1.
          2   -1    0    0  501    0  0.00000000000E+00 -0.00000000000E+00 -0.17800729649E+04  0.17800729649E+04  0.25500000000E-02 0. -1.
    8880023    1    1    2    0    0  0.31411329898E+02  0.14580592177E+03 -0.17077578024E+04  0.18364348495E+04  0.65864270000E+03 0.  0.
    8880022    1    1    2    0    0 -0.31411329898E+02 -0.14580592177E+03  0.14223780327E+04  0.14383313107E+04  0.15294330000E+03 0.  1.
<mgrwt>
<rscale>  0 0.50646258E+03</rscale>
<asrwt>0</asrwt>
<pdfrwt beam="1">  1        2 0.27385738E+00 0.67531936E+03</pdfrwt>
<pdfrwt beam="2">  1       -2 0.22995280E+00 0.67531936E+03</pdfrwt>
<totfact> 0.80374312E-01</totfact>
</mgrwt>
</event>
<event>
 4    5  0.1905771E-007  0.1235351E+04  0.7818608E-02  0.9123502E-01
         -2   -1    0    0    0  501 -0.00000000000E+00  0.00000000000E+00  0.82038233322E+03  0.82038233322E+03  0.25500000000E-02 0.  1.
          2   -1    0    0  501    0  0.00000000000E+00 -0.00000000000E+00 -0.37874876086E+04  0.37874876086E+04  0.25500000000E-02 0. -1.
    8880023    1    1    2    0    0  0.10253572904E+04 -0.20229937812E+03 -0.32810824815E+04  0.35059371170E+04  0.65864270000E+03 0.  0.
    8880022    1    1    2    0    0 -0.10253572904E+04  0.20229937812E+03  0.31397720617E+03  0.11019328248E+04  0.15294330000E+03 0.  0.
<mgrwt>
<rscale>  0 0.11879141E+04</rscale>
<asrwt>0</asrwt>
<pdfrwt beam="1">  1        2 0.58269039E+00 0.12353513E+04</pdfrwt>
<pdfrwt beam="2">  1       -2 0.12621267E+00 0.12353513E+04</pdfrwt>
<totfact> 0.23454241E-01</totfact>
</mgrwt>
</event>
<event>
 4    5  0.1905771E-007  0.1769141E+04  0.7818608E-02  0.8739801E-01
          2   -1    0    0  501    0  0.00000000000E+00  0.00000000000E+00  0.22943658544E+04  0.22943658544E+04  0.25500000000E-02 0. -1.
         -2   -1    0    0    0  501 -0.00000000000E+00 -0.00000000000E+00 -0.16828758112E+04  0.16828758112E+04  0.25500000000E-02 0.  1.
    8880023    1    1    2    0    0 -0.11929188240E+04  0.11282703777E+04  0.12946591916E+04  0.21922595637E+04  0.65864270000E+03 0.  0.
    8880022    1    1    2    0    0  0.11929188240E+04 -0.11282703777E+04 -0.68316914849E+03  0.17849821019E+04  0.15294330000E+03 0.  0.
<mgrwt>
<rscale>  0 0.17383282E+04</rscale>
<asrwt>0</asrwt>
<pdfrwt beam="1">  1        2 0.35297936E+00 0.17691409E+04</pdfrwt>
<pdfrwt beam="2">  1       -2 0.25890397E+00 0.17691409E+04</pdfrwt>
<totfact> 0.23555565E-01</totfact>
</mgrwt>
</event>
<event>
 4    5  0.1905771E-007  0.1327742E+04  0.7818608E-02  0.9041966E-01
         -2   -1    0    0    0  501 -0.00000000000E+00  0.00000000000E+00  0.29647413066E+04  0.29647413066E+04  0.25500000000E-02 0.  1.
          2   -1    0    0  501    0  0.00000000000E+00 -0.00000000000E+00 -0.17925219725E+04  0.17925219725E+04  0.25500000000E-02 0. -1.
    8880023    1    1    2    0    0 -0.27585733039E+03 -0.11193709878E+04 -0.14029786670E+04  0.19316438650E+04  0.65864270000E+03 0.  0.
    8880022    1    1    2    0    0  0.27585733039E+03  0.11193709878E+04  0.25751980011E+04  0.28256194140E+04  0.15294330000E+03 0.  0.
<mgrwt>
<rscale>  0 0.12844779E+04</rscale>
<asrwt>0</asrwt>
<pdfrwt beam="1">  1        2 0.27577261E+00 0.13277420E+04</pdfrwt>
<pdfrwt beam="2">  1       -2 0.45611404E+00 0.13277420E+04</pdfrwt>
<totfact> 0.26504567E-02</totfact>
</mgrwt>
</event>
<event>
 4    5  0.1905771E-007  0.7252819E+03  0.7818608E-02  0.9905103E-01
         -2   -1    0    0    0  501 -0.00000000000E+00  0.00000000000E+00  0.40976433883E+03  0.40976433884E+03  0.25500000000E-02 0.  1.
          2   -1    0    0  501    0  0.00000000000E+00 -0.00000000000E+00 -0.10390684727E+04  0.10390684727E+04  0.25500000000E-02 0. -1.
    8880023    1    1    2    0    0 -0.15452299771E+03  0.26143115617E+03 -0.79026359629E+03  0.10726371074E+04  0.65864270000E+03 0. -1.
    8880022    1    1    2    0    0  0.15452299771E+03 -0.26143115617E+03  0.16095946245E+03  0.37619570413E+03  0.15294330000E+03 0.  0.
<mgrwt>
<rscale>  0 0.60014614E+03</rscale>
<asrwt>0</asrwt>
<pdfrwt beam="1">  1        2 0.15985669E+00 0.72528188E+03</pdfrwt>
<pdfrwt beam="2">  1       -2 0.63040668E-01 0.72528188E+03</pdfrwt>
<totfact> 0.56435116E+01</totfact>
</mgrwt>
</event>
<event>
 4    5  0.1905771E-007  0.7355912E+03  0.7818608E-02  0.9872981E-01
          2   -1    0    0  501    0  0.00000000000E+00  0.00000000000E+00  0.27421144672E+04  0.27421144672E+04  0.25500000000E-02 0. -1.
         -2   -1    0    0    0  501 -0.00000000000E+00 -0.00000000000E+00 -0.21738329905E+03  0.21738329906E+03  0.25500000000E-02 0.  1.
    8880023    1    1    2    0    0  0.17263746280E+03  0.27835314625E+03  0.24899548662E+04  0.25963377303E+04  0.65864270000E+03 0. -1.
    8880022    1    1    2    0    0 -0.17263746280E+03 -0.27835314625E+03  0.34776301996E+02  0.36316003605E+03  0.15294330000E+03 0.  0.
<mgrwt>
<rscale>  0 0.61588806E+03</rscale>
<asrwt>0</asrwt>
<pdfrwt beam="1">  1        2 0.42186375E+00 0.73559117E+03</pdfrwt>
<pdfrwt beam="2">  1       -2 0.33443586E-01 0.73559117E+03</pdfrwt>
<totfact> 0.22062029E+01</totfact>
</mgrwt>
</event>
<event>
 4    5  0.2260685E-007  0.1963079E+04  0.7818608E-02  0.8637317E-01
          2   -1    0    0  501    0  0.00000000000E+00  0.00000000000E+00  0.26520770253E+04  0.26520770253E+04  0.25500000000E-02 0. -1.
         -2   -1    0    0    0  501 -0.00000000000E+00 -0.00000000000E+00 -0.28757235321E+04  0.28757235321E+04  0.25500000000E-02 0.  1.
    8880023    1    1    2    0    0  0.13583689754E+04  0.12548711420E+04  0.18831884736E+04  0.27203082344E+04  0.65864270000E+03 0.  0.
    8880022    1    1    2    0    0 -0.13583689754E+04 -0.12548711420E+04 -0.21068349804E+04  0.28074923231E+04  0.15294330000E+03 0.  0.
<mgrwt>
<rscale>  0 0.19356396E+04</rscale>
<asrwt>0</asrwt>
<pdfrwt beam="1">  1        2 0.40801185E+00 0.19630787E+04</pdfrwt>
<pdfrwt beam="2">  1       -2 0.44241901E+00 0.19630787E+04</pdfrwt>
<totfact> 0.97411367E-03</totfact>
</mgrwt>
</event>
<event>
 4    5  0.1905771E-007  0.7119192E+03  0.7818608E-02  0.9950942E-01
          2   -1    0    0  501    0  0.00000000000E+00  0.00000000000E+00  0.75991976981E+03  0.75991976981E+03  0.25500000000E-02 0. -1.
         -2   -1    0    0    0  501 -0.00000000000E+00 -0.00000000000E+00 -0.83371211558E+03  0.83371211559E+03  0.25500000000E-02 0.  1.
    8880023    1    1    2    0    0 -0.26219211255E+03  0.65375827362E+02  0.54814498396E+03  0.89849420276E+03  0.65864270000E+03 0. -1.
    8880022    1    1    2    0    0  0.26219211255E+03 -0.65375827362E+02 -0.62193732974E+03  0.69513768264E+03  0.15294330000E+03 0.  0.
<mgrwt>
<rscale>  0 0.57854678E+03</rscale>
<asrwt>0</asrwt>
<pdfrwt beam="1">  1        2 0.11691073E+00 0.71191917E+03</pdfrwt>
<pdfrwt beam="2">  1       -2 0.12826340E+00 0.71191917E+03</pdfrwt>
<totfact> 0.16871363E+01</totfact>
</mgrwt>
</event>
<event>
 4    5  0.1905771E-007  0.1007688E+04  0.7818608E-02  0.9371567E-01
         -2   -1    0    0    0  501 -0.00000000000E+00  0.00000000000E+00  0.78661408854E+03  0.78661408854E+03  0.25500000000E-02 0.  1.
          2   -1    0    0  501    0  0.00000000000E+00 -0.00000000000E+00 -0.11924317095E+04  0.11924317095E+04  0.25500000000E-02 0. -1.
    8880023    1    1    2    0    0  0.50531774652E+03 -0.57120875226E+03 -0.60600024099E+03  0.11758707250E+04  0.65864270000E+03 0.  0.
    8880022    1    1    2    0    0 -0.50531774652E+03  0.57120875226E+03  0.20018261999E+03  0.80317507306E+03  0.15294330000E+03 0. -1.
<mgrwt>
<rscale>  0 0.94452969E+03</rscale>
<asrwt>0</asrwt>
<pdfrwt beam="1">  1        2 0.18345103E+00 0.10076883E+04</pdfrwt>
<pdfrwt beam="2">  1       -2 0.12101755E+00 0.10076883E+04</pdfrwt>
<totfact> 0.98710453E+00</totfact>
</mgrwt>
</event>
<event>
 4    5  0.1905771E-007  0.8734151E+03  0.7818608E-02  0.9570132E-01
         -2   -1    0    0    0  501 -0.00000000000E+00  0.00000000000E+00  0.41397298640E+03  0.41397298641E+03  0.25500000000E-02 0.  1.
          2   -1    0    0  501    0  0.00000000000E+00 -0.00000000000E+00 -0.34478799803E+04  0.34478799803E+04  0.25500000000E-02 0. -1.
    8880023    1    1    2    0    0  0.56506567407E+03  0.98714261094E+02 -0.31396262334E+04  0.32588505355E+04  0.65864270000E+03 0.  0.
    8880022    1    1    2    0    0 -0.56506567407E+03 -0.98714261094E+02  0.10571923951E+03  0.60300243115E+03  0.15294330000E+03 0.  0.
<mgrwt>
<rscale>  0 0.79304979E+03</rscale>
<asrwt>0</asrwt>
<pdfrwt beam="1">  1        2 0.53044306E+00 0.87341509E+03</pdfrwt>
<pdfrwt beam="2">  1       -2 0.63688154E-01 0.87341509E+03</pdfrwt>
<totfact> 0.21327124E+00</totfact>
</mgrwt>
</event>
<event>
 4    5  0.1905771E-007  0.1183386E+04  0.7818608E-02  0.9173444E-01
         -2   -1    0    0    0  501 -0.00000000000E+00  0.00000000000E+00  0.94688409520E+03  0.94688409520E+03  0.25500000000E-02 0.  1.
          2   -1    0    0  501    0  0.00000000000E+00 -0.00000000000E+00 -0.20827914762E+04  0.20827914762E+04  0.25500000000E-02 0. -1.
    8880023    1    1    2    0    0  0.22382208160E+03  0.95733788425E+03 -0.15515794503E+04  0.19513587947E+04  0.65864270000E+03 0. -1.
    8880022    1    1    2    0    0 -0.22382208160E+03 -0.95733788425E+03  0.41567206925E+03  0.10783167767E+04  0.15294330000E+03 0.  0.
<mgrwt>
<rscale>  0 0.11331785E+04</rscale>
<asrwt>0</asrwt>
<pdfrwt beam="1">  1        2 0.32042946E+00 0.11833860E+04</pdfrwt>
<pdfrwt beam="2">  1       -2 0.14567448E+00 0.11833860E+04</pdfrwt>
<totfact> 0.18981461E+00</totfact>
</mgrwt>
</event>
<event>
 4    5  0.1905771E-007  0.7723887E+03  0.7818608E-02  0.9774030E-01
          2   -1    0    0  501    0  0.00000000000E+00  0.00000000000E+00  0.46000631070E+03  0.46000631071E+03  0.25500000000E-02 0. -1.
         -2   -1    0    0    0  501 -0.00000000000E+00 -0.00000000000E+00 -0.11874799817E+04  0.11874799817E+04  0.25500000000E-02 0.  1.
    8880023    1    1    2    0    0  0.35496541158E+03 -0.19176460518E+03  0.33048298256E+02  0.77309540388E+03  0.65864270000E+03 0.  0.
    8880022    1    1    2    0    0 -0.35496541158E+03  0.19176460518E+03 -0.76052196928E+03  0.87439088855E+03  0.15294330000E+03 0.  0.
<mgrwt>
<rscale>  0 0.66775079E+03</rscale>
<asrwt>0</asrwt>
<pdfrwt beam="1">  1        2 0.70770202E-01 0.77238871E+03</pdfrwt>
<pdfrwt beam="2">  1       -2 0.18268923E+00 0.77238871E+03</pdfrwt>
<totfact> 0.11952942E+01</totfact>
</mgrwt>
</event>
<event>
 4    5  0.1905771E-007  0.1037912E+04  0.7818608E-02  0.9333556E-01
          2   -1    0    0  501    0  0.00000000000E+00  0.00000000000E+00  0.14810791309E+04  0.14810791309E+04  0.25500000000E-02 0. -1.
         -2   -1    0    0    0  501 -0.00000000000E+00 -0.00000000000E+00 -0.96443491408E+03  0.96443491408E+03  0.25500000000E-02 0.  1.
    8880023    1    1    2    0    0  0.22489191735E+03  0.76998299509E+03  0.10450306989E+04  0.14728711944E+04  0.65864270000E+03 0. -1.
    8880022    1    1    2    0    0 -0.22489191735E+03 -0.76998299509E+03 -0.52838648216E+03  0.97264285057E+03  0.15294330000E+03 0.  0.
<mgrwt>
<rscale>  0 0.97751429E+03</rscale>
<asrwt>0</asrwt>
<pdfrwt beam="1">  1        2 0.22785833E+00 0.10379116E+04</pdfrwt>
<pdfrwt beam="2">  1       -2 0.14837460E+00 0.10379116E+04</pdfrwt>
<totfact> 0.39657752E+00</totfact>
</mgrwt>
</event>
<event>
 4    5  0.1905771E-007  0.7806009E+03  0.7818608E-02  0.9754427E-01
         -2   -1    0    0    0  501 -0.00000000000E+00  0.00000000000E+00  0.12291258927E+04  0.12291258927E+04  0.25500000000E-02 0.  1.
          2   -1    0    0  501    0  0.00000000000E+00 -0.00000000000E+00 -0.31151823637E+03  0.31151823638E+03  0.25500000000E-02 0. -1.
    8880023    1    1    2    0    0  0.39940611019E+03  0.12650035943E+03  0.48324059647E+03  0.91807366923E+03  0.65864270000E+03 0.  0.
    8880022    1    1    2    0    0 -0.39940611019E+03 -0.12650035943E+03  0.43436705988E+03  0.62257045988E+03  0.15294330000E+03 0.  1.
<mgrwt>
<rscale>  0 0.67866646E+03</rscale>
<asrwt>0</asrwt>
<pdfrwt beam="1">  1        2 0.47925882E-01 0.78060091E+03</pdfrwt>
<pdfrwt beam="2">  1       -2 0.18909629E+00 0.78060091E+03</pdfrwt>
<totfact> 0.16768003E+01</totfact>
</mgrwt>
</event>
<event>
 4    5  0.1905771E-007  0.8221917E+03  0.7818608E-02  0.9664720E-01
          2   -1    0    0  501    0  0.00000000000E+00  0.00000000000E+00  0.23553543188E+04  0.23553543188E+04  0.25500000000E-02 0. -1.
         -2   -1    0    0    0  501 -0.00000000000E+00 -0.00000000000E+00 -0.30691639939E+03  0.30691639940E+03  0.25500000000E-02 0.  1.
    8880023    1    1    2    0    0  0.33225101118E+03 -0.36304018810E+03  0.19780756856E+04  0.21421443782E+04  0.65864270000E+03 0.  0.
    8880022    1    1    2    0    0 -0.33225101118E+03  0.36304018810E+03  0.70362233754E+02  0.52012634000E+03  0.15294330000E+03 0.  0.
<mgrwt>
<rscale>  0 0.73156738E+03</rscale>
<asrwt>0</asrwt>
<pdfrwt beam="1">  1        2 0.36236222E+00 0.82219166E+03</pdfrwt>
<pdfrwt beam="2">  1       -2 0.47217906E-01 0.82219166E+03</pdfrwt>
<totfact> 0.18494505E+01</totfact>
</mgrwt>
</event>
<event>
 4    5  0.1905771E-007  0.1347673E+04  0.7818608E-02  0.9025447E-01
          2   -1    0    0  501    0  0.00000000000E+00  0.00000000000E+00  0.18512468414E+04  0.18512468414E+04  0.25500000000E-02 0. -1.
         -2   -1    0    0    0  501 -0.00000000000E+00 -0.00000000000E+00 -0.14186677891E+04  0.14186677891E+04  0.25500000000E-02 0.  1.
    8880023    1    1    2    0    0  0.50751004733E+03 -0.10605872587E+04  0.12432955996E+04  0.18335773601E+04  0.65864270000E+03 0.  0.
    8880022    1    1    2    0    0 -0.50751004733E+03  0.10605872587E+04 -0.81071654725E+03  0.14363372704E+04  0.15294330000E+03 0.  0.
<mgrwt>
<rscale>  0 0.13052056E+04</rscale>
<asrwt>0</asrwt>
<pdfrwt beam="1">  1        2 0.28480721E+00 0.13476728E+04</pdfrwt>
<pdfrwt beam="2">  1       -2 0.21825658E+00 0.13476728E+04</pdfrwt>
<totfact> 0.78174407E-01</totfact>
</mgrwt>
</event>
<event>
 4    5  0.1905771E-007  0.7065272E+03  0.7818608E-02  0.9971130E-01
         -2   -1    0    0    0  501 -0.00000000000E+00  0.00000000000E+00  0.12354330810E+04  0.12354330810E+04  0.25500000000E-02 0.  1.
          2   -1    0    0  501    0  0.00000000000E+00 -0.00000000000E+00 -0.77073180500E+03  0.77073180500E+03  0.25500000000E-02 0. -1.
    8880023    1    1    2    0    0  0.24645462501E+03 -0.68048215223E+02 -0.58357499288E+03  0.91637351574E+03  0.65864270000E+03 0. -1.
    8880022    1    1    2    0    0 -0.24645462501E+03  0.68048215223E+02  0.10482762689E+04  0.10897913702E+04  0.15294330000E+03 0.  0.
<mgrwt>
<rscale>  0 0.56934446E+03</rscale>
<asrwt>0</asrwt>
<pdfrwt beam="1">  1        2 0.11857413E+00 0.70652717E+03</pdfrwt>
<pdfrwt beam="2">  1       -2 0.19006663E+00 0.70652717E+03</pdfrwt>
<totfact> 0.57488774E+00</totfact>
</mgrwt>
</event>
<event>
 4    5  0.1905771E-007  0.6825950E+03  0.7818608E-02  0.1007892E+00
          2   -1    0    0  501    0  0.00000000000E+00  0.00000000000E+00  0.17627268239E+04  0.17627268239E+04  0.25500000000E-02 0. -1.
         -2   -1    0    0    0  501 -0.00000000000E+00 -0.00000000000E+00 -0.15949163768E+04  0.15949163768E+04  0.25500000000E-02 0.  1.
    8880023    1    1    2    0    0 -0.67044537604E+02 -0.16622519960E+03  0.16872225197E+04  0.18200702801E+04  0.65864270000E+03 0. -1.
    8880022    1    1    2    0    0  0.67044537604E+02  0.16622519960E+03 -0.15194120726E+04  0.15375729207E+04  0.15294330000E+03 0.  0.
<mgrwt>
<rscale>  0 0.52320999E+03</rscale>
<asrwt>0</asrwt>
<pdfrwt beam="1">  1        2 0.27118874E+00 0.68259504E+03</pdfrwt>
<pdfrwt beam="2">  1       -2 0.24537175E+00 0.68259504E+03</pdfrwt>
<totfact> 0.66016913E-01</totfact>
</mgrwt>
</event>
<event>
 4    5  0.1905771E-007  0.6754231E+03  0.7818608E-02  0.1012041E+00
          2   -1    0    0  501    0  0.00000000000E+00  0.00000000000E+00  0.13985496699E+04  0.13985496699E+04  0.25500000000E-02 0. -1.
         -2   -1    0    0    0  501 -0.00000000000E+00 -0.00000000000E+00 -0.57326092670E+03  0.57326092671E+03  0.25500000000E-02 0.  1.
    8880023    1    1    2    0    0  0.10310706313E+03 -0.10842105041E+03  0.12922771103E+04  0.14581414632E+04  0.65864270000E+03 0. -1.
    8880022    1    1    2    0    0 -0.10310706313E+03  0.10842105041E+03 -0.46698836707E+03  0.51366913343E+03  0.15294330000E+03 0.  0.
<mgrwt>
<rscale>  0 0.50671512E+03</rscale>
<asrwt>0</asrwt>
<pdfrwt beam="1">  1        2 0.21516149E+00 0.67542312E+03</pdfrwt>
<pdfrwt beam="2">  1       -2 0.88193989E-01 0.67542312E+03</pdfrwt>
<totfact> 0.16573756E+01</totfact>
</mgrwt>
</event>
<event>
 4    5  0.1905771E-007  0.1096360E+04  0.7818608E-02  0.9265119E-01
          2   -1    0    0  501    0  0.00000000000E+00  0.00000000000E+00  0.11813940985E+04  0.11813940985E+04  0.25500000000E-02 0. -1.
         -2   -1    0    0    0  501 -0.00000000000E+00 -0.00000000000E+00 -0.23157141864E+04  0.23157141864E+04  0.25500000000E-02 0.  1.
    8880023    1    1    2    0    0  0.81185339862E+03  0.33028706576E+03  0.80718435255E+03  0.13614522658E+04  0.65864270000E+03 0.  0.
    8880022    1    1    2    0    0 -0.81185339862E+03 -0.33028706576E+03 -0.19415044405E+04  0.21356560192E+04  0.15294330000E+03 0.  0.
<mgrwt>
<rscale>  0 0.10405843E+04</rscale>
<asrwt>0</asrwt>
<pdfrwt beam="1">  1        2 0.18175294E+00 0.10963602E+04</pdfrwt>
<pdfrwt beam="2">  1       -2 0.35626372E+00 0.10963602E+04</pdfrwt>
<totfact> 0.27511439E-01</totfact>
</mgrwt>
</event>
<event>
 4    5  0.1905771E-007  0.1114840E+04  0.7818608E-02  0.9244710E-01
          2   -1    0    0  501    0  0.00000000000E+00  0.00000000000E+00  0.33070947206E+04  0.33070947206E+04  0.25500000000E-02 0. -1.
         -2   -1    0    0    0  501 -0.00000000000E+00 -0.00000000000E+00 -0.52647668073E+03  0.52647668073E+03  0.25500000000E-02 0.  1.
    8880023    1    1    2    0    0  0.86096327540E+03  0.26038688917E+03  0.24865263767E+03  0.11422335287E+04  0.65864270000E+03 0. -1.
    8880022    1    1    2    0    0 -0.86096327540E+03 -0.26038688917E+03  0.25319654022E+04  0.26913378727E+04  0.15294330000E+03 0.  0.
<mgrwt>
<rscale>  0 0.10603625E+04</rscale>
<asrwt>0</asrwt>
<pdfrwt beam="1">  1        2 0.50878380E+00 0.11148405E+04</pdfrwt>
<pdfrwt beam="2">  1       -2 0.80996413E-01 0.11148405E+04</pdfrwt>
<totfact> 0.14976239E+00</totfact>
</mgrwt>
</event>
<event>
 4    5  0.1905771E-007  0.1216008E+04  0.7818608E-02  0.9141716E-01
         -2   -1    0    0    0  501 -0.00000000000E+00  0.00000000000E+00  0.19824205831E+04  0.19824205831E+04  0.25500000000E-02 0.  1.
          2   -1    0    0  501    0  0.00000000000E+00 -0.00000000000E+00 -0.17394387229E+04  0.17394387229E+04  0.25500000000E-02 0. -1.
    8880023    1    1    2    0    0  0.10093614656E+04 -0.16141776249E+03 -0.13538150261E+04  0.18197504206E+04  0.65864270000E+03 0.  0.
    8880022    1    1    2    0    0 -0.10093614656E+04  0.16141776249E+03  0.15967968863E+04  0.19021088853E+04  0.15294330000E+03 0.  0.
<mgrwt>
<rscale>  0 0.11675808E+04</rscale>
<asrwt>0</asrwt>
<pdfrwt beam="1">  1        2 0.26760596E+00 0.12160084E+04</pdfrwt>
<pdfrwt beam="2">  1       -2 0.30498778E+00 0.12160084E+04</pdfrwt>
<totfact> 0.26902029E-01</totfact>
</mgrwt>
</event>
<event>
 4    5  0.1905771E-007  0.9689765E+03  0.7818608E-02  0.9423321E-01
         -2   -1    0    0    0  501 -0.00000000000E+00  0.00000000000E+00  0.32495159252E+03  0.32495159253E+03  0.25500000000E-02 0.  1.
          2   -1    0    0  501    0  0.00000000000E+00 -0.00000000000E+00 -0.22803360078E+04  0.22803360078E+04  0.25500000000E-02 0. -1.
    8880023    1    1    2    0    0  0.62945704277E+03  0.32998331793E+03 -0.13349614826E+04  0.16495567663E+04  0.65864270000E+03 0.  0.
    8880022    1    1    2    0    0 -0.62945704277E+03 -0.32998331793E+03 -0.62042293265E+03  0.95573083406E+03  0.15294330000E+03 0.  0.
<mgrwt>
<rscale>  0 0.90181035E+03</rscale>
<asrwt>0</asrwt>
<pdfrwt beam="1">  1        2 0.35082091E+00 0.96897645E+03</pdfrwt>
<pdfrwt beam="2">  1       -2 0.49992554E-01 0.96897645E+03</pdfrwt>
<totfact> 0.17814585E+01</totfact>
</mgrwt>
</event>
<event>
 4    5  0.1905771E-007  0.7996803E+03  0.7818608E-02  0.9711488E-01
          2   -1    0    0  501    0  0.00000000000E+00  0.00000000000E+00  0.15748400794E+04  0.15748400794E+04  0.25500000000E-02 0. -1.
         -2   -1    0    0    0  501 -0.00000000000E+00 -0.00000000000E+00 -0.41431524893E+03  0.41431524894E+03  0.25500000000E-02 0.  1.
    8880023    1    1    2    0    0  0.10083027922E+03  0.44216694014E+03  0.12675492118E+04  0.14987226424E+04  0.65864270000E+03 0.  0.
    8880022    1    1    2    0    0 -0.10083027922E+03 -0.44216694014E+03 -0.10702438141E+03  0.49043268589E+03  0.15294330000E+03 0.  1.
<mgrwt>
<rscale>  0 0.70336915E+03</rscale>
<asrwt>0</asrwt>
<pdfrwt beam="1">  1        2 0.24228309E+00 0.79968028E+03</pdfrwt>
<pdfrwt beam="2">  1       -2 0.63740807E-01 0.79968028E+03</pdfrwt>
<totfact> 0.26726504E+01</totfact>
</mgrwt>
</event>
<event>
 4    5  0.1905771E-007  0.1051707E+04  0.7818608E-02  0.9316833E-01
          2   -1    0    0  501    0  0.00000000000E+00  0.00000000000E+00  0.76005140313E+03  0.76005140313E+03  0.25500000000E-02 0. -1.
         -2   -1    0    0    0  501 -0.00000000000E+00 -0.00000000000E+00 -0.18258535720E+04  0.18258535720E+04  0.25500000000E-02 0.  1.
    8880023    1    1    2    0    0 -0.16624376226E+03 -0.80289447789E+03  0.19947168267E+03  0.10704558326E+04  0.65864270000E+03 0.  0.
    8880022    1    1    2    0    0  0.16624376226E+03  0.80289447789E+03 -0.12652738515E+04  0.15154491425E+04  0.15294330000E+03 0.  0.
<mgrwt>
<rscale>  0 0.99247874E+03</rscale>
<asrwt>0</asrwt>
<pdfrwt beam="1">  1        2 0.11693099E+00 0.10517066E+04</pdfrwt>
<pdfrwt beam="2">  1       -2 0.28090055E+00 0.10517066E+04</pdfrwt>
<totfact> 0.15258267E+00</totfact>
</mgrwt>
</event>
<event>
 4    5  0.1905771E-007  0.1050073E+04  0.7818608E-02  0.9318794E-01
         -2   -1    0    0    0  501 -0.00000000000E+00  0.00000000000E+00  0.24116137544E+03  0.24116137545E+03  0.25500000000E-02 0.  1.
          2   -1    0    0  501    0  0.00000000000E+00 -0.00000000000E+00 -0.39175921685E+04  0.39175921685E+04  0.25500000000E-02 0. -1.
    8880023    1    1    2    0    0 -0.29308395455E+02 -0.81730282588E+03 -0.15205522982E+04  0.18478994532E+04  0.65864270000E+03 0.  0.
    8880022    1    1    2    0    0  0.29308395455E+02  0.81730282588E+03 -0.21558784949E+04  0.23108540908E+04  0.15294330000E+03 0.  0.
<mgrwt>
<rscale>  0 0.99070932E+03</rscale>
<asrwt>0</asrwt>
<pdfrwt beam="1">  1        2 0.60270644E+00 0.10500729E+04</pdfrwt>
<pdfrwt beam="2">  1       -2 0.37101753E-01 0.10500729E+04</pdfrwt>
<totfact> 0.28428712E+00</totfact>
</mgrwt>
</event>
<event>
 4    5  0.1905771E-007  0.7120422E+03  0.7818608E-02  0.9950494E-01
          2   -1    0    0  501    0  0.00000000000E+00  0.00000000000E+00  0.26992007644E+04  0.26992007644E+04  0.25500000000E-02 0. -1.
         -2   -1    0    0    0  501 -0.00000000000E+00 -0.00000000000E+00 -0.16330996490E+03  0.16330996492E+03  0.25500000000E-02 0.  1.
    8880023    1    1    2    0    0  0.13549763364E+03  0.23416725921E+03  0.24331337745E+04  0.25351812726E+04  0.65864270000E+03 0. -1.
    8880022    1    1    2    0    0 -0.13549763364E+03 -0.23416725921E+03  0.10275702491E+03  0.32732945665E+03  0.15294330000E+03 0.  0.
<mgrwt>
<rscale>  0 0.57875311E+03</rscale>
<asrwt>0</asrwt>
<pdfrwt beam="1">  1        2 0.41526162E+00 0.71204222E+03</pdfrwt>
<pdfrwt beam="2">  1       -2 0.25124612E-01 0.71204222E+03</pdfrwt>
<totfact> 0.39763999E+01</totfact>
</mgrwt>
</event>
<event>
 4    5  0.1905771E-007  0.1205726E+04  0.7818608E-02  0.9151577E-01
         -2   -1    0    0    0  501 -0.00000000000E+00  0.00000000000E+00  0.94896876734E+03  0.94896876735E+03  0.25500000000E-02 0.  1.
          2   -1    0    0  501    0  0.00000000000E+00 -0.00000000000E+00 -0.17322324047E+04  0.17322324047E+04  0.25500000000E-02 0. -1.
    8880023    1    1    2    0    0  0.27652469028E+03 -0.97133849537E+03  0.24660808295E+03  0.12306868528E+04  0.65864270000E+03 0.  0.
    8880022    1    1    2    0    0 -0.27652469028E+03  0.97133849537E+03 -0.10298717203E+04  0.14505143192E+04  0.15294330000E+03 0.  0.
<mgrwt>
<rscale>  0 0.11567526E+04</rscale>
<asrwt>0</asrwt>
<pdfrwt beam="1">  1        2 0.26649729E+00 0.12057257E+04</pdfrwt>
<pdfrwt beam="2">  1       -2 0.14599520E+00 0.12057257E+04</pdfrwt>
<totfact> 0.29436656E+00</totfact>
</mgrwt>
</event>
<event>
 4    5  0.1905771E-007  0.7301533E+03  0.7818608E-02  0.9889618E-01
         -2   -1    0    0    0  501 -0.00000000000E+00  0.00000000000E+00  0.51454655697E+03  0.51454655697E+03  0.25500000000E-02 0.  1.
          2   -1    0    0  501    0  0.00000000000E+00 -0.00000000000E+00 -0.10578867114E+04  0.10578867114E+04  0.25500000000E-02 0. -1.
    8880023    1    1    2    0    0 -0.23621338015E+03 -0.20860715035E+03 -0.84029923180E+03  0.11132056007E+04  0.65864270000E+03 0. -1.
    8880022    1    1    2    0    0  0.23621338015E+03  0.20860715035E+03  0.29695907737E+03  0.45922766770E+03  0.15294330000E+03 0.  1.
<mgrwt>
<rscale>  0 0.60767099E+03</rscale>
<asrwt>0</asrwt>
<pdfrwt beam="1">  1        2 0.16275180E+00 0.73015335E+03</pdfrwt>
<pdfrwt beam="2">  1       -2 0.79161009E-01 0.73015335E+03</pdfrwt>
<totfact> 0.33369156E+01</totfact>
</mgrwt>
</event>
<event>
 4    5  0.1905771E-007  0.8997285E+03  0.7818608E-02  0.9526468E-01
          2   -1    0    0  501    0  0.00000000000E+00  0.00000000000E+00  0.18136815313E+04  0.18136815313E+04  0.25500000000E-02 0. -1.
         -2   -1    0    0    0  501 -0.00000000000E+00 -0.00000000000E+00 -0.59221193172E+03  0.59221193172E+03  0.25500000000E-02 0.  1.
    8880023    1    1    2    0    0 -0.51239200802E+03  0.33638599182E+03  0.14728978577E+04  0.17259604314E+04  0.65864270000E+03 0.  0.
    8880022    1    1    2    0    0  0.51239200802E+03 -0.33638599182E+03 -0.25142825816E+03  0.67993303155E+03  0.15294330000E+03 0.  0.
<mgrwt>
<rscale>  0 0.82360282E+03</rscale>
<asrwt>0</asrwt>
<pdfrwt beam="1">  1        2 0.27902792E+00 0.89972847E+03</pdfrwt>
<pdfrwt beam="2">  1       -2 0.91109529E-01 0.89972847E+03</pdfrwt>
<totfact> 0.88030931E+00</totfact>
</mgrwt>
</event>
<event>
 4    5  0.1905771E-007  0.1131579E+04  0.7818608E-02  0.9226685E-01
         -2   -1    0    0    0  501 -0.00000000000E+00  0.00000000000E+00  0.20157473510E+04  0.20157473510E+04  0.25500000000E-02 0.  1.
          2   -1    0    0  501    0  0.00000000000E+00 -0.00000000000E+00 -0.93268330783E+03  0.93268330783E+03  0.25500000000E-02 0. -1.
    8880023    1    1    2    0    0  0.91510539351E+03 -0.96138799846E+02 -0.39679781075E+03  0.11991327111E+04  0.65864270000E+03 0. -1.
    8880022    1    1    2    0    0 -0.91510539351E+03  0.96138799846E+02  0.14798618539E+04  0.17492979477E+04  0.15294330000E+03 0.  0.
<mgrwt>
<rscale>  0 0.10782185E+04</rscale>
<asrwt>0</asrwt>
<pdfrwt beam="1">  1        2 0.14348974E+00 0.11315789E+04</pdfrwt>
<pdfrwt beam="2">  1       -2 0.31011498E+00 0.11315789E+04</pdfrwt>
<totfact> 0.75881706E-01</totfact>
</mgrwt>
</event>
<event>
 4    5  0.1905771E-007  0.8886280E+03  0.7818608E-02  0.9544540E-01
         -2   -1    0    0    0  501 -0.00000000000E+00  0.00000000000E+00  0.10086222611E+04  0.10086222611E+04  0.25500000000E-02 0.  1.
          2   -1    0    0  501    0  0.00000000000E+00 -0.00000000000E+00 -0.13198061251E+04  0.13198061251E+04  0.25500000000E-02 0. -1.
    8880023    1    1    2    0    0 -0.47379926828E+03 -0.36244137816E+03 -0.10441505186E+04  0.13710981041E+04  0.65864270000E+03 0. -1.
    8880022    1    1    2    0    0  0.47379926828E+03  0.36244137816E+03  0.73296665461E+03  0.95733028210E+03  0.15294330000E+03 0.  0.
<mgrwt>
<rscale>  0 0.81078261E+03</rscale>
<asrwt>0</asrwt>
<pdfrwt beam="1">  1        2 0.20304709E+00 0.88862799E+03</pdfrwt>
<pdfrwt beam="2">  1       -2 0.15517266E+00 0.88862799E+03</pdfrwt>
<totfact> 0.44263547E+00</totfact>
</mgrwt>
</event>
<event>
 4    5  0.2036528E-007  0.1033588E+04  0.7818608E-02  0.9338876E-01
          2   -1    0    0  501    0  0.00000000000E+00  0.00000000000E+00  0.22178052804E+04  0.22178052804E+04  0.25500000000E-02 0. -1.
         -2   -1    0    0    0  501 -0.00000000000E+00 -0.00000000000E+00 -0.11579603187E+04  0.11579603187E+04  0.25500000000E-02 0.  1.
    8880023    1    1    2    0    0 -0.67728648730E+03 -0.41925757334E+03  0.19280564265E+04  0.21876255824E+04  0.65864270000E+03 0. -1.
    8880022    1    1    2    0    0  0.67728648730E+03  0.41925757334E+03 -0.86821146485E+03  0.11881400167E+04  0.15294330000E+03 0.  0.
<mgrwt>
<rscale>  0 0.97281303E+03</rscale>
<asrwt>0</asrwt>
<pdfrwt beam="1">  1        2 0.34120081E+00 0.10335880E+04</pdfrwt>
<pdfrwt beam="2">  1       -2 0.17814774E+00 0.10335880E+04</pdfrwt>
<totfact> 0.93844909E-01</totfact>
</mgrwt>
</event>
<event>
 4    5  0.1905771E-007  0.1773784E+04  0.7818608E-02  0.8737179E-01
         -2   -1    0    0    0  501 -0.00000000000E+00  0.00000000000E+00  0.21726897846E+04  0.21726897846E+04  0.25500000000E-02 0.  1.
          2   -1    0    0  501    0  0.00000000000E+00 -0.00000000000E+00 -0.22007622477E+04  0.22007622477E+04  0.25500000000E-02 0. -1.
    8880023    1    1    2    0    0 -0.51347613493E+03  0.15648770308E+04  0.13431427807E+04  0.22249360886E+04  0.65864270000E+03 0.  1.
    8880022    1    1    2    0    0  0.51347613493E+03 -0.15648770308E+04 -0.13712152438E+04  0.21485159437E+04  0.15294330000E+03 0.  0.
<mgrwt>
<rscale>  0 0.17430618E+04</rscale>
<asrwt>0</asrwt>
<pdfrwt beam="1">  1        2 0.33857881E+00 0.17737835E+04</pdfrwt>
<pdfrwt beam="2">  1       -2 0.33425997E+00 0.17737835E+04</pdfrwt>
<totfact> 0.91491543E-02</totfact>
</mgrwt>
</event>
<event>
 4    5  0.1905771E-007  0.9359477E+03  0.7818608E-02  0.9470627E-01
          2   -1    0    0  501    0  0.00000000000E+00  0.00000000000E+00  0.11642937712E+04  0.11642937712E+04  0.25500000000E-02 0. -1.
         -2   -1    0    0    0  501 -0.00000000000E+00 -0.00000000000E+00 -0.10630184476E+04  0.10630184476E+04  0.25500000000E-02 0.  1.
    8880023    1    1    2    0    0 -0.19514022598E+03 -0.63569501352E+03  0.81416106241E+03  0.12405064691E+04  0.65864270000E+03 0.  0.
    8880022    1    1    2    0    0  0.19514022598E+03  0.63569501352E+03 -0.71288573883E+03  0.98680574971E+03  0.15294330000E+03 0.  1.
<mgrwt>
<rscale>  0 0.86484427E+03</rscale>
<asrwt>0</asrwt>
<pdfrwt beam="1">  1        2 0.17912212E+00 0.93594768E+03</pdfrwt>
<pdfrwt beam="2">  1       -2 0.16354130E+00 0.93594768E+03</pdfrwt>
<totfact> 0.47126760E+00</totfact>
</mgrwt>
</event>
<event>
 4    5  0.1905771E-007  0.6849734E+03  0.7818608E-02  0.1006640E+00
          2   -1    0    0  501    0  0.00000000000E+00  0.00000000000E+00  0.18016853427E+04  0.18016853427E+04  0.25500000000E-02 0. -1.
         -2   -1    0    0    0  501 -0.00000000000E+00 -0.00000000000E+00 -0.24855320765E+03  0.24855320766E+03  0.25500000000E-02 0.  1.
    8880023    1    1    2    0    0  0.18664545886E+03  0.23276039360E+02  0.16520390758E+04  0.17884131557E+04  0.65864270000E+03 0. -1.
    8880022    1    1    2    0    0 -0.18664545886E+03 -0.23276039360E+02 -0.98906940766E+02  0.26182539462E+03  0.15294330000E+03 0.  0.
<mgrwt>
<rscale>  0 0.52832320E+03</rscale>
<asrwt>0</asrwt>
<pdfrwt beam="1">  1        2 0.27718236E+00 0.68497336E+03</pdfrwt>
<pdfrwt beam="2">  1       -2 0.38238955E-01 0.68497336E+03</pdfrwt>
<totfact> 0.57466342E+01</totfact>
</mgrwt>
</event>
<event>
 4    5  0.1905771E-007  0.2004433E+04  0.7818608E-02  0.8617158E-01
          2   -1    0    0  501    0  0.00000000000E+00  0.00000000000E+00  0.15750953107E+04  0.15750953107E+04  0.25500000000E-02 0. -1.
         -2   -1    0    0    0  501 -0.00000000000E+00 -0.00000000000E+00 -0.29050961924E+04  0.29050961924E+04  0.25500000000E-02 0.  1.
    8880023    1    1    2    0    0 -0.18687490192E+04 -0.30285229269E+03  0.23635652621E+03  0.20183203467E+04  0.65864270000E+03 0.  0.
    8880022    1    1    2    0    0  0.18687490192E+04  0.30285229269E+03 -0.15663574079E+04  0.24618711563E+04  0.15294330000E+03 0.  0.
<mgrwt>
<rscale>  0 0.19776161E+04</rscale>
<asrwt>0</asrwt>
<pdfrwt beam="1">  1        2 0.24232236E+00 0.20044332E+04</pdfrwt>
<pdfrwt beam="2">  1       -2 0.44693788E+00 0.20044332E+04</pdfrwt>
<totfact> 0.37222474E-02</totfact>
</mgrwt>
</event>
<event>
 4    5  0.1905771E-007  0.1375985E+04  0.7818608E-02  0.9002572E-01
          2   -1    0    0  501    0  0.00000000000E+00  0.00000000000E+00  0.12417352742E+04  0.12417352742E+04  0.25500000000E-02 0. -1.
         -2   -1    0    0    0  501 -0.00000000000E+00 -0.00000000000E+00 -0.16884438808E+04  0.16884438808E+04  0.25500000000E-02 0.  1.
    8880023    1    1    2    0    0  0.34699223996E+03 -0.11572034897E+04  0.41635786556E+03  0.14375978609E+04  0.65864270000E+03 0.  0.
    8880022    1    1    2    0    0 -0.34699223996E+03  0.11572034897E+04 -0.86306647212E+03  0.14925812941E+04  0.15294330000E+03 0.  0.
<mgrwt>
<rscale>  0 0.13345957E+04</rscale>
<asrwt>0</asrwt>
<pdfrwt beam="1">  1        2 0.19103620E+00 0.13759846E+04</pdfrwt>
<pdfrwt beam="2">  1       -2 0.25976060E+00 0.13759846E+04</pdfrwt>
<totfact> 0.95611839E-01</totfact>
</mgrwt>
</event>
<event>
 4    5  0.1905771E-007  0.1332430E+04  0.7818608E-02  0.9038048E-01
         -2   -1    0    0    0  501 -0.00000000000E+00  0.00000000000E+00  0.12067663316E+04  0.12067663316E+04  0.25500000000E-02 0.  1.
          2   -1    0    0  501    0  0.00000000000E+00 -0.00000000000E+00 -0.18898955573E+04  0.18898955573E+04  0.25500000000E-02 0. -1.
    8880023    1    1    2    0    0 -0.55243627093E+02 -0.11569391467E+04 -0.12239370062E+04  0.18092517926E+04  0.65864270000E+03 0.  0.
    8880022    1    1    2    0    0  0.55243627093E+02  0.11569391467E+04  0.54080778047E+03  0.12874100963E+04  0.15294330000E+03 0.  0.
<mgrwt>
<rscale>  0 0.12893565E+04</rscale>
<asrwt>0</asrwt>
<pdfrwt beam="1">  1        2 0.29075316E+00 0.13324302E+04</pdfrwt>
<pdfrwt beam="2">  1       -2 0.18565636E+00 0.13324302E+04</pdfrwt>
<totfact> 0.12204297E+00</totfact>
</mgrwt>
</event>
<event>
 4    5  0.1905771E-007  0.7042800E+03  0.7818608E-02  0.9979889E-01
         -2   -1    0    0    0  501 -0.00000000000E+00  0.00000000000E+00  0.41053875975E+03  0.41053875976E+03  0.25500000000E-02 0.  1.
          2   -1    0    0  501    0  0.00000000000E+00 -0.00000000000E+00 -0.23155674912E+04  0.23155674912E+04  0.25500000000E-02 0. -1.
    8880023    1    1    2    0    0 -0.20164583758E+03 -0.14676212391E+03 -0.22004055294E+04  0.23103668247E+04  0.65864270000E+03 0. -1.
    8880022    1    1    2    0    0  0.20164583758E+03  0.14676212391E+03  0.29537679788E+03  0.41573942628E+03  0.15294330000E+03 0.  0.
<mgrwt>
<rscale>  0 0.56540945E+03</rscale>
<asrwt>0</asrwt>
<pdfrwt beam="1">  1        2 0.35624114E+00 0.70428004E+03</pdfrwt>
<pdfrwt beam="2">  1       -2 0.63159811E-01 0.70428004E+03</pdfrwt>
<totfact> 0.10842538E+01</totfact>
</mgrwt>
</event>
<event>
 4    5  0.1905771E-007  0.8730235E+03  0.7818608E-02  0.9570804E-01
         -2   -1    0    0    0  501 -0.00000000000E+00  0.00000000000E+00  0.44610487847E+03  0.44610487848E+03  0.25500000000E-02 0.  1.
          2   -1    0    0  501    0  0.00000000000E+00 -0.00000000000E+00 -0.33405859549E+04  0.33405859549E+04  0.25500000000E-02 0. -1.
    8880023    1    1    2    0    0  0.34117973844E+03 -0.46038703521E+03 -0.30508775862E+04  0.31733301259E+04  0.65864270000E+03 0.  0.
    8880022    1    1    2    0    0 -0.34117973844E+03  0.46038703521E+03  0.15639650977E+03  0.61336070741E+03  0.15294330000E+03 0.  0.
<mgrwt>
<rscale>  0 0.79259065E+03</rscale>
<asrwt>0</asrwt>
<pdfrwt beam="1">  1        2 0.51393629E+00 0.87302351E+03</pdfrwt>
<pdfrwt beam="2">  1       -2 0.68631522E-01 0.87302351E+03</pdfrwt>
<totfact> 0.21401970E+00</totfact>
</mgrwt>
</event>
<event>
 4    5  0.1905771E-007  0.1370248E+04  0.7818608E-02  0.9007152E-01
         -2   -1    0    0    0  501 -0.00000000000E+00  0.00000000000E+00  0.11350028684E+04  0.11350028684E+04  0.25500000000E-02 0.  1.
          2   -1    0    0  501    0  0.00000000000E+00 -0.00000000000E+00 -0.18048918857E+04  0.18048918857E+04  0.25500000000E-02 0. -1.
    8880023    1    1    2    0    0 -0.88900496121E+03  0.80835620739E+03 -0.98592020949E+03  0.16880812909E+04  0.65864270000E+03 0.  0.
    8880022    1    1    2    0    0  0.88900496121E+03 -0.80835620739E+03  0.31603119215E+03  0.12518134631E+04  0.15294330000E+03 0.  0.
<mgrwt>
<rscale>  0 0.13286455E+04</rscale>
<asrwt>0</asrwt>
<pdfrwt beam="1">  1        2 0.27767567E+00 0.13702481E+04</pdfrwt>
<pdfrwt beam="2">  1       -2 0.17461583E+00 0.13702481E+04</pdfrwt>
<totfact> 0.16170363E+00</totfact>
</mgrwt>
</event>
<event>
 4    5  0.1905771E-007  0.1902928E+04  0.7818608E-02  0.8667640E-01
         -2   -1    0    0    0  501 -0.00000000000E+00  0.00000000000E+00  0.20603852743E+04  0.20603852743E+04  0.25500000000E-02 0.  1.
          2   -1    0    0  501    0  0.00000000000E+00 -0.00000000000E+00 -0.24792364497E+04  0.24792364497E+04  0.25500000000E-02 0. -1.
    8880023    1    1    2    0    0  0.17514008654E+04 -0.34629386052E+03 -0.15208679467E+04  0.24360159989E+04  0.65864270000E+03 0.  0.
    8880022    1    1    2    0    0 -0.17514008654E+04  0.34629386052E+03  0.11020167713E+04  0.21036057251E+04  0.15294330000E+03 0.  0.
<mgrwt>
<rscale>  0 0.18745283E+04</rscale>
<asrwt>0</asrwt>
<pdfrwt beam="1">  1        2 0.38142099E+00 0.19029279E+04</pdfrwt>
<pdfrwt beam="2">  1       -2 0.31698235E+00 0.19029279E+04</pdfrwt>
<totfact> 0.80023500E-02</totfact>
</mgrwt>
</event>
<event>
 4    5  0.1905771E-007  0.9054846E+03  0.7818608E-02  0.9517284E-01
         -2   -1    0    0    0  501 -0.00000000000E+00  0.00000000000E+00  0.62994610685E+03  0.62994610686E+03  0.25500000000E-02 0.  1.
          2   -1    0    0  501    0  0.00000000000E+00 -0.00000000000E+00 -0.21321548003E+04  0.21321548003E+04  0.25500000000E-02 0. -1.
    8880023    1    1    2    0    0 -0.35872858578E+03  0.50735192241E+03 -0.18310033059E+04  0.20426638206E+04  0.65864270000E+03 0.  0.
    8880022    1    1    2    0    0  0.35872858578E+03 -0.50735192241E+03  0.32879461241E+03  0.71943708662E+03  0.15294330000E+03 0.  0.
<mgrwt>
<rscale>  0 0.83021466E+03</rscale>
<asrwt>0</asrwt>
<pdfrwt beam="1">  1        2 0.32802381E+00 0.90548461E+03</pdfrwt>
<pdfrwt beam="2">  1       -2 0.96914786E-01 0.90548461E+03</pdfrwt>
<totfact> 0.50895021E+00</totfact>
</mgrwt>
</event>
<event>
 4    5  0.1905771E-007  0.7043234E+03  0.7818608E-02  0.9979717E-01
         -2   -1    0    0    0  501 -0.00000000000E+00  0.00000000000E+00  0.61809253338E+03  0.61809253338E+03  0.25500000000E-02 0.  1.
          2   -1    0    0  501    0  0.00000000000E+00 -0.00000000000E+00 -0.17185331014E+04  0.17185331015E+04  0.25500000000E-02 0. -1.
    8880023    1    1    2    0    0  0.16294261784E+03 -0.18897351806E+03 -0.16053317786E+04  0.17530435286E+04  0.65864270000E+03 0. -1.
    8880022    1    1    2    0    0 -0.16294261784E+03  0.18897351806E+03  0.50489121057E+03  0.58358210627E+03  0.15294330000E+03 0.  0.
<mgrwt>
<rscale>  0 0.56548604E+03</rscale>
<asrwt>0</asrwt>
<pdfrwt beam="1">  1        2 0.26438971E+00 0.70432343E+03</pdfrwt>
<pdfrwt beam="2">  1       -2 0.95091160E-01 0.70432343E+03</pdfrwt>
<totfact> 0.92271954E+00</totfact>
</mgrwt>
</event>
<event>
 4    5  0.1905771E-007  0.1203822E+04  0.7818608E-02  0.9153416E-01
          2   -1    0    0  501    0  0.00000000000E+00  0.00000000000E+00  0.12161148356E+04  0.12161148357E+04  0.25500000000E-02 0. -1.
         -2   -1    0    0    0  501 -0.00000000000E+00 -0.00000000000E+00 -0.12684332565E+04  0.12684332565E+04  0.25500000000E-02 0.  1.
    8880023    1    1    2    0    0 -0.98218542960E+03  0.22514338148E+03  0.52485943748E+03  0.13132651658E+04  0.65864270000E+03 0.  0.
    8880022    1    1    2    0    0  0.98218542960E+03 -0.22514338148E+03 -0.57717785830E+03  0.11712829263E+04  0.15294330000E+03 0.  0.
<mgrwt>
<rscale>  0 0.11547465E+04</rscale>
<asrwt>0</asrwt>
<pdfrwt beam="1">  1        2 0.18709459E+00 0.12038222E+04</pdfrwt>
<pdfrwt beam="2">  1       -2 0.19514358E+00 0.12038222E+04</pdfrwt>
<totfact> 0.25750647E+00</totfact>
</mgrwt>
</event>
<event>
 4    5  0.1905771E-007  0.9765258E+03  0.7818608E-02  0.9412935E-01
         -2   -1    0    0    0  501 -0.00000000000E+00  0.00000000000E+00  0.10036587756E+04  0.10036587756E+04  0.25500000000E-02 0.  1.
          2   -1    0    0  501    0  0.00000000000E+00 -0.00000000000E+00 -0.12107376651E+04  0.12107376651E+04  0.25500000000E-02 0. -1.
    8880023    1    1    2    0    0  0.21768040968E+03  0.68731923518E+03 -0.80483668785E+03  0.12654504305E+04  0.65864270000E+03 0. -1.
    8880022    1    1    2    0    0 -0.21768040968E+03 -0.68731923518E+03  0.59775779827E+03  0.94894601017E+03  0.15294330000E+03 0.  0.
<mgrwt>
<rscale>  0 0.91018817E+03</rscale>
<asrwt>0</asrwt>
<pdfrwt beam="1">  1        2 0.18626733E+00 0.97652583E+03</pdfrwt>
<pdfrwt beam="2">  1       -2 0.15440904E+00 0.97652583E+03</pdfrwt>
<totfact> 0.51440612E+00</totfact>
</mgrwt>
</event>
<event>
 4    5  0.1905771E-007  0.1230269E+04  0.7818608E-02  0.9128246E-01
          2   -1    0    0  501    0  0.00000000000E+00  0.00000000000E+00  0.20649550353E+04  0.20649550353E+04  0.25500000000E-02 0. -1.
         -2   -1    0    0    0  501 -0.00000000000E+00 -0.00000000000E+00 -0.11018117906E+04  0.11018117906E+04  0.25500000000E-02 0.  1.
    8880023    1    1    2    0    0 -0.94057083346E+03 -0.44167638133E+03  0.15379332715E+04  0.19694670529E+04  0.65864270000E+03 0. -1.
    8880022    1    1    2    0    0  0.94057083346E+03  0.44167638133E+03 -0.57479002683E+03  0.11972997730E+04  0.15294330000E+03 0.  0.
<mgrwt>
<rscale>  0 0.11825759E+04</rscale>
<asrwt>0</asrwt>
<pdfrwt beam="1">  1        2 0.31768539E+00 0.12302690E+04</pdfrwt>
<pdfrwt beam="2">  1       -2 0.16950951E+00 0.12302690E+04</pdfrwt>
<totfact> 0.12797910E+00</totfact>
</mgrwt>
</event>
<event>
 4    5  0.1905771E-007  0.8816281E+03  0.7818608E-02  0.9556192E-01
         -2   -1    0    0    0  501 -0.00000000000E+00  0.00000000000E+00  0.49802147201E+03  0.49802147201E+03  0.25500000000E-02 0.  1.
          2   -1    0    0  501    0  0.00000000000E+00 -0.00000000000E+00 -0.29527018960E+04  0.29527018960E+04  0.25500000000E-02 0. -1.
    8880023    1    1    2    0    0 -0.52800196601E+03  0.25430649688E+03 -0.26669718624E+04  0.28089156256E+04  0.65864270000E+03 0.  0.
    8880022    1    1    2    0    0  0.52800196601E+03 -0.25430649688E+03  0.21229143839E+03  0.64180774247E+03  0.15294330000E+03 0.  0.
<mgrwt>
<rscale>  0 0.80264787E+03</rscale>
<asrwt>0</asrwt>
<pdfrwt beam="1">  1        2 0.45426182E+00 0.88162808E+03</pdfrwt>
<pdfrwt beam="2">  1       -2 0.76618690E-01 0.88162808E+03</pdfrwt>
<totfact> 0.29505133E+00</totfact>
</mgrwt>
</event>
<event>
 4    5  0.1905771E-007  0.7459937E+03  0.7818608E-02  0.9842820E-01
          2   -1    0    0  501    0  0.00000000000E+00  0.00000000000E+00  0.28403777512E+04  0.28403777512E+04  0.25500000000E-02 0. -1.
         -2   -1    0    0    0  501 -0.00000000000E+00 -0.00000000000E+00 -0.31405231051E+03  0.31405231052E+03  0.25500000000E-02 0.  1.
    8880023    1    1    2    0    0 -0.34656529885E+03 -0.50881386285E+02  0.26497676513E+04  0.27527759142E+04  0.65864270000E+03 0. -1.
    8880022    1    1    2    0    0  0.34656529885E+03  0.50881386285E+02 -0.12344221060E+03  0.40165414751E+03  0.15294330000E+03 0.  0.
<mgrwt>
<rscale>  0 0.63114366E+03</rscale>
<asrwt>0</asrwt>
<pdfrwt beam="1">  1        2 0.43698120E+00 0.74599372E+03</pdfrwt>
<pdfrwt beam="2">  1       -2 0.48315739E-01 0.74599372E+03</pdfrwt>
<totfact> 0.93946819E+00</totfact>
</mgrwt>
</event>
<event>
 4    5  0.1905771E-007  0.1231732E+04  0.7818608E-02  0.9126877E-01
          2   -1    0    0  501    0  0.00000000000E+00  0.00000000000E+00  0.19003426042E+04  0.19003426042E+04  0.25500000000E-02 0. -1.
         -2   -1    0    0    0  501 -0.00000000000E+00 -0.00000000000E+00 -0.11691266776E+04  0.11691266776E+04  0.25500000000E-02 0.  1.
    8880023    1    1    2    0    0 -0.93458792375E+03 -0.45814745962E+03  0.13671481512E+04  0.18401787836E+04  0.65864270000E+03 0.  0.
    8880022    1    1    2    0    0  0.93458792375E+03  0.45814745962E+03 -0.63593222457E+03  0.12292904983E+04  0.15294330000E+03 0.  1.
<mgrwt>
<rscale>  0 0.11841130E+04</rscale>
<asrwt>0</asrwt>
<pdfrwt beam="1">  1        2 0.29236040E+00 0.12317321E+04</pdfrwt>
<pdfrwt beam="2">  1       -2 0.17986565E+00 0.12317321E+04</pdfrwt>
<totfact> 0.13345851E+00</totfact>
</mgrwt>
</event>
<event>
 4    5  0.1905771E-007  0.1050779E+04  0.7818608E-02  0.9317946E-01
         -2   -1    0    0    0  501 -0.00000000000E+00  0.00000000000E+00  0.61217315752E+03  0.61217315753E+03  0.25500000000E-02 0.  1.
          2   -1    0    0  501    0  0.00000000000E+00 -0.00000000000E+00 -0.31988243380E+04  0.31988243380E+04  0.25500000000E-02 0. -1.
    8880023    1    1    2    0    0 -0.73708911500E+03 -0.35640571172E+03 -0.27661250087E+04  0.29589834681E+04  0.65864270000E+03 0.  0.
    8880022    1    1    2    0    0  0.73708911500E+03  0.35640571172E+03  0.17947382822E+03  0.85201402737E+03  0.15294330000E+03 0.  0.
<mgrwt>
<rscale>  0 0.99147371E+03</rscale>
<asrwt>0</asrwt>
<pdfrwt beam="1">  1        2 0.49212681E+00 0.10507786E+04</pdfrwt>
<pdfrwt beam="2">  1       -2 0.94180487E-01 0.10507786E+04</pdfrwt>
<totfact> 0.12562188E+00</totfact>
</mgrwt>
</event>
<event>
 4    5  0.1905771E-007  0.8913716E+03  0.7818608E-02  0.9540027E-01
          2   -1    0    0  501    0  0.00000000000E+00  0.00000000000E+00  0.10683891840E+04  0.10683891840E+04  0.25500000000E-02 0. -1.
         -2   -1    0    0    0  501 -0.00000000000E+00 -0.00000000000E+00 -0.54889129140E+03  0.54889129140E+03  0.25500000000E-02 0.  1.
    8880023    1    1    2    0    0  0.37922258656E+03 -0.46575026256E+03  0.43472967667E+03  0.99173241112E+03  0.65864270000E+03 0. -1.
    8880022    1    1    2    0    0 -0.37922258656E+03  0.46575026256E+03  0.84768215886E+02  0.62554806424E+03  0.15294330000E+03 0.  1.
<mgrwt>
<rscale>  0 0.81396010E+03</rscale>
<asrwt>0</asrwt>
<pdfrwt beam="1">  1        2 0.16436756E+00 0.89137157E+03</pdfrwt>
<pdfrwt beam="2">  1       -2 0.84444815E-01 0.89137157E+03</pdfrwt>
<totfact> 0.27986812E+01</totfact>
</mgrwt>
</event>
<event>
 4    5  0.1905771E-007  0.1530740E+04  0.7818608E-02  0.8888229E-01
         -2   -1    0    0    0  501 -0.00000000000E+00  0.00000000000E+00  0.12121386060E+04  0.12121386060E+04  0.25500000000E-02 0.  1.
          2   -1    0    0  501    0  0.00000000000E+00 -0.00000000000E+00 -0.24626912678E+04  0.24626912678E+04  0.25500000000E-02 0. -1.
    8880023    1    1    2    0    0 -0.12209922001E+04  0.64694197321E+03 -0.16276408456E+04  0.22343636226E+04  0.65864270000E+03 0. -1.
    8880022    1    1    2    0    0  0.12209922001E+04 -0.64694197321E+03  0.37708818384E+03  0.14404662512E+04  0.15294330000E+03 0.  0.
<mgrwt>
<rscale>  0 0.14943353E+04</rscale>
<asrwt>0</asrwt>
<pdfrwt beam="1">  1        2 0.37887558E+00 0.15307404E+04</pdfrwt>
<pdfrwt beam="2">  1       -2 0.18648286E+00 0.15307404E+04</pdfrwt>
<totfact> 0.56150119E-01</totfact>
</mgrwt>
</event>
<event>
 4    5  0.1905771E-007  0.1000831E+04  0.7818608E-02  0.9380471E-01
          2   -1    0    0  501    0  0.00000000000E+00  0.00000000000E+00  0.30438690710E+04  0.30438690710E+04  0.25500000000E-02 0. -1.
         -2   -1    0    0    0  501 -0.00000000000E+00 -0.00000000000E+00 -0.49021786968E+03  0.49021786969E+03  0.25500000000E-02 0.  1.
    8880023    1    1    2    0    0  0.56097015863E+03  0.50315592130E+03  0.25772949738E+04  0.27647989056E+04  0.65864270000E+03 0. -1.
    8880022    1    1    2    0    0 -0.56097015863E+03 -0.50315592130E+03 -0.23643772464E+02  0.76928803514E+03  0.15294330000E+03 0.  0.
<mgrwt>
<rscale>  0 0.93700444E+03</rscale>
<asrwt>0</asrwt>
<pdfrwt beam="1">  1        2 0.46828754E+00 0.10008315E+04</pdfrwt>
<pdfrwt beam="2">  1       -2 0.75418136E-01 0.10008315E+04</pdfrwt>
<totfact> 0.26350704E+00</totfact>
</mgrwt>
</event>
<event>
 4    5  0.1905771E-007  0.1325440E+04  0.7818608E-02  0.9043896E-01
          2   -1    0    0  501    0  0.00000000000E+00  0.00000000000E+00  0.22401005192E+04  0.22401005192E+04  0.25500000000E-02 0. -1.
         -2   -1    0    0    0  501 -0.00000000000E+00 -0.00000000000E+00 -0.83216200135E+03  0.83216200135E+03  0.25500000000E-02 0.  1.
    8880023    1    1    2    0    0  0.11225520611E+04  0.25071529732E+03  0.13773681736E+04  0.19115267672E+04  0.65864270000E+03 0.  0.
    8880022    1    1    2    0    0 -0.11225520611E+04 -0.25071529732E+03  0.30570344299E+02  0.11607357533E+04  0.15294330000E+03 0.  0.
<mgrwt>
<rscale>  0 0.12820819E+04</rscale>
<asrwt>0</asrwt>
<pdfrwt beam="1">  1        2 0.34463085E+00 0.13254401E+04</pdfrwt>
<pdfrwt beam="2">  1       -2 0.12802492E+00 0.13254401E+04</pdfrwt>
<totfact> 0.21331625E+00</totfact>
</mgrwt>
</event>
<event>
 4    5  0.1905771E-007  0.1207716E+04  0.7818608E-02  0.9149658E-01
          2   -1    0    0  501    0  0.00000000000E+00  0.00000000000E+00  0.20037685980E+04  0.20037685980E+04  0.25500000000E-02 0. -1.
         -2   -1    0    0    0  501 -0.00000000000E+00 -0.00000000000E+00 -0.66842165532E+03  0.66842165533E+03  0.25500000000E-02 0.  1.
    8880023    1    1    2    0    0  0.91870229399E+03 -0.42515181874E+03  0.36513917828E+03  0.12617070974E+04  0.65864270000E+03 0.  0.
    8880022    1    1    2    0    0 -0.91870229399E+03  0.42515181874E+03  0.97020776445E+03  0.14104831559E+04  0.15294330000E+03 0.  0.
<mgrwt>
<rscale>  0 0.11588496E+04</rscale>
<asrwt>0</asrwt>
<pdfrwt beam="1">  1        2 0.30827209E+00 0.12077161E+04</pdfrwt>
<pdfrwt beam="2">  1       -2 0.10283410E+00 0.12077161E+04</pdfrwt>
<totfact> 0.50240153E+00</totfact>
</mgrwt>
</event>
<event>
 4    5  0.1905771E-007  0.8457244E+03  0.7818608E-02  0.9619479E-01
         -2   -1    0    0    0  501 -0.00000000000E+00  0.00000000000E+00  0.39830186631E+03  0.39830186632E+03  0.25500000000E-02 0.  1.
          2   -1    0    0  501    0  0.00000000000E+00 -0.00000000000E+00 -0.23856353810E+04  0.23856353810E+04  0.25500000000E-02 0. -1.
    8880023    1    1    2    0    0 -0.39127770182E+03  0.35824756253E+03 -0.20602018301E+04  0.22270342034E+04  0.65864270000E+03 0. -1.
    8880022    1    1    2    0    0  0.39127770182E+03 -0.35824756253E+03  0.72868315367E+02  0.55690304398E+03  0.15294330000E+03 0.  0.
<mgrwt>
<rscale>  0 0.76020212E+03</rscale>
<asrwt>0</asrwt>
<pdfrwt beam="1">  1        2 0.36702082E+00 0.84572440E+03</pdfrwt>
<pdfrwt beam="2">  1       -2 0.61277212E-01 0.84572440E+03</pdfrwt>
<totfact> 0.10336945E+01</totfact>
</mgrwt>
</event>
<event>
 4    5  0.1905771E-007  0.1223835E+04  0.7818608E-02  0.9134294E-01
         -2   -1    0    0    0  501 -0.00000000000E+00  0.00000000000E+00  0.16713548922E+04  0.16713548922E+04  0.25500000000E-02 0.  1.
          2   -1    0    0  501    0  0.00000000000E+00 -0.00000000000E+00 -0.88550780123E+03  0.88550780124E+03  0.25500000000E-02 0. -1.
    8880023    1    1    2    0    0 -0.57269490517E+03  0.85789473012E+03 -0.43346507545E+02  0.12246027717E+04  0.65864270000E+03 0.  0.
    8880022    1    1    2    0    0  0.57269490517E+03 -0.85789473012E+03  0.82919359854E+03  0.13322599218E+04  0.15294330000E+03 0.  0.
<mgrwt>
<rscale>  0 0.11758141E+04</rscale>
<asrwt>0</asrwt>
<pdfrwt beam="1">  1        2 0.13623197E+00 0.12238354E+04</pdfrwt>
<pdfrwt beam="2">  1       -2 0.25713152E+00 0.12238354E+04</pdfrwt>
<totfact> 0.16966127E+00</totfact>
</mgrwt>
</event>
<event>
 4    5  0.1905771E-007  0.7168264E+03  0.7818608E-02  0.9933474E-01
          2   -1    0    0  501    0  0.00000000000E+00  0.00000000000E+00  0.37204506403E+03  0.37204506404E+03  0.25500000000E-02 0. -1.
         -2   -1    0    0    0  501 -0.00000000000E+00 -0.00000000000E+00 -0.85982346948E+03  0.85982346949E+03  0.25500000000E-02 0.  1.
    8880023    1    1    2    0    0 -0.19086234343E+03  0.20880950058E+03 -0.93236057577E+02  0.72286444813E+03  0.65864270000E+03 0. -1.
    8880022    1    1    2    0    0  0.19086234343E+03 -0.20880950058E+03 -0.39454234788E+03  0.50900408540E+03  0.15294330000E+03 0.  0.
<mgrwt>
<rscale>  0 0.58666048E+03</rscale>
<asrwt>0</asrwt>
<pdfrwt beam="1">  1        2 0.57237703E-01 0.71682637E+03</pdfrwt>
<pdfrwt beam="2">  1       -2 0.13228053E+00 0.71682637E+03</pdfrwt>
<totfact> 0.36352992E+01</totfact>
</mgrwt>
</event>
<event>
 4    5  0.1905771E-007  0.6618912E+03  0.7818608E-02  0.1022297E+00
          2   -1    0    0  501    0  0.00000000000E+00  0.00000000000E+00  0.76178115732E+03  0.76178115733E+03  0.25500000000E-02 0. -1.
         -2   -1    0    0    0  501 -0.00000000000E+00 -0.00000000000E+00 -0.42673059827E+03  0.42673059828E+03  0.25500000000E-02 0.  1.
    8880023    1    1    2    0    0  0.63414307116E+02  0.16383485565E+02  0.58826672716E+03  0.88552681579E+03  0.65864270000E+03 0. -1.
    8880022    1    1    2    0    0 -0.63414307116E+02 -0.16383485565E+02 -0.25321616811E+03  0.30298493981E+03  0.15294330000E+03 0.  0.
<mgrwt>
<rscale>  0 0.46866613E+03</rscale>
<asrwt>0</asrwt>
<pdfrwt beam="1">  1        2 0.11719710E+00 0.66189123E+03</pdfrwt>
<pdfrwt beam="2">  1       -2 0.65650862E-01 0.66189123E+03</pdfrwt>
<totfact> 0.80025239E+01</totfact>
</mgrwt>
</event>
<event>
 4    5  0.1905771E-007  0.6594138E+03  0.7818608E-02  0.1024765E+00
         -2   -1    0    0    0  501 -0.00000000000E+00  0.00000000000E+00  0.15290349188E+03  0.15290349190E+03  0.25500000000E-02 0.  1.
          2   -1    0    0  501    0  0.00000000000E+00 -0.00000000000E+00 -0.12707958857E+04  0.12707958857E+04  0.25500000000E-02 0. -1.
    8880023    1    1    2    0    0  0.63499816516E+01  0.31241871620E+02 -0.10759426624E+04  0.12619347034E+04  0.65864270000E+03 0. -1.
    8880022    1    1    2    0    0 -0.63499816516E+01 -0.31241871620E+02 -0.41949731412E+02  0.16176467411E+03  0.15294330000E+03 0.  0.
<mgrwt>
<rscale>  0 0.46005539E+03</rscale>
<asrwt>0</asrwt>
<pdfrwt beam="1">  1        2 0.19550705E+00 0.65941382E+03</pdfrwt>
<pdfrwt beam="2">  1       -2 0.23523615E-01 0.65941382E+03</pdfrwt>
<totfact> 0.27961665E+02</totfact>
</mgrwt>
</event>
<event>
 4    5  0.1905771E-007  0.1626217E+04  0.7818608E-02  0.8825296E-01
         -2   -1    0    0    0  501 -0.00000000000E+00  0.00000000000E+00  0.19106286331E+04  0.19106286331E+04  0.25500000000E-02 0.  1.
          2   -1    0    0  501    0  0.00000000000E+00 -0.00000000000E+00 -0.23488507001E+04  0.23488507001E+04  0.25500000000E-02 0. -1.
    8880023    1    1    2    0    0  0.87433472620E+03  0.12026265350E+04 -0.16638057035E+04  0.23265492519E+04  0.65864270000E+03 0.  0.
    8880022    1    1    2    0    0 -0.87433472620E+03 -0.12026265350E+04  0.12255836366E+04  0.19329300813E+04  0.15294330000E+03 0.  0.
<mgrwt>
<rscale>  0 0.15922940E+04</rscale>
<asrwt>0</asrwt>
<pdfrwt beam="1">  1        2 0.36136165E+00 0.16262171E+04</pdfrwt>
<pdfrwt beam="2">  1       -2 0.29394287E+00 0.16262171E+04</pdfrwt>
<totfact> 0.13592983E-01</totfact>
</mgrwt>
</event>
<event>
 4    5  0.1905771E-007  0.1350418E+04  0.7818608E-02  0.9023199E-01
          2   -1    0    0  501    0  0.00000000000E+00  0.00000000000E+00  0.21421909408E+04  0.21421909408E+04  0.25500000000E-02 0. -1.
         -2   -1    0    0    0  501 -0.00000000000E+00 -0.00000000000E+00 -0.89264273735E+03  0.89264273735E+03  0.25500000000E-02 0.  1.
    8880023    1    1    2    0    0  0.10964262057E+04  0.43320781501E+03  0.12586246916E+04  0.18460134767E+04  0.65864270000E+03 0. -1.
    8880022    1    1    2    0    0 -0.10964262057E+04 -0.43320781501E+03 -0.90764881693E+01  0.11888202014E+04  0.15294330000E+03 0.  0.
<mgrwt>
<rscale>  0 0.13080584E+04</rscale>
<asrwt>0</asrwt>
<pdfrwt beam="1">  1        2 0.32956783E+00 0.13504183E+04</pdfrwt>
<pdfrwt beam="2">  1       -2 0.13732965E+00 0.13504183E+04</pdfrwt>
<totfact> 0.20166709E+00</totfact>
</mgrwt>
</event>
<event>
 4    5  0.1905771E-007  0.9436034E+03  0.7818608E-02  0.9459378E-01
          2   -1    0    0  501    0  0.00000000000E+00  0.00000000000E+00  0.31931420045E+04  0.31931420045E+04  0.25500000000E-02 0. -1.
         -2   -1    0    0    0  501 -0.00000000000E+00 -0.00000000000E+00 -0.37201907093E+03  0.37201907094E+03  0.25500000000E-02 0.  1.
    8880023    1    1    2    0    0 -0.40013508531E+03 -0.54448977619E+03  0.27022204400E+04  0.28622338681E+04  0.65864270000E+03 0. -1.
    8880022    1    1    2    0    0  0.40013508531E+03  0.54448977619E+03  0.11890249356E+03  0.70292720738E+03  0.15294330000E+03 0.  0.
<mgrwt>
<rscale>  0 0.87346149E+03</rscale>
<asrwt>0</asrwt>
<pdfrwt beam="1">  1        2 0.49125259E+00 0.94360342E+03</pdfrwt>
<pdfrwt beam="2">  1       -2 0.57233706E-01 0.94360342E+03</pdfrwt>
<totfact> 0.38865416E+00</totfact>
</mgrwt>
</event>
<event>
 4    5  0.1905771E-007  0.7914970E+03  0.7818608E-02  0.9729492E-01
         -2   -1    0    0    0  501 -0.00000000000E+00  0.00000000000E+00  0.18859481233E+03  0.18859481235E+03  0.25500000000E-02 0.  1.
          2   -1    0    0  501    0  0.00000000000E+00 -0.00000000000E+00 -0.32681432135E+04  0.32681432135E+04  0.25500000000E-02 0. -1.
    8880023    1    1    2    0    0 -0.11874575932E+03 -0.42255978737E+03 -0.28101763193E+04  0.29195133980E+04  0.65864270000E+03 0.  0.
    8880022    1    1    2    0    0  0.11874575932E+03  0.42255978737E+03 -0.26937208185E+03  0.53722462783E+03  0.15294330000E+03 0.  0.
<mgrwt>
<rscale>  0 0.69287676E+03</rscale>
<asrwt>0</asrwt>
<pdfrwt beam="1">  1        2 0.50279122E+00 0.79149702E+03</pdfrwt>
<pdfrwt beam="2">  1       -2 0.29014589E-01 0.79149702E+03</pdfrwt>
<totfact> 0.13552676E+01</totfact>
</mgrwt>
</event>
<event>
 4    5  0.1905771E-007  0.9065753E+03  0.7818608E-02  0.9515557E-01
         -2   -1    0    0    0  501 -0.00000000000E+00  0.00000000000E+00  0.13529707575E+04  0.13529707575E+04  0.25500000000E-02 0.  1.
          2   -1    0    0  501    0  0.00000000000E+00 -0.00000000000E+00 -0.14573062773E+04  0.14573062773E+04  0.25500000000E-02 0. -1.
    8880023    1    1    2    0    0 -0.58253402071E+03 -0.22073232201E+03 -0.12220330172E+04  0.15215924371E+04  0.65864270000E+03 0. -1.
    8880022    1    1    2    0    0  0.58253402071E+03  0.22073232201E+03  0.11176974975E+04  0.12886845976E+04  0.15294330000E+03 0.  0.
<mgrwt>
<rscale>  0 0.83146490E+03</rscale>
<asrwt>0</asrwt>
<pdfrwt beam="1">  1        2 0.22420097E+00 0.90657534E+03</pdfrwt>
<pdfrwt beam="2">  1       -2 0.20814935E+00 0.90657534E+03</pdfrwt>
<totfact> 0.15905991E+00</totfact>
</mgrwt>
</event>
<event>
 4    5  0.1905771E-007  0.1519328E+04  0.7818608E-02  0.8896107E-01
          2   -1    0    0  501    0  0.00000000000E+00  0.00000000000E+00  0.30908929088E+04  0.30908929088E+04  0.25500000000E-02 0. -1.
         -2   -1    0    0    0  501 -0.00000000000E+00 -0.00000000000E+00 -0.93261404933E+03  0.93261404934E+03  0.25500000000E-02 0.  1.
    8880023    1    1    2    0    0 -0.11031752758E+04 -0.81089636184E+03  0.21661123187E+04  0.26458271641E+04  0.65864270000E+03 0.  0.
    8880022    1    1    2    0    0  0.11031752758E+04  0.81089636184E+03 -0.78334591893E+01  0.13776797941E+04  0.15294330000E+03 0.  0.
<mgrwt>
<rscale>  0 0.14826002E+04</rscale>
<asrwt>0</asrwt>
<pdfrwt beam="1">  1        2 0.47552199E+00 0.15193284E+04</pdfrwt>
<pdfrwt beam="2">  1       -2 0.14347908E+00 0.15193284E+04</pdfrwt>
<totfact> 0.48674421E-01</totfact>
</mgrwt>
</event>
<event>
 4    5  0.1905771E-007  0.1369533E+04  0.7818608E-02  0.9007725E-01
         -2   -1    0    0    0  501 -0.00000000000E+00  0.00000000000E+00  0.17768150762E+04  0.17768150762E+04  0.25500000000E-02 0.  1.
          2   -1    0    0  501    0  0.00000000000E+00 -0.00000000000E+00 -0.20211114181E+04  0.20211114181E+04  0.25500000000E-02 0. -1.
    8880023    1    1    2    0    0  0.15170896230E+02 -0.12006584010E+04 -0.15154774833E+04  0.20426191424E+04  0.65864270000E+03 0.  0.
    8880022    1    1    2    0    0 -0.15170896230E+02  0.12006584010E+04  0.12711811415E+04  0.17553073519E+04  0.15294330000E+03 0.  0.
<mgrwt>
<rscale>  0 0.13279038E+04</rscale>
<asrwt>0</asrwt>
<pdfrwt beam="1">  1        2 0.31094022E+00 0.13695331E+04</pdfrwt>
<pdfrwt beam="2">  1       -2 0.27335616E+00 0.13695331E+04</pdfrwt>
<totfact> 0.28636520E-01</totfact>
</mgrwt>
</event>
<event>
 4    5  0.1905771E-007  0.8695008E+03  0.7818608E-02  0.9576882E-01
          2   -1    0    0  501    0  0.00000000000E+00  0.00000000000E+00  0.18304414932E+04  0.18304414932E+04  0.25500000000E-02 0. -1.
         -2   -1    0    0    0  501 -0.00000000000E+00 -0.00000000000E+00 -0.11224748295E+04  0.11224748295E+04  0.25500000000E-02 0.  1.
    8880023    1    1    2    0    0  0.78674895538E+02 -0.56216692743E+03  0.16369472557E+04  0.18535446899E+04  0.65864270000E+03 0. -1.
    8880022    1    1    2    0    0 -0.78674895538E+02  0.56216692743E+03 -0.92898059204E+03  0.10993716328E+04  0.15294330000E+03 0.  0.
<mgrwt>
<rscale>  0 0.78845379E+03</rscale>
<asrwt>0</asrwt>
<pdfrwt beam="1">  1        2 0.28160638E+00 0.86950078E+03</pdfrwt>
<pdfrwt beam="2">  1       -2 0.17268844E+00 0.86950078E+03</pdfrwt>
<totfact> 0.17180716E+00</totfact>
</mgrwt>
</event>
<event>
 4    5  0.1905771E-007  0.9970372E+03  0.7818608E-02  0.9385444E-01
          2   -1    0    0  501    0  0.00000000000E+00  0.00000000000E+00  0.13167564083E+04  0.13167564083E+04  0.25500000000E-02 0. -1.
         -2   -1    0    0    0  501 -0.00000000000E+00 -0.00000000000E+00 -0.65619534590E+03  0.65619534591E+03  0.25500000000E-02 0.  1.
    8880023    1    1    2    0    0  0.46714748112E+03  0.58484723877E+03  0.68317050241E+03  0.12086377470E+04  0.65864270000E+03 0.  1.
    8880022    1    1    2    0    0 -0.46714748112E+03 -0.58484723877E+03 -0.22609440032E+02  0.76431400721E+03  0.15294330000E+03 0.  0.
<mgrwt>
<rscale>  0 0.93283314E+03</rscale>
<asrwt>0</asrwt>
<pdfrwt beam="1">  1        2 0.20257791E+00 0.99703725E+03</pdfrwt>
<pdfrwt beam="2">  1       -2 0.10095313E+00 0.99703725E+03</pdfrwt>
<totfact> 0.12984279E+01</totfact>
</mgrwt>
</event>
<event>
 4    5  0.1905771E-007  0.7380889E+03  0.7818608E-02  0.9865549E-01
         -2   -1    0    0    0  501 -0.00000000000E+00  0.00000000000E+00  0.12796480025E+04  0.12796480025E+04  0.25500000000E-02 0.  1.
          2   -1    0    0  501    0  0.00000000000E+00 -0.00000000000E+00 -0.11894541443E+04  0.11894541443E+04  0.25500000000E-02 0. -1.
    8880023    1    1    2    0    0 -0.31988246924E+03 -0.92953158970E+02 -0.10432028374E+04  0.12779074497E+04  0.65864270000E+03 0. -1.
    8880022    1    1    2    0    0  0.31988246924E+03  0.92953158970E+02  0.11333966956E+04  0.11911946971E+04  0.15294330000E+03 0.  0.
<mgrwt>
<rscale>  0 0.61960363E+03</rscale>
<asrwt>0</asrwt>
<pdfrwt beam="1">  1        2 0.18299295E+00 0.73808894E+03</pdfrwt>
<pdfrwt beam="2">  1       -2 0.19686892E+00 0.73808894E+03</pdfrwt>
<totfact> 0.27565603E+00</totfact>
</mgrwt>
</event>
<event>
 4    5  0.1905771E-007  0.8688595E+03  0.7818608E-02  0.9577994E-01
          2   -1    0    0  501    0  0.00000000000E+00  0.00000000000E+00  0.37411382068E+03  0.37411382069E+03  0.25500000000E-02 0. -1.
         -2   -1    0    0    0  501 -0.00000000000E+00 -0.00000000000E+00 -0.18220618992E+04  0.18220618992E+04  0.25500000000E-02 0.  1.
    8880023    1    1    2    0    0 -0.25676773919E+03 -0.50515039358E+03 -0.32233089947E+03  0.92672218439E+03  0.65864270000E+03 0.  0.
    8880022    1    1    2    0    0  0.25676773919E+03  0.50515039358E+03 -0.11256171790E+04  0.12694535355E+04  0.15294330000E+03 0.  0.
<mgrwt>
<rscale>  0 0.78769944E+03</rscale>
<asrwt>0</asrwt>
<pdfrwt beam="1">  1        2 0.57555974E-01 0.86885948E+03</pdfrwt>
<pdfrwt beam="2">  1       -2 0.28031721E+00 0.86885948E+03</pdfrwt>
<totfact> 0.36669410E+00</totfact>
</mgrwt>
</event>
<event>
 4    5  0.1905771E-007  0.7292044E+03  0.7818608E-02  0.9892589E-01
          2   -1    0    0  501    0  0.00000000000E+00  0.00000000000E+00  0.20211424508E+04  0.20211424508E+04  0.25500000000E-02 0. -1.
         -2   -1    0    0    0  501 -0.00000000000E+00 -0.00000000000E+00 -0.31230478374E+03  0.31230478375E+03  0.25500000000E-02 0.  1.
    8880023    1    1    2    0    0  0.30351508393E+02  0.31146038386E+03  0.18257921482E+04  0.19660254219E+04  0.65864270000E+03 0. -1.
    8880022    1    1    2    0    0 -0.30351508393E+02 -0.31146038386E+03 -0.11695448112E+03  0.36742181270E+03  0.15294330000E+03 0.  0.
<mgrwt>
<rscale>  0 0.60621780E+03</rscale>
<asrwt>0</asrwt>
<pdfrwt beam="1">  1        2 0.31094498E+00 0.72920435E+03</pdfrwt>
<pdfrwt beam="2">  1       -2 0.48046891E-01 0.72920435E+03</pdfrwt>
<totfact> 0.27652140E+01</totfact>
</mgrwt>
</event>
<event>
 4    5  0.1905771E-007  0.7942448E+03  0.7818608E-02  0.9723381E-01
         -2   -1    0    0    0  501 -0.00000000000E+00  0.00000000000E+00  0.19125120253E+04  0.19125120253E+04  0.25500000000E-02 0.  1.
          2   -1    0    0  501    0  0.00000000000E+00 -0.00000000000E+00 -0.10760267962E+04  0.10760267962E+04  0.25500000000E-02 0. -1.
    8880023    1    1    2    0    0 -0.38177515539E+03 -0.22641197128E+03 -0.89379520531E+03  0.11956984257E+04  0.65864270000E+03 0. -1.
    8880022    1    1    2    0    0  0.38177515539E+03  0.22641197128E+03  0.17302804344E+04  0.17928403958E+04  0.15294330000E+03 0.  0.
<mgrwt>
<rscale>  0 0.69641610E+03</rscale>
<asrwt>0</asrwt>
<pdfrwt beam="1">  1        2 0.16554258E+00 0.79424483E+03</pdfrwt>
<pdfrwt beam="2">  1       -2 0.29423262E+00 0.79424483E+03</pdfrwt>
<totfact> 0.80616710E-01</totfact>
</mgrwt>
</event>
<event>
 4    5  0.1905771E-007  0.1129841E+04  0.7818608E-02  0.9228537E-01
          2   -1    0    0  501    0  0.00000000000E+00  0.00000000000E+00  0.31483346114E+04  0.31483346114E+04  0.25500000000E-02 0. -1.
         -2   -1    0    0    0  501 -0.00000000000E+00 -0.00000000000E+00 -0.51123500251E+03  0.51123500251E+03  0.25500000000E-02 0.  1.
    8880023    1    1    2    0    0 -0.33427510621E+03  0.85498035752E+03  0.24671075516E+04  0.27135145357E+04  0.65864270000E+03 0.  0.
    8880022    1    1    2    0    0  0.33427510621E+03 -0.85498035752E+03  0.16999205732E+03  0.94605507818E+03  0.15294330000E+03 0.  0.
<mgrwt>
<rscale>  0 0.10763674E+04</rscale>
<asrwt>0</asrwt>
<pdfrwt beam="1">  1        2 0.48435916E+00 0.11298413E+04</pdfrwt>
<pdfrwt beam="2">  1       -2 0.78651540E-01 0.11298413E+04</pdfrwt>
<totfact> 0.20235447E+00</totfact>
</mgrwt>
</event>
<event>
 4    5  0.1905771E-007  0.1708441E+04  0.7818608E-02  0.8774949E-01
          2   -1    0    0  501    0  0.00000000000E+00  0.00000000000E+00  0.12003741052E+04  0.12003741052E+04  0.25500000000E-02 0. -1.
         -2   -1    0    0    0  501 -0.00000000000E+00 -0.00000000000E+00 -0.34642188408E+04  0.34642188408E+04  0.25500000000E-02 0.  1.
    8880023    1    1    2    0    0  0.39817809256E+03 -0.15252590694E+04  0.21610984427E+03  0.17220553688E+04  0.65864270000E+03 0.  0.
    8880022    1    1    2    0    0 -0.39817809256E+03  0.15252590694E+04 -0.24799545798E+04  0.29425375772E+04  0.15294330000E+03 0.  0.
<mgrwt>
<rscale>  0 0.16763843E+04</rscale>
<asrwt>0</asrwt>
<pdfrwt beam="1">  1        2 0.18467294E+00 0.17084412E+04</pdfrwt>
<pdfrwt beam="2">  1       -2 0.53295674E+00 0.17084412E+04</pdfrwt>
<totfact> 0.18116758E-02</totfact>
</mgrwt>
</event>
<event>
 4    5  0.1905771E-007  0.1245639E+04  0.7818608E-02  0.9113987E-01
         -2   -1    0    0    0  501 -0.00000000000E+00  0.00000000000E+00  0.17181438665E+04  0.17181438665E+04  0.25500000000E-02 0.  1.
          2   -1    0    0  501    0  0.00000000000E+00 -0.00000000000E+00 -0.13877271100E+04  0.13877271100E+04  0.25500000000E-02 0. -1.
    8880023    1    1    2    0    0  0.27064244725E+03  0.10220360938E+04 -0.85445183012E+03  0.15105307834E+04  0.65864270000E+03 0.  0.
    8880022    1    1    2    0    0 -0.27064244725E+03 -0.10220360938E+04  0.11848685865E+04  0.15953401931E+04  0.15294330000E+03 0.  0.
<mgrwt>
<rscale>  0 0.11987099E+04</rscale>
<asrwt>0</asrwt>
<pdfrwt beam="1">  1        2 0.21349648E+00 0.12456385E+04</pdfrwt>
<pdfrwt beam="2">  1       -2 0.26432982E+00 0.12456385E+04</pdfrwt>
<totfact> 0.74691138E-01</totfact>
</mgrwt>
</event>
<event>
 4    5  0.1905771E-007  0.7557444E+03  0.7818608E-02  0.9816252E-01
         -2   -1    0    0    0  501 -0.00000000000E+00  0.00000000000E+00  0.34402983393E+03  0.34402983394E+03  0.25500000000E-02 0.  1.
          2   -1    0    0  501    0  0.00000000000E+00 -0.00000000000E+00 -0.23214873873E+04  0.23214873873E+04  0.25500000000E-02 0. -1.
    8880023    1    1    2    0    0  0.24831540042E+03 -0.27509779155E+03 -0.21115929667E+04  0.22427604411E+04  0.65864270000E+03 0. -1.
    8880022    1    1    2    0    0 -0.24831540042E+03  0.27509779155E+03  0.13413541333E+03  0.42275678011E+03  0.15294330000E+03 0.  0.
<mgrwt>
<rscale>  0 0.64497612E+03</rscale>
<asrwt>0</asrwt>
<pdfrwt beam="1">  1        2 0.35715190E+00 0.75574436E+03</pdfrwt>
<pdfrwt beam="2">  1       -2 0.52927668E-01 0.75574436E+03</pdfrwt>
<totfact> 0.15456225E+01</totfact>
</mgrwt>
</event>
<event>
 4    5  0.1905771E-007  0.1316050E+04  0.7818608E-02  0.9051822E-01
         -2   -1    0    0    0  501 -0.00000000000E+00  0.00000000000E+00  0.95420422192E+03  0.95420422193E+03  0.25500000000E-02 0.  1.
          2   -1    0    0  501    0  0.00000000000E+00 -0.00000000000E+00 -0.26855479981E+04  0.26855479981E+04  0.25500000000E-02 0. -1.
    8880023    1    1    2    0    0  0.87476660443E+03  0.73004210265E+03 -0.20596404050E+04  0.24441986188E+04  0.65864270000E+03 0.  0.
    8880022    1    1    2    0    0 -0.87476660443E+03 -0.73004210265E+03  0.32829662885E+03  0.11955536012E+04  0.15294330000E+03 0.  0.
<mgrwt>
<rscale>  0 0.12723032E+04</rscale>
<asrwt>0</asrwt>
<pdfrwt beam="1">  1        2 0.41316123E+00 0.13160503E+04</pdfrwt>
<pdfrwt beam="2">  1       -2 0.14680065E+00 0.13160503E+04</pdfrwt>
<totfact> 0.82997922E-01</totfact>
</mgrwt>
</event>
<event>
 4    5  0.1905771E-007  0.6738783E+03  0.7818608E-02  0.1013023E+00
         -2   -1    0    0    0  501 -0.00000000000E+00  0.00000000000E+00  0.85954657628E+02  0.85954657666E+02  0.25500000000E-02 0.  1.
          2   -1    0    0  501    0  0.00000000000E+00 -0.00000000000E+00 -0.31980998443E+04  0.31980998443E+04  0.25500000000E-02 0. -1.
    8880023    1    1    2    0    0 -0.99586665367E+02  0.10190321673E+03 -0.29309561420E+04  0.30074267875E+04  0.65864270000E+03 0. -1.
    8880022    1    1    2    0    0  0.99586665367E+02 -0.10190321673E+03 -0.18118904470E+03  0.27662771451E+03  0.15294330000E+03 0.  0.
<mgrwt>
<rscale>  0 0.50290750E+03</rscale>
<asrwt>0</asrwt>
<pdfrwt beam="1">  1        2 0.49201527E+00 0.67387831E+03</pdfrwt>
<pdfrwt beam="2">  1       -2 0.13223796E-01 0.67387831E+03</pdfrwt>
<totfact> 0.60557025E+01</totfact>
</mgrwt>
</event>
<event>
 4    5  0.1905771E-007  0.1397360E+04  0.7818608E-02  0.8985737E-01
         -2   -1    0    0    0  501 -0.00000000000E+00  0.00000000000E+00  0.17885056803E+04  0.17885056803E+04  0.25500000000E-02 0.  1.
          2   -1    0    0  501    0  0.00000000000E+00 -0.00000000000E+00 -0.13444503254E+04  0.13444503254E+04  0.25500000000E-02 0. -1.
    8880023    1    1    2    0    0  0.98994507577E+03 -0.73403928060E+03 -0.59013776267E+03  0.15168644315E+04  0.65864270000E+03 0.  0.
    8880022    1    1    2    0    0 -0.98994507577E+03  0.73403928060E+03  0.10341931176E+04  0.16160915741E+04  0.15294330000E+03 0.  0.
<mgrwt>
<rscale>  0 0.13567465E+04</rscale>
<asrwt>0</asrwt>
<pdfrwt beam="1">  1        2 0.20683851E+00 0.13973601E+04</pdfrwt>
<pdfrwt beam="2">  1       -2 0.27515472E+00 0.13973601E+04</pdfrwt>
<totfact> 0.66854486E-01</totfact>
</mgrwt>
</event>
<event>
 4    5  0.1905771E-007  0.7696739E+03  0.7818608E-02  0.9780677E-01
          2   -1    0    0  501    0  0.00000000000E+00  0.00000000000E+00  0.15231425434E+04  0.15231425434E+04  0.25500000000E-02 0. -1.
         -2   -1    0    0    0  501 -0.00000000000E+00 -0.00000000000E+00 -0.36504299585E+03  0.36504299586E+03  0.25500000000E-02 0.  1.
    8880023    1    1    2    0    0  0.25986258406E+03  0.30176013823E+03  0.12345258196E+04  0.14548030619E+04  0.65864270000E+03 0.  0.
    8880022    1    1    2    0    0 -0.25986258406E+03 -0.30176013823E+03 -0.76426271967E+02  0.43338247736E+03  0.15294330000E+03 0.  0.
<mgrwt>
<rscale>  0 0.66409905E+03</rscale>
<asrwt>0</asrwt>
<pdfrwt beam="1">  1        2 0.23432963E+00 0.76967392E+03</pdfrwt>
<pdfrwt beam="2">  1       -2 0.56160460E-01 0.76967392E+03</pdfrwt>
<totfact> 0.37428092E+01</totfact>
</mgrwt>
</event>
<event>
 4    5  0.1905771E-007  0.8221820E+03  0.7818608E-02  0.9664740E-01
         -2   -1    0    0    0  501 -0.00000000000E+00  0.00000000000E+00  0.48100646229E+03  0.48100646229E+03  0.25500000000E-02 0.  1.
          2   -1    0    0  501    0  0.00000000000E+00 -0.00000000000E+00 -0.18254790124E+04  0.18254790124E+04  0.25500000000E-02 0. -1.
    8880023    1    1    2    0    0  0.12640687175E+03  0.47559899260E+03 -0.15477010156E+04  0.17525300964E+04  0.65864270000E+03 0.  0.
    8880022    1    1    2    0    0 -0.12640687175E+03 -0.47559899260E+03  0.20322846542E+03  0.55395537831E+03  0.15294330000E+03 0.  0.
<mgrwt>
<rscale>  0 0.73155552E+03</rscale>
<asrwt>0</asrwt>
<pdfrwt beam="1">  1        2 0.28084292E+00 0.82218204E+03</pdfrwt>
<pdfrwt beam="2">  1       -2 0.74000995E-01 0.82218204E+03</pdfrwt>
<totfact> 0.14028899E+01</totfact>
</mgrwt>
</event>
<event>
 4    5  0.1905771E-007  0.1713353E+04  0.7818608E-02  0.8772044E-01
         -2   -1    0    0    0  501 -0.00000000000E+00  0.00000000000E+00  0.12924506352E+04  0.12924506352E+04  0.25500000000E-02 0.  1.
          2   -1    0    0  501    0  0.00000000000E+00 -0.00000000000E+00 -0.24878039500E+04  0.24878039500E+04  0.25500000000E-02 0. -1.
    8880023    1    1    2    0    0  0.90384553149E+02  0.15791134093E+04 -0.13533042655E+04  0.21833486135E+04  0.65864270000E+03 0.  0.
    8880022    1    1    2    0    0 -0.90384553149E+02 -0.15791134093E+04  0.15795095060E+03  0.15969059717E+04  0.15294330000E+03 0.  0.
<mgrwt>
<rscale>  0 0.16814009E+04</rscale>
<asrwt>0</asrwt>
<pdfrwt beam="1">  1        2 0.38273907E+00 0.17133531E+04</pdfrwt>
<pdfrwt beam="2">  1       -2 0.19883856E+00 0.17133531E+04</pdfrwt>
<totfact> 0.44026491E-01</totfact>
</mgrwt>
</event>
<event>
 4    5  0.1905771E-007  0.9550931E+03  0.7818608E-02  0.9442824E-01
          2   -1    0    0  501    0  0.00000000000E+00  0.00000000000E+00  0.23917931503E+04  0.23917931503E+04  0.25500000000E-02 0. -1.
         -2   -1    0    0    0  501 -0.00000000000E+00 -0.00000000000E+00 -0.48760267483E+03  0.48760267484E+03  0.25500000000E-02 0.  1.
    8880023    1    1    2    0    0  0.57514709159E+03 -0.38418534759E+03  0.19481400774E+04  0.21696664550E+04  0.65864270000E+03 0. -1.
    8880022    1    1    2    0    0 -0.57514709159E+03  0.38418534759E+03 -0.43949602025E+02  0.70972937011E+03  0.15294330000E+03 0.  0.
<mgrwt>
<rscale>  0 0.88633703E+03</rscale>
<asrwt>0</asrwt>
<pdfrwt beam="1">  1        2 0.36796818E+00 0.95509307E+03</pdfrwt>
<pdfrwt beam="2">  1       -2 0.75015795E-01 0.95509307E+03</pdfrwt>
<totfact> 0.65077286E+00</totfact>
</mgrwt>
</event>
<event>
 4    5  0.1905771E-007  0.8023909E+03  0.7818608E-02  0.9705650E-01
          2   -1    0    0  501    0  0.00000000000E+00  0.00000000000E+00  0.98043442537E+03  0.98043442537E+03  0.25500000000E-02 0. -1.
         -2   -1    0    0    0  501 -0.00000000000E+00 -0.00000000000E+00 -0.13014954294E+04  0.13014954294E+04  0.25500000000E-02 0.  1.
    8880023    1    1    2    0    0 -0.42794286747E+03 -0.16396887360E+03  0.75539824802E+03  0.11020243231E+04  0.65864270000E+03 0. -1.
    8880022    1    1    2    0    0  0.42794286747E+03  0.16396887360E+03 -0.10764592520E+04  0.11799055316E+04  0.15294330000E+03 0.  0.
<mgrwt>
<rscale>  0 0.70681377E+03</rscale>
<asrwt>0</asrwt>
<pdfrwt beam="1">  1        2 0.15083607E+00 0.80239086E+03</pdfrwt>
<pdfrwt beam="2">  1       -2 0.20023007E+00 0.80239086E+03</pdfrwt>
<totfact> 0.34935128E+00</totfact>
</mgrwt>
</event>
<event>
 4    5  0.1905771E-007  0.7147675E+03  0.7818608E-02  0.9940706E-01
         -2   -1    0    0    0  501 -0.00000000000E+00  0.00000000000E+00  0.11344849950E+03  0.11344849953E+03  0.25500000000E-02 0.  1.
          2   -1    0    0  501    0  0.00000000000E+00 -0.00000000000E+00 -0.43482629112E+04  0.43482629112E+04  0.25500000000E-02 0. -1.
    8880023    1    1    2    0    0 -0.27655925407E+02  0.27625627987E+03 -0.40097535360E+04  0.40729615771E+04  0.65864270000E+03 0.  0.
    8880022    1    1    2    0    0  0.27655925407E+02 -0.27625627987E+03 -0.22506087563E+03  0.38874983361E+03  0.15294330000E+03 0.  0.
<mgrwt>
<rscale>  0 0.58328436E+03</rscale>
<asrwt>0</asrwt>
<pdfrwt beam="1">  1        2 0.66896340E+00 0.71476751E+03</pdfrwt>
<pdfrwt beam="2">  1       -2 0.17453619E-01 0.71476751E+03</pdfrwt>
<totfact> 0.52445208E+00</totfact>
</mgrwt>
</event>
<event>
 4    5  0.1905771E-007  0.9210561E+03  0.7818608E-02  0.9493042E-01
          2   -1    0    0  501    0  0.00000000000E+00  0.00000000000E+00  0.31047582281E+04  0.31047582281E+04  0.25500000000E-02 0. -1.
         -2   -1    0    0    0  501 -0.00000000000E+00 -0.00000000000E+00 -0.22615383731E+03  0.22615383732E+03  0.25500000000E-02 0.  1.
    8880023    1    1    2    0    0 -0.40824730026E+03  0.49786376012E+03  0.21903379805E+04  0.23761154974E+04  0.65864270000E+03 0.  0.
    8880022    1    1    2    0    0  0.40824730026E+03 -0.49786376012E+03  0.68826641032E+03  0.95479656807E+03  0.15294330000E+03 0.  0.
<mgrwt>
<rscale>  0 0.84798788E+03</rscale>
<asrwt>0</asrwt>
<pdfrwt beam="1">  1        2 0.47765511E+00 0.92105613E+03</pdfrwt>
<pdfrwt beam="2">  1       -2 0.34792898E-01 0.92105613E+03</pdfrwt>
<totfact> 0.12001866E+01</totfact>
</mgrwt>
</event>
<event>
 4    5  0.1905771E-007  0.8633626E+03  0.7818608E-02  0.9587610E-01
         -2   -1    0    0    0  501 -0.00000000000E+00  0.00000000000E+00  0.39343780681E+03  0.39343780682E+03  0.25500000000E-02 0.  1.
          2   -1    0    0  501    0  0.00000000000E+00 -0.00000000000E+00 -0.24330767810E+04  0.24330767810E+04  0.25500000000E-02 0. -1.
    8880023    1    1    2    0    0 -0.25254505954E+02  0.55762620141E+03 -0.20742033481E+04  0.22467119322E+04  0.65864270000E+03 0. -1.
    8880022    1    1    2    0    0  0.25254505954E+02 -0.55762620141E+03  0.34564373891E+02  0.57980265568E+03  0.15294330000E+03 0.  0.
<mgrwt>
<rscale>  0 0.78121703E+03</rscale>
<asrwt>0</asrwt>
<pdfrwt beam="1">  1        2 0.37431949E+00 0.86336260E+03</pdfrwt>
<pdfrwt beam="2">  1       -2 0.60528895E-01 0.86336260E+03</pdfrwt>
<totfact> 0.99512480E+00</totfact>
</mgrwt>
</event>
<event>
 4    5  0.1905771E-007  0.9395769E+03  0.7818608E-02  0.9465272E-01
         -2   -1    0    0    0  501 -0.00000000000E+00  0.00000000000E+00  0.79080949928E+03  0.79080949929E+03  0.25500000000E-02 0.  1.
          2   -1    0    0  501    0  0.00000000000E+00 -0.00000000000E+00 -0.11492927785E+04  0.11492927785E+04  0.25500000000E-02 0. -1.
    8880023    1    1    2    0    0 -0.66210952439E+03  0.10298270635E+03 -0.70091890423E+03  0.11722166936E+04  0.65864270000E+03 0.  0.
    8880022    1    1    2    0    0  0.66210952439E+03 -0.10298270635E+03  0.34243562505E+03  0.76788558419E+03  0.15294330000E+03 0.  1.
<mgrwt>
<rscale>  0 0.86893316E+03</rscale>
<asrwt>0</asrwt>
<pdfrwt beam="1">  1        2 0.17681427E+00 0.93957685E+03</pdfrwt>
<pdfrwt beam="2">  1       -2 0.12166300E+00 0.93957685E+03</pdfrwt>
<totfact> 0.10408481E+01</totfact>
</mgrwt>
</event>
<event>
 4    5  0.1905771E-007  0.1426049E+04  0.7818608E-02  0.8963702E-01
         -2   -1    0    0    0  501 -0.00000000000E+00  0.00000000000E+00  0.27834771316E+04  0.27834771316E+04  0.25500000000E-02 0.  1.
          2   -1    0    0  501    0  0.00000000000E+00 -0.00000000000E+00 -0.87551904288E+03  0.87551904288E+03  0.25500000000E-02 0. -1.
    8880023    1    1    2    0    0  0.89327017451E+03 -0.89547472404E+03  0.76657248637E+02  0.14281082333E+04  0.65864270000E+03 0.  0.
    8880022    1    1    2    0    0 -0.89327017451E+03  0.89547472404E+03  0.18313008401E+04  0.22308879411E+04  0.15294330000E+03 0.  0.
<mgrwt>
<rscale>  0 0.13864281E+04</rscale>
<asrwt>0</asrwt>
<pdfrwt beam="1">  1        2 0.13469523E+00 0.14260494E+04</pdfrwt>
<pdfrwt beam="2">  1       -2 0.42822727E+00 0.14260494E+04</pdfrwt>
<totfact> 0.14146660E-01</totfact>
</mgrwt>
</event>
<event>
 4    5  0.1905771E-007  0.7080914E+03  0.7818608E-02  0.9965158E-01
          2   -1    0    0  501    0  0.00000000000E+00  0.00000000000E+00  0.22779880390E+04  0.22779880390E+04  0.25500000000E-02 0. -1.
         -2   -1    0    0    0  501 -0.00000000000E+00 -0.00000000000E+00 -0.10808526453E+04  0.10808526453E+04  0.25500000000E-02 0.  1.
    8880023    1    1    2    0    0  0.20106316385E+03 -0.16479336583E+03  0.22002382043E+04  0.23113722356E+04  0.65864270000E+03 0. -1.
    8880022    1    1    2    0    0 -0.20106316385E+03  0.16479336583E+03 -0.10031028107E+04  0.10474684487E+04  0.15294330000E+03 0.  0.
<mgrwt>
<rscale>  0 0.57204764E+03</rscale>
<asrwt>0</asrwt>
<pdfrwt beam="1">  1        2 0.35045969E+00 0.70809142E+03</pdfrwt>
<pdfrwt beam="2">  1       -2 0.16628503E+00 0.70809142E+03</pdfrwt>
<totfact> 0.11169967E+00</totfact>
</mgrwt>
</event>
<event>
 4    5  0.1905771E-007  0.9774454E+03  0.7818608E-02  0.9411680E-01
         -2   -1    0    0    0  501 -0.00000000000E+00  0.00000000000E+00  0.31319101418E+04  0.31319101418E+04  0.25500000000E-02 0.  1.
          2   -1    0    0  501    0  0.00000000000E+00 -0.00000000000E+00 -0.68247618628E+03  0.68247618629E+03  0.25500000000E-02 0. -1.
    8880023    1    1    2    0    0 -0.72220626790E+03 -0.27288869996E+01 -0.25569394410E+03  0.10103360528E+04  0.65864270000E+03 0. -1.
    8880022    1    1    2    0    0  0.72220626790E+03  0.27288869996E+01  0.27051278996E+04  0.28040502753E+04  0.15294330000E+03 0.  0.
<mgrwt>
<rscale>  0 0.91120702E+03</rscale>
<asrwt>0</asrwt>
<pdfrwt beam="1">  1        2 0.10499634E+00 0.97744542E+03</pdfrwt>
<pdfrwt beam="2">  1       -2 0.48183231E+00 0.97744542E+03</pdfrwt>
<totfact> 0.92639292E-02</totfact>
</mgrwt>
</event>
<event>
 4    5  0.1905771E-007  0.9637972E+03  0.7818608E-02  0.9430535E-01
          2   -1    0    0  501    0  0.00000000000E+00  0.00000000000E+00  0.11922167352E+04  0.11922167352E+04  0.25500000000E-02 0. -1.
         -2   -1    0    0    0  501 -0.00000000000E+00 -0.00000000000E+00 -0.16550575885E+04  0.16550575885E+04  0.25500000000E-02 0.  1.
    8880023    1    1    2    0    0 -0.44654532095E+03 -0.54377581903E+03  0.89183651895E+03  0.13131174539E+04  0.65864270000E+03 0. -1.
    8880022    1    1    2    0    0  0.44654532095E+03  0.54377581903E+03 -0.13546773722E+04  0.15341568697E+04  0.15294330000E+03 0.  0.
<mgrwt>
<rscale>  0 0.89604833E+03</rscale>
<asrwt>0</asrwt>
<pdfrwt beam="1">  1        2 0.18341796E+00 0.96379721E+03</pdfrwt>
<pdfrwt beam="2">  1       -2 0.25462424E+00 0.96379721E+03</pdfrwt>
<totfact> 0.11553128E+00</totfact>
</mgrwt>
</event>
<event>
 4    5  0.1905771E-007  0.8000327E+03  0.7818608E-02  0.9710725E-01
         -2   -1    0    0    0  501 -0.00000000000E+00  0.00000000000E+00  0.97052222379E+03  0.97052222379E+03  0.25500000000E-02 0.  1.
          2   -1    0    0  501    0  0.00000000000E+00 -0.00000000000E+00 -0.68247413147E+03  0.68247413148E+03  0.25500000000E-02 0. -1.
    8880023    1    1    2    0    0  0.45413434932E+03  0.20139647369E+01 -0.33469475934E+03  0.86722133938E+03  0.65864270000E+03 0. -1.
    8880022    1    1    2    0    0 -0.45413434932E+03 -0.20139647369E+01  0.62274285165E+03  0.78577501589E+03  0.15294330000E+03 0.  0.
<mgrwt>
<rscale>  0 0.70381780E+03</rscale>
<asrwt>0</asrwt>
<pdfrwt beam="1">  1        2 0.10499602E+00 0.80003267E+03</pdfrwt>
<pdfrwt beam="2">  1       -2 0.14931111E+00 0.80003267E+03</pdfrwt>
<totfact> 0.12959973E+01</totfact>
</mgrwt>
</event>
<event>
 4    5  0.1905771E-007  0.7000126E+03  0.7818608E-02  0.9997149E-01
         -2   -1    0    0    0  501 -0.00000000000E+00  0.00000000000E+00  0.87311713457E+03  0.87311713458E+03  0.25500000000E-02 0.  1.
          2   -1    0    0  501    0  0.00000000000E+00 -0.00000000000E+00 -0.12353774064E+04  0.12353774064E+04  0.25500000000E-02 0. -1.
    8880023    1    1    2    0    0  0.18185579058E+03 -0.15210469370E+03 -0.11083179929E+04  0.13108723607E+04  0.65864270000E+03 0. -1.
    8880022    1    1    2    0    0 -0.18185579058E+03  0.15210469370E+03  0.74605772102E+03  0.79762218031E+03  0.15294330000E+03 0.  0.
<mgrwt>
<rscale>  0 0.55775418E+03</rscale>
<asrwt>0</asrwt>
<pdfrwt beam="1">  1        2 0.19005806E+00 0.70001255E+03</pdfrwt>
<pdfrwt beam="2">  1       -2 0.13432571E+00 0.70001255E+03</pdfrwt>
<totfact> 0.74122125E+00</totfact>
</mgrwt>
</event>
<event>
 4    5  0.1905771E-007  0.8652489E+03  0.7818608E-02  0.9584294E-01
          2   -1    0    0  501    0  0.00000000000E+00  0.00000000000E+00  0.66709057522E+03  0.66709057522E+03  0.25500000000E-02 0. -1.
         -2   -1    0    0    0  501 -0.00000000000E+00 -0.00000000000E+00 -0.15529263801E+04  0.15529263801E+04  0.25500000000E-02 0.  1.
    8880023    1    1    2    0    0 -0.55956364415E+03  0.41641319333E+02  0.28641906640E+03  0.91142282130E+03  0.65864270000E+03 0. -1.
    8880022    1    1    2    0    0  0.55956364415E+03 -0.41641319333E+02 -0.11722548713E+04  0.13085941340E+04  0.15294330000E+03 0.  0.
<mgrwt>
<rscale>  0 0.78344490E+03</rscale>
<asrwt>0</asrwt>
<pdfrwt beam="1">  1        2 0.10262932E+00 0.86524891E+03</pdfrwt>
<pdfrwt beam="2">  1       -2 0.23891175E+00 0.86524891E+03</pdfrwt>
<totfact> 0.33161226E+00</totfact>
</mgrwt>
</event>
<event>
 4    5  0.1905771E-007  0.1169554E+04  0.7818608E-02  0.9187301E-01
          2   -1    0    0  501    0  0.00000000000E+00  0.00000000000E+00  0.30915044497E+04  0.30915044497E+04  0.25500000000E-02 0. -1.
         -2   -1    0    0    0  501 -0.00000000000E+00 -0.00000000000E+00 -0.39871934490E+03  0.39871934491E+03  0.25500000000E-02 0.  1.
    8880023    1    1    2    0    0  0.90843931364E+03  0.32982581266E+03  0.18989571017E+04  0.22302231578E+04  0.65864270000E+03 0.  0.
    8880022    1    1    2    0    0 -0.90843931364E+03 -0.32982581266E+03  0.79382800319E+03  0.12600006369E+04  0.15294330000E+03 0.  0.
<mgrwt>
<rscale>  0 0.11185468E+04</rscale>
<asrwt>0</asrwt>
<pdfrwt beam="1">  1        2 0.47561609E+00 0.11695543E+04</pdfrwt>
<pdfrwt beam="2">  1       -2 0.61341435E-01 0.11695543E+04</pdfrwt>
<totfact> 0.37721457E+00</totfact>
</mgrwt>
</event>
<event>
 4    5  0.1905771E-007  0.7397125E+03  0.7818608E-02  0.9860785E-01
         -2   -1    0    0    0  501 -0.00000000000E+00  0.00000000000E+00  0.93479941899E+03  0.93479941900E+03  0.25500000000E-02 0.  1.
          2   -1    0    0  501    0  0.00000000000E+00 -0.00000000000E+00 -0.54235402911E+03  0.54235402912E+03  0.25500000000E-02 0. -1.
    8880023    1    1    2    0    0 -0.72910361417E+02 -0.32870724463E+03 -0.21116979830E+03  0.76926410514E+03  0.65864270000E+03 0. -1.
    8880022    1    1    2    0    0  0.72910361417E+02  0.32870724463E+03  0.60361518818E+03  0.70788934298E+03  0.15294330000E+03 0.  0.
<mgrwt>
<rscale>  0 0.62200020E+03</rscale>
<asrwt>0</asrwt>
<pdfrwt beam="1">  1        2 0.83439083E-01 0.73971250E+03</pdfrwt>
<pdfrwt beam="2">  1       -2 0.14381529E+00 0.73971250E+03</pdfrwt>
<totfact> 0.19012056E+01</totfact>
</mgrwt>
</event>
<event>
 4    5  0.1905771E-007  0.8528769E+03  0.7818608E-02  0.9606362E-01
         -2   -1    0    0    0  501 -0.00000000000E+00  0.00000000000E+00  0.95382440425E+03  0.95382440425E+03  0.25500000000E-02 0.  1.
          2   -1    0    0  501    0  0.00000000000E+00 -0.00000000000E+00 -0.31931073743E+04  0.31931073743E+04  0.25500000000E-02 0. -1.
    8880023    1    1    2    0    0 -0.49772668544E+03 -0.21414251618E+03 -0.30460155589E+04  0.31631645329E+04  0.65864270000E+03 0. -1.
    8880022    1    1    2    0    0  0.49772668544E+03  0.21414251618E+03  0.80673258888E+03  0.98376724565E+03  0.15294330000E+03 0.  0.
<mgrwt>
<rscale>  0 0.76876544E+03</rscale>
<asrwt>0</asrwt>
<pdfrwt beam="1">  1        2 0.49124728E+00 0.85287694E+03</pdfrwt>
<pdfrwt beam="2">  1       -2 0.14674222E+00 0.85287694E+03</pdfrwt>
<totfact> 0.43766879E-01</totfact>
</mgrwt>
</event>
<event>
 4    5  0.1905771E-007  0.8394797E+03  0.7818608E-02  0.9631162E-01
         -2   -1    0    0    0  501 -0.00000000000E+00  0.00000000000E+00  0.33377119020E+03  0.33377119021E+03  0.25500000000E-02 0.  1.
          2   -1    0    0  501    0  0.00000000000E+00 -0.00000000000E+00 -0.19619149772E+04  0.19619149772E+04  0.25500000000E-02 0. -1.
    8880023    1    1    2    0    0 -0.20287657701E+03  0.47932976652E+03 -0.15288626707E+04  0.17441752213E+04  0.65864270000E+03 0.  0.
    8880022    1    1    2    0    0  0.20287657701E+03 -0.47932976652E+03 -0.99281116298E+02  0.55151094608E+03  0.15294330000E+03 0.  0.
<mgrwt>
<rscale>  0 0.75267558E+03</rscale>
<asrwt>0</asrwt>
<pdfrwt beam="1">  1        2 0.30183307E+00 0.83947968E+03</pdfrwt>
<pdfrwt beam="2">  1       -2 0.51349415E-01 0.83947968E+03</pdfrwt>
<totfact> 0.25663408E+01</totfact>
</mgrwt>
</event>
<event>
 4    5  0.1905771E-007  0.8166199E+03  0.7818608E-02  0.9675949E-01
          2   -1    0    0  501    0  0.00000000000E+00  0.00000000000E+00  0.25127557543E+04  0.25127557543E+04  0.25500000000E-02 0. -1.
         -2   -1    0    0    0  501 -0.00000000000E+00 -0.00000000000E+00 -0.79627218800E+03  0.79627218801E+03  0.25500000000E-02 0.  1.
    8880023    1    1    2    0    0 -0.14987476081E+03 -0.45890676859E+03 -0.55136421340E+03  0.98532764514E+03  0.65864270000E+03 0.  0.
    8880022    1    1    2    0    0  0.14987476081E+03  0.45890676859E+03  0.22678477797E+04  0.23237002972E+04  0.15294330000E+03 0.  0.
<mgrwt>
<rscale>  0 0.72466988E+03</rscale>
<asrwt>0</asrwt>
<pdfrwt beam="1">  1        2 0.38657781E+00 0.81661991E+03</pdfrwt>
<pdfrwt beam="2">  1       -2 0.12250341E+00 0.81661991E+03</pdfrwt>
<totfact> 0.17916442E+00</totfact>
</mgrwt>
</event>
<event>
 4    5  0.1905771E-007  0.9400427E+03  0.7818608E-02  0.9464588E-01
         -2   -1    0    0    0  501 -0.00000000000E+00  0.00000000000E+00  0.20775291425E+04  0.20775291425E+04  0.25500000000E-02 0.  1.
          2   -1    0    0  501    0  0.00000000000E+00 -0.00000000000E+00 -0.80203495755E+03  0.80203495755E+03  0.25500000000E-02 0. -1.
    8880023    1    1    2    0    0  0.35404023046E+03  0.56967142179E+03 -0.43507486480E+03  0.10358428249E+04  0.65864270000E+03 0. -1.
    8880022    1    1    2    0    0 -0.35404023046E+03 -0.56967142179E+03  0.17105690498E+04  0.18437212752E+04  0.15294330000E+03 0.  0.
<mgrwt>
<rscale>  0 0.86945747E+03</rscale>
<asrwt>0</asrwt>
<pdfrwt beam="1">  1        2 0.12338999E+00 0.94004267E+03</pdfrwt>
<pdfrwt beam="2">  1       -2 0.31961986E+00 0.94004267E+03</pdfrwt>
<totfact> 0.83993894E-01</totfact>
</mgrwt>
</event>
<event>
 4    5  0.1905771E-007  0.7042681E+03  0.7818608E-02  0.9979936E-01
          2   -1    0    0  501    0  0.00000000000E+00  0.00000000000E+00  0.12682812394E+04  0.12682812394E+04  0.25500000000E-02 0. -1.
         -2   -1    0    0    0  501 -0.00000000000E+00 -0.00000000000E+00 -0.61439861142E+03  0.61439861143E+03  0.25500000000E-02 0.  1.
    8880023    1    1    2    0    0  0.15396788080E+03  0.19615627507E+03  0.11255121020E+04  0.13276938994E+04  0.65864270000E+03 0. -1.
    8880022    1    1    2    0    0 -0.15396788080E+03 -0.19615627507E+03 -0.47162947397E+03  0.55498595145E+03  0.15294330000E+03 0.  0.
<mgrwt>
<rscale>  0 0.56538843E+03</rscale>
<asrwt>0</asrwt>
<pdfrwt beam="1">  1        2 0.19512019E+00 0.70426813E+03</pdfrwt>
<pdfrwt beam="2">  1       -2 0.94522864E-01 0.70426813E+03</pdfrwt>
<totfact> 0.16694338E+01</totfact>
</mgrwt>
</event>
<event>
 4    5  0.1905771E-007  0.7361230E+03  0.7818608E-02  0.9871388E-01
          2   -1    0    0  501    0  0.00000000000E+00  0.00000000000E+00  0.20616343065E+04  0.20616343065E+04  0.25500000000E-02 0. -1.
         -2   -1    0    0    0  501 -0.00000000000E+00 -0.00000000000E+00 -0.31328903388E+04  0.31328903388E+04  0.25500000000E-02 0.  1.
    8880023    1    1    2    0    0 -0.26572595152E+02  0.32765949254E+03  0.19848651948E+04  0.21169711603E+04  0.65864270000E+03 0.  0.
    8880022    1    1    2    0    0  0.26572595152E+02 -0.32765949254E+03 -0.30561212270E+04  0.30775534850E+04  0.15294330000E+03 0.  0.
<mgrwt>
<rscale>  0 0.61668214E+03</rscale>
<asrwt>0</asrwt>
<pdfrwt beam="1">  1        2 0.31717451E+00 0.73612299E+03</pdfrwt>
<pdfrwt beam="2">  1       -2 0.48198313E+00 0.73612299E+03</pdfrwt>
<totfact> 0.14489348E-02</totfact>
</mgrwt>
</event>
<event>
 4    5  0.1905771E-007  0.1354523E+04  0.7818608E-02  0.9019850E-01
          2   -1    0    0  501    0  0.00000000000E+00  0.00000000000E+00  0.47756697772E+04  0.47756697772E+04  0.25500000000E-02 0. -1.
         -2   -1    0    0    0  501 -0.00000000000E+00 -0.00000000000E+00 -0.35214646204E+03  0.35214646205E+03  0.25500000000E-02 0.  1.
    8880023    1    1    2    0    0 -0.34211745461E+03  0.11330836261E+04  0.28247783695E+04  0.31327473405E+04  0.65864270000E+03 0.  0.
    8880022    1    1    2    0    0  0.34211745461E+03 -0.11330836261E+04  0.15987449457E+04  0.19950688987E+04  0.15294330000E+03 0.  0.
<mgrwt>
<rscale>  0 0.13123225E+04</rscale>
<asrwt>0</asrwt>
<pdfrwt beam="1">  1        2 0.73471840E+00 0.13545232E+04</pdfrwt>
<pdfrwt beam="2">  1       -2 0.54176381E-01 0.13545232E+04</pdfrwt>
<totfact> 0.20765700E-01</totfact>
</mgrwt>
</event>
<event>
 4    5  0.1905771E-007  0.6765941E+03  0.7818608E-02  0.1011320E+00
         -2   -1    0    0    0  501 -0.00000000000E+00  0.00000000000E+00  0.63320698926E+03  0.63320698926E+03  0.25500000000E-02 0.  1.
          2   -1    0    0  501    0  0.00000000000E+00 -0.00000000000E+00 -0.79926903454E+03  0.79926903455E+03  0.25500000000E-02 0. -1.
    8880023    1    1    2    0    0 -0.13714747407E+03 -0.71832262608E+02 -0.62718870295E+03  0.92257529718E+03  0.65864270000E+03 0. -1.
    8880022    1    1    2    0    0  0.13714747407E+03  0.71832262608E+02  0.46112665766E+03  0.50990072663E+03  0.15294330000E+03 0.  0.
<mgrwt>
<rscale>  0 0.50953461E+03</rscale>
<asrwt>0</asrwt>
<pdfrwt beam="1">  1        2 0.12296447E+00 0.67659405E+03</pdfrwt>
<pdfrwt beam="2">  1       -2 0.97416459E-01 0.67659405E+03</pdfrwt>
<totfact> 0.30942983E+01</totfact>
</mgrwt>
</event>
<event>
 4    5  0.1905771E-007  0.2077378E+04  0.7818608E-02  0.8582874E-01
         -2   -1    0    0    0  501 -0.00000000000E+00  0.00000000000E+00  0.19220786682E+04  0.19220786682E+04  0.25500000000E-02 0.  1.
          2   -1    0    0  501    0  0.00000000000E+00 -0.00000000000E+00 -0.29497741571E+04  0.29497741571E+04  0.25500000000E-02 0. -1.
    8880023    1    1    2    0    0  0.86764385444E+03  0.17688655539E+04 -0.18014156667E+04  0.27496544904E+04  0.65864270000E+03 0. -1.
    8880022    1    1    2    0    0 -0.86764385444E+03 -0.17688655539E+04  0.77372017786E+03  0.21221983349E+04  0.15294330000E+03 0.  0.
<mgrwt>
<rscale>  0 0.20515897E+04</rscale>
<asrwt>0</asrwt>
<pdfrwt beam="1">  1        2 0.45381141E+00 0.20773785E+04</pdfrwt>
<pdfrwt beam="2">  1       -2 0.29570441E+00 0.20773785E+04</pdfrwt>
<totfact> 0.55481775E-02</totfact>
</mgrwt>
</event>
<event>
 4    5  0.1905771E-007  0.1081859E+04  0.7818608E-02  0.9281528E-01
          2   -1    0    0  501    0  0.00000000000E+00  0.00000000000E+00  0.12695423961E+04  0.12695423961E+04  0.25500000000E-02 0. -1.
         -2   -1    0    0    0  501 -0.00000000000E+00 -0.00000000000E+00 -0.11672484508E+04  0.11672484508E+04  0.25500000000E-02 0.  1.
    8880023    1    1    2    0    0  0.72023825260E+03  0.46676057118E+03  0.77904386153E+03  0.13331646994E+04  0.65864270000E+03 0.  0.
    8880022    1    1    2    0    0 -0.72023825260E+03 -0.46676057118E+03 -0.67674991617E+03  0.11036261475E+04  0.15294330000E+03 0.  0.
<mgrwt>
<rscale>  0 0.10250138E+04</rscale>
<asrwt>0</asrwt>
<pdfrwt beam="1">  1        2 0.19531422E+00 0.10818589E+04</pdfrwt>
<pdfrwt beam="2">  1       -2 0.17957668E+00 0.10818589E+04</pdfrwt>
<totfact> 0.30899434E+00</totfact>
</mgrwt>
</event>
<event>
 4    5  0.1905771E-007  0.7538945E+03  0.7818608E-02  0.9821178E-01
          2   -1    0    0  501    0  0.00000000000E+00  0.00000000000E+00  0.17195276157E+04  0.17195276157E+04  0.25500000000E-02 0. -1.
         -2   -1    0    0    0  501 -0.00000000000E+00 -0.00000000000E+00 -0.19508443770E+03  0.19508443772E+03  0.25500000000E-02 0.  1.
    8880023    1    1    2    0    0 -0.24030289219E+03 -0.27713030317E+03  0.10957514459E+04  0.13300481655E+04  0.65864270000E+03 0.  1.
    8880022    1    1    2    0    0  0.24030289219E+03  0.27713030317E+03  0.42869173204E+03  0.58456388792E+03  0.15294330000E+03 0. -1.
<mgrwt>
<rscale>  0 0.64238275E+03</rscale>
<asrwt>0</asrwt>
<pdfrwt beam="1">  1        2 0.26454270E+00 0.75389448E+03</pdfrwt>
<pdfrwt beam="2">  1       -2 0.30012991E-01 0.75389448E+03</pdfrwt>
<totfact> 0.10002117E+02</totfact>
</mgrwt>
</event>
<event>
 4    5  0.1905771E-007  0.7925000E+03  0.7818608E-02  0.9727253E-01
         -2   -1    0    0    0  501 -0.00000000000E+00  0.00000000000E+00  0.17393653482E+04  0.17393653482E+04  0.25500000000E-02 0.  1.
          2   -1    0    0  501    0  0.00000000000E+00 -0.00000000000E+00 -0.78727132149E+03  0.78727132149E+03  0.25500000000E-02 0. -1.
    8880023    1    1    2    0    0 -0.30961606679E+03  0.31366218847E+03 -0.54284825735E+03  0.96059383408E+03  0.65864270000E+03 0. -1.
    8880022    1    1    2    0    0  0.30961606679E+03 -0.31366218847E+03  0.14949422840E+04  0.15660428356E+04  0.15294330000E+03 0.  0.
<mgrwt>
<rscale>  0 0.69417063E+03</rscale>
<asrwt>0</asrwt>
<pdfrwt beam="1">  1        2 0.12111867E+00 0.79250002E+03</pdfrwt>
<pdfrwt beam="2">  1       -2 0.26759467E+00 0.79250002E+03</pdfrwt>
<totfact> 0.18149249E+00</totfact>
</mgrwt>
</event>
<event>
 4    5  0.2564847E-007  0.9611129E+03  0.7818608E-02  0.9434302E-01
         -2   -1    0    0    0  501 -0.00000000000E+00  0.00000000000E+00  0.19459822739E+04  0.19459822739E+04  0.25500000000E-02 0.  1.
          2   -1    0    0  501    0  0.00000000000E+00 -0.00000000000E+00 -0.19193693762E+04  0.19193693762E+04  0.25500000000E-02 0. -1.
    8880023    1    1    2    0    0  0.31362643618E+03 -0.62575252788E+03 -0.17239965205E+04  0.19738039357E+04  0.65864270000E+03 0. -1.
    8880022    1    1    2    0    0 -0.31362643618E+03  0.62575252788E+03  0.17506094182E+04  0.18915477144E+04  0.15294330000E+03 0.  0.
<mgrwt>
<rscale>  0 0.89305717E+03</rscale>
<asrwt>0</asrwt>
<pdfrwt beam="1">  1        2 0.29528760E+00 0.96111288E+03</pdfrwt>
<pdfrwt beam="2">  1       -2 0.29938189E+00 0.96111288E+03</pdfrwt>
<totfact> 0.24145395E-01</totfact>
</mgrwt>
</event>
<event>
 4    5  0.1905771E-007  0.9175488E+03  0.7818608E-02  0.9498428E-01
          2   -1    0    0  501    0  0.00000000000E+00  0.00000000000E+00  0.12836066859E+04  0.12836066859E+04  0.25500000000E-02 0. -1.
         -2   -1    0    0    0  501 -0.00000000000E+00 -0.00000000000E+00 -0.12721072794E+04  0.12721072794E+04  0.25500000000E-02 0.  1.
    8880023    1    1    2    0    0  0.63876956715E+03 -0.76805748975E+01  0.10074433731E+04  0.13626583972E+04  0.65864270000E+03 0.  0.
    8880022    1    1    2    0    0 -0.63876956715E+03  0.76805748975E+01 -0.99594396659E+03  0.11930555682E+04  0.15294330000E+03 0.  0.
<mgrwt>
<rscale>  0 0.84399836E+03</rscale>
<asrwt>0</asrwt>
<pdfrwt beam="1">  1        2 0.19747795E+00 0.91754878E+03</pdfrwt>
<pdfrwt beam="2">  1       -2 0.19570881E+00 0.91754878E+03</pdfrwt>
<totfact> 0.24058715E+00</totfact>
</mgrwt>
</event>
<event>
 4    5  0.1905771E-007  0.1028102E+04  0.7818608E-02  0.9345681E-01
          2   -1    0    0  501    0  0.00000000000E+00  0.00000000000E+00  0.41449583680E+04  0.41449583680E+04  0.25500000000E-02 0. -1.
         -2   -1    0    0    0  501 -0.00000000000E+00 -0.00000000000E+00 -0.61751498243E+03  0.61751498244E+03  0.25500000000E-02 0.  1.
    8880023    1    1    2    0    0  0.61245525101E+03 -0.49807914743E+03  0.37818366818E+04  0.39190921354E+04  0.65864270000E+03 0.  0.
    8880022    1    1    2    0    0 -0.61245525101E+03  0.49807914743E+03 -0.25439329629E+03  0.84338121499E+03  0.15294330000E+03 0.  0.
<mgrwt>
<rscale>  0 0.96684022E+03</rscale>
<asrwt>0</asrwt>
<pdfrwt beam="1">  1        2 0.63768592E+00 0.10281024E+04</pdfrwt>
<pdfrwt beam="2">  1       -2 0.95002303E-01 0.10281024E+04</pdfrwt>
<totfact> 0.25404614E-01</totfact>
</mgrwt>
</event>
<event>
 4    5  0.1905771E-007  0.6703537E+03  0.7818608E-02  0.1015411E+00
          2   -1    0    0  501    0  0.00000000000E+00  0.00000000000E+00  0.79341520571E+03  0.79341520572E+03  0.25500000000E-02 0. -1.
         -2   -1    0    0    0  501 -0.00000000000E+00 -0.00000000000E+00 -0.94479279367E+03  0.94479279368E+03  0.25500000000E-02 0.  1.
    8880023    1    1    2    0    0 -0.29211252353E+02  0.12128722825E+03  0.63745823529E+03  0.92505518592E+03  0.65864270000E+03 0. -1.
    8880022    1    1    2    0    0  0.29211252353E+02 -0.12128722825E+03 -0.78883582325E+03  0.81315281347E+03  0.15294330000E+03 0.  0.
<mgrwt>
<rscale>  0 0.49379782E+03</rscale>
<asrwt>0</asrwt>
<pdfrwt beam="1">  1        2 0.12206388E+00 0.67035371E+03</pdfrwt>
<pdfrwt beam="2">  1       -2 0.14535274E+00 0.67035371E+03</pdfrwt>
<totfact> 0.11625503E+01</totfact>
</mgrwt>
</event>
<event>
 4    5  0.1905771E-007  0.7486402E+03  0.7818608E-02  0.9835458E-01
         -2   -1    0    0    0  501 -0.00000000000E+00  0.00000000000E+00  0.81132250311E+03  0.81132250311E+03  0.25500000000E-02 0.  1.
          2   -1    0    0  501    0  0.00000000000E+00 -0.00000000000E+00 -0.22350624116E+04  0.22350624116E+04  0.25500000000E-02 0. -1.
    8880023    1    1    2    0    0  0.33704660929E+03 -0.11424358106E+03 -0.21207296935E+04  0.22489901404E+04  0.65864270000E+03 0. -1.
    8880022    1    1    2    0    0 -0.33704660929E+03  0.11424358106E+03  0.69698978500E+03  0.79739477428E+03  0.15294330000E+03 0.  0.
<mgrwt>
<rscale>  0 0.63493912E+03</rscale>
<asrwt>0</asrwt>
<pdfrwt beam="1">  1        2 0.34385575E+00 0.74864025E+03</pdfrwt>
<pdfrwt beam="2">  1       -2 0.12481885E+00 0.74864025E+03</pdfrwt>
<totfact> 0.24771686E+00</totfact>
</mgrwt>
</event>
<event>
 4    5  0.1905771E-007  0.9193912E+03  0.7818608E-02  0.9495593E-01
         -2   -1    0    0    0  501 -0.00000000000E+00  0.00000000000E+00  0.12706928698E+04  0.12706928698E+04  0.25500000000E-02 0.  1.
          2   -1    0    0  501    0  0.00000000000E+00 -0.00000000000E+00 -0.92126210979E+03  0.92126210979E+03  0.25500000000E-02 0. -1.
    8880023    1    1    2    0    0  0.62655429545E+03 -0.13747624847E+03 -0.55403627633E+03  0.10734227526E+04  0.65864270000E+03 0.  0.
    8880022    1    1    2    0    0 -0.62655429545E+03  0.13747624847E+03  0.90346703633E+03  0.11185322270E+04  0.15294330000E+03 0.  0.
<mgrwt>
<rscale>  0 0.84609505E+03</rscale>
<asrwt>0</asrwt>
<pdfrwt beam="1">  1        2 0.14173263E+00 0.91939122E+03</pdfrwt>
<pdfrwt beam="2">  1       -2 0.19549121E+00 0.91939122E+03</pdfrwt>
<totfact> 0.40446878E+00</totfact>
</mgrwt>
</event>
<event>
 4    5  0.1905771E-007  0.1885414E+04  0.7818608E-02  0.8676704E-01
          2   -1    0    0  501    0  0.00000000000E+00  0.00000000000E+00  0.18418565150E+04  0.18418565150E+04  0.25500000000E-02 0. -1.
         -2   -1    0    0    0  501 -0.00000000000E+00 -0.00000000000E+00 -0.20119045806E+04  0.20119045806E+04  0.25500000000E-02 0.  1.
    8880023    1    1    2    0    0 -0.15425419906E+04  0.86112722170E+03  0.51229158437E+03  0.19537729547E+04  0.65864270000E+03 0. -1.
    8880022    1    1    2    0    0  0.15425419906E+04 -0.86112722170E+03 -0.68233965000E+03  0.18999881409E+04  0.15294330000E+03 0.  0.
<mgrwt>
<rscale>  0 0.18567213E+04</rscale>
<asrwt>0</asrwt>
<pdfrwt beam="1">  1        2 0.28336254E+00 0.18854140E+04</pdfrwt>
<pdfrwt beam="2">  1       -2 0.30952378E+00 0.18854140E+04</pdfrwt>
<totfact> 0.20490902E-01</totfact>
</mgrwt>
</event>
<event>
 4    5  0.1905771E-007  0.8880542E+03  0.7818608E-02  0.9545487E-01
         -2   -1    0    0    0  501 -0.00000000000E+00  0.00000000000E+00  0.14668548921E+04  0.14668548921E+04  0.25500000000E-02 0.  1.
          2   -1    0    0  501    0  0.00000000000E+00 -0.00000000000E+00 -0.76244770610E+03  0.76244770611E+03  0.25500000000E-02 0. -1.
    8880023    1    1    2    0    0 -0.53240220689E+03  0.26716650842E+03 -0.39314922166E+03  0.97118822577E+03  0.65864270000E+03 0.  0.
    8880022    1    1    2    0    0  0.53240220689E+03 -0.26716650842E+03  0.10975564076E+04  0.12581143724E+04  0.15294330000E+03 0.  0.
<mgrwt>
<rscale>  0 0.81011731E+03</rscale>
<asrwt>0</asrwt>
<pdfrwt beam="1">  1        2 0.11729965E+00 0.88805420E+03</pdfrwt>
<pdfrwt beam="2">  1       -2 0.22566998E+00 0.88805420E+03</pdfrwt>
<totfact> 0.33664102E+00</totfact>
</mgrwt>
</event>
<event>
 4    5  0.1905771E-007  0.1865193E+04  0.7818608E-02  0.8687306E-01
          2   -1    0    0  501    0  0.00000000000E+00  0.00000000000E+00  0.38471868350E+04  0.38471868350E+04  0.25500000000E-02 0. -1.
         -2   -1    0    0    0  501 -0.00000000000E+00 -0.00000000000E+00 -0.16520738978E+04  0.16520738978E+04  0.25500000000E-02 0.  1.
    8880023    1    1    2    0    0  0.10857775582E+04 -0.13660975429E+04 -0.79998649307E+03  0.20295132416E+04  0.65864270000E+03 0.  0.
    8880022    1    1    2    0    0 -0.10857775582E+04  0.13660975429E+04  0.29950994303E+04  0.34697474912E+04  0.15294330000E+03 0.  0.
<mgrwt>
<rscale>  0 0.18361540E+04</rscale>
<asrwt>0</asrwt>
<pdfrwt beam="1">  1        2 0.59187489E+00 0.18651932E+04</pdfrwt>
<pdfrwt beam="2">  1       -2 0.25416522E+00 0.18651932E+04</pdfrwt>
<totfact> 0.24739411E-02</totfact>
</mgrwt>
</event>
<event>
 4    5  0.1905771E-007  0.6637278E+03  0.7818608E-02  0.1020625E+00
          2   -1    0    0  501    0  0.00000000000E+00  0.00000000000E+00  0.73953153446E+03  0.73953153446E+03  0.25500000000E-02 0. -1.
         -2   -1    0    0    0  501 -0.00000000000E+00 -0.00000000000E+00 -0.38033855640E+03  0.38033855641E+03  0.25500000000E-02 0.  1.
    8880023    1    1    2    0    0  0.72000303029E+02  0.39247702149E+02  0.54996677464E+03  0.86197336689E+03  0.65864270000E+03 0.  0.
    8880022    1    1    2    0    0 -0.72000303029E+02 -0.39247702149E+02 -0.19077379658E+03  0.25789672398E+03  0.15294330000E+03 0.  1.
<mgrwt>
<rscale>  0 0.47461594E+03</rscale>
<asrwt>0</asrwt>
<pdfrwt beam="1">  1        2 0.11377408E+00 0.66372783E+03</pdfrwt>
<pdfrwt beam="2">  1       -2 0.58513625E-01 0.66372783E+03</pdfrwt>
<totfact> 0.10613255E+02</totfact>
</mgrwt>
</event>
<event>
 4    5  0.1905771E-007  0.8152168E+03  0.7818608E-02  0.9678811E-01
          2   -1    0    0  501    0  0.00000000000E+00  0.00000000000E+00  0.93783100828E+03  0.93783100828E+03  0.25500000000E-02 0. -1.
         -2   -1    0    0    0  501 -0.00000000000E+00 -0.00000000000E+00 -0.60368104992E+03  0.60368104992E+03  0.25500000000E-02 0.  1.
    8880023    1    1    2    0    0 -0.21686923808E+03 -0.42864432543E+03  0.56006438884E+03  0.98906549331E+03  0.65864270000E+03 0. -1.
    8880022    1    1    2    0    0  0.21686923808E+03  0.42864432543E+03 -0.22591443048E+03  0.55244656489E+03  0.15294330000E+03 0.  0.
<mgrwt>
<rscale>  0 0.72292495E+03</rscale>
<asrwt>0</asrwt>
<pdfrwt beam="1">  1        2 0.14428169E+00 0.81521680E+03</pdfrwt>
<pdfrwt beam="2">  1       -2 0.92874008E-01 0.81521680E+03</pdfrwt>
<totfact> 0.27432339E+01</totfact>
</mgrwt>
</event>
<event>
 4    5  0.1905771E-007  0.8249615E+03  0.7818608E-02  0.9659216E-01
         -2   -1    0    0    0  501 -0.00000000000E+00  0.00000000000E+00  0.14857198791E+04  0.14857198791E+04  0.25500000000E-02 0.  1.
          2   -1    0    0  501    0  0.00000000000E+00 -0.00000000000E+00 -0.13482533398E+04  0.13482533398E+04  0.25500000000E-02 0. -1.
    8880023    1    1    2    0    0 -0.36083256922E+03  0.34139576152E+03 -0.11673612631E+04  0.14294382582E+04  0.65864270000E+03 0.  0.
    8880022    1    1    2    0    0  0.36083256922E+03 -0.34139576152E+03  0.13048278024E+04  0.14045349607E+04  0.15294330000E+03 0.  0.
<mgrwt>
<rscale>  0 0.73497816E+03</rscale>
<asrwt>0</asrwt>
<pdfrwt beam="1">  1        2 0.20742359E+00 0.82496146E+03</pdfrwt>
<pdfrwt beam="2">  1       -2 0.22857229E+00 0.82496146E+03</pdfrwt>
<totfact> 0.13815437E+00</totfact>
</mgrwt>
</event>
<event>
 4    5  0.1905771E-007  0.1606047E+04  0.7818608E-02  0.8838169E-01
         -2   -1    0    0    0  501 -0.00000000000E+00  0.00000000000E+00  0.13218139119E+04  0.13218139119E+04  0.25500000000E-02 0.  1.
          2   -1    0    0  501    0  0.00000000000E+00 -0.00000000000E+00 -0.20389723316E+04  0.20389723316E+04  0.25500000000E-02 0. -1.
    8880023    1    1    2    0    0 -0.26637996618E+03  0.14403534038E+04 -0.95564267347E+03  0.18688604389E+04  0.65864270000E+03 0.  0.
    8880022    1    1    2    0    0  0.26637996618E+03 -0.14403534038E+04  0.23848425368E+03  0.14919258046E+04  0.15294330000E+03 0.  0.
<mgrwt>
<rscale>  0 0.15716299E+04</rscale>
<asrwt>0</asrwt>
<pdfrwt beam="1">  1        2 0.31368805E+00 0.16060468E+04</pdfrwt>
<pdfrwt beam="2">  1       -2 0.20335599E+00 0.16060468E+04</pdfrwt>
<totfact> 0.74691331E-01</totfact>
</mgrwt>
</event>
<event>
 4    5  0.2128732E-007  0.1011845E+04  0.7818608E-02  0.9366222E-01
          2   -1    0    0  501    0  0.00000000000E+00  0.00000000000E+00  0.15978999600E+04  0.15978999600E+04  0.25500000000E-02 0. -1.
         -2   -1    0    0    0  501 -0.00000000000E+00 -0.00000000000E+00 -0.22679362047E+04  0.22679362047E+04  0.25500000000E-02 0.  1.
    8880023    1    1    2    0    0 -0.75640758484E+03  0.13366938893E+03  0.13570231335E+04  0.16927320908E+04  0.65864270000E+03 0.  0.
    8880022    1    1    2    0    0  0.75640758484E+03 -0.13366938893E+03 -0.20270593782E+04  0.21731040738E+04  0.15294330000E+03 0.  0.
<mgrwt>
<rscale>  0 0.94908359E+03</rscale>
<asrwt>0</asrwt>
<pdfrwt beam="1">  1        2 0.24583076E+00 0.10118449E+04</pdfrwt>
<pdfrwt beam="2">  1       -2 0.34891326E+00 0.10118449E+04</pdfrwt>
<totfact> 0.17871858E-01</totfact>
</mgrwt>
</event>
<event>
 4    5  0.1905771E-007  0.7843667E+03  0.7818608E-02  0.9745678E-01
          2   -1    0    0  501    0  0.00000000000E+00  0.00000000000E+00  0.55977759670E+03  0.55977759671E+03  0.25500000000E-02 0. -1.
         -2   -1    0    0    0  501 -0.00000000000E+00 -0.00000000000E+00 -0.18618814496E+04  0.18618814496E+04  0.25500000000E-02 0.  1.
    8880023    1    1    2    0    0 -0.29564815142E+03  0.30661550949E+03  0.23540345635E+03  0.81892972447E+03  0.65864270000E+03 0.  0.
    8880022    1    1    2    0    0  0.29564815142E+03 -0.30661550949E+03 -0.15375073093E+04  0.16027293219E+04  0.15294330000E+03 0.  0.
<mgrwt>
<rscale>  0 0.68361082E+03</rscale>
<asrwt>0</asrwt>
<pdfrwt beam="1">  1        2 0.86119631E-01 0.78436669E+03</pdfrwt>
<pdfrwt beam="2">  1       -2 0.28644330E+00 0.78436669E+03</pdfrwt>
<totfact> 0.21423814E+00</totfact>
</mgrwt>
</event>
<event>
 4    5  0.1905771E-007  0.8225235E+03  0.7818608E-02  0.9664058E-01
          2   -1    0    0  501    0  0.00000000000E+00  0.00000000000E+00  0.77247158745E+03  0.77247158746E+03  0.25500000000E-02 0. -1.
         -2   -1    0    0    0  501 -0.00000000000E+00 -0.00000000000E+00 -0.11980025891E+04  0.11980025891E+04  0.25500000000E-02 0.  1.
    8880023    1    1    2    0    0  0.41979485523E+03  0.25788948429E+03  0.46238095280E+03  0.94357885646E+03  0.65864270000E+03 0. -1.
    8880022    1    1    2    0    0 -0.41979485523E+03 -0.25788948429E+03 -0.88791195448E+03  0.10268953201E+04  0.15294330000E+03 0.  0.
<mgrwt>
<rscale>  0 0.73197664E+03</rscale>
<asrwt>0</asrwt>
<pdfrwt beam="1">  1        2 0.11884178E+00 0.82252350E+03</pdfrwt>
<pdfrwt beam="2">  1       -2 0.18430809E+00 0.82252350E+03</pdfrwt>
<totfact> 0.61761225E+00</totfact>
</mgrwt>
</event>
<event>
 4    5  0.1905771E-007  0.1212312E+04  0.7818608E-02  0.9145246E-01
         -2   -1    0    0    0  501 -0.00000000000E+00  0.00000000000E+00  0.15224406191E+04  0.15224406191E+04  0.25500000000E-02 0.  1.
          2   -1    0    0  501    0  0.00000000000E+00 -0.00000000000E+00 -0.13344094798E+04  0.13344094798E+04  0.25500000000E-02 0. -1.
    8880023    1    1    2    0    0  0.75505671781E+03 -0.68248126711E+03 -0.78192276453E+03  0.14426034601E+04  0.65864270000E+03 0. -1.
    8880022    1    1    2    0    0 -0.75505671781E+03  0.68248126711E+03  0.96995390385E+03  0.14142466389E+04  0.15294330000E+03 0.  0.
<mgrwt>
<rscale>  0 0.11636903E+04</rscale>
<asrwt>0</asrwt>
<pdfrwt beam="1">  1        2 0.20529377E+00 0.12123125E+04</pdfrwt>
<pdfrwt beam="2">  1       -2 0.23422163E+00 0.12123125E+04</pdfrwt>
<totfact> 0.12319361E+00</totfact>
</mgrwt>
</event>
<event>
 4    5  0.1905771E-007  0.1228155E+04  0.7818608E-02  0.9130228E-01
          2   -1    0    0  501    0  0.00000000000E+00  0.00000000000E+00  0.13304969699E+04  0.13304969699E+04  0.25500000000E-02 0. -1.
         -2   -1    0    0    0  501 -0.00000000000E+00 -0.00000000000E+00 -0.20245855441E+04  0.20245855441E+04  0.25500000000E-02 0.  1.
    8880023    1    1    2    0    0 -0.10252140982E+04  0.15327027589E+03  0.84671832952E+03  0.14917432287E+04  0.65864270000E+03 0.  0.
    8880022    1    1    2    0    0  0.10252140982E+04 -0.15327027589E+03 -0.15408069037E+04  0.18633392853E+04  0.15294330000E+03 0.  0.
<mgrwt>
<rscale>  0 0.11803552E+04</rscale>
<asrwt>0</asrwt>
<pdfrwt beam="1">  1        2 0.20469184E+00 0.12281555E+04</pdfrwt>
<pdfrwt beam="2">  1       -2 0.31147470E+00 0.12281555E+04</pdfrwt>
<totfact> 0.41747038E-01</totfact>
</mgrwt>
</event>
<event>
 4    5  0.1905771E-007  0.6636434E+03  0.7818608E-02  0.1020700E+00
          2   -1    0    0  501    0  0.00000000000E+00  0.00000000000E+00  0.24952922734E+04  0.24952922734E+04  0.25500000000E-02 0. -1.
         -2   -1    0    0    0  501 -0.00000000000E+00 -0.00000000000E+00 -0.29041336838E+03  0.29041336840E+03  0.25500000000E-02 0.  1.
    8880023    1    1    2    0    0 -0.51481012890E+02 -0.62945230927E+02  0.24200964796E+04  0.25094400917E+04  0.65864270000E+03 0. -1.
    8880022    1    1    2    0    0  0.51481012890E+02  0.62945230927E+02 -0.21521757457E+03  0.27626555016E+03  0.15294330000E+03 0.  0.
<mgrwt>
<rscale>  0 0.47434965E+03</rscale>
<asrwt>0</asrwt>
<pdfrwt beam="1">  1        2 0.38389111E+00 0.66364343E+03</pdfrwt>
<pdfrwt beam="2">  1       -2 0.44678981E-01 0.66364343E+03</pdfrwt>
<totfact> 0.17664235E+01</totfact>
</mgrwt>
</event>
<event>
 4    5  0.1905771E-007  0.1110965E+04  0.7818608E-02  0.9248945E-01
         -2   -1    0    0    0  501 -0.00000000000E+00  0.00000000000E+00  0.36621175142E+03  0.36621175143E+03  0.25500000000E-02 0.  1.
          2   -1    0    0  501    0  0.00000000000E+00 -0.00000000000E+00 -0.30548006267E+04  0.30548006267E+04  0.25500000000E-02 0. -1.
    8880023    1    1    2    0    0  0.30094487752E+03  0.84253501029E+03 -0.19766405875E+04  0.22674548025E+04  0.65864270000E+03 0.  0.
    8880022    1    1    2    0    0 -0.30094487752E+03 -0.84253501029E+03 -0.71194828779E+03  0.11535575757E+04  0.15294330000E+03 0.  0.
<mgrwt>
<rscale>  0 0.10562206E+04</rscale>
<asrwt>0</asrwt>
<pdfrwt beam="1">  1        2 0.46996931E+00 0.11109650E+04</pdfrwt>
<pdfrwt beam="2">  1       -2 0.56340272E-01 0.11109650E+04</pdfrwt>
<totfact> 0.47971036E+00</totfact>
</mgrwt>
</event>
<event>
 4    5  0.1905771E-007  0.8291509E+03  0.7818608E-02  0.9650987E-01
          2   -1    0    0  501    0  0.00000000000E+00  0.00000000000E+00  0.11713351406E+04  0.11713351406E+04  0.25500000000E-02 0. -1.
         -2   -1    0    0    0  501 -0.00000000000E+00 -0.00000000000E+00 -0.48833515386E+03  0.48833515387E+03  0.25500000000E-02 0.  1.
    8880023    1    1    2    0    0 -0.32721004616E+03  0.38290284465E+03  0.41963124497E+02  0.83021208906E+03  0.65864270000E+03 0.  1.
    8880022    1    1    2    0    0  0.32721004616E+03 -0.38290284465E+03  0.64103686223E+03  0.82945820540E+03  0.15294330000E+03 0. -1.
<mgrwt>
<rscale>  0 0.74011531E+03</rscale>
<asrwt>0</asrwt>
<pdfrwt beam="1">  1        2 0.18020540E+00 0.82915090E+03</pdfrwt>
<pdfrwt beam="2">  1       -2 0.75128486E-01 0.82915090E+03</pdfrwt>
<totfact> 0.31676607E+01</totfact>
</mgrwt>
</event>
<event>
 4    5  0.1905771E-007  0.1122562E+04  0.7818608E-02  0.9236343E-01
         -2   -1    0    0    0  501 -0.00000000000E+00  0.00000000000E+00  0.41146617209E+03  0.41146617210E+03  0.25500000000E-02 0.  1.
          2   -1    0    0  501    0  0.00000000000E+00 -0.00000000000E+00 -0.28981278530E+04  0.28981278530E+04  0.25500000000E-02 0. -1.
    8880023    1    1    2    0    0  0.70972018516E+03  0.56800665692E+03 -0.19300756660E+04  0.22327867310E+04  0.65864270000E+03 0.  0.
    8880022    1    1    2    0    0 -0.70972018516E+03 -0.56800665692E+03 -0.55658601489E+03  0.10768072940E+04  0.15294330000E+03 0.  0.
<mgrwt>
<rscale>  0 0.10686057E+04</rscale>
<asrwt>0</asrwt>
<pdfrwt beam="1">  1        2 0.44586581E+00 0.11225616E+04</pdfrwt>
<pdfrwt beam="2">  1       -2 0.63302490E-01 0.11225616E+04</pdfrwt>
<totfact> 0.46719099E+00</totfact>
</mgrwt>
</event>
<event>
 4    5  0.1905771E-007  0.6594854E+03  0.7818608E-02  0.1024690E+00
          2   -1    0    0  501    0  0.00000000000E+00  0.00000000000E+00  0.45232394413E+03  0.45232394413E+03  0.25500000000E-02 0. -1.
         -2   -1    0    0    0  501 -0.00000000000E+00 -0.00000000000E+00 -0.51720944080E+03  0.51720944081E+03  0.25500000000E-02 0.  1.
    8880023    1    1    2    0    0  0.80757984801E+01  0.32335635433E+02  0.17571672222E+03  0.68249350515E+03  0.65864270000E+03 0.  0.
    8880022    1    1    2    0    0 -0.80757984801E+01 -0.32335635433E+02 -0.24060221889E+03  0.28703987979E+03  0.15294330000E+03 0.  1.
<mgrwt>
<rscale>  0 0.46031499E+03</rscale>
<asrwt>0</asrwt>
<pdfrwt beam="1">  1        2 0.69588299E-01 0.65948542E+03</pdfrwt>
<pdfrwt beam="2">  1       -2 0.79570683E-01 0.65948542E+03</pdfrwt>
<totfact> 0.98265924E+01</totfact>
</mgrwt>
</event>
<event>
 4    5  0.1905771E-007  0.7552565E+03  0.7818608E-02  0.9817546E-01
         -2   -1    0    0    0  501 -0.00000000000E+00  0.00000000000E+00  0.39377876809E+03  0.39377876810E+03  0.25500000000E-02 0.  1.
          2   -1    0    0  501    0  0.00000000000E+00 -0.00000000000E+00 -0.15451198316E+04  0.15451198316E+04  0.25500000000E-02 0. -1.
    8880023    1    1    2    0    0  0.25617143274E+03  0.26641753444E+03 -0.13071322218E+04  0.15096380219E+04  0.65864270000E+03 0. -1.
    8880022    1    1    2    0    0 -0.25617143274E+03 -0.26641753444E+03  0.15579115832E+03  0.42926057778E+03  0.15294330000E+03 0.  0.
<mgrwt>
<rscale>  0 0.64429345E+03</rscale>
<asrwt>0</asrwt>
<pdfrwt beam="1">  1        2 0.23771074E+00 0.75525645E+03</pdfrwt>
<pdfrwt beam="2">  1       -2 0.60581350E-01 0.75525645E+03</pdfrwt>
<totfact> 0.31086965E+01</totfact>
</mgrwt>
</event>
<event>
 4    5  0.1905771E-007  0.7009332E+03  0.7818608E-02  0.9993352E-01
         -2   -1    0    0    0  501 -0.00000000000E+00  0.00000000000E+00  0.38034988431E+03  0.38034988432E+03  0.25500000000E-02 0.  1.
          2   -1    0    0  501    0  0.00000000000E+00 -0.00000000000E+00 -0.89316319081E+03  0.89316319081E+03  0.25500000000E-02 0. -1.
    8880023    1    1    2    0    0 -0.17686499791E+03 -0.16191312829E+03 -0.65162332505E+03  0.95703722634E+03  0.65864270000E+03 0.  0.
    8880022    1    1    2    0    0  0.17686499791E+03  0.16191312829E+03  0.13881001855E+03  0.31647584879E+03  0.15294330000E+03 0.  0.
<mgrwt>
<rscale>  0 0.55942705E+03</rscale>
<asrwt>0</asrwt>
<pdfrwt beam="1">  1        2 0.13740972E+00 0.70093316E+03</pdfrwt>
<pdfrwt beam="2">  1       -2 0.58515367E-01 0.70093316E+03</pdfrwt>
<totfact> 0.82321343E+01</totfact>
</mgrwt>
</event>
<event>
 4    5  0.1905771E-007  0.7147426E+03  0.7818608E-02  0.9940794E-01
         -2   -1    0    0    0  501 -0.00000000000E+00  0.00000000000E+00  0.83072063811E+03  0.83072063811E+03  0.25500000000E-02 0.  1.
          2   -1    0    0  501    0  0.00000000000E+00 -0.00000000000E+00 -0.30969593865E+04  0.30969593865E+04  0.25500000000E-02 0. -1.
    8880023    1    1    2    0    0  0.41210216810E+02 -0.27449669247E+03 -0.30234702540E+04  0.31068037111E+04  0.65864270000E+03 0.  0.
    8880022    1    1    2    0    0 -0.41210216810E+02  0.27449669247E+03  0.75723150556E+03  0.82087631357E+03  0.15294330000E+03 0.  0.
<mgrwt>
<rscale>  0 0.58324320E+03</rscale>
<asrwt>0</asrwt>
<pdfrwt beam="1">  1        2 0.47645528E+00 0.71474256E+03</pdfrwt>
<pdfrwt beam="2">  1       -2 0.12780318E+00 0.71474256E+03</pdfrwt>
<totfact> 0.74121604E-01</totfact>
</mgrwt>
</event>
<event>
 4    5  0.1905771E-007  0.1019431E+04  0.7818608E-02  0.9356567E-01
         -2   -1    0    0    0  501 -0.00000000000E+00  0.00000000000E+00  0.33938237640E+03  0.33938237641E+03  0.25500000000E-02 0.  1.
          2   -1    0    0  501    0  0.00000000000E+00 -0.00000000000E+00 -0.28359300813E+04  0.28359300813E+04  0.25500000000E-02 0. -1.
    8880023    1    1    2    0    0 -0.75302217963E+03  0.19592366756E+03 -0.77718430925E+03  0.12818947474E+04  0.65864270000E+03 0.  1.
    8880022    1    1    2    0    0  0.75302217963E+03 -0.19592366756E+03 -0.17193633957E+04  0.18934177104E+04  0.15294330000E+03 0.  0.
<mgrwt>
<rscale>  0 0.95737933E+03</rscale>
<asrwt>0</asrwt>
<pdfrwt beam="1">  1        2 0.43629692E+00 0.10194306E+04</pdfrwt>
<pdfrwt beam="2">  1       -2 0.52212675E-01 0.10194306E+04</pdfrwt>
<totfact> 0.77404253E+00</totfact>
</mgrwt>
</event>
<event>
 4    5  0.1905771E-007  0.1046584E+04  0.7818608E-02  0.9323000E-01
         -2   -1    0    0    0  501 -0.00000000000E+00  0.00000000000E+00  0.14988621203E+04  0.14988621203E+04  0.25500000000E-02 0.  1.
          2   -1    0    0  501    0  0.00000000000E+00 -0.00000000000E+00 -0.14014951709E+04  0.14014951709E+04  0.25500000000E-02 0. -1.
    8880023    1    1    2    0    0 -0.41616606466E+03  0.69880820127E+03 -0.10520719198E+04  0.14839786475E+04  0.65864270000E+03 0. -1.
    8880022    1    1    2    0    0  0.41616606466E+03 -0.69880820127E+03  0.11494388691E+04  0.14163786437E+04  0.15294330000E+03 0.  0.
<mgrwt>
<rscale>  0 0.98692769E+03</rscale>
<asrwt>0</asrwt>
<pdfrwt beam="1">  1        2 0.21561464E+00 0.10465836E+04</pdfrwt>
<pdfrwt beam="2">  1       -2 0.23059417E+00 0.10465836E+04</pdfrwt>
<totfact> 0.12110271E+00</totfact>
</mgrwt>
</event>
<event>
 4    5  0.1905771E-007  0.6600189E+03  0.7818608E-02  0.1024137E+00
          2   -1    0    0  501    0  0.00000000000E+00  0.00000000000E+00  0.93489437074E+03  0.93489437074E+03  0.25500000000E-02 0. -1.
         -2   -1    0    0    0  501 -0.00000000000E+00 -0.00000000000E+00 -0.37564276886E+03  0.37564276887E+03  0.25500000000E-02 0.  1.
    8880023    1    1    2    0    0 -0.30862386717E+02  0.29365172745E+02  0.79063837834E+03  0.10299194395E+04  0.65864270000E+03 0. -1.
    8880022    1    1    2    0    0  0.30862386717E+02 -0.29365172745E+02 -0.23138677646E+03  0.28061770011E+03  0.15294330000E+03 0.  0.
<mgrwt>
<rscale>  0 0.46222802E+03</rscale>
<asrwt>0</asrwt>
<pdfrwt beam="1">  1        2 0.14382990E+00 0.66001894E+03</pdfrwt>
<pdfrwt beam="2">  1       -2 0.57791195E-01 0.66001894E+03</pdfrwt>
<totfact> 0.79530774E+01</totfact>
</mgrwt>
</event>
<event>
 4    5  0.1905771E-007  0.8786904E+03  0.7818608E-02  0.9561144E-01
          2   -1    0    0  501    0  0.00000000000E+00  0.00000000000E+00  0.19871335114E+04  0.19871335114E+04  0.25500000000E-02 0. -1.
         -2   -1    0    0    0  501 -0.00000000000E+00 -0.00000000000E+00 -0.41244593173E+03  0.41244593174E+03  0.25500000000E-02 0.  1.
    8880023    1    1    2    0    0 -0.34247018470E+03  0.47010720657E+03  0.15688407580E+04  0.17981540933E+04  0.65864270000E+03 0.  0.
    8880022    1    1    2    0    0  0.34247018470E+03 -0.47010720657E+03  0.58468216803E+01  0.60142534983E+03  0.15294330000E+03 0.  0.
<mgrwt>
<rscale>  0 0.79922160E+03</rscale>
<asrwt>0</asrwt>
<pdfrwt beam="1">  1        2 0.30571285E+00 0.87869040E+03</pdfrwt>
<pdfrwt beam="2">  1       -2 0.63453220E-01 0.87869040E+03</pdfrwt>
<totfact> 0.15881214E+01</totfact>
</mgrwt>
</event>
<event>
 4    5  0.2531897E-007  0.8395485E+03  0.7818608E-02  0.9631032E-01
         -2   -1    0    0    0  501 -0.00000000000E+00  0.00000000000E+00  0.95991180699E+03  0.95991180699E+03  0.25500000000E-02 0.  1.
          2   -1    0    0  501    0  0.00000000000E+00 -0.00000000000E+00 -0.15405118759E+04  0.15405118759E+04  0.25500000000E-02 0. -1.
    8880023    1    1    2    0    0 -0.15048529755E+03  0.49838308448E+03 -0.13314462766E+04  0.15740365045E+04  0.65864270000E+03 0. -1.
    8880022    1    1    2    0    0  0.15048529755E+03 -0.49838308448E+03  0.75084620771E+03  0.92638717841E+03  0.15294330000E+03 0.  0.
<mgrwt>
<rscale>  0 0.75275882E+03</rscale>
<asrwt>0</asrwt>
<pdfrwt beam="1">  1        2 0.23700183E+00 0.83954853E+03</pdfrwt>
<pdfrwt beam="2">  1       -2 0.14767874E+00 0.83954853E+03</pdfrwt>
<totfact> 0.38117869E+00</totfact>
</mgrwt>
</event>
<event>
 4    5  0.1905771E-007  0.8184123E+03  0.7818608E-02  0.9672314E-01
         -2   -1    0    0    0  501 -0.00000000000E+00  0.00000000000E+00  0.61312415310E+03  0.61312415311E+03  0.25500000000E-02 0.  1.
          2   -1    0    0  501    0  0.00000000000E+00 -0.00000000000E+00 -0.17926490394E+04  0.17926490394E+04  0.25500000000E-02 0. -1.
    8880023    1    1    2    0    0  0.50233001664E+02  0.48318235828E+03 -0.15656517421E+04  0.17666533700E+04  0.65864270000E+03 0. -1.
    8880022    1    1    2    0    0 -0.50233001664E+02 -0.48318235828E+03  0.38612685579E+03  0.63911982256E+03  0.15294330000E+03 0.  0.
<mgrwt>
<rscale>  0 0.72689424E+03</rscale>
<asrwt>0</asrwt>
<pdfrwt beam="1">  1        2 0.27579216E+00 0.81841234E+03</pdfrwt>
<pdfrwt beam="2">  1       -2 0.94326793E-01 0.81841234E+03</pdfrwt>
<totfact> 0.84259379E+00</totfact>
</mgrwt>
</event>
<event>
 4    5  0.1905771E-007  0.1619763E+04  0.7818608E-02  0.8829392E-01
          2   -1    0    0  501    0  0.00000000000E+00  0.00000000000E+00  0.26949428000E+04  0.26949428000E+04  0.25500000000E-02 0. -1.
         -2   -1    0    0    0  501 -0.00000000000E+00 -0.00000000000E+00 -0.14151116183E+04  0.14151116183E+04  0.25500000000E-02 0.  1.
    8880023    1    1    2    0    0  0.14747600513E+04  0.12208668383E+03  0.19013553684E+04  0.24977559550E+04  0.65864270000E+03 0.  0.
    8880022    1    1    2    0    0 -0.14747600513E+04 -0.12208668383E+03 -0.62152418667E+03  0.16122984634E+04  0.15294330000E+03 0.  0.
<mgrwt>
<rscale>  0 0.15856837E+04</rscale>
<asrwt>0</asrwt>
<pdfrwt beam="1">  1        2 0.41460658E+00 0.16197631E+04</pdfrwt>
<pdfrwt beam="2">  1       -2 0.21770948E+00 0.16197631E+04</pdfrwt>
<totfact> 0.25324586E-01</totfact>
</mgrwt>
</event>
<event>
 4    5  0.1905771E-007  0.8854118E+03  0.7818608E-02  0.9549868E-01
         -2   -1    0    0    0  501 -0.00000000000E+00  0.00000000000E+00  0.79159898736E+03  0.79159898736E+03  0.25500000000E-02 0.  1.
          2   -1    0    0  501    0  0.00000000000E+00 -0.00000000000E+00 -0.12542823446E+04  0.12542823446E+04  0.25500000000E-02 0. -1.
    8880023    1    1    2    0    0 -0.41277960733E+03 -0.42397751022E+03 -0.92430874027E+03  0.12799612443E+04  0.65864270000E+03 0.  0.
    8880022    1    1    2    0    0  0.41277960733E+03  0.42397751022E+03  0.46162538301E+03  0.76592008764E+03  0.15294330000E+03 0.  0.
<mgrwt>
<rscale>  0 0.80705010E+03</rscale>
<asrwt>0</asrwt>
<pdfrwt beam="1">  1        2 0.19296651E+00 0.88541185E+03</pdfrwt>
<pdfrwt beam="2">  1       -2 0.12178446E+00 0.88541185E+03</pdfrwt>
<totfact> 0.90401853E+00</totfact>
</mgrwt>
</event>
<event>
 4    5  0.1905771E-007  0.1008696E+04  0.7818608E-02  0.9370268E-01
          2   -1    0    0  501    0  0.00000000000E+00  0.00000000000E+00  0.11735728942E+04  0.11735728942E+04  0.25500000000E-02 0. -1.
         -2   -1    0    0    0  501 -0.00000000000E+00 -0.00000000000E+00 -0.10638905846E+04  0.10638905846E+04  0.25500000000E-02 0.  1.
    8880023    1    1    2    0    0  0.83246884332E+02  0.75942608663E+03  0.72702854678E+03  0.12433980613E+04  0.65864270000E+03 0.  0.
    8880022    1    1    2    0    0 -0.83246884332E+02 -0.75942608663E+03 -0.61734623717E+03  0.99406541755E+03  0.15294330000E+03 0.  0.
<mgrwt>
<rscale>  0 0.94563459E+03</rscale>
<asrwt>0</asrwt>
<pdfrwt beam="1">  1        2 0.18054968E+00 0.10086963E+04</pdfrwt>
<pdfrwt beam="2">  1       -2 0.16367548E+00 0.10086963E+04</pdfrwt>
<totfact> 0.46052063E+00</totfact>
</mgrwt>
</event>
<event>
 4    5  0.1905771E-007  0.1731996E+04  0.7818608E-02  0.8761117E-01
          2   -1    0    0  501    0  0.00000000000E+00  0.00000000000E+00  0.48764038881E+04  0.48764038881E+04  0.25500000000E-02 0. -1.
         -2   -1    0    0    0  501 -0.00000000000E+00 -0.00000000000E+00 -0.58010412716E+03  0.58010412716E+03  0.25500000000E-02 0.  1.
    8880023    1    1    2    0    0 -0.99510947551E+03  0.12552917766E+04  0.19100969534E+04  0.25784260490E+04  0.65864270000E+03 0.  1.
    8880022    1    1    2    0    0  0.99510947551E+03 -0.12552917766E+04  0.23862028075E+04  0.28780819662E+04  0.15294330000E+03 0. -1.
<mgrwt>
<rscale>  0 0.17004345E+04</rscale>
<asrwt>0</asrwt>
<pdfrwt beam="1">  1        2 0.75021600E+00 0.17319961E+04</pdfrwt>
<pdfrwt beam="2">  1       -2 0.89246787E-01 0.17319961E+04</pdfrwt>
<totfact> 0.50288509E-02</totfact>
</mgrwt>
</event>
<event>
 4    5  0.1905771E-007  0.7460080E+03  0.7818608E-02  0.9842780E-01
         -2   -1    0    0    0  501 -0.00000000000E+00  0.00000000000E+00  0.21313518221E+03  0.21313518223E+03  0.25500000000E-02 0.  1.
          2   -1    0    0  501    0  0.00000000000E+00 -0.00000000000E+00 -0.20648119232E+04  0.20648119232E+04  0.25500000000E-02 0. -1.
    8880023    1    1    2    0    0  0.24597000329E+03 -0.24943228537E+03 -0.17180420406E+04  0.18730179836E+04  0.65864270000E+03 0. -1.
    8880022    1    1    2    0    0 -0.24597000329E+03  0.24943228537E+03 -0.13363470037E+03  0.40492912178E+03  0.15294330000E+03 0.  0.
<mgrwt>
<rscale>  0 0.63116421E+03</rscale>
<asrwt>0</asrwt>
<pdfrwt beam="1">  1        2 0.31766336E+00 0.74600799E+03</pdfrwt>
<pdfrwt beam="2">  1       -2 0.32790029E-01 0.74600799E+03</pdfrwt>
<totfact> 0.54981353E+01</totfact>
</mgrwt>
</event>
<event>
 4    5  0.1905771E-007  0.9419190E+03  0.7818608E-02  0.9461838E-01
          2   -1    0    0  501    0  0.00000000000E+00  0.00000000000E+00  0.38276748955E+04  0.38276748955E+04  0.25500000000E-02 0. -1.
         -2   -1    0    0    0  501 -0.00000000000E+00 -0.00000000000E+00 -0.69889182235E+03  0.69889182235E+03  0.25500000000E-02 0.  1.
    8880023    1    1    2    0    0 -0.22587105812E+03  0.63433695507E+03  0.35799145105E+04  0.37017562340E+04  0.65864270000E+03 0. -1.
    8880022    1    1    2    0    0  0.22587105812E+03 -0.63433695507E+03 -0.45113143734E+03  0.82481048383E+03  0.15294330000E+03 0.  0.
<mgrwt>
<rscale>  0 0.87156816E+03</rscale>
<asrwt>0</asrwt>
<pdfrwt beam="1">  1        2 0.58887305E+00 0.94191895E+03</pdfrwt>
<pdfrwt beam="2">  1       -2 0.10752182E+00 0.94191895E+03</pdfrwt>
<totfact> 0.34305976E-01</totfact>
</mgrwt>
</event>
<event>
 4    5  0.1905771E-007  0.1253827E+04  0.7818608E-02  0.9106495E-01
          2   -1    0    0  501    0  0.00000000000E+00  0.00000000000E+00  0.11537334483E+04  0.11537334483E+04  0.25500000000E-02 0. -1.
         -2   -1    0    0    0  501 -0.00000000000E+00 -0.00000000000E+00 -0.19158693312E+04  0.19158693312E+04  0.25500000000E-02 0.  1.
    8880023    1    1    2    0    0 -0.19854715498E+03 -0.10482613205E+04  0.55204309323E+03  0.13699761136E+04  0.65864270000E+03 0. -1.
    8880022    1    1    2    0    0  0.19854715498E+03  0.10482613205E+04 -0.13141789762E+04  0.16996266659E+04  0.15294330000E+03 0.  0.
<mgrwt>
<rscale>  0 0.12072950E+04</rscale>
<asrwt>0</asrwt>
<pdfrwt beam="1">  1        2 0.17749745E+00 0.12538273E+04</pdfrwt>
<pdfrwt beam="2">  1       -2 0.29474913E+00 0.12538273E+04</pdfrwt>
<totfact> 0.67056366E-01</totfact>
</mgrwt>
</event>
<event>
 4    5  0.1905771E-007  0.7477503E+03  0.7818608E-02  0.9837920E-01
          2   -1    0    0  501    0  0.00000000000E+00  0.00000000000E+00  0.18854751166E+04  0.18854751166E+04  0.25500000000E-02 0. -1.
         -2   -1    0    0    0  501 -0.00000000000E+00 -0.00000000000E+00 -0.23476261554E+03  0.23476261555E+03  0.25500000000E-02 0.  1.
    8880023    1    1    2    0    0 -0.27259998027E+03  0.22585308151E+03  0.15511282566E+04  0.17219551209E+04  0.65864270000E+03 0. -1.
    8880022    1    1    2    0    0  0.27259998027E+03 -0.22585308151E+03  0.99584244455E+02  0.39828261126E+03  0.15294330000E+03 0.  0.
<mgrwt>
<rscale>  0 0.63366646E+03</rscale>
<asrwt>0</asrwt>
<pdfrwt beam="1">  1        2 0.29007309E+00 0.74775034E+03</pdfrwt>
<pdfrwt beam="2">  1       -2 0.36117326E-01 0.74775034E+03</pdfrwt>
<totfact> 0.57315284E+01</totfact>
</mgrwt>
</event>
<event>
 4    5  0.1905771E-007  0.1126800E+04  0.7818608E-02  0.9231789E-01
          2   -1    0    0  501    0  0.00000000000E+00  0.00000000000E+00  0.12079783127E+04  0.12079783127E+04  0.25500000000E-02 0. -1.
         -2   -1    0    0    0  501 -0.00000000000E+00 -0.00000000000E+00 -0.98301110183E+03  0.98301110183E+03  0.25500000000E-02 0.  1.
    8880023    1    1    2    0    0  0.65645721440E+03  0.63634194125E+03  0.48724917312E+03  0.12276355744E+04  0.65864270000E+03 0.  0.
    8880022    1    1    2    0    0 -0.65645721440E+03 -0.63634194125E+03 -0.26228196227E+03  0.96335384012E+03  0.15294330000E+03 0.  0.
<mgrwt>
<rscale>  0 0.10731255E+04</rscale>
<asrwt>0</asrwt>
<pdfrwt beam="1">  1        2 0.18584282E+00 0.11267996E+04</pdfrwt>
<pdfrwt beam="2">  1       -2 0.15123248E+00 0.11267996E+04</pdfrwt>
<totfact> 0.53782113E+00</totfact>
</mgrwt>
</event>
<event>
 4    5  0.1951279E-007  0.7711670E+03  0.7818608E-02  0.9777010E-01
         -2   -1    0    0    0  501 -0.00000000000E+00  0.00000000000E+00  0.57904676824E+03  0.57904676825E+03  0.25500000000E-02 0.  1.
          2   -1    0    0  501    0  0.00000000000E+00 -0.00000000000E+00 -0.21482718632E+04  0.21482718632E+04  0.25500000000E-02 0. -1.
    8880023    1    1    2    0    0 -0.23129745231E+03  0.32770382087E+03 -0.19851003922E+04  0.21296295638E+04  0.65864270000E+03 0.  0.
    8880022    1    1    2    0    0  0.23129745231E+03 -0.32770382087E+03  0.41587529727E+03  0.59768906762E+03  0.15294330000E+03 0.  0.
<mgrwt>
<rscale>  0 0.66611020E+03</rscale>
<asrwt>0</asrwt>
<pdfrwt beam="1">  1        2 0.33050336E+00 0.77116698E+03</pdfrwt>
<pdfrwt beam="2">  1       -2 0.89084119E-01 0.77116698E+03</pdfrwt>
<totfact> 0.61898738E+00</totfact>
</mgrwt>
</event>
<event>
 4    5  0.1905771E-007  0.8058953E+03  0.7818608E-02  0.9698191E-01
          2   -1    0    0  501    0  0.00000000000E+00  0.00000000000E+00  0.11557825637E+04  0.11557825637E+04  0.25500000000E-02 0. -1.
         -2   -1    0    0    0  501 -0.00000000000E+00 -0.00000000000E+00 -0.82574176184E+03  0.82574176185E+03  0.25500000000E-02 0.  1.
    8880023    1    1    2    0    0  0.42475888468E+03  0.18771483631E+03  0.91489637666E+03  0.12192221111E+04  0.65864270000E+03 0. -1.
    8880022    1    1    2    0    0 -0.42475888468E+03 -0.18771483631E+03 -0.58485557476E+03  0.76230221450E+03  0.15294330000E+03 0.  0.
<mgrwt>
<rscale>  0 0.71124583E+03</rscale>
<asrwt>0</asrwt>
<pdfrwt beam="1">  1        2 0.17781270E+00 0.80589526E+03</pdfrwt>
<pdfrwt beam="2">  1       -2 0.12703720E+00 0.80589526E+03</pdfrwt>
<totfact> 0.93871783E+00</totfact>
</mgrwt>
</event>
<event>
 4    5  0.1905771E-007  0.1671435E+04  0.7818608E-02  0.8797200E-01
         -2   -1    0    0    0  501 -0.00000000000E+00  0.00000000000E+00  0.20892185492E+04  0.20892185492E+04  0.25500000000E-02 0.  1.
          2   -1    0    0  501    0  0.00000000000E+00 -0.00000000000E+00 -0.13867767106E+04  0.13867767106E+04  0.25500000000E-02 0. -1.
    8880023    1    1    2    0    0  0.14321279650E+04  0.55578143904E+03 -0.20706935622E+03  0.16842124096E+04  0.65864270000E+03 0.  0.
    8880022    1    1    2    0    0 -0.14321279650E+04 -0.55578143904E+03  0.90951119478E+03  0.17917828503E+04  0.15294330000E+03 0.  0.
<mgrwt>
<rscale>  0 0.16385656E+04</rscale>
<asrwt>0</asrwt>
<pdfrwt beam="1">  1        2 0.21335026E+00 0.16714346E+04</pdfrwt>
<pdfrwt beam="2">  1       -2 0.32141824E+00 0.16714346E+04</pdfrwt>
<totfact> 0.32007719E-01</totfact>
</mgrwt>
</event>
<event>
 4    5  0.1905771E-007  0.1004772E+04  0.7818608E-02  0.9375341E-01
          2   -1    0    0  501    0  0.00000000000E+00  0.00000000000E+00  0.30240358107E+04  0.30240358107E+04  0.25500000000E-02 0. -1.
         -2   -1    0    0    0  501 -0.00000000000E+00 -0.00000000000E+00 -0.47159243778E+03  0.47159243779E+03  0.25500000000E-02 0.  1.
    8880023    1    1    2    0    0 -0.71488256342E+03 -0.25436078481E+03  0.25289319727E+04  0.27212246540E+04  0.65864270000E+03 0. -1.
    8880022    1    1    2    0    0  0.71488256342E+03  0.25436078481E+03  0.23511400219E+02  0.77440359457E+03  0.15294330000E+03 0.  0.
<mgrwt>
<rscale>  0 0.94133110E+03</rscale>
<asrwt>0</asrwt>
<pdfrwt beam="1">  1        2 0.46523628E+00 0.10047720E+04</pdfrwt>
<pdfrwt beam="2">  1       -2 0.72552682E-01 0.10047720E+04</pdfrwt>
<totfact> 0.29523670E+00</totfact>
</mgrwt>
</event>
<event>
 4    5  0.1905771E-007  0.6634744E+03  0.7818608E-02  0.1020849E+00
         -2   -1    0    0    0  501 -0.00000000000E+00  0.00000000000E+00  0.70471889036E+03  0.70471889036E+03  0.25500000000E-02 0.  1.
          2   -1    0    0  501    0  0.00000000000E+00 -0.00000000000E+00 -0.31263312468E+04  0.31263312468E+04  0.25500000000E-02 0. -1.
    8880023    1    1    2    0    0  0.35380761605E+01  0.79847012415E+02 -0.30798827852E+04  0.31505358655E+04  0.65864270000E+03 0. -1.
    8880022    1    1    2    0    0 -0.35380761605E+01 -0.79847012415E+02  0.65827042879E+03  0.68051427157E+03  0.15294330000E+03 0.  0.
<mgrwt>
<rscale>  0 0.47381433E+03</rscale>
<asrwt>0</asrwt>
<pdfrwt beam="1">  1        2 0.48097403E+00 0.66347439E+03</pdfrwt>
<pdfrwt beam="2">  1       -2 0.10841829E+00 0.66347439E+03</pdfrwt>
<totfact> 0.10792305E+00</totfact>
</mgrwt>
</event>
<event>
 4    5  0.1905771E-007  0.1254453E+04  0.7818608E-02  0.9105926E-01
          2   -1    0    0  501    0  0.00000000000E+00  0.00000000000E+00  0.30711062458E+04  0.30711062458E+04  0.25500000000E-02 0. -1.
         -2   -1    0    0    0  501 -0.00000000000E+00 -0.00000000000E+00 -0.72298225433E+03  0.72298225433E+03  0.25500000000E-02 0.  1.
    8880023    1    1    2    0    0  0.97249539865E+03  0.44056115479E+03  0.24066522047E+04  0.27139687677E+04  0.65864270000E+03 0. -1.
    8880022    1    1    2    0    0 -0.97249539865E+03 -0.44056115479E+03 -0.58528213265E+02  0.10801197324E+04  0.15294330000E+03 0.  0.
<mgrwt>
<rscale>  0 0.12079503E+04</rscale>
<asrwt>0</asrwt>
<pdfrwt beam="1">  1        2 0.47247786E+00 0.12544527E+04</pdfrwt>
<pdfrwt beam="2">  1       -2 0.11122804E+00 0.12544527E+04</pdfrwt>
<totfact> 0.98712258E-01</totfact>
</mgrwt>
</event>
<event>
 4    5  0.1905771E-007  0.6986018E+03  0.7818608E-02  0.1000305E+00
         -2   -1    0    0    0  501 -0.00000000000E+00  0.00000000000E+00  0.10199777669E+04  0.10199777669E+04  0.25500000000E-02 0.  1.
          2   -1    0    0  501    0  0.00000000000E+00 -0.00000000000E+00 -0.89230112963E+03  0.89230112964E+03  0.25500000000E-02 0. -1.
    8880023    1    1    2    0    0 -0.21791719653E+03  0.82136311989E+02 -0.73003908395E+03  0.10104462126E+04  0.65864270000E+03 0. -1.
    8880022    1    1    2    0    0  0.21791719653E+03 -0.82136311989E+02  0.85771572118E+03  0.90183268385E+03  0.15294330000E+03 0.  0.
<mgrwt>
<rscale>  0 0.55516635E+03</rscale>
<asrwt>0</asrwt>
<pdfrwt beam="1">  1        2 0.13727710E+00 0.69860181E+03</pdfrwt>
<pdfrwt beam="2">  1       -2 0.15691966E+00 0.69860181E+03</pdfrwt>
<totfact> 0.80721372E+00</totfact>
</mgrwt>
</event>
<event>
 4    5  0.1905771E-007  0.1183157E+04  0.7818608E-02  0.9173671E-01
         -2   -1    0    0    0  501 -0.00000000000E+00  0.00000000000E+00  0.47959829263E+03  0.47959829263E+03  0.25500000000E-02 0.  1.
          2   -1    0    0  501    0  0.00000000000E+00 -0.00000000000E+00 -0.32662233972E+04  0.32662233972E+04  0.25500000000E-02 0. -1.
    8880023    1    1    2    0    0  0.97922591724E+03  0.84659379702E+02 -0.24052655270E+04  0.26805154484E+04  0.65864270000E+03 0.  0.
    8880022    1    1    2    0    0 -0.97922591724E+03 -0.84659379702E+02 -0.38135957756E+03  0.10653062414E+04  0.15294330000E+03 0.  0.
<mgrwt>
<rscale>  0 0.11329367E+04</rscale>
<asrwt>0</asrwt>
<pdfrwt beam="1">  1        2 0.50249589E+00 0.11831571E+04</pdfrwt>
<pdfrwt beam="2">  1       -2 0.73784355E-01 0.11831571E+04</pdfrwt>
<totfact> 0.19453315E+00</totfact>
</mgrwt>
</event>
<event>
 4    5  0.1905771E-007  0.7355243E+03  0.7818608E-02  0.9873182E-01
          2   -1    0    0  501    0  0.00000000000E+00  0.00000000000E+00  0.14724787745E+04  0.14724787745E+04  0.25500000000E-02 0. -1.
         -2   -1    0    0    0  501 -0.00000000000E+00 -0.00000000000E+00 -0.20623803008E+03  0.20623803010E+03  0.25500000000E-02 0.  1.
    8880023    1    1    2    0    0  0.10382998162E+03 -0.31049165588E+03  0.92411964915E+03  0.11810982456E+04  0.65864270000E+03 0.  0.
    8880022    1    1    2    0    0 -0.10382998162E+03  0.31049165588E+03  0.34212109525E+03  0.49761855903E+03  0.15294330000E+03 0.  1.
<mgrwt>
<rscale>  0 0.61578804E+03</rscale>
<asrwt>0</asrwt>
<pdfrwt beam="1">  1        2 0.22653520E+00 0.73552426E+03</pdfrwt>
<pdfrwt beam="2">  1       -2 0.31728927E-01 0.73552426E+03</pdfrwt>
<totfact> 0.12362337E+02</totfact>
</mgrwt>
</event>
<event>
 4    5  0.1905771E-007  0.7882967E+03  0.7818608E-02  0.9736697E-01
          2   -1    0    0  501    0  0.00000000000E+00  0.00000000000E+00  0.12899262550E+04  0.12899262550E+04  0.25500000000E-02 0. -1.
         -2   -1    0    0    0  501 -0.00000000000E+00 -0.00000000000E+00 -0.42262760555E+03  0.42262760556E+03  0.25500000000E-02 0.  1.
    8880023    1    1    2    0    0  0.40402854282E+03 -0.15608446638E+03  0.96182249710E+03  0.12435892193E+04  0.65864270000E+03 0.  0.
    8880022    1    1    2    0    0 -0.40402854282E+03  0.15608446638E+03 -0.94523847607E+02  0.46896464135E+03  0.15294330000E+03 0.  0.
<mgrwt>
<rscale>  0 0.68873284E+03</rscale>
<asrwt>0</asrwt>
<pdfrwt beam="1">  1        2 0.19845019E+00 0.78829666E+03</pdfrwt>
<pdfrwt beam="2">  1       -2 0.65019632E-01 0.78829666E+03</pdfrwt>
<totfact> 0.37131922E+01</totfact>
</mgrwt>
</event>
<event>
 4    5  0.1905771E-007  0.6978004E+03  0.7818608E-02  0.1000645E+00
          2   -1    0    0  501    0  0.00000000000E+00  0.00000000000E+00  0.71852126859E+03  0.71852126860E+03  0.25500000000E-02 0. -1.
         -2   -1    0    0    0  501 -0.00000000000E+00 -0.00000000000E+00 -0.90256855066E+03  0.90256855066E+03  0.25500000000E-02 0.  1.
    8880023    1    1    2    0    0 -0.13042057220E+03 -0.19001489934E+03  0.51634046037E+03  0.86806270793E+03  0.65864270000E+03 0. -1.
    8880022    1    1    2    0    0  0.13042057220E+03  0.19001489934E+03 -0.70038774243E+03  0.75302711133E+03  0.15294330000E+03 0.  0.
<mgrwt>
<rscale>  0 0.55368269E+03</rscale>
<asrwt>0</asrwt>
<pdfrwt beam="1">  1        2 0.11054173E+00 0.69780040E+03</pdfrwt>
<pdfrwt beam="2">  1       -2 0.13885670E+00 0.69780040E+03</pdfrwt>
<totfact> 0.14835581E+01</totfact>
</mgrwt>
</event>
<event>
 4    5  0.1905771E-007  0.6987695E+03  0.7818608E-02  0.1000234E+00
          2   -1    0    0  501    0  0.00000000000E+00  0.00000000000E+00  0.11770453717E+04  0.11770453717E+04  0.25500000000E-02 0. -1.
         -2   -1    0    0    0  501 -0.00000000000E+00 -0.00000000000E+00 -0.15651187789E+04  0.15651187789E+04  0.25500000000E-02 0.  1.
    8880023    1    1    2    0    0  0.40548829580E+02  0.22983561182E+03  0.10588186130E+04  0.12686117127E+04  0.65864270000E+03 0. -1.
    8880022    1    1    2    0    0 -0.40548829580E+02 -0.22983561182E+03 -0.14468920202E+04  0.14735524379E+04  0.15294330000E+03 0.  0.
<mgrwt>
<rscale>  0 0.55547555E+03</rscale>
<asrwt>0</asrwt>
<pdfrwt beam="1">  1        2 0.18108390E+00 0.69876951E+03</pdfrwt>
<pdfrwt beam="2">  1       -2 0.24078750E+00 0.69876951E+03</pdfrwt>
<totfact> 0.14956175E+00</totfact>
</mgrwt>
</event>
<event>
 4    5  0.1905771E-007  0.7141066E+03  0.7818608E-02  0.9943056E-01
         -2   -1    0    0    0  501 -0.00000000000E+00  0.00000000000E+00  0.59522824496E+03  0.59522824497E+03  0.25500000000E-02 0.  1.
          2   -1    0    0  501    0  0.00000000000E+00 -0.00000000000E+00 -0.55750761428E+03  0.55750761429E+03  0.25500000000E-02 0. -1.
    8880023    1    1    2    0    0 -0.19295219223E+03 -0.19724996642E+03 -0.21798731363E+03  0.74663697531E+03  0.65864270000E+03 0. -1.
    8880022    1    1    2    0    0  0.19295219223E+03  0.19724996642E+03  0.25570794431E+03  0.40609888394E+03  0.15294330000E+03 0.  0.
<mgrwt>
<rscale>  0 0.58219225E+03</rscale>
<asrwt>0</asrwt>
<pdfrwt beam="1">  1        2 0.85770402E-01 0.71410665E+03</pdfrwt>
<pdfrwt beam="2">  1       -2 0.91573576E-01 0.71410665E+03</pdfrwt>
<totfact> 0.55791744E+01</totfact>
</mgrwt>
</event>
<event>
 4    5  0.1905771E-007  0.1154818E+04  0.7818608E-02  0.9202345E-01
          2   -1    0    0  501    0  0.00000000000E+00  0.00000000000E+00  0.25572510387E+04  0.25572510387E+04  0.25500000000E-02 0. -1.
         -2   -1    0    0    0  501 -0.00000000000E+00 -0.00000000000E+00 -0.78076029308E+03  0.78076029308E+03  0.25500000000E-02 0.  1.
    8880023    1    1    2    0    0  0.62096831656E+03  0.71707248753E+03  0.20378132743E+04  0.23422825939E+04  0.65864270000E+03 0.  0.
    8880022    1    1    2    0    0 -0.62096831656E+03 -0.71707248753E+03 -0.26132252863E+03  0.99572873792E+03  0.15294330000E+03 0.  0.
<mgrwt>
<rscale>  0 0.11029259E+04</rscale>
<asrwt>0</asrwt>
<pdfrwt beam="1">  1        2 0.39342324E+00 0.11548181E+04</pdfrwt>
<pdfrwt beam="2">  1       -2 0.12011697E+00 0.11548181E+04</pdfrwt>
<totfact> 0.16855686E+00</totfact>
</mgrwt>
</event>
<event>
 4    5  0.1905771E-007  0.7318706E+03  0.7818608E-02  0.9884293E-01
          2   -1    0    0  501    0  0.00000000000E+00  0.00000000000E+00  0.19729393091E+04  0.19729393091E+04  0.25500000000E-02 0. -1.
         -2   -1    0    0    0  501 -0.00000000000E+00 -0.00000000000E+00 -0.46150627908E+03  0.46150627909E+03  0.25500000000E-02 0.  1.
    8880023    1    1    2    0    0  0.12410350177E+03  0.29397739804E+03  0.18220836938E+04  0.19635741858E+04  0.65864270000E+03 0. -1.
    8880022    1    1    2    0    0 -0.12410350177E+03 -0.29397739804E+03 -0.31065066374E+03  0.47087140241E+03  0.15294330000E+03 0.  0.
<mgrwt>
<rscale>  0 0.61028575E+03</rscale>
<asrwt>0</asrwt>
<pdfrwt beam="1">  1        2 0.30352912E+00 0.73187061E+03</pdfrwt>
<pdfrwt beam="2">  1       -2 0.71000967E-01 0.73187061E+03</pdfrwt>
<totfact> 0.12927371E+01</totfact>
</mgrwt>
</event>
<event>
 4    5  0.1905771E-007  0.7204969E+03  0.7818608E-02  0.9920908E-01
         -2   -1    0    0    0  501 -0.00000000000E+00  0.00000000000E+00  0.18221896941E+04  0.18221896941E+04  0.25500000000E-02 0.  1.
          2   -1    0    0  501    0  0.00000000000E+00 -0.00000000000E+00 -0.39139612403E+03  0.39139612404E+03  0.25500000000E-02 0. -1.
    8880023    1    1    2    0    0 -0.64502590620E+02 -0.28485967333E+03 -0.24995897479E+02  0.72093038418E+03  0.65864270000E+03 0. -1.
    8880022    1    1    2    0    0  0.64502590620E+02  0.28485967333E+03  0.14557894675E+04  0.14926554339E+04  0.15294330000E+03 0.  0.
<mgrwt>
<rscale>  0 0.59258606E+03</rscale>
<asrwt>0</asrwt>
<pdfrwt beam="1">  1        2 0.60214788E-01 0.72049693E+03</pdfrwt>
<pdfrwt beam="2">  1       -2 0.28033688E+00 0.72049693E+03</pdfrwt>
<totfact> 0.35519072E+00</totfact>
</mgrwt>
</event>
<event>
 4    5  0.1905771E-007  0.6708409E+03  0.7818608E-02  0.1015067E+00
         -2   -1    0    0    0  501 -0.00000000000E+00  0.00000000000E+00  0.86382625146E+03  0.86382625147E+03  0.25500000000E-02 0.  1.
          2   -1    0    0  501    0  0.00000000000E+00 -0.00000000000E+00 -0.13545265519E+04  0.13545265519E+04  0.25500000000E-02 0. -1.
    8880023    1    1    2    0    0 -0.12262430096E+03 -0.34360032608E+02 -0.12579852566E+04  0.14256768368E+04  0.65864270000E+03 0. -1.
    8880022    1    1    2    0    0  0.12262430096E+03  0.34360032608E+02  0.76728495613E+03  0.79267596655E+03  0.15294330000E+03 0.  0.
<mgrwt>
<rscale>  0 0.49509538E+03</rscale>
<asrwt>0</asrwt>
<pdfrwt beam="1">  1        2 0.20838870E+00 0.67084092E+03</pdfrwt>
<pdfrwt beam="2">  1       -2 0.13289635E+00 0.67084092E+03</pdfrwt>
<totfact> 0.65322927E+00</totfact>
</mgrwt>
</event>
<event>
 4    5  0.1905771E-007  0.1242306E+04  0.7818608E-02  0.9117056E-01
         -2   -1    0    0    0  501 -0.00000000000E+00  0.00000000000E+00  0.20630467379E+04  0.20630467379E+04  0.25500000000E-02 0.  1.
          2   -1    0    0  501    0  0.00000000000E+00 -0.00000000000E+00 -0.85219795709E+03  0.85219795710E+03  0.25500000000E-02 0. -1.
    8880023    1    1    2    0    0 -0.29946329668E+03 -0.10098688586E+04 -0.76746314168E+02  0.12446740861E+04  0.65864270000E+03 0.  0.
    8880022    1    1    2    0    0  0.29946329668E+03  0.10098688586E+04  0.12875950950E+04  0.16705706089E+04  0.15294330000E+03 0.  0.
<mgrwt>
<rscale>  0 0.11952137E+04</rscale>
<asrwt>0</asrwt>
<pdfrwt beam="1">  1        2 0.13110738E+00 0.12423058E+04</pdfrwt>
<pdfrwt beam="2">  1       -2 0.31739180E+00 0.12423058E+04</pdfrwt>
<totfact> 0.76759626E-01</totfact>
</mgrwt>
</event>
<event>
 4    5  0.1905771E-007  0.8926304E+03  0.7818608E-02  0.9537967E-01
          2   -1    0    0  501    0  0.00000000000E+00  0.00000000000E+00  0.26293545468E+04  0.26293545468E+04  0.25500000000E-02 0. -1.
         -2   -1    0    0    0  501 -0.00000000000E+00 -0.00000000000E+00 -0.31357639138E+03  0.31357639139E+03  0.25500000000E-02 0.  1.
    8880023    1    1    2    0    0 -0.26197482918E+03 -0.54253842448E+03  0.21052296114E+04  0.22866527231E+04  0.65864270000E+03 0. -1.
    8880022    1    1    2    0    0  0.26197482918E+03  0.54253842448E+03  0.21054854401E+03  0.65627821505E+03  0.15294330000E+03 0.  0.
<mgrwt>
<rscale>  0 0.81541599E+03</rscale>
<asrwt>0</asrwt>
<pdfrwt beam="1">  1        2 0.40451606E+00 0.89263036E+03</pdfrwt>
<pdfrwt beam="2">  1       -2 0.48242525E-01 0.89263036E+03</pdfrwt>
<totfact> 0.12248211E+01</totfact>
</mgrwt>
</event>
<event>
 4    5  0.1905771E-007  0.7227344E+03  0.7818608E-02  0.9913440E-01
          2   -1    0    0  501    0  0.00000000000E+00  0.00000000000E+00  0.17374515459E+04  0.17374515459E+04  0.25500000000E-02 0. -1.
         -2   -1    0    0    0  501 -0.00000000000E+00 -0.00000000000E+00 -0.53116888220E+03  0.53116888221E+03  0.25500000000E-02 0.  1.
    8880023    1    1    2    0    0  0.16036213676E+03 -0.25063681618E+03  0.15977860039E+04  0.17536433928E+04  0.65864270000E+03 0.  0.
    8880022    1    1    2    0    0 -0.16036213676E+03  0.25063681618E+03 -0.39150334019E+03  0.51497703534E+03  0.15294330000E+03 0.  0.
<mgrwt>
<rscale>  0 0.59614329E+03</rscale>
<asrwt>0</asrwt>
<pdfrwt beam="1">  1        2 0.26730024E+00 0.72273442E+03</pdfrwt>
<pdfrwt beam="2">  1       -2 0.81718290E-01 0.72273442E+03</pdfrwt>
<totfact> 0.12723881E+01</totfact>
</mgrwt>
</event>
<event>
 4    5  0.1905771E-007  0.1028931E+04  0.7818608E-02  0.9344649E-01
         -2   -1    0    0    0  501 -0.00000000000E+00  0.00000000000E+00  0.14131346106E+04  0.14131346106E+04  0.25500000000E-02 0.  1.
          2   -1    0    0  501    0  0.00000000000E+00 -0.00000000000E+00 -0.91059798640E+03  0.91059798641E+03  0.25500000000E-02 0. -1.
    8880023    1    1    2    0    0 -0.29241396221E+03 -0.73442693339E+03 -0.40924800355E+03  0.11073314682E+04  0.65864270000E+03 0.  0.
    8880022    1    1    2    0    0  0.29241396221E+03  0.73442693339E+03  0.91178462776E+03  0.12164011288E+04  0.15294330000E+03 0.  0.
<mgrwt>
<rscale>  0 0.96774306E+03</rscale>
<asrwt>0</asrwt>
<pdfrwt beam="1">  1        2 0.14009200E+00 0.10289310E+04</pdfrwt>
<pdfrwt beam="2">  1       -2 0.21740532E+00 0.10289310E+04</pdfrwt>
<totfact> 0.29326704E+00</totfact>
</mgrwt>
</event>
<event>
 4    5  0.1905771E-007  0.7534192E+03  0.7818608E-02  0.9822452E-01
         -2   -1    0    0    0  501 -0.00000000000E+00  0.00000000000E+00  0.61159205087E+03  0.61159205088E+03  0.25500000000E-02 0.  1.
          2   -1    0    0  501    0  0.00000000000E+00 -0.00000000000E+00 -0.71626548344E+03  0.71626548345E+03  0.25500000000E-02 0. -1.
    8880023    1    1    2    0    0 -0.29904769103E+03  0.21071500943E+03 -0.38127588933E+03  0.84440028822E+03  0.65864270000E+03 0. -1.
    8880022    1    1    2    0    0  0.29904769103E+03 -0.21071500943E+03  0.27660245676E+03  0.48345724610E+03  0.15294330000E+03 0.  0.
<mgrwt>
<rscale>  0 0.64171426E+03</rscale>
<asrwt>0</asrwt>
<pdfrwt beam="1">  1        2 0.11019469E+00 0.75341923E+03</pdfrwt>
<pdfrwt beam="2">  1       -2 0.94091084E-01 0.75341923E+03</pdfrwt>
<totfact> 0.38422117E+01</totfact>
</mgrwt>
</event>
<event>
 4    5  0.1905771E-007  0.1000182E+04  0.7818608E-02  0.9381320E-01
         -2   -1    0    0    0  501 -0.00000000000E+00  0.00000000000E+00  0.82335064012E+03  0.82335064012E+03  0.25500000000E-02 0.  1.
          2   -1    0    0  501    0  0.00000000000E+00 -0.00000000000E+00 -0.16375083643E+04  0.16375083643E+04  0.25500000000E-02 0. -1.
    8880023    1    1    2    0    0 -0.29324181318E+03  0.69322623794E+03 -0.12316818331E+04  0.15866328252E+04  0.65864270000E+03 0.  0.
    8880022    1    1    2    0    0  0.29324181318E+03 -0.69322623794E+03  0.41752410884E+03  0.87422617923E+03  0.15294330000E+03 0.  0.
<mgrwt>
<rscale>  0 0.93629056E+03</rscale>
<asrwt>0</asrwt>
<pdfrwt beam="1">  1        2 0.25192436E+00 0.10001818E+04</pdfrwt>
<pdfrwt beam="2">  1       -2 0.12666933E+00 0.10001818E+04</pdfrwt>
<totfact> 0.49014744E+00</totfact>
</mgrwt>
</event>
<event>
 4    5  0.1905771E-007  0.6867328E+03  0.7818608E-02  0.1005746E+00
         -2   -1    0    0    0  501 -0.00000000000E+00  0.00000000000E+00  0.73121499383E+03  0.73121499383E+03  0.25500000000E-02 0.  1.
          2   -1    0    0  501    0  0.00000000000E+00 -0.00000000000E+00 -0.66426068419E+03  0.66426068419E+03  0.25500000000E-02 0. -1.
    8880023    1    1    2    0    0 -0.17236267817E+03 -0.89904639468E+02 -0.45093380910E+03  0.82154929461E+03  0.65864270000E+03 0.  0.
    8880022    1    1    2    0    0  0.17236267817E+03  0.89904639468E+02  0.51788811874E+03  0.57392638341E+03  0.15294330000E+03 0.  0.
<mgrwt>
<rscale>  0 0.53201030E+03</rscale>
<asrwt>0</asrwt>
<pdfrwt beam="1">  1        2 0.10219395E+00 0.68673280E+03</pdfrwt>
<pdfrwt beam="2">  1       -2 0.11249461E+00 0.68673280E+03</pdfrwt>
<totfact> 0.27747964E+01</totfact>
</mgrwt>
</event>
<event>
 4    5  0.1905771E-007  0.1103584E+04  0.7818608E-02  0.9257076E-01
         -2   -1    0    0    0  501 -0.00000000000E+00  0.00000000000E+00  0.78335573579E+03  0.78335573580E+03  0.25500000000E-02 0.  1.
          2   -1    0    0  501    0  0.00000000000E+00 -0.00000000000E+00 -0.20957876105E+04  0.20957876105E+04  0.25500000000E-02 0. -1.
    8880023    1    1    2    0    0  0.79283730177E+03  0.39433127248E+03 -0.15928561055E+04  0.19378051808E+04  0.65864270000E+03 0.  1.
    8880022    1    1    2    0    0 -0.79283730177E+03 -0.39433127248E+03  0.28042423084E+03  0.94133816548E+03  0.15294330000E+03 0.  0.
<mgrwt>
<rscale>  0 0.10483242E+04</rscale>
<asrwt>0</asrwt>
<pdfrwt beam="1">  1        2 0.32242886E+00 0.11035843E+04</pdfrwt>
<pdfrwt beam="2">  1       -2 0.12051627E+00 0.11035843E+04</pdfrwt>
<totfact> 0.30650773E+00</totfact>
</mgrwt>
</event>
<event>
 4    5  0.1905771E-007  0.9580329E+03  0.7818608E-02  0.9438649E-01
         -2   -1    0    0    0  501 -0.00000000000E+00  0.00000000000E+00  0.77141839327E+03  0.77141839327E+03  0.25500000000E-02 0.  1.
          2   -1    0    0  501    0  0.00000000000E+00 -0.00000000000E+00 -0.21276790864E+04  0.21276790864E+04  0.25500000000E-02 0. -1.
    8880023    1    1    2    0    0  0.32158509622E+03 -0.61692775936E+03 -0.18146553152E+04  0.20520236241E+04  0.65864270000E+03 0.  0.
    8880022    1    1    2    0    0 -0.32158509622E+03  0.61692775936E+03  0.45839462206E+03  0.84707385565E+03  0.15294330000E+03 0.  0.
<mgrwt>
<rscale>  0 0.88962102E+03</rscale>
<asrwt>0</asrwt>
<pdfrwt beam="1">  1        2 0.32733524E+00 0.95803290E+03</pdfrwt>
<pdfrwt beam="2">  1       -2 0.11867975E+00 0.95803290E+03</pdfrwt>
<totfact> 0.31150386E+00</totfact>
</mgrwt>
</event>
<event>
 4    5  0.1905771E-007  0.9873693E+03  0.7818608E-02  0.9398272E-01
          2   -1    0    0  501    0  0.00000000000E+00  0.00000000000E+00  0.28921465979E+04  0.28921465979E+04  0.25500000000E-02 0. -1.
         -2   -1    0    0    0  501 -0.00000000000E+00 -0.00000000000E+00 -0.54011661691E+03  0.54011661691E+03  0.25500000000E-02 0.  1.
    8880023    1    1    2    0    0  0.35958431983E+03 -0.64170635407E+03  0.24807278344E+04  0.26700016335E+04  0.65864270000E+03 0. -1.
    8880022    1    1    2    0    0 -0.35958431983E+03  0.64170635407E+03 -0.12869785343E+03  0.76226158136E+03  0.15294330000E+03 0.  0.
<mgrwt>
<rscale>  0 0.92218010E+03</rscale>
<asrwt>0</asrwt>
<pdfrwt beam="1">  1        2 0.44494564E+00 0.98736930E+03</pdfrwt>
<pdfrwt beam="2">  1       -2 0.83094863E-01 0.98736930E+03</pdfrwt>
<totfact> 0.26296450E+00</totfact>
</mgrwt>
</event>
<event>
 4    5  0.1905771E-007  0.7201508E+03  0.7818608E-02  0.9922076E-01
          2   -1    0    0  501    0  0.00000000000E+00  0.00000000000E+00  0.10494433822E+04  0.10494433822E+04  0.25500000000E-02 0. -1.
         -2   -1    0    0    0  501 -0.00000000000E+00 -0.00000000000E+00 -0.61991244724E+03  0.61991244725E+03  0.25500000000E-02 0.  1.
    8880023    1    1    2    0    0 -0.21460713875E+03 -0.19685191367E+03  0.86377080240E+03  0.11245964188E+04  0.65864270000E+03 0. -1.
    8880022    1    1    2    0    0  0.21460713875E+03  0.19685191367E+03 -0.43423986746E+03  0.54475941059E+03  0.15294330000E+03 0.  0.
<mgrwt>
<rscale>  0 0.59203209E+03</rscale>
<asrwt>0</asrwt>
<pdfrwt beam="1">  1        2 0.16145283E+00 0.72015075E+03</pdfrwt>
<pdfrwt beam="2">  1       -2 0.95371145E-01 0.72015075E+03</pdfrwt>
<totfact> 0.22074155E+01</totfact>
</mgrwt>
</event>
<event>
 4    5  0.1905771E-007  0.7454847E+03  0.7818608E-02  0.9844249E-01
          2   -1    0    0  501    0  0.00000000000E+00  0.00000000000E+00  0.11331002201E+04  0.11331002201E+04  0.25500000000E-02 0. -1.
         -2   -1    0    0    0  501 -0.00000000000E+00 -0.00000000000E+00 -0.95963281801E+03  0.95963281802E+03  0.25500000000E-02 0.  1.
    8880023    1    1    2    0    0 -0.33951831402E+03  0.81636420502E+02  0.96190618265E+03  0.12169679130E+04  0.65864270000E+03 0.  0.
    8880022    1    1    2    0    0  0.33951831402E+03 -0.81636420502E+02 -0.78843878057E+03  0.87576512515E+03  0.15294330000E+03 0.  0.
<mgrwt>
<rscale>  0 0.63040989E+03</rscale>
<asrwt>0</asrwt>
<pdfrwt beam="1">  1        2 0.17432311E+00 0.74548467E+03</pdfrwt>
<pdfrwt beam="2">  1       -2 0.14763582E+00 0.74548467E+03</pdfrwt>
<totfact> 0.66312120E+00</totfact>
</mgrwt>
</event>
<event>
 4    5  0.1905771E-007  0.1067305E+04  0.7818608E-02  0.9298363E-01
         -2   -1    0    0    0  501 -0.00000000000E+00  0.00000000000E+00  0.11878429700E+04  0.11878429700E+04  0.25500000000E-02 0.  1.
          2   -1    0    0  501    0  0.00000000000E+00 -0.00000000000E+00 -0.26258244253E+04  0.26258244253E+04  0.25500000000E-02 0. -1.
    8880023    1    1    2    0    0  0.79080251857E+03 -0.28277229708E+03 -0.23399002990E+04  0.25718227798E+04  0.65864270000E+03 0. -1.
    8880022    1    1    2    0    0 -0.79080251857E+03  0.28277229708E+03  0.90191884374E+03  0.12418446155E+04  0.15294330000E+03 0.  0.
<mgrwt>
<rscale>  0 0.10093375E+04</rscale>
<asrwt>0</asrwt>
<pdfrwt beam="1">  1        2 0.40397299E+00 0.10673045E+04</pdfrwt>
<pdfrwt beam="2">  1       -2 0.18274507E+00 0.10673045E+04</pdfrwt>
<totfact> 0.50871838E-01</totfact>
</mgrwt>
</event>
<event>
 4    5  0.1905771E-007  0.8475001E+03  0.7818608E-02  0.9616197E-01
         -2   -1    0    0    0  501 -0.00000000000E+00  0.00000000000E+00  0.36667380626E+03  0.36667380627E+03  0.25500000000E-02 0.  1.
          2   -1    0    0  501    0  0.00000000000E+00 -0.00000000000E+00 -0.16488631210E+04  0.16488631210E+04  0.25500000000E-02 0. -1.
    8880023    1    1    2    0    0 -0.30081236210E+02  0.53248601254E+03 -0.11777157182E+04  0.14509551177E+04  0.65864270000E+03 0. -1.
    8880022    1    1    2    0    0  0.30081236210E+02 -0.53248601254E+03 -0.10447359650E+03  0.56458180957E+03  0.15294330000E+03 0.  0.
<mgrwt>
<rscale>  0 0.76233364E+03</rscale>
<asrwt>0</asrwt>
<pdfrwt beam="1">  1        2 0.25367124E+00 0.84750011E+03</pdfrwt>
<pdfrwt beam="2">  1       -2 0.56411356E-01 0.84750011E+03</pdfrwt>
<totfact> 0.31332425E+01</totfact>
</mgrwt>
</event>
<event>
 4    5  0.1905771E-007  0.1144836E+04  0.7818608E-02  0.9212705E-01
          2   -1    0    0  501    0  0.00000000000E+00  0.00000000000E+00  0.30207505963E+04  0.30207505963E+04  0.25500000000E-02 0. -1.
         -2   -1    0    0    0  501 -0.00000000000E+00 -0.00000000000E+00 -0.92860024597E+03  0.92860024597E+03  0.25500000000E-02 0.  1.
    8880023    1    1    2    0    0  0.66561811927E+03  0.65862890836E+03  0.26231309742E+04  0.28620736947E+04  0.65864270000E+03 0.  0.
    8880022    1    1    2    0    0 -0.66561811927E+03 -0.65862890836E+03 -0.53098062392E+03  0.10872771476E+04  0.15294330000E+03 0.  0.
<mgrwt>
<rscale>  0 0.10923247E+04</rscale>
<asrwt>0</asrwt>
<pdfrwt beam="1">  1        2 0.46473085E+00 0.11448361E+04</pdfrwt>
<pdfrwt beam="2">  1       -2 0.14286158E+00 0.11448361E+04</pdfrwt>
<totfact> 0.57214108E-01</totfact>
</mgrwt>
</event>
<event>
 4    5  0.1905771E-007  0.1050584E+04  0.7818608E-02  0.9318179E-01
         -2   -1    0    0    0  501 -0.00000000000E+00  0.00000000000E+00  0.13385308757E+04  0.13385308757E+04  0.25500000000E-02 0.  1.
          2   -1    0    0  501    0  0.00000000000E+00 -0.00000000000E+00 -0.81135434725E+03  0.81135434726E+03  0.25500000000E-02 0. -1.
    8880023    1    1    2    0    0 -0.27485231748E+03  0.77095594467E+03 -0.16956400065E+03  0.10641799761E+04  0.65864270000E+03 0.  0.
    8880022    1    1    2    0    0  0.27485231748E+03 -0.77095594467E+03  0.69674052908E+03  0.10857052468E+04  0.15294330000E+03 0.  0.
<mgrwt>
<rscale>  0 0.99126313E+03</rscale>
<asrwt>0</asrwt>
<pdfrwt beam="1">  1        2 0.12482375E+00 0.10505842E+04</pdfrwt>
<pdfrwt beam="2">  1       -2 0.20592783E+00 0.10505842E+04</pdfrwt>
<totfact> 0.40637762E+00</totfact>
</mgrwt>
</event>
<event>
 4    5  0.1905771E-007  0.1177713E+04  0.7818608E-02  0.9179098E-01
         -2   -1    0    0    0  501 -0.00000000000E+00  0.00000000000E+00  0.23891874084E+04  0.23891874084E+04  0.25500000000E-02 0.  1.
          2   -1    0    0  501    0  0.00000000000E+00 -0.00000000000E+00 -0.60641128284E+03  0.60641128284E+03  0.25500000000E-02 0. -1.
    8880023    1    1    2    0    0  0.97310200625E+03  0.79178061608E+02  0.30280136864E+03  0.12160162643E+04  0.65864270000E+03 0. -1.
    8880022    1    1    2    0    0 -0.97310200625E+03 -0.79178061608E+02  0.14799747569E+04  0.17795824269E+04  0.15294330000E+03 0.  0.
<mgrwt>
<rscale>  0 0.11271804E+04</rscale>
<asrwt>0</asrwt>
<pdfrwt beam="1">  1        2 0.93294044E-01 0.11777126E+04</pdfrwt>
<pdfrwt beam="2">  1       -2 0.36756729E+00 0.11777126E+04</pdfrwt>
<totfact> 0.58478512E-01</totfact>
</mgrwt>
</event>
<event>
 4    5  0.1905771E-007  0.1449367E+04  0.7818608E-02  0.8946243E-01
         -2   -1    0    0    0  501 -0.00000000000E+00  0.00000000000E+00  0.11920753762E+04  0.11920753762E+04  0.25500000000E-02 0.  1.
          2   -1    0    0  501    0  0.00000000000E+00 -0.00000000000E+00 -0.22397964086E+04  0.22397964086E+04  0.25500000000E-02 0. -1.
    8880023    1    1    2    0    0 -0.67216677401E+03  0.11022911954E+04 -0.14705497203E+04  0.20647471365E+04  0.65864270000E+03 0. -1.
    8880022    1    1    2    0    0  0.67216677401E+03 -0.11022911954E+04  0.42282868799E+03  0.13671246483E+04  0.15294330000E+03 0.  0.
<mgrwt>
<rscale>  0 0.14105142E+04</rscale>
<asrwt>0</asrwt>
<pdfrwt beam="1">  1        2 0.34458406E+00 0.14493668E+04</pdfrwt>
<pdfrwt beam="2">  1       -2 0.18339621E+00 0.14493668E+04</pdfrwt>
<totfact> 0.79668539E-01</totfact>
</mgrwt>
</event>
<event>
 4    5  0.1905771E-007  0.7174535E+03  0.7818608E-02  0.9931298E-01
          2   -1    0    0  501    0  0.00000000000E+00  0.00000000000E+00  0.75561271387E+03  0.75561271387E+03  0.25500000000E-02 0. -1.
         -2   -1    0    0    0  501 -0.00000000000E+00 -0.00000000000E+00 -0.10306816037E+04  0.10306816037E+04  0.25500000000E-02 0.  1.
    8880023    1    1    2    0    0  0.27786622365E+03 -0.60989270138E+02  0.54755964331E+03  0.90253038650E+03  0.65864270000E+03 0. -1.
    8880022    1    1    2    0    0 -0.27786622365E+03  0.60989270138E+02 -0.82262853311E+03  0.88376393104E+03  0.15294330000E+03 0.  0.
<mgrwt>
<rscale>  0 0.58768118E+03</rscale>
<asrwt>0</asrwt>
<pdfrwt beam="1">  1        2 0.11624811E+00 0.71745351E+03</pdfrwt>
<pdfrwt beam="2">  1       -2 0.15856640E+00 0.71745351E+03</pdfrwt>
<totfact> 0.97805958E+00</totfact>
</mgrwt>
</event>
<event>
 4    5  0.1905771E-007  0.1103262E+04  0.7818608E-02  0.9257433E-01
         -2   -1    0    0    0  501 -0.00000000000E+00  0.00000000000E+00  0.63042692145E+03  0.63042692145E+03  0.25500000000E-02 0.  1.
          2   -1    0    0  501    0  0.00000000000E+00 -0.00000000000E+00 -0.26943091111E+04  0.26943091111E+04  0.25500000000E-02 0. -1.
    8880023    1    1    2    0    0 -0.62652483767E+03 -0.62517428610E+03 -0.32616899423E+02  0.11037437785E+04  0.65864270000E+03 0.  0.
    8880022    1    1    2    0    0  0.62652483767E+03  0.62517428610E+03 -0.20312652902E+04  0.22209922540E+04  0.15294330000E+03 0.  0.
<mgrwt>
<rscale>  0 0.10479788E+04</rscale>
<asrwt>0</asrwt>
<pdfrwt beam="1">  1        2 0.41450909E+00 0.11032617E+04</pdfrwt>
<pdfrwt beam="2">  1       -2 0.96988759E-01 0.11032617E+04</pdfrwt>
<totfact> 0.23721912E+00</totfact>
</mgrwt>
</event>
<event>
 4    5  0.1905771E-007  0.6779742E+03  0.7818608E-02  0.1010494E+00
          2   -1    0    0  501    0  0.00000000000E+00  0.00000000000E+00  0.23923073359E+04  0.23923073359E+04  0.25500000000E-02 0. -1.
         -2   -1    0    0    0  501 -0.00000000000E+00 -0.00000000000E+00 -0.17628333606E+03  0.17628333608E+03  0.25500000000E-02 0.  1.
    8880023    1    1    2    0    0 -0.11645107245E+03 -0.11080623198E+03  0.22447134031E+04  0.23448640348E+04  0.65864270000E+03 0. -1.
    8880022    1    1    2    0    0  0.11645107245E+03  0.11080623198E+03 -0.28689403240E+02  0.22372663720E+03  0.15294330000E+03 0.  0.
<mgrwt>
<rscale>  0 0.51278960E+03</rscale>
<asrwt>0</asrwt>
<pdfrwt beam="1">  1        2 0.36804727E+00 0.67797425E+03</pdfrwt>
<pdfrwt beam="2">  1       -2 0.27120514E-01 0.67797425E+03</pdfrwt>
<totfact> 0.52018482E+01</totfact>
</mgrwt>
</event>
<event>
 4    5  0.1905771E-007  0.1125440E+04  0.7818608E-02  0.9233247E-01
          2   -1    0    0  501    0  0.00000000000E+00  0.00000000000E+00  0.16182695305E+04  0.16182695305E+04  0.25500000000E-02 0. -1.
         -2   -1    0    0    0  501 -0.00000000000E+00 -0.00000000000E+00 -0.12268576556E+04  0.12268576556E+04  0.25500000000E-02 0.  1.
    8880023    1    1    2    0    0  0.23844768939E+03 -0.88087869237E+03  0.11790674629E+04  0.16299738831E+04  0.65864270000E+03 0.  0.
    8880022    1    1    2    0    0 -0.23844768939E+03  0.88087869237E+03 -0.78765558801E+03  0.12151533029E+04  0.15294330000E+03 0.  0.
<mgrwt>
<rscale>  0 0.10716757E+04</rscale>
<asrwt>0</asrwt>
<pdfrwt beam="1">  1        2 0.24896454E+00 0.11254398E+04</pdfrwt>
<pdfrwt beam="2">  1       -2 0.18874733E+00 0.11254398E+04</pdfrwt>
<totfact> 0.16843534E+00</totfact>
</mgrwt>
</event>
<event>
 4    5  0.1905771E-007  0.6792959E+03  0.7818608E-02  0.1009725E+00
          2   -1    0    0  501    0  0.00000000000E+00  0.00000000000E+00  0.19404453365E+04  0.19404453365E+04  0.25500000000E-02 0. -1.
         -2   -1    0    0    0  501 -0.00000000000E+00 -0.00000000000E+00 -0.12397035804E+04  0.12397035804E+04  0.25500000000E-02 0.  1.
    8880023    1    1    2    0    0 -0.25789523633E+02  0.16421800850E+03  0.18698506507E+04  0.19894180848E+04  0.65864270000E+03 0. -1.
    8880022    1    1    2    0    0  0.25789523633E+02 -0.16421800850E+03 -0.11691088947E+04  0.11907308321E+04  0.15294330000E+03 0.  0.
<mgrwt>
<rscale>  0 0.51584160E+03</rscale>
<asrwt>0</asrwt>
<pdfrwt beam="1">  1        2 0.29853005E+00 0.67929586E+03</pdfrwt>
<pdfrwt beam="2">  1       -2 0.19072363E+00 0.67929586E+03</pdfrwt>
<totfact> 0.11676607E+00</totfact>
</mgrwt>
</event>
<event>
 4    5  0.1905771E-007  0.1864370E+04  0.7818608E-02  0.8687741E-01
         -2   -1    0    0    0  501 -0.00000000000E+00  0.00000000000E+00  0.10378388281E+04  0.10378388281E+04  0.25500000000E-02 0.  1.
          2   -1    0    0  501    0  0.00000000000E+00 -0.00000000000E+00 -0.32016883000E+04  0.32016883000E+04  0.25500000000E-02 0. -1.
    8880023    1    1    2    0    0 -0.10866282111E+04 -0.13642966467E+04 -0.84177910720E+03  0.20455973409E+04  0.65864270000E+03 0. -1.
    8880022    1    1    2    0    0  0.10866282111E+04  0.13642966467E+04 -0.13220703647E+04  0.21939297873E+04  0.15294330000E+03 0.  0.
<mgrwt>
<rscale>  0 0.18353168E+04</rscale>
<asrwt>0</asrwt>
<pdfrwt beam="1">  1        2 0.49256742E+00 0.18643702E+04</pdfrwt>
<pdfrwt beam="2">  1       -2 0.15966751E+00 0.18643702E+04</pdfrwt>
<totfact> 0.29880305E-01</totfact>
</mgrwt>
</event>
<event>
 4    5  0.1905771E-007  0.6870828E+03  0.7818608E-02  0.1005571E+00
          2   -1    0    0  501    0  0.00000000000E+00  0.00000000000E+00  0.16532909310E+04  0.16532909310E+04  0.25500000000E-02 0. -1.
         -2   -1    0    0    0  501 -0.00000000000E+00 -0.00000000000E+00 -0.36625214375E+03  0.36625214376E+03  0.25500000000E-02 0.  1.
    8880023    1    1    2    0    0 -0.66049755588E+02 -0.18414665266E+03  0.15268536573E+04  0.16743251945E+04  0.65864270000E+03 0. -1.
    8880022    1    1    2    0    0  0.66049755588E+02  0.18414665266E+03 -0.23981487008E+03  0.34521788022E+03  0.15294330000E+03 0.  0.
<mgrwt>
<rscale>  0 0.53273466E+03</rscale>
<asrwt>0</asrwt>
<pdfrwt beam="1">  1        2 0.25435245E+00 0.68708279E+03</pdfrwt>
<pdfrwt beam="2">  1       -2 0.56346483E-01 0.68708279E+03</pdfrwt>
<totfact> 0.31820241E+01</totfact>
</mgrwt>
</event>
<event>
 4    5  0.1905771E-007  0.7899768E+03  0.7818608E-02  0.9732903E-01
          2   -1    0    0  501    0  0.00000000000E+00  0.00000000000E+00  0.87260932685E+03  0.87260932686E+03  0.25500000000E-02 0. -1.
         -2   -1    0    0    0  501 -0.00000000000E+00 -0.00000000000E+00 -0.11472033321E+04  0.11472033321E+04  0.25500000000E-02 0.  1.
    8880023    1    1    2    0    0  0.12362333359E+03  0.41829457339E+03  0.62573044101E+03  0.10077707427E+04  0.65864270000E+03 0. -1.
    8880022    1    1    2    0    0 -0.12362333359E+03 -0.41829457339E+03 -0.90032444623E+03  0.10120419162E+04  0.15294330000E+03 0.  0.
<mgrwt>
<rscale>  0 0.69091124E+03</rscale>
<asrwt>0</asrwt>
<pdfrwt beam="1">  1        2 0.13424759E+00 0.78997676E+03</pdfrwt>
<pdfrwt beam="2">  1       -2 0.17649282E+00 0.78997676E+03</pdfrwt>
<totfact> 0.59557728E+00</totfact>
</mgrwt>
</event>
<event>
 4    5  0.1905771E-007  0.7113082E+03  0.7818608E-02  0.9953175E-01
          2   -1    0    0  501    0  0.00000000000E+00  0.00000000000E+00  0.16954266090E+04  0.16954266090E+04  0.25500000000E-02 0. -1.
         -2   -1    0    0    0  501 -0.00000000000E+00 -0.00000000000E+00 -0.38040477408E+03  0.38040477409E+03  0.25500000000E-02 0.  1.
    8880023    1    1    2    0    0 -0.19134444387E+03  0.18851102511E+03  0.15381205148E+04  0.16946309413E+04  0.65864270000E+03 0. -1.
    8880022    1    1    2    0    0  0.19134444387E+03 -0.18851102511E+03 -0.22309867995E+03  0.38120044176E+03  0.15294330000E+03 0.  0.
<mgrwt>
<rscale>  0 0.57751987E+03</rscale>
<asrwt>0</asrwt>
<pdfrwt beam="1">  1        2 0.26083486E+00 0.71130817E+03</pdfrwt>
<pdfrwt beam="2">  1       -2 0.58523811E-01 0.71130817E+03</pdfrwt>
<totfact> 0.27788134E+01</totfact>
</mgrwt>
</event>
<event>
 4    5  0.1905771E-007  0.9894301E+03  0.7818608E-02  0.9395519E-01
         -2   -1    0    0    0  501 -0.00000000000E+00  0.00000000000E+00  0.38118575085E+03  0.38118575086E+03  0.25500000000E-02 0.  1.
          2   -1    0    0  501    0  0.00000000000E+00 -0.00000000000E+00 -0.23323789392E+04  0.23323789392E+04  0.25500000000E-02 0. -1.
    8880023    1    1    2    0    0 -0.33841737201E+03 -0.65622818151E+03 -0.16012816108E+04  0.18823056998E+04  0.65864270000E+03 0.  1.
    8880022    1    1    2    0    0  0.33841737201E+03  0.65622818151E+03 -0.34991157754E+03  0.83125899032E+03  0.15294330000E+03 0.  0.
<mgrwt>
<rscale>  0 0.92445388E+03</rscale>
<asrwt>0</asrwt>
<pdfrwt beam="1">  1        2 0.35882752E+00 0.98943011E+03</pdfrwt>
<pdfrwt beam="2">  1       -2 0.58643963E-01 0.98943011E+03</pdfrwt>
<totfact> 0.11929758E+01</totfact>
</mgrwt>
</event>
<event>
 4    5  0.3010865E-007  0.8546930E+03  0.7818608E-02  0.9603074E-01
          2   -1    0    0  501    0  0.00000000000E+00  0.00000000000E+00  0.26797991634E+04  0.26797991634E+04  0.25500000000E-02 0. -1.
         -2   -1    0    0    0  501 -0.00000000000E+00 -0.00000000000E+00 -0.17945960183E+04  0.17945960183E+04  0.25500000000E-02 0.  1.
    8880023    1    1    2    0    0 -0.14344815977E+03 -0.52546418392E+03  0.25640680841E+04  0.27027662365E+04  0.65864270000E+03 0. -1.
    8880022    1    1    2    0    0  0.14344815977E+03  0.52546418392E+03 -0.16788649390E+04  0.17716289452E+04  0.15294330000E+03 0.  0.
<mgrwt>
<rscale>  0 0.77093049E+03</rscale>
<asrwt>0</asrwt>
<pdfrwt beam="1">  1        2 0.41227679E+00 0.85469304E+03</pdfrwt>
<pdfrwt beam="2">  1       -2 0.27609170E+00 0.85469304E+03</pdfrwt>
<totfact> 0.12777224E-01</totfact>
</mgrwt>
</event>
<event>
 4    5  0.1905771E-007  0.1642619E+04  0.7818608E-02  0.8814985E-01
          2   -1    0    0  501    0  0.00000000000E+00  0.00000000000E+00  0.10463691045E+04  0.10463691045E+04  0.25500000000E-02 0. -1.
         -2   -1    0    0    0  501 -0.00000000000E+00 -0.00000000000E+00 -0.24718057331E+04  0.24718057332E+04  0.25500000000E-02 0.  1.
    8880023    1    1    2    0    0  0.14443152992E+04 -0.42230393445E+03 -0.39944757784E+03  0.16904898315E+04  0.65864270000E+03 0. -1.
    8880022    1    1    2    0    0 -0.14443152992E+04  0.42230393445E+03 -0.10259890508E+04  0.18276850062E+04  0.15294330000E+03 0.  0.
<mgrwt>
<rscale>  0 0.16090866E+04</rscale>
<asrwt>0</asrwt>
<pdfrwt beam="1">  1        2 0.16097986E+00 0.16426191E+04</pdfrwt>
<pdfrwt beam="2">  1       -2 0.38027780E+00 0.16426191E+04</pdfrwt>
<totfact> 0.21939054E-01</totfact>
</mgrwt>
</event>
<event>
 4    5  0.1905771E-007  0.6629174E+03  0.7818608E-02  0.1021348E+00
         -2   -1    0    0    0  501 -0.00000000000E+00  0.00000000000E+00  0.15051387908E+03  0.15051387910E+03  0.25500000000E-02 0.  1.
          2   -1    0    0  501    0  0.00000000000E+00 -0.00000000000E+00 -0.11534670415E+04  0.11534670415E+04  0.25500000000E-02 0. -1.
    8880023    1    1    2    0    0  0.74300548826E+02 -0.11344212942E+02 -0.79984974909E+03  0.10388547012E+04  0.65864270000E+03 0. -1.
    8880022    1    1    2    0    0 -0.74300548826E+02  0.11344212942E+02 -0.20310341334E+03  0.26512621946E+03  0.15294330000E+03 0.  1.
<mgrwt>
<rscale>  0 0.47203136E+03</rscale>
<asrwt>0</asrwt>
<pdfrwt beam="1">  1        2 0.17745646E+00 0.66291739E+03</pdfrwt>
<pdfrwt beam="2">  1       -2 0.23155982E-01 0.66291739E+03</pdfrwt>
<totfact> 0.33697297E+02</totfact>
</mgrwt>
</event>
<event>
 4    5  0.1905771E-007  0.1053153E+04  0.7818608E-02  0.9315100E-01
         -2   -1    0    0    0  501 -0.00000000000E+00  0.00000000000E+00  0.11184700337E+04  0.11184700337E+04  0.25500000000E-02 0.  1.
          2   -1    0    0  501    0  0.00000000000E+00 -0.00000000000E+00 -0.10678352506E+04  0.10678352506E+04  0.25500000000E-02 0. -1.
    8880023    1    1    2    0    0 -0.70391312189E+03 -0.42406096213E+03 -0.51967730224E+03  0.11743917947E+04  0.65864270000E+03 0. -1.
    8880022    1    1    2    0    0  0.70391312189E+03  0.42406096213E+03  0.57031208531E+03  0.10119134896E+04  0.15294330000E+03 0.  1.
<mgrwt>
<rscale>  0 0.99404492E+03</rscale>
<asrwt>0</asrwt>
<pdfrwt beam="1">  1        2 0.16428235E+00 0.10531532E+04</pdfrwt>
<pdfrwt beam="2">  1       -2 0.17207231E+00 0.10531532E+04</pdfrwt>
<totfact> 0.46336116E+00</totfact>
</mgrwt>
</event>
<event>
 4    5  0.1905771E-007  0.1650250E+04  0.7818608E-02  0.8810235E-01
          2   -1    0    0  501    0  0.00000000000E+00  0.00000000000E+00  0.33702114975E+04  0.33702114975E+04  0.25500000000E-02 0. -1.
         -2   -1    0    0    0  501 -0.00000000000E+00 -0.00000000000E+00 -0.12501422460E+04  0.12501422460E+04  0.25500000000E-02 0.  1.
    8880023    1    1    2    0    0  0.15017088581E+04 -0.18543315431E+03  0.25522683443E+04  0.30393089440E+04  0.65864270000E+03 0.  0.
    8880022    1    1    2    0    0 -0.15017088581E+04  0.18543315431E+03 -0.43219909285E+03  0.15810447995E+04  0.15294330000E+03 0.  0.
<mgrwt>
<rscale>  0 0.16168960E+04</rscale>
<asrwt>0</asrwt>
<pdfrwt beam="1">  1        2 0.51849407E+00 0.16502500E+04</pdfrwt>
<pdfrwt beam="2">  1       -2 0.19232958E+00 0.16502500E+04</pdfrwt>
<totfact> 0.13880885E-01</totfact>
</mgrwt>
</event>
<event>
 4    5  0.1905771E-007  0.8845221E+03  0.7818608E-02  0.9551350E-01
          2   -1    0    0  501    0  0.00000000000E+00  0.00000000000E+00  0.14167332575E+04  0.14167332575E+04  0.25500000000E-02 0. -1.
         -2   -1    0    0    0  501 -0.00000000000E+00 -0.00000000000E+00 -0.96878148595E+03  0.96878148596E+03  0.25500000000E-02 0.  1.
    8880023    1    1    2    0    0 -0.31860628079E+03 -0.49705047772E+03  0.11530547484E+04  0.14532427872E+04  0.65864270000E+03 0. -1.
    8880022    1    1    2    0    0  0.31860628079E+03  0.49705047772E+03 -0.70510297681E+03  0.93227195628E+03  0.15294330000E+03 0.  0.
<mgrwt>
<rscale>  0 0.80601600E+03</rscale>
<asrwt>0</asrwt>
<pdfrwt beam="1">  1        2 0.21795896E+00 0.88452210E+03</pdfrwt>
<pdfrwt beam="2">  1       -2 0.14904331E+00 0.88452210E+03</pdfrwt>
<totfact> 0.43394904E+00</totfact>
</mgrwt>
</event>
<event>
 4    5  0.1905771E-007  0.7346932E+03  0.7818608E-02  0.9875684E-01
         -2   -1    0    0    0  501 -0.00000000000E+00  0.00000000000E+00  0.22338414452E+04  0.22338414452E+04  0.25500000000E-02 0.  1.
          2   -1    0    0  501    0  0.00000000000E+00 -0.00000000000E+00 -0.14342006070E+03  0.14342006072E+03  0.25500000000E-02 0. -1.
    8880023    1    1    2    0    0  0.23168740552E+03 -0.22865889721E+03  0.16669133559E+04  0.18216405484E+04  0.65864270000E+03 0.  1.
    8880022    1    1    2    0    0 -0.23168740552E+03  0.22865889721E+03  0.42350802855E+03  0.55562095750E+03  0.15294330000E+03 0. -1.
<mgrwt>
<rscale>  0 0.61454358E+03</rscale>
<asrwt>0</asrwt>
<pdfrwt beam="1">  1        2 0.22064625E-01 0.73469324E+03</pdfrwt>
<pdfrwt beam="2">  1       -2 0.34366791E+00 0.73469324E+03</pdfrwt>
<totfact> 0.45425028E+00</totfact>
</mgrwt>
</event>
<event>
 4    5  0.1905771E-007  0.9553511E+03  0.7818608E-02  0.9442456E-01
         -2   -1    0    0    0  501 -0.00000000000E+00  0.00000000000E+00  0.42275398818E+03  0.42275398819E+03  0.25500000000E-02 0.  1.
          2   -1    0    0  501    0  0.00000000000E+00 -0.00000000000E+00 -0.18848802697E+04  0.18848802698E+04  0.25500000000E-02 0. -1.
    8880023    1    1    2    0    0 -0.21448382456E+03  0.65793779370E+03 -0.12391529830E+04  0.15646711389E+04  0.65864270000E+03 0.  0.
    8880022    1    1    2    0    0  0.21448382456E+03 -0.65793779370E+03 -0.22297329861E+03  0.74296311906E+03  0.15294330000E+03 0.  0.
<mgrwt>
<rscale>  0 0.88662540E+03</rscale>
<asrwt>0</asrwt>
<pdfrwt beam="1">  1        2 0.28998157E+00 0.95535107E+03</pdfrwt>
<pdfrwt beam="2">  1       -2 0.65039076E-01 0.95535107E+03</pdfrwt>
<totfact> 0.16990141E+01</totfact>
</mgrwt>
</event>
<event>
 4    5  0.1905771E-007  0.8873863E+03  0.7818608E-02  0.9546592E-01
         -2   -1    0    0    0  501 -0.00000000000E+00  0.00000000000E+00  0.49446943433E+03  0.49446943433E+03  0.25500000000E-02 0.  1.
          2   -1    0    0  501    0  0.00000000000E+00 -0.00000000000E+00 -0.18398443289E+04  0.18398443289E+04  0.25500000000E-02 0. -1.
    8880023    1    1    2    0    0 -0.15005918164E+03 -0.57543583559E+03 -0.14611068989E+04  0.17094700158E+04  0.65864270000E+03 0.  0.
    8880022    1    1    2    0    0  0.15005918164E+03  0.57543583559E+03  0.11573200426E+03  0.62484374743E+03  0.15294330000E+03 0.  0.
<mgrwt>
<rscale>  0 0.80934250E+03</rscale>
<asrwt>0</asrwt>
<pdfrwt beam="1">  1        2 0.28305297E+00 0.88738625E+03</pdfrwt>
<pdfrwt beam="2">  1       -2 0.76072222E-01 0.88738625E+03</pdfrwt>
<totfact> 0.12854358E+01</totfact>
</mgrwt>
</event>
<event>
 4    5  0.1905771E-007  0.9732170E+03  0.7818608E-02  0.9417469E-01
         -2   -1    0    0    0  501 -0.00000000000E+00  0.00000000000E+00  0.10045614670E+04  0.10045614670E+04  0.25500000000E-02 0.  1.
          2   -1    0    0  501    0  0.00000000000E+00 -0.00000000000E+00 -0.13498440357E+04  0.13498440357E+04  0.25500000000E-02 0. -1.
    8880023    1    1    2    0    0 -0.69600122689E+03  0.17006869548E+03 -0.98288132280E+03  0.13831872505E+04  0.65864270000E+03 0. -1.
    8880022    1    1    2    0    0  0.69600122689E+03 -0.17006869548E+03  0.63759875412E+03  0.97121825214E+03  0.15294330000E+03 0.  0.
<mgrwt>
<rscale>  0 0.90651922E+03</rscale>
<asrwt>0</asrwt>
<pdfrwt beam="1">  1        2 0.20766831E+00 0.97321697E+03</pdfrwt>
<pdfrwt beam="2">  1       -2 0.15454792E+00 0.97321697E+03</pdfrwt>
<totfact> 0.42566270E+00</totfact>
</mgrwt>
</event>
<event>
 4    5  0.1905771E-007  0.8514620E+03  0.7818608E-02  0.9608935E-01
          2   -1    0    0  501    0  0.00000000000E+00  0.00000000000E+00  0.35536067252E+04  0.35536067252E+04  0.25500000000E-02 0. -1.
         -2   -1    0    0    0  501 -0.00000000000E+00 -0.00000000000E+00 -0.27978857027E+03  0.27978857029E+03  0.25500000000E-02 0.  1.
    8880023    1    1    2    0    0 -0.23241821463E+03 -0.48698981753E+03  0.31446023273E+04  0.32578384417E+04  0.65864270000E+03 0.  0.
    8880022    1    1    2    0    0  0.23241821463E+03  0.48698981753E+03  0.12921582764E+03  0.57555685384E+03  0.15294330000E+03 0.  0.
<mgrwt>
<rscale>  0 0.76707606E+03</rscale>
<asrwt>0</asrwt>
<pdfrwt beam="1">  1        2 0.54670875E+00 0.85146199E+03</pdfrwt>
<pdfrwt beam="2">  1       -2 0.43044393E-01 0.85146199E+03</pdfrwt>
<totfact> 0.40620704E+00</totfact>
</mgrwt>
</event>
<event>
 4    5  0.1905771E-007  0.6964612E+03  0.7818608E-02  0.1001221E+00
         -2   -1    0    0    0  501 -0.00000000000E+00  0.00000000000E+00  0.17095834348E+04  0.17095834348E+04  0.25500000000E-02 0.  1.
          2   -1    0    0  501    0  0.00000000000E+00 -0.00000000000E+00 -0.20715747753E+04  0.20715747753E+04  0.25500000000E-02 0. -1.
    8880023    1    1    2    0    0  0.16266564342E+03 -0.15744167969E+03 -0.20014121522E+04  0.21191292559E+04  0.65864270000E+03 0. -1.
    8880022    1    1    2    0    0 -0.16266564342E+03  0.15744167969E+03  0.16394208116E+04  0.16620289542E+04  0.15294330000E+03 0.  0.
<mgrwt>
<rscale>  0 0.55118056E+03</rscale>
<asrwt>0</asrwt>
<pdfrwt beam="1">  1        2 0.31870381E+00 0.69646120E+03</pdfrwt>
<pdfrwt beam="2">  1       -2 0.26301284E+00 0.69646120E+03</pdfrwt>
<totfact> 0.34975087E-01</totfact>
</mgrwt>
</event>
<event>
 4    5  0.1905771E-007  0.8623031E+03  0.7818608E-02  0.9589480E-01
          2   -1    0    0  501    0  0.00000000000E+00  0.00000000000E+00  0.20669224559E+04  0.20669224559E+04  0.25500000000E-02 0. -1.
         -2   -1    0    0    0  501 -0.00000000000E+00 -0.00000000000E+00 -0.58066489976E+03  0.58066489977E+03  0.25500000000E-02 0.  1.
    8880023    1    1    2    0    0 -0.52933112168E+03 -0.17194492546E+03  0.17961877722E+04  0.19924500528E+04  0.65864270000E+03 0. -1.
    8880022    1    1    2    0    0  0.52933112168E+03  0.17194492546E+03 -0.30993021604E+03  0.65513730286E+03  0.15294330000E+03 0.  0.
<mgrwt>
<rscale>  0 0.77996416E+03</rscale>
<asrwt>0</asrwt>
<pdfrwt beam="1">  1        2 0.31798807E+00 0.86230314E+03</pdfrwt>
<pdfrwt beam="2">  1       -2 0.89333061E-01 0.86230314E+03</pdfrwt>
<totfact> 0.67246259E+00</totfact>
</mgrwt>
</event>
<event>
 4    5  0.1905771E-007  0.9017674E+03  0.7818608E-02  0.9523200E-01
          2   -1    0    0  501    0  0.00000000000E+00  0.00000000000E+00  0.41217002247E+04  0.41217002247E+04  0.25500000000E-02 0. -1.
         -2   -1    0    0    0  501 -0.00000000000E+00 -0.00000000000E+00 -0.15713854614E+03  0.15713854617E+03  0.25500000000E-02 0.  1.
    8880023    1    1    2    0    0 -0.46906899469E+03  0.39918492257E+03  0.29251586954E+04  0.30610027645E+04  0.65864270000E+03 0. -1.
    8880022    1    1    2    0    0  0.46906899469E+03 -0.39918492257E+03  0.10394029831E+04  0.12178360064E+04  0.15294330000E+03 0.  0.
<mgrwt>
<rscale>  0 0.82594763E+03</rscale>
<asrwt>0</asrwt>
<pdfrwt beam="1">  1        2 0.63410779E+00 0.90176745E+03</pdfrwt>
<pdfrwt beam="2">  1       -2 0.24175158E-01 0.90176745E+03</pdfrwt>
<totfact> 0.44514410E+00</totfact>
</mgrwt>
</event>
<event>
 4    5  0.1905771E-007  0.8763533E+03  0.7818608E-02  0.9565111E-01
         -2   -1    0    0    0  501 -0.00000000000E+00  0.00000000000E+00  0.34598844132E+03  0.34598844133E+03  0.25500000000E-02 0.  1.
          2   -1    0    0  501    0  0.00000000000E+00 -0.00000000000E+00 -0.19639812936E+04  0.19639812937E+04  0.25500000000E-02 0. -1.
    8880023    1    1    2    0    0  0.22294416822E+03  0.53336736309E+03 -0.14406342655E+04  0.16862449820E+04  0.65864270000E+03 0.  0.
    8880022    1    1    2    0    0 -0.22294416822E+03 -0.53336736309E+03 -0.17735858687E+03  0.62372475300E+03  0.15294330000E+03 0.  0.
<mgrwt>
<rscale>  0 0.79649037E+03</rscale>
<asrwt>0</asrwt>
<pdfrwt beam="1">  1        2 0.30215096E+00 0.87635327E+03</pdfrwt>
<pdfrwt beam="2">  1       -2 0.53228992E-01 0.87635327E+03</pdfrwt>
<totfact> 0.23669687E+01</totfact>
</mgrwt>
</event>
<event>
 4    5  0.1905771E-007  0.7866351E+03  0.7818608E-02  0.9740476E-01
         -2   -1    0    0    0  501 -0.00000000000E+00  0.00000000000E+00  0.94834733802E+03  0.94834733802E+03  0.25500000000E-02 0.  1.
          2   -1    0    0  501    0  0.00000000000E+00 -0.00000000000E+00 -0.21241085448E+04  0.21241085448E+04  0.25500000000E-02 0. -1.
    8880023    1    1    2    0    0  0.40318445459E+03 -0.14975589336E+03 -0.19895302783E+04  0.21393983889E+04  0.65864270000E+03 0. -1.
    8880022    1    1    2    0    0 -0.40318445459E+03  0.14975589336E+03  0.81376907155E+03  0.93305749386E+03  0.15294330000E+03 0.  0.
<mgrwt>
<rscale>  0 0.68657185E+03</rscale>
<asrwt>0</asrwt>
<pdfrwt beam="1">  1        2 0.32678593E+00 0.78663507E+03</pdfrwt>
<pdfrwt beam="2">  1       -2 0.14589959E+00 0.78663507E+03</pdfrwt>
<totfact> 0.18987846E+00</totfact>
</mgrwt>
</event>
<event>
 4    5  0.1905771E-007  0.1064997E+04  0.7818608E-02  0.9301066E-01
         -2   -1    0    0    0  501 -0.00000000000E+00  0.00000000000E+00  0.96741430628E+03  0.96741430628E+03  0.25500000000E-02 0.  1.
          2   -1    0    0  501    0  0.00000000000E+00 -0.00000000000E+00 -0.16144543215E+04  0.16144543215E+04  0.25500000000E-02 0. -1.
    8880023    1    1    2    0    0  0.54312426913E+03  0.63672967570E+03 -0.11708713286E+04  0.15827692586E+04  0.65864270000E+03 0. -1.
    8880022    1    1    2    0    0 -0.54312426913E+03 -0.63672967570E+03  0.52383131336E+03  0.99909936918E+03  0.15294330000E+03 0.  0.
<mgrwt>
<rscale>  0 0.10068474E+04</rscale>
<asrwt>0</asrwt>
<pdfrwt beam="1">  1        2 0.24837759E+00 0.10649971E+04</pdfrwt>
<pdfrwt beam="2">  1       -2 0.14883297E+00 0.10649971E+04</pdfrwt>
<totfact> 0.33016568E+00</totfact>
</mgrwt>
</event>
<event>
 4    5  0.2119622E-007  0.6766339E+03  0.7818608E-02  0.1011296E+00
          2   -1    0    0  501    0  0.00000000000E+00  0.00000000000E+00  0.22017678222E+04  0.22017678222E+04  0.25500000000E-02 0. -1.
         -2   -1    0    0    0  501 -0.00000000000E+00 -0.00000000000E+00 -0.60263181489E+03  0.60263181490E+03  0.25500000000E-02 0.  1.
    8880023    1    1    2    0    0  0.12081629400E+03 -0.97090815167E+02  0.21277223238E+04  0.22327193502E+04  0.65864270000E+03 0. -1.
    8880022    1    1    2    0    0 -0.12081629400E+03  0.97090815167E+02 -0.52858631656E+03  0.57168028683E+03  0.15294330000E+03 0.  0.
<mgrwt>
<rscale>  0 0.50962956E+03</rscale>
<asrwt>0</asrwt>
<pdfrwt beam="1">  1        2 0.33873351E+00 0.67663388E+03</pdfrwt>
<pdfrwt beam="2">  1       -2 0.92712587E-01 0.67663388E+03</pdfrwt>
<totfact> 0.53623602E+00</totfact>
</mgrwt>
</event>
<event>
 4    5  0.1905771E-007  0.8956321E+03  0.7818608E-02  0.9533080E-01
         -2   -1    0    0    0  501 -0.00000000000E+00  0.00000000000E+00  0.30307877134E+03  0.30307877135E+03  0.25500000000E-02 0.  1.
          2   -1    0    0  501    0  0.00000000000E+00 -0.00000000000E+00 -0.38286353716E+04  0.38286353716E+04  0.25500000000E-02 0. -1.
    8880023    1    1    2    0    0  0.15258775148E+03  0.58742113666E+03 -0.33697229552E+04  0.34867161649E+04  0.65864270000E+03 0.  0.
    8880022    1    1    2    0    0 -0.15258775148E+03 -0.58742113666E+03 -0.15583364504E+03  0.64499797801E+03  0.15294330000E+03 0.  0.
<mgrwt>
<rscale>  0 0.81888276E+03</rscale>
<asrwt>0</asrwt>
<pdfrwt beam="1">  1        2 0.58902079E+00 0.89563208E+03</pdfrwt>
<pdfrwt beam="2">  1       -2 0.46627506E-01 0.89563208E+03</pdfrwt>
<totfact> 0.21750909E+00</totfact>
</mgrwt>
</event>
<event>
 4    5  0.1905771E-007  0.1313133E+04  0.7818608E-02  0.9054301E-01
         -2   -1    0    0    0  501 -0.00000000000E+00  0.00000000000E+00  0.21936543423E+04  0.21936543423E+04  0.25500000000E-02 0.  1.
          2   -1    0    0  501    0  0.00000000000E+00 -0.00000000000E+00 -0.10127816092E+04  0.10127816092E+04  0.25500000000E-02 0. -1.
    8880023    1    1    2    0    0 -0.88680052678E+03  0.70999538920E+03  0.15223097834E+04  0.20104093886E+04  0.65864270000E+03 0.  0.
    8880022    1    1    2    0    0  0.88680052678E+03 -0.70999538920E+03 -0.34143705030E+03  0.11960265630E+04  0.15294330000E+03 0.  0.
<mgrwt>
<rscale>  0 0.12692638E+04</rscale>
<asrwt>0</asrwt>
<pdfrwt beam="1">  1        2 0.15581256E+00 0.13131332E+04</pdfrwt>
<pdfrwt beam="2">  1       -2 0.33748528E+00 0.13131332E+04</pdfrwt>
<totfact> 0.44612354E-01</totfact>
</mgrwt>
</event>
<event>
 4    5  0.1905771E-007  0.6931112E+03  0.7818608E-02  0.1002708E+00
         -2   -1    0    0    0  501 -0.00000000000E+00  0.00000000000E+00  0.25590626240E+04  0.25590626240E+04  0.25500000000E-02 0.  1.
          2   -1    0    0  501    0  0.00000000000E+00 -0.00000000000E+00 -0.15197302229E+04  0.15197302229E+04  0.25500000000E-02 0. -1.
    8880023    1    1    2    0    0 -0.21531802110E+03  0.15201698380E+02 -0.14332780493E+04  0.15920707003E+04  0.65864270000E+03 0. -1.
    8880022    1    1    2    0    0  0.21531802110E+03 -0.15201698380E+02  0.24726104504E+04  0.24867221466E+04  0.15294330000E+03 0.  0.
<mgrwt>
<rscale>  0 0.54478796E+03</rscale>
<asrwt>0</asrwt>
<pdfrwt beam="1">  1        2 0.23380465E+00 0.69311121E+03</pdfrwt>
<pdfrwt beam="2">  1       -2 0.39370194E+00 0.69311121E+03</pdfrwt>
<totfact> 0.11041950E-01</totfact>
</mgrwt>
</event>
<event>
 4    5  0.1905771E-007  0.1092932E+04  0.7818608E-02  0.9268966E-01
          2   -1    0    0  501    0  0.00000000000E+00  0.00000000000E+00  0.27172201957E+04  0.27172201957E+04  0.25500000000E-02 0. -1.
         -2   -1    0    0    0  501 -0.00000000000E+00 -0.00000000000E+00 -0.44204123472E+03  0.44204123472E+03  0.25500000000E-02 0.  1.
    8880023    1    1    2    0    0  0.55520154873E+03 -0.67263824519E+03  0.55781004189E+03  0.12270506174E+04  0.65864270000E+03 0.  1.
    8880022    1    1    2    0    0 -0.55520154873E+03  0.67263824519E+03  0.17173689191E+04  0.19322108130E+04  0.15294330000E+03 0.  0.
<mgrwt>
<rscale>  0 0.10369079E+04</rscale>
<asrwt>0</asrwt>
<pdfrwt beam="1">  1        2 0.41803388E+00 0.10929324E+04</pdfrwt>
<pdfrwt beam="2">  1       -2 0.68006344E-01 0.10929324E+04</pdfrwt>
<totfact> 0.51522425E+00</totfact>
</mgrwt>
</event>
<event>
 4    5  0.1905771E-007  0.9030770E+03  0.7818608E-02  0.9521110E-01
          2   -1    0    0  501    0  0.00000000000E+00  0.00000000000E+00  0.18132633407E+04  0.18132633407E+04  0.25500000000E-02 0. -1.
         -2   -1    0    0    0  501 -0.00000000000E+00 -0.00000000000E+00 -0.58647658544E+03  0.58647658545E+03  0.25500000000E-02 0.  1.
    8880023    1    1    2    0    0 -0.60598223724E+03  0.12051336070E+03 -0.11913671858E+03  0.91090158960E+03  0.65864270000E+03 0.  0.
    8880022    1    1    2    0    0  0.60598223724E+03 -0.12051336070E+03  0.13459234739E+04  0.14888383366E+04  0.15294330000E+03 0.  0.
<mgrwt>
<rscale>  0 0.82745207E+03</rscale>
<asrwt>0</asrwt>
<pdfrwt beam="1">  1        2 0.27896358E+00 0.90307704E+03</pdfrwt>
<pdfrwt beam="2">  1       -2 0.90227169E-01 0.90307704E+03</pdfrwt>
<totfact> 0.90050072E+00</totfact>
</mgrwt>
</event>
<event>
 4    5  0.1905771E-007  0.1244464E+04  0.7818608E-02  0.9115067E-01
          2   -1    0    0  501    0  0.00000000000E+00  0.00000000000E+00  0.19632025871E+04  0.19632025871E+04  0.25500000000E-02 0. -1.
         -2   -1    0    0    0  501 -0.00000000000E+00 -0.00000000000E+00 -0.15623661137E+04  0.15623661137E+04  0.25500000000E-02 0.  1.
    8880023    1    1    2    0    0 -0.92276390608E+03 -0.51321243421E+03  0.15299268083E+04  0.19721476805E+04  0.65864270000E+03 0.  0.
    8880022    1    1    2    0    0  0.92276390608E+03  0.51321243421E+03 -0.11290903349E+04  0.15534210203E+04  0.15294330000E+03 0.  0.
<mgrwt>
<rscale>  0 0.11974778E+04</rscale>
<asrwt>0</asrwt>
<pdfrwt beam="1">  1        2 0.30203117E+00 0.12444639E+04</pdfrwt>
<pdfrwt beam="2">  1       -2 0.24036402E+00 0.12444639E+04</pdfrwt>
<totfact> 0.49880544E-01</totfact>
</mgrwt>
</event>
<event>
 4    5  0.1905771E-007  0.1166397E+04  0.7818608E-02  0.9190500E-01
          2   -1    0    0  501    0  0.00000000000E+00  0.00000000000E+00  0.24405197659E+04  0.24405197659E+04  0.25500000000E-02 0. -1.
         -2   -1    0    0    0  501 -0.00000000000E+00 -0.00000000000E+00 -0.62667207484E+03  0.62667207484E+03  0.25500000000E-02 0.  1.
    8880023    1    1    2    0    0  0.83439411755E+03  0.48006011292E+03  0.17332261492E+04  0.20891515852E+04  0.65864270000E+03 0.  0.
    8880022    1    1    2    0    0 -0.83439411755E+03 -0.48006011292E+03  0.80621541862E+02  0.97804025554E+03  0.15294330000E+03 0.  0.
<mgrwt>
<rscale>  0 0.11152026E+04</rscale>
<asrwt>0</asrwt>
<pdfrwt beam="1">  1        2 0.37546459E+00 0.11663968E+04</pdfrwt>
<pdfrwt beam="2">  1       -2 0.96411087E-01 0.11663968E+04</pdfrwt>
<totfact> 0.33483285E+00</totfact>
</mgrwt>
</event>
<event>
 4    5  0.1905771E-007  0.1284174E+04  0.7818608E-02  0.9079349E-01
          2   -1    0    0  501    0  0.00000000000E+00  0.00000000000E+00  0.56108665288E+04  0.56108665288E+04  0.25500000000E-02 0. -1.
         -2   -1    0    0    0  501 -0.00000000000E+00 -0.00000000000E+00 -0.35459597761E+03  0.35459597762E+03  0.25500000000E-02 0.  1.
    8880023    1    1    2    0    0  0.14821841471E+03  0.10923931417E+04  0.43333243386E+04  0.45196019188E+04  0.65864270000E+03 0.  0.
    8880022    1    1    2    0    0 -0.14821841471E+03 -0.10923931417E+04  0.92294621258E+03  0.14458605876E+04  0.15294330000E+03 0.  0.
<mgrwt>
<rscale>  0 0.12390471E+04</rscale>
<asrwt>0</asrwt>
<pdfrwt beam="1">  1        2 0.86321021E+00 0.12841735E+04</pdfrwt>
<pdfrwt beam="2">  1       -2 0.54553229E-01 0.12841735E+04</pdfrwt>
<totfact> 0.12437679E-02</totfact>
</mgrwt>
</event>
<event>
 4    5  0.1905771E-007  0.7126442E+03  0.7818608E-02  0.9948310E-01
         -2   -1    0    0    0  501 -0.00000000000E+00  0.00000000000E+00  0.28663011773E+03  0.28663011774E+03  0.25500000000E-02 0.  1.
          2   -1    0    0  501    0  0.00000000000E+00 -0.00000000000E+00 -0.10932540295E+04  0.10932540296E+04  0.25500000000E-02 0. -1.
    8880023    1    1    2    0    0 -0.16755387403E+03 -0.21442307009E+03 -0.79479359330E+03  0.10675011082E+04  0.65864270000E+03 0. -1.
    8880022    1    1    2    0    0  0.16755387403E+03  0.21442307009E+03 -0.11830318511E+02  0.31238303914E+03  0.15294330000E+03 0.  0.
<mgrwt>
<rscale>  0 0.57976035E+03</rscale>
<asrwt>0</asrwt>
<pdfrwt beam="1">  1        2 0.16819293E+00 0.71264420E+03</pdfrwt>
<pdfrwt beam="2">  1       -2 0.44096942E-01 0.71264420E+03</pdfrwt>
<totfact> 0.10907261E+02</totfact>
</mgrwt>
</event>
<event>
 4    5  0.1905771E-007  0.6879659E+03  0.7818608E-02  0.1005135E+00
          2   -1    0    0  501    0  0.00000000000E+00  0.00000000000E+00  0.11748678679E+04  0.11748678679E+04  0.25500000000E-02 0. -1.
         -2   -1    0    0    0  501 -0.00000000000E+00 -0.00000000000E+00 -0.51592252862E+03  0.51592252862E+03  0.25500000000E-02 0.  1.
    8880023    1    1    2    0    0  0.26642426708E+02 -0.19691875592E+03  0.10326027391E+04  0.12407922624E+04  0.65864270000E+03 0. -1.
    8880022    1    1    2    0    0 -0.26642426708E+02  0.19691875592E+03 -0.37365739978E+03  0.44999813417E+03  0.15294330000E+03 0.  0.
<mgrwt>
<rscale>  0 0.53454948E+03</rscale>
<asrwt>0</asrwt>
<pdfrwt beam="1">  1        2 0.18074890E+00 0.68796586E+03</pdfrwt>
<pdfrwt beam="2">  1       -2 0.79372697E-01 0.68796586E+03</pdfrwt>
<totfact> 0.28290864E+01</totfact>
</mgrwt>
</event>
<event>
 4    5  0.1905771E-007  0.6863227E+03  0.7818608E-02  0.1005952E+00
         -2   -1    0    0    0  501 -0.00000000000E+00  0.00000000000E+00  0.41481000336E+03  0.41481000337E+03  0.25500000000E-02 0.  1.
          2   -1    0    0  501    0  0.00000000000E+00 -0.00000000000E+00 -0.20026683780E+04  0.20026683780E+04  0.25500000000E-02 0. -1.
    8880023    1    1    2    0    0  0.11898384572E+03 -0.15189285811E+03 -0.18998620282E+04  0.20200283484E+04  0.65864270000E+03 0. -1.
    8880022    1    1    2    0    0 -0.11898384572E+03  0.15189285811E+03  0.31200365353E+03  0.39745003299E+03  0.15294330000E+03 0.  0.
<mgrwt>
<rscale>  0 0.53115769E+03</rscale>
<asrwt>0</asrwt>
<pdfrwt beam="1">  1        2 0.30810282E+00 0.68632267E+03</pdfrwt>
<pdfrwt beam="2">  1       -2 0.63816925E-01 0.68632267E+03</pdfrwt>
<totfact> 0.15796532E+01</totfact>
</mgrwt>
</event>
<event>
 4    5  0.1905771E-007  0.1327588E+04  0.7818608E-02  0.9042094E-01
          2   -1    0    0  501    0  0.00000000000E+00  0.00000000000E+00  0.16596563145E+04  0.16596563145E+04  0.25500000000E-02 0. -1.
         -2   -1    0    0    0  501 -0.00000000000E+00 -0.00000000000E+00 -0.10233287859E+04  0.10233287859E+04  0.25500000000E-02 0.  1.
    8880023    1    1    2    0    0 -0.67172071391E+03  0.93673473904E+03  0.73244229226E+03  0.15162330318E+04  0.65864270000E+03 0. -1.
    8880022    1    1    2    0    0  0.67172071391E+03 -0.93673473904E+03 -0.96114763611E+02  0.11667520686E+04  0.15294330000E+03 0.  0.
<mgrwt>
<rscale>  0 0.12843180E+04</rscale>
<asrwt>0</asrwt>
<pdfrwt beam="1">  1        2 0.25533174E+00 0.13275884E+04</pdfrwt>
<pdfrwt beam="2">  1       -2 0.15743520E+00 0.13275884E+04</pdfrwt>
<totfact> 0.26082344E+00</totfact>
</mgrwt>
</event>
<event>
 4    5  0.1905771E-007  0.7370507E+03  0.7818608E-02  0.9868623E-01
         -2   -1    0    0    0  501 -0.00000000000E+00  0.00000000000E+00  0.17985939766E+04  0.17985939766E+04  0.25500000000E-02 0.  1.
          2   -1    0    0  501    0  0.00000000000E+00 -0.00000000000E+00 -0.16602950996E+04  0.16602950996E+04  0.25500000000E-02 0. -1.
    8880023    1    1    2    0    0 -0.50121310559E+01 -0.33076945979E+03 -0.15581781891E+04  0.17237061908E+04  0.65864270000E+03 0. -1.
    8880022    1    1    2    0    0  0.50121310559E+01  0.33076945979E+03  0.16964770661E+04  0.17351828854E+04  0.15294330000E+03 0.  0.
<mgrwt>
<rscale>  0 0.61806350E+03</rscale>
<asrwt>0</asrwt>
<pdfrwt beam="1">  1        2 0.25543002E+00 0.73705072E+03</pdfrwt>
<pdfrwt beam="2">  1       -2 0.27670677E+00 0.73705072E+03</pdfrwt>
<totfact> 0.48029334E-01</totfact>
</mgrwt>
</event>
<event>
 4    5  0.1905771E-007  0.1136086E+04  0.7818608E-02  0.9221904E-01
         -2   -1    0    0    0  501 -0.00000000000E+00  0.00000000000E+00  0.14653858890E+04  0.14653858890E+04  0.25500000000E-02 0.  1.
          2   -1    0    0  501    0  0.00000000000E+00 -0.00000000000E+00 -0.13032700772E+04  0.13032700772E+04  0.25500000000E-02 0. -1.
    8880023    1    1    2    0    0 -0.72836092013E+03  0.57128978390E+03 -0.82709934534E+03  0.14052705008E+04  0.65864270000E+03 0.  0.
    8880022    1    1    2    0    0  0.72836092013E+03 -0.57128978390E+03  0.98921515712E+03  0.13633854654E+04  0.15294330000E+03 0.  0.
<mgrwt>
<rscale>  0 0.10830179E+04</rscale>
<asrwt>0</asrwt>
<pdfrwt beam="1">  1        2 0.20050309E+00 0.11360862E+04</pdfrwt>
<pdfrwt beam="2">  1       -2 0.22544398E+00 0.11360862E+04</pdfrwt>
<totfact> 0.14698660E+00</totfact>
</mgrwt>
</event>
<event>
 4    5  0.1905771E-007  0.8412395E+03  0.7818608E-02  0.9627847E-01
          2   -1    0    0  501    0  0.00000000000E+00  0.00000000000E+00  0.21930239495E+04  0.21930239495E+04  0.25500000000E-02 0. -1.
         -2   -1    0    0    0  501 -0.00000000000E+00 -0.00000000000E+00 -0.88659836910E+03  0.88659836910E+03  0.25500000000E-02 0.  1.
    8880023    1    1    2    0    0  0.42437943272E+03 -0.30622832076E+03  0.20161705707E+04  0.21846344463E+04  0.65864270000E+03 0. -1.
    8880022    1    1    2    0    0 -0.42437943272E+03  0.30622832076E+03 -0.70974499031E+03  0.89498787234E+03  0.15294330000E+03 0.  0.
<mgrwt>
<rscale>  0 0.75480154E+03</rscale>
<asrwt>0</asrwt>
<pdfrwt beam="1">  1        2 0.33738829E+00 0.84123950E+03</pdfrwt>
<pdfrwt beam="2">  1       -2 0.13639975E+00 0.84123950E+03</pdfrwt>
<totfact> 0.20531507E+00</totfact>
</mgrwt>
</event>
<event>
 4    5  0.1905771E-007  0.7442457E+03  0.7818608E-02  0.9847748E-01
         -2   -1    0    0    0  501 -0.00000000000E+00  0.00000000000E+00  0.57892516498E+03  0.57892516498E+03  0.25500000000E-02 0.  1.
          2   -1    0    0  501    0  0.00000000000E+00 -0.00000000000E+00 -0.10809043132E+04  0.10809043132E+04  0.25500000000E-02 0. -1.
    8880023    1    1    2    0    0  0.13735752759E+03  0.31815767516E+03 -0.86089723769E+03  0.11380007279E+04  0.65864270000E+03 0. -1.
    8880022    1    1    2    0    0 -0.13735752759E+03 -0.31815767516E+03  0.35891808946E+03  0.52182875026E+03  0.15294330000E+03 0.  0.
<mgrwt>
<rscale>  0 0.62861872E+03</rscale>
<asrwt>0</asrwt>
<pdfrwt beam="1">  1        2 0.16629297E+00 0.74424566E+03</pdfrwt>
<pdfrwt beam="2">  1       -2 0.89065410E-01 0.74424566E+03</pdfrwt>
<totfact> 0.24671019E+01</totfact>
</mgrwt>
</event>
<event>
 4    5  0.1905771E-007  0.1646748E+04  0.7818608E-02  0.8812412E-01
         -2   -1    0    0    0  501 -0.00000000000E+00  0.00000000000E+00  0.18125187257E+04  0.18125187257E+04  0.25500000000E-02 0.  1.
          2   -1    0    0  501    0  0.00000000000E+00 -0.00000000000E+00 -0.34320953264E+04  0.34320953264E+04  0.25500000000E-02 0. -1.
    8880023    1    1    2    0    0  0.11435918914E+04 -0.98496942241E+03 -0.28498584395E+04  0.32914237814E+04  0.65864270000E+03 0.  0.
    8880022    1    1    2    0    0 -0.11435918914E+04  0.98496942241E+03  0.12302818388E+04  0.19531902706E+04  0.15294330000E+03 0.  0.
<mgrwt>
<rscale>  0 0.16133118E+04</rscale>
<asrwt>0</asrwt>
<pdfrwt beam="1">  1        2 0.52801466E+00 0.16467475E+04</pdfrwt>
<pdfrwt beam="2">  1       -2 0.27884904E+00 0.16467475E+04</pdfrwt>
<totfact> 0.35896409E-02</totfact>
</mgrwt>
</event>
<event>
 4    5  0.1905771E-007  0.2103614E+04  0.7818608E-02  0.8570919E-01
         -2   -1    0    0    0  501 -0.00000000000E+00  0.00000000000E+00  0.18891044998E+04  0.18891044998E+04  0.25500000000E-02 0.  1.
          2   -1    0    0  501    0  0.00000000000E+00 -0.00000000000E+00 -0.23490603064E+04  0.23490603064E+04  0.25500000000E-02 0. -1.
    8880023    1    1    2    0    0  0.30171083529E+03 -0.19749306967E+04 -0.70713574867E+03  0.22192863399E+04  0.65864270000E+03 0. -1.
    8880022    1    1    2    0    0 -0.30171083529E+03  0.19749306967E+04  0.24717994212E+03  0.20188784663E+04  0.15294330000E+03 0.  0.
<mgrwt>
<rscale>  0 0.20781750E+04</rscale>
<asrwt>0</asrwt>
<pdfrwt beam="1">  1        2 0.36139389E+00 0.21036138E+04</pdfrwt>
<pdfrwt beam="2">  1       -2 0.29063146E+00 0.21036138E+04</pdfrwt>
<totfact> 0.13565124E-01</totfact>
</mgrwt>
</event>
<event>
 4    5  0.1905771E-007  0.9149748E+03  0.7818608E-02  0.9502408E-01
         -2   -1    0    0    0  501 -0.00000000000E+00  0.00000000000E+00  0.58562754547E+03  0.58562754548E+03  0.25500000000E-02 0.  1.
          2   -1    0    0  501    0  0.00000000000E+00 -0.00000000000E+00 -0.20080469494E+04  0.20080469494E+04  0.25500000000E-02 0. -1.
    8880023    1    1    2    0    0 -0.20225773988E+03  0.60204684836E+03 -0.16625280363E+04  0.18976770744E+04  0.65864270000E+03 0. -1.
    8880022    1    1    2    0    0  0.20225773988E+03 -0.60204684836E+03  0.24010863237E+03  0.69599742048E+03  0.15294330000E+03 0.  0.
<mgrwt>
<rscale>  0 0.84106552E+03</rscale>
<asrwt>0</asrwt>
<pdfrwt beam="1">  1        2 0.30893030E+00 0.91497476E+03</pdfrwt>
<pdfrwt beam="2">  1       -2 0.90096546E-01 0.91497476E+03</pdfrwt>
<totfact> 0.70540745E+00</totfact>
</mgrwt>
</event>
<event>
 4    5  0.1905771E-007  0.6772830E+03  0.7818608E-02  0.1010904E+00
         -2   -1    0    0    0  501 -0.00000000000E+00  0.00000000000E+00  0.11880365133E+04  0.11880365133E+04  0.25500000000E-02 0.  1.
          2   -1    0    0  501    0  0.00000000000E+00 -0.00000000000E+00 -0.11224238012E+04  0.11224238012E+04  0.25500000000E-02 0. -1.
    8880023    1    1    2    0    0 -0.12416200238E+03  0.97395616422E+02 -0.10081013691E+04  0.12144878285E+04  0.65864270000E+03 0. -1.
    8880022    1    1    2    0    0  0.12416200238E+03 -0.97395616422E+02  0.10737140812E+04  0.10959724860E+04  0.15294330000E+03 0.  0.
<mgrwt>
<rscale>  0 0.51116844E+03</rscale>
<asrwt>0</asrwt>
<pdfrwt beam="1">  1        2 0.17268059E+00 0.67728304E+03</pdfrwt>
<pdfrwt beam="2">  1       -2 0.18277485E+00 0.67728304E+03</pdfrwt>
<totfact> 0.37907000E+00</totfact>
</mgrwt>
</event>
<event>
 4    5  0.1905771E-007  0.7197666E+03  0.7818608E-02  0.9923376E-01
         -2   -1    0    0    0  501 -0.00000000000E+00  0.00000000000E+00  0.21616801276E+03  0.21616801277E+03  0.25500000000E-02 0.  1.
          2   -1    0    0  501    0  0.00000000000E+00 -0.00000000000E+00 -0.17047040859E+04  0.17047040860E+04  0.25500000000E-02 0. -1.
    8880023    1    1    2    0    0 -0.12191343320E+03 -0.26342153366E+03 -0.14106418954E+04  0.15836585973E+04  0.65864270000E+03 0. -1.
    8880022    1    1    2    0    0  0.12191343320E+03  0.26342153366E+03 -0.77894177842E+02  0.33721350143E+03  0.15294330000E+03 0.  0.
<mgrwt>
<rscale>  0 0.59141623E+03</rscale>
<asrwt>0</asrwt>
<pdfrwt beam="1">  1        2 0.26226216E+00 0.71976663E+03</pdfrwt>
<pdfrwt beam="2">  1       -2 0.33256618E-01 0.71976663E+03</pdfrwt>
<totfact> 0.84385455E+01</totfact>
</mgrwt>
</event>
<event>
 4    5  0.1905771E-007  0.6910831E+03  0.7818608E-02  0.1003642E+00
          2   -1    0    0  501    0  0.00000000000E+00  0.00000000000E+00  0.30220357504E+04  0.30220357504E+04  0.25500000000E-02 0. -1.
         -2   -1    0    0    0  501 -0.00000000000E+00 -0.00000000000E+00 -0.47413369496E+03  0.47413369496E+03  0.25500000000E-02 0.  1.
    8880023    1    1    2    0    0  0.17017464073E+03  0.12176291158E+03  0.29433273590E+04  0.30233709272E+04  0.65864270000E+03 0.  0.
    8880022    1    1    2    0    0 -0.17017464073E+03 -0.12176291158E+03 -0.39542530360E+03  0.47279851811E+03  0.15294330000E+03 0.  0.
<mgrwt>
<rscale>  0 0.54081719E+03</rscale>
<asrwt>0</asrwt>
<pdfrwt beam="1">  1        2 0.46492858E+00 0.69108308E+03</pdfrwt>
<pdfrwt beam="2">  1       -2 0.72943645E-01 0.69108308E+03</pdfrwt>
<totfact> 0.30966868E+00</totfact>
</mgrwt>
</event>
<event>
 4    5  0.1905771E-007  0.8922059E+03  0.7818608E-02  0.9538661E-01
          2   -1    0    0  501    0  0.00000000000E+00  0.00000000000E+00  0.84396446071E+03  0.84396446072E+03  0.25500000000E-02 0. -1.
         -2   -1    0    0    0  501 -0.00000000000E+00 -0.00000000000E+00 -0.10516034343E+04  0.10516034343E+04  0.25500000000E-02 0.  1.
    8880023    1    1    2    0    0  0.35628846960E+03 -0.48505640370E+03 -0.67466276563E+03  0.11185710715E+04  0.65864270000E+03 0.  0.
    8880022    1    1    2    0    0 -0.35628846960E+03  0.48505640370E+03  0.46702379208E+03  0.77699682350E+03  0.15294330000E+03 0.  0.
<mgrwt>
<rscale>  0 0.81492522E+03</rscale>
<asrwt>0</asrwt>
<pdfrwt beam="1">  1        2 0.12984069E+00 0.89220591E+03</pdfrwt>
<pdfrwt beam="2">  1       -2 0.16178514E+00 0.89220591E+03</pdfrwt>
<totfact> 0.78460364E+00</totfact>
</mgrwt>
</event>
<event>
 4    5  0.1905771E-007  0.7496004E+03  0.7818608E-02  0.9832816E-01
          2   -1    0    0  501    0  0.00000000000E+00  0.00000000000E+00  0.22545622479E+04  0.22545622479E+04  0.25500000000E-02 0. -1.
         -2   -1    0    0    0  501 -0.00000000000E+00 -0.00000000000E+00 -0.56161702829E+03  0.56161702830E+03  0.25500000000E-02 0.  1.
    8880023    1    1    2    0    0 -0.10280273420E+03  0.34281496690E+03  0.21138981152E+04  0.22428700255E+04  0.65864270000E+03 0. -1.
    8880022    1    1    2    0    0  0.10280273420E+03 -0.34281496690E+03 -0.42095289554E+03  0.57330925072E+03  0.15294330000E+03 0.  0.
<mgrwt>
<rscale>  0 0.63630821E+03</rscale>
<asrwt>0</asrwt>
<pdfrwt beam="1">  1        2 0.34685574E+00 0.74960037E+03</pdfrwt>
<pdfrwt beam="2">  1       -2 0.86402618E-01 0.74960037E+03</pdfrwt>
<totfact> 0.58216643E+00</totfact>
</mgrwt>
</event>
<event>
 4    5  0.1905771E-007  0.1597239E+04  0.7818608E-02  0.8843858E-01
          2   -1    0    0  501    0  0.00000000000E+00  0.00000000000E+00  0.25749172590E+04  0.25749172590E+04  0.25500000000E-02 0. -1.
         -2   -1    0    0    0  501 -0.00000000000E+00 -0.00000000000E+00 -0.11199056377E+04  0.11199056377E+04  0.25500000000E-02 0.  1.
    8880023    1    1    2    0    0 -0.37075548897E+03 -0.14070903606E+04 -0.47052415981E+02  0.15979321174E+04  0.65864270000E+03 0.  0.
    8880022    1    1    2    0    0  0.37075548897E+03  0.14070903606E+04  0.15020640373E+04  0.20968907794E+04  0.15294330000E+03 0.  0.
<mgrwt>
<rscale>  0 0.15626018E+04</rscale>
<asrwt>0</asrwt>
<pdfrwt beam="1">  1        2 0.39614111E+00 0.15972392E+04</pdfrwt>
<pdfrwt beam="2">  1       -2 0.17229318E+00 0.15972392E+04</pdfrwt>
<totfact> 0.60294590E-01</totfact>
</mgrwt>
</event>
<event>
 4    5  0.1905771E-007  0.1064511E+04  0.7818608E-02  0.9301637E-01
         -2   -1    0    0    0  501 -0.00000000000E+00  0.00000000000E+00  0.67666609150E+03  0.67666609150E+03  0.25500000000E-02 0.  1.
          2   -1    0    0  501    0  0.00000000000E+00 -0.00000000000E+00 -0.28308299312E+04  0.28308299312E+04  0.25500000000E-02 0. -1.
    8880023    1    1    2    0    0  0.71970239732E+03  0.42591364698E+03 -0.23974986832E+04  0.26232011203E+04  0.65864270000E+03 0.  0.
    8880022    1    1    2    0    0 -0.71970239732E+03 -0.42591364698E+03  0.24333484346E+03  0.88429490242E+03  0.15294330000E+03 0.  0.
<mgrwt>
<rscale>  0 0.10063229E+04</rscale>
<asrwt>0</asrwt>
<pdfrwt beam="1">  1        2 0.43551229E+00 0.10645112E+04</pdfrwt>
<pdfrwt beam="2">  1       -2 0.10410248E+00 0.10645112E+04</pdfrwt>
<totfact> 0.16710759E+00</totfact>
</mgrwt>
</event>
<event>
 4    5  0.1905771E-007  0.1011275E+04  0.7818608E-02  0.9366952E-01
          2   -1    0    0  501    0  0.00000000000E+00  0.00000000000E+00  0.15956204868E+04  0.15956204868E+04  0.25500000000E-02 0. -1.
         -2   -1    0    0    0  501 -0.00000000000E+00 -0.00000000000E+00 -0.20637342942E+04  0.20637342942E+04  0.25500000000E-02 0.  1.
    8880023    1    1    2    0    0 -0.54190359143E+03 -0.54333077790E+03  0.13460697484E+04  0.16836216352E+04  0.65864270000E+03 0.  0.
    8880022    1    1    2    0    0  0.54190359143E+03  0.54333077790E+03 -0.18141835557E+04  0.19757331458E+04  0.15294330000E+03 0.  0.
<mgrwt>
<rscale>  0 0.94846004E+03</rscale>
<asrwt>0</asrwt>
<pdfrwt beam="1">  1        2 0.24548007E+00 0.10112755E+04</pdfrwt>
<pdfrwt beam="2">  1       -2 0.31749758E+00 0.10112755E+04</pdfrwt>
<totfact> 0.28013086E-01</totfact>
</mgrwt>
</event>
<event>
 4    5  0.1905771E-007  0.1625997E+04  0.7818608E-02  0.8825435E-01
         -2   -1    0    0    0  501 -0.00000000000E+00  0.00000000000E+00  0.16158220257E+04  0.16158220257E+04  0.25500000000E-02 0.  1.
          2   -1    0    0  501    0  0.00000000000E+00 -0.00000000000E+00 -0.21409686501E+04  0.21409686501E+04  0.25500000000E-02 0. -1.
    8880023    1    1    2    0    0  0.81480213140E+03  0.12434444450E+04 -0.12922290068E+04  0.20769503156E+04  0.65864270000E+03 0. -1.
    8880022    1    1    2    0    0 -0.81480213140E+03 -0.12434444450E+04  0.76708238246E+03  0.16798403602E+04  0.15294330000E+03 0.  0.
<mgrwt>
<rscale>  0 0.15920688E+04</rscale>
<asrwt>0</asrwt>
<pdfrwt beam="1">  1        2 0.32937979E+00 0.16259972E+04</pdfrwt>
<pdfrwt beam="2">  1       -2 0.24858801E+00 0.16259972E+04</pdfrwt>
<totfact> 0.33789369E-01</totfact>
</mgrwt>
</event>
<event>
 4    5  0.1905771E-007  0.6595614E+03  0.7818608E-02  0.1024610E+00
         -2   -1    0    0    0  501 -0.00000000000E+00  0.00000000000E+00  0.89609962186E+03  0.89609962186E+03  0.25500000000E-02 0.  1.
          2   -1    0    0  501    0  0.00000000000E+00 -0.00000000000E+00 -0.12624291634E+04  0.12624291634E+04  0.25500000000E-02 0. -1.
    8880023    1    1    2    0    0 -0.34244795413E+02 -0.61872349146E+01 -0.11681610912E+04  0.13414997313E+04  0.65864270000E+03 0. -1.
    8880022    1    1    2    0    0  0.34244795413E+02  0.61872349146E+01  0.80183154968E+03  0.81702905393E+03  0.15294330000E+03 0.  0.
<mgrwt>
<rscale>  0 0.46058959E+03</rscale>
<asrwt>0</asrwt>
<pdfrwt beam="1">  1        2 0.19421987E+00 0.65956136E+03</pdfrwt>
<pdfrwt beam="2">  1       -2 0.13786148E+00 0.65956136E+03</pdfrwt>
<totfact> 0.67296177E+00</totfact>
</mgrwt>
</event>
<event>
 4    5  0.1905771E-007  0.8301829E+03  0.7818608E-02  0.9648977E-01
          2   -1    0    0  501    0  0.00000000000E+00  0.00000000000E+00  0.21193300721E+04  0.21193300721E+04  0.25500000000E-02 0. -1.
         -2   -1    0    0    0  501 -0.00000000000E+00 -0.00000000000E+00 -0.41121698970E+03  0.41121698971E+03  0.25500000000E-02 0.  1.
    8880023    1    1    2    0    0 -0.22407292207E+03  0.45297330246E+03  0.18113625303E+04  0.19925455853E+04  0.65864270000E+03 0. -1.
    8880022    1    1    2    0    0  0.22407292207E+03 -0.45297330246E+03 -0.10324944794E+03  0.53800147645E+03  0.15294330000E+03 0.  1.
<mgrwt>
<rscale>  0 0.74137690E+03</rscale>
<asrwt>0</asrwt>
<pdfrwt beam="1">  1        2 0.32605079E+00 0.83018293E+03</pdfrwt>
<pdfrwt beam="2">  1       -2 0.63264151E-01 0.83018293E+03</pdfrwt>
<totfact> 0.13606450E+01</totfact>
</mgrwt>
</event>
<event>
 4    5  0.1905771E-007  0.6589906E+03  0.7818608E-02  0.1025215E+00
         -2   -1    0    0    0  501 -0.00000000000E+00  0.00000000000E+00  0.11110524742E+04  0.11110524742E+04  0.25500000000E-02 0.  1.
          2   -1    0    0  501    0  0.00000000000E+00 -0.00000000000E+00 -0.34796687599E+03  0.34796687600E+03  0.25500000000E-02 0. -1.
    8880023    1    1    2    0    0 -0.83122674865E+01  0.19732439886E+02 -0.21537217228E+02  0.65934249140E+03  0.65864270000E+03 0. -1.
    8880022    1    1    2    0    0  0.83122674865E+01 -0.19732439886E+02  0.78462281541E+03  0.79967685877E+03  0.15294330000E+03 0.  0.
<mgrwt>
<rscale>  0 0.45850677E+03</rscale>
<asrwt>0</asrwt>
<pdfrwt beam="1">  1        2 0.53533365E-01 0.65899064E+03</pdfrwt>
<pdfrwt beam="2">  1       -2 0.17093115E+00 0.65899064E+03</pdfrwt>
<totfact> 0.19961950E+01</totfact>
</mgrwt>
</event>
<event>
 4    5  0.1905771E-007  0.6693350E+03  0.7818608E-02  0.1016144E+00
          2   -1    0    0  501    0  0.00000000000E+00  0.00000000000E+00  0.52347350252E+03  0.52347350253E+03  0.25500000000E-02 0. -1.
         -2   -1    0    0    0  501 -0.00000000000E+00 -0.00000000000E+00 -0.51848740452E+03  0.51848740452E+03  0.25500000000E-02 0.  1.
    8880023    1    1    2    0    0 -0.11597036956E+02 -0.11859433640E+03  0.26305880365E+03  0.71917261373E+03  0.65864270000E+03 0. -1.
    8880022    1    1    2    0    0  0.11597036956E+02  0.11859433640E+03 -0.25807270564E+03  0.32278829332E+03  0.15294330000E+03 0.  0.
<mgrwt>
<rscale>  0 0.49104103E+03</rscale>
<asrwt>0</asrwt>
<pdfrwt beam="1">  1        2 0.80534385E-01 0.66933498E+03</pdfrwt>
<pdfrwt beam="2">  1       -2 0.79767293E-01 0.66933498E+03</pdfrwt>
<totfact> 0.82532423E+01</totfact>
</mgrwt>
</event>
<event>
 4    5  0.1905771E-007  0.9844811E+03  0.7818608E-02  0.9402149E-01
         -2   -1    0    0    0  501 -0.00000000000E+00  0.00000000000E+00  0.22496698061E+04  0.22496698061E+04  0.25500000000E-02 0.  1.
          2   -1    0    0  501    0  0.00000000000E+00 -0.00000000000E+00 -0.57597390900E+03  0.57597390901E+03  0.25500000000E-02 0. -1.
    8880023    1    1    2    0    0 -0.37481067313E+03 -0.62841841363E+03 -0.88465782322E+01  0.98452080298E+03  0.65864270000E+03 0. -1.
    8880022    1    1    2    0    0  0.37481067313E+03  0.62841841363E+03  0.16825424753E+04  0.18411229121E+04  0.15294330000E+03 0.  0.
<mgrwt>
<rscale>  0 0.91899057E+03</rscale>
<asrwt>0</asrwt>
<pdfrwt beam="1">  1        2 0.88611371E-01 0.98448106E+03</pdfrwt>
<pdfrwt beam="2">  1       -2 0.34610305E+00 0.98448106E+03</pdfrwt>
<totfact> 0.87097563E-01</totfact>
</mgrwt>
</event>
<event>
 4    5  0.1905771E-007  0.7362293E+03  0.7818608E-02  0.9871070E-01
         -2   -1    0    0    0  501 -0.00000000000E+00  0.00000000000E+00  0.60464670770E+03  0.60464670770E+03  0.25500000000E-02 0.  1.
          2   -1    0    0  501    0  0.00000000000E+00 -0.00000000000E+00 -0.21629399169E+04  0.21629399169E+04  0.25500000000E-02 0. -1.
    8880023    1    1    2    0    0 -0.22786915663E+03 -0.23727413754E+03 -0.20375619016E+04  0.21664930367E+04  0.65864270000E+03 0. -1.
    8880022    1    1    2    0    0  0.22786915663E+03  0.23727413754E+03  0.47926869241E+03  0.60109358791E+03  0.15294330000E+03 0.  0.
<mgrwt>
<rscale>  0 0.61684067E+03</rscale>
<asrwt>0</asrwt>
<pdfrwt beam="1">  1        2 0.33275998E+00 0.73622930E+03</pdfrwt>
<pdfrwt beam="2">  1       -2 0.93022571E-01 0.73622930E+03</pdfrwt>
<totfact> 0.55290030E+00</totfact>
</mgrwt>
</event>
<event>
 4    5  0.1905771E-007  0.9269690E+03  0.7818608E-02  0.9484055E-01
         -2   -1    0    0    0  501 -0.00000000000E+00  0.00000000000E+00  0.42559876653E+03  0.42559876654E+03  0.25500000000E-02 0.  1.
          2   -1    0    0  501    0  0.00000000000E+00 -0.00000000000E+00 -0.22920370013E+04  0.22920370013E+04  0.25500000000E-02 0. -1.
    8880023    1    1    2    0    0  0.37435124924E+03 -0.53415584510E+03 -0.18243572028E+04  0.20463505893E+04  0.65864270000E+03 0. -1.
    8880022    1    1    2    0    0 -0.37435124924E+03  0.53415584510E+03 -0.42081031965E+02  0.67128517854E+03  0.15294330000E+03 0.  0.
<mgrwt>
<rscale>  0 0.85469649E+03</rscale>
<asrwt>0</asrwt>
<pdfrwt beam="1">  1        2 0.35262107E+00 0.92696900E+03</pdfrwt>
<pdfrwt beam="2">  1       -2 0.65476735E-01 0.92696900E+03</pdfrwt>
<totfact> 0.10010037E+01</totfact>
</mgrwt>
</event>
<event>
 4    5  0.1905771E-007  0.1381979E+04  0.7818608E-02  0.8997813E-01
          2   -1    0    0  501    0  0.00000000000E+00  0.00000000000E+00  0.18109142473E+04  0.18109142473E+04  0.25500000000E-02 0. -1.
         -2   -1    0    0    0  501 -0.00000000000E+00 -0.00000000000E+00 -0.20202979483E+04  0.20202979483E+04  0.25500000000E-02 0.  1.
    8880023    1    1    2    0    0 -0.11047820471E+04  0.50548316851E+03  0.12933248022E+04  0.18927640782E+04  0.65864270000E+03 0.  0.
    8880022    1    1    2    0    0  0.11047820471E+04 -0.50548316851E+03 -0.15027085032E+04  0.19384481174E+04  0.15294330000E+03 0.  0.
<mgrwt>
<rscale>  0 0.13408111E+04</rscale>
<asrwt>0</asrwt>
<pdfrwt beam="1">  1        2 0.27860219E+00 0.13819793E+04</pdfrwt>
<pdfrwt beam="2">  1       -2 0.31081507E+00 0.13819793E+04</pdfrwt>
<totfact> 0.22115142E-01</totfact>
</mgrwt>
</event>
<event>
 4    5  0.1905771E-007  0.9035256E+03  0.7818608E-02  0.9520395E-01
         -2   -1    0    0    0  501 -0.00000000000E+00  0.00000000000E+00  0.37089701282E+03  0.37089701283E+03  0.25500000000E-02 0.  1.
          2   -1    0    0  501    0  0.00000000000E+00 -0.00000000000E+00 -0.19912572176E+04  0.19912572176E+04  0.25500000000E-02 0. -1.
    8880023    1    1    2    0    0 -0.58176758316E+03  0.20998761801E+03 -0.40547889173E+03  0.99033916334E+03  0.65864270000E+03 0.  0.
    8880022    1    1    2    0    0  0.58176758316E+03 -0.20998761801E+03 -0.12148813130E+04  0.13718150671E+04  0.15294330000E+03 0.  0.
<mgrwt>
<rscale>  0 0.82796709E+03</rscale>
<asrwt>0</asrwt>
<pdfrwt beam="1">  1        2 0.30634726E+00 0.90352561E+03</pdfrwt>
<pdfrwt beam="2">  1       -2 0.57061080E-01 0.90352561E+03</pdfrwt>
<totfact> 0.19727024E+01</totfact>
</mgrwt>
</event>
<event>
 4    5  0.1905771E-007  0.6978197E+03  0.7818608E-02  0.1000637E+00
         -2   -1    0    0    0  501 -0.00000000000E+00  0.00000000000E+00  0.20547660140E+03  0.20547660141E+03  0.25500000000E-02 0.  1.
          2   -1    0    0  501    0  0.00000000000E+00 -0.00000000000E+00 -0.23702138022E+04  0.23702138022E+04  0.25500000000E-02 0. -1.
    8880023    1    1    2    0    0  0.13333711925E+03 -0.18805137748E+03 -0.21894272899E+04  0.22979434658E+04  0.65864270000E+03 0.  0.
    8880022    1    1    2    0    0 -0.13333711925E+03  0.18805137748E+03  0.24690089127E+02  0.27774693780E+03  0.15294330000E+03 0.  0.
<mgrwt>
<rscale>  0 0.55371851E+03</rscale>
<asrwt>0</asrwt>
<pdfrwt beam="1">  1        2 0.36464826E+00 0.69781969E+03</pdfrwt>
<pdfrwt beam="2">  1       -2 0.31611787E-01 0.69781969E+03</pdfrwt>
<totfact> 0.40210689E+01</totfact>
</mgrwt>
</event>
<event>
 4    5  0.1905771E-007  0.7597705E+03  0.7818608E-02  0.9805702E-01
         -2   -1    0    0    0  501 -0.00000000000E+00  0.00000000000E+00  0.31413447143E+03  0.31413447144E+03  0.25500000000E-02 0.  1.
          2   -1    0    0  501    0  0.00000000000E+00 -0.00000000000E+00 -0.31890935901E+04  0.31890935901E+04  0.25500000000E-02 0. -1.
    8880023    1    1    2    0    0 -0.29860210423E+03 -0.23297604749E+03 -0.29850311831E+04  0.30802049324E+04  0.65864270000E+03 0. -1.
    8880022    1    1    2    0    0  0.29860210423E+03  0.23297604749E+03  0.11007206447E+03  0.42302312909E+03  0.15294330000E+03 0.  0.
<mgrwt>
<rscale>  0 0.65057442E+03</rscale>
<asrwt>0</asrwt>
<pdfrwt beam="1">  1        2 0.49062976E+00 0.75977053E+03</pdfrwt>
<pdfrwt beam="2">  1       -2 0.48328382E-01 0.75977053E+03</pdfrwt>
<totfact> 0.57203052E+00</totfact>
</mgrwt>
</event>
<event>
 4    5  0.1905771E-007  0.1028512E+04  0.7818608E-02  0.9345170E-01
          2   -1    0    0  501    0  0.00000000000E+00  0.00000000000E+00  0.15264806549E+04  0.15264806549E+04  0.25500000000E-02 0. -1.
         -2   -1    0    0    0  501 -0.00000000000E+00 -0.00000000000E+00 -0.85846627637E+03  0.85846627638E+03  0.25500000000E-02 0.  1.
    8880023    1    1    2    0    0  0.63980699585E+03  0.46333000158E+03  0.10711413699E+04  0.14849854285E+04  0.65864270000E+03 0. -1.
    8880022    1    1    2    0    0 -0.63980699585E+03 -0.46333000158E+03 -0.40312699136E+03  0.89996150278E+03  0.15294330000E+03 0.  0.
<mgrwt>
<rscale>  0 0.96728706E+03</rscale>
<asrwt>0</asrwt>
<pdfrwt beam="1">  1        2 0.23484318E+00 0.10285125E+04</pdfrwt>
<pdfrwt beam="2">  1       -2 0.13207174E+00 0.10285125E+04</pdfrwt>
<totfact> 0.50677496E+00</totfact>
</mgrwt>
</event>
<event>
 4    5  0.1905771E-007  0.9884317E+03  0.7818608E-02  0.9396851E-01
         -2   -1    0    0    0  501 -0.00000000000E+00  0.00000000000E+00  0.64400203759E+03  0.64400203759E+03  0.25500000000E-02 0.  1.
          2   -1    0    0  501    0  0.00000000000E+00 -0.00000000000E+00 -0.17054834227E+04  0.17054834227E+04  0.25500000000E-02 0. -1.
    8880023    1    1    2    0    0 -0.54560486794E+03  0.49548197004E+03 -0.12301973307E+04  0.15780946528E+04  0.65864270000E+03 0.  0.
    8880022    1    1    2    0    0  0.54560486794E+03 -0.49548197004E+03  0.16871594559E+03  0.77139080748E+03  0.15294330000E+03 0.  0.
<mgrwt>
<rscale>  0 0.92335251E+03</rscale>
<asrwt>0</asrwt>
<pdfrwt beam="1">  1        2 0.26238206E+00 0.98843172E+03</pdfrwt>
<pdfrwt beam="2">  1       -2 0.99077237E-01 0.98843172E+03</pdfrwt>
<totfact> 0.82098054E+00</totfact>
</mgrwt>
</event>
<event>
 4    5  0.1905771E-007  0.6900587E+03  0.7818608E-02  0.1004125E+00
          2   -1    0    0  501    0  0.00000000000E+00  0.00000000000E+00  0.11695797476E+04  0.11695797476E+04  0.25500000000E-02 0. -1.
         -2   -1    0    0    0  501 -0.00000000000E+00 -0.00000000000E+00 -0.55337317413E+03  0.55337317413E+03  0.25500000000E-02 0.  1.
    8880023    1    1    2    0    0  0.83602951552E+02  0.18809940360E+03  0.10278264028E+04  0.12379855249E+04  0.65864270000E+03 0. -1.
    8880022    1    1    2    0    0 -0.83602951552E+02 -0.18809940360E+03 -0.41161982933E+03  0.48496739690E+03  0.15294330000E+03 0.  0.
<mgrwt>
<rscale>  0 0.53878044E+03</rscale>
<asrwt>0</asrwt>
<pdfrwt beam="1">  1        2 0.17993534E+00 0.69005873E+03</pdfrwt>
<pdfrwt beam="2">  1       -2 0.85134335E-01 0.69005873E+03</pdfrwt>
<totfact> 0.24318995E+01</totfact>
</mgrwt>
</event>
<event>
 4    5  0.1905771E-007  0.9733826E+03  0.7818608E-02  0.9417241E-01
         -2   -1    0    0    0  501 -0.00000000000E+00  0.00000000000E+00  0.66357156727E+03  0.66357156728E+03  0.25500000000E-02 0.  1.
          2   -1    0    0  501    0  0.00000000000E+00 -0.00000000000E+00 -0.18931716467E+04  0.18931716467E+04  0.25500000000E-02 0. -1.
    8880023    1    1    2    0    0  0.57064653222E+03 -0.43361974159E+03 -0.14893561983E+04  0.17792289444E+04  0.65864270000E+03 0. -1.
    8880022    1    1    2    0    0 -0.57064653222E+03  0.43361974159E+03  0.25975611887E+03  0.77751426954E+03  0.15294330000E+03 0.  0.
<mgrwt>
<rscale>  0 0.90670302E+03</rscale>
<asrwt>0</asrwt>
<pdfrwt beam="1">  1        2 0.29125717E+00 0.97338263E+03</pdfrwt>
<pdfrwt beam="2">  1       -2 0.10208793E+00 0.97338263E+03</pdfrwt>
<totfact> 0.60363008E+00</totfact>
</mgrwt>
</event>
<event>
 4    5  0.1905771E-007  0.6838802E+03  0.7818608E-02  0.1007209E+00
          2   -1    0    0  501    0  0.00000000000E+00  0.00000000000E+00  0.24607741360E+04  0.24607741360E+04  0.25500000000E-02 0. -1.
         -2   -1    0    0    0  501 -0.00000000000E+00 -0.00000000000E+00 -0.10317375154E+04  0.10317375154E+04  0.25500000000E-02 0.  1.
    8880023    1    1    2    0    0  0.15846047750E+03  0.93660302977E+02  0.23984246266E+04  0.24940194208E+04  0.65864270000E+03 0. -1.
    8880022    1    1    2    0    0 -0.15846047750E+03 -0.93660302977E+02 -0.96938800601E+03  0.99849223056E+03  0.15294330000E+03 0.  0.
<mgrwt>
<rscale>  0 0.52599229E+03</rscale>
<asrwt>0</asrwt>
<pdfrwt beam="1">  1        2 0.37858064E+00 0.68388024E+03</pdfrwt>
<pdfrwt beam="2">  1       -2 0.15872885E+00 0.68388024E+03</pdfrwt>
<totfact> 0.10080188E+00</totfact>
</mgrwt>
</event>
<event>
 4    5  0.1905771E-007  0.8398499E+03  0.7818608E-02  0.9630463E-01
          2   -1    0    0  501    0  0.00000000000E+00  0.00000000000E+00  0.12699044666E+04  0.12699044666E+04  0.25500000000E-02 0. -1.
         -2   -1    0    0    0  501 -0.00000000000E+00 -0.00000000000E+00 -0.13044117018E+04  0.13044117018E+04  0.25500000000E-02 0.  1.
    8880023    1    1    2    0    0  0.40075655545E+03 -0.33306422527E+03  0.10600580048E+04  0.13524314307E+04  0.65864270000E+03 0. -1.
    8880022    1    1    2    0    0 -0.40075655545E+03  0.33306422527E+03 -0.10945652400E+04  0.12218847378E+04  0.15294330000E+03 0.  0.
<mgrwt>
<rscale>  0 0.75312311E+03</rscale>
<asrwt>0</asrwt>
<pdfrwt beam="1">  1        2 0.19536992E+00 0.83984987E+03</pdfrwt>
<pdfrwt beam="2">  1       -2 0.20067872E+00 0.83984987E+03</pdfrwt>
<totfact> 0.22981369E+00</totfact>
</mgrwt>
</event>
<event>
 4    5  0.1905771E-007  0.9841551E+03  0.7818608E-02  0.9402588E-01
          2   -1    0    0  501    0  0.00000000000E+00  0.00000000000E+00  0.19354152528E+04  0.19354152528E+04  0.25500000000E-02 0. -1.
         -2   -1    0    0    0  501 -0.00000000000E+00 -0.00000000000E+00 -0.53873420842E+03  0.53873420843E+03  0.25500000000E-02 0.  1.
    8880023    1    1    2    0    0  0.54711131987E+03  0.48520125095E+03  0.14188172816E+04  0.17267320971E+04  0.65864270000E+03 0.  0.
    8880022    1    1    2    0    0 -0.54711131987E+03 -0.48520125095E+03 -0.22136237206E+02  0.74741736417E+03  0.15294330000E+03 0.  0.
<mgrwt>
<rscale>  0 0.91863041E+03</rscale>
<asrwt>0</asrwt>
<pdfrwt beam="1">  1        2 0.29775620E+00 0.98415510E+03</pdfrwt>
<pdfrwt beam="2">  1       -2 0.82882185E-01 0.98415510E+03</pdfrwt>
<totfact> 0.92870872E+00</totfact>
</mgrwt>
</event>
<event>
 4    5  0.1905771E-007  0.1116391E+04  0.7818608E-02  0.9243022E-01
          2   -1    0    0  501    0  0.00000000000E+00  0.00000000000E+00  0.19716274706E+04  0.19716274706E+04  0.25500000000E-02 0. -1.
         -2   -1    0    0    0  501 -0.00000000000E+00 -0.00000000000E+00 -0.11332552573E+04  0.11332552573E+04  0.25500000000E-02 0.  1.
    8880023    1    1    2    0    0 -0.62546523916E+03  0.64908560005E+03  0.15751677025E+04  0.19306688941E+04  0.65864270000E+03 0.  0.
    8880022    1    1    2    0    0  0.62546523916E+03 -0.64908560005E+03 -0.73679548922E+03  0.11742138338E+04  0.15294330000E+03 0.  0.
<mgrwt>
<rscale>  0 0.10620189E+04</rscale>
<asrwt>0</asrwt>
<pdfrwt beam="1">  1        2 0.30332730E+00 0.11163911E+04</pdfrwt>
<pdfrwt beam="2">  1       -2 0.17434696E+00 0.11163911E+04</pdfrwt>
<totfact> 0.13506930E+00</totfact>
</mgrwt>
</event>
<event>
 4    5  0.1905771E-007  0.1065344E+04  0.7818608E-02  0.9300659E-01
          2   -1    0    0  501    0  0.00000000000E+00  0.00000000000E+00  0.97176547815E+03  0.97176547816E+03  0.25500000000E-02 0. -1.
         -2   -1    0    0    0  501 -0.00000000000E+00 -0.00000000000E+00 -0.12775035883E+04  0.12775035883E+04  0.25500000000E-02 0.  1.
    8880023    1    1    2    0    0  0.33211502531E+03  0.76866602064E+03  0.40562872290E+03  0.11399529413E+04  0.65864270000E+03 0. -1.
    8880022    1    1    2    0    0 -0.33211502531E+03 -0.76866602064E+03 -0.71136683305E+03  0.11093161251E+04  0.15294330000E+03 0.  0.
<mgrwt>
<rscale>  0 0.10072220E+04</rscale>
<asrwt>0</asrwt>
<pdfrwt beam="1">  1        2 0.14950238E+00 0.10653441E+04</pdfrwt>
<pdfrwt beam="2">  1       -2 0.19653901E+00 0.10653441E+04</pdfrwt>
<totfact> 0.36288233E+00</totfact>
</mgrwt>
</event>
<event>
 4    5  0.1905771E-007  0.1063728E+04  0.7818608E-02  0.9302558E-01
          2   -1    0    0  501    0  0.00000000000E+00  0.00000000000E+00  0.12984183871E+04  0.12984183871E+04  0.25500000000E-02 0. -1.
         -2   -1    0    0    0  501 -0.00000000000E+00 -0.00000000000E+00 -0.17865039722E+04  0.17865039722E+04  0.25500000000E-02 0.  1.
    8880023    1    1    2    0    0 -0.46424764907E+03 -0.69439257183E+03  0.94255565978E+03  0.14212418167E+04  0.65864270000E+03 0.  0.
    8880022    1    1    2    0    0  0.46424764907E+03  0.69439257183E+03 -0.14306412449E+04  0.16636805426E+04  0.15294330000E+03 0.  0.
<mgrwt>
<rscale>  0 0.10054773E+04</rscale>
<asrwt>0</asrwt>
<pdfrwt beam="1">  1        2 0.19975668E+00 0.10637279E+04</pdfrwt>
<pdfrwt beam="2">  1       -2 0.27484676E+00 0.10637279E+04</pdfrwt>
<totfact> 0.74356486E-01</totfact>
</mgrwt>
</event>
<event>
 4    5  0.1905771E-007  0.7228877E+03  0.7818608E-02  0.9912934E-01
         -2   -1    0    0    0  501 -0.00000000000E+00  0.00000000000E+00  0.48915610675E+03  0.48915610676E+03  0.25500000000E-02 0.  1.
          2   -1    0    0  501    0  0.00000000000E+00 -0.00000000000E+00 -0.20685866412E+04  0.20685866412E+04  0.25500000000E-02 0. -1.
    8880023    1    1    2    0    0  0.29786515855E+03 -0.57208435129E+01 -0.19372074302E+04  0.20676893419E+04  0.65864270000E+03 0. -1.
    8880022    1    1    2    0    0 -0.29786515855E+03  0.57208435129E+01  0.35777689570E+03  0.49005340611E+03  0.15294330000E+03 0.  0.
<mgrwt>
<rscale>  0 0.59638549E+03</rscale>
<asrwt>0</asrwt>
<pdfrwt beam="1">  1        2 0.31824410E+00 0.72288767E+03</pdfrwt>
<pdfrwt beam="2">  1       -2 0.75254786E-01 0.72288767E+03</pdfrwt>
<totfact> 0.10098181E+01</totfact>
</mgrwt>
</event>
<event>
 4    5  0.1905771E-007  0.7823222E+03  0.7818608E-02  0.9750410E-01
         -2   -1    0    0    0  501 -0.00000000000E+00  0.00000000000E+00  0.37555764772E+03  0.37555764772E+03  0.25500000000E-02 0.  1.
          2   -1    0    0  501    0  0.00000000000E+00 -0.00000000000E+00 -0.10487968787E+04  0.10487968787E+04  0.25500000000E-02 0. -1.
    8880023    1    1    2    0    0 -0.91070648462E+02  0.41221838946E+03 -0.29103757759E+03  0.83470410413E+03  0.65864270000E+03 0.  0.
    8880022    1    1    2    0    0  0.91070648462E+02 -0.41221838946E+03 -0.38220165335E+03  0.58965042225E+03  0.15294330000E+03 0.  0.
<mgrwt>
<rscale>  0 0.68093104E+03</rscale>
<asrwt>0</asrwt>
<pdfrwt beam="1">  1        2 0.16135336E+00 0.78232223E+03</pdfrwt>
<pdfrwt beam="2">  1       -2 0.57778100E-01 0.78232223E+03</pdfrwt>
<totfact> 0.66593884E+01</totfact>
</mgrwt>
</event>
<event>
 4    5  0.1905771E-007  0.7589724E+03  0.7818608E-02  0.9807775E-01
         -2   -1    0    0    0  501 -0.00000000000E+00  0.00000000000E+00  0.18175216091E+03  0.18175216093E+03  0.25500000000E-02 0.  1.
          2   -1    0    0  501    0  0.00000000000E+00 -0.00000000000E+00 -0.30348008313E+04  0.30348008313E+04  0.25500000000E-02 0. -1.
    8880023    1    1    2    0    0  0.64023662638E+02 -0.37165835108E+03 -0.26599287009E+04  0.27660910794E+04  0.65864270000E+03 0.  0.
    8880022    1    1    2    0    0 -0.64023662638E+02  0.37165835108E+03 -0.19311996951E+03  0.45046191287E+03  0.15294330000E+03 0.  0.
<mgrwt>
<rscale>  0 0.64946956E+03</rscale>
<asrwt>0</asrwt>
<pdfrwt beam="1">  1        2 0.46689240E+00 0.75897244E+03</pdfrwt>
<pdfrwt beam="2">  1       -2 0.27961873E-01 0.75897244E+03</pdfrwt>
<totfact> 0.20472261E+01</totfact>
</mgrwt>
</event>
<event>
 4    5  0.1905771E-007  0.1120535E+04  0.7818608E-02  0.9238530E-01
          2   -1    0    0  501    0  0.00000000000E+00  0.00000000000E+00  0.34650263468E+04  0.34650263468E+04  0.25500000000E-02 0. -1.
         -2   -1    0    0    0  501 -0.00000000000E+00 -0.00000000000E+00 -0.69110730973E+03  0.69110730973E+03  0.25500000000E-02 0.  1.
    8880023    1    1    2    0    0  0.46831414231E+03 -0.77618967747E+03  0.30059134618E+04  0.32079766984E+04  0.65864270000E+03 0. -1.
    8880022    1    1    2    0    0 -0.46831414231E+03  0.77618967747E+03 -0.23199442467E+03  0.94815695821E+03  0.15294330000E+03 0.  0.
<mgrwt>
<rscale>  0 0.10664432E+04</rscale>
<asrwt>0</asrwt>
<pdfrwt beam="1">  1        2 0.53308098E+00 0.11205350E+04</pdfrwt>
<pdfrwt beam="2">  1       -2 0.10632420E+00 0.11205350E+04</pdfrwt>
<totfact> 0.62017969E-01</totfact>
</mgrwt>
</event>
<event>
 4    5  0.1905771E-007  0.1107237E+04  0.7818608E-02  0.9253041E-01
         -2   -1    0    0    0  501 -0.00000000000E+00  0.00000000000E+00  0.74876506738E+03  0.74876506739E+03  0.25500000000E-02 0.  1.
          2   -1    0    0  501    0  0.00000000000E+00 -0.00000000000E+00 -0.14912910969E+04  0.14912910969E+04  0.25500000000E-02 0. -1.
    8880023    1    1    2    0    0  0.82683899450E+03 -0.32939502343E+03 -0.74930652791E+03  0.13369496188E+04  0.65864270000E+03 0.  0.
    8880022    1    1    2    0    0 -0.82683899450E+03  0.32939502343E+03  0.67804983727E+01  0.90310654546E+03  0.15294330000E+03 0.  0.
<mgrwt>
<rscale>  0 0.10522336E+04</rscale>
<asrwt>0</asrwt>
<pdfrwt beam="1">  1        2 0.22942940E+00 0.11072371E+04</pdfrwt>
<pdfrwt beam="2">  1       -2 0.11519463E+00 0.11072371E+04</pdfrwt>
<totfact> 0.74168600E+00</totfact>
</mgrwt>
</event>
<event>
 4    5  0.1905771E-007  0.8260466E+03  0.7818608E-02  0.9657074E-01
         -2   -1    0    0    0  501 -0.00000000000E+00  0.00000000000E+00  0.47178657277E+03  0.47178657278E+03  0.25500000000E-02 0.  1.
          2   -1    0    0  501    0  0.00000000000E+00 -0.00000000000E+00 -0.17962075701E+04  0.17962075701E+04  0.25500000000E-02 0. -1.
    8880023    1    1    2    0    0 -0.34694215132E+03 -0.35801389692E+03 -0.15044572272E+04  0.17163171506E+04  0.65864270000E+03 0.  0.
    8880022    1    1    2    0    0  0.34694215132E+03  0.35801389692E+03  0.18003622984E+03  0.55167699229E+03  0.15294330000E+03 0.  0.
<mgrwt>
<rscale>  0 0.73631127E+03</rscale>
<asrwt>0</asrwt>
<pdfrwt beam="1">  1        2 0.27633962E+00 0.82604662E+03</pdfrwt>
<pdfrwt beam="2">  1       -2 0.72582550E-01 0.82604662E+03</pdfrwt>
<totfact> 0.15183912E+01</totfact>
</mgrwt>
</event>
<event>
 4    5  0.1905771E-007  0.1054657E+04  0.7818608E-02  0.9313304E-01
         -2   -1    0    0    0  501 -0.00000000000E+00  0.00000000000E+00  0.11464166591E+04  0.11464166591E+04  0.25500000000E-02 0.  1.
          2   -1    0    0  501    0  0.00000000000E+00 -0.00000000000E+00 -0.19540317724E+04  0.19540317724E+04  0.25500000000E-02 0. -1.
    8880023    1    1    2    0    0  0.81970692740E+03 -0.81065937961E+02 -0.16202668135E+04  0.19332785330E+04  0.65864270000E+03 0. -1.
    8880022    1    1    2    0    0 -0.81970692740E+03  0.81065937961E+02  0.81265170022E+03  0.11671698985E+04  0.15294330000E+03 0.  0.
<mgrwt>
<rscale>  0 0.99567246E+03</rscale>
<asrwt>0</asrwt>
<pdfrwt beam="1">  1        2 0.30062027E+00 0.10546570E+04</pdfrwt>
<pdfrwt beam="2">  1       -2 0.17637179E+00 0.10546570E+04</pdfrwt>
<totfact> 0.13475352E+00</totfact>
</mgrwt>
</event>
<event>
 4    5  0.1905771E-007  0.1200159E+04  0.7818608E-02  0.9156968E-01
         -2   -1    0    0    0  501 -0.00000000000E+00  0.00000000000E+00  0.59662021763E+03  0.59662021763E+03  0.25500000000E-02 0.  1.
          2   -1    0    0  501    0  0.00000000000E+00 -0.00000000000E+00 -0.32900604069E+04  0.32900604070E+04  0.25500000000E-02 0. -1.
    8880023    1    1    2    0    0  0.10032503411E+04  0.77509422719E+01 -0.26047469635E+04  0.28679414698E+04  0.65864270000E+03 0.  0.
    8880022    1    1    2    0    0 -0.10032503411E+04 -0.77509422719E+01 -0.88693225792E+02  0.10187391547E+04  0.15294330000E+03 0.  0.
<mgrwt>
<rscale>  0 0.11508846E+04</rscale>
<asrwt>0</asrwt>
<pdfrwt beam="1">  1        2 0.50616313E+00 0.12001590E+04</pdfrwt>
<pdfrwt beam="2">  1       -2 0.91787728E-01 0.12001590E+04</pdfrwt>
<totfact> 0.11387643E+00</totfact>
</mgrwt>
</event>
<event>
 4    5  0.1905771E-007  0.7516163E+03  0.7818608E-02  0.9827316E-01
          2   -1    0    0  501    0  0.00000000000E+00  0.00000000000E+00  0.11966313399E+04  0.11966313399E+04  0.25500000000E-02 0. -1.
         -2   -1    0    0    0  501 -0.00000000000E+00 -0.00000000000E+00 -0.15645361730E+04  0.15645361730E+04  0.25500000000E-02 0.  1.
    8880023    1    1    2    0    0 -0.33268682953E+03 -0.14295542880E+03  0.10491542897E+04  0.12906012982E+04  0.65864270000E+03 0. -1.
    8880022    1    1    2    0    0  0.33268682953E+03  0.14295542880E+03 -0.14170591228E+04  0.14705662146E+04  0.15294330000E+03 0.  0.
<mgrwt>
<rscale>  0 0.63916965E+03</rscale>
<asrwt>0</asrwt>
<pdfrwt beam="1">  1        2 0.18409713E+00 0.75161625E+03</pdfrwt>
<pdfrwt beam="2">  1       -2 0.24069787E+00 0.75161625E+03</pdfrwt>
<totfact> 0.14437599E+00</totfact>
</mgrwt>
</event>
<event>
 4    5  0.1905771E-007  0.8241192E+03  0.7818608E-02  0.9660885E-01
         -2   -1    0    0    0  501 -0.00000000000E+00  0.00000000000E+00  0.15161776836E+03  0.15161776838E+03  0.25500000000E-02 0.  1.
          2   -1    0    0  501    0  0.00000000000E+00 -0.00000000000E+00 -0.46639533147E+04  0.46639533147E+04  0.25500000000E-02 0. -1.
    8880023    1    1    2    0    0  0.29937036322E+03 -0.39463869812E+03 -0.40096224238E+04  0.40934392024E+04  0.65864270000E+03 0. -1.
    8880022    1    1    2    0    0 -0.29937036322E+03  0.39463869812E+03 -0.50271312253E+03  0.72213188062E+03  0.15294330000E+03 0.  0.
<mgrwt>
<rscale>  0 0.73394227E+03</rscale>
<asrwt>0</asrwt>
<pdfrwt beam="1">  1        2 0.71753117E+00 0.82411924E+03</pdfrwt>
<pdfrwt beam="2">  1       -2 0.23325814E-01 0.82411924E+03</pdfrwt>
<totfact> 0.15321808E+00</totfact>
</mgrwt>
</event>
<event>
 4    5  0.1905771E-007  0.6607347E+03  0.7818608E-02  0.1023416E+00
         -2   -1    0    0    0  501 -0.00000000000E+00  0.00000000000E+00  0.58126964874E+03  0.58126964875E+03  0.25500000000E-02 0.  1.
          2   -1    0    0  501    0  0.00000000000E+00 -0.00000000000E+00 -0.99451312388E+03  0.99451312388E+03  0.25500000000E-02 0. -1.
    8880023    1    1    2    0    0  0.33118189349E+02 -0.40784568838E+02 -0.86929994549E+03  0.10919032911E+04  0.65864270000E+03 0. -1.
    8880022    1    1    2    0    0 -0.33118189349E+02  0.40784568838E+02  0.45605647035E+03  0.48387948157E+03  0.15294330000E+03 0.  0.
<mgrwt>
<rscale>  0 0.46473797E+03</rscale>
<asrwt>0</asrwt>
<pdfrwt beam="1">  1        2 0.15300202E+00 0.66073474E+03</pdfrwt>
<pdfrwt beam="2">  1       -2 0.89426100E-01 0.66073474E+03</pdfrwt>
<totfact> 0.27935634E+01</totfact>
</mgrwt>
</event>
<event>
 4    5  0.1905771E-007  0.1415727E+04  0.7818608E-02  0.8971558E-01
         -2   -1    0    0    0  501 -0.00000000000E+00  0.00000000000E+00  0.14561303398E+04  0.14561303398E+04  0.25500000000E-02 0.  1.
          2   -1    0    0  501    0  0.00000000000E+00 -0.00000000000E+00 -0.41028835956E+04  0.41028835956E+04  0.25500000000E-02 0. -1.
    8880023    1    1    2    0    0 -0.57489377587E+03  0.11135396689E+04 -0.36702129960E+04  0.39337955069E+04  0.65864270000E+03 0.  0.
    8880022    1    1    2    0    0  0.57489377587E+03 -0.11135396689E+04  0.10234597402E+04  0.16252184286E+04  0.15294330000E+03 0.  0.
<mgrwt>
<rscale>  0 0.13757551E+04</rscale>
<asrwt>0</asrwt>
<pdfrwt beam="1">  1        2 0.63121286E+00 0.14157273E+04</pdfrwt>
<pdfrwt beam="2">  1       -2 0.22402005E+00 0.14157273E+04</pdfrwt>
<totfact> 0.25443846E-02</totfact>
</mgrwt>
</event>
<event>
 4    5  0.1905771E-007  0.7591957E+03  0.7818608E-02  0.9807194E-01
          2   -1    0    0  501    0  0.00000000000E+00  0.00000000000E+00  0.19544480707E+04  0.19544480707E+04  0.25500000000E-02 0. -1.
         -2   -1    0    0    0  501 -0.00000000000E+00 -0.00000000000E+00 -0.24601183241E+03  0.24601183242E+03  0.25500000000E-02 0.  1.
    8880023    1    1    2    0    0 -0.15670651874E+03  0.34352722010E+03  0.16119833235E+04  0.17818160190E+04  0.65864270000E+03 0. -1.
    8880022    1    1    2    0    0  0.15670651874E+03 -0.34352722010E+03  0.96452914817E+02  0.41864388417E+03  0.15294330000E+03 0.  0.
<mgrwt>
<rscale>  0 0.64977886E+03</rscale>
<asrwt>0</asrwt>
<pdfrwt beam="1">  1        2 0.30068431E+00 0.75919569E+03</pdfrwt>
<pdfrwt beam="2">  1       -2 0.37847976E-01 0.75919569E+03</pdfrwt>
<totfact> 0.47974704E+01</totfact>
</mgrwt>
</event>
<event>
 4    5  0.1905771E-007  0.7614439E+03  0.7818608E-02  0.9801384E-01
          2   -1    0    0  501    0  0.00000000000E+00  0.00000000000E+00  0.13269883042E+04  0.13269883042E+04  0.25500000000E-02 0. -1.
         -2   -1    0    0    0  501 -0.00000000000E+00 -0.00000000000E+00 -0.38737280086E+03  0.38737280087E+03  0.25500000000E-02 0.  1.
    8880023    1    1    2    0    0 -0.36452223066E+03 -0.11449963423E+03  0.10417090529E+04  0.12903311901E+04  0.65864270000E+03 0. -1.
    8880022    1    1    2    0    0  0.36452223066E+03  0.11449963423E+03 -0.10209354962E+03  0.42402991495E+03  0.15294330000E+03 0.  0.
<mgrwt>
<rscale>  0 0.65288344E+03</rscale>
<asrwt>0</asrwt>
<pdfrwt beam="1">  1        2 0.20415204E+00 0.76144391E+03</pdfrwt>
<pdfrwt beam="2">  1       -2 0.59595817E-01 0.76144391E+03</pdfrwt>
<totfact> 0.42667412E+01</totfact>
</mgrwt>
</event>
<event>
 4    5  0.1905771E-007  0.9617605E+03  0.7818608E-02  0.9433391E-01
          2   -1    0    0  501    0  0.00000000000E+00  0.00000000000E+00  0.10166026201E+04  0.10166026201E+04  0.25500000000E-02 0. -1.
         -2   -1    0    0    0  501 -0.00000000000E+00 -0.00000000000E+00 -0.19114123514E+04  0.19114123514E+04  0.25500000000E-02 0.  1.
    8880023    1    1    2    0    0 -0.34178064028E+03 -0.61184882141E+03  0.69317566012E+03  0.11855275992E+04  0.65864270000E+03 0. -1.
    8880022    1    1    2    0    0  0.34178064028E+03  0.61184882141E+03 -0.15879853915E+04  0.17424873724E+04  0.15294330000E+03 0.  0.
<mgrwt>
<rscale>  0 0.89377908E+03</rscale>
<asrwt>0</asrwt>
<pdfrwt beam="1">  1        2 0.15640040E+00 0.96176047E+03</pdfrwt>
<pdfrwt beam="2">  1       -2 0.29406344E+00 0.96176047E+03</pdfrwt>
<totfact> 0.85659611E-01</totfact>
</mgrwt>
</event>
<event>
 4    5  0.1905771E-007  0.7387871E+03  0.7818608E-02  0.9863494E-01
          2   -1    0    0  501    0  0.00000000000E+00  0.00000000000E+00  0.26164083602E+04  0.26164083602E+04  0.25500000000E-02 0. -1.
         -2   -1    0    0    0  501 -0.00000000000E+00 -0.00000000000E+00 -0.40290701032E+03  0.40290701033E+03  0.25500000000E-02 0.  1.
    8880023    1    1    2    0    0  0.23493329504E+03 -0.23833287373E+03  0.24651935998E+04  0.25735162526E+04  0.65864270000E+03 0. -1.
    8880022    1    1    2    0    0 -0.23493329504E+03  0.23833287373E+03 -0.25169224993E+03  0.44579911789E+03  0.15294330000E+03 0.  0.
<mgrwt>
<rscale>  0 0.62063599E+03</rscale>
<asrwt>0</asrwt>
<pdfrwt beam="1">  1        2 0.40252436E+00 0.73878713E+03</pdfrwt>
<pdfrwt beam="2">  1       -2 0.61985694E-01 0.73878713E+03</pdfrwt>
<totfact> 0.75869676E+00</totfact>
</mgrwt>
</event>
<event>
 4    5  0.1905771E-007  0.1565871E+04  0.7818608E-02  0.8864470E-01
          2   -1    0    0  501    0  0.00000000000E+00  0.00000000000E+00  0.37361648745E+04  0.37361648745E+04  0.25500000000E-02 0. -1.
         -2   -1    0    0    0  501 -0.00000000000E+00 -0.00000000000E+00 -0.63284331457E+03  0.63284331457E+03  0.25500000000E-02 0.  1.
    8880023    1    1    2    0    0  0.12590930844E+04 -0.65789446561E+03  0.21154530141E+04  0.26319369643E+04  0.65864270000E+03 0.  0.
    8880022    1    1    2    0    0 -0.12590930844E+04  0.65789446561E+03  0.98786854582E+03  0.17370712247E+04  0.15294330000E+03 0.  0.
<mgrwt>
<rscale>  0 0.15304228E+04</rscale>
<asrwt>0</asrwt>
<pdfrwt beam="1">  1        2 0.57479459E+00 0.15658706E+04</pdfrwt>
<pdfrwt beam="2">  1       -2 0.97360512E-01 0.15658706E+04</pdfrwt>
<totfact> 0.46269790E-01</totfact>
</mgrwt>
</event>
<event>
 4    5  0.1905771E-007  0.7210062E+03  0.7818608E-02  0.9919196E-01
          2   -1    0    0  501    0  0.00000000000E+00  0.00000000000E+00  0.14440934531E+04  0.14440934531E+04  0.25500000000E-02 0. -1.
         -2   -1    0    0    0  501 -0.00000000000E+00 -0.00000000000E+00 -0.47278058274E+03  0.47278058275E+03  0.25500000000E-02 0.  1.
    8880023    1    1    2    0    0 -0.42862071780E+02 -0.29017671377E+03  0.12769814670E+04  0.14664690776E+04  0.65864270000E+03 0. -1.
    8880022    1    1    2    0    0  0.42862071780E+02  0.29017671377E+03 -0.30566859661E+03  0.45040495821E+03  0.15294330000E+03 0.  0.
<mgrwt>
<rscale>  0 0.59339919E+03</rscale>
<asrwt>0</asrwt>
<pdfrwt beam="1">  1        2 0.22216822E+00 0.72100616E+03</pdfrwt>
<pdfrwt beam="2">  1       -2 0.72735475E-01 0.72100616E+03</pdfrwt>
<totfact> 0.23948276E+01</totfact>
</mgrwt>
</event>
<event>
 4    5  0.1905771E-007  0.8272310E+03  0.7818608E-02  0.9654744E-01
         -2   -1    0    0    0  501 -0.00000000000E+00  0.00000000000E+00  0.27475005556E+03  0.27475005557E+03  0.25500000000E-02 0.  1.
          2   -1    0    0  501    0  0.00000000000E+00 -0.00000000000E+00 -0.27097160702E+04  0.27097160702E+04  0.25500000000E-02 0. -1.
    8880023    1    1    2    0    0 -0.27245321497E+03 -0.41984533773E+03 -0.22996457915E+04  0.24439070839E+04  0.65864270000E+03 0.  0.
    8880022    1    1    2    0    0  0.27245321497E+03  0.41984533773E+03 -0.13532022312E+03  0.54055904188E+03  0.15294330000E+03 0.  0.
<mgrwt>
<rscale>  0 0.73776425E+03</rscale>
<asrwt>0</asrwt>
<pdfrwt beam="1">  1        2 0.41687938E+00 0.82723096E+03</pdfrwt>
<pdfrwt beam="2">  1       -2 0.42269241E-01 0.82723096E+03</pdfrwt>
<totfact> 0.14459749E+01</totfact>
</mgrwt>
</event>
<event>
 4    5  0.1905771E-007  0.6865337E+03  0.7818608E-02  0.1005846E+00
          2   -1    0    0  501    0  0.00000000000E+00  0.00000000000E+00  0.11667061399E+04  0.11667061399E+04  0.25500000000E-02 0. -1.
         -2   -1    0    0    0  501 -0.00000000000E+00 -0.00000000000E+00 -0.48957016106E+03  0.48957016107E+03  0.25500000000E-02 0.  1.
    8880023    1    1    2    0    0  0.87088439169E+01  0.19350067769E+03  0.10226181552E+04  0.12316965754E+04  0.65864270000E+03 0.  0.
    8880022    1    1    2    0    0 -0.87088439169E+01 -0.19350067769E+03 -0.34548217632E+03  0.42457972561E+03  0.15294330000E+03 0.  0.
<mgrwt>
<rscale>  0 0.53159696E+03</rscale>
<asrwt>0</asrwt>
<pdfrwt beam="1">  1        2 0.17949325E+00 0.68653373E+03</pdfrwt>
<pdfrwt beam="2">  1       -2 0.75318487E-01 0.68653373E+03</pdfrwt>
<totfact> 0.32160683E+01</totfact>
</mgrwt>
</event>
<event>
 4    5  0.1905771E-007  0.7415428E+03  0.7818608E-02  0.9855476E-01
         -2   -1    0    0    0  501 -0.00000000000E+00  0.00000000000E+00  0.48168159393E+03  0.48168159394E+03  0.25500000000E-02 0.  1.
          2   -1    0    0  501    0  0.00000000000E+00 -0.00000000000E+00 -0.16991409238E+04  0.16991409238E+04  0.25500000000E-02 0. -1.
    8880023    1    1    2    0    0  0.29657072700E+03 -0.16769396373E+03 -0.15258491718E+04  0.16964967913E+04  0.65864270000E+03 0. -1.
    8880022    1    1    2    0    0 -0.29657072700E+03  0.16769396373E+03  0.30838984198E+03  0.48432572639E+03  0.15294330000E+03 0.  0.
<mgrwt>
<rscale>  0 0.62468507E+03</rscale>
<asrwt>0</asrwt>
<pdfrwt beam="1">  1        2 0.26140629E+00 0.74154276E+03</pdfrwt>
<pdfrwt beam="2">  1       -2 0.74104862E-01 0.74154276E+03</pdfrwt>
<totfact> 0.16569753E+01</totfact>
</mgrwt>
</event>
<event>
 4    5  0.1905771E-007  0.9806812E+03  0.7818608E-02  0.9407281E-01
          2   -1    0    0  501    0  0.00000000000E+00  0.00000000000E+00  0.25859340301E+04  0.25859340301E+04  0.25500000000E-02 0. -1.
         -2   -1    0    0    0  501 -0.00000000000E+00 -0.00000000000E+00 -0.31313399464E+03  0.31313399465E+03  0.25500000000E-02 0.  1.
    8880023    1    1    2    0    0  0.17183736913E+02 -0.72638158623E+03  0.16949155686E+04  0.19581814217E+04  0.65864270000E+03 0. -1.
    8880022    1    1    2    0    0 -0.17183736913E+02  0.72638158623E+03  0.57788446688E+03  0.94088660300E+03  0.15294330000E+03 0.  1.
<mgrwt>
<rscale>  0 0.91478932E+03</rscale>
<asrwt>0</asrwt>
<pdfrwt beam="1">  1        2 0.39783600E+00 0.98068124E+03</pdfrwt>
<pdfrwt beam="2">  1       -2 0.48174461E-01 0.98068124E+03</pdfrwt>
<totfact> 0.12866835E+01</totfact>
</mgrwt>
</event>
<event>
 4    5  0.1905771E-007  0.8029360E+03  0.7818608E-02  0.9704483E-01
          2   -1    0    0  501    0  0.00000000000E+00  0.00000000000E+00  0.69966594975E+03  0.69966594976E+03  0.25500000000E-02 0. -1.
         -2   -1    0    0    0  501 -0.00000000000E+00 -0.00000000000E+00 -0.89356110133E+03  0.89356110134E+03  0.25500000000E-02 0.  1.
    8880023    1    1    2    0    0 -0.40424548221E+03  0.21790284226E+03  0.34055238423E+03  0.87217096444E+03  0.65864270000E+03 0.  0.
    8880022    1    1    2    0    0  0.40424548221E+03 -0.21790284226E+03 -0.53444753581E+03  0.72105608665E+03  0.15294330000E+03 0.  0.
<mgrwt>
<rscale>  0 0.70750481E+03</rscale>
<asrwt>0</asrwt>
<pdfrwt beam="1">  1        2 0.10764092E+00 0.80293603E+03</pdfrwt>
<pdfrwt beam="2">  1       -2 0.13747094E+00 0.80293603E+03</pdfrwt>
<totfact> 0.15581893E+01</totfact>
</mgrwt>
</event>
<event>
 4    5  0.1905771E-007  0.7272616E+03  0.7818608E-02  0.9898740E-01
         -2   -1    0    0    0  501 -0.00000000000E+00  0.00000000000E+00  0.17153704157E+04  0.17153704157E+04  0.25500000000E-02 0.  1.
          2   -1    0    0  501    0  0.00000000000E+00 -0.00000000000E+00 -0.79607365565E+03  0.79607365566E+03  0.25500000000E-02 0. -1.
    8880023    1    1    2    0    0 -0.25950155214E+02 -0.30728787199E+03 -0.60670436681E+03  0.94710065030E+03  0.65864270000E+03 0. -1.
    8880022    1    1    2    0    0  0.25950155214E+02  0.30728787199E+03  0.15260011269E+04  0.15643434211E+04  0.15294330000E+03 0.  0.
<mgrwt>
<rscale>  0 0.60322402E+03</rscale>
<asrwt>0</asrwt>
<pdfrwt beam="1">  1        2 0.12247287E+00 0.72726161E+03</pdfrwt>
<pdfrwt beam="2">  1       -2 0.26390314E+00 0.72726161E+03</pdfrwt>
<totfact> 0.19021439E+00</totfact>
</mgrwt>
</event>
<event>
 4    5  0.1905771E-007  0.7361981E+03  0.7818608E-02  0.9871163E-01
         -2   -1    0    0    0  501 -0.00000000000E+00  0.00000000000E+00  0.55506960298E+03  0.55506960298E+03  0.25500000000E-02 0.  1.
          2   -1    0    0  501    0  0.00000000000E+00 -0.00000000000E+00 -0.69458864911E+03  0.69458864912E+03  0.25500000000E-02 0. -1.
    8880023    1    1    2    0    0 -0.30790131111E+03 -0.11564704322E+03 -0.36587256682E+03  0.82210120874E+03  0.65864270000E+03 0.  0.
    8880022    1    1    2    0    0  0.30790131111E+03  0.11564704322E+03  0.22635352069E+03  0.42755704337E+03  0.15294330000E+03 0.  0.
<mgrwt>
<rscale>  0 0.61679418E+03</rscale>
<asrwt>0</asrwt>
<pdfrwt beam="1">  1        2 0.10685979E+00 0.73619811E+03</pdfrwt>
<pdfrwt beam="2">  1       -2 0.85395324E-01 0.73619811E+03</pdfrwt>
<totfact> 0.50019569E+01</totfact>
</mgrwt>
</event>
<event>
 4    5  0.1905771E-007  0.7884679E+03  0.7818608E-02  0.9736309E-01
          2   -1    0    0  501    0  0.00000000000E+00  0.00000000000E+00  0.72198410375E+03  0.72198410375E+03  0.25500000000E-02 0. -1.
         -2   -1    0    0    0  501 -0.00000000000E+00 -0.00000000000E+00 -0.88568589045E+03  0.88568589046E+03  0.25500000000E-02 0.  1.
    8880023    1    1    2    0    0  0.23484983673E+03  0.36430340120E+03  0.39690079233E+03  0.88272977697E+03  0.65864270000E+03 0. -1.
    8880022    1    1    2    0    0 -0.23484983673E+03 -0.36430340120E+03 -0.56060257903E+03  0.72494021724E+03  0.15294330000E+03 0.  1.
<mgrwt>
<rscale>  0 0.68895516E+03</rscale>
<asrwt>0</asrwt>
<pdfrwt beam="1">  1        2 0.11107448E+00 0.78846789E+03</pdfrwt>
<pdfrwt beam="2">  1       -2 0.13625937E+00 0.78846789E+03</pdfrwt>
<totfact> 0.15337881E+01</totfact>
</mgrwt>
</event>
<event>
 4    5  0.1905771E-007  0.1049339E+04  0.7818608E-02  0.9319677E-01
         -2   -1    0    0    0  501 -0.00000000000E+00  0.00000000000E+00  0.10751049436E+04  0.10751049436E+04  0.25500000000E-02 0.  1.
          2   -1    0    0  501    0  0.00000000000E+00 -0.00000000000E+00 -0.14930026730E+04  0.14930026730E+04  0.25500000000E-02 0. -1.
    8880023    1    1    2    0    0 -0.79149764790E+03  0.20207167431E+03 -0.10797787230E+04  0.15056672225E+04  0.65864270000E+03 0.  0.
    8880022    1    1    2    0    0  0.79149764790E+03 -0.20207167431E+03  0.66188099356E+03  0.10624403940E+04  0.15294330000E+03 0.  0.
<mgrwt>
<rscale>  0 0.98991387E+03</rscale>
<asrwt>0</asrwt>
<pdfrwt beam="1">  1        2 0.22969272E+00 0.10493387E+04</pdfrwt>
<pdfrwt beam="2">  1       -2 0.16540076E+00 0.10493387E+04</pdfrwt>
<totfact> 0.29069060E+00</totfact>
</mgrwt>
</event>
<event>
 4    5  0.1905771E-007  0.1151747E+04  0.7818608E-02  0.9205517E-01
          2   -1    0    0  501    0  0.00000000000E+00  0.00000000000E+00  0.16221532553E+04  0.16221532553E+04  0.25500000000E-02 0. -1.
         -2   -1    0    0    0  501 -0.00000000000E+00 -0.00000000000E+00 -0.18036088089E+04  0.18036088089E+04  0.25500000000E-02 0.  1.
    8880023    1    1    2    0    0  0.88544288590E+03 -0.32969998571E+03  0.12526055360E+04  0.17016292252E+04  0.65864270000E+03 0.  0.
    8880022    1    1    2    0    0 -0.88544288590E+03  0.32969998571E+03 -0.14340610897E+04  0.17241328391E+04  0.15294330000E+03 0.  0.
<mgrwt>
<rscale>  0 0.10996662E+04</rscale>
<asrwt>0</asrwt>
<pdfrwt beam="1">  1        2 0.24956204E+00 0.11517471E+04</pdfrwt>
<pdfrwt beam="2">  1       -2 0.27747828E+00 0.11517471E+04</pdfrwt>
<totfact> 0.46349550E-01</totfact>
</mgrwt>
</event>
<event>
 4    5  0.1905771E-007  0.6782805E+03  0.7818608E-02  0.1010313E+00
          2   -1    0    0  501    0  0.00000000000E+00  0.00000000000E+00  0.20337977442E+04  0.20337977442E+04  0.25500000000E-02 0. -1.
         -2   -1    0    0    0  501 -0.00000000000E+00 -0.00000000000E+00 -0.44824758567E+03  0.44824758568E+03  0.25500000000E-02 0.  1.
    8880023    1    1    2    0    0  0.13008852509E+03 -0.96598405147E+02  0.19445889143E+04  0.20594879286E+04  0.65864270000E+03 0. -1.
    8880022    1    1    2    0    0 -0.13008852509E+03  0.96598405147E+02 -0.35903875575E+03  0.42255740128E+03  0.15294330000E+03 0.  0.
<mgrwt>
<rscale>  0 0.51350239E+03</rscale>
<asrwt>0</asrwt>
<pdfrwt beam="1">  1        2 0.31289195E+00 0.67828053E+03</pdfrwt>
<pdfrwt beam="2">  1       -2 0.68961169E-01 0.67828053E+03</pdfrwt>
<totfact> 0.12871577E+01</totfact>
</mgrwt>
</event>
<event>
 4    5  0.1905771E-007  0.7950979E+03  0.7818608E-02  0.9721497E-01
          2   -1    0    0  501    0  0.00000000000E+00  0.00000000000E+00  0.10608472181E+04  0.10608472181E+04  0.25500000000E-02 0. -1.
         -2   -1    0    0    0  501 -0.00000000000E+00 -0.00000000000E+00 -0.92045673310E+03  0.92045673310E+03  0.25500000000E-02 0.  1.
    8880023    1    1    2    0    0  0.18269697830E+03  0.40619236023E+03  0.82797196087E+03  0.11479190710E+04  0.65864270000E+03 0. -1.
    8880022    1    1    2    0    0 -0.18269697830E+03 -0.40619236023E+03 -0.68758147591E+03  0.83338488013E+03  0.15294330000E+03 0.  0.
<mgrwt>
<rscale>  0 0.69751147E+03</rscale>
<asrwt>0</asrwt>
<pdfrwt beam="1">  1        2 0.16320726E+00 0.79509787E+03</pdfrwt>
<pdfrwt beam="2">  1       -2 0.14160873E+00 0.79509787E+03</pdfrwt>
<totfact> 0.81389946E+00</totfact>
</mgrwt>
</event>
<event>
 4    5  0.1905771E-007  0.2158608E+04  0.7818608E-02  0.8546467E-01
         -2   -1    0    0    0  501 -0.00000000000E+00  0.00000000000E+00  0.16286762517E+04  0.16286762517E+04  0.25500000000E-02 0.  1.
          2   -1    0    0  501    0  0.00000000000E+00 -0.00000000000E+00 -0.30920131780E+04  0.30920131780E+04  0.25500000000E-02 0. -1.
    8880023    1    1    2    0    0  0.18275722901E+04  0.94114767471E+03  0.56939990564E+02  0.21593591156E+04  0.65864270000E+03 0.  0.
    8880022    1    1    2    0    0 -0.18275722901E+04 -0.94114767471E+03 -0.15202769169E+04  0.25613303142E+04  0.15294330000E+03 0.  0.
<mgrwt>
<rscale>  0 0.21338722E+04</rscale>
<asrwt>0</asrwt>
<pdfrwt beam="1">  1        2 0.47569433E+00 0.21586083E+04</pdfrwt>
<pdfrwt beam="2">  1       -2 0.25056558E+00 0.21586083E+04</pdfrwt>
<totfact> 0.84874476E-02</totfact>
</mgrwt>
</event>
<event>
 4    5  0.1905771E-007  0.1483128E+04  0.7818608E-02  0.8921643E-01
          2   -1    0    0  501    0  0.00000000000E+00  0.00000000000E+00  0.12106908891E+04  0.12106908891E+04  0.25500000000E-02 0. -1.
         -2   -1    0    0    0  501 -0.00000000000E+00 -0.00000000000E+00 -0.19070500877E+04  0.19070500877E+04  0.25500000000E-02 0.  1.
    8880023    1    1    2    0    0 -0.49323865095E+01 -0.13288465481E+04  0.21574046148E+03  0.14987366779E+04  0.65864270000E+03 0.  0.
    8880022    1    1    2    0    0  0.49323865095E+01  0.13288465481E+04 -0.91209966001E+03  0.16190042988E+04  0.15294330000E+03 0.  0.
<mgrwt>
<rscale>  0 0.14453325E+04</rscale>
<asrwt>0</asrwt>
<pdfrwt beam="1">  1        2 0.18626014E+00 0.14831277E+04</pdfrwt>
<pdfrwt beam="2">  1       -2 0.29339232E+00 0.14831277E+04</pdfrwt>
<totfact> 0.61581785E-01</totfact>
</mgrwt>
</event>
<event>
 4    5  0.1905771E-007  0.1415329E+04  0.7818608E-02  0.8971862E-01
          2   -1    0    0  501    0  0.00000000000E+00  0.00000000000E+00  0.33518316743E+04  0.33518316743E+04  0.25500000000E-02 0. -1.
         -2   -1    0    0    0  501 -0.00000000000E+00 -0.00000000000E+00 -0.13108875372E+04  0.13108875372E+04  0.25500000000E-02 0.  1.
    8880023    1    1    2    0    0  0.27338793235E+03  0.12225407062E+04  0.28371024912E+04  0.31705374137E+04  0.65864270000E+03 0.  0.
    8880022    1    1    2    0    0 -0.27338793235E+03 -0.12225407062E+04 -0.79615835407E+03  0.14921817978E+04  0.15294330000E+03 0.  0.
<mgrwt>
<rscale>  0 0.13753435E+04</rscale>
<asrwt>0</asrwt>
<pdfrwt beam="1">  1        2 0.51566641E+00 0.14153293E+04</pdfrwt>
<pdfrwt beam="2">  1       -2 0.20167501E+00 0.14153293E+04</pdfrwt>
<totfact> 0.12759523E-01</totfact>
</mgrwt>
</event>
<event>
 4    5  0.2121813E-007  0.8413001E+03  0.7818608E-02  0.9627734E-01
          2   -1    0    0  501    0  0.00000000000E+00  0.00000000000E+00  0.24379750612E+04  0.24379750612E+04  0.25500000000E-02 0. -1.
         -2   -1    0    0    0  501 -0.00000000000E+00 -0.00000000000E+00 -0.89310599622E+03  0.89310599622E+03  0.25500000000E-02 0.  1.
    8880023    1    1    2    0    0  0.52269382449E+03  0.27691261581E+02  0.22716703463E+04  0.24224516524E+04  0.65864270000E+03 0.  0.
    8880022    1    1    2    0    0 -0.52269382449E+03 -0.27691261581E+02 -0.72680128127E+03  0.90862940498E+03  0.15294330000E+03 0.  0.
<mgrwt>
<rscale>  0 0.75487467E+03</rscale>
<asrwt>0</asrwt>
<pdfrwt beam="1">  1        2 0.37507309E+00 0.84130009E+03</pdfrwt>
<pdfrwt beam="2">  1       -2 0.13740092E+00 0.84130009E+03</pdfrwt>
<totfact> 0.14703677E+00</totfact>
</mgrwt>
</event>
<event>
 4    5  0.1905771E-007  0.9407244E+03  0.7818608E-02  0.9463587E-01
          2   -1    0    0  501    0  0.00000000000E+00  0.00000000000E+00  0.10634376906E+04  0.10634376906E+04  0.25500000000E-02 0. -1.
         -2   -1    0    0    0  501 -0.00000000000E+00 -0.00000000000E+00 -0.15362020644E+04  0.15362020644E+04  0.25500000000E-02 0.  1.
    8880023    1    1    2    0    0 -0.59845373085E+03  0.30496771249E+03  0.74536231412E+03  0.12002197129E+04  0.65864270000E+03 0.  0.
    8880022    1    1    2    0    0  0.59845373085E+03 -0.30496771249E+03 -0.12181266879E+04  0.13994200422E+04  0.15294330000E+03 0.  0.
<mgrwt>
<rscale>  0 0.87022458E+03</rscale>
<asrwt>0</asrwt>
<pdfrwt beam="1">  1        2 0.16360580E+00 0.94072439E+03</pdfrwt>
<pdfrwt beam="2">  1       -2 0.23633878E+00 0.94072439E+03</pdfrwt>
<totfact> 0.17970778E+00</totfact>
</mgrwt>
</event>
<event>
 4    5  0.1905771E-007  0.7142344E+03  0.7818608E-02  0.9942600E-01
          2   -1    0    0  501    0  0.00000000000E+00  0.00000000000E+00  0.20902389838E+04  0.20902389838E+04  0.25500000000E-02 0. -1.
         -2   -1    0    0    0  501 -0.00000000000E+00 -0.00000000000E+00 -0.38226329017E+03  0.38226329017E+03  0.25500000000E-02 0.  1.
    8880023    1    1    2    0    0  0.16803400548E+03 -0.21928337445E+03  0.19486809958E+04  0.20754489767E+04  0.65864270000E+03 0. -1.
    8880022    1    1    2    0    0 -0.16803400548E+03  0.21928337445E+03 -0.24070530220E+03  0.39705329722E+03  0.15294330000E+03 0.  0.
<mgrwt>
<rscale>  0 0.58240376E+03</rscale>
<asrwt>0</asrwt>
<pdfrwt beam="1">  1        2 0.32157522E+00 0.71423444E+03</pdfrwt>
<pdfrwt beam="2">  1       -2 0.58809739E-01 0.71423444E+03</pdfrwt>
<totfact> 0.16753296E+01</totfact>
</mgrwt>
</event>
<event>
 4    5  0.1905771E-007  0.1083192E+04  0.7818608E-02  0.9280005E-01
         -2   -1    0    0    0  501 -0.00000000000E+00  0.00000000000E+00  0.58887407467E+03  0.58887407467E+03  0.25500000000E-02 0.  1.
          2   -1    0    0  501    0  0.00000000000E+00 -0.00000000000E+00 -0.24491608289E+04  0.24491608289E+04  0.25500000000E-02 0. -1.
    8880023    1    1    2    0    0  0.76944844256E+03 -0.38398392375E+03 -0.18739612493E+04  0.21644942896E+04  0.65864270000E+03 0. -1.
    8880022    1    1    2    0    0 -0.76944844256E+03  0.38398392375E+03  0.13674495081E+02  0.87354061399E+03  0.15294330000E+03 0.  0.
<mgrwt>
<rscale>  0 0.10264470E+04</rscale>
<asrwt>0</asrwt>
<pdfrwt beam="1">  1        2 0.37679397E+00 0.10831919E+04</pdfrwt>
<pdfrwt beam="2">  1       -2 0.90596012E-01 0.10831919E+04</pdfrwt>
<totfact> 0.38678897E+00</totfact>
</mgrwt>
</event>
<event>
 4    5  0.1905771E-007  0.1508226E+04  0.7818608E-02  0.8903849E-01
         -2   -1    0    0    0  501 -0.00000000000E+00  0.00000000000E+00  0.12315212382E+04  0.12315212382E+04  0.25500000000E-02 0.  1.
          2   -1    0    0  501    0  0.00000000000E+00 -0.00000000000E+00 -0.28368457096E+04  0.28368457096E+04  0.25500000000E-02 0. -1.
    8880023    1    1    2    0    0 -0.10800073275E+04 -0.82129134762E+03 -0.21263467673E+04  0.26069323133E+04  0.65864270000E+03 0.  0.
    8880022    1    1    2    0    0  0.10800073275E+04  0.82129134762E+03  0.52102229593E+03  0.14614346345E+04  0.15294330000E+03 0.  0.
<mgrwt>
<rscale>  0 0.14711775E+04</rscale>
<asrwt>0</asrwt>
<pdfrwt beam="1">  1        2 0.43643780E+00 0.15082259E+04</pdfrwt>
<pdfrwt beam="2">  1       -2 0.18946481E+00 0.15082259E+04</pdfrwt>
<totfact> 0.32307437E-01</totfact>
</mgrwt>
</event>
<event>
 4    5  0.1905771E-007  0.1045190E+04  0.7818608E-02  0.9324686E-01
          2   -1    0    0  501    0  0.00000000000E+00  0.00000000000E+00  0.17672921936E+04  0.17672921936E+04  0.25500000000E-02 0. -1.
         -2   -1    0    0    0  501 -0.00000000000E+00 -0.00000000000E+00 -0.59725278383E+03  0.59725278383E+03  0.25500000000E-02 0.  1.
    8880023    1    1    2    0    0 -0.58815488374E+03 -0.55918368664E+03  0.15599982911E+03  0.10567680519E+04  0.65864270000E+03 0.  0.
    8880022    1    1    2    0    0  0.58815488374E+03  0.55918368664E+03  0.10140395807E+04  0.13077769255E+04  0.15294330000E+03 0.  0.
<mgrwt>
<rscale>  0 0.98541668E+03</rscale>
<asrwt>0</asrwt>
<pdfrwt beam="1">  1        2 0.27189110E+00 0.10451903E+04</pdfrwt>
<pdfrwt beam="2">  1       -2 0.91885044E-01 0.10451903E+04</pdfrwt>
<totfact> 0.90052911E+00</totfact>
</mgrwt>
</event>
<event>
 4    5  0.1905771E-007  0.1282809E+04  0.7818608E-02  0.9080549E-01
         -2   -1    0    0    0  501 -0.00000000000E+00  0.00000000000E+00  0.14865420462E+04  0.14865420462E+04  0.25500000000E-02 0.  1.
          2   -1    0    0  501    0  0.00000000000E+00 -0.00000000000E+00 -0.15289137284E+04  0.15289137284E+04  0.25500000000E-02 0. -1.
    8880023    1    1    2    0    0  0.97193058209E+03  0.51685532070E+03 -0.93712996951E+03  0.15886507687E+04  0.65864270000E+03 0. -1.
    8880022    1    1    2    0    0 -0.97193058209E+03 -0.51685532070E+03  0.89475828737E+03  0.14268050059E+04  0.15294330000E+03 0.  0.
<mgrwt>
<rscale>  0 0.12376213E+04</rscale>
<asrwt>0</asrwt>
<pdfrwt beam="1">  1        2 0.23521749E+00 0.12828089E+04</pdfrwt>
<pdfrwt beam="2">  1       -2 0.22869878E+00 0.12828089E+04</pdfrwt>
<totfact> 0.10240645E+00</totfact>
</mgrwt>
</event>
<event>
 4    5  0.1905771E-007  0.1298482E+04  0.7818608E-02  0.9066872E-01
          2   -1    0    0  501    0  0.00000000000E+00  0.00000000000E+00  0.24836913627E+04  0.24836913627E+04  0.25500000000E-02 0. -1.
         -2   -1    0    0    0  501 -0.00000000000E+00 -0.00000000000E+00 -0.11713476896E+04  0.11713476896E+04  0.25500000000E-02 0.  1.
    8880023    1    1    2    0    0  0.98148288782E+01  0.11189943010E+04  0.19614902245E+04  0.23523389814E+04  0.65864270000E+03 0.  0.
    8880022    1    1    2    0    0 -0.98148288782E+01 -0.11189943010E+04 -0.64914655134E+03  0.13027000709E+04  0.15294330000E+03 0.  0.
<mgrwt>
<rscale>  0 0.12539861E+04</rscale>
<asrwt>0</asrwt>
<pdfrwt beam="1">  1        2 0.38210636E+00 0.12984817E+04</pdfrwt>
<pdfrwt beam="2">  1       -2 0.18020734E+00 0.12984817E+04</pdfrwt>
<totfact> 0.61948465E-01</totfact>
</mgrwt>
</event>
<event>
 4    5  0.1905771E-007  0.1316293E+04  0.7818608E-02  0.9051616E-01
         -2   -1    0    0    0  501 -0.00000000000E+00  0.00000000000E+00  0.48183292317E+03  0.48183292317E+03  0.25500000000E-02 0.  1.
          2   -1    0    0  501    0  0.00000000000E+00 -0.00000000000E+00 -0.32309738094E+04  0.32309738094E+04  0.25500000000E-02 0. -1.
    8880023    1    1    2    0    0 -0.30897989002E+03  0.10969725172E+04 -0.17479880785E+04  0.21881704240E+04  0.65864270000E+03 0.  0.
    8880022    1    1    2    0    0  0.30897989002E+03 -0.10969725172E+04 -0.10011528078E+04  0.15246363086E+04  0.15294330000E+03 0.  0.
<mgrwt>
<rscale>  0 0.12725562E+04</rscale>
<asrwt>0</asrwt>
<pdfrwt beam="1">  1        2 0.49707288E+00 0.13162931E+04</pdfrwt>
<pdfrwt beam="2">  1       -2 0.74128144E-01 0.13162931E+04</pdfrwt>
<totfact> 0.19961924E+00</totfact>
</mgrwt>
</event>
<event>
 4    5  0.1905771E-007  0.1312879E+04  0.7818608E-02  0.9054517E-01
         -2   -1    0    0    0  501 -0.00000000000E+00  0.00000000000E+00  0.10610955132E+04  0.10610955132E+04  0.25500000000E-02 0.  1.
          2   -1    0    0  501    0  0.00000000000E+00 -0.00000000000E+00 -0.20426172227E+04  0.20426172227E+04  0.25500000000E-02 0. -1.
    8880023    1    1    2    0    0 -0.10687707020E+04  0.38414927106E+03 -0.13663319348E+04  0.18948653351E+04  0.65864270000E+03 0.  0.
    8880022    1    1    2    0    0  0.10687707020E+04 -0.38414927106E+03  0.38481022529E+03  0.12088474008E+04  0.15294330000E+03 0.  0.
<mgrwt>
<rscale>  0 0.12689990E+04</rscale>
<asrwt>0</asrwt>
<pdfrwt beam="1">  1        2 0.31424880E+00 0.13128792E+04</pdfrwt>
<pdfrwt beam="2">  1       -2 0.16324546E+00 0.13128792E+04</pdfrwt>
<totfact> 0.14486607E+00</totfact>
</mgrwt>
</event>
<event>
 4    5  0.1905771E-007  0.6621367E+03  0.7818608E-02  0.1022067E+00
          2   -1    0    0  501    0  0.00000000000E+00  0.00000000000E+00  0.93411412655E+03  0.93411412655E+03  0.25500000000E-02 0. -1.
         -2   -1    0    0    0  501 -0.00000000000E+00 -0.00000000000E+00 -0.16418998424E+04  0.16418998425E+04  0.25500000000E-02 0.  1.
    8880023    1    1    2    0    0  0.51069706448E+02  0.44796467793E+02  0.81160275757E+03  0.10474369102E+04  0.65864270000E+03 0. -1.
    8880022    1    1    2    0    0 -0.51069706448E+02 -0.44796467793E+02 -0.15193884735E+04  0.15285770588E+04  0.15294330000E+03 0.  0.
<mgrwt>
<rscale>  0 0.46948108E+03</rscale>
<asrwt>0</asrwt>
<pdfrwt beam="1">  1        2 0.14370987E+00 0.66213673E+03</pdfrwt>
<pdfrwt beam="2">  1       -2 0.25259998E+00 0.66213673E+03</pdfrwt>
<totfact> 0.18093898E+00</totfact>
</mgrwt>
</event>
<event>
 4    5  0.1905771E-007  0.1110364E+04  0.7818608E-02  0.9249604E-01
          2   -1    0    0  501    0  0.00000000000E+00  0.00000000000E+00  0.77286215961E+03  0.77286215961E+03  0.25500000000E-02 0. -1.
         -2   -1    0    0    0  501 -0.00000000000E+00 -0.00000000000E+00 -0.15421839092E+04  0.15421839092E+04  0.25500000000E-02 0.  1.
    8880023    1    1    2    0    0 -0.88459884079E+03 -0.12877594403E+03  0.23257441144E+02  0.11106077020E+04  0.65864270000E+03 0. -1.
    8880022    1    1    2    0    0  0.88459884079E+03  0.12877594403E+03 -0.79257919078E+03  0.12044383669E+04  0.15294330000E+03 0.  0.
<mgrwt>
<rscale>  0 0.10555782E+04</rscale>
<asrwt>0</asrwt>
<pdfrwt beam="1">  1        2 0.11890187E+00 0.11103642E+04</pdfrwt>
<pdfrwt beam="2">  1       -2 0.23725906E+00 0.11103642E+04</pdfrwt>
<totfact> 0.27351678E+00</totfact>
</mgrwt>
</event>
<event>
 4    5  0.1905771E-007  0.7089530E+03  0.7818608E-02  0.9961909E-01
         -2   -1    0    0    0  501 -0.00000000000E+00  0.00000000000E+00  0.13942286897E+03  0.13942286899E+03  0.25500000000E-02 0.  1.
          2   -1    0    0  501    0  0.00000000000E+00 -0.00000000000E+00 -0.23785050430E+04  0.23785050430E+04  0.25500000000E-02 0. -1.
    8880023    1    1    2    0    0 -0.53214275803E+02  0.25685104656E+03 -0.20274115574E+04  0.21477923663E+04  0.65864270000E+03 0.  0.
    8880022    1    1    2    0    0  0.53214275803E+02 -0.25685104656E+03 -0.21167061668E+03  0.37013554578E+03  0.15294330000E+03 0.  0.
<mgrwt>
<rscale>  0 0.57352459E+03</rscale>
<asrwt>0</asrwt>
<pdfrwt beam="1">  1        2 0.36592382E+00 0.70895305E+03</pdfrwt>
<pdfrwt beam="2">  1       -2 0.21449674E-01 0.70895305E+03</pdfrwt>
<totfact> 0.80298398E+01</totfact>
</mgrwt>
</event>
<event>
 4    5  0.1905771E-007  0.7357360E+03  0.7818608E-02  0.9872546E-01
          2   -1    0    0  501    0  0.00000000000E+00  0.00000000000E+00  0.18265086156E+04  0.18265086156E+04  0.25500000000E-02 0. -1.
         -2   -1    0    0    0  501 -0.00000000000E+00 -0.00000000000E+00 -0.52300057825E+03  0.52300057825E+03  0.25500000000E-02 0.  1.
    8880023    1    1    2    0    0  0.32091674415E+03  0.67154801694E+02  0.16759162470E+04  0.18303012860E+04  0.65864270000E+03 0. -1.
    8880022    1    1    2    0    0 -0.32091674415E+03 -0.67154801694E+02 -0.37240820962E+03  0.51920790795E+03  0.15294330000E+03 0.  0.
<mgrwt>
<rscale>  0 0.61610454E+03</rscale>
<asrwt>0</asrwt>
<pdfrwt beam="1">  1        2 0.28100132E+00 0.73573605E+03</pdfrwt>
<pdfrwt beam="2">  1       -2 0.80461629E-01 0.73573605E+03</pdfrwt>
<totfact> 0.11760626E+01</totfact>
</mgrwt>
</event>
<event>
 4    5  0.1905771E-007  0.7227961E+03  0.7818608E-02  0.9913236E-01
          2   -1    0    0  501    0  0.00000000000E+00  0.00000000000E+00  0.32753162234E+04  0.32753162234E+04  0.25500000000E-02 0. -1.
         -2   -1    0    0    0  501 -0.00000000000E+00 -0.00000000000E+00 -0.12161075646E+03  0.12161075648E+03  0.25500000000E-02 0.  1.
    8880023    1    1    2    0    0 -0.23141009207E+03 -0.18727888554E+03  0.28654900925E+04  0.29552440996E+04  0.65864270000E+03 0. -1.
    8880022    1    1    2    0    0  0.23141009207E+03  0.18727888554E+03  0.28821537448E+03  0.44168288033E+03  0.15294330000E+03 0.  0.
<mgrwt>
<rscale>  0 0.59624081E+03</rscale>
<asrwt>0</asrwt>
<pdfrwt beam="1">  1        2 0.50389488E+00 0.72279611E+03</pdfrwt>
<pdfrwt beam="2">  1       -2 0.18709344E-01 0.72279611E+03</pdfrwt>
<totfact> 0.29726052E+01</totfact>
</mgrwt>
</event>
<event>
 4    5  0.1905771E-007  0.9889417E+03  0.7818608E-02  0.9396170E-01
          2   -1    0    0  501    0  0.00000000000E+00  0.00000000000E+00  0.24556412956E+04  0.24556412956E+04  0.25500000000E-02 0. -1.
         -2   -1    0    0    0  501 -0.00000000000E+00 -0.00000000000E+00 -0.41825260546E+03  0.41825260547E+03  0.25500000000E-02 0.  1.
    8880023    1    1    2    0    0  0.20564774291E+03 -0.70845212102E+03  0.18497143982E+04  0.20974863439E+04  0.65864270000E+03 0.  0.
    8880022    1    1    2    0    0 -0.20564774291E+03  0.70845212102E+03  0.18767429200E+03  0.77640755717E+03  0.15294330000E+03 0.  0.
<mgrwt>
<rscale>  0 0.92391510E+03</rscale>
<asrwt>0</asrwt>
<pdfrwt beam="1">  1        2 0.37779097E+00 0.98894166E+03</pdfrwt>
<pdfrwt beam="2">  1       -2 0.64346554E-01 0.98894166E+03</pdfrwt>
<totfact> 0.83388750E+00</totfact>
</mgrwt>
</event>
<event>
 4    5  0.1905771E-007  0.8480182E+03  0.7818608E-02  0.9615243E-01
          2   -1    0    0  501    0  0.00000000000E+00  0.00000000000E+00  0.21856653764E+04  0.21856653764E+04  0.25500000000E-02 0. -1.
         -2   -1    0    0    0  501 -0.00000000000E+00 -0.00000000000E+00 -0.38265198262E+03  0.38265198263E+03  0.25500000000E-02 0.  1.
    8880023    1    1    2    0    0  0.59539946458E+02 -0.53082916338E+03  0.18248505735E+04  0.20122659933E+04  0.65864270000E+03 0.  0.
    8880022    1    1    2    0    0 -0.59539946458E+02  0.53082916338E+03 -0.21837179711E+02  0.55605136575E+03  0.15294330000E+03 0.  0.
<mgrwt>
<rscale>  0 0.76295479E+03</rscale>
<asrwt>0</asrwt>
<pdfrwt beam="1">  1        2 0.33625622E+00 0.84801817E+03</pdfrwt>
<pdfrwt beam="2">  1       -2 0.58869534E-01 0.84801817E+03</pdfrwt>
<totfact> 0.14537748E+01</totfact>
</mgrwt>
</event>
<event>
 4    5  0.2088030E-007  0.1249050E+04  0.7818608E-02  0.9110857E-01
          2   -1    0    0  501    0  0.00000000000E+00  0.00000000000E+00  0.17075011534E+04  0.17075011534E+04  0.25500000000E-02 0. -1.
         -2   -1    0    0    0  501 -0.00000000000E+00 -0.00000000000E+00 -0.22002230952E+04  0.22002230952E+04  0.25500000000E-02 0.  1.
    8880023    1    1    2    0    0 -0.71489596934E+03 -0.78437128383E+03  0.13101189138E+04  0.18101205298E+04  0.65864270000E+03 0.  0.
    8880022    1    1    2    0    0  0.71489596934E+03  0.78437128383E+03 -0.18028408556E+04  0.20976037189E+04  0.15294330000E+03 0.  0.
<mgrwt>
<rscale>  0 0.12022869E+04</rscale>
<asrwt>0</asrwt>
<pdfrwt beam="1">  1        2 0.26269248E+00 0.12490495E+04</pdfrwt>
<pdfrwt beam="2">  1       -2 0.33849586E+00 0.12490495E+04</pdfrwt>
<totfact> 0.17349420E-01</totfact>
</mgrwt>
</event>
<event>
 4    5  0.1905771E-007  0.1181243E+04  0.7818608E-02  0.9175575E-01
         -2   -1    0    0    0  501 -0.00000000000E+00  0.00000000000E+00  0.12023997613E+04  0.12023997613E+04  0.25500000000E-02 0.  1.
          2   -1    0    0  501    0  0.00000000000E+00 -0.00000000000E+00 -0.11735461887E+04  0.11735461887E+04  0.25500000000E-02 0. -1.
    8880023    1    1    2    0    0  0.24210110973E+03  0.95021665025E+03 -0.46247876336E+03  0.12685509223E+04  0.65864270000E+03 0. -1.
    8880022    1    1    2    0    0 -0.24210110973E+03 -0.95021665025E+03  0.49133233601E+03  0.11073950276E+04  0.15294330000E+03 0.  0.
<mgrwt>
<rscale>  0 0.11309133E+04</rscale>
<asrwt>0</asrwt>
<pdfrwt beam="1">  1        2 0.18054557E+00 0.11812429E+04</pdfrwt>
<pdfrwt beam="2">  1       -2 0.18498458E+00 0.11812429E+04</pdfrwt>
<totfact> 0.32042648E+00</totfact>
</mgrwt>
</event>
<event>
 4    5  0.1905771E-007  0.8208203E+03  0.7818608E-02  0.9667464E-01
         -2   -1    0    0    0  501 -0.00000000000E+00  0.00000000000E+00  0.11072391736E+03  0.11072391739E+03  0.25500000000E-02 0.  1.
          2   -1    0    0  501    0  0.00000000000E+00 -0.00000000000E+00 -0.40181621888E+04  0.40181621888E+04  0.25500000000E-02 0. -1.
    8880023    1    1    2    0    0 -0.29606347092E+03 -0.39023344339E+03 -0.23865741616E+04  0.25237833018E+04  0.65864270000E+03 0.  1.
    8880022    1    1    2    0    0  0.29606347092E+03  0.39023344339E+03 -0.15208641098E+04  0.16051028044E+04  0.15294330000E+03 0. -1.
<mgrwt>
<rscale>  0 0.72987428E+03</rscale>
<asrwt>0</asrwt>
<pdfrwt beam="1">  1        2 0.61817869E+00 0.82082028E+03</pdfrwt>
<pdfrwt beam="2">  1       -2 0.17034452E-01 0.82082028E+03</pdfrwt>
<totfact> 0.10142890E+01</totfact>
</mgrwt>
</event>
<event>
 4    5  0.1905771E-007  0.9958061E+03  0.7818608E-02  0.9387065E-01
         -2   -1    0    0    0  501 -0.00000000000E+00  0.00000000000E+00  0.15525672559E+04  0.15525672559E+04  0.25500000000E-02 0.  1.
          2   -1    0    0  501    0  0.00000000000E+00 -0.00000000000E+00 -0.12305072565E+04  0.12305072565E+04  0.25500000000E-02 0. -1.
    8880023    1    1    2    0    0 -0.61441618955E+02 -0.74434167975E+03 -0.90030594165E+03  0.13424532035E+04  0.65864270000E+03 0.  0.
    8880022    1    1    2    0    0  0.61441618955E+02  0.74434167975E+03  0.12223659411E+04  0.14406213089E+04  0.15294330000E+03 0.  0.
<mgrwt>
<rscale>  0 0.93147852E+03</rscale>
<asrwt>0</asrwt>
<pdfrwt beam="1">  1        2 0.18930881E+00 0.99580611E+03</pdfrwt>
<pdfrwt beam="2">  1       -2 0.23885650E+00 0.99580611E+03</pdfrwt>
<totfact> 0.13625316E+00</totfact>
</mgrwt>
</event>
<event>
 4    5  0.1905771E-007  0.9096583E+03  0.7818608E-02  0.9510701E-01
         -2   -1    0    0    0  501 -0.00000000000E+00  0.00000000000E+00  0.13490231776E+04  0.13490231776E+04  0.25500000000E-02 0.  1.
          2   -1    0    0  501    0  0.00000000000E+00 -0.00000000000E+00 -0.13569307680E+04  0.13569307680E+04  0.25500000000E-02 0. -1.
    8880023    1    1    2    0    0  0.18436640658E+02 -0.62715873349E+03 -0.11060028432E+04  0.14320336875E+04  0.65864270000E+03 0. -1.
    8880022    1    1    2    0    0 -0.18436640658E+02  0.62715873349E+03  0.10980952528E+04  0.12739202581E+04  0.15294330000E+03 0.  0.
<mgrwt>
<rscale>  0 0.83499424E+03</rscale>
<asrwt>0</asrwt>
<pdfrwt beam="1">  1        2 0.20875858E+00 0.90965828E+03</pdfrwt>
<pdfrwt beam="2">  1       -2 0.20754203E+00 0.90965828E+03</pdfrwt>
<totfact> 0.18294494E+00</totfact>
</mgrwt>
</event>
<event>
 4    5  0.1905771E-007  0.8557828E+03  0.7818608E-02  0.9601110E-01
          2   -1    0    0  501    0  0.00000000000E+00  0.00000000000E+00  0.13381630544E+04  0.13381630544E+04  0.25500000000E-02 0. -1.
         -2   -1    0    0    0  501 -0.00000000000E+00 -0.00000000000E+00 -0.14657686786E+04  0.14657686786E+04  0.25500000000E-02 0.  1.
    8880023    1    1    2    0    0 -0.39988154914E+03 -0.37235556144E+03  0.11339582093E+04  0.14206425815E+04  0.65864270000E+03 0. -1.
    8880022    1    1    2    0    0  0.39988154914E+03  0.37235556144E+03 -0.12615638336E+04  0.13832891515E+04  0.15294330000E+03 0.  0.
<mgrwt>
<rscale>  0 0.77222784E+03</rscale>
<asrwt>0</asrwt>
<pdfrwt beam="1">  1        2 0.20587124E+00 0.85578275E+03</pdfrwt>
<pdfrwt beam="2">  1       -2 0.22550287E+00 0.85578275E+03</pdfrwt>
<totfact> 0.14555554E+00</totfact>
</mgrwt>
</event>
<event>
 4    5  0.1905771E-007  0.9590341E+03  0.7818608E-02  0.9437233E-01
         -2   -1    0    0    0  501 -0.00000000000E+00  0.00000000000E+00  0.89990461968E+03  0.89990461968E+03  0.25500000000E-02 0.  1.
          2   -1    0    0  501    0  0.00000000000E+00 -0.00000000000E+00 -0.10051255441E+04  0.10051255441E+04  0.25500000000E-02 0. -1.
    8880023    1    1    2    0    0 -0.58985107131E+03  0.37149958702E+03 -0.50828490508E+03  0.10854031419E+04  0.65864270000E+03 0. -1.
    8880022    1    1    2    0    0  0.58985107131E+03 -0.37149958702E+03  0.40306398065E+03  0.81962702188E+03  0.15294330000E+03 0.  0.
<mgrwt>
<rscale>  0 0.89073850E+03</rscale>
<asrwt>0</asrwt>
<pdfrwt beam="1">  1        2 0.15463470E+00 0.95903412E+03</pdfrwt>
<pdfrwt beam="2">  1       -2 0.13844687E+00 0.95903412E+03</pdfrwt>
<totfact> 0.91996146E+00</totfact>
</mgrwt>
</event>
<event>
 4    5  0.1905771E-007  0.8171579E+03  0.7818608E-02  0.9674856E-01
          2   -1    0    0  501    0  0.00000000000E+00  0.00000000000E+00  0.26325339225E+04  0.26325339225E+04  0.25500000000E-02 0. -1.
         -2   -1    0    0    0  501 -0.00000000000E+00 -0.00000000000E+00 -0.30947112679E+03  0.30947112680E+03  0.25500000000E-02 0.  1.
    8880023    1    1    2    0    0 -0.46925955392E+03  0.11718506467E+03  0.22925293277E+04  0.24338113716E+04  0.65864270000E+03 0.  0.
    8880022    1    1    2    0    0  0.46925955392E+03 -0.11718506467E+03  0.30533468068E+02  0.50819367766E+03  0.15294330000E+03 0.  0.
<mgrwt>
<rscale>  0 0.72533810E+03</rscale>
<asrwt>0</asrwt>
<pdfrwt beam="1">  1        2 0.40500522E+00 0.81715793E+03</pdfrwt>
<pdfrwt beam="2">  1       -2 0.47610943E-01 0.81715793E+03</pdfrwt>
<totfact> 0.12663304E+01</totfact>
</mgrwt>
</event>
<event>
 4    5  0.1905771E-007  0.7886711E+03  0.7818608E-02  0.9735849E-01
         -2   -1    0    0    0  501 -0.00000000000E+00  0.00000000000E+00  0.50442849596E+03  0.50442849597E+03  0.25500000000E-02 0.  1.
          2   -1    0    0  501    0  0.00000000000E+00 -0.00000000000E+00 -0.20621769120E+04  0.20621769120E+04  0.25500000000E-02 0. -1.
    8880023    1    1    2    0    0  0.42458597942E+03 -0.88987114949E+02 -0.18572126288E+04  0.20177316262E+04  0.65864270000E+03 0. -1.
    8880022    1    1    2    0    0 -0.42458597942E+03  0.88987114949E+02  0.29946421277E+03  0.54887378175E+03  0.15294330000E+03 0.  0.
<mgrwt>
<rscale>  0 0.68921896E+03</rscale>
<asrwt>0</asrwt>
<pdfrwt beam="1">  1        2 0.31725798E+00 0.78867114E+03</pdfrwt>
<pdfrwt beam="2">  1       -2 0.77604385E-01 0.78867114E+03</pdfrwt>
<totfact> 0.94120072E+00</totfact>
</mgrwt>
</event>
<event>
 4    5  0.1905771E-007  0.2262366E+04  0.7818608E-02  0.8502429E-01
          2   -1    0    0  501    0  0.00000000000E+00  0.00000000000E+00  0.24433802608E+04  0.24433802608E+04  0.25500000000E-02 0. -1.
         -2   -1    0    0    0  501 -0.00000000000E+00 -0.00000000000E+00 -0.23723069176E+04  0.23723069176E+04  0.25500000000E-02 0.  1.
    8880023    1    1    2    0    0 -0.21588420409E+04 -0.15456459778E+03  0.97710507626E+03  0.24643525942E+04  0.65864270000E+03 0.  0.
    8880022    1    1    2    0    0  0.21588420409E+04  0.15456459778E+03 -0.90603173311E+03  0.23513345842E+04  0.15294330000E+03 0.  0.
<mgrwt>
<rscale>  0 0.22388516E+04</rscale>
<asrwt>0</asrwt>
<pdfrwt beam="1">  1        2 0.37590465E+00 0.22623659E+04</pdfrwt>
<pdfrwt beam="2">  1       -2 0.36497030E+00 0.22623659E+04</pdfrwt>
<totfact> 0.40415980E-02</totfact>
</mgrwt>
</event>
<event>
 4    5  0.1905771E-007  0.1071950E+04  0.7818608E-02  0.9292949E-01
         -2   -1    0    0    0  501 -0.00000000000E+00  0.00000000000E+00  0.36072378419E+03  0.36072378419E+03  0.25500000000E-02 0.  1.
          2   -1    0    0  501    0  0.00000000000E+00 -0.00000000000E+00 -0.32034024041E+04  0.32034024041E+04  0.25500000000E-02 0. -1.
    8880023    1    1    2    0    0  0.55508680218E+03  0.63807859770E+03 -0.23265084410E+04  0.25615849365E+04  0.65864270000E+03 0.  0.
    8880022    1    1    2    0    0 -0.55508680218E+03 -0.63807859770E+03 -0.51617017886E+03  0.10025412517E+04  0.15294330000E+03 0.  0.
<mgrwt>
<rscale>  0 0.10143460E+04</rscale>
<asrwt>0</asrwt>
<pdfrwt beam="1">  1        2 0.49283112E+00 0.10719496E+04</pdfrwt>
<pdfrwt beam="2">  1       -2 0.55495969E-01 0.10719496E+04</pdfrwt>
<totfact> 0.40062875E+00</totfact>
</mgrwt>
</event>
<event>
 4    5  0.1905771E-007  0.6780619E+03  0.7818608E-02  0.1010442E+00
          2   -1    0    0  501    0  0.00000000000E+00  0.00000000000E+00  0.13228222685E+04  0.13228222685E+04  0.25500000000E-02 0. -1.
         -2   -1    0    0    0  501 -0.00000000000E+00 -0.00000000000E+00 -0.53928590385E+03  0.53928590386E+03  0.25500000000E-02 0.  1.
    8880023    1    1    2    0    0  0.49101601427E+02  0.15344972404E+03  0.12067116899E+04  0.13841680150E+04  0.65864270000E+03 0. -1.
    8880022    1    1    2    0    0 -0.49101601427E+02 -0.15344972404E+03 -0.42317532524E+03  0.47794015732E+03  0.15294330000E+03 0.  0.
<mgrwt>
<rscale>  0 0.51299402E+03</rscale>
<asrwt>0</asrwt>
<pdfrwt beam="1">  1        2 0.20351112E+00 0.67806194E+03</pdfrwt>
<pdfrwt beam="2">  1       -2 0.82967062E-01 0.67806194E+03</pdfrwt>
<totfact> 0.21021321E+01</totfact>
</mgrwt>
</event>
<event>
 4    5  0.1905771E-007  0.7613881E+03  0.7818608E-02  0.9801527E-01
          2   -1    0    0  501    0  0.00000000000E+00  0.00000000000E+00  0.32774186108E+04  0.32774186108E+04  0.25500000000E-02 0. -1.
         -2   -1    0    0    0  501 -0.00000000000E+00 -0.00000000000E+00 -0.14034339026E+03  0.14034339028E+03  0.25500000000E-02 0.  1.
    8880023    1    1    2    0    0 -0.37520081574E+03 -0.71596082987E+02  0.10890338914E+04  0.13287989592E+04  0.65864270000E+03 0.  1.
    8880022    1    1    2    0    0  0.37520081574E+03  0.71596082987E+02  0.20480413291E+04  0.20889630418E+04  0.15294330000E+03 0.  0.
<mgrwt>
<rscale>  0 0.65280661E+03</rscale>
<asrwt>0</asrwt>
<pdfrwt beam="1">  1        2 0.50421828E+00 0.76138811E+03</pdfrwt>
<pdfrwt beam="2">  1       -2 0.21591289E-01 0.76138811E+03</pdfrwt>
<totfact> 0.22911323E+01</totfact>
</mgrwt>
</event>
<event>
 4    5  0.1905771E-007  0.8170413E+03  0.7818608E-02  0.9675093E-01
          2   -1    0    0  501    0  0.00000000000E+00  0.00000000000E+00  0.57991965200E+03  0.57991965200E+03  0.25500000000E-02 0. -1.
         -2   -1    0    0    0  501 -0.00000000000E+00 -0.00000000000E+00 -0.10673422481E+04  0.10673422481E+04  0.25500000000E-02 0.  1.
    8880023    1    1    2    0    0 -0.17267453644E+03  0.45158586300E+03  0.15211825988E+03  0.83108149928E+03  0.65864270000E+03 0.  0.
    8880022    1    1    2    0    0  0.17267453644E+03 -0.45158586300E+03 -0.63954085597E+03  0.81618040081E+03  0.15294330000E+03 0.  0.
<mgrwt>
<rscale>  0 0.72519329E+03</rscale>
<asrwt>0</asrwt>
<pdfrwt beam="1">  1        2 0.89218408E-01 0.81704130E+03</pdfrwt>
<pdfrwt beam="2">  1       -2 0.16420650E+00 0.81704130E+03</pdfrwt>
<totfact> 0.12231475E+01</totfact>
</mgrwt>
</event>
<event>
 4    5  0.1905771E-007  0.6763686E+03  0.7818608E-02  0.1011457E+00
          2   -1    0    0  501    0  0.00000000000E+00  0.00000000000E+00  0.21149460122E+04  0.21149460122E+04  0.25500000000E-02 0. -1.
         -2   -1    0    0    0  501 -0.00000000000E+00 -0.00000000000E+00 -0.16259101305E+03  0.16259101307E+03  0.25500000000E-02 0.  1.
    8880023    1    1    2    0    0 -0.13997039918E+03 -0.63816627120E+02  0.19463583788E+04  0.20605303733E+04  0.65864270000E+03 0.  0.
    8880022    1    1    2    0    0  0.13997039918E+03  0.63816627120E+02  0.59966204399E+01  0.21700665201E+03  0.15294330000E+03 0.  1.
<mgrwt>
<rscale>  0 0.50899600E+03</rscale>
<asrwt>0</asrwt>
<pdfrwt beam="1">  1        2 0.32537634E+00 0.67636860E+03</pdfrwt>
<pdfrwt beam="2">  1       -2 0.25014000E-01 0.67636860E+03</pdfrwt>
<totfact> 0.85696388E+01</totfact>
</mgrwt>
</event>
<event>
 4    5  0.1905771E-007  0.1169462E+04  0.7818608E-02  0.9187394E-01
         -2   -1    0    0    0  501 -0.00000000000E+00  0.00000000000E+00  0.16533650343E+04  0.16533650344E+04  0.25500000000E-02 0.  1.
          2   -1    0    0  501    0  0.00000000000E+00 -0.00000000000E+00 -0.12301121556E+04  0.12301121556E+04  0.25500000000E-02 0. -1.
    8880023    1    1    2    0    0  0.18826936188E+03  0.94783218717E+03  0.11688074522E+04  0.16534062641E+04  0.65864270000E+03 0.  0.
    8880022    1    1    2    0    0 -0.18826936188E+03 -0.94783218717E+03 -0.74555457345E+03  0.12300709259E+04  0.15294330000E+03 0.  0.
<mgrwt>
<rscale>  0 0.11184491E+04</rscale>
<asrwt>0</asrwt>
<pdfrwt beam="1">  1        2 0.18924802E+00 0.11694620E+04</pdfrwt>
<pdfrwt beam="2">  1       -2 0.25436385E+00 0.11694620E+04</pdfrwt>
<totfact> 0.10718554E+00</totfact>
</mgrwt>
</event>
<event>
 4    5  0.1905771E-007  0.9545538E+03  0.7818608E-02  0.9443592E-01
          2   -1    0    0  501    0  0.00000000000E+00  0.00000000000E+00  0.29479987161E+04  0.29479987161E+04  0.25500000000E-02 0. -1.
         -2   -1    0    0    0  501 -0.00000000000E+00 -0.00000000000E+00 -0.29640162580E+03  0.29640162582E+03  0.25500000000E-02 0.  1.
    8880023    1    1    2    0    0  0.29471695981E+03  0.62490378166E+03  0.74546380731E+03  0.12111520619E+04  0.65864270000E+03 0.  0.
    8880022    1    1    2    0    0 -0.29471695981E+03 -0.62490378166E+03  0.19061332830E+04  0.20332482800E+04  0.15294330000E+03 0.  0.
<mgrwt>
<rscale>  0 0.88573422E+03</rscale>
<asrwt>0</asrwt>
<pdfrwt beam="1">  1        2 0.45353827E+00 0.95455384E+03</pdfrwt>
<pdfrwt beam="2">  1       -2 0.45600250E-01 0.95455384E+03</pdfrwt>
<totfact> 0.87985345E+00</totfact>
</mgrwt>
</event>
<event>
 4    5  0.1905771E-007  0.1808784E+04  0.7818608E-02  0.8717693E-01
          2   -1    0    0  501    0  0.00000000000E+00  0.00000000000E+00  0.38809090285E+04  0.38809090285E+04  0.25500000000E-02 0. -1.
         -2   -1    0    0    0  501 -0.00000000000E+00 -0.00000000000E+00 -0.12385148753E+04  0.12385148753E+04  0.25500000000E-02 0.  1.
    8880023    1    1    2    0    0  0.16505704228E+04  0.33690713035E+03  0.28904999652E+04  0.34097931594E+04  0.65864270000E+03 0.  0.
    8880022    1    1    2    0    0 -0.16505704228E+04 -0.33690713035E+03 -0.24810581201E+03  0.17096307444E+04  0.15294330000E+03 0.  0.
<mgrwt>
<rscale>  0 0.17787302E+04</rscale>
<asrwt>0</asrwt>
<pdfrwt beam="1">  1        2 0.59706291E+00 0.18087839E+04</pdfrwt>
<pdfrwt beam="2">  1       -2 0.19054076E+00 0.18087839E+04</pdfrwt>
<totfact> 0.59934522E-02</totfact>
</mgrwt>
</event>
<event>
 4    5  0.1905771E-007  0.1417764E+04  0.7818608E-02  0.8970001E-01
         -2   -1    0    0    0  501 -0.00000000000E+00  0.00000000000E+00  0.12387987364E+04  0.12387987364E+04  0.25500000000E-02 0.  1.
          2   -1    0    0  501    0  0.00000000000E+00 -0.00000000000E+00 -0.23789774539E+04  0.23789774539E+04  0.25500000000E-02 0. -1.
    8880023    1    1    2    0    0 -0.12168024940E+04  0.30925124658E+03 -0.17178378518E+04  0.22273351195E+04  0.65864270000E+03 0.  0.
    8880022    1    1    2    0    0  0.12168024940E+04 -0.30925124658E+03  0.57765913433E+03  0.13904410708E+04  0.15294330000E+03 0.  0.
<mgrwt>
<rscale>  0 0.13778617E+04</rscale>
<asrwt>0</asrwt>
<pdfrwt beam="1">  1        2 0.36599653E+00 0.14177640E+04</pdfrwt>
<pdfrwt beam="2">  1       -2 0.19058442E+00 0.14177640E+04</pdfrwt>
<totfact> 0.59559392E-01</totfact>
</mgrwt>
</event>
<event>
 4    5  0.1905771E-007  0.8148405E+03  0.7818608E-02  0.9679581E-01
         -2   -1    0    0    0  501 -0.00000000000E+00  0.00000000000E+00  0.74846475005E+03  0.74846475005E+03  0.25500000000E-02 0.  1.
          2   -1    0    0  501    0  0.00000000000E+00 -0.00000000000E+00 -0.28835957435E+04  0.28835957435E+04  0.25500000000E-02 0. -1.
    8880023    1    1    2    0    0  0.46707646673E+03 -0.10951881341E+03 -0.27321372474E+04  0.28510592665E+04  0.65864270000E+03 0. -1.
    8880022    1    1    2    0    0 -0.46707646673E+03  0.10951881341E+03  0.59700625399E+03  0.78100122700E+03  0.15294330000E+03 0.  0.
<mgrwt>
<rscale>  0 0.72245639E+03</rscale>
<asrwt>0</asrwt>
<pdfrwt beam="1">  1        2 0.44363011E+00 0.81484048E+03</pdfrwt>
<pdfrwt beam="2">  1       -2 0.11514842E+00 0.81484048E+03</pdfrwt>
<totfact> 0.12686425E+00</totfact>
</mgrwt>
</event>
<event>
 4    5  0.1905771E-007  0.9857995E+03  0.7818608E-02  0.9400377E-01
          2   -1    0    0  501    0  0.00000000000E+00  0.00000000000E+00  0.18193673910E+04  0.18193673910E+04  0.25500000000E-02 0. -1.
         -2   -1    0    0    0  501 -0.00000000000E+00 -0.00000000000E+00 -0.58787004749E+03  0.58787004750E+03  0.25500000000E-02 0.  1.
    8880023    1    1    2    0    0  0.31788398028E+03 -0.66101451420E+03  0.13257331457E+04  0.16520802017E+04  0.65864270000E+03 0. -1.
    8880022    1    1    2    0    0 -0.31788398028E+03  0.66101451420E+03 -0.94235802200E+02  0.75515723682E+03  0.15294330000E+03 0.  0.
<mgrwt>
<rscale>  0 0.92044694E+03</rscale>
<asrwt>0</asrwt>
<pdfrwt beam="1">  1        2 0.27990267E+00 0.98579948E+03</pdfrwt>
<pdfrwt beam="2">  1       -2 0.90441547E-01 0.98579948E+03</pdfrwt>
<totfact> 0.88018547E+00</totfact>
</mgrwt>
</event>
<event>
 4    5  0.1905771E-007  0.8221623E+03  0.7818608E-02  0.9664779E-01
          2   -1    0    0  501    0  0.00000000000E+00  0.00000000000E+00  0.78594990896E+03  0.78594990896E+03  0.25500000000E-02 0. -1.
         -2   -1    0    0    0  501 -0.00000000000E+00 -0.00000000000E+00 -0.84632751892E+03  0.84632751892E+03  0.25500000000E-02 0.  1.
    8880023    1    1    2    0    0 -0.39446397774E+03  0.29417491355E+03  0.42400581701E+03  0.92505775421E+03  0.65864270000E+03 0.  0.
    8880022    1    1    2    0    0  0.39446397774E+03 -0.29417491355E+03 -0.48438342697E+03  0.70721967368E+03  0.15294330000E+03 0.  0.
<mgrwt>
<rscale>  0 0.73153122E+03</rscale>
<asrwt>0</asrwt>
<pdfrwt beam="1">  1        2 0.12091537E+00 0.82216234E+03</pdfrwt>
<pdfrwt beam="2">  1       -2 0.13020423E+00 0.82216234E+03</pdfrwt>
<totfact> 0.15374330E+01</totfact>
</mgrwt>
</event>
<event>
 4    5  0.1905771E-007  0.7229566E+03  0.7818608E-02  0.9912706E-01
          2   -1    0    0  501    0  0.00000000000E+00  0.00000000000E+00  0.27644896382E+04  0.27644896382E+04  0.25500000000E-02 0. -1.
         -2   -1    0    0    0  501 -0.00000000000E+00 -0.00000000000E+00 -0.10318542813E+04  0.10318542813E+04  0.25500000000E-02 0.  1.
    8880023    1    1    2    0    0  0.10638895529E+03  0.27845552236E+03  0.26882154799E+04  0.27837328824E+04  0.65864270000E+03 0. -1.
    8880022    1    1    2    0    0 -0.10638895529E+03 -0.27845552236E+03 -0.95558012310E+03  0.10126110371E+04  0.15294330000E+03 0.  0.
<mgrwt>
<rscale>  0 0.59649442E+03</rscale>
<asrwt>0</asrwt>
<pdfrwt beam="1">  1        2 0.42530610E+00 0.72295663E+03</pdfrwt>
<pdfrwt beam="2">  1       -2 0.15874681E+00 0.72295663E+03</pdfrwt>
<totfact> 0.66811337E-01</totfact>
</mgrwt>
</event>
<event>
 4    5  0.1905771E-007  0.1043126E+04  0.7818608E-02  0.9327191E-01
         -2   -1    0    0    0  501 -0.00000000000E+00  0.00000000000E+00  0.54395785935E+03  0.54395785935E+03  0.25500000000E-02 0.  1.
          2   -1    0    0  501    0  0.00000000000E+00 -0.00000000000E+00 -0.21753263767E+04  0.21753263767E+04  0.25500000000E-02 0. -1.
    8880023    1    1    2    0    0 -0.32833753316E+03  0.73925408027E+03 -0.15815268187E+04  0.18945552025E+04  0.65864270000E+03 0.  0.
    8880022    1    1    2    0    0  0.32833753316E+03 -0.73925408027E+03 -0.49841698706E+02  0.82472903358E+03  0.15294330000E+03 0.  0.
<mgrwt>
<rscale>  0 0.98317729E+03</rscale>
<asrwt>0</asrwt>
<pdfrwt beam="1">  1        2 0.33466559E+00 0.10431262E+04</pdfrwt>
<pdfrwt beam="2">  1       -2 0.83685826E-01 0.10431262E+04</pdfrwt>
<totfact> 0.66504007E+00</totfact>
</mgrwt>
</event>
<event>
 4    5  0.1905771E-007  0.1033678E+04  0.7818608E-02  0.9338765E-01
          2   -1    0    0  501    0  0.00000000000E+00  0.00000000000E+00  0.22509916240E+04  0.22509916240E+04  0.25500000000E-02 0. -1.
         -2   -1    0    0    0  501 -0.00000000000E+00 -0.00000000000E+00 -0.44044847626E+03  0.44044847627E+03  0.25500000000E-02 0.  1.
    8880023    1    1    2    0    0  0.40585962731E+03 -0.68553461424E+03  0.49546965592E+03  0.11462897237E+04  0.65864270000E+03 0.  0.
    8880022    1    1    2    0    0 -0.40585962731E+03  0.68553461424E+03  0.13150734918E+04  0.15451503766E+04  0.15294330000E+03 0.  0.
<mgrwt>
<rscale>  0 0.97291084E+03</rscale>
<asrwt>0</asrwt>
<pdfrwt beam="1">  1        2 0.34630641E+00 0.10336779E+04</pdfrwt>
<pdfrwt beam="2">  1       -2 0.67761304E-01 0.10336779E+04</pdfrwt>
<totfact> 0.96711860E+00</totfact>
</mgrwt>
</event>
<event>
 4    5  0.1905771E-007  0.8277708E+03  0.7818608E-02  0.9653685E-01
         -2   -1    0    0    0  501 -0.00000000000E+00  0.00000000000E+00  0.84303853900E+03  0.84303853900E+03  0.25500000000E-02 0.  1.
          2   -1    0    0  501    0  0.00000000000E+00 -0.00000000000E+00 -0.11674139549E+04  0.11674139549E+04  0.25500000000E-02 0. -1.
    8880023    1    1    2    0    0 -0.47658637998E+03 -0.15575554696E+03 -0.90617158756E+03  0.12273351296E+04  0.65864270000E+03 0. -1.
    8880022    1    1    2    0    0  0.47658637998E+03  0.15575554696E+03  0.58179617163E+03  0.78311736434E+03  0.15294330000E+03 0.  0.
<mgrwt>
<rscale>  0 0.73842591E+03</rscale>
<asrwt>0</asrwt>
<pdfrwt beam="1">  1        2 0.17960215E+00 0.82777085E+03</pdfrwt>
<pdfrwt beam="2">  1       -2 0.12969824E+00 0.82777085E+03</pdfrwt>
<totfact> 0.87438578E+00</totfact>
</mgrwt>
</event>
<event>
 4    5  0.1905771E-007  0.1193872E+04  0.7818608E-02  0.9163102E-01
         -2   -1    0    0    0  501 -0.00000000000E+00  0.00000000000E+00  0.13591207677E+04  0.13591207677E+04  0.25500000000E-02 0.  1.
          2   -1    0    0  501    0  0.00000000000E+00 -0.00000000000E+00 -0.13086716133E+04  0.13086716133E+04  0.25500000000E-02 0. -1.
    8880023    1    1    2    0    0  0.99172747272E+03 -0.89429504636E+02 -0.72474673408E+03  0.13966349026E+04  0.65864270000E+03 0.  0.
    8880022    1    1    2    0    0 -0.99172747272E+03  0.89429504636E+02  0.77519588841E+03  0.12711574784E+04  0.15294330000E+03 0.  1.
<mgrwt>
<rscale>  0 0.11442529E+04</rscale>
<asrwt>0</asrwt>
<pdfrwt beam="1">  1        2 0.20133409E+00 0.11938724E+04</pdfrwt>
<pdfrwt beam="2">  1       -2 0.20909550E+00 0.11938724E+04</pdfrwt>
<totfact> 0.18417737E+00</totfact>
</mgrwt>
</event>
<event>
 4    5  0.1905771E-007  0.1636384E+04  0.7818608E-02  0.8818888E-01
         -2   -1    0    0    0  501 -0.00000000000E+00  0.00000000000E+00  0.15289149043E+04  0.15289149043E+04  0.25500000000E-02 0.  1.
          2   -1    0    0  501    0  0.00000000000E+00 -0.00000000000E+00 -0.40973176813E+04  0.40973176813E+04  0.25500000000E-02 0. -1.
    8880023    1    1    2    0    0  0.10118132883E+04 -0.11046165759E+04 -0.34943632038E+04  0.38585396611E+04  0.65864270000E+03 0.  0.
    8880022    1    1    2    0    0 -0.10118132883E+04  0.11046165759E+04  0.92596042684E+03  0.17676929244E+04  0.15294330000E+03 0.  0.
<mgrwt>
<rscale>  0 0.16027046E+04</rscale>
<asrwt>0</asrwt>
<pdfrwt beam="1">  1        2 0.63035656E+00 0.16363845E+04</pdfrwt>
<pdfrwt beam="2">  1       -2 0.23521768E+00 0.16363845E+04</pdfrwt>
<totfact> 0.21125782E-02</totfact>
</mgrwt>
</event>
<event>
 4    5  0.1905771E-007  0.1355396E+04  0.7818608E-02  0.9019140E-01
          2   -1    0    0  501    0  0.00000000000E+00  0.00000000000E+00  0.16109482085E+04  0.16109482085E+04  0.25500000000E-02 0. -1.
         -2   -1    0    0    0  501 -0.00000000000E+00 -0.00000000000E+00 -0.22843587765E+04  0.22843587765E+04  0.25500000000E-02 0.  1.
    8880023    1    1    2    0    0  0.11455968045E+04 -0.30148886666E+03  0.11079151654E+04  0.17505924127E+04  0.65864270000E+03 0. -1.
    8880022    1    1    2    0    0 -0.11455968045E+04  0.30148886666E+03 -0.17813257335E+04  0.21447145724E+04  0.15294330000E+03 0.  0.
<mgrwt>
<rscale>  0 0.13132288E+04</rscale>
<asrwt>0</asrwt>
<pdfrwt beam="1">  1        2 0.24783818E+00 0.13553958E+04</pdfrwt>
<pdfrwt beam="2">  1       -2 0.35143981E+00 0.13553958E+04</pdfrwt>
<totfact> 0.16062475E-01</totfact>
</mgrwt>
</event>
<event>
 4    5  0.1905771E-007  0.1262674E+04  0.7818608E-02  0.9098482E-01
          2   -1    0    0  501    0  0.00000000000E+00  0.00000000000E+00  0.25156522918E+04  0.25156522918E+04  0.25500000000E-02 0. -1.
         -2   -1    0    0    0  501 -0.00000000000E+00 -0.00000000000E+00 -0.88786362927E+03  0.88786362927E+03  0.25500000000E-02 0.  1.
    8880023    1    1    2    0    0  0.71421281222E+03 -0.80649644929E+03  0.19005522426E+04  0.22817636813E+04  0.65864270000E+03 0.  0.
    8880022    1    1    2    0    0 -0.71421281222E+03  0.80649644929E+03 -0.27276358012E+03  0.11217522398E+04  0.15294330000E+03 0.  0.
<mgrwt>
<rscale>  0 0.12165619E+04</rscale>
<asrwt>0</asrwt>
<pdfrwt beam="1">  1        2 0.38702342E+00 0.12626744E+04</pdfrwt>
<pdfrwt beam="2">  1       -2 0.13659441E+00 0.12626744E+04</pdfrwt>
<totfact> 0.12679648E+00</totfact>
</mgrwt>
</event>
<event>
 4    5  0.1905771E-007  0.9234538E+03  0.7818608E-02  0.9489383E-01
         -2   -1    0    0    0  501 -0.00000000000E+00  0.00000000000E+00  0.10182306870E+04  0.10182306870E+04  0.25500000000E-02 0.  1.
          2   -1    0    0  501    0  0.00000000000E+00 -0.00000000000E+00 -0.13854593300E+04  0.13854593300E+04  0.25500000000E-02 0. -1.
    8880023    1    1    2    0    0 -0.42251543710E+02  0.64588822363E+03 -0.10852476607E+04  0.14249664844E+04  0.65864270000E+03 0. -1.
    8880022    1    1    2    0    0  0.42251543710E+02 -0.64588822363E+03  0.71801901778E+03  0.97872353261E+03  0.15294330000E+03 0.  0.
<mgrwt>
<rscale>  0 0.85071082E+03</rscale>
<asrwt>0</asrwt>
<pdfrwt beam="1">  1        2 0.21314759E+00 0.92345384E+03</pdfrwt>
<pdfrwt beam="2">  1       -2 0.15665087E+00 0.92345384E+03</pdfrwt>
<totfact> 0.39390785E+00</totfact>
</mgrwt>
</event>
<event>
 4    5  0.1905771E-007  0.9123540E+03  0.7818608E-02  0.9506484E-01
          2   -1    0    0  501    0  0.00000000000E+00  0.00000000000E+00  0.87650575021E+03  0.87650575021E+03  0.25500000000E-02 0. -1.
         -2   -1    0    0    0  501 -0.00000000000E+00 -0.00000000000E+00 -0.74915552342E+03  0.74915552342E+03  0.25500000000E-02 0.  1.
    8880023    1    1    2    0    0  0.23938740727E+03  0.58418596912E+03  0.28756927155E+03  0.95660120713E+03  0.65864270000E+03 0.  0.
    8880022    1    1    2    0    0 -0.23938740727E+03 -0.58418596912E+03 -0.16021904476E+03  0.66906006651E+03  0.15294330000E+03 0. -1.
<mgrwt>
<rscale>  0 0.83807500E+03</rscale>
<asrwt>0</asrwt>
<pdfrwt beam="1">  1        2 0.13484704E+00 0.91235398E+03</pdfrwt>
<pdfrwt beam="2">  1       -2 0.11525470E+00 0.91235398E+03</pdfrwt>
<totfact> 0.17847008E+01</totfact>
</mgrwt>
</event>
<event>
 4    5  0.1905771E-007  0.1346843E+04  0.7818608E-02  0.9026128E-01
          2   -1    0    0  501    0  0.00000000000E+00  0.00000000000E+00  0.87579679200E+03  0.87579679200E+03  0.25500000000E-02 0. -1.
         -2   -1    0    0    0  501 -0.00000000000E+00 -0.00000000000E+00 -0.57844487959E+04  0.57844487959E+04  0.25500000000E-02 0.  1.
    8880023    1    1    2    0    0 -0.96838265878E+03  0.66514051087E+03  0.24779652446E+03  0.13694488661E+04  0.65864270000E+03 0. -1.
    8880022    1    1    2    0    0  0.96838265878E+03 -0.66514051087E+03 -0.51564485284E+04  0.52907967219E+04  0.15294330000E+03 0.  0.
<mgrwt>
<rscale>  0 0.13043436E+04</rscale>
<asrwt>0</asrwt>
<pdfrwt beam="1">  1        2 0.13473797E+00 0.13468434E+04</pdfrwt>
<pdfrwt beam="2">  1       -2 0.88991518E+00 0.13468434E+04</pdfrwt>
<totfact> 0.39036610E-04</totfact>
</mgrwt>
</event>
<event>
 4    5  0.1905771E-007  0.1215608E+04  0.7818608E-02  0.9142098E-01
         -2   -1    0    0    0  501 -0.00000000000E+00  0.00000000000E+00  0.11844431482E+04  0.11844431482E+04  0.25500000000E-02 0.  1.
          2   -1    0    0  501    0  0.00000000000E+00 -0.00000000000E+00 -0.24530830795E+04  0.24530830795E+04  0.25500000000E-02 0. -1.
    8880023    1    1    2    0    0 -0.62279338540E+03  0.80995088725E+03 -0.20217530675E+04  0.23590650082E+04  0.65864270000E+03 0.  0.
    8880022    1    1    2    0    0  0.62279338540E+03 -0.80995088725E+03  0.75311313630E+03  0.12784612195E+04  0.15294330000E+03 0.  0.
<mgrwt>
<rscale>  0 0.11671592E+04</rscale>
<asrwt>0</asrwt>
<pdfrwt beam="1">  1        2 0.37739740E+00 0.12156078E+04</pdfrwt>
<pdfrwt beam="2">  1       -2 0.18222202E+00 0.12156078E+04</pdfrwt>
<totfact> 0.63143599E-01</totfact>
</mgrwt>
</event>
<event>
 4    5  0.1905771E-007  0.1014229E+04  0.7818608E-02  0.9363174E-01
          2   -1    0    0  501    0  0.00000000000E+00  0.00000000000E+00  0.13527656132E+04  0.13527656132E+04  0.25500000000E-02 0. -1.
         -2   -1    0    0    0  501 -0.00000000000E+00 -0.00000000000E+00 -0.10756043438E+04  0.10756043438E+04  0.25500000000E-02 0.  1.
    8880023    1    1    2    0    0  0.43784377466E+03 -0.63493541648E+03  0.95287538572E+03  0.13916292111E+04  0.65864270000E+03 0. -1.
    8880022    1    1    2    0    0 -0.43784377466E+03  0.63493541648E+03 -0.67571411633E+03  0.10367407459E+04  0.15294330000E+03 0.  0.
<mgrwt>
<rscale>  0 0.95169283E+03</rscale>
<asrwt>0</asrwt>
<pdfrwt beam="1">  1        2 0.20811779E+00 0.10142289E+04</pdfrwt>
<pdfrwt beam="2">  1       -2 0.16547759E+00 0.10142289E+04</pdfrwt>
<totfact> 0.35033236E+00</totfact>
</mgrwt>
</event>
<event>
 4    5  0.1905771E-007  0.1004947E+04  0.7818608E-02  0.9375114E-01
         -2   -1    0    0    0  501 -0.00000000000E+00  0.00000000000E+00  0.10686051872E+04  0.10686051872E+04  0.25500000000E-02 0.  1.
          2   -1    0    0  501    0  0.00000000000E+00 -0.00000000000E+00 -0.25312177661E+04  0.25312177661E+04  0.25500000000E-02 0. -1.
    8880023    1    1    2    0    0  0.10647946694E+03 -0.75151210440E+03 -0.22691882408E+04  0.24817602218E+04  0.65864270000E+03 0. -1.
    8880022    1    1    2    0    0 -0.10647946694E+03  0.75151210440E+03  0.80657566194E+03  0.11180627314E+04  0.15294330000E+03 0.  0.
<mgrwt>
<rscale>  0 0.94152319E+03</rscale>
<asrwt>0</asrwt>
<pdfrwt beam="1">  1        2 0.38941812E+00 0.10049470E+04</pdfrwt>
<pdfrwt beam="2">  1       -2 0.16440080E+00 0.10049470E+04</pdfrwt>
<totfact> 0.78499909E-01</totfact>
</mgrwt>
</event>
<event>
 4    5  0.1905771E-007  0.7847424E+03  0.7818608E-02  0.9744813E-01
         -2   -1    0    0    0  501 -0.00000000000E+00  0.00000000000E+00  0.58342344805E+03  0.58342344805E+03  0.25500000000E-02 0.  1.
          2   -1    0    0  501    0  0.00000000000E+00 -0.00000000000E+00 -0.23972936633E+04  0.23972936633E+04  0.25500000000E-02 0. -1.
    8880023    1    1    2    0    0  0.33117315643E+03  0.26895126726E+03 -0.22308594602E+04  0.23648582581E+04  0.65864270000E+03 0. -1.
    8880022    1    1    2    0    0 -0.33117315643E+03 -0.26895126726E+03  0.41698924493E+03  0.61585885323E+03  0.15294330000E+03 0.  0.
<mgrwt>
<rscale>  0 0.68410214E+03</rscale>
<asrwt>0</asrwt>
<pdfrwt beam="1">  1        2 0.36881441E+00 0.78474241E+03</pdfrwt>
<pdfrwt beam="2">  1       -2 0.89757455E-01 0.78474241E+03</pdfrwt>
<totfact> 0.44149685E+00</totfact>
</mgrwt>
</event>
<event>
 4    5  0.1905771E-007  0.7129319E+03  0.7818608E-02  0.9947271E-01
         -2   -1    0    0    0  501 -0.00000000000E+00  0.00000000000E+00  0.27086022074E+03  0.27086022075E+03  0.25500000000E-02 0.  1.
          2   -1    0    0  501    0  0.00000000000E+00 -0.00000000000E+00 -0.13886064763E+04  0.13886064763E+04  0.25500000000E-02 0. -1.
    8880023    1    1    2    0    0  0.25047791804E+03  0.10827033003E+03 -0.11414000983E+04  0.13457585379E+04  0.65864270000E+03 0. -1.
    8880022    1    1    2    0    0 -0.25047791804E+03 -0.10827033003E+03  0.23653842755E+02  0.31370815909E+03  0.15294330000E+03 0.  0.
<mgrwt>
<rscale>  0 0.58024040E+03</rscale>
<asrwt>0</asrwt>
<pdfrwt beam="1">  1        2 0.21363176E+00 0.71293187E+03</pdfrwt>
<pdfrwt beam="2">  1       -2 0.41670804E-01 0.71293187E+03</pdfrwt>
<totfact> 0.81888611E+01</totfact>
</mgrwt>
</event>
<event>
 4    5  0.1905771E-007  0.1007285E+04  0.7818608E-02  0.9372088E-01
          2   -1    0    0  501    0  0.00000000000E+00  0.00000000000E+00  0.15741542280E+04  0.15741542280E+04  0.25500000000E-02 0. -1.
         -2   -1    0    0    0  501 -0.00000000000E+00 -0.00000000000E+00 -0.10696011339E+04  0.10696011339E+04  0.25500000000E-02 0.  1.
    8880023    1    1    2    0    0 -0.50972708639E+03 -0.56656103475E+03  0.12236000257E+04  0.15848723412E+04  0.65864270000E+03 0. -1.
    8880022    1    1    2    0    0  0.50972708639E+03  0.56656103475E+03 -0.71904693159E+03  0.10588830207E+04  0.15294330000E+03 0.  0.
<mgrwt>
<rscale>  0 0.94408768E+03</rscale>
<asrwt>0</asrwt>
<pdfrwt beam="1">  1        2 0.24217757E+00 0.10072851E+04</pdfrwt>
<pdfrwt beam="2">  1       -2 0.16455402E+00 0.10072851E+04</pdfrwt>
<totfact> 0.26684544E+00</totfact>
</mgrwt>
</event>
<event>
 4    5  0.1905771E-007  0.6588360E+03  0.7818608E-02  0.1025382E+00
          2   -1    0    0  501    0  0.00000000000E+00  0.00000000000E+00  0.14211036824E+04  0.14211036824E+04  0.25500000000E-02 0. -1.
         -2   -1    0    0    0  501 -0.00000000000E+00 -0.00000000000E+00 -0.25904720570E+03  0.25904720572E+03  0.25500000000E-02 0.  1.
    8880023    1    1    2    0    0  0.17745189819E+01 -0.15861154926E+02  0.13102650435E+04  0.14665808588E+04  0.65864270000E+03 0. -1.
    8880022    1    1    2    0    0 -0.17745189819E+01  0.15861154926E+02 -0.14820856673E+03  0.21357002931E+03  0.15294330000E+03 0.  0.
<mgrwt>
<rscale>  0 0.45793474E+03</rscale>
<asrwt>0</asrwt>
<pdfrwt beam="1">  1        2 0.21863134E+00 0.65883604E+03</pdfrwt>
<pdfrwt beam="2">  1       -2 0.39853416E-01 0.65883604E+03</pdfrwt>
<totfact> 0.86123156E+01</totfact>
</mgrwt>
</event>
<event>
 4    5  0.1905771E-007  0.1210880E+04  0.7818608E-02  0.9146618E-01
          2   -1    0    0  501    0  0.00000000000E+00  0.00000000000E+00  0.14474009650E+04  0.14474009650E+04  0.25500000000E-02 0. -1.
         -2   -1    0    0    0  501 -0.00000000000E+00 -0.00000000000E+00 -0.13583062345E+04  0.13583062345E+04  0.25500000000E-02 0.  1.
    8880023    1    1    2    0    0  0.45885899629E+03 -0.90657004029E+03  0.89011828994E+03  0.15028445005E+04  0.65864270000E+03 0.  0.
    8880022    1    1    2    0    0 -0.45885899629E+03  0.90657004029E+03 -0.80102355949E+03  0.13028626989E+04  0.15294330000E+03 0.  0.
<mgrwt>
<rscale>  0 0.11621823E+04</rscale>
<asrwt>0</asrwt>
<pdfrwt beam="1">  1        2 0.22267707E+00 0.12108803E+04</pdfrwt>
<pdfrwt beam="2">  1       -2 0.20897019E+00 0.12108803E+04</pdfrwt>
<totfact> 0.15319299E+00</totfact>
</mgrwt>
</event>
<event>
 4    5  0.1905771E-007  0.9611657E+03  0.7818608E-02  0.9434228E-01
         -2   -1    0    0    0  501 -0.00000000000E+00  0.00000000000E+00  0.11247918122E+04  0.11247918122E+04  0.25500000000E-02 0.  1.
          2   -1    0    0  501    0  0.00000000000E+00 -0.00000000000E+00 -0.13930262283E+04  0.13930262283E+04  0.25500000000E-02 0. -1.
    8880023    1    1    2    0    0 -0.46194018253E+03 -0.52596636972E+03 -0.10728287461E+04  0.14404169810E+04  0.65864270000E+03 0.  0.
    8880022    1    1    2    0    0  0.46194018253E+03  0.52596636972E+03  0.80459433002E+03  0.10774010596E+04  0.15294330000E+03 0.  0.
<mgrwt>
<rscale>  0 0.89311609E+03</rscale>
<asrwt>0</asrwt>
<pdfrwt beam="1">  1        2 0.21431173E+00 0.96116573E+03</pdfrwt>
<pdfrwt beam="2">  1       -2 0.17304489E+00 0.96116573E+03</pdfrwt>
<totfact> 0.29520956E+00</totfact>
</mgrwt>
</event>
<event>
 4    5  0.1905771E-007  0.9065093E+03  0.7818608E-02  0.9515662E-01
          2   -1    0    0  501    0  0.00000000000E+00  0.00000000000E+00  0.32797337215E+04  0.32797337215E+04  0.25500000000E-02 0. -1.
         -2   -1    0    0    0  501 -0.00000000000E+00 -0.00000000000E+00 -0.75468275878E+03  0.75468275878E+03  0.25500000000E-02 0.  1.
    8880023    1    1    2    0    0  0.21757911791E+03 -0.58361650999E+03  0.30648680447E+04  0.31961187777E+04  0.65864270000E+03 0. -1.
    8880022    1    1    2    0    0 -0.21757911791E+03  0.58361650999E+03 -0.53981708195E+03  0.83829770265E+03  0.15294330000E+03 0.  0.
<mgrwt>
<rscale>  0 0.83138922E+03</rscale>
<asrwt>0</asrwt>
<pdfrwt beam="1">  1        2 0.50457443E+00 0.90650930E+03</pdfrwt>
<pdfrwt beam="2">  1       -2 0.11610504E+00 0.90650930E+03</pdfrwt>
<totfact> 0.69072553E-01</totfact>
</mgrwt>
</event>
<event>
 4    5  0.1905771E-007  0.7373850E+03  0.7818608E-02  0.9867631E-01
          2   -1    0    0  501    0  0.00000000000E+00  0.00000000000E+00  0.10806062839E+03  0.10806062842E+03  0.25500000000E-02 0. -1.
         -2   -1    0    0    0  501 -0.00000000000E+00 -0.00000000000E+00 -0.35408854872E+04  0.35408854872E+04  0.25500000000E-02 0.  1.
    8880023    1    1    2    0    0 -0.27712465294E+03  0.18201191922E+03 -0.13873537411E+04  0.15711419482E+04  0.65864270000E+03 0.  0.
    8880022    1    1    2    0    0  0.27712465294E+03 -0.18201191922E+03 -0.20454711176E+04  0.20778041674E+04  0.15294330000E+03 0.  0.
<mgrwt>
<rscale>  0 0.61856002E+03</rscale>
<asrwt>0</asrwt>
<pdfrwt beam="1">  1        2 0.16624715E-01 0.73738499E+03</pdfrwt>
<pdfrwt beam="2">  1       -2 0.54475153E+00 0.73738499E+03</pdfrwt>
<totfact> 0.33474756E-01</totfact>
</mgrwt>
</event>
<event>
 4    5  0.1905771E-007  0.9974296E+03  0.7818608E-02  0.9384928E-01
          2   -1    0    0  501    0  0.00000000000E+00  0.00000000000E+00  0.12410268781E+04  0.12410268781E+04  0.25500000000E-02 0. -1.
         -2   -1    0    0    0  501 -0.00000000000E+00 -0.00000000000E+00 -0.10200547721E+04  0.10200547721E+04  0.25500000000E-02 0.  1.
    8880023    1    1    2    0    0  0.69114675135E+03 -0.28874183196E+03  0.81890364918E+03  0.12905305383E+04  0.65864270000E+03 0.  0.
    8880022    1    1    2    0    0 -0.69114675135E+03  0.28874183196E+03 -0.59793154324E+03  0.97055111191E+03  0.15294330000E+03 0.  1.
<mgrwt>
<rscale>  0 0.93326478E+03</rscale>
<asrwt>0</asrwt>
<pdfrwt beam="1">  1        2 0.19092721E+00 0.99742964E+03</pdfrwt>
<pdfrwt beam="2">  1       -2 0.15693150E+00 0.99742964E+03</pdfrwt>
<totfact> 0.47139964E+00</totfact>
</mgrwt>
</event>
<event>
 4    5  0.1905771E-007  0.1087198E+04  0.7818608E-02  0.9275445E-01
          2   -1    0    0  501    0  0.00000000000E+00  0.00000000000E+00  0.12077847164E+04  0.12077847164E+04  0.25500000000E-02 0. -1.
         -2   -1    0    0    0  501 -0.00000000000E+00 -0.00000000000E+00 -0.83907559798E+03  0.83907559798E+03  0.25500000000E-02 0.  1.
    8880023    1    1    2    0    0  0.26635997857E+03  0.82294699896E+03 -0.17428819637E+02  0.10873377448E+04  0.65864270000E+03 0.  0.
    8880022    1    1    2    0    0 -0.26635997857E+03 -0.82294699896E+03  0.38613793806E+03  0.95952256957E+03  0.15294330000E+03 0.  0.
<mgrwt>
<rscale>  0 0.10307520E+04</rscale>
<asrwt>0</asrwt>
<pdfrwt beam="1">  1        2 0.18581303E+00 0.10871981E+04</pdfrwt>
<pdfrwt beam="2">  1       -2 0.12908855E+00 0.10871981E+04</pdfrwt>
<totfact> 0.81539275E+00</totfact>
</mgrwt>
</event>
<event>
 4    5  0.1905771E-007  0.9424565E+03  0.7818608E-02  0.9461052E-01
         -2   -1    0    0    0  501 -0.00000000000E+00  0.00000000000E+00  0.32226774873E+03  0.32226774874E+03  0.25500000000E-02 0.  1.
          2   -1    0    0  501    0  0.00000000000E+00 -0.00000000000E+00 -0.36967768409E+04  0.36967768409E+04  0.25500000000E-02 0. -1.
    8880023    1    1    2    0    0  0.32819990089E+03  0.58881139765E+03 -0.50855928417E+03  0.10709139969E+04  0.65864270000E+03 0.  0.
    8880022    1    1    2    0    0 -0.32819990089E+03 -0.58881139765E+03 -0.28659498080E+04  0.29481305928E+04  0.15294330000E+03 0.  0.
<mgrwt>
<rscale>  0 0.87217252E+03</rscale>
<asrwt>0</asrwt>
<pdfrwt beam="1">  1        2 0.56873487E+00 0.94245649E+03</pdfrwt>
<pdfrwt beam="2">  1       -2 0.49579656E-01 0.94245649E+03</pdfrwt>
<totfact> 0.23816370E+00</totfact>
</mgrwt>
</event>
<event>
 4    5  0.1905771E-007  0.8476853E+03  0.7818608E-02  0.9615856E-01
         -2   -1    0    0    0  501 -0.00000000000E+00  0.00000000000E+00  0.84850601704E+03  0.84850601705E+03  0.25500000000E-02 0.  1.
          2   -1    0    0  501    0  0.00000000000E+00 -0.00000000000E+00 -0.15400899888E+04  0.15400899888E+04  0.25500000000E-02 0. -1.
    8880023    1    1    2    0    0  0.29116268431E+03 -0.44719615569E+03 -0.13082537053E+04  0.15588771838E+04  0.65864270000E+03 0.  0.
    8880022    1    1    2    0    0 -0.29116268431E+03  0.44719615569E+03  0.61666973355E+03  0.82971882207E+03  0.15294330000E+03 0.  0.
<mgrwt>
<rscale>  0 0.76255568E+03</rscale>
<asrwt>0</asrwt>
<pdfrwt beam="1">  1        2 0.23693692E+00 0.84768527E+03</pdfrwt>
<pdfrwt beam="2">  1       -2 0.13053939E+00 0.84768527E+03</pdfrwt>
<totfact> 0.52419019E+00</totfact>
</mgrwt>
</event>
<event>
 4    5  0.1905771E-007  0.9309077E+03  0.7818608E-02  0.9478133E-01
          2   -1    0    0  501    0  0.00000000000E+00  0.00000000000E+00  0.88420574138E+03  0.88420574138E+03  0.25500000000E-02 0. -1.
         -2   -1    0    0    0  501 -0.00000000000E+00 -0.00000000000E+00 -0.14294206832E+04  0.14294206832E+04  0.25500000000E-02 0.  1.
    8880023    1    1    2    0    0  0.49421396060E+03 -0.43420213243E+03  0.50948118751E+03  0.10612069625E+04  0.65864270000E+03 0.  0.
    8880022    1    1    2    0    0 -0.49421396060E+03  0.43420213243E+03 -0.10546961294E+04  0.12524194621E+04  0.15294330000E+03 0.  0.
<mgrwt>
<rscale>  0 0.85915372E+03</rscale>
<asrwt>0</asrwt>
<pdfrwt beam="1">  1        2 0.13603165E+00 0.93090770E+03</pdfrwt>
<pdfrwt beam="2">  1       -2 0.21991087E+00 0.93090770E+03</pdfrwt>
<totfact> 0.29800614E+00</totfact>
</mgrwt>
</event>
<event>
 4    5  0.1905771E-007  0.1020122E+04  0.7818608E-02  0.9355693E-01
          2   -1    0    0  501    0  0.00000000000E+00  0.00000000000E+00  0.11938658622E+04  0.11938658622E+04  0.25500000000E-02 0. -1.
         -2   -1    0    0    0  501 -0.00000000000E+00 -0.00000000000E+00 -0.27635965511E+04  0.27635965511E+04  0.25500000000E-02 0.  1.
    8880023    1    1    2    0    0 -0.53066687966E+02 -0.77718879623E+03  0.90179128425E+03  0.13615712339E+04  0.65864270000E+03 0.  0.
    8880022    1    1    2    0    0  0.53066687966E+02  0.77718879623E+03 -0.24715219732E+04  0.25958911794E+04  0.15294330000E+03 0.  0.
<mgrwt>
<rscale>  0 0.95813444E+03</rscale>
<asrwt>0</asrwt>
<pdfrwt beam="1">  1        2 0.18367167E+00 0.10201219E+04</pdfrwt>
<pdfrwt beam="2">  1       -2 0.42516870E+00 0.10201219E+04</pdfrwt>
<totfact> 0.98204696E-02</totfact>
</mgrwt>
</event>
<event>
 4    5  0.2159553E-007  0.6612078E+03  0.7818608E-02  0.1022952E+00
         -2   -1    0    0    0  501 -0.00000000000E+00  0.00000000000E+00  0.10683271947E+04  0.10683271947E+04  0.25500000000E-02 0.  1.
          2   -1    0    0  501    0  0.00000000000E+00 -0.00000000000E+00 -0.23605440500E+04  0.23605440500E+04  0.25500000000E-02 0. -1.
    8880023    1    1    2    0    0 -0.51550511084E+02 -0.26983956753E+02 -0.23075618829E+04  0.24004244705E+04  0.65864270000E+03 0. -1.
    8880022    1    1    2    0    0  0.51550511084E+02  0.26983956753E+02  0.10153450276E+04  0.10284467741E+04  0.15294330000E+03 0.  0.
<mgrwt>
<rscale>  0 0.46636314E+03</rscale>
<asrwt>0</asrwt>
<pdfrwt beam="1">  1        2 0.36316062E+00 0.66120783E+03</pdfrwt>
<pdfrwt beam="2">  1       -2 0.16435803E+00 0.66120783E+03</pdfrwt>
<totfact> 0.10491029E+00</totfact>
</mgrwt>
</event>
<event>
 4    5  0.1905771E-007  0.7160794E+03  0.7818608E-02  0.9936082E-01
          2   -1    0    0  501    0  0.00000000000E+00  0.00000000000E+00  0.12904749906E+04  0.12904749906E+04  0.25500000000E-02 0. -1.
         -2   -1    0    0    0  501 -0.00000000000E+00 -0.00000000000E+00 -0.29253527366E+03  0.29253527367E+03  0.25500000000E-02 0.  1.
    8880023    1    1    2    0    0 -0.27742590298E+03  0.44657949161E+02  0.10375262227E+04  0.12606467916E+04  0.65864270000E+03 0.  0.
    8880022    1    1    2    0    0  0.27742590298E+03 -0.44657949161E+02 -0.39586505781E+02  0.32236347268E+03  0.15294330000E+03 0.  0.
<mgrwt>
<rscale>  0 0.58544007E+03</rscale>
<asrwt>0</asrwt>
<pdfrwt beam="1">  1        2 0.19853461E+00 0.71607937E+03</pdfrwt>
<pdfrwt beam="2">  1       -2 0.45005427E-01 0.71607937E+03</pdfrwt>
<totfact> 0.79982706E+01</totfact>
</mgrwt>
</event>
<event>
 4    5  0.1905771E-007  0.8120564E+03  0.7818608E-02  0.9685309E-01
          2   -1    0    0  501    0  0.00000000000E+00  0.00000000000E+00  0.22362626216E+04  0.22362626216E+04  0.25500000000E-02 0. -1.
         -2   -1    0    0    0  501 -0.00000000000E+00 -0.00000000000E+00 -0.13625557777E+04  0.13625557777E+04  0.25500000000E-02 0.  1.
    8880023    1    1    2    0    0  0.32409312453E+03  0.34725937788E+03  0.21125483871E+04  0.22632490634E+04  0.65864270000E+03 0. -1.
    8880022    1    1    2    0    0 -0.32409312453E+03 -0.34725937788E+03 -0.12388415432E+04  0.13355693359E+04  0.15294330000E+03 0.  0.
<mgrwt>
<rscale>  0 0.71898246E+03</rscale>
<asrwt>0</asrwt>
<pdfrwt beam="1">  1        2 0.34404040E+00 0.81205642E+03</pdfrwt>
<pdfrwt beam="2">  1       -2 0.20962397E+00 0.81205642E+03</pdfrwt>
<totfact> 0.58884136E-01</totfact>
</mgrwt>
</event>
<event>
 4    5  0.2000749E-007  0.7750526E+03  0.7818608E-02  0.9767590E-01
         -2   -1    0    0    0  501 -0.00000000000E+00  0.00000000000E+00  0.14628577689E+04  0.14628577689E+04  0.25500000000E-02 0.  1.
          2   -1    0    0  501    0  0.00000000000E+00 -0.00000000000E+00 -0.16128829747E+04  0.16128829747E+04  0.25500000000E-02 0. -1.
    8880023    1    1    2    0    0  0.11524370368E+03  0.39193774915E+03 -0.14829374553E+04  0.16732632827E+04  0.65864270000E+03 0.  0.
    8880022    1    1    2    0    0 -0.11524370368E+03 -0.39193774915E+03  0.13329122495E+04  0.14024774609E+04  0.15294330000E+03 0.  1.
<mgrwt>
<rscale>  0 0.67131259E+03</rscale>
<asrwt>0</asrwt>
<pdfrwt beam="1">  1        2 0.24813584E+00 0.77505259E+03</pdfrwt>
<pdfrwt beam="2">  1       -2 0.22505504E+00 0.77505259E+03</pdfrwt>
<totfact> 0.10417018E+00</totfact>
</mgrwt>
</event>
<event>
 4    5  0.1905771E-007  0.7620747E+03  0.7818608E-02  0.9799766E-01
          2   -1    0    0  501    0  0.00000000000E+00  0.00000000000E+00  0.81370233407E+03  0.81370233408E+03  0.25500000000E-02 0. -1.
         -2   -1    0    0    0  501 -0.00000000000E+00 -0.00000000000E+00 -0.70716264802E+03  0.70716264803E+03  0.25500000000E-02 0.  1.
    8880023    1    1    2    0    0  0.35912885239E+02 -0.38165149002E+03  0.53100240679E+03  0.92882794824E+03  0.65864270000E+03 0. -1.
    8880022    1    1    2    0    0 -0.35912885239E+02  0.38165149002E+03 -0.42446272074E+03  0.59203703387E+03  0.15294330000E+03 0.  0.
<mgrwt>
<rscale>  0 0.65375118E+03</rscale>
<asrwt>0</asrwt>
<pdfrwt beam="1">  1        2 0.12518498E+00 0.76207467E+03</pdfrwt>
<pdfrwt beam="2">  1       -2 0.10879425E+00 0.76207467E+03</pdfrwt>
<totfact> 0.23026174E+01</totfact>
</mgrwt>
</event>
<event>
 4    5  0.1905771E-007  0.6934483E+03  0.7818608E-02  0.1002555E+00
          2   -1    0    0  501    0  0.00000000000E+00  0.00000000000E+00  0.54254159705E+03  0.54254159706E+03  0.25500000000E-02 0. -1.
         -2   -1    0    0    0  501 -0.00000000000E+00 -0.00000000000E+00 -0.58510166557E+03  0.58510166558E+03  0.25500000000E-02 0.  1.
    8880023    1    1    2    0    0  0.18230665348E+03 -0.11757817629E+03  0.24579766618E+03  0.73572212309E+03  0.65864270000E+03 0. -1.
    8880022    1    1    2    0    0 -0.18230665348E+03  0.11757817629E+03 -0.28835773471E+03  0.39192113954E+03  0.15294330000E+03 0.  0.
<mgrwt>
<rscale>  0 0.54544031E+03</rscale>
<asrwt>0</asrwt>
<pdfrwt beam="1">  1        2 0.83467938E-01 0.69344830E+03</pdfrwt>
<pdfrwt beam="2">  1       -2 0.90015641E-01 0.69344830E+03</pdfrwt>
<totfact> 0.60030055E+01</totfact>
</mgrwt>
</event>
<event>
 4    5  0.1905771E-007  0.1273374E+04  0.7818608E-02  0.9088901E-01
          2   -1    0    0  501    0  0.00000000000E+00  0.00000000000E+00  0.82076135299E+03  0.82076135300E+03  0.25500000000E-02 0. -1.
         -2   -1    0    0    0  501 -0.00000000000E+00 -0.00000000000E+00 -0.22172315484E+04  0.22172315484E+04  0.25500000000E-02 0.  1.
    8880023    1    1    2    0    0  0.64322858912E+03 -0.87973149260E+03 -0.17191756350E+02  0.12734898035E+04  0.65864270000E+03 0.  0.
    8880022    1    1    2    0    0 -0.64322858912E+03  0.87973149260E+03 -0.13792784390E+04  0.17645030979E+04  0.15294330000E+03 0.  0.
<mgrwt>
<rscale>  0 0.12277579E+04</rscale>
<asrwt>0</asrwt>
<pdfrwt beam="1">  1        2 0.12627098E+00 0.12733738E+04</pdfrwt>
<pdfrwt beam="2">  1       -2 0.34111254E+00 0.12733738E+04</pdfrwt>
<totfact> 0.57458766E-01</totfact>
</mgrwt>
</event>
<event>
 4    5  0.1905771E-007  0.1366916E+04  0.7818608E-02  0.9009826E-01
         -2   -1    0    0    0  501 -0.00000000000E+00  0.00000000000E+00  0.10915694873E+04  0.10915694873E+04  0.25500000000E-02 0.  1.
          2   -1    0    0  501    0  0.00000000000E+00 -0.00000000000E+00 -0.26198000048E+04  0.26198000048E+04  0.25500000000E-02 0. -1.
    8880023    1    1    2    0    0 -0.35181252130E+03 -0.11449348564E+04 -0.19936793542E+04  0.24172743843E+04  0.65864270000E+03 0.  0.
    8880022    1    1    2    0    0  0.35181252130E+03  0.11449348564E+04  0.46544883660E+03  0.12940951078E+04  0.15294330000E+03 0.  0.
<mgrwt>
<rscale>  0 0.13251878E+04</rscale>
<asrwt>0</asrwt>
<pdfrwt beam="1">  1        2 0.40304615E+00 0.13669155E+04</pdfrwt>
<pdfrwt beam="2">  1       -2 0.16793377E+00 0.13669155E+04</pdfrwt>
<totfact> 0.62550188E-01</totfact>
</mgrwt>
</event>
<event>
 4    5  0.1905771E-007  0.1467027E+04  0.7818608E-02  0.8933277E-01
         -2   -1    0    0    0  501 -0.00000000000E+00  0.00000000000E+00  0.92650765145E+03  0.92650765145E+03  0.25500000000E-02 0.  1.
          2   -1    0    0  501    0  0.00000000000E+00 -0.00000000000E+00 -0.21697003347E+04  0.21697003347E+04  0.25500000000E-02 0. -1.
    8880023    1    1    2    0    0 -0.42645430856E+03  0.12395542769E+04 -0.93914191317E+03  0.17418828382E+04  0.65864270000E+03 0.  0.
    8880022    1    1    2    0    0  0.42645430856E+03 -0.12395542769E+04 -0.30405077008E+03  0.13543251480E+04  0.15294330000E+03 0.  0.
<mgrwt>
<rscale>  0 0.14287354E+04</rscale>
<asrwt>0</asrwt>
<pdfrwt beam="1">  1        2 0.33380005E+00 0.14670270E+04</pdfrwt>
<pdfrwt beam="2">  1       -2 0.14253964E+00 0.14670270E+04</pdfrwt>
<totfact> 0.17454841E+00</totfact>
</mgrwt>
</event>
<event>
 4    5  0.1905771E-007  0.8792318E+03  0.7818608E-02  0.9560229E-01
         -2   -1    0    0    0  501 -0.00000000000E+00  0.00000000000E+00  0.33875715893E+03  0.33875715894E+03  0.25500000000E-02 0.  1.
          2   -1    0    0  501    0  0.00000000000E+00 -0.00000000000E+00 -0.28086779621E+04  0.28086779621E+04  0.25500000000E-02 0. -1.
    8880023    1    1    2    0    0 -0.31918550561E+03 -0.48719506722E+03 -0.23817151206E+04  0.25388216839E+04  0.65864270000E+03 0.  0.
    8880022    1    1    2    0    0  0.31918550561E+03  0.48719506722E+03 -0.88205682628E+02  0.60861343723E+03  0.15294330000E+03 0.  0.
<mgrwt>
<rscale>  0 0.79985365E+03</rscale>
<asrwt>0</asrwt>
<pdfrwt beam="1">  1        2 0.43210429E+00 0.87923184E+03</pdfrwt>
<pdfrwt beam="2">  1       -2 0.52116488E-01 0.87923184E+03</pdfrwt>
<totfact> 0.82260147E+00</totfact>
</mgrwt>
</event>
<event>
 4    5  0.1905771E-007  0.7277452E+03  0.7818608E-02  0.9897200E-01
         -2   -1    0    0    0  501 -0.00000000000E+00  0.00000000000E+00  0.13867521363E+04  0.13867521363E+04  0.25500000000E-02 0.  1.
          2   -1    0    0  501    0  0.00000000000E+00 -0.00000000000E+00 -0.68196243997E+03  0.68196243997E+03  0.25500000000E-02 0. -1.
    8880023    1    1    2    0    0  0.24599027962E+03 -0.18786084006E+03 -0.45523706638E+03  0.85840194884E+03  0.65864270000E+03 0. -1.
    8880022    1    1    2    0    0 -0.24599027962E+03  0.18786084006E+03  0.11600267627E+04  0.12103126274E+04  0.15294330000E+03 0.  0.
<mgrwt>
<rscale>  0 0.60397169E+03</rscale>
<asrwt>0</asrwt>
<pdfrwt beam="1">  1        2 0.10491730E+00 0.72774523E+03</pdfrwt>
<pdfrwt beam="2">  1       -2 0.21334648E+00 0.72774523E+03</pdfrwt>
<totfact> 0.47351848E+00</totfact>
</mgrwt>
</event>
<event>
 4    5  0.1905771E-007  0.7245877E+03  0.7818608E-02  0.9907358E-01
          2   -1    0    0  501    0  0.00000000000E+00  0.00000000000E+00  0.12794352721E+04  0.12794352721E+04  0.25500000000E-02 0. -1.
         -2   -1    0    0    0  501 -0.00000000000E+00 -0.00000000000E+00 -0.26982178066E+03  0.26982178067E+03  0.25500000000E-02 0.  1.
    8880023    1    1    2    0    0 -0.75530514805E+02 -0.29242492142E+03  0.96654579354E+03  0.12079893090E+04  0.65864270000E+03 0. -1.
    8880022    1    1    2    0    0  0.75530514805E+02  0.29242492142E+03  0.43067697880E+02  0.34126774378E+03  0.15294330000E+03 0.  0.
<mgrwt>
<rscale>  0 0.59906025E+03</rscale>
<asrwt>0</asrwt>
<pdfrwt beam="1">  1        2 0.19683620E+00 0.72458774E+03</pdfrwt>
<pdfrwt beam="2">  1       -2 0.41511043E-01 0.72458774E+03</pdfrwt>
<totfact> 0.95161092E+01</totfact>
</mgrwt>
</event>
<event>
 4    5  0.1905771E-007  0.8958083E+03  0.7818608E-02  0.9532794E-01
          2   -1    0    0  501    0  0.00000000000E+00  0.00000000000E+00  0.40106960620E+04  0.40106960620E+04  0.25500000000E-02 0. -1.
         -2   -1    0    0    0  501 -0.00000000000E+00 -0.00000000000E+00 -0.66029926681E+03  0.66029926681E+03  0.25500000000E-02 0.  1.
    8880023    1    1    2    0    0  0.59858575988E+03  0.10177137545E+03  0.37974236854E+04  0.39016533903E+04  0.65864270000E+03 0. -1.
    8880022    1    1    2    0    0 -0.59858575988E+03 -0.10177137545E+03 -0.44702689024E+03  0.76934193855E+03  0.15294330000E+03 0.  0.
<mgrwt>
<rscale>  0 0.81908609E+03</rscale>
<asrwt>0</asrwt>
<pdfrwt beam="1">  1        2 0.61703017E+00 0.89580831E+03</pdfrwt>
<pdfrwt beam="2">  1       -2 0.10158450E+00 0.89580831E+03</pdfrwt>
<totfact> 0.28685731E-01</totfact>
</mgrwt>
</event>
<event>
 4    5  0.1905771E-007  0.6842236E+03  0.7818608E-02  0.1007029E+00
          2   -1    0    0  501    0  0.00000000000E+00  0.00000000000E+00  0.12055021937E+04  0.12055021937E+04  0.25500000000E-02 0. -1.
         -2   -1    0    0    0  501 -0.00000000000E+00 -0.00000000000E+00 -0.45395287596E+03  0.45395287597E+03  0.25500000000E-02 0.  1.
    8880023    1    1    2    0    0 -0.16646819496E+03 -0.81486834206E+02  0.10641673856E+04  0.12651538226E+04  0.65864270000E+03 0. -1.
    8880022    1    1    2    0    0  0.16646819496E+03  0.81486834206E+02 -0.31261806783E+03  0.39430124706E+03  0.15294330000E+03 0.  0.
<mgrwt>
<rscale>  0 0.52672794E+03</rscale>
<asrwt>0</asrwt>
<pdfrwt beam="1">  1        2 0.18546188E+00 0.68422363E+03</pdfrwt>
<pdfrwt beam="2">  1       -2 0.69838904E-01 0.68422363E+03</pdfrwt>
<totfact> 0.36018872E+01</totfact>
</mgrwt>
</event>
<event>
 4    5  0.1905771E-007  0.9371328E+03  0.7818608E-02  0.9468874E-01
          2   -1    0    0  501    0  0.00000000000E+00  0.00000000000E+00  0.49928429575E+04  0.49928429575E+04  0.25500000000E-02 0. -1.
         -2   -1    0    0    0  501 -0.00000000000E+00 -0.00000000000E+00 -0.80386919699E+03  0.80386919700E+03  0.25500000000E-02 0.  1.
    8880023    1    1    2    0    0  0.18380307666E+03 -0.64079962739E+03  0.47932809710E+04  0.48840311635E+04  0.65864270000E+03 0. -1.
    8880022    1    1    2    0    0 -0.18380307666E+03  0.64079962739E+03 -0.60430721052E+03  0.91268099090E+03  0.15294330000E+03 0.  0.
<mgrwt>
<rscale>  0 0.86618034E+03</rscale>
<asrwt>0</asrwt>
<pdfrwt beam="1">  1        2 0.76812969E+00 0.93713283E+03</pdfrwt>
<pdfrwt beam="2">  1       -2 0.12367218E+00 0.93713283E+03</pdfrwt>
<totfact> 0.19296881E-02</totfact>
</mgrwt>
</event>
<event>
 4    5  0.1905771E-007  0.1026738E+04  0.7818608E-02  0.9347383E-01
         -2   -1    0    0    0  501 -0.00000000000E+00  0.00000000000E+00  0.71420350663E+03  0.71420350664E+03  0.25500000000E-02 0.  1.
          2   -1    0    0  501    0  0.00000000000E+00 -0.00000000000E+00 -0.17822608629E+04  0.17822608630E+04  0.25500000000E-02 0. -1.
    8880023    1    1    2    0    0  0.25460671474E+03 -0.74535578386E+03  0.15025986228E+03  0.10376743498E+04  0.65864270000E+03 0.  0.
    8880022    1    1    2    0    0 -0.25460671474E+03  0.74535578386E+03 -0.12183172186E+04  0.14587900198E+04  0.15294330000E+03 0.  0.
<mgrwt>
<rscale>  0 0.96535279E+03</rscale>
<asrwt>0</asrwt>
<pdfrwt beam="1">  1        2 0.27419398E+00 0.10267376E+04</pdfrwt>
<pdfrwt beam="2">  1       -2 0.10987746E+00 0.10267376E+04</pdfrwt>
<totfact> 0.57809523E+00</totfact>
</mgrwt>
</event>
<event>
 4    5  0.1905771E-007  0.1103350E+04  0.7818608E-02  0.9257335E-01
         -2   -1    0    0    0  501 -0.00000000000E+00  0.00000000000E+00  0.74742386394E+03  0.74742386395E+03  0.25500000000E-02 0.  1.
          2   -1    0    0  501    0  0.00000000000E+00 -0.00000000000E+00 -0.28632145017E+04  0.28632145017E+04  0.25500000000E-02 0. -1.
    8880023    1    1    2    0    0 -0.49141012488E+03 -0.73626583264E+03 -0.24220761391E+04  0.26615473539E+04  0.65864270000E+03 0.  0.
    8880022    1    1    2    0    0  0.49141012488E+03  0.73626583264E+03  0.30628550138E+03  0.94909101172E+03  0.15294330000E+03 0.  0.
<mgrwt>
<rscale>  0 0.10480734E+04</rscale>
<asrwt>0</asrwt>
<pdfrwt beam="1">  1        2 0.44049453E+00 0.11033501E+04</pdfrwt>
<pdfrwt beam="2">  1       -2 0.11498829E+00 0.11033501E+04</pdfrwt>
<totfact> 0.12475044E+00</totfact>
</mgrwt>
</event>
<event>
 4    5  0.2667826E-007  0.8813777E+03  0.7818608E-02  0.9556613E-01
          2   -1    0    0  501    0  0.00000000000E+00  0.00000000000E+00  0.22438399342E+04  0.22438399342E+04  0.25500000000E-02 0. -1.
         -2   -1    0    0    0  501 -0.00000000000E+00 -0.00000000000E+00 -0.66502118491E+03  0.66502118491E+03  0.25500000000E-02 0.  1.
    8880023    1    1    2    0    0 -0.19850041392E+03 -0.55101177861E+03  0.19904397596E+04  0.21768502561E+04  0.65864270000E+03 0.  0.
    8880022    1    1    2    0    0  0.19850041392E+03  0.55101177861E+03 -0.41162101030E+03  0.73201086305E+03  0.15294330000E+03 0.  0.
<mgrwt>
<rscale>  0 0.80235610E+03</rscale>
<asrwt>0</asrwt>
<pdfrwt beam="1">  1        2 0.34520615E+00 0.88137767E+03</pdfrwt>
<pdfrwt beam="2">  1       -2 0.10231095E+00 0.88137767E+03</pdfrwt>
<totfact> 0.38944776E+00</totfact>
</mgrwt>
</event>
<event>
 4    5  0.1905771E-007  0.7402531E+03  0.7818608E-02  0.9859211E-01
          2   -1    0    0  501    0  0.00000000000E+00  0.00000000000E+00  0.29491976226E+04  0.29491976226E+04  0.25500000000E-02 0. -1.
         -2   -1    0    0    0  501 -0.00000000000E+00 -0.00000000000E+00 -0.76855586892E+03  0.76855586892E+03  0.25500000000E-02 0.  1.
    8880023    1    1    2    0    0  0.32340465991E+03  0.97845920437E+02  0.28543095502E+04  0.29487383087E+04  0.65864270000E+03 0. -1.
    8880022    1    1    2    0    0 -0.32340465991E+03 -0.97845920437E+02 -0.67366779660E+03  0.76901518281E+03  0.15294330000E+03 0.  0.
<mgrwt>
<rscale>  0 0.62279501E+03</rscale>
<asrwt>0</asrwt>
<pdfrwt beam="1">  1        2 0.45372270E+00 0.74025307E+03</pdfrwt>
<pdfrwt beam="2">  1       -2 0.11823937E+00 0.74025307E+03</pdfrwt>
<totfact> 0.11025609E+00</totfact>
</mgrwt>
</event>
<event>
 4    5  0.1905771E-007  0.1045955E+04  0.7818608E-02  0.9323760E-01
         -2   -1    0    0    0  501 -0.00000000000E+00  0.00000000000E+00  0.71624509710E+03  0.71624509710E+03  0.25500000000E-02 0.  1.
          2   -1    0    0  501    0  0.00000000000E+00 -0.00000000000E+00 -0.13183921973E+04  0.13183921973E+04  0.25500000000E-02 0. -1.
    8880023    1    1    2    0    0 -0.55265696053E+03  0.59563618159E+03 -0.63559090488E+02  0.10478846029E+04  0.65864270000E+03 0.  1.
    8880022    1    1    2    0    0  0.55265696053E+03 -0.59563618159E+03 -0.53858800968E+03  0.98675269142E+03  0.15294330000E+03 0.  0.
<mgrwt>
<rscale>  0 0.98624630E+03</rscale>
<asrwt>0</asrwt>
<pdfrwt beam="1">  1        2 0.20282957E+00 0.10459552E+04</pdfrwt>
<pdfrwt beam="2">  1       -2 0.11019155E+00 0.10459552E+04</pdfrwt>
<totfact> 0.10440983E+01</totfact>
</mgrwt>
</event>
<event>
 4    5  0.1905771E-007  0.6768053E+03  0.7818608E-02  0.1011192E+00
         -2   -1    0    0    0  501 -0.00000000000E+00  0.00000000000E+00  0.42544582536E+03  0.42544582537E+03  0.25500000000E-02 0.  1.
          2   -1    0    0  501    0  0.00000000000E+00 -0.00000000000E+00 -0.80848087833E+03  0.80848087834E+03  0.25500000000E-02 0. -1.
    8880023    1    1    2    0    0  0.11431457144E+03 -0.10577063663E+03 -0.61565509465E+03  0.91492986105E+03  0.65864270000E+03 0. -1.
    8880022    1    1    2    0    0 -0.11431457144E+03  0.10577063663E+03  0.23262004168E+03  0.31899684265E+03  0.15294330000E+03 0.  0.
<mgrwt>
<rscale>  0 0.51003756E+03</rscale>
<asrwt>0</asrwt>
<pdfrwt beam="1">  1        2 0.12438167E+00 0.67680533E+03</pdfrwt>
<pdfrwt beam="2">  1       -2 0.65453204E-01 0.67680533E+03</pdfrwt>
<totfact> 0.74415907E+01</totfact>
</mgrwt>
</event>
<event>
 4    5  0.1905771E-007  0.7684999E+03  0.7818608E-02  0.9783579E-01
          2   -1    0    0  501    0  0.00000000000E+00  0.00000000000E+00  0.55135455917E+03  0.55135455917E+03  0.25500000000E-02 0. -1.
         -2   -1    0    0    0  501 -0.00000000000E+00 -0.00000000000E+00 -0.13230879359E+04  0.13230879359E+04  0.25500000000E-02 0.  1.
    8880023    1    1    2    0    0 -0.39329172494E+03 -0.45863384705E+02  0.21691370920E+03  0.79852588841E+03  0.65864270000E+03 0. -1.
    8880022    1    1    2    0    0  0.39329172494E+03  0.45863384705E+02 -0.98864708594E+03  0.10759166067E+04  0.15294330000E+03 0.  0.
<mgrwt>
<rscale>  0 0.66251270E+03</rscale>
<asrwt>0</asrwt>
<pdfrwt beam="1">  1        2 0.84823779E-01 0.76849986E+03</pdfrwt>
<pdfrwt beam="2">  1       -2 0.20355199E+00 0.76849986E+03</pdfrwt>
<totfact> 0.70456656E+00</totfact>
</mgrwt>
</event>
<event>
 4    5  0.1905771E-007  0.1016467E+04  0.7818608E-02  0.9360324E-01
         -2   -1    0    0    0  501 -0.00000000000E+00  0.00000000000E+00  0.22087064161E+04  0.22087064161E+04  0.25500000000E-02 0.  1.
          2   -1    0    0  501    0  0.00000000000E+00 -0.00000000000E+00 -0.86428450169E+03  0.86428450169E+03  0.25500000000E-02 0. -1.
    8880023    1    1    2    0    0  0.24445626911E+03  0.73459926713E+03 -0.45081650602E+03  0.11119535418E+04  0.65864270000E+03 0. -1.
    8880022    1    1    2    0    0 -0.24445626911E+03 -0.73459926713E+03  0.17952384204E+04  0.19610373760E+04  0.15294330000E+03 0.  0.
<mgrwt>
<rscale>  0 0.95414059E+03</rscale>
<asrwt>0</asrwt>
<pdfrwt beam="1">  1        2 0.13296685E+00 0.10164670E+04</pdfrwt>
<pdfrwt beam="2">  1       -2 0.33980099E+00 0.10164670E+04</pdfrwt>
<totfact> 0.56376029E-01</totfact>
</mgrwt>
</event>
<event>
 4    5  0.1905771E-007  0.1056589E+04  0.7818608E-02  0.9311002E-01
         -2   -1    0    0    0  501 -0.00000000000E+00  0.00000000000E+00  0.14946211848E+04  0.14946211848E+04  0.25500000000E-02 0.  1.
          2   -1    0    0  501    0  0.00000000000E+00 -0.00000000000E+00 -0.39582889498E+04  0.39582889498E+04  0.25500000000E-02 0. -1.
    8880023    1    1    2    0    0  0.69184860073E+03  0.45157064426E+03 -0.37613680062E+04  0.39069514993E+04  0.65864270000E+03 0.  0.
    8880022    1    1    2    0    0 -0.69184860073E+03 -0.45157064426E+03  0.12977002413E+04  0.15459586354E+04  0.15294330000E+03 0.  0.
<mgrwt>
<rscale>  0 0.99776279E+03</rscale>
<asrwt>0</asrwt>
<pdfrwt beam="1">  1        2 0.60896752E+00 0.10565892E+04</pdfrwt>
<pdfrwt beam="2">  1       -2 0.22994172E+00 0.10565892E+04</pdfrwt>
<totfact> 0.32769897E-02</totfact>
</mgrwt>
</event>
<event>
 4    5  0.1905771E-007  0.8464985E+03  0.7818608E-02  0.9618046E-01
          2   -1    0    0  501    0  0.00000000000E+00  0.00000000000E+00  0.57872490986E+03  0.57872490986E+03  0.25500000000E-02 0. -1.
         -2   -1    0    0    0  501 -0.00000000000E+00 -0.00000000000E+00 -0.28571076257E+04  0.28571076257E+04  0.25500000000E-02 0.  1.
    8880023    1    1    2    0    0 -0.42370842843E+03 -0.32127967493E+03  0.22186800916E+03  0.87509147042E+03  0.65864270000E+03 0. -1.
    8880022    1    1    2    0    0  0.42370842843E+03  0.32127967493E+03 -0.25002507250E+04  0.25607410652E+04  0.15294330000E+03 0.  0.
<mgrwt>
<rscale>  0 0.76113176E+03</rscale>
<asrwt>0</asrwt>
<pdfrwt beam="1">  1        2 0.89034603E-01 0.84649847E+03</pdfrwt>
<pdfrwt beam="2">  1       -2 0.43955501E+00 0.84649847E+03</pdfrwt>
<totfact> 0.22080898E-01</totfact>
</mgrwt>
</event>
<event>
 4    5  0.1905771E-007  0.1942040E+04  0.7818608E-02  0.8647785E-01
          2   -1    0    0  501    0  0.00000000000E+00  0.00000000000E+00  0.32028569769E+04  0.32028569769E+04  0.25500000000E-02 0. -1.
         -2   -1    0    0    0  501 -0.00000000000E+00 -0.00000000000E+00 -0.12585464400E+04  0.12585464400E+04  0.25500000000E-02 0.  1.
    8880023    1    1    2    0    0  0.16375572894E+04  0.81000823820E+03  0.23742878399E+03  0.19564993882E+04  0.65864270000E+03 0.  1.
    8880022    1    1    2    0    0 -0.16375572894E+04 -0.81000823820E+03  0.17068817528E+04  0.25049040288E+04  0.15294330000E+03 0.  0.
<mgrwt>
<rscale>  0 0.19142723E+04</rscale>
<asrwt>0</asrwt>
<pdfrwt beam="1">  1        2 0.49274723E+00 0.19420395E+04</pdfrwt>
<pdfrwt beam="2">  1       -2 0.19362253E+00 0.19420395E+04</pdfrwt>
<totfact> 0.17027275E-01</totfact>
</mgrwt>
</event>
<event>
 4    5  0.1905771E-007  0.7277925E+03  0.7818608E-02  0.9897050E-01
          2   -1    0    0  501    0  0.00000000000E+00  0.00000000000E+00  0.25574459652E+04  0.25574459652E+04  0.25500000000E-02 0. -1.
         -2   -1    0    0    0  501 -0.00000000000E+00 -0.00000000000E+00 -0.16862655274E+03  0.16862655276E+03  0.25500000000E-02 0.  1.
    8880023    1    1    2    0    0  0.26053233875E+03  0.16731576671E+03  0.22303748529E+04  0.23461146297E+04  0.65864270000E+03 0. -1.
    8880022    1    1    2    0    0 -0.26053233875E+03 -0.16731576671E+03  0.15844455955E+03  0.37995788818E+03  0.15294330000E+03 0.  0.
<mgrwt>
<rscale>  0 0.60404463E+03</rscale>
<asrwt>0</asrwt>
<pdfrwt beam="1">  1        2 0.39345318E+00 0.72779246E+03</pdfrwt>
<pdfrwt beam="2">  1       -2 0.25942550E-01 0.72779246E+03</pdfrwt>
<totfact> 0.45178270E+01</totfact>
</mgrwt>
</event>
<event>
 4    5  0.1905771E-007  0.1283888E+04  0.7818608E-02  0.9079600E-01
         -2   -1    0    0    0  501 -0.00000000000E+00  0.00000000000E+00  0.84241944283E+03  0.84241944283E+03  0.25500000000E-02 0.  1.
          2   -1    0    0  501    0  0.00000000000E+00 -0.00000000000E+00 -0.30297217450E+04  0.30297217450E+04  0.25500000000E-02 0. -1.
    8880023    1    1    2    0    0 -0.71143830901E+03 -0.84167377106E+03 -0.24162742037E+04  0.27361926902E+04  0.65864270000E+03 0. -1.
    8880022    1    1    2    0    0  0.71143830901E+03  0.84167377106E+03  0.22897190155E+03  0.11359484976E+04  0.15294330000E+03 0.  0.
<mgrwt>
<rscale>  0 0.12387492E+04</rscale>
<asrwt>0</asrwt>
<pdfrwt beam="1">  1        2 0.46611103E+00 0.12838884E+04</pdfrwt>
<pdfrwt beam="2">  1       -2 0.12960299E+00 0.12838884E+04</pdfrwt>
<totfact> 0.71253840E-01</totfact>
</mgrwt>
</event>
<event>
 4    5  0.1905771E-007  0.1212738E+04  0.7818608E-02  0.9144839E-01
         -2   -1    0    0    0  501 -0.00000000000E+00  0.00000000000E+00  0.38999196991E+03  0.38999196992E+03  0.25500000000E-02 0.  1.
          2   -1    0    0  501    0  0.00000000000E+00 -0.00000000000E+00 -0.43470460573E+04  0.43470460573E+04  0.25500000000E-02 0. -1.
    8880023    1    1    2    0    0 -0.86362371154E+03 -0.53951475356E+03 -0.89712835041E+03  0.15084997739E+04  0.65864270000E+03 0.  1.
    8880022    1    1    2    0    0  0.86362371154E+03  0.53951475356E+03 -0.30599257370E+04  0.32285382533E+04  0.15294330000E+03 0.  0.
<mgrwt>
<rscale>  0 0.11641378E+04</rscale>
<asrwt>0</asrwt>
<pdfrwt beam="1">  1        2 0.66877628E+00 0.12127375E+04</pdfrwt>
<pdfrwt beam="2">  1       -2 0.59998768E-01 0.12127375E+04</pdfrwt>
<totfact> 0.45783891E-01</totfact>
</mgrwt>
</event>
<event>
 4    5  0.1905771E-007  0.1539554E+04  0.7818608E-02  0.8882199E-01
         -2   -1    0    0    0  501 -0.00000000000E+00  0.00000000000E+00  0.10033888287E+04  0.10033888287E+04  0.25500000000E-02 0.  1.
          2   -1    0    0  501    0  0.00000000000E+00 -0.00000000000E+00 -0.38817620092E+04  0.38817620092E+04  0.25500000000E-02 0. -1.
    8880023    1    1    2    0    0  0.11918737216E+04  0.71822871842E+03  0.15200326326E+03  0.15470393203E+04  0.65864270000E+03 0.  0.
    8880022    1    1    2    0    0 -0.11918737216E+04 -0.71822871842E+03 -0.30303764438E+04  0.33381115177E+04  0.15294330000E+03 0.  0.
<mgrwt>
<rscale>  0 0.15033940E+04</rscale>
<asrwt>0</asrwt>
<pdfrwt beam="1">  1        2 0.59719415E+00 0.15395537E+04</pdfrwt>
<pdfrwt beam="2">  1       -2 0.15436751E+00 0.15395537E+04</pdfrwt>
<totfact> 0.11238282E-01</totfact>
</mgrwt>
</event>
<event>
 4    5  0.1905771E-007  0.6614173E+03  0.7818608E-02  0.1022749E+00
          2   -1    0    0  501    0  0.00000000000E+00  0.00000000000E+00  0.55085473327E+03  0.55085473328E+03  0.25500000000E-02 0. -1.
         -2   -1    0    0    0  501 -0.00000000000E+00 -0.00000000000E+00 -0.20439633679E+04  0.20439633679E+04  0.25500000000E-02 0.  1.
    8880023    1    1    2    0    0 -0.57699273375E+02  0.18260485043E+02  0.34731347820E+03  0.74706057978E+03  0.65864270000E+03 0. -1.
    8880022    1    1    2    0    0  0.57699273375E+02 -0.18260485043E+02 -0.18404221128E+04  0.18477575213E+04  0.15294330000E+03 0.  0.
<mgrwt>
<rscale>  0 0.46707456E+03</rscale>
<asrwt>0</asrwt>
<pdfrwt beam="1">  1        2 0.84746883E-01 0.66141731E+03</pdfrwt>
<pdfrwt beam="2">  1       -2 0.31445590E+00 0.66141731E+03</pdfrwt>
<totfact> 0.15123242E+00</totfact>
</mgrwt>
</event>
<event>
 4    5  0.1905771E-007  0.7327722E+03  0.7818608E-02  0.9881524E-01
          2   -1    0    0  501    0  0.00000000000E+00  0.00000000000E+00  0.42706163649E+03  0.42706163650E+03  0.25500000000E-02 0. -1.
         -2   -1    0    0    0  501 -0.00000000000E+00 -0.00000000000E+00 -0.17552533207E+04  0.17552533207E+04  0.25500000000E-02 0.  1.
    8880023    1    1    2    0    0 -0.31040359940E+03  0.82429143530E+02  0.73257905267E+02  0.73642507098E+03  0.65864270000E+03 0. -1.
    8880022    1    1    2    0    0  0.31040359940E+03 -0.82429143530E+02 -0.14014495895E+04  0.14458898862E+04  0.15294330000E+03 0.  1.
<mgrwt>
<rscale>  0 0.61165113E+03</rscale>
<asrwt>0</asrwt>
<pdfrwt beam="1">  1        2 0.65701791E-01 0.73277225E+03</pdfrwt>
<pdfrwt beam="2">  1       -2 0.27003897E+00 0.73277225E+03</pdfrwt>
<totfact> 0.37043423E+00</totfact>
</mgrwt>
</event>
<event>
 4    5  0.1905771E-007  0.1047206E+04  0.7818608E-02  0.9322248E-01
         -2   -1    0    0    0  501 -0.00000000000E+00  0.00000000000E+00  0.15553092517E+04  0.15553092517E+04  0.25500000000E-02 0.  1.
          2   -1    0    0  501    0  0.00000000000E+00 -0.00000000000E+00 -0.96381939606E+03  0.96381939607E+03  0.25500000000E-02 0. -1.
    8880023    1    1    2    0    0  0.61372303513E+03  0.53495197713E+03 -0.49054292765E+03  0.11564048391E+04  0.65864270000E+03 0. -1.
    8880022    1    1    2    0    0 -0.61372303513E+03 -0.53495197713E+03  0.10820327833E+04  0.13627238087E+04  0.15294330000E+03 0.  0.
<mgrwt>
<rscale>  0 0.98760213E+03</rscale>
<asrwt>0</asrwt>
<pdfrwt beam="1">  1        2 0.14827991E+00 0.10472057E+04</pdfrwt>
<pdfrwt beam="2">  1       -2 0.23927835E+00 0.10472057E+04</pdfrwt>
<totfact> 0.19701361E+00</totfact>
</mgrwt>
</event>
<event>
 4    5  0.1905771E-007  0.9190166E+03  0.7818608E-02  0.9496168E-01
         -2   -1    0    0    0  501 -0.00000000000E+00  0.00000000000E+00  0.12852745979E+04  0.12852745979E+04  0.25500000000E-02 0.  1.
          2   -1    0    0  501    0  0.00000000000E+00 -0.00000000000E+00 -0.90294288923E+03  0.90294288923E+03  0.25500000000E-02 0. -1.
    8880023    1    1    2    0    0 -0.49721083093E+03 -0.40442887822E+03 -0.53146985571E+03  0.10616269315E+04  0.65864270000E+03 0. -1.
    8880022    1    1    2    0    0  0.49721083093E+03  0.40442887822E+03  0.91380156440E+03  0.11265905556E+04  0.15294330000E+03 0.  0.
<mgrwt>
<rscale>  0 0.84566892E+03</rscale>
<asrwt>0</asrwt>
<pdfrwt beam="1">  1        2 0.13891429E+00 0.91901661E+03</pdfrwt>
<pdfrwt beam="2">  1       -2 0.19773455E+00 0.91901661E+03</pdfrwt>
<totfact> 0.40220040E+00</totfact>
</mgrwt>
</event>
<event>
 4    5  0.1905771E-007  0.6955584E+03  0.7818608E-02  0.1001615E+00
         -2   -1    0    0    0  501 -0.00000000000E+00  0.00000000000E+00  0.10087468019E+03  0.10087468022E+03  0.25500000000E-02 0.  1.
          2   -1    0    0  501    0  0.00000000000E+00 -0.00000000000E+00 -0.24016635651E+04  0.24016635651E+04  0.25500000000E-02 0. -1.
    8880023    1    1    2    0    0  0.10503886837E+03 -0.19737821987E+03 -0.18522633470E+04  0.19785552907E+04  0.65864270000E+03 0.  0.
    8880022    1    1    2    0    0 -0.10503886837E+03  0.19737821987E+03 -0.44852553794E+03  0.52398295463E+03  0.15294330000E+03 0.  0.
<mgrwt>
<rscale>  0 0.54947714E+03</rscale>
<asrwt>0</asrwt>
<pdfrwt beam="1">  1        2 0.36948666E+00 0.69555843E+03</pdfrwt>
<pdfrwt beam="2">  1       -2 0.15519183E-01 0.69555843E+03</pdfrwt>
<totfact> 0.13659749E+02</totfact>
</mgrwt>
</event>
<event>
 4    5  0.1963049E-007  0.1308169E+04  0.7818608E-02  0.9058537E-01
         -2   -1    0    0    0  501 -0.00000000000E+00  0.00000000000E+00  0.24145450480E+04  0.24145450480E+04  0.25500000000E-02 0.  1.
          2   -1    0    0  501    0  0.00000000000E+00 -0.00000000000E+00 -0.16398118789E+04  0.16398118789E+04  0.25500000000E-02 0. -1.
    8880023    1    1    2    0    0 -0.90340993420E+03  0.67922563836E+03 -0.11991653149E+04  0.17746280275E+04  0.65864270000E+03 0. -1.
    8880022    1    1    2    0    0  0.90340993420E+03 -0.67922563836E+03  0.19738984840E+04  0.22797288995E+04  0.15294330000E+03 0.  0.
<mgrwt>
<rscale>  0 0.12640900E+04</rscale>
<asrwt>0</asrwt>
<pdfrwt beam="1">  1        2 0.25227875E+00 0.13081694E+04</pdfrwt>
<pdfrwt beam="2">  1       -2 0.37146847E+00 0.13081694E+04</pdfrwt>
<totfact> 0.11626802E-01</totfact>
</mgrwt>
</event>
<event>
 4    5  0.1905771E-007  0.7579450E+03  0.7818608E-02  0.9810457E-01
         -2   -1    0    0    0  501 -0.00000000000E+00  0.00000000000E+00  0.35916168056E+03  0.35916168057E+03  0.25500000000E-02 0.  1.
          2   -1    0    0  501    0  0.00000000000E+00 -0.00000000000E+00 -0.18070602367E+04  0.18070602367E+04  0.25500000000E-02 0. -1.
    8880023    1    1    2    0    0  0.30491899426E+03 -0.21839160034E+03 -0.15698237332E+04  0.17432232340E+04  0.65864270000E+03 0.  0.
    8880022    1    1    2    0    0 -0.30491899426E+03  0.21839160034E+03  0.12192517708E+03  0.42299868319E+03  0.15294330000E+03 0.  1.
<mgrwt>
<rscale>  0 0.64804376E+03</rscale>
<asrwt>0</asrwt>
<pdfrwt beam="1">  1        2 0.27800926E+00 0.75794504E+03</pdfrwt>
<pdfrwt beam="2">  1       -2 0.55255644E-01 0.75794504E+03</pdfrwt>
<totfact> 0.27069393E+01</totfact>
</mgrwt>
</event>
<event>
 4    5  0.1905771E-007  0.9539321E+03  0.7818608E-02  0.9444479E-01
         -2   -1    0    0    0  501 -0.00000000000E+00  0.00000000000E+00  0.57426354815E+03  0.57426354815E+03  0.25500000000E-02 0.  1.
          2   -1    0    0  501    0  0.00000000000E+00 -0.00000000000E+00 -0.15894598760E+04  0.15894598760E+04  0.25500000000E-02 0. -1.
    8880023    1    1    2    0    0  0.45524243267E+03 -0.51858511710E+03 -0.10952166846E+04  0.14524069638E+04  0.65864270000E+03 0.  0.
    8880022    1    1    2    0    0 -0.45524243267E+03  0.51858511710E+03  0.80020356738E+02  0.71131646030E+03  0.15294330000E+03 0.  0.
<mgrwt>
<rscale>  0 0.88503898E+03</rscale>
<asrwt>0</asrwt>
<pdfrwt beam="1">  1        2 0.24453229E+00 0.95393207E+03</pdfrwt>
<pdfrwt beam="2">  1       -2 0.88348239E-01 0.95393207E+03</pdfrwt>
<totfact> 0.12490018E+01</totfact>
</mgrwt>
</event>
<event>
 4    5  0.1905771E-007  0.7376693E+03  0.7818608E-02  0.9866789E-01
          2   -1    0    0  501    0  0.00000000000E+00  0.00000000000E+00  0.97030604665E+03  0.97030604665E+03  0.25500000000E-02 0. -1.
         -2   -1    0    0    0  501 -0.00000000000E+00 -0.00000000000E+00 -0.79001274060E+03  0.79001274060E+03  0.25500000000E-02 0.  1.
    8880023    1    1    2    0    0  0.29309127181E+03 -0.15634352895E+03  0.77006022510E+03  0.10663717688E+04  0.65864270000E+03 0. -1.
    8880022    1    1    2    0    0 -0.29309127181E+03  0.15634352895E+03 -0.58976691905E+03  0.69394701850E+03  0.15294330000E+03 0.  0.
<mgrwt>
<rscale>  0 0.61898184E+03</rscale>
<asrwt>0</asrwt>
<pdfrwt beam="1">  1        2 0.14927785E+00 0.73766930E+03</pdfrwt>
<pdfrwt beam="2">  1       -2 0.12154042E+00 0.73766930E+03</pdfrwt>
<totfact> 0.13787845E+01</totfact>
</mgrwt>
</event>
<event>
 4    5  0.1905771E-007  0.1761001E+04  0.7818608E-02  0.8744421E-01
          2   -1    0    0  501    0  0.00000000000E+00  0.00000000000E+00  0.31244026880E+04  0.31244026880E+04  0.25500000000E-02 0. -1.
         -2   -1    0    0    0  501 -0.00000000000E+00 -0.00000000000E+00 -0.13157167998E+04  0.13157167998E+04  0.25500000000E-02 0.  1.
    8880023    1    1    2    0    0 -0.71083740685E+03  0.14703828313E+04  0.21350896795E+04  0.27676223795E+04  0.65864270000E+03 0.  0.
    8880022    1    1    2    0    0  0.71083740685E+03 -0.14703828313E+04 -0.32640379126E+03  0.16724971084E+04  0.15294330000E+03 0.  0.
<mgrwt>
<rscale>  0 0.17300277E+04</rscale>
<asrwt>0</asrwt>
<pdfrwt beam="1">  1        2 0.48067733E+00 0.17610013E+04</pdfrwt>
<pdfrwt beam="2">  1       -2 0.20241797E+00 0.17610013E+04</pdfrwt>
<totfact> 0.17034233E-01</totfact>
</mgrwt>
</event>
<event>
 4    5  0.1905771E-007  0.8580222E+03  0.7818608E-02  0.9597091E-01
          2   -1    0    0  501    0  0.00000000000E+00  0.00000000000E+00  0.20199727666E+04  0.20199727666E+04  0.25500000000E-02 0. -1.
         -2   -1    0    0    0  501 -0.00000000000E+00 -0.00000000000E+00 -0.37080105054E+03  0.37080105055E+03  0.25500000000E-02 0.  1.
    8880023    1    1    2    0    0  0.18754236665E+03  0.51693295472E+03  0.16029325620E+04  0.18181294848E+04  0.65864270000E+03 0.  0.
    8880022    1    1    2    0    0 -0.18754236665E+03 -0.51693295472E+03  0.46239154066E+02  0.57264433233E+03  0.15294330000E+03 0.  0.
<mgrwt>
<rscale>  0 0.77488992E+03</rscale>
<asrwt>0</asrwt>
<pdfrwt beam="1">  1        2 0.31076504E+00 0.85802216E+03</pdfrwt>
<pdfrwt beam="2">  1       -2 0.57046316E-01 0.85802216E+03</pdfrwt>
<totfact> 0.19135898E+01</totfact>
</mgrwt>
</event>
<event>
 4    5  0.1905771E-007  0.8573849E+03  0.7818608E-02  0.9598232E-01
         -2   -1    0    0    0  501 -0.00000000000E+00  0.00000000000E+00  0.62202255672E+03  0.62202255673E+03  0.25500000000E-02 0.  1.
          2   -1    0    0  501    0  0.00000000000E+00 -0.00000000000E+00 -0.19145948913E+04  0.19145948913E+04  0.25500000000E-02 0. -1.
    8880023    1    1    2    0    0  0.53407832251E+03 -0.12672379636E+03 -0.16531765743E+04  0.18622839653E+04  0.65864270000E+03 0.  0.
    8880022    1    1    2    0    0 -0.53407832251E+03  0.12672379636E+03  0.36060423980E+03  0.67433348271E+03  0.15294330000E+03 0.  0.
<mgrwt>
<rscale>  0 0.77413287E+03</rscale>
<asrwt>0</asrwt>
<pdfrwt beam="1">  1        2 0.29455306E+00 0.85738485E+03</pdfrwt>
<pdfrwt beam="2">  1       -2 0.95695779E-01 0.85738485E+03</pdfrwt>
<totfact> 0.69494645E+00</totfact>
</mgrwt>
</event>
<event>
 4    5  0.1981861E-007  0.6588104E+03  0.7818608E-02  0.1025410E+00
         -2   -1    0    0    0  501 -0.00000000000E+00  0.00000000000E+00  0.91500009560E+03  0.91500009560E+03  0.25500000000E-02 0.  1.
          2   -1    0    0  501    0  0.00000000000E+00 -0.00000000000E+00 -0.13901534034E+04  0.13901534034E+04  0.25500000000E-02 0. -1.
    8880023    1    1    2    0    0 -0.14809332710E+02 -0.12547140052E+01 -0.13046440898E+04  0.14615496221E+04  0.65864270000E+03 0. -1.
    8880022    1    1    2    0    0  0.14809332710E+02  0.12547140052E+01  0.82949078199E+03  0.84360387687E+03  0.15294330000E+03 0.  0.
<mgrwt>
<rscale>  0 0.45783940E+03</rscale>
<asrwt>0</asrwt>
<pdfrwt beam="1">  1        2 0.21386976E+00 0.65881036E+03</pdfrwt>
<pdfrwt beam="2">  1       -2 0.14076924E+00 0.65881036E+03</pdfrwt>
<totfact> 0.53912238E+00</totfact>
</mgrwt>
</event>
<event>
 4    5  0.1905771E-007  0.7734361E+03  0.7818608E-02  0.9771488E-01
          2   -1    0    0  501    0  0.00000000000E+00  0.00000000000E+00  0.91014384384E+03  0.91014384385E+03  0.25500000000E-02 0. -1.
         -2   -1    0    0    0  501 -0.00000000000E+00 -0.00000000000E+00 -0.44795236023E+03  0.44795236023E+03  0.25500000000E-02 0.  1.
    8880023    1    1    2    0    0  0.28791672633E+02 -0.40443079977E+03  0.75156645467E+02  0.77707912071E+03  0.65864270000E+03 0.  1.
    8880022    1    1    2    0    0 -0.28791672633E+02  0.40443079977E+03  0.38703483815E+03  0.58101708337E+03  0.15294330000E+03 0.  0.
<mgrwt>
<rscale>  0 0.66915375E+03</rscale>
<asrwt>0</asrwt>
<pdfrwt beam="1">  1        2 0.14002213E+00 0.77343612E+03</pdfrwt>
<pdfrwt beam="2">  1       -2 0.68915748E-01 0.77343612E+03</pdfrwt>
<totfact> 0.56207379E+01</totfact>
</mgrwt>
</event>
<event>
 4    5  0.1905771E-007  0.8715280E+03  0.7818608E-02  0.9573377E-01
         -2   -1    0    0    0  501 -0.00000000000E+00  0.00000000000E+00  0.29750128814E+03  0.29750128815E+03  0.25500000000E-02 0.  1.
          2   -1    0    0  501    0  0.00000000000E+00 -0.00000000000E+00 -0.24638883705E+04  0.24638883705E+04  0.25500000000E-02 0. -1.
    8880023    1    1    2    0    0 -0.56286845252E+03 -0.94498011356E+02 -0.19433235439E+04  0.21298045383E+04  0.65864270000E+03 0.  0.
    8880022    1    1    2    0    0  0.56286845252E+03  0.94498011356E+02 -0.22306353845E+03  0.63158512030E+03  0.15294330000E+03 0.  0.
<mgrwt>
<rscale>  0 0.79083580E+03</rscale>
<asrwt>0</asrwt>
<pdfrwt beam="1">  1        2 0.37905973E+00 0.87152795E+03</pdfrwt>
<pdfrwt beam="2">  1       -2 0.45769431E-01 0.87152795E+03</pdfrwt>
<totfact> 0.16989799E+01</totfact>
</mgrwt>
</event>
<event>
 4    5  0.1905771E-007  0.6605319E+03  0.7818608E-02  0.1023618E+00
         -2   -1    0    0    0  501 -0.00000000000E+00  0.00000000000E+00  0.34662869093E+03  0.34662869094E+03  0.25500000000E-02 0.  1.
          2   -1    0    0  501    0  0.00000000000E+00 -0.00000000000E+00 -0.10132403580E+04  0.10132403580E+04  0.25500000000E-02 0. -1.
    8880023    1    1    2    0    0 -0.37403178861E+02 -0.33062578868E+02 -0.87517463617E+03  0.10964638535E+04  0.65864270000E+03 0. -1.
    8880022    1    1    2    0    0  0.37403178861E+02  0.33062578868E+02  0.20856296910E+03  0.26340519548E+03  0.15294330000E+03 0.  0.
<mgrwt>
<rscale>  0 0.46403293E+03</rscale>
<asrwt>0</asrwt>
<pdfrwt beam="1">  1        2 0.15588313E+00 0.66053186E+03</pdfrwt>
<pdfrwt beam="2">  1       -2 0.53327491E-01 0.66053186E+03</pdfrwt>
<totfact> 0.83662758E+01</totfact>
</mgrwt>
</event>
<event>
 4    5  0.1905771E-007  0.1287622E+04  0.7818608E-02  0.9076324E-01
          2   -1    0    0  501    0  0.00000000000E+00  0.00000000000E+00  0.12430528033E+04  0.12430528033E+04  0.25500000000E-02 0. -1.
         -2   -1    0    0    0  501 -0.00000000000E+00 -0.00000000000E+00 -0.12007705279E+04  0.12007705279E+04  0.25500000000E-02 0.  1.
    8880023    1    1    2    0    0 -0.38516156513E+03  0.10372128396E+04 -0.19403327866E+03  0.13021593702E+04  0.65864270000E+03 0.  0.
    8880022    1    1    2    0    0  0.38516156513E+03 -0.10372128396E+04  0.23631555401E+03  0.11416639610E+04  0.15294330000E+03 0.  0.
<mgrwt>
<rscale>  0 0.12426493E+04</rscale>
<asrwt>0</asrwt>
<pdfrwt beam="1">  1        2 0.19123889E+00 0.12876219E+04</pdfrwt>
<pdfrwt beam="2">  1       -2 0.18473393E+00 0.12876219E+04</pdfrwt>
<totfact> 0.28937130E+00</totfact>
</mgrwt>
</event>
<event>
 4    5  0.1905771E-007  0.1087640E+04  0.7818608E-02  0.9274944E-01
          2   -1    0    0  501    0  0.00000000000E+00  0.00000000000E+00  0.28856893577E+04  0.28856893577E+04  0.25500000000E-02 0. -1.
         -2   -1    0    0    0  501 -0.00000000000E+00 -0.00000000000E+00 -0.46041822789E+03  0.46041822790E+03  0.25500000000E-02 0.  1.
    8880023    1    1    2    0    0  0.10607449597E+03  0.85900970923E+03  0.21757105485E+04  0.24324218541E+04  0.65864270000E+03 0.  0.
    8880022    1    1    2    0    0 -0.10607449597E+03 -0.85900970923E+03  0.24956058136E+03  0.91368573154E+03  0.15294330000E+03 0.  0.
<mgrwt>
<rscale>  0 0.10312262E+04</rscale>
<asrwt>0</asrwt>
<pdfrwt beam="1">  1        2 0.44395220E+00 0.10876395E+04</pdfrwt>
<pdfrwt beam="2">  1       -2 0.70833576E-01 0.10876395E+04</pdfrwt>
<totfact> 0.37397399E+00</totfact>
</mgrwt>
</event>
<event>
 4    5  0.1905771E-007  0.8416255E+03  0.7818608E-02  0.9627123E-01
         -2   -1    0    0    0  501 -0.00000000000E+00  0.00000000000E+00  0.35600857772E+03  0.35600857773E+03  0.25500000000E-02 0.  1.
          2   -1    0    0  501    0  0.00000000000E+00 -0.00000000000E+00 -0.22049031268E+04  0.22049031268E+04  0.25500000000E-02 0. -1.
    8880023    1    1    2    0    0 -0.75987426821E+02 -0.51841030410E+03 -0.18305846978E+04  0.20147887915E+04  0.65864270000E+03 0. -1.
    8880022    1    1    2    0    0  0.75987426821E+02  0.51841030410E+03 -0.18309851294E+02  0.54612291300E+03  0.15294330000E+03 0.  0.
<mgrwt>
<rscale>  0 0.75526737E+03</rscale>
<asrwt>0</asrwt>
<pdfrwt beam="1">  1        2 0.33921586E+00 0.84162553E+03</pdfrwt>
<pdfrwt beam="2">  1       -2 0.54770552E-01 0.84162553E+03</pdfrwt>
<totfact> 0.16511954E+01</totfact>
</mgrwt>
</event>
<event>
 4    5  0.1905771E-007  0.6611459E+03  0.7818608E-02  0.1023012E+00
          2   -1    0    0  501    0  0.00000000000E+00  0.00000000000E+00  0.23757494336E+03  0.23757494337E+03  0.25500000000E-02 0. -1.
         -2   -1    0    0    0  501 -0.00000000000E+00 -0.00000000000E+00 -0.91761402124E+03  0.91761402125E+03  0.25500000000E-02 0.  1.
    8880023    1    1    2    0    0  0.57390883240E+02 -0.31560151843E+01 -0.27064703648E+03  0.71439743738E+03  0.65864270000E+03 0. -1.
    8880022    1    1    2    0    0 -0.57390883240E+02  0.31560151843E+01 -0.40939204140E+03  0.44079152725E+03  0.15294330000E+03 0.  0.
<mgrwt>
<rscale>  0 0.46615181E+03</rscale>
<asrwt>0</asrwt>
<pdfrwt beam="1">  1        2 0.36549992E-01 0.66114588E+03</pdfrwt>
<pdfrwt beam="2">  1       -2 0.14117139E+00 0.66114588E+03</pdfrwt>
<totfact> 0.50866273E+01</totfact>
</mgrwt>
</event>
<event>
 4    5  0.1905771E-007  0.1375821E+04  0.7818608E-02  0.9002702E-01
         -2   -1    0    0    0  501 -0.00000000000E+00  0.00000000000E+00  0.14361685696E+04  0.14361685696E+04  0.25500000000E-02 0.  1.
          2   -1    0    0  501    0  0.00000000000E+00 -0.00000000000E+00 -0.17121224522E+04  0.17121224522E+04  0.25500000000E-02 0. -1.
    8880023    1    1    2    0    0  0.10229013746E+04 -0.64245321908E+03 -0.10277637651E+04  0.17173182361E+04  0.65864270000E+03 0.  0.
    8880022    1    1    2    0    0 -0.10229013746E+04  0.64245321908E+03  0.75180988257E+03  0.14309727857E+04  0.15294330000E+03 0.  0.
<mgrwt>
<rscale>  0 0.13344261E+04</rscale>
<asrwt>0</asrwt>
<pdfrwt beam="1">  1        2 0.26340346E+00 0.13758211E+04</pdfrwt>
<pdfrwt beam="2">  1       -2 0.22094901E+00 0.13758211E+04</pdfrwt>
<totfact> 0.89544743E-01</totfact>
</mgrwt>
</event>
<event>
 4    5  0.1905771E-007  0.6963434E+03  0.7818608E-02  0.1001272E+00
         -2   -1    0    0    0  501 -0.00000000000E+00  0.00000000000E+00  0.21349824622E+03  0.21349824623E+03  0.25500000000E-02 0.  1.
          2   -1    0    0  501    0  0.00000000000E+00 -0.00000000000E+00 -0.29231912350E+04  0.29231912350E+04  0.25500000000E-02 0. -1.
    8880023    1    1    2    0    0 -0.16495015655E+03 -0.15451656681E+03 -0.27708576407E+04  0.28570170099E+04  0.65864270000E+03 0. -1.
    8880022    1    1    2    0    0  0.16495015655E+03  0.15451656681E+03  0.61164651913E+02  0.27967247134E+03  0.15294330000E+03 0.  0.
<mgrwt>
<rscale>  0 0.55095906E+03</rscale>
<asrwt>0</asrwt>
<pdfrwt beam="1">  1        2 0.44972170E+00 0.69634340E+03</pdfrwt>
<pdfrwt beam="2">  1       -2 0.32845886E-01 0.69634340E+03</pdfrwt>
<totfact> 0.17940500E+01</totfact>
</mgrwt>
</event>
<event>
 4    5  0.1905771E-007  0.1525925E+04  0.7818608E-02  0.8891543E-01
         -2   -1    0    0    0  501 -0.00000000000E+00  0.00000000000E+00  0.16250269437E+04  0.16250269437E+04  0.25500000000E-02 0.  1.
          2   -1    0    0  501    0  0.00000000000E+00 -0.00000000000E+00 -0.14158854714E+04  0.14158854714E+04  0.25500000000E-02 0. -1.
    8880023    1    1    2    0    0 -0.22291493715E+03  0.13582874081E+04  0.53708537233E+03  0.16176855861E+04  0.65864270000E+03 0.  1.
    8880022    1    1    2    0    0  0.22291493715E+03 -0.13582874081E+04 -0.32794390009E+03  0.14232268290E+04  0.15294330000E+03 0.  0.
<mgrwt>
<rscale>  0 0.14893839E+04</rscale>
<asrwt>0</asrwt>
<pdfrwt beam="1">  1        2 0.21782853E+00 0.15259246E+04</pdfrwt>
<pdfrwt beam="2">  1       -2 0.25000415E+00 0.15259246E+04</pdfrwt>
<totfact> 0.85505656E-01</totfact>
</mgrwt>
</event>
<event>
 4    5  0.1905771E-007  0.1001233E+04  0.7818608E-02  0.9379947E-01
         -2   -1    0    0    0  501 -0.00000000000E+00  0.00000000000E+00  0.81180503858E+03  0.81180503859E+03  0.25500000000E-02 0.  1.
          2   -1    0    0  501    0  0.00000000000E+00 -0.00000000000E+00 -0.10956634988E+04  0.10956634989E+04  0.25500000000E-02 0. -1.
    8880023    1    1    2    0    0  0.56950044874E+03 -0.49429302968E+03  0.16788884356E+03  0.10152109290E+04  0.65864270000E+03 0.  0.
    8880022    1    1    2    0    0 -0.56950044874E+03  0.49429302968E+03 -0.45174730382E+03  0.89225760844E+03  0.15294330000E+03 0.  0.
<mgrwt>
<rscale>  0 0.93744507E+03</rscale>
<asrwt>0</asrwt>
<pdfrwt beam="1">  1        2 0.16856362E+00 0.10012325E+04</pdfrwt>
<pdfrwt beam="2">  1       -2 0.12489308E+00 0.10012325E+04</pdfrwt>
<totfact> 0.10450756E+01</totfact>
</mgrwt>
</event>
<event>
 4    5  0.1905771E-007  0.1117864E+04  0.7818608E-02  0.9241422E-01
          2   -1    0    0  501    0  0.00000000000E+00  0.00000000000E+00  0.34019627609E+04  0.34019627609E+04  0.25500000000E-02 0. -1.
         -2   -1    0    0    0  501 -0.00000000000E+00 -0.00000000000E+00 -0.46679314958E+03  0.46679314959E+03  0.25500000000E-02 0.  1.
    8880023    1    1    2    0    0  0.90321048765E+03  0.46455543348E+01  0.27010491171E+04  0.29232323386E+04  0.65864270000E+03 0.  0.
    8880022    1    1    2    0    0 -0.90321048765E+03 -0.46455543348E+01  0.23412049422E+03  0.94552357189E+03  0.15294330000E+03 0.  0.
<mgrwt>
<rscale>  0 0.10635924E+04</rscale>
<asrwt>0</asrwt>
<pdfrwt beam="1">  1        2 0.52337890E+00 0.11178645E+04</pdfrwt>
<pdfrwt beam="2">  1       -2 0.71814329E-01 0.11178645E+04</pdfrwt>
<totfact> 0.16941803E+00</totfact>
</mgrwt>
</event>
<event>
 4    5  0.1905771E-007  0.1794989E+04  0.7818608E-02  0.8725314E-01
         -2   -1    0    0    0  501 -0.00000000000E+00  0.00000000000E+00  0.14197415354E+04  0.14197415355E+04  0.25500000000E-02 0.  1.
          2   -1    0    0  501    0  0.00000000000E+00 -0.00000000000E+00 -0.32002877265E+04  0.32002877265E+04  0.25500000000E-02 0. -1.
    8880023    1    1    2    0    0 -0.82997222171E+03  0.14489030987E+04 -0.22504764262E+04  0.28786504528E+04  0.65864270000E+03 0.  0.
    8880022    1    1    2    0    0  0.82997222171E+03 -0.14489030987E+04  0.46993023512E+03  0.17413788092E+04  0.15294330000E+03 0.  0.
<mgrwt>
<rscale>  0 0.17646753E+04</rscale>
<asrwt>0</asrwt>
<pdfrwt beam="1">  1        2 0.49235196E+00 0.17949887E+04</pdfrwt>
<pdfrwt beam="2">  1       -2 0.21842178E+00 0.17949887E+04</pdfrwt>
<totfact> 0.11934734E-01</totfact>
</mgrwt>
</event>
<event>
 4    5  0.1905771E-007  0.9467261E+03  0.7818608E-02  0.9454840E-01
         -2   -1    0    0    0  501 -0.00000000000E+00  0.00000000000E+00  0.34704634454E+03  0.34704634455E+03  0.25500000000E-02 0.  1.
          2   -1    0    0  501    0  0.00000000000E+00 -0.00000000000E+00 -0.26175302149E+04  0.26175302149E+04  0.25500000000E-02 0. -1.
    8880023    1    1    2    0    0 -0.65004156565E+03 -0.19981494746E+03 -0.20075621220E+04  0.22195936408E+04  0.65864270000E+03 0.  0.
    8880022    1    1    2    0    0  0.65004156565E+03  0.19981494746E+03 -0.26292174833E+03  0.74498291863E+03  0.15294330000E+03 0.  0.
<mgrwt>
<rscale>  0 0.87696741E+03</rscale>
<asrwt>0</asrwt>
<pdfrwt beam="1">  1        2 0.40269694E+00 0.94672607E+03</pdfrwt>
<pdfrwt beam="2">  1       -2 0.53391747E-01 0.94672607E+03</pdfrwt>
<totfact> 0.10036379E+01</totfact>
</mgrwt>
</event>
<event>
 4    5  0.1905771E-007  0.1034962E+04  0.7818608E-02  0.9337182E-01
          2   -1    0    0  501    0  0.00000000000E+00  0.00000000000E+00  0.39734634150E+04  0.39734634150E+04  0.25500000000E-02 0. -1.
         -2   -1    0    0    0  501 -0.00000000000E+00 -0.00000000000E+00 -0.72646062969E+03  0.72646062969E+03  0.25500000000E-02 0.  1.
    8880023    1    1    2    0    0  0.88678387507E+02  0.79339230605E+03  0.36491187759E+04  0.37930480164E+04  0.65864270000E+03 0. -1.
    8880022    1    1    2    0    0 -0.88678387507E+02 -0.79339230605E+03 -0.40211599064E+03  0.90687602827E+03  0.15294330000E+03 0.  0.
<mgrwt>
<rscale>  0 0.97430719E+03</rscale>
<asrwt>0</asrwt>
<pdfrwt beam="1">  1        2 0.61130206E+00 0.10349616E+04</pdfrwt>
<pdfrwt beam="2">  1       -2 0.11176317E+00 0.10349616E+04</pdfrwt>
<totfact> 0.23668513E-01</totfact>
</mgrwt>
</event>
<event>
 4    5  0.1905771E-007  0.1297048E+04  0.7818608E-02  0.9068113E-01
          2   -1    0    0  501    0  0.00000000000E+00  0.00000000000E+00  0.19804190440E+04  0.19804190440E+04  0.25500000000E-02 0. -1.
         -2   -1    0    0    0  501 -0.00000000000E+00 -0.00000000000E+00 -0.10351590751E+04  0.10351590751E+04  0.25500000000E-02 0.  1.
    8880023    1    1    2    0    0 -0.14775322208E+03 -0.11075611880E+04  0.12969394365E+04  0.18342259697E+04  0.65864270000E+03 0.  0.
    8880022    1    1    2    0    0  0.14775322208E+03  0.11075611880E+04 -0.35167946766E+03  0.11813521493E+04  0.15294330000E+03 0.  0.
<mgrwt>
<rscale>  0 0.12524899E+04</rscale>
<asrwt>0</asrwt>
<pdfrwt beam="1">  1        2 0.30467985E+00 0.12970478E+04</pdfrwt>
<pdfrwt beam="2">  1       -2 0.15925524E+00 0.12970478E+04</pdfrwt>
<totfact> 0.16818080E+00</totfact>
</mgrwt>
</event>
<event>
 4    5  0.1905771E-007  0.1193683E+04  0.7818608E-02  0.9163287E-01
         -2   -1    0    0    0  501 -0.00000000000E+00  0.00000000000E+00  0.11357115125E+04  0.11357115125E+04  0.25500000000E-02 0.  1.
          2   -1    0    0  501    0  0.00000000000E+00 -0.00000000000E+00 -0.11250227779E+04  0.11250227779E+04  0.25500000000E-02 0. -1.
    8880023    1    1    2    0    0 -0.21138254348E+03 -0.97282403723E+03  0.26320752793E+03  0.12223573930E+04  0.65864270000E+03 0.  0.
    8880022    1    1    2    0    0  0.21138254348E+03  0.97282403723E+03 -0.25251879335E+03  0.10383768974E+04  0.15294330000E+03 0.  0.
<mgrwt>
<rscale>  0 0.11440531E+04</rscale>
<asrwt>0</asrwt>
<pdfrwt beam="1">  1        2 0.17308043E+00 0.11936831E+04</pdfrwt>
<pdfrwt beam="2">  1       -2 0.17472485E+00 0.11936831E+04</pdfrwt>
<totfact> 0.40362794E+00</totfact>
</mgrwt>
</event>
<event>
 4    5  0.2264770E-007  0.7914743E+03  0.7818608E-02  0.9729543E-01
          2   -1    0    0  501    0  0.00000000000E+00  0.00000000000E+00  0.20847533763E+04  0.20847533763E+04  0.25500000000E-02 0. -1.
         -2   -1    0    0    0  501 -0.00000000000E+00 -0.00000000000E+00 -0.69004994960E+03  0.69004994960E+03  0.25500000000E-02 0.  1.
    8880023    1    1    2    0    0 -0.36345508104E+03 -0.24601161794E+03  0.19180131498E+04  0.20748990244E+04  0.65864270000E+03 0.  0.
    8880022    1    1    2    0    0  0.36345508104E+03  0.24601161794E+03 -0.52330972308E+03  0.69990430159E+03  0.15294330000E+03 0.  1.
<mgrwt>
<rscale>  0 0.69284738E+03</rscale>
<asrwt>0</asrwt>
<pdfrwt beam="1">  1        2 0.32073129E+00 0.79147427E+03</pdfrwt>
<pdfrwt beam="2">  1       -2 0.10616153E+00 0.79147427E+03</pdfrwt>
<totfact> 0.44239473E+00</totfact>
</mgrwt>
</event>
<event>
 4    5  0.1905771E-007  0.7217090E+03  0.7818608E-02  0.9916845E-01
         -2   -1    0    0    0  501 -0.00000000000E+00  0.00000000000E+00  0.22297024840E+03  0.22297024841E+03  0.25500000000E-02 0.  1.
          2   -1    0    0  501    0  0.00000000000E+00 -0.00000000000E+00 -0.17487007161E+04  0.17487007161E+04  0.25500000000E-02 0. -1.
    8880023    1    1    2    0    0  0.20793923138E+03  0.20932034254E+03 -0.14659904536E+04  0.16340109994E+04  0.65864270000E+03 0. -1.
    8880022    1    1    2    0    0 -0.20793923138E+03 -0.20932034254E+03 -0.59740014070E+02  0.33765996512E+03  0.15294330000E+03 0.  0.
<mgrwt>
<rscale>  0 0.59451806E+03</rscale>
<asrwt>0</asrwt>
<pdfrwt beam="1">  1        2 0.26903087E+00 0.72170904E+03</pdfrwt>
<pdfrwt beam="2">  1       -2 0.34303116E-01 0.72170904E+03</pdfrwt>
<totfact> 0.75284346E+01</totfact>
</mgrwt>
</event>
<event>
 4    5  0.1905771E-007  0.8947772E+03  0.7818608E-02  0.9534468E-01
          2   -1    0    0  501    0  0.00000000000E+00  0.00000000000E+00  0.99185142370E+03  0.99185142370E+03  0.25500000000E-02 0. -1.
         -2   -1    0    0    0  501 -0.00000000000E+00 -0.00000000000E+00 -0.98149332758E+03  0.98149332758E+03  0.25500000000E-02 0.  1.
    8880023    1    1    2    0    0  0.25625585556E+03 -0.54877034873E+03  0.62934636628E+03  0.10939392187E+04  0.65864270000E+03 0.  0.
    8880022    1    1    2    0    0 -0.25625585556E+03  0.54877034873E+03 -0.61898827016E+03  0.87940553260E+03  0.15294330000E+03 0.  0.
<mgrwt>
<rscale>  0 0.81789609E+03</rscale>
<asrwt>0</asrwt>
<pdfrwt beam="1">  1        2 0.15259253E+00 0.89477716E+03</pdfrwt>
<pdfrwt beam="2">  1       -2 0.15099897E+00 0.89477716E+03</pdfrwt>
<totfact> 0.75176588E+00</totfact>
</mgrwt>
</event>
<event>
 4    5  0.1905771E-007  0.7332708E+03  0.7818608E-02  0.9880001E-01
          2   -1    0    0  501    0  0.00000000000E+00  0.00000000000E+00  0.22253931549E+04  0.22253931549E+04  0.25500000000E-02 0. -1.
         -2   -1    0    0    0  501 -0.00000000000E+00 -0.00000000000E+00 -0.13413048869E+04  0.13413048869E+04  0.25500000000E-02 0.  1.
    8880023    1    1    2    0    0  0.30907961387E+03  0.91354928364E+02  0.21394547701E+04  0.22616261518E+04  0.65864270000E+03 0. -1.
    8880022    1    1    2    0    0 -0.30907961387E+03 -0.91354928364E+02 -0.12553665021E+04  0.13050718900E+04  0.15294330000E+03 0.  0.
<mgrwt>
<rscale>  0 0.61240403E+03</rscale>
<asrwt>0</asrwt>
<pdfrwt beam="1">  1        2 0.34236817E+00 0.73327085E+03</pdfrwt>
<pdfrwt beam="2">  1       -2 0.20635460E+00 0.73327085E+03</pdfrwt>
<totfact> 0.63721230E-01</totfact>
</mgrwt>
</event>
<event>
 4    5  0.1905771E-007  0.9708287E+03  0.7818608E-02  0.9420759E-01
          2   -1    0    0  501    0  0.00000000000E+00  0.00000000000E+00  0.67115474226E+03  0.67115474226E+03  0.25500000000E-02 0. -1.
         -2   -1    0    0    0  501 -0.00000000000E+00 -0.00000000000E+00 -0.20606096461E+04  0.20606096461E+04  0.25500000000E-02 0.  1.
    8880023    1    1    2    0    0 -0.68714925266E+03 -0.19111245784E+03  0.19250375992E+03  0.98973025154E+03  0.65864270000E+03 0.  0.
    8880022    1    1    2    0    0  0.68714925266E+03  0.19111245784E+03 -0.15819586638E+04  0.17420341368E+04  0.15294330000E+03 0.  0.
<mgrwt>
<rscale>  0 0.90386808E+03</rscale>
<asrwt>0</asrwt>
<pdfrwt beam="1">  1        2 0.10325458E+00 0.97082865E+03</pdfrwt>
<pdfrwt beam="2">  1       -2 0.31701687E+00 0.97082865E+03</pdfrwt>
<totfact> 0.10922573E+00</totfact>
</mgrwt>
</event>
<event>
 4    5  0.1905771E-007  0.7859267E+03  0.7818608E-02  0.9742095E-01
          2   -1    0    0  501    0  0.00000000000E+00  0.00000000000E+00  0.17907922429E+04  0.17907922429E+04  0.25500000000E-02 0. -1.
         -2   -1    0    0    0  501 -0.00000000000E+00 -0.00000000000E+00 -0.77859062821E+03  0.77859062822E+03  0.25500000000E-02 0.  1.
    8880023    1    1    2    0    0  0.38438076950E+03 -0.19005796447E+03  0.16255296778E+04  0.18055546366E+04  0.65864270000E+03 0. -1.
    8880022    1    1    2    0    0 -0.38438076950E+03  0.19005796447E+03 -0.61332806316E+03  0.76382823455E+03  0.15294330000E+03 0.  0.
<mgrwt>
<rscale>  0 0.68564856E+03</rscale>
<asrwt>0</asrwt>
<pdfrwt beam="1">  1        2 0.27550650E+00 0.78592672E+03</pdfrwt>
<pdfrwt beam="2">  1       -2 0.11978317E+00 0.78592672E+03</pdfrwt>
<totfact> 0.47760994E+00</totfact>
</mgrwt>
</event>
<event>
 4    5  0.1905771E-007  0.7980354E+03  0.7818608E-02  0.9715060E-01
         -2   -1    0    0    0  501 -0.00000000000E+00  0.00000000000E+00  0.35802289011E+03  0.35802289012E+03  0.25500000000E-02 0.  1.
          2   -1    0    0  501    0  0.00000000000E+00 -0.00000000000E+00 -0.35451631925E+04  0.35451631925E+04  0.25500000000E-02 0. -1.
    8880023    1    1    2    0    0  0.22301104682E+03  0.39155635654E+03 -0.33156038828E+04  0.34102917208E+04  0.65864270000E+03 0. -1.
    8880022    1    1    2    0    0 -0.22301104682E+03 -0.39155635654E+03  0.12846358043E+03  0.49289436177E+03  0.15294330000E+03 0.  0.
<mgrwt>
<rscale>  0 0.70127157E+03</rscale>
<asrwt>0</asrwt>
<pdfrwt beam="1">  1        2 0.54540970E+00 0.79803541E+03</pdfrwt>
<pdfrwt beam="2">  1       -2 0.55080447E-01 0.79803541E+03</pdfrwt>
<totfact> 0.25233864E+00</totfact>
</mgrwt>
</event>
<event>
 4    5  0.1905771E-007  0.1583605E+04  0.7818608E-02  0.8852750E-01
          2   -1    0    0  501    0  0.00000000000E+00  0.00000000000E+00  0.30874745437E+04  0.30874745437E+04  0.25500000000E-02 0. -1.
         -2   -1    0    0    0  501 -0.00000000000E+00 -0.00000000000E+00 -0.12449995705E+04  0.12449995705E+04  0.25500000000E-02 0.  1.
    8880023    1    1    2    0    0 -0.12636318283E+04 -0.69081738986E+03  0.23187633867E+04  0.28079294709E+04  0.65864270000E+03 0. -1.
    8880022    1    1    2    0    0  0.12636318283E+04  0.69081738986E+03 -0.47628841348E+03  0.15245446433E+04  0.15294330000E+03 0.  0.
<mgrwt>
<rscale>  0 0.15486201E+04</rscale>
<asrwt>0</asrwt>
<pdfrwt beam="1">  1        2 0.47499608E+00 0.15836048E+04</pdfrwt>
<pdfrwt beam="2">  1       -2 0.19153840E+00 0.15836048E+04</pdfrwt>
<totfact> 0.21681024E-01</totfact>
</mgrwt>
</event>
<event>
 4    5  0.1905771E-007  0.1023965E+04  0.7818608E-02  0.9350855E-01
         -2   -1    0    0    0  501 -0.00000000000E+00  0.00000000000E+00  0.12953708845E+04  0.12953708845E+04  0.25500000000E-02 0.  1.
          2   -1    0    0  501    0  0.00000000000E+00 -0.00000000000E+00 -0.91996365546E+03  0.91996365546E+03  0.25500000000E-02 0. -1.
    8880023    1    1    2    0    0 -0.39019288228E+03  0.68003136968E+03 -0.40259700193E+03  0.11002671045E+04  0.65864270000E+03 0.  0.
    8880022    1    1    2    0    0  0.39019288228E+03 -0.68003136968E+03  0.77800423102E+03  0.11150674355E+04  0.15294330000E+03 0.  0.
<mgrwt>
<rscale>  0 0.96232880E+03</rscale>
<asrwt>0</asrwt>
<pdfrwt beam="1">  1        2 0.14153287E+00 0.10239645E+04</pdfrwt>
<pdfrwt beam="2">  1       -2 0.19928783E+00 0.10239645E+04</pdfrwt>
<totfact> 0.37829633E+00</totfact>
</mgrwt>
</event>
<event>
 4    5  0.1905771E-007  0.6948016E+03  0.7818608E-02  0.1001949E+00
         -2   -1    0    0    0  501 -0.00000000000E+00  0.00000000000E+00  0.67897017837E+03  0.67897017837E+03  0.25500000000E-02 0.  1.
          2   -1    0    0  501    0  0.00000000000E+00 -0.00000000000E+00 -0.92557414140E+03  0.92557414141E+03  0.25500000000E-02 0. -1.
    8880023    1    1    2    0    0 -0.64715213766E+02  0.21154427165E+03 -0.75706507478E+03  0.10275683780E+04  0.65864270000E+03 0. -1.
    8880022    1    1    2    0    0  0.64715213766E+02 -0.21154427165E+03  0.51046111175E+03  0.57697594177E+03  0.15294330000E+03 0.  0.
<mgrwt>
<rscale>  0 0.54803832E+03</rscale>
<asrwt>0</asrwt>
<pdfrwt beam="1">  1        2 0.14239602E+00 0.69480159E+03</pdfrwt>
<pdfrwt beam="2">  1       -2 0.10445695E+00 0.69480159E+03</pdfrwt>
<totfact> 0.21428013E+01</totfact>
</mgrwt>
</event>
<event>
 4    5  0.1905771E-007  0.1177563E+04  0.7818608E-02  0.9179247E-01
         -2   -1    0    0    0  501 -0.00000000000E+00  0.00000000000E+00  0.14435007127E+04  0.14435007127E+04  0.25500000000E-02 0.  1.
          2   -1    0    0  501    0  0.00000000000E+00 -0.00000000000E+00 -0.12682908558E+04  0.12682908558E+04  0.25500000000E-02 0. -1.
    8880023    1    1    2    0    0 -0.89865206086E+03 -0.38114266060E+03 -0.71855194859E+03  0.13794826433E+04  0.65864270000E+03 0.  0.
    8880022    1    1    2    0    0  0.89865206086E+03  0.38114266060E+03  0.89376180542E+03  0.13323089252E+04  0.15294330000E+03 0.  0.
<mgrwt>
<rscale>  0 0.11270226E+04</rscale>
<asrwt>0</asrwt>
<pdfrwt beam="1">  1        2 0.19512167E+00 0.11775634E+04</pdfrwt>
<pdfrwt beam="2">  1       -2 0.22207703E+00 0.11775634E+04</pdfrwt>
<totfact> 0.16104574E+00</totfact>
</mgrwt>
</event>
<event>
 4    5  0.1905771E-007  0.1184554E+04  0.7818608E-02  0.9172285E-01
          2   -1    0    0  501    0  0.00000000000E+00  0.00000000000E+00  0.19584033493E+04  0.19584033493E+04  0.25500000000E-02 0. -1.
         -2   -1    0    0    0  501 -0.00000000000E+00 -0.00000000000E+00 -0.11510591791E+04  0.11510591791E+04  0.25500000000E-02 0.  1.
    8880023    1    1    2    0    0 -0.98186324084E+03  0.72821448554E+02  0.14886484885E+04  0.19024307913E+04  0.65864270000E+03 0. -1.
    8880022    1    1    2    0    0  0.98186324084E+03 -0.72821448554E+02 -0.68130431831E+03  0.12070317370E+04  0.15294330000E+03 0.  0.
<mgrwt>
<rscale>  0 0.11344130E+04</rscale>
<asrwt>0</asrwt>
<pdfrwt beam="1">  1        2 0.30129282E+00 0.11845542E+04</pdfrwt>
<pdfrwt beam="2">  1       -2 0.17708603E+00 0.11845542E+04</pdfrwt>
<totfact> 0.13031100E+00</totfact>
</mgrwt>
</event>
<event>
 4    5  0.1905771E-007  0.7293768E+03  0.7818608E-02  0.9892048E-01
          2   -1    0    0  501    0  0.00000000000E+00  0.00000000000E+00  0.96986055439E+03  0.96986055440E+03  0.25500000000E-02 0. -1.
         -2   -1    0    0    0  501 -0.00000000000E+00 -0.00000000000E+00 -0.83554897789E+03  0.83554897789E+03  0.25500000000E-02 0.  1.
    8880023    1    1    2    0    0  0.24234988687E+03 -0.19861246951E+03  0.78229835984E+03  0.10695706198E+04  0.65864270000E+03 0. -1.
    8880022    1    1    2    0    0 -0.24234988687E+03  0.19861246951E+03 -0.64798678333E+03  0.73583891247E+03  0.15294330000E+03 0.  0.
<mgrwt>
<rscale>  0 0.60648238E+03</rscale>
<asrwt>0</asrwt>
<pdfrwt beam="1">  1        2 0.14920932E+00 0.72937685E+03</pdfrwt>
<pdfrwt beam="2">  1       -2 0.12854600E+00 0.72937685E+03</pdfrwt>
<totfact> 0.12000490E+01</totfact>
</mgrwt>
</event>
<event>
 4    5  0.1905771E-007  0.1182424E+04  0.7818608E-02  0.9174400E-01
         -2   -1    0    0    0  501 -0.00000000000E+00  0.00000000000E+00  0.92195037910E+03  0.92195037911E+03  0.25500000000E-02 0.  1.
          2   -1    0    0  501    0  0.00000000000E+00 -0.00000000000E+00 -0.20689578454E+04  0.20689578454E+04  0.25500000000E-02 0. -1.
    8880023    1    1    2    0    0 -0.66125443264E+03 -0.72598836164E+03 -0.15231790525E+04  0.19282637678E+04  0.65864270000E+03 0. -1.
    8880022    1    1    2    0    0  0.66125443264E+03  0.72598836164E+03  0.37617158628E+03  0.10626444567E+04  0.15294330000E+03 0.  0.
<mgrwt>
<rscale>  0 0.11321619E+04</rscale>
<asrwt>0</asrwt>
<pdfrwt beam="1">  1        2 0.31830121E+00 0.11824241E+04</pdfrwt>
<pdfrwt beam="2">  1       -2 0.14183852E+00 0.11824241E+04</pdfrwt>
<totfact> 0.20728814E+00</totfact>
</mgrwt>
</event>
<event>
 4    5  0.1905771E-007  0.8212164E+03  0.7818608E-02  0.9666671E-01
         -2   -1    0    0    0  501 -0.00000000000E+00  0.00000000000E+00  0.56386615640E+03  0.56386615641E+03  0.25500000000E-02 0.  1.
          2   -1    0    0  501    0  0.00000000000E+00 -0.00000000000E+00 -0.24061747217E+04  0.24061747217E+04  0.25500000000E-02 0. -1.
    8880023    1    1    2    0    0  0.39259344699E+03  0.29403487928E+03 -0.21971656999E+04  0.23456200554E+04  0.65864270000E+03 0. -1.
    8880022    1    1    2    0    0 -0.39259344699E+03 -0.29403487928E+03  0.35485713465E+03  0.62442082274E+03  0.15294330000E+03 0.  0.
<mgrwt>
<rscale>  0 0.73036360E+03</rscale>
<asrwt>0</asrwt>
<pdfrwt beam="1">  1        2 0.37018072E+00 0.82121637E+03</pdfrwt>
<pdfrwt beam="2">  1       -2 0.86748640E-01 0.82121637E+03</pdfrwt>
<totfact> 0.46918458E+00</totfact>
</mgrwt>
</event>
<event>
 4    5  0.1905771E-007  0.8124889E+03  0.7818608E-02  0.9684416E-01
          2   -1    0    0  501    0  0.00000000000E+00  0.00000000000E+00  0.23880096059E+04  0.23880096059E+04  0.25500000000E-02 0. -1.
         -2   -1    0    0    0  501 -0.00000000000E+00 -0.00000000000E+00 -0.73029252525E+03  0.73029252526E+03  0.25500000000E-02 0.  1.
    8880023    1    1    2    0    0 -0.46044407761E+03 -0.11966294209E+03  0.22212105512E+04  0.23651457645E+04  0.65864270000E+03 0. -1.
    8880022    1    1    2    0    0  0.46044407761E+03  0.11966294209E+03 -0.56349347053E+03  0.75315636668E+03  0.15294330000E+03 0.  0.
<mgrwt>
<rscale>  0 0.71952295E+03</rscale>
<asrwt>0</asrwt>
<pdfrwt beam="1">  1        2 0.36738610E+00 0.81248888E+03</pdfrwt>
<pdfrwt beam="2">  1       -2 0.11235270E+00 0.81248888E+03</pdfrwt>
<totfact> 0.26098788E+00</totfact>
</mgrwt>
</event>
<event>
 4    5  0.1905771E-007  0.7346411E+03  0.7818608E-02  0.9875841E-01
          2   -1    0    0  501    0  0.00000000000E+00  0.00000000000E+00  0.81172320723E+03  0.81172320723E+03  0.25500000000E-02 0. -1.
         -2   -1    0    0    0  501 -0.00000000000E+00 -0.00000000000E+00 -0.78354843361E+03  0.78354843361E+03  0.25500000000E-02 0.  1.
    8880023    1    1    2    0    0  0.26791170707E+03  0.18469074037E+03  0.58044135504E+03  0.93627438567E+03  0.65864270000E+03 0. -1.
    8880022    1    1    2    0    0 -0.26791170707E+03 -0.18469074037E+03 -0.55226658141E+03  0.65899725517E+03  0.15294330000E+03 0.  0.
<mgrwt>
<rscale>  0 0.61446538E+03</rscale>
<asrwt>0</asrwt>
<pdfrwt beam="1">  1        2 0.12488049E+00 0.73464111E+03</pdfrwt>
<pdfrwt beam="2">  1       -2 0.12054591E+00 0.73464111E+03</pdfrwt>
<totfact> 0.18027555E+01</totfact>
</mgrwt>
</event>
<event>
 4    5  0.1905771E-007  0.1542333E+04  0.7818608E-02  0.8880308E-01
          2   -1    0    0  501    0  0.00000000000E+00  0.00000000000E+00  0.19325664133E+04  0.19325664133E+04  0.25500000000E-02 0. -1.
         -2   -1    0    0    0  501 -0.00000000000E+00 -0.00000000000E+00 -0.16041691349E+04  0.16041691349E+04  0.25500000000E-02 0.  1.
    8880023    1    1    2    0    0 -0.47660161359E+03  0.13106602783E+04  0.11381714288E+04  0.19168265104E+04  0.65864270000E+03 0.  0.
    8880022    1    1    2    0    0  0.47660161359E+03 -0.13106602783E+04 -0.80977415048E+03  0.16199090379E+04  0.15294330000E+03 0.  0.
<mgrwt>
<rscale>  0 0.15062494E+04</rscale>
<asrwt>0</asrwt>
<pdfrwt beam="1">  1        2 0.29731791E+00 0.15423325E+04</pdfrwt>
<pdfrwt beam="2">  1       -2 0.24679525E+00 0.15423325E+04</pdfrwt>
<totfact> 0.45730015E-01</totfact>
</mgrwt>
</event>
<event>
 4    5  0.1905771E-007  0.1016768E+04  0.7818608E-02  0.9359941E-01
          2   -1    0    0  501    0  0.00000000000E+00  0.00000000000E+00  0.30921541580E+04  0.30921541580E+04  0.25500000000E-02 0. -1.
         -2   -1    0    0    0  501 -0.00000000000E+00 -0.00000000000E+00 -0.76158191365E+03  0.76158191365E+03  0.25500000000E-02 0.  1.
    8880023    1    1    2    0    0  0.62303475009E+03  0.46025586172E+03  0.27695925813E+04  0.29503323593E+04  0.65864270000E+03 0.  0.
    8880022    1    1    2    0    0 -0.62303475009E+03 -0.46025586172E+03 -0.43902033696E+03  0.90340371227E+03  0.15294330000E+03 0.  0.
<mgrwt>
<rscale>  0 0.95447010E+03</rscale>
<asrwt>0</asrwt>
<pdfrwt beam="1">  1        2 0.47571601E+00 0.10167684E+04</pdfrwt>
<pdfrwt beam="2">  1       -2 0.11716645E+00 0.10167684E+04</pdfrwt>
<totfact> 0.87271813E-01</totfact>
</mgrwt>
</event>
<event>
 4    5  0.1905771E-007  0.7334903E+03  0.7818608E-02  0.9879332E-01
         -2   -1    0    0    0  501 -0.00000000000E+00  0.00000000000E+00  0.55105508686E+03  0.55105508686E+03  0.25500000000E-02 0.  1.
          2   -1    0    0  501    0  0.00000000000E+00 -0.00000000000E+00 -0.14571437979E+04  0.14571437979E+04  0.25500000000E-02 0. -1.
    8880023    1    1    2    0    0 -0.14009584005E+03 -0.29081085573E+03 -0.12899162856E+04  0.14838773629E+04  0.65864270000E+03 0. -1.
    8880022    1    1    2    0    0  0.14009584005E+03  0.29081085573E+03  0.38382757456E+03  0.52432152179E+03  0.15294330000E+03 0.  0.
<mgrwt>
<rscale>  0 0.61273491E+03</rscale>
<asrwt>0</asrwt>
<pdfrwt beam="1">  1        2 0.22417597E+00 0.73349029E+03</pdfrwt>
<pdfrwt beam="2">  1       -2 0.84777706E-01 0.73349029E+03</pdfrwt>
<totfact> 0.16686849E+01</totfact>
</mgrwt>
</event>
<event>
 4    5  0.1905771E-007  0.1130567E+04  0.7818608E-02  0.9227763E-01
         -2   -1    0    0    0  501 -0.00000000000E+00  0.00000000000E+00  0.20397658797E+04  0.20397658797E+04  0.25500000000E-02 0.  1.
          2   -1    0    0  501    0  0.00000000000E+00 -0.00000000000E+00 -0.77255921654E+03  0.77255921654E+03  0.25500000000E-02 0. -1.
    8880023    1    1    2    0    0 -0.83595653627E+03 -0.38150696298E+03 -0.12474130746E+03  0.11374275772E+04  0.65864270000E+03 0.  0.
    8880022    1    1    2    0    0  0.83595653627E+03  0.38150696298E+03  0.13919479706E+04  0.16748975190E+04  0.15294330000E+03 0.  0.
<mgrwt>
<rscale>  0 0.10771403E+04</rscale>
<asrwt>0</asrwt>
<pdfrwt beam="1">  1        2 0.11885526E+00 0.11305667E+04</pdfrwt>
<pdfrwt beam="2">  1       -2 0.31381014E+00 0.11305667E+04</pdfrwt>
<totfact> 0.93397239E-01</totfact>
</mgrwt>
</event>
<event>
 4    5  0.1905771E-007  0.6888122E+03  0.7818608E-02  0.1004722E+00
          2   -1    0    0  501    0  0.00000000000E+00  0.00000000000E+00  0.28113001499E+03  0.28113001501E+03  0.25500000000E-02 0. -1.
         -2   -1    0    0    0  501 -0.00000000000E+00 -0.00000000000E+00 -0.20885892230E+04  0.20885892230E+04  0.25500000000E-02 0.  1.
    8880023    1    1    2    0    0 -0.93721395245E+02  0.17851712348E+03 -0.16555728577E+03  0.70842888453E+03  0.65864270000E+03 0.  0.
    8880022    1    1    2    0    0  0.93721395245E+02 -0.17851712348E+03 -0.16419019222E+04  0.16612903535E+04  0.15294330000E+03 0.  1.
<mgrwt>
<rscale>  0 0.53627209E+03</rscale>
<asrwt>0</asrwt>
<pdfrwt beam="1">  1        2 0.43250773E-01 0.68881222E+03</pdfrwt>
<pdfrwt beam="2">  1       -2 0.32132141E+00 0.68881222E+03</pdfrwt>
<totfact> 0.29247475E+00</totfact>
</mgrwt>
</event>
<event>
 4    5  0.1905771E-007  0.9177401E+03  0.7818608E-02  0.9498133E-01
         -2   -1    0    0    0  501 -0.00000000000E+00  0.00000000000E+00  0.60576775409E+03  0.60576775409E+03  0.25500000000E-02 0.  1.
          2   -1    0    0  501    0  0.00000000000E+00 -0.00000000000E+00 -0.26064889307E+04  0.26064889307E+04  0.25500000000E-02 0. -1.
    8880023    1    1    2    0    0  0.33686938503E+03 -0.54309826701E+03  0.17952206632E+03  0.93513372774E+03  0.65864270000E+03 0.  0.
    8880022    1    1    2    0    0 -0.33686938503E+03  0.54309826701E+03 -0.21802432429E+04  0.22771229570E+04  0.15294330000E+03 0.  0.
<mgrwt>
<rscale>  0 0.84421620E+03</rscale>
<asrwt>0</asrwt>
<pdfrwt beam="1">  1        2 0.40099829E+00 0.91774011E+03</pdfrwt>
<pdfrwt beam="2">  1       -2 0.93195040E-01 0.91774011E+03</pdfrwt>
<totfact> 0.30098080E+00</totfact>
</mgrwt>
</event>
<event>
 4    5  0.1905771E-007  0.1271791E+04  0.7818608E-02  0.9090311E-01
         -2   -1    0    0    0  501 -0.00000000000E+00  0.00000000000E+00  0.16061957895E+04  0.16061957895E+04  0.25500000000E-02 0.  1.
          2   -1    0    0  501    0  0.00000000000E+00 -0.00000000000E+00 -0.19370218309E+04  0.19370218309E+04  0.25500000000E-02 0. -1.
    8880023    1    1    2    0    0  0.10799376053E+04  0.13182224828E+03 -0.14813444595E+04  0.19523918537E+04  0.65864270000E+03 0. -1.
    8880022    1    1    2    0    0 -0.10799376053E+04 -0.13182224828E+03  0.11505184181E+04  0.15908257667E+04  0.15294330000E+03 0.  0.
<mgrwt>
<rscale>  0 0.12261025E+04</rscale>
<asrwt>0</asrwt>
<pdfrwt beam="1">  1        2 0.29800336E+00 0.12717911E+04</pdfrwt>
<pdfrwt beam="2">  1       -2 0.24710705E+00 0.12717911E+04</pdfrwt>
<totfact> 0.46706114E-01</totfact>
</mgrwt>
</event>
<event>
 4    5  0.1905771E-007  0.8711092E+03  0.7818608E-02  0.9574100E-01
         -2   -1    0    0    0  501 -0.00000000000E+00  0.00000000000E+00  0.94931805219E+03  0.94931805219E+03  0.25500000000E-02 0.  1.
          2   -1    0    0  501    0  0.00000000000E+00 -0.00000000000E+00 -0.34937107272E+04  0.34937107272E+04  0.25500000000E-02 0. -1.
    8880023    1    1    2    0    0  0.31616156913E+03 -0.47440788867E+03 -0.33403624692E+04  0.34520794624E+04  0.65864270000E+03 0.  0.
    8880022    1    1    2    0    0 -0.31616156913E+03  0.47440788867E+03  0.79596979419E+03  0.99094931702E+03  0.15294330000E+03 0.  0.
<mgrwt>
<rscale>  0 0.79034403E+03</rscale>
<asrwt>0</asrwt>
<pdfrwt beam="1">  1        2 0.53749395E+00 0.87110917E+03</pdfrwt>
<pdfrwt beam="2">  1       -2 0.14604893E+00 0.87110917E+03</pdfrwt>
<totfact> 0.27950939E-01</totfact>
</mgrwt>
</event>
<event>
 4    5  0.1905771E-007  0.9564179E+03  0.7818608E-02  0.9440940E-01
          2   -1    0    0  501    0  0.00000000000E+00  0.00000000000E+00  0.19926595531E+04  0.19926595531E+04  0.25500000000E-02 0. -1.
         -2   -1    0    0    0  501 -0.00000000000E+00 -0.00000000000E+00 -0.10290848689E+04  0.10290848689E+04  0.25500000000E-02 0.  1.
    8880023    1    1    2    0    0 -0.69343013415E+03 -0.89260523539E+01  0.17300710469E+04  0.19768361235E+04  0.65864270000E+03 0. -1.
    8880022    1    1    2    0    0  0.69343013415E+03  0.89260523539E+01 -0.76649636272E+03  0.10449082986E+04  0.15294330000E+03 0.  0.
<mgrwt>
<rscale>  0 0.88781748E+03</rscale>
<asrwt>0</asrwt>
<pdfrwt beam="1">  1        2 0.30656300E+00 0.95641792E+03</pdfrwt>
<pdfrwt beam="2">  1       -2 0.15832075E+00 0.95641792E+03</pdfrwt>
<totfact> 0.17548168E+00</totfact>
</mgrwt>
</event>
<event>
 4    5  0.1905771E-007  0.6871288E+03  0.7818608E-02  0.1005548E+00
          2   -1    0    0  501    0  0.00000000000E+00  0.00000000000E+00  0.15481210936E+04  0.15481210936E+04  0.25500000000E-02 0. -1.
         -2   -1    0    0    0  501 -0.00000000000E+00 -0.00000000000E+00 -0.30646089119E+03  0.30646089120E+03  0.25500000000E-02 0.  1.
    8880023    1    1    2    0    0  0.14521001451E+03 -0.13133851476E+03  0.14003006315E+04  0.15598037757E+04  0.65864270000E+03 0. -1.
    8880022    1    1    2    0    0 -0.14521001451E+03  0.13133851476E+03 -0.15864042915E+03  0.29477820908E+03  0.15294330000E+03 0.  0.
<mgrwt>
<rscale>  0 0.53282962E+03</rscale>
<asrwt>0</asrwt>
<pdfrwt beam="1">  1        2 0.23817247E+00 0.68712878E+03</pdfrwt>
<pdfrwt beam="2">  1       -2 0.47147831E-01 0.68712878E+03</pdfrwt>
<totfact> 0.52340096E+01</totfact>
</mgrwt>
</event>
<event>
 4    5  0.1905771E-007  0.6692234E+03  0.7818608E-02  0.1016226E+00
          2   -1    0    0  501    0  0.00000000000E+00  0.00000000000E+00  0.29480300744E+04  0.29480300744E+04  0.25500000000E-02 0. -1.
         -2   -1    0    0    0  501 -0.00000000000E+00 -0.00000000000E+00 -0.20158420844E+03  0.20158420846E+03  0.25500000000E-02 0.  1.
    8880023    1    1    2    0    0  0.15647908504E+02 -0.11749401114E+03  0.28518167656E+04  0.29292863927E+04  0.65864270000E+03 0. -1.
    8880022    1    1    2    0    0 -0.15647908504E+02  0.11749401114E+03 -0.10537089961E+03  0.22032789018E+03  0.15294330000E+03 0.  0.
<mgrwt>
<rscale>  0 0.49073526E+03</rscale>
<asrwt>0</asrwt>
<pdfrwt beam="1">  1        2 0.45354308E+00 0.66922336E+03</pdfrwt>
<pdfrwt beam="2">  1       -2 0.31012956E-01 0.66922336E+03</pdfrwt>
<totfact> 0.19395891E+01</totfact>
</mgrwt>
</event>
<event>
 4    5  0.1905771E-007  0.7837039E+03  0.7818608E-02  0.9747207E-01
          2   -1    0    0  501    0  0.00000000000E+00  0.00000000000E+00  0.16354128438E+04  0.16354128438E+04  0.25500000000E-02 0. -1.
         -2   -1    0    0    0  501 -0.00000000000E+00 -0.00000000000E+00 -0.43508695822E+03  0.43508695823E+03  0.25500000000E-02 0.  1.
    8880023    1    1    2    0    0 -0.42420950612E+03  0.20685037962E+02  0.13780902701E+04  0.15853468310E+04  0.65864270000E+03 0.  0.
    8880022    1    1    2    0    0  0.42420950612E+03 -0.20685037962E+02 -0.17776438449E+03  0.48515297102E+03  0.15294330000E+03 0.  0.
<mgrwt>
<rscale>  0 0.68274321E+03</rscale>
<asrwt>0</asrwt>
<pdfrwt beam="1">  1        2 0.25160198E+00 0.78370389E+03</pdfrwt>
<pdfrwt beam="2">  1       -2 0.66936455E-01 0.78370389E+03</pdfrwt>
<totfact> 0.22314623E+01</totfact>
</mgrwt>
</event>
<event>
 4    5  0.1905771E-007  0.9661436E+03  0.7818608E-02  0.9427258E-01
         -2   -1    0    0    0  501 -0.00000000000E+00  0.00000000000E+00  0.24800683708E+04  0.24800683708E+04  0.25500000000E-02 0.  1.
          2   -1    0    0  501    0  0.00000000000E+00 -0.00000000000E+00 -0.12631033969E+04  0.12631033969E+04  0.25500000000E-02 0. -1.
    8880023    1    1    2    0    0  0.64891576891E+03 -0.28023479462E+03 -0.10124090613E+04  0.13994304302E+04  0.65864270000E+03 0. -1.
    8880022    1    1    2    0    0 -0.64891576891E+03  0.28023479462E+03  0.22293740352E+04  0.23437413375E+04  0.15294330000E+03 0.  0.
<mgrwt>
<rscale>  0 0.89866020E+03</rscale>
<asrwt>0</asrwt>
<pdfrwt beam="1">  1        2 0.19432360E+00 0.96614358E+03</pdfrwt>
<pdfrwt beam="2">  1       -2 0.38154898E+00 0.96614358E+03</pdfrwt>
<totfact> 0.17372624E-01</totfact>
</mgrwt>
</event>
<event>
 4    5  0.1905771E-007  0.6818217E+03  0.7818608E-02  0.1008311E+00
         -2   -1    0    0    0  501 -0.00000000000E+00  0.00000000000E+00  0.21037774397E+03  0.21037774399E+03  0.25500000000E-02 0.  1.
          2   -1    0    0  501    0  0.00000000000E+00 -0.00000000000E+00 -0.32120881099E+04  0.32120881099E+04  0.25500000000E-02 0. -1.
    8880023    1    1    2    0    0 -0.50086475661E+02 -0.16900298235E+03 -0.30964269092E+04  0.31706056950E+04  0.65864270000E+03 0. -1.
    8880022    1    1    2    0    0  0.50086475661E+02  0.16900298235E+03  0.94716543199E+02  0.25186015893E+03  0.15294330000E+03 0.  0.
<mgrwt>
<rscale>  0 0.52151300E+03</rscale>
<asrwt>0</asrwt>
<pdfrwt beam="1">  1        2 0.49416737E+00 0.68182173E+03</pdfrwt>
<pdfrwt beam="2">  1       -2 0.32365809E-01 0.68182173E+03</pdfrwt>
<totfact> 0.12256304E+01</totfact>
</mgrwt>
</event>
<event>
 4    5  0.1905771E-007  0.6876683E+03  0.7818608E-02  0.1005281E+00
          2   -1    0    0  501    0  0.00000000000E+00  0.00000000000E+00  0.15967891337E+04  0.15967891337E+04  0.25500000000E-02 0. -1.
         -2   -1    0    0    0  501 -0.00000000000E+00 -0.00000000000E+00 -0.35257547292E+03  0.35257547293E+03  0.25500000000E-02 0.  1.
    8880023    1    1    2    0    0  0.46265523937E+02 -0.19219013515E+03  0.14634078612E+04  0.16169261953E+04  0.65864270000E+03 0. -1.
    8880022    1    1    2    0    0 -0.46265523937E+02  0.19219013515E+03 -0.21919420044E+03  0.33243841125E+03  0.15294330000E+03 0.  0.
<mgrwt>
<rscale>  0 0.53394007E+03</rscale>
<asrwt>0</asrwt>
<pdfrwt beam="1">  1        2 0.24565986E+00 0.68766835E+03</pdfrwt>
<pdfrwt beam="2">  1       -2 0.54242381E-01 0.68766835E+03</pdfrwt>
<totfact> 0.36978359E+01</totfact>
</mgrwt>
</event>
<event>
 4    5  0.1905771E-007  0.6939178E+03  0.7818608E-02  0.1002343E+00
         -2   -1    0    0    0  501 -0.00000000000E+00  0.00000000000E+00  0.16317416847E+04  0.16317416847E+04  0.25500000000E-02 0.  1.
          2   -1    0    0  501    0  0.00000000000E+00 -0.00000000000E+00 -0.39798035481E+03  0.39798035482E+03  0.25500000000E-02 0. -1.
    8880023    1    1    2    0    0 -0.83881899491E+02  0.20168187867E+03 -0.71416985479E+02  0.69758321749E+03  0.65864270000E+03 0. -1.
    8880022    1    1    2    0    0  0.83881899491E+02 -0.20168187867E+03  0.13051783154E+04  0.13321388220E+04  0.15294330000E+03 0.  0.
<mgrwt>
<rscale>  0 0.54634546E+03</rscale>
<asrwt>0</asrwt>
<pdfrwt beam="1">  1        2 0.61227748E-01 0.69391783E+03</pdfrwt>
<pdfrwt beam="2">  1       -2 0.25103718E+00 0.69391783E+03</pdfrwt>
<totfact> 0.52471291E+00</totfact>
</mgrwt>
</event>
<event>
 4    5  0.1905771E-007  0.1082037E+04  0.7818608E-02  0.9281324E-01
          2   -1    0    0  501    0  0.00000000000E+00  0.00000000000E+00  0.10421828999E+04  0.10421828999E+04  0.25500000000E-02 0. -1.
         -2   -1    0    0    0  501 -0.00000000000E+00 -0.00000000000E+00 -0.11575029512E+04  0.11575029512E+04  0.25500000000E-02 0.  1.
    8880023    1    1    2    0    0 -0.75665238903E+03  0.40555160300E+03  0.43758415956E+03  0.11671696721E+04  0.65864270000E+03 0.  0.
    8880022    1    1    2    0    0  0.75665238903E+03 -0.40555160300E+03 -0.55290421086E+03  0.10325161790E+04  0.15294330000E+03 0.  0.
<mgrwt>
<rscale>  0 0.10252058E+04</rscale>
<asrwt>0</asrwt>
<pdfrwt beam="1">  1        2 0.16033583E+00 0.10820375E+04</pdfrwt>
<pdfrwt beam="2">  1       -2 0.17807738E+00 0.10820375E+04</pdfrwt>
<totfact> 0.43522745E+00</totfact>
</mgrwt>
</event>
<event>
 4    5  0.1905771E-007  0.7124012E+03  0.7818608E-02  0.9949190E-01
          2   -1    0    0  501    0  0.00000000000E+00  0.00000000000E+00  0.12188345769E+04  0.12188345769E+04  0.25500000000E-02 0. -1.
         -2   -1    0    0    0  501 -0.00000000000E+00 -0.00000000000E+00 -0.34846927690E+03  0.34846927691E+03  0.25500000000E-02 0.  1.
    8880023    1    1    2    0    0 -0.19575073556E+02 -0.27078053089E+03  0.10016660863E+04  0.12291665608E+04  0.65864270000E+03 0.  0.
    8880022    1    1    2    0    0  0.19575073556E+02  0.27078053089E+03 -0.13130078634E+03  0.33813729301E+03  0.15294330000E+03 0.  0.
<mgrwt>
<rscale>  0 0.57935422E+03</rscale>
<asrwt>0</asrwt>
<pdfrwt beam="1">  1        2 0.18751301E+00 0.71240121E+03</pdfrwt>
<pdfrwt beam="2">  1       -2 0.53610659E-01 0.71240121E+03</pdfrwt>
<totfact> 0.61775948E+01</totfact>
</mgrwt>
</event>
<event>
 4    5  0.1905771E-007  0.1139745E+04  0.7818608E-02  0.9218044E-01
         -2   -1    0    0    0  501 -0.00000000000E+00  0.00000000000E+00  0.86124488739E+03  0.86124488739E+03  0.25500000000E-02 0.  1.
          2   -1    0    0  501    0  0.00000000000E+00 -0.00000000000E+00 -0.13028911073E+04  0.13028911073E+04  0.25500000000E-02 0. -1.
    8880023    1    1    2    0    0 -0.70363864471E+03  0.60835974350E+03 -0.43930265812E+03  0.12214769550E+04  0.65864270000E+03 0.  0.
    8880022    1    1    2    0    0  0.70363864471E+03 -0.60835974350E+03 -0.23435617668E+01  0.94265903970E+03  0.15294330000E+03 0.  0.
<mgrwt>
<rscale>  0 0.10869114E+04</rscale>
<asrwt>0</asrwt>
<pdfrwt beam="1">  1        2 0.20044479E+00 0.11397452E+04</pdfrwt>
<pdfrwt beam="2">  1       -2 0.13249921E+00 0.11397452E+04</pdfrwt>
<totfact> 0.66724014E+00</totfact>
</mgrwt>
</event>
<event>
 4    5  0.1905771E-007  0.7745813E+03  0.7818608E-02  0.9768723E-01
          2   -1    0    0  501    0  0.00000000000E+00  0.00000000000E+00  0.73234869543E+03  0.73234869543E+03  0.25500000000E-02 0. -1.
         -2   -1    0    0    0  501 -0.00000000000E+00 -0.00000000000E+00 -0.11255750179E+04  0.11255750179E+04  0.25500000000E-02 0.  1.
    8880023    1    1    2    0    0  0.36031943399E+03  0.19061988930E+03  0.45939948824E+03  0.90056878292E+03  0.65864270000E+03 0. -1.
    8880022    1    1    2    0    0 -0.36031943399E+03 -0.19061988930E+03 -0.85262581075E+03  0.95735493047E+03  0.15294330000E+03 0.  0.
<mgrwt>
<rscale>  0 0.67068400E+03</rscale>
<asrwt>0</asrwt>
<pdfrwt beam="1">  1        2 0.11266903E+00 0.77458133E+03</pdfrwt>
<pdfrwt beam="2">  1       -2 0.17316539E+00 0.77458133E+03</pdfrwt>
<totfact> 0.79436512E+00</totfact>
</mgrwt>
</event>
<event>
 4    5  0.1905771E-007  0.6597249E+03  0.7818608E-02  0.1024440E+00
          2   -1    0    0  501    0  0.00000000000E+00  0.00000000000E+00  0.21566970358E+04  0.21566970358E+04  0.25500000000E-02 0. -1.
         -2   -1    0    0    0  501 -0.00000000000E+00 -0.00000000000E+00 -0.23731920077E+03  0.23731920079E+03  0.25500000000E-02 0.  1.
    8880023    1    1    2    0    0  0.35289954214E+02  0.13465310209E+02  0.20721084389E+04  0.21745965797E+04  0.65864270000E+03 0. -1.
    8880022    1    1    2    0    0 -0.35289954214E+02 -0.13465310209E+02 -0.15273060391E+03  0.21941965689E+03  0.15294330000E+03 0.  0.
<mgrwt>
<rscale>  0 0.46117818E+03</rscale>
<asrwt>0</asrwt>
<pdfrwt beam="1">  1        2 0.33179956E+00 0.65972487E+03</pdfrwt>
<pdfrwt beam="2">  1       -2 0.36510645E-01 0.65972487E+03</pdfrwt>
<totfact> 0.40393515E+01</totfact>
</mgrwt>
</event>
<event>
 4    5  0.1905771E-007  0.7847001E+03  0.7818608E-02  0.9744910E-01
          2   -1    0    0  501    0  0.00000000000E+00  0.00000000000E+00  0.34057446475E+04  0.34057446475E+04  0.25500000000E-02 0. -1.
         -2   -1    0    0    0  501 -0.00000000000E+00 -0.00000000000E+00 -0.16271149207E+03  0.16271149209E+03  0.25500000000E-02 0.  1.
    8880023    1    1    2    0    0  0.33448822474E+03 -0.26469168832E+03  0.28882548143E+04  0.29929534144E+04  0.65864270000E+03 0. -1.
    8880022    1    1    2    0    0 -0.33448822474E+03  0.26469168832E+03  0.35477834119E+03  0.57550272523E+03  0.15294330000E+03 0.  0.
<mgrwt>
<rscale>  0 0.68404685E+03</rscale>
<asrwt>0</asrwt>
<pdfrwt beam="1">  1        2 0.52396071E+00 0.78470011E+03</pdfrwt>
<pdfrwt beam="2">  1       -2 0.25032538E-01 0.78470011E+03</pdfrwt>
<totfact> 0.14428669E+01</totfact>
</mgrwt>
</event>
<event>
 4    5  0.1905771E-007  0.6967950E+03  0.7818608E-02  0.1001077E+00
         -2   -1    0    0    0  501 -0.00000000000E+00  0.00000000000E+00  0.87417372271E+03  0.87417372272E+03  0.25500000000E-02 0.  1.
          2   -1    0    0  501    0  0.00000000000E+00 -0.00000000000E+00 -0.43879787752E+03  0.43879787753E+03  0.25500000000E-02 0. -1.
    8880023    1    1    2    0    0 -0.21665568847E+03 -0.69089825871E+02 -0.10731389808E+03  0.70501033352E+03  0.65864270000E+03 0.  0.
    8880022    1    1    2    0    0  0.21665568847E+03  0.69089825871E+02  0.54268974327E+03  0.60796126673E+03  0.15294330000E+03 0.  0.
<mgrwt>
<rscale>  0 0.55180699E+03</rscale>
<asrwt>0</asrwt>
<pdfrwt beam="1">  1        2 0.67507366E-01 0.69679502E+03</pdfrwt>
<pdfrwt beam="2">  1       -2 0.13448826E+00 0.69679502E+03</pdfrwt>
<totfact> 0.28986983E+01</totfact>
</mgrwt>
</event>
<event>
 4    5  0.1905771E-007  0.6843943E+03  0.7818608E-02  0.1006940E+00
          2   -1    0    0  501    0  0.00000000000E+00  0.00000000000E+00  0.75843137672E+03  0.75843137672E+03  0.25500000000E-02 0. -1.
         -2   -1    0    0    0  501 -0.00000000000E+00 -0.00000000000E+00 -0.67379917900E+03  0.67379917900E+03  0.25500000000E-02 0.  1.
    8880023    1    1    2    0    0  0.26885553585E+02  0.18401762161E+03  0.56983618580E+03  0.89056656291E+03  0.65864270000E+03 0. -1.
    8880022    1    1    2    0    0 -0.26885553585E+02 -0.18401762161E+03 -0.48520398808E+03  0.54166399282E+03  0.15294330000E+03 0.  0.
<mgrwt>
<rscale>  0 0.52709235E+03</rscale>
<asrwt>0</asrwt>
<pdfrwt beam="1">  1        2 0.11668175E+00 0.68439428E+03</pdfrwt>
<pdfrwt beam="2">  1       -2 0.10366141E+00 0.68439428E+03</pdfrwt>
<totfact> 0.28578974E+01</totfact>
</mgrwt>
</event>
<event>
 4    5  0.1905771E-007  0.1011314E+04  0.7818608E-02  0.9366903E-01
          2   -1    0    0  501    0  0.00000000000E+00  0.00000000000E+00  0.11567744277E+04  0.11567744277E+04  0.25500000000E-02 0. -1.
         -2   -1    0    0    0  501 -0.00000000000E+00 -0.00000000000E+00 -0.12636599529E+04  0.12636599529E+04  0.25500000000E-02 0.  1.
    8880023    1    1    2    0    0 -0.31703863890E+03  0.69887908153E+03  0.75070322624E+03  0.12594883919E+04  0.65864270000E+03 0. -1.
    8880022    1    1    2    0    0  0.31703863890E+03 -0.69887908153E+03 -0.85758875143E+03  0.11609459887E+04  0.15294330000E+03 0.  0.
<mgrwt>
<rscale>  0 0.94850208E+03</rscale>
<asrwt>0</asrwt>
<pdfrwt beam="1">  1        2 0.17796530E+00 0.10113138E+04</pdfrwt>
<pdfrwt beam="2">  1       -2 0.19440922E+00 0.10113138E+04</pdfrwt>
<totfact> 0.28852049E+00</totfact>
</mgrwt>
</event>
<event>
 4    5  0.1905771E-007  0.8134269E+03  0.7818608E-02  0.9682482E-01
          2   -1    0    0  501    0  0.00000000000E+00  0.00000000000E+00  0.26015155397E+04  0.26015155397E+04  0.25500000000E-02 0. -1.
         -2   -1    0    0    0  501 -0.00000000000E+00 -0.00000000000E+00 -0.44363009646E+03  0.44363009647E+03  0.25500000000E-02 0.  1.
    8880023    1    1    2    0    0  0.26274230879E+03 -0.39852184170E+03  0.23663700098E+04  0.25022730484E+04  0.65864270000E+03 0.  0.
    8880022    1    1    2    0    0 -0.26274230879E+03  0.39852184170E+03 -0.20848456650E+03  0.54287258784E+03  0.15294330000E+03 0.  0.
<mgrwt>
<rscale>  0 0.72069425E+03</rscale>
<asrwt>0</asrwt>
<pdfrwt beam="1">  1        2 0.40023317E+00 0.81342694E+03</pdfrwt>
<pdfrwt beam="2">  1       -2 0.68250783E-01 0.81342694E+03</pdfrwt>
<totfact> 0.62121499E+00</totfact>
</mgrwt>
</event>
<event>
 4    5  0.1905771E-007  0.7357441E+03  0.7818608E-02  0.9872522E-01
         -2   -1    0    0    0  501 -0.00000000000E+00  0.00000000000E+00  0.48112053319E+03  0.48112053320E+03  0.25500000000E-02 0.  1.
          2   -1    0    0  501    0  0.00000000000E+00 -0.00000000000E+00 -0.93599193098E+03  0.93599193098E+03  0.25500000000E-02 0. -1.
    8880023    1    1    2    0    0 -0.23030615497E+03  0.23338430289E+03 -0.67091604569E+03  0.99571467021E+03  0.65864270000E+03 0.  0.
    8880022    1    1    2    0    0  0.23030615497E+03 -0.23338430289E+03  0.21604464791E+03  0.42139779396E+03  0.15294330000E+03 0.  0.
<mgrwt>
<rscale>  0 0.61611655E+03</rscale>
<asrwt>0</asrwt>
<pdfrwt beam="1">  1        2 0.14399876E+00 0.73574409E+03</pdfrwt>
<pdfrwt beam="2">  1       -2 0.74018544E-01 0.73574409E+03</pdfrwt>
<totfact> 0.46339938E+01</totfact>
</mgrwt>
</event>
<event>
 4    5  0.1905771E-007  0.6636562E+03  0.7818608E-02  0.1020688E+00
         -2   -1    0    0    0  501 -0.00000000000E+00  0.00000000000E+00  0.70376062563E+03  0.70376062564E+03  0.25500000000E-02 0.  1.
          2   -1    0    0  501    0  0.00000000000E+00 -0.00000000000E+00 -0.81742483208E+03  0.81742483209E+03  0.25500000000E-02 0. -1.
    8880023    1    1    2    0    0 -0.59006790474E+02  0.56102847210E+02 -0.66726311377E+03  0.94110552014E+03  0.65864270000E+03 0. -1.
    8880022    1    1    2    0    0  0.59006790474E+02 -0.56102847210E+02  0.55359890732E+03  0.58007993758E+03  0.15294330000E+03 0.  0.
<mgrwt>
<rscale>  0 0.47438995E+03</rscale>
<asrwt>0</asrwt>
<pdfrwt beam="1">  1        2 0.12575767E+00 0.66365619E+03</pdfrwt>
<pdfrwt beam="2">  1       -2 0.10827087E+00 0.66365619E+03</pdfrwt>
<totfact> 0.23383621E+01</totfact>
</mgrwt>
</event>
<event>
 4    5  0.1905771E-007  0.8357671E+03  0.7818608E-02  0.9638214E-01
          2   -1    0    0  501    0  0.00000000000E+00  0.00000000000E+00  0.18386084019E+04  0.18386084019E+04  0.25500000000E-02 0. -1.
         -2   -1    0    0    0  501 -0.00000000000E+00 -0.00000000000E+00 -0.34853338049E+03  0.34853338050E+03  0.25500000000E-02 0.  1.
    8880023    1    1    2    0    0 -0.50557671812E+03  0.95334599458E+02  0.14174664400E+04  0.16455144540E+04  0.65864270000E+03 0.  0.
    8880022    1    1    2    0    0  0.50557671812E+03 -0.95334599458E+02  0.72608581478E+02  0.54162732841E+03  0.15294330000E+03 0.  0.
<mgrwt>
<rscale>  0 0.74817750E+03</rscale>
<asrwt>0</asrwt>
<pdfrwt beam="1">  1        2 0.28286283E+00 0.83576714E+03</pdfrwt>
<pdfrwt beam="2">  1       -2 0.53620520E-01 0.83576714E+03</pdfrwt>
<totfact> 0.27431834E+01</totfact>
</mgrwt>
</event>
<event>
 4    5  0.1905771E-007  0.1785193E+04  0.7818608E-02  0.8730772E-01
         -2   -1    0    0    0  501 -0.00000000000E+00  0.00000000000E+00  0.11554520483E+04  0.11554520483E+04  0.25500000000E-02 0.  1.
          2   -1    0    0  501    0  0.00000000000E+00 -0.00000000000E+00 -0.26281320945E+04  0.26281320945E+04  0.25500000000E-02 0. -1.
    8880023    1    1    2    0    0  0.26267508533E+02 -0.16590401152E+04 -0.10236646239E+04  0.20578638328E+04  0.65864270000E+03 0.  0.
    8880022    1    1    2    0    0 -0.26267508533E+02  0.16590401152E+04 -0.44901542226E+03  0.17257203100E+04  0.15294330000E+03 0.  0.
<mgrwt>
<rscale>  0 0.17546925E+04</rscale>
<asrwt>0</asrwt>
<pdfrwt beam="1">  1        2 0.40432801E+00 0.17851931E+04</pdfrwt>
<pdfrwt beam="2">  1       -2 0.17776185E+00 0.17851931E+04</pdfrwt>
<totfact> 0.50397858E-01</totfact>
</mgrwt>
</event>
<event>
 4    5  0.1905771E-007  0.9763088E+03  0.7818608E-02  0.9413231E-01
          2   -1    0    0  501    0  0.00000000000E+00  0.00000000000E+00  0.23667966063E+04  0.23667966063E+04  0.25500000000E-02 0. -1.
         -2   -1    0    0    0  501 -0.00000000000E+00 -0.00000000000E+00 -0.52958097348E+03  0.52958097348E+03  0.25500000000E-02 0.  1.
    8880023    1    1    2    0    0  0.15557962039E+03  0.70367859727E+03  0.19210462452E+04  0.21549008026E+04  0.65864270000E+03 0.  0.
    8880022    1    1    2    0    0 -0.15557962039E+03 -0.70367859727E+03 -0.83830612378E+02  0.74147677719E+03  0.15294330000E+03 0.  0.
<mgrwt>
<rscale>  0 0.90994762E+03</rscale>
<asrwt>0</asrwt>
<pdfrwt beam="1">  1        2 0.36412255E+00 0.97630876E+03</pdfrwt>
<pdfrwt beam="2">  1       -2 0.81473998E-01 0.97630876E+03</pdfrwt>
<totfact> 0.55690871E+00</totfact>
</mgrwt>
</event>
<event>
 4    5  0.1905771E-007  0.8552206E+03  0.7818608E-02  0.9602122E-01
          2   -1    0    0  501    0  0.00000000000E+00  0.00000000000E+00  0.17424136886E+04  0.17424136886E+04  0.25500000000E-02 0. -1.
         -2   -1    0    0    0  501 -0.00000000000E+00 -0.00000000000E+00 -0.49293201018E+03  0.49293201018E+03  0.25500000000E-02 0.  1.
    8880023    1    1    2    0    0 -0.52766612255E+03  0.13842177684E+03  0.14076897640E+04  0.16471165117E+04  0.65864270000E+03 0.  0.
    8880022    1    1    2    0    0  0.52766612255E+03 -0.13842177684E+03 -0.15820808557E+03  0.58822918709E+03  0.15294330000E+03 0.  0.
<mgrwt>
<rscale>  0 0.77155877E+03</rscale>
<asrwt>0</asrwt>
<pdfrwt beam="1">  1        2 0.26806365E+00 0.85522063E+03</pdfrwt>
<pdfrwt beam="2">  1       -2 0.75835693E-01 0.85522063E+03</pdfrwt>
<totfact> 0.14693902E+01</totfact>
</mgrwt>
</event>
<event>
 4    5  0.1905771E-007  0.9194863E+03  0.7818608E-02  0.9495447E-01
         -2   -1    0    0    0  501 -0.00000000000E+00  0.00000000000E+00  0.19664301943E+03  0.19664301945E+03  0.25500000000E-02 0.  1.
          2   -1    0    0  501    0  0.00000000000E+00 -0.00000000000E+00 -0.33960955818E+04  0.33960955818E+04  0.25500000000E-02 0. -1.
    8880023    1    1    2    0    0  0.24394600500E+03 -0.59340972883E+03 -0.23031216675E+04  0.24798839451E+04  0.65864270000E+03 0. -1.
    8880022    1    1    2    0    0 -0.24394600500E+03  0.59340972883E+03 -0.89633089494E+03  0.11128546562E+04  0.15294330000E+03 0.  1.
<mgrwt>
<rscale>  0 0.84620314E+03</rscale>
<asrwt>0</asrwt>
<pdfrwt beam="1">  1        2 0.52247620E+00 0.91948625E+03</pdfrwt>
<pdfrwt beam="2">  1       -2 0.30252775E-01 0.91948625E+03</pdfrwt>
<totfact> 0.10121746E+01</totfact>
</mgrwt>
</event>
<event>
 4    5  0.1905771E-007  0.7779371E+03  0.7818608E-02  0.9760705E-01
         -2   -1    0    0    0  501 -0.00000000000E+00  0.00000000000E+00  0.54817184308E+03  0.54817184309E+03  0.25500000000E-02 0.  1.
          2   -1    0    0  501    0  0.00000000000E+00 -0.00000000000E+00 -0.71348896183E+03  0.71348896183E+03  0.25500000000E-02 0. -1.
    8880023    1    1    2    0    0 -0.41020018450E+03  0.55782353005E+02 -0.23988050554E+03  0.81408152262E+03  0.65864270000E+03 0.  1.
    8880022    1    1    2    0    0  0.41020018450E+03 -0.55782353005E+02  0.74563386795E+02  0.44757928229E+03  0.15294330000E+03 0.  0.
<mgrwt>
<rscale>  0 0.67514633E+03</rscale>
<asrwt>0</asrwt>
<pdfrwt beam="1">  1        2 0.10976753E+00 0.77793706E+03</pdfrwt>
<pdfrwt beam="2">  1       -2 0.84334129E-01 0.77793706E+03</pdfrwt>
<totfact> 0.49590353E+01</totfact>
</mgrwt>
</event>
<event>
 4    5  0.1905771E-007  0.8171544E+03  0.7818608E-02  0.9674863E-01
          2   -1    0    0  501    0  0.00000000000E+00  0.00000000000E+00  0.33661187151E+03  0.33661187152E+03  0.25500000000E-02 0. -1.
         -2   -1    0    0    0  501 -0.00000000000E+00 -0.00000000000E+00 -0.26061026512E+04  0.26061026512E+04  0.25500000000E-02 0.  1.
    8880023    1    1    2    0    0 -0.38805957004E+03 -0.28868807081E+03 -0.24128179942E+03  0.85203177471E+03  0.65864270000E+03 0. -1.
    8880022    1    1    2    0    0  0.38805957004E+03  0.28868807081E+03 -0.20282089803E+04  0.20906827480E+04  0.15294330000E+03 0.  0.
<mgrwt>
<rscale>  0 0.72533366E+03</rscale>
<asrwt>0</asrwt>
<pdfrwt beam="1">  1        2 0.51786443E-01 0.81715435E+03</pdfrwt>
<pdfrwt beam="2">  1       -2 0.40093886E+00 0.81715435E+03</pdfrwt>
<totfact> 0.74195230E-01</totfact>
</mgrwt>
</event>
<event>
 4    5  0.1905771E-007  0.6654913E+03  0.7818608E-02  0.1019125E+00
         -2   -1    0    0    0  501 -0.00000000000E+00  0.00000000000E+00  0.16730333521E+03  0.16730333523E+03  0.25500000000E-02 0.  1.
          2   -1    0    0  501    0  0.00000000000E+00 -0.00000000000E+00 -0.22835852743E+04  0.22835852743E+04  0.25500000000E-02 0. -1.
    8880023    1    1    2    0    0 -0.74925052450E+02  0.58776692033E+02 -0.21644058472E+04  0.22644052951E+04  0.65864270000E+03 0.  0.
    8880022    1    1    2    0    0  0.74925052450E+02 -0.58776692033E+02  0.48123908082E+02  0.18648331441E+03  0.15294330000E+03 0.  1.
<mgrwt>
<rscale>  0 0.48003792E+03</rscale>
<asrwt>0</asrwt>
<pdfrwt beam="1">  1        2 0.35132079E+00 0.66549130E+03</pdfrwt>
<pdfrwt beam="2">  1       -2 0.25738976E-01 0.66549130E+03</pdfrwt>
<totfact> 0.65848788E+01</totfact>
</mgrwt>
</event>
<event>
 4    5  0.1905771E-007  0.7911973E+03  0.7818608E-02  0.9730163E-01
          2   -1    0    0  501    0  0.00000000000E+00  0.00000000000E+00  0.14314468662E+04  0.14314468662E+04  0.25500000000E-02 0. -1.
         -2   -1    0    0    0  501 -0.00000000000E+00 -0.00000000000E+00 -0.36317938038E+03  0.36317938039E+03  0.25500000000E-02 0.  1.
    8880023    1    1    2    0    0  0.37775577832E+03  0.22244896526E+03  0.10694719294E+04  0.13303245409E+04  0.65864270000E+03 0.  0.
    8880022    1    1    2    0    0 -0.37775577832E+03 -0.22244896526E+03 -0.12044435342E+01  0.46430170569E+03  0.15294330000E+03 0.  0.
<mgrwt>
<rscale>  0 0.69248968E+03</rscale>
<asrwt>0</asrwt>
<pdfrwt beam="1">  1        2 0.22022260E+00 0.79119731E+03</pdfrwt>
<pdfrwt beam="2">  1       -2 0.55873751E-01 0.79119731E+03</pdfrwt>
<totfact> 0.42477805E+01</totfact>
</mgrwt>
</event>
<event>
 4    5  0.1905771E-007  0.8374198E+03  0.7818608E-02  0.9635065E-01
          2   -1    0    0  501    0  0.00000000000E+00  0.00000000000E+00  0.73356134047E+03  0.73356134047E+03  0.25500000000E-02 0. -1.
         -2   -1    0    0    0  501 -0.00000000000E+00 -0.00000000000E+00 -0.12864556436E+04  0.12864556436E+04  0.25500000000E-02 0.  1.
    8880023    1    1    2    0    0  0.51438547840E+03 -0.53565805657E+02  0.39772664512E+03  0.92706979588E+03  0.65864270000E+03 0. -1.
    8880022    1    1    2    0    0 -0.51438547840E+03  0.53565805657E+02 -0.95062094826E+03  0.10929471882E+04  0.15294330000E+03 0.  0.
<mgrwt>
<rscale>  0 0.75018207E+03</rscale>
<asrwt>0</asrwt>
<pdfrwt beam="1">  1        2 0.11285559E+00 0.83741980E+03</pdfrwt>
<pdfrwt beam="2">  1       -2 0.19791625E+00 0.83741980E+03</pdfrwt>
<totfact> 0.53513548E+00</totfact>
</mgrwt>
</event>
<event>
 4    5  0.2616646E-007  0.7115871E+03  0.7818608E-02  0.9952154E-01
         -2   -1    0    0    0  501 -0.00000000000E+00  0.00000000000E+00  0.50135798491E+03  0.50135798491E+03  0.25500000000E-02 0.  1.
          2   -1    0    0  501    0  0.00000000000E+00 -0.00000000000E+00 -0.28585919565E+04  0.28585919565E+04  0.25500000000E-02 0. -1.
    8880023    1    1    2    0    0 -0.22234421803E+03  0.15201670332E+03 -0.27609094062E+04  0.28511360867E+04  0.65864270000E+03 0.  0.
    8880022    1    1    2    0    0  0.22234421803E+03 -0.15201670332E+03  0.40367543452E+03  0.50881385480E+03  0.15294330000E+03 0.  0.
<mgrwt>
<rscale>  0 0.57798919E+03</rscale>
<asrwt>0</asrwt>
<pdfrwt beam="1">  1        2 0.43978337E+00 0.71158712E+03</pdfrwt>
<pdfrwt beam="2">  1       -2 0.77131999E-01 0.71158712E+03</pdfrwt>
<totfact> 0.34198506E+00</totfact>
</mgrwt>
</event>
<event>
 4    5  0.1905771E-007  0.1455862E+04  0.7818608E-02  0.8941449E-01
         -2   -1    0    0    0  501 -0.00000000000E+00  0.00000000000E+00  0.12796104239E+04  0.12796104239E+04  0.25500000000E-02 0.  1.
          2   -1    0    0  501    0  0.00000000000E+00 -0.00000000000E+00 -0.31156850071E+04  0.31156850071E+04  0.25500000000E-02 0. -1.
    8880023    1    1    2    0    0  0.98562939542E+03  0.84513849955E+03 -0.25271777755E+04  0.29165325480E+04  0.65864270000E+03 0. -1.
    8880022    1    1    2    0    0 -0.98562939542E+03 -0.84513849955E+03  0.69110319232E+03  0.14787628830E+04  0.15294330000E+03 0.  0.
<mgrwt>
<rscale>  0 0.14172179E+04</rscale>
<asrwt>0</asrwt>
<pdfrwt beam="1">  1        2 0.47933615E+00 0.14558621E+04</pdfrwt>
<pdfrwt beam="2">  1       -2 0.19686314E+00 0.14558621E+04</pdfrwt>
<totfact> 0.19469111E-01</totfact>
</mgrwt>
</event>
<event>
 4    5  0.1905771E-007  0.7174437E+03  0.7818608E-02  0.9931333E-01
          2   -1    0    0  501    0  0.00000000000E+00  0.00000000000E+00  0.67854522282E+03  0.67854522283E+03  0.25500000000E-02 0. -1.
         -2   -1    0    0    0  501 -0.00000000000E+00 -0.00000000000E+00 -0.75937514436E+03  0.75937514437E+03  0.25500000000E-02 0.  1.
    8880023    1    1    2    0    0 -0.24901167294E+03 -0.13750781402E+03  0.42788030391E+03  0.83534841409E+03  0.65864270000E+03 0. -1.
    8880022    1    1    2    0    0  0.24901167294E+03  0.13750781402E+03 -0.50871022545E+03  0.60257195311E+03  0.15294330000E+03 0.  0.
<mgrwt>
<rscale>  0 0.58766519E+03</rscale>
<asrwt>0</asrwt>
<pdfrwt beam="1">  1        2 0.10439157E+00 0.71744367E+03</pdfrwt>
<pdfrwt beam="2">  1       -2 0.11682695E+00 0.71744367E+03</pdfrwt>
<totfact> 0.24574910E+01</totfact>
</mgrwt>
</event>
<event>
 4    5  0.1905771E-007  0.1251019E+04  0.7818608E-02  0.9109056E-01
         -2   -1    0    0    0  501 -0.00000000000E+00  0.00000000000E+00  0.15386133369E+04  0.15386133369E+04  0.25500000000E-02 0.  1.
          2   -1    0    0  501    0  0.00000000000E+00 -0.00000000000E+00 -0.12293295905E+04  0.12293295905E+04  0.25500000000E-02 0. -1.
    8880023    1    1    2    0    0  0.68017812208E+03  0.81767677580E+03 -0.57452081130E+03  0.13766342856E+04  0.65864270000E+03 0.  0.
    8880022    1    1    2    0    0 -0.68017812208E+03 -0.81767677580E+03  0.88380455774E+03  0.13913086418E+04  0.15294330000E+03 0.  0.
<mgrwt>
<rscale>  0 0.12043513E+04</rscale>
<asrwt>0</asrwt>
<pdfrwt beam="1">  1        2 0.18912763E+00 0.12510187E+04</pdfrwt>
<pdfrwt beam="2">  1       -2 0.23670975E+00 0.12510187E+04</pdfrwt>
<totfact> 0.13652019E+00</totfact>
</mgrwt>
</event>
<event>
 4    5  0.1905771E-007  0.7426733E+03  0.7818608E-02  0.9852227E-01
          2   -1    0    0  501    0  0.00000000000E+00  0.00000000000E+00  0.26288411150E+04  0.26288411150E+04  0.25500000000E-02 0. -1.
         -2   -1    0    0    0  501 -0.00000000000E+00 -0.00000000000E+00 -0.23708162048E+03  0.23708162049E+03  0.25500000000E-02 0.  1.
    8880023    1    1    2    0    0 -0.72734083387E+02 -0.33535525557E+03  0.23765849820E+04  0.24899236488E+04  0.65864270000E+03 0.  0.
    8880022    1    1    2    0    0  0.72734083387E+02  0.33535525557E+03  0.15174512577E+02  0.37599908666E+03  0.15294330000E+03 0.  0.
<mgrwt>
<rscale>  0 0.62633482E+03</rscale>
<asrwt>0</asrwt>
<pdfrwt beam="1">  1        2 0.40443709E+00 0.74267328E+03</pdfrwt>
<pdfrwt beam="2">  1       -2 0.36474096E-01 0.74267328E+03</pdfrwt>
<totfact> 0.21739113E+01</totfact>
</mgrwt>
</event>
<event>
 4    5  0.1905771E-007  0.1054796E+04  0.7818608E-02  0.9313139E-01
         -2   -1    0    0    0  501 -0.00000000000E+00  0.00000000000E+00  0.68331587046E+03  0.68331587046E+03  0.25500000000E-02 0.  1.
          2   -1    0    0  501    0  0.00000000000E+00 -0.00000000000E+00 -0.19968337642E+04  0.19968337642E+04  0.25500000000E-02 0. -1.
    8880023    1    1    2    0    0  0.64922024185E+03 -0.50724407284E+03 -0.14882777203E+04  0.18241612458E+04  0.65864270000E+03 0. -1.
    8880022    1    1    2    0    0 -0.64922024185E+03  0.50724407284E+03  0.17475982652E+03  0.85598838885E+03  0.15294330000E+03 0.  0.
<mgrwt>
<rscale>  0 0.99582242E+03</rscale>
<asrwt>0</asrwt>
<pdfrwt beam="1">  1        2 0.30720519E+00 0.10547956E+04</pdfrwt>
<pdfrwt beam="2">  1       -2 0.10512552E+00 0.10547956E+04</pdfrwt>
<totfact> 0.48854438E+00</totfact>
</mgrwt>
</event>
<event>
 4    5  0.2128441E-007  0.6844823E+03  0.7818608E-02  0.1006894E+00
          2   -1    0    0  501    0  0.00000000000E+00  0.00000000000E+00  0.21656809680E+04  0.21656809680E+04  0.25500000000E-02 0. -1.
         -2   -1    0    0    0  501 -0.00000000000E+00 -0.00000000000E+00 -0.60471904647E+03  0.60471904647E+03  0.25500000000E-02 0.  1.
    8880023    1    1    2    0    0 -0.17063583154E+03 -0.74760953828E+02  0.20845196508E+04  0.21940232834E+04  0.65864270000E+03 0. -1.
    8880022    1    1    2    0    0  0.17063583154E+03  0.74760953828E+02 -0.52355772928E+03  0.57637673107E+03  0.15294330000E+03 0.  0.
<mgrwt>
<rscale>  0 0.52727998E+03</rscale>
<asrwt>0</asrwt>
<pdfrwt beam="1">  1        2 0.33318168E+00 0.68448228E+03</pdfrwt>
<pdfrwt beam="2">  1       -2 0.93033701E-01 0.68448228E+03</pdfrwt>
<totfact> 0.55595203E+00</totfact>
</mgrwt>
</event>
<event>
 4    5  0.1905771E-007  0.1627186E+04  0.7818608E-02  0.8824683E-01
         -2   -1    0    0    0  501 -0.00000000000E+00  0.00000000000E+00  0.12666404935E+04  0.12666404935E+04  0.25500000000E-02 0.  1.
          2   -1    0    0  501    0  0.00000000000E+00 -0.00000000000E+00 -0.19870427571E+04  0.19870427571E+04  0.25500000000E-02 0. -1.
    8880023    1    1    2    0    0 -0.27788437524E+03  0.14617465586E+04 -0.66224603359E+03  0.17567876203E+04  0.65864270000E+03 0.  0.
    8880022    1    1    2    0    0  0.27788437524E+03 -0.14617465586E+04 -0.58156229971E+02  0.14968956302E+04  0.15294330000E+03 0.  0.
<mgrwt>
<rscale>  0 0.15932858E+04</rscale>
<asrwt>0</asrwt>
<pdfrwt beam="1">  1        2 0.30569889E+00 0.16271856E+04</pdfrwt>
<pdfrwt beam="2">  1       -2 0.19486777E+00 0.16271856E+04</pdfrwt>
<totfact> 0.90726987E-01</totfact>
</mgrwt>
</event>
<event>
 4    5  0.1905771E-007  0.8599742E+03  0.7818608E-02  0.9593609E-01
          2   -1    0    0  501    0  0.00000000000E+00  0.00000000000E+00  0.15126080115E+04  0.15126080115E+04  0.25500000000E-02 0. -1.
         -2   -1    0    0    0  501 -0.00000000000E+00 -0.00000000000E+00 -0.65064928161E+03  0.65064928162E+03  0.25500000000E-02 0.  1.
    8880023    1    1    2    0    0  0.48891820101E+03  0.25827198249E+03  0.12158047594E+04  0.14892067833E+04  0.65864270000E+03 0. -1.
    8880022    1    1    2    0    0 -0.48891820101E+03 -0.25827198249E+03 -0.35384602948E+03  0.67405050984E+03  0.15294330000E+03 0.  0.
<mgrwt>
<rscale>  0 0.77720604E+03</rscale>
<asrwt>0</asrwt>
<pdfrwt beam="1">  1        2 0.23270892E+00 0.85997420E+03</pdfrwt>
<pdfrwt beam="2">  1       -2 0.10009989E+00 0.85997420E+03</pdfrwt>
<totfact> 0.10400915E+01</totfact>
</mgrwt>
</event>
<event>
 4    5  0.1905771E-007  0.9118803E+03  0.7818608E-02  0.9507223E-01
         -2   -1    0    0    0  501 -0.00000000000E+00  0.00000000000E+00  0.36249030803E+03  0.36249030804E+03  0.25500000000E-02 0.  1.
          2   -1    0    0  501    0  0.00000000000E+00 -0.00000000000E+00 -0.23710401752E+04  0.23710401752E+04  0.25500000000E-02 0. -1.
    8880023    1    1    2    0    0 -0.62181071386E+03  0.10519963545E+03 -0.18545031197E+04  0.20665690297E+04  0.65864270000E+03 0. -1.
    8880022    1    1    2    0    0  0.62181071386E+03 -0.10519963545E+03 -0.15404674751E+03  0.66696145361E+03  0.15294330000E+03 0.  0.
<mgrwt>
<rscale>  0 0.83753404E+03</rscale>
<asrwt>0</asrwt>
<pdfrwt beam="1">  1        2 0.36477540E+00 0.91188033E+03</pdfrwt>
<pdfrwt beam="2">  1       -2 0.55767741E-01 0.91188033E+03</pdfrwt>
<totfact> 0.12731156E+01</totfact>
</mgrwt>
</event>
<event>
 4    5  0.1905771E-007  0.7495955E+03  0.7818608E-02  0.9832829E-01
          2   -1    0    0  501    0  0.00000000000E+00  0.00000000000E+00  0.27020986400E+04  0.27020986400E+04  0.25500000000E-02 0. -1.
         -2   -1    0    0    0  501 -0.00000000000E+00 -0.00000000000E+00 -0.25455725525E+03  0.25455725526E+03  0.25500000000E-02 0.  1.
    8880023    1    1    2    0    0 -0.70450296196E+02  0.35088448254E+03  0.24555100456E+04  0.25673766679E+04  0.65864270000E+03 0.  0.
    8880022    1    1    2    0    0  0.70450296196E+02 -0.35088448254E+03 -0.79686608506E+01  0.38927922741E+03  0.15294330000E+03 0.  0.
<mgrwt>
<rscale>  0 0.63630124E+03</rscale>
<asrwt>0</asrwt>
<pdfrwt beam="1">  1        2 0.41570747E+00 0.74959547E+03</pdfrwt>
<pdfrwt beam="2">  1       -2 0.39162656E-01 0.74959547E+03</pdfrwt>
<totfact> 0.17168147E+01</totfact>
</mgrwt>
</event>
<event>
 4    5  0.1905771E-007  0.6615579E+03  0.7818608E-02  0.1022614E+00
         -2   -1    0    0    0  501 -0.00000000000E+00  0.00000000000E+00  0.60073319426E+03  0.60073319427E+03  0.25500000000E-02 0.  1.
          2   -1    0    0  501    0  0.00000000000E+00 -0.00000000000E+00 -0.12702847575E+04  0.12702847575E+04  0.25500000000E-02 0. -1.
    8880023    1    1    2    0    0  0.55718833736E+01 -0.61786621059E+02 -0.11699852089E+04  0.13440700234E+04  0.65864270000E+03 0. -1.
    8880022    1    1    2    0    0 -0.55718833736E+01  0.61786621059E+02  0.50043364571E+03  0.52694792835E+03  0.15294330000E+03 0.  0.
<mgrwt>
<rscale>  0 0.46754923E+03</rscale>
<asrwt>0</asrwt>
<pdfrwt beam="1">  1        2 0.19542842E+00 0.66155789E+03</pdfrwt>
<pdfrwt beam="2">  1       -2 0.92420492E-01 0.66155789E+03</pdfrwt>
<totfact> 0.17641163E+01</totfact>
</mgrwt>
</event>
<event>
 4    5  0.1905771E-007  0.8320460E+03  0.7818608E-02  0.9645365E-01
          2   -1    0    0  501    0  0.00000000000E+00  0.00000000000E+00  0.22527896144E+04  0.22527896144E+04  0.25500000000E-02 0. -1.
         -2   -1    0    0    0  501 -0.00000000000E+00 -0.00000000000E+00 -0.58853920493E+03  0.58853920493E+03  0.25500000000E-02 0.  1.
    8880023    1    1    2    0    0 -0.51853207435E+02 -0.50576830362E+03  0.20318178351E+04  0.21955828960E+04  0.65864270000E+03 0.  0.
    8880022    1    1    2    0    0  0.51853207435E+02  0.50576830362E+03 -0.36756742562E+03  0.64574592330E+03  0.15294330000E+03 0.  0.
<mgrwt>
<rscale>  0 0.74365057E+03</rscale>
<asrwt>0</asrwt>
<pdfrwt beam="1">  1        2 0.34658301E+00 0.83204600E+03</pdfrwt>
<pdfrwt beam="2">  1       -2 0.90544494E-01 0.83204600E+03</pdfrwt>
<totfact> 0.51698225E+00</totfact>
</mgrwt>
</event>
<event>
 4    5  0.1905771E-007  0.1133364E+04  0.7818608E-02  0.9224788E-01
         -2   -1    0    0    0  501 -0.00000000000E+00  0.00000000000E+00  0.51086811202E+03  0.51086811203E+03  0.25500000000E-02 0.  1.
          2   -1    0    0  501    0  0.00000000000E+00 -0.00000000000E+00 -0.23919535068E+04  0.23919535068E+04  0.25500000000E-02 0. -1.
    8880023    1    1    2    0    0  0.23893169666E+03 -0.89085107716E+03 -0.15302038066E+04  0.19042158211E+04  0.65864270000E+03 0.  0.
    8880022    1    1    2    0    0 -0.23893169666E+03  0.89085107716E+03 -0.35088158820E+03  0.99860579775E+03  0.15294330000E+03 0.  0.
<mgrwt>
<rscale>  0 0.10801199E+04</rscale>
<asrwt>0</asrwt>
<pdfrwt beam="1">  1        2 0.36799284E+00 0.11333641E+04</pdfrwt>
<pdfrwt beam="2">  1       -2 0.78595096E-01 0.11333641E+04</pdfrwt>
<totfact> 0.57360161E+00</totfact>
</mgrwt>
</event>
<event>
 4    5  0.1905771E-007  0.9677098E+03  0.7818608E-02  0.9425079E-01
          2   -1    0    0  501    0  0.00000000000E+00  0.00000000000E+00  0.17691992830E+04  0.17691992830E+04  0.25500000000E-02 0. -1.
         -2   -1    0    0    0  501 -0.00000000000E+00 -0.00000000000E+00 -0.80965477223E+03  0.80965477224E+03  0.25500000000E-02 0.  1.
    8880023    1    1    2    0    0 -0.49168798526E+03 -0.51077878667E+03  0.14209969808E+04  0.17192133868E+04  0.65864270000E+03 0. -1.
    8880022    1    1    2    0    0  0.49168798526E+03  0.51077878667E+03 -0.46145247000E+03  0.85964066844E+03  0.15294330000E+03 0.  0.
<mgrwt>
<rscale>  0 0.90040227E+03</rscale>
<asrwt>0</asrwt>
<pdfrwt beam="1">  1        2 0.27218450E+00 0.96770980E+03</pdfrwt>
<pdfrwt beam="2">  1       -2 0.12456227E+00 0.96770980E+03</pdfrwt>
<totfact> 0.43414665E+00</totfact>
</mgrwt>
</event>
<event>
 4    5  0.2152658E-007  0.6984608E+03  0.7818608E-02  0.1000365E+00
          2   -1    0    0  501    0  0.00000000000E+00  0.00000000000E+00  0.18213292240E+04  0.18213292240E+04  0.25500000000E-02 0. -1.
         -2   -1    0    0    0  501 -0.00000000000E+00 -0.00000000000E+00 -0.73246236601E+03  0.73246236601E+03  0.25500000000E-02 0.  1.
    8880023    1    1    2    0    0 -0.11398696109E+03 -0.20259382702E+03  0.17241430975E+04  0.18602464656E+04  0.65864270000E+03 0. -1.
    8880022    1    1    2    0    0  0.11398696109E+03  0.20259382702E+03 -0.63527623950E+03  0.69354512437E+03  0.15294330000E+03 0.  0.
<mgrwt>
<rscale>  0 0.55490603E+03</rscale>
<asrwt>0</asrwt>
<pdfrwt beam="1">  1        2 0.28020449E+00 0.69846080E+03</pdfrwt>
<pdfrwt beam="2">  1       -2 0.11268652E+00 0.69846080E+03</pdfrwt>
<totfact> 0.54141371E+00</totfact>
</mgrwt>
</event>
<event>
 4    5  0.1905771E-007  0.9843982E+03  0.7818608E-02  0.9402260E-01
          2   -1    0    0  501    0  0.00000000000E+00  0.00000000000E+00  0.95698961537E+03  0.95698961538E+03  0.25500000000E-02 0. -1.
         -2   -1    0    0    0  501 -0.00000000000E+00 -0.00000000000E+00 -0.10911418218E+04  0.10911418218E+04  0.25500000000E-02 0.  1.
    8880023    1    1    2    0    0  0.65696447619E+03 -0.32191179465E+03  0.46643891500E+03  0.10893140017E+04  0.65864270000E+03 0.  0.
    8880022    1    1    2    0    0 -0.65696447619E+03  0.32191179465E+03 -0.60059112143E+03  0.95881743553E+03  0.15294330000E+03 0.  0.
<mgrwt>
<rscale>  0 0.91889898E+03</rscale>
<asrwt>0</asrwt>
<pdfrwt beam="1">  1        2 0.14722917E+00 0.98439816E+03</pdfrwt>
<pdfrwt beam="2">  1       -2 0.16786797E+00 0.98439816E+03</pdfrwt>
<totfact> 0.58871238E+00</totfact>
</mgrwt>
</event>
<event>
 4    5  0.1905771E-007  0.1692212E+04  0.7818608E-02  0.8784628E-01
          2   -1    0    0  501    0  0.00000000000E+00  0.00000000000E+00  0.20310520345E+04  0.20310520345E+04  0.25500000000E-02 0. -1.
         -2   -1    0    0    0  501 -0.00000000000E+00 -0.00000000000E+00 -0.14755284735E+04  0.14755284735E+04  0.25500000000E-02 0.  1.
    8880023    1    1    2    0    0  0.12063351804E+04  0.98718076673E+03 -0.30503031701E+03  0.17194836825E+04  0.65864270000E+03 0.  0.
    8880022    1    1    2    0    0 -0.12063351804E+04 -0.98718076673E+03  0.86055387801E+03  0.17870968255E+04  0.15294330000E+03 0.  0.
<mgrwt>
<rscale>  0 0.16598040E+04</rscale>
<asrwt>0</asrwt>
<pdfrwt beam="1">  1        2 0.31246954E+00 0.16922118E+04</pdfrwt>
<pdfrwt beam="2">  1       -2 0.22700438E+00 0.16922118E+04</pdfrwt>
<totfact> 0.52752510E-01</totfact>
</mgrwt>
</event>
<event>
 4    5  0.1905771E-007  0.7567721E+03  0.7818608E-02  0.9813537E-01
          2   -1    0    0  501    0  0.00000000000E+00  0.00000000000E+00  0.21768579785E+04  0.21768579785E+04  0.25500000000E-02 0. -1.
         -2   -1    0    0    0  501 -0.00000000000E+00 -0.00000000000E+00 -0.29887671583E+03  0.29887671585E+03  0.25500000000E-02 0.  1.
    8880023    1    1    2    0    0  0.37260694774E+03  0.76055198089E+01  0.19266603918E+04  0.20699575486E+04  0.65864270000E+03 0. -1.
    8880022    1    1    2    0    0 -0.37260694774E+03 -0.76055198089E+01 -0.48679129068E+02  0.40577714580E+03  0.15294330000E+03 0.  0.
<mgrwt>
<rscale>  0 0.64641105E+03</rscale>
<asrwt>0</asrwt>
<pdfrwt beam="1">  1        2 0.33490122E+00 0.75677208E+03</pdfrwt>
<pdfrwt beam="2">  1       -2 0.45981034E-01 0.75677208E+03</pdfrwt>
<totfact> 0.24726143E+01</totfact>
</mgrwt>
</event>
<event>
 4    5  0.1905771E-007  0.1136868E+04  0.7818608E-02  0.9221077E-01
          2   -1    0    0  501    0  0.00000000000E+00  0.00000000000E+00  0.17204620497E+04  0.17204620497E+04  0.25500000000E-02 0. -1.
         -2   -1    0    0    0  501 -0.00000000000E+00 -0.00000000000E+00 -0.86125317686E+03  0.86125317687E+03  0.25500000000E-02 0.  1.
    8880023    1    1    2    0    0 -0.45564815213E+03  0.80687319020E+03 -0.21267335692E+03  0.11565897054E+04  0.65864270000E+03 0.  0.
    8880022    1    1    2    0    0  0.45564815213E+03 -0.80687319020E+03  0.10718822297E+04  0.14251255211E+04  0.15294330000E+03 0.  0.
<mgrwt>
<rscale>  0 0.10838505E+04</rscale>
<asrwt>0</asrwt>
<pdfrwt beam="1">  1        2 0.26468646E+00 0.11368684E+04</pdfrwt>
<pdfrwt beam="2">  1       -2 0.13250049E+00 0.11368684E+04</pdfrwt>
<totfact> 0.38740763E+00</totfact>
</mgrwt>
</event>
<event>
 4    5  0.1905771E-007  0.6607746E+03  0.7818608E-02  0.1023377E+00
         -2   -1    0    0    0  501 -0.00000000000E+00  0.00000000000E+00  0.50487764922E+03  0.50487764923E+03  0.25500000000E-02 0.  1.
          2   -1    0    0  501    0  0.00000000000E+00 -0.00000000000E+00 -0.15987801216E+04  0.15987801216E+04  0.25500000000E-02 0. -1.
    8880023    1    1    2    0    0 -0.52486967620E+02 -0.76104044933E+01 -0.15148308944E+04  0.16526752993E+04  0.65864270000E+03 0. -1.
    8880022    1    1    2    0    0  0.52486967620E+02  0.76104044933E+01  0.42092842209E+03  0.45098247146E+03  0.15294330000E+03 0.  0.
<mgrwt>
<rscale>  0 0.46487572E+03</rscale>
<asrwt>0</asrwt>
<pdfrwt beam="1">  1        2 0.24596617E+00 0.66077455E+03</pdfrwt>
<pdfrwt beam="2">  1       -2 0.77673485E-01 0.66077455E+03</pdfrwt>
<totfact> 0.17134812E+01</totfact>
</mgrwt>
</event>
<event>
 4    5  0.1905771E-007  0.7017544E+03  0.7818608E-02  0.9990000E-01
         -2   -1    0    0    0  501 -0.00000000000E+00  0.00000000000E+00  0.32236196210E+03  0.32236196211E+03  0.25500000000E-02 0.  1.
          2   -1    0    0  501    0  0.00000000000E+00 -0.00000000000E+00 -0.17108511628E+04  0.17108511628E+04  0.25500000000E-02 0. -1.
    8880023    1    1    2    0    0 -0.20460758033E+03  0.12955596023E+03 -0.15520854631E+04  0.17033580070E+04  0.65864270000E+03 0.  0.
    8880022    1    1    2    0    0  0.20460758033E+03 -0.12955596023E+03  0.16359626241E+03  0.32985511797E+03  0.15294330000E+03 0.  0.
<mgrwt>
<rscale>  0 0.56090911E+03</rscale>
<asrwt>0</asrwt>
<pdfrwt beam="1">  1        2 0.26320787E+00 0.70175438E+03</pdfrwt>
<pdfrwt beam="2">  1       -2 0.49594149E-01 0.70175438E+03</pdfrwt>
<totfact> 0.38408108E+01</totfact>
</mgrwt>
</event>
<event>
 4    5  0.1905771E-007  0.1387081E+04  0.7818608E-02  0.8993786E-01
          2   -1    0    0  501    0  0.00000000000E+00  0.00000000000E+00  0.15694653463E+04  0.15694653463E+04  0.25500000000E-02 0. -1.
         -2   -1    0    0    0  501 -0.00000000000E+00 -0.00000000000E+00 -0.13613549224E+04  0.13613549224E+04  0.25500000000E-02 0.  1.
    8880023    1    1    2    0    0 -0.10806692193E+04  0.56774863873E+03  0.76088313999E+03  0.15820675830E+04  0.65864270000E+03 0.  0.
    8880022    1    1    2    0    0  0.10806692193E+04 -0.56774863873E+03 -0.55277271618E+03  0.13487526857E+04  0.15294330000E+03 0.  0.
<mgrwt>
<rscale>  0 0.13460989E+04</rscale>
<asrwt>0</asrwt>
<pdfrwt beam="1">  1        2 0.24145621E+00 0.13870814E+04</pdfrwt>
<pdfrwt beam="2">  1       -2 0.20943922E+00 0.13870814E+04</pdfrwt>
<totfact> 0.12740279E+00</totfact>
</mgrwt>
</event>
<event>
 4    5  0.1905771E-007  0.8376574E+03  0.7818608E-02  0.9634613E-01
          2   -1    0    0  501    0  0.00000000000E+00  0.00000000000E+00  0.96259089602E+03  0.96259089603E+03  0.25500000000E-02 0. -1.
         -2   -1    0    0    0  501 -0.00000000000E+00 -0.00000000000E+00 -0.98660027124E+03  0.98660027124E+03  0.25500000000E-02 0.  1.
    8880023    1    1    2    0    0  0.16652306851E+03 -0.49003035966E+03  0.66815828465E+03  0.10714967967E+04  0.65864270000E+03 0. -1.
    8880022    1    1    2    0    0 -0.16652306851E+03  0.49003035966E+03 -0.69216765986E+03  0.87769437056E+03  0.15294330000E+03 0.  0.
<mgrwt>
<rscale>  0 0.75046995E+03</rscale>
<asrwt>0</asrwt>
<pdfrwt beam="1">  1        2 0.14809091E+00 0.83765738E+03</pdfrwt>
<pdfrwt beam="2">  1       -2 0.15178466E+00 0.83765738E+03</pdfrwt>
<totfact> 0.77935730E+00</totfact>
</mgrwt>
</event>
<event>
 4    5  0.1905771E-007  0.7831298E+03  0.7818608E-02  0.9748536E-01
          2   -1    0    0  501    0  0.00000000000E+00  0.00000000000E+00  0.80129383834E+03  0.80129383835E+03  0.25500000000E-02 0. -1.
         -2   -1    0    0    0  501 -0.00000000000E+00 -0.00000000000E+00 -0.86817265929E+03  0.86817265929E+03  0.25500000000E-02 0.  1.
    8880023    1    1    2    0    0 -0.26509912257E+02 -0.42282295191E+03  0.51226308682E+03  0.93579148345E+03  0.65864270000E+03 0. -1.
    8880022    1    1    2    0    0  0.26509912257E+02  0.42282295191E+03 -0.57914190776E+03  0.73367501419E+03  0.15294330000E+03 0.  0.
<mgrwt>
<rscale>  0 0.68199079E+03</rscale>
<asrwt>0</asrwt>
<pdfrwt beam="1">  1        2 0.12327598E+00 0.78312977E+03</pdfrwt>
<pdfrwt beam="2">  1       -2 0.13356502E+00 0.78312977E+03</pdfrwt>
<totfact> 0.14099522E+01</totfact>
</mgrwt>
</event>
<event>
 4    5  0.1905771E-007  0.8929472E+03  0.7818608E-02  0.9537450E-01
         -2   -1    0    0    0  501 -0.00000000000E+00  0.00000000000E+00  0.26580447852E+04  0.26580447852E+04  0.25500000000E-02 0.  1.
          2   -1    0    0  501    0  0.00000000000E+00 -0.00000000000E+00 -0.14643191977E+04  0.14643191977E+04  0.25500000000E-02 0. -1.
    8880023    1    1    2    0    0 -0.55097091227E+03 -0.24489914708E+03 -0.12861080266E+04  0.15657038675E+04  0.65864270000E+03 0. -1.
    8880022    1    1    2    0    0  0.55097091227E+03  0.24489914708E+03  0.24798336142E+04  0.25566601153E+04  0.15294330000E+03 0.  0.
<mgrwt>
<rscale>  0 0.81578227E+03</rscale>
<asrwt>0</asrwt>
<pdfrwt beam="1">  1        2 0.22527988E+00 0.89294722E+03</pdfrwt>
<pdfrwt beam="2">  1       -2 0.40892996E+00 0.89294722E+03</pdfrwt>
<totfact> 0.89824352E-02</totfact>
</mgrwt>
</event>
<event>
 4    5  0.1905771E-007  0.1461074E+04  0.7818608E-02  0.8937624E-01
          2   -1    0    0  501    0  0.00000000000E+00  0.00000000000E+00  0.12231719180E+04  0.12231719180E+04  0.25500000000E-02 0. -1.
         -2   -1    0    0    0  501 -0.00000000000E+00 -0.00000000000E+00 -0.22476684300E+04  0.22476684300E+04  0.25500000000E-02 0.  1.
    8880023    1    1    2    0    0  0.16910899711E+03  0.12931854444E+04  0.41847219918E+03  0.15198209218E+04  0.65864270000E+03 0.  0.
    8880022    1    1    2    0    0 -0.16910899711E+03 -0.12931854444E+04 -0.14429687112E+04  0.19510194261E+04  0.15294330000E+03 0.  0.
<mgrwt>
<rscale>  0 0.14225950E+04</rscale>
<asrwt>0</asrwt>
<pdfrwt beam="1">  1        2 0.18818030E+00 0.14610738E+04</pdfrwt>
<pdfrwt beam="2">  1       -2 0.34579514E+00 0.14610738E+04</pdfrwt>
<totfact> 0.28807858E-01</totfact>
</mgrwt>
</event>
<event>
 4    5  0.1905771E-007  0.1480023E+04  0.7818608E-02  0.8923872E-01
          2   -1    0    0  501    0  0.00000000000E+00  0.00000000000E+00  0.13092279407E+04  0.13092279407E+04  0.25500000000E-02 0. -1.
         -2   -1    0    0    0  501 -0.00000000000E+00 -0.00000000000E+00 -0.24556071990E+04  0.24556071990E+04  0.25500000000E-02 0.  1.
    8880023    1    1    2    0    0  0.39887905056E+02 -0.13247896070E+04  0.57426383907E+03  0.15875288063E+04  0.65864270000E+03 0.  0.
    8880022    1    1    2    0    0 -0.39887905056E+02  0.13247896070E+04 -0.17206430974E+04  0.21773063334E+04  0.15294330000E+03 0.  0.
<mgrwt>
<rscale>  0 0.14421334E+04</rscale>
<asrwt>0</asrwt>
<pdfrwt beam="1">  1        2 0.20141968E+00 0.14800232E+04</pdfrwt>
<pdfrwt beam="2">  1       -2 0.37778572E+00 0.14800232E+04</pdfrwt>
<totfact> 0.15999971E-01</totfact>
</mgrwt>
</event>
<event>
 4    5  0.1905771E-007  0.1008897E+04  0.7818608E-02  0.9370009E-01
         -2   -1    0    0    0  501 -0.00000000000E+00  0.00000000000E+00  0.14179028935E+04  0.14179028935E+04  0.25500000000E-02 0.  1.
          2   -1    0    0  501    0  0.00000000000E+00 -0.00000000000E+00 -0.12324118450E+04  0.12324118450E+04  0.25500000000E-02 0. -1.
    8880023    1    1    2    0    0 -0.51759056340E+03 -0.56228321165E+03 -0.87414236848E+03  0.13349147868E+04  0.65864270000E+03 0.  0.
    8880022    1    1    2    0    0  0.51759056340E+03  0.56228321165E+03  0.10596334169E+04  0.13153999516E+04  0.15294330000E+03 0.  0.
<mgrwt>
<rscale>  0 0.94585424E+03</rscale>
<asrwt>0</asrwt>
<pdfrwt beam="1">  1        2 0.18960182E+00 0.10088967E+04</pdfrwt>
<pdfrwt beam="2">  1       -2 0.21813891E+00 0.10088967E+04</pdfrwt>
<totfact> 0.18262407E+00</totfact>
</mgrwt>
</event>
<event>
 4    5  0.1905771E-007  0.1616958E+04  0.7818608E-02  0.8831178E-01
          2   -1    0    0  501    0  0.00000000000E+00  0.00000000000E+00  0.25750074462E+04  0.25750074462E+04  0.25500000000E-02 0. -1.
         -2   -1    0    0    0  501 -0.00000000000E+00 -0.00000000000E+00 -0.16648720428E+04  0.16648720428E+04  0.25500000000E-02 0.  1.
    8880023    1    1    2    0    0  0.81688728999E+03  0.12302190814E+04 -0.93796059819E+03  0.18693111359E+04  0.65864270000E+03 0.  0.
    8880022    1    1    2    0    0 -0.81688728999E+03 -0.12302190814E+04  0.18480960015E+04  0.23705683531E+04  0.15294330000E+03 0.  0.
<mgrwt>
<rscale>  0 0.15828104E+04</rscale>
<asrwt>0</asrwt>
<pdfrwt beam="1">  1        2 0.39615499E+00 0.16169583E+04</pdfrwt>
<pdfrwt beam="2">  1       -2 0.25613416E+00 0.16169583E+04</pdfrwt>
<totfact> 0.17155139E-01</totfact>
</mgrwt>
</event>
<event>
 4    5  0.1905771E-007  0.7164025E+03  0.7818608E-02  0.9934952E-01
          2   -1    0    0  501    0  0.00000000000E+00  0.00000000000E+00  0.34610300977E+03  0.34610300978E+03  0.25500000000E-02 0. -1.
         -2   -1    0    0    0  501 -0.00000000000E+00 -0.00000000000E+00 -0.10000746594E+04  0.10000746594E+04  0.25500000000E-02 0.  1.
    8880023    1    1    2    0    0  0.27798408169E+03  0.46337091798E+02 -0.12443701905E+03  0.72712932393E+03  0.65864270000E+03 0. -1.
    8880022    1    1    2    0    0 -0.27798408169E+03 -0.46337091798E+02 -0.52953463054E+03  0.61904834521E+03  0.15294330000E+03 0.  0.
<mgrwt>
<rscale>  0 0.58596853E+03</rscale>
<asrwt>0</asrwt>
<pdfrwt beam="1">  1        2 0.53246617E-01 0.71640246E+03</pdfrwt>
<pdfrwt beam="2">  1       -2 0.15385764E+00 0.71640246E+03</pdfrwt>
<totfact> 0.26602211E+01</totfact>
</mgrwt>
</event>
<event>
 4    5  0.1905771E-007  0.7555505E+03  0.7818608E-02  0.9816766E-01
         -2   -1    0    0    0  501 -0.00000000000E+00  0.00000000000E+00  0.11937296794E+04  0.11937296794E+04  0.25500000000E-02 0.  1.
          2   -1    0    0  501    0  0.00000000000E+00 -0.00000000000E+00 -0.69575902136E+03  0.69575902137E+03  0.25500000000E-02 0. -1.
    8880023    1    1    2    0    0  0.19487013380E+03 -0.31475712598E+03 -0.43665172283E+03  0.87265190696E+03  0.65864270000E+03 0. -1.
    8880022    1    1    2    0    0 -0.19487013380E+03  0.31475712598E+03  0.93462238082E+03  0.10168367938E+04  0.15294330000E+03 0.  0.
<mgrwt>
<rscale>  0 0.64470505E+03</rscale>
<asrwt>0</asrwt>
<pdfrwt beam="1">  1        2 0.10703985E+00 0.75555054E+03</pdfrwt>
<pdfrwt beam="2">  1       -2 0.18365072E+00 0.75555054E+03</pdfrwt>
<totfact> 0.71931024E+00</totfact>
</mgrwt>
</event>
<event>
 4    5  0.1905771E-007  0.7028736E+03  0.7818608E-02  0.9985483E-01
         -2   -1    0    0    0  501 -0.00000000000E+00  0.00000000000E+00  0.16851838024E+03  0.16851838026E+03  0.25500000000E-02 0.  1.
          2   -1    0    0  501    0  0.00000000000E+00 -0.00000000000E+00 -0.16852698293E+04  0.16852698293E+04  0.25500000000E-02 0. -1.
    8880023    1    1    2    0    0 -0.46881940137E+02  0.24088010951E+03 -0.13446948324E+04  0.15173119462E+04  0.65864270000E+03 0. -1.
    8880022    1    1    2    0    0  0.46881940137E+02 -0.24088010951E+03 -0.17205661667E+03  0.33647626339E+03  0.15294330000E+03 0.  0.
<mgrwt>
<rscale>  0 0.56291398E+03</rscale>
<asrwt>0</asrwt>
<pdfrwt beam="1">  1        2 0.25927227E+00 0.70287364E+03</pdfrwt>
<pdfrwt beam="2">  1       -2 0.25925906E-01 0.70287364E+03</pdfrwt>
<totfact> 0.13725988E+02</totfact>
</mgrwt>
</event>
<event>
 4    5  0.1905771E-007  0.8452616E+03  0.7818608E-02  0.9620338E-01
         -2   -1    0    0    0  501 -0.00000000000E+00  0.00000000000E+00  0.75178051710E+03  0.75178051711E+03  0.25500000000E-02 0.  1.
          2   -1    0    0  501    0  0.00000000000E+00 -0.00000000000E+00 -0.12682035713E+04  0.12682035713E+04  0.25500000000E-02 0. -1.
    8880023    1    1    2    0    0 -0.35914280592E+03  0.38945269062E+03 -0.98387332264E+03  0.12971021064E+04  0.65864270000E+03 0. -1.
    8880022    1    1    2    0    0  0.35914280592E+03 -0.38945269062E+03  0.46745026848E+03  0.72288198193E+03  0.15294330000E+03 0.  0.
<mgrwt>
<rscale>  0 0.75964595E+03</rscale>
<asrwt>0</asrwt>
<pdfrwt beam="1">  1        2 0.19510824E+00 0.84526159E+03</pdfrwt>
<pdfrwt beam="2">  1       -2 0.11565854E+00 0.84526159E+03</pdfrwt>
<totfact> 0.10125918E+01</totfact>
</mgrwt>
</event>
<event>
 4    5  0.1905771E-007  0.7574251E+03  0.7818608E-02  0.9811820E-01
          2   -1    0    0  501    0  0.00000000000E+00  0.00000000000E+00  0.14260782811E+04  0.14260782811E+04  0.25500000000E-02 0. -1.
         -2   -1    0    0    0  501 -0.00000000000E+00 -0.00000000000E+00 -0.14215737457E+04  0.14215737457E+04  0.25500000000E-02 0.  1.
    8880023    1    1    2    0    0 -0.31248658576E+03 -0.20551100549E+03  0.12923232640E+04  0.14979293256E+04  0.65864270000E+03 0.  0.
    8880022    1    1    2    0    0  0.31248658576E+03  0.20551100549E+03 -0.12878187286E+04  0.13497227013E+04  0.15294330000E+03 0.  0.
<mgrwt>
<rscale>  0 0.64732073E+03</rscale>
<asrwt>0</asrwt>
<pdfrwt beam="1">  1        2 0.21939666E+00 0.75742514E+03</pdfrwt>
<pdfrwt beam="2">  1       -2 0.21870365E+00 0.75742514E+03</pdfrwt>
<totfact> 0.14546222E+00</totfact>
</mgrwt>
</event>
<event>
 4    5  0.1905771E-007  0.1255368E+04  0.7818608E-02  0.9105094E-01
          2   -1    0    0  501    0  0.00000000000E+00  0.00000000000E+00  0.13704215168E+04  0.13704215168E+04  0.25500000000E-02 0. -1.
         -2   -1    0    0    0  501 -0.00000000000E+00 -0.00000000000E+00 -0.15690489660E+04  0.15690489660E+04  0.25500000000E-02 0.  1.
    8880023    1    1    2    0    0  0.49222861830E+03 -0.94860439216E+03  0.78364788539E+03  0.14798829413E+04  0.65864270000E+03 0. -1.
    8880022    1    1    2    0    0 -0.49222861830E+03  0.94860439216E+03 -0.98227533452E+03  0.14595875415E+04  0.15294330000E+03 0.  0.
<mgrwt>
<rscale>  0 0.12089096E+04</rscale>
<asrwt>0</asrwt>
<pdfrwt beam="1">  1        2 0.21083408E+00 0.12553683E+04</pdfrwt>
<pdfrwt beam="2">  1       -2 0.24139215E+00 0.12553683E+04</pdfrwt>
<totfact> 0.10549103E+00</totfact>
</mgrwt>
</event>
<event>
 4    5  0.1970236E-007  0.1302546E+04  0.7818608E-02  0.9063364E-01
         -2   -1    0    0    0  501 -0.00000000000E+00  0.00000000000E+00  0.17545992923E+04  0.17545992923E+04  0.25500000000E-02 0.  1.
          2   -1    0    0  501    0  0.00000000000E+00 -0.00000000000E+00 -0.21686544878E+04  0.21686544878E+04  0.25500000000E-02 0. -1.
    8880023    1    1    2    0    0  0.48903285959E+03 -0.10117621336E+04 -0.17431531532E+04  0.21760535091E+04  0.65864270000E+03 0. -1.
    8880022    1    1    2    0    0 -0.48903285959E+03  0.10117621336E+04  0.13290979577E+04  0.17472002710E+04  0.15294330000E+03 0.  0.
<mgrwt>
<rscale>  0 0.12582260E+04</rscale>
<asrwt>0</asrwt>
<pdfrwt beam="1">  1        2 0.33363915E+00 0.13025460E+04</pdfrwt>
<pdfrwt beam="2">  1       -2 0.26993835E+00 0.13025460E+04</pdfrwt>
<totfact> 0.25075077E-01</totfact>
</mgrwt>
</event>
<event>
 4    5  0.1905771E-007  0.1253553E+04  0.7818608E-02  0.9106745E-01
          2   -1    0    0  501    0  0.00000000000E+00  0.00000000000E+00  0.23518968110E+04  0.23518968110E+04  0.25500000000E-02 0. -1.
         -2   -1    0    0    0  501 -0.00000000000E+00 -0.00000000000E+00 -0.75641101249E+03  0.75641101249E+03  0.25500000000E-02 0.  1.
    8880023    1    1    2    0    0  0.10651500089E+04 -0.55144928419E+02  0.89748393852E+02  0.12567619047E+04  0.65864270000E+03 0.  0.
    8880022    1    1    2    0    0 -0.10651500089E+04  0.55144928419E+02  0.15057374047E+04  0.18515459188E+04  0.15294330000E+03 0.  0.
<mgrwt>
<rscale>  0 0.12070077E+04</rscale>
<asrwt>0</asrwt>
<pdfrwt beam="1">  1        2 0.36183027E+00 0.12535532E+04</pdfrwt>
<pdfrwt beam="2">  1       -2 0.11637093E+00 0.12535532E+04</pdfrwt>
<totfact> 0.23621736E+00</totfact>
</mgrwt>
</event>
<event>
 4    5  0.1905771E-007  0.1614204E+04  0.7818608E-02  0.8832937E-01
         -2   -1    0    0    0  501 -0.00000000000E+00  0.00000000000E+00  0.30871461707E+04  0.30871461707E+04  0.25500000000E-02 0.  1.
          2   -1    0    0  501    0  0.00000000000E+00 -0.00000000000E+00 -0.20297419053E+04  0.20297419053E+04  0.25500000000E-02 0. -1.
    8880023    1    1    2    0    0 -0.10047256782E+04  0.10781335507E+04 -0.14725815236E+04  0.21849833390E+04  0.65864270000E+03 0.  0.
    8880022    1    1    2    0    0  0.10047256782E+04 -0.10781335507E+04  0.25299857890E+04  0.29319047371E+04  0.15294330000E+03 0.  0.
<mgrwt>
<rscale>  0 0.15799891E+04</rscale>
<asrwt>0</asrwt>
<pdfrwt beam="1">  1        2 0.31226799E+00 0.16142044E+04</pdfrwt>
<pdfrwt beam="2">  1       -2 0.47494556E+00 0.16142044E+04</pdfrwt>
<totfact> 0.14092691E-02</totfact>
</mgrwt>
</event>
<event>
 4    5  0.1905771E-007  0.1443106E+04  0.7818608E-02  0.8950892E-01
          2   -1    0    0  501    0  0.00000000000E+00  0.00000000000E+00  0.17485928700E+04  0.17485928700E+04  0.25500000000E-02 0. -1.
         -2   -1    0    0    0  501 -0.00000000000E+00 -0.00000000000E+00 -0.16042621310E+04  0.16042621310E+04  0.25500000000E-02 0.  1.
    8880023    1    1    2    0    0  0.77501947965E+03  0.10237626589E+04  0.10408989583E+04  0.17793330277E+04  0.65864270000E+03 0.  0.
    8880022    1    1    2    0    0 -0.77501947965E+03 -0.10237626589E+04 -0.89656821924E+03  0.15735219733E+04  0.15294330000E+03 0.  0.
<mgrwt>
<rscale>  0 0.14040504E+04</rscale>
<asrwt>0</asrwt>
<pdfrwt beam="1">  1        2 0.26901429E+00 0.14431062E+04</pdfrwt>
<pdfrwt beam="2">  1       -2 0.24680956E+00 0.14431062E+04</pdfrwt>
<totfact> 0.58507701E-01</totfact>
</mgrwt>
</event>
<event>
 4    5  0.1905771E-007  0.8296459E+03  0.7818608E-02  0.9650022E-01
         -2   -1    0    0    0  501 -0.00000000000E+00  0.00000000000E+00  0.13192733887E+04  0.13192733887E+04  0.25500000000E-02 0.  1.
          2   -1    0    0  501    0  0.00000000000E+00 -0.00000000000E+00 -0.15437877496E+04  0.15437877496E+04  0.25500000000E-02 0. -1.
    8880023    1    1    2    0    0 -0.19399957942E+03  0.46568900834E+03 -0.13702657690E+04  0.16018553534E+04  0.65864270000E+03 0.  0.
    8880022    1    1    2    0    0  0.19399957942E+03 -0.46568900834E+03  0.11457514082E+04  0.12612057848E+04  0.15294330000E+03 0.  0.
<mgrwt>
<rscale>  0 0.74072059E+03</rscale>
<asrwt>0</asrwt>
<pdfrwt beam="1">  1        2 0.23750581E+00 0.82964589E+03</pdfrwt>
<pdfrwt beam="2">  1       -2 0.20296514E+00 0.82964589E+03</pdfrwt>
<totfact> 0.15550841E+00</totfact>
</mgrwt>
</event>
<event>
 4    5  0.1905771E-007  0.7192793E+03  0.7818608E-02  0.9925032E-01
          2   -1    0    0  501    0  0.00000000000E+00  0.00000000000E+00  0.31190575404E+04  0.31190575404E+04  0.25500000000E-02 0. -1.
         -2   -1    0    0    0  501 -0.00000000000E+00 -0.00000000000E+00 -0.18425354099E+03  0.18425354101E+03  0.25500000000E-02 0.  1.
    8880023    1    1    2    0    0 -0.26399394469E+03  0.11772745747E+03  0.28840278848E+04  0.29723693586E+04  0.65864270000E+03 0. -1.
    8880022    1    1    2    0    0  0.26399394469E+03 -0.11772745747E+03  0.50776114565E+02  0.33094172282E+03  0.15294330000E+03 0.  0.
<mgrwt>
<rscale>  0 0.59063319E+03</rscale>
<asrwt>0</asrwt>
<pdfrwt beam="1">  1        2 0.47985502E+00 0.71927934E+03</pdfrwt>
<pdfrwt beam="2">  1       -2 0.28346698E-01 0.71927934E+03</pdfrwt>
<totfact> 0.17818592E+01</totfact>
</mgrwt>
</event>
<event>
 4    5  0.1905771E-007  0.6791443E+03  0.7818608E-02  0.1009812E+00
         -2   -1    0    0    0  501 -0.00000000000E+00  0.00000000000E+00  0.20010857854E+03  0.20010857855E+03  0.25500000000E-02 0.  1.
          2   -1    0    0  501    0  0.00000000000E+00 -0.00000000000E+00 -0.14602518558E+04  0.14602518558E+04  0.25500000000E-02 0. -1.
    8880023    1    1    2    0    0  0.16544751445E+03 -0.73392753117E+01 -0.12639998271E+04  0.14348980849E+04  0.65864270000E+03 0. -1.
    8880022    1    1    2    0    0 -0.16544751445E+03  0.73392753117E+01  0.38565498598E+01  0.22546234939E+03  0.15294330000E+03 0.  0.
<mgrwt>
<rscale>  0 0.51549464E+03</rscale>
<asrwt>0</asrwt>
<pdfrwt beam="1">  1        2 0.22465413E+00 0.67914428E+03</pdfrwt>
<pdfrwt beam="2">  1       -2 0.30785936E-01 0.67914428E+03</pdfrwt>
<totfact> 0.13352806E+02</totfact>
</mgrwt>
</event>
<event>
 4    5  0.1905771E-007  0.1843703E+04  0.7818608E-02  0.8698739E-01
          2   -1    0    0  501    0  0.00000000000E+00  0.00000000000E+00  0.24365485454E+04  0.24365485454E+04  0.25500000000E-02 0. -1.
         -2   -1    0    0    0  501 -0.00000000000E+00 -0.00000000000E+00 -0.15300001077E+04  0.15300001077E+04  0.25500000000E-02 0.  1.
    8880023    1    1    2    0    0 -0.13448361326E+04  0.10755685662E+04 -0.28677293371E+03  0.18658726875E+04  0.65864270000E+03 0.  0.
    8880022    1    1    2    0    0  0.13448361326E+04 -0.10755685662E+04  0.11933213714E+04  0.21006759656E+04  0.15294330000E+03 0.  0.
<mgrwt>
<rscale>  0 0.18142863E+04</rscale>
<asrwt>0</asrwt>
<pdfrwt beam="1">  1        2 0.37485362E+00 0.18437034E+04</pdfrwt>
<pdfrwt beam="2">  1       -2 0.23538463E+00 0.18437034E+04</pdfrwt>
<totfact> 0.27111095E-01</totfact>
</mgrwt>
</event>
<event>
 4    5  0.1905771E-007  0.1008486E+04  0.7818608E-02  0.9370539E-01
          2   -1    0    0  501    0  0.00000000000E+00  0.00000000000E+00  0.46197462380E+04  0.46197462380E+04  0.25500000000E-02 0. -1.
         -2   -1    0    0    0  501 -0.00000000000E+00 -0.00000000000E+00 -0.24339455648E+03  0.24339455649E+03  0.25500000000E-02 0.  1.
    8880023    1    1    2    0    0 -0.26944421733E+02  0.76322178308E+03  0.36889657954E+04  0.38243316198E+04  0.65864270000E+03 0.  0.
    8880022    1    1    2    0    0  0.26944421733E+02 -0.76322178308E+03  0.68738588608E+03  0.10388091747E+04  0.15294330000E+03 0.  0.
<mgrwt>
<rscale>  0 0.94540394E+03</rscale>
<asrwt>0</asrwt>
<pdfrwt beam="1">  1        2 0.71073026E+00 0.10084858E+04</pdfrwt>
<pdfrwt beam="2">  1       -2 0.37445313E-01 0.10084858E+04</pdfrwt>
<totfact> 0.67768769E-01</totfact>
</mgrwt>
</event>
<event>
 4    5  0.1905771E-007  0.7134794E+03  0.7818608E-02  0.9945301E-01
         -2   -1    0    0    0  501 -0.00000000000E+00  0.00000000000E+00  0.38153489060E+03  0.38153489061E+03  0.25500000000E-02 0.  1.
          2   -1    0    0  501    0  0.00000000000E+00 -0.00000000000E+00 -0.25317507454E+04  0.25317507454E+04  0.25500000000E-02 0. -1.
    8880023    1    1    2    0    0 -0.24409052538E+03 -0.12514970441E+03 -0.24051715959E+04  0.25087652830E+04  0.65864270000E+03 0. -1.
    8880022    1    1    2    0    0  0.24409052538E+03  0.12514970441E+03  0.25495574109E+03  0.40452035304E+03  0.15294330000E+03 0.  0.
<mgrwt>
<rscale>  0 0.58115177E+03</rscale>
<asrwt>0</asrwt>
<pdfrwt beam="1">  1        2 0.38950010E+00 0.71347939E+03</pdfrwt>
<pdfrwt beam="2">  1       -2 0.58697677E-01 0.71347939E+03</pdfrwt>
<totfact> 0.95592484E+00</totfact>
</mgrwt>
</event>
<event>
 4    5  0.1905771E-007  0.6587772E+03  0.7818608E-02  0.1025446E+00
          2   -1    0    0  501    0  0.00000000000E+00  0.00000000000E+00  0.27297378677E+04  0.27297378677E+04  0.25500000000E-02 0. -1.
         -2   -1    0    0    0  501 -0.00000000000E+00 -0.00000000000E+00 -0.11271581411E+03  0.11271581414E+03  0.25500000000E-02 0.  1.
    8880023    1    1    2    0    0  0.11074603165E+02  0.73863455334E+01  0.26066216582E+04  0.26885802722E+04  0.65864270000E+03 0. -1.
    8880022    1    1    2    0    0 -0.11074603165E+02 -0.73863455334E+01  0.10400395351E+02  0.15387340957E+03  0.15294330000E+03 0.  0.
<mgrwt>
<rscale>  0 0.45771616E+03</rscale>
<asrwt>0</asrwt>
<pdfrwt beam="1">  1        2 0.41995970E+00 0.65877721E+03</pdfrwt>
<pdfrwt beam="2">  1       -2 0.17340894E-01 0.65877721E+03</pdfrwt>
<totfact> 0.73842848E+01</totfact>
</mgrwt>
</event>
<event>
 4    5  0.1940212E-007  0.9358717E+03  0.7818608E-02  0.9470740E-01
         -2   -1    0    0    0  501 -0.00000000000E+00  0.00000000000E+00  0.18719544362E+04  0.18719544362E+04  0.25500000000E-02 0.  1.
          2   -1    0    0  501    0  0.00000000000E+00 -0.00000000000E+00 -0.34373178346E+04  0.34373178346E+04  0.25500000000E-02 0. -1.
    8880023    1    1    2    0    0  0.62613713213E+03  0.22360202487E+03 -0.33080073804E+04  0.34378435986E+04  0.65864270000E+03 0.  0.
    8880022    1    1    2    0    0 -0.62613713213E+03 -0.22360202487E+03  0.17426439820E+04  0.18714286721E+04  0.15294330000E+03 0.  0.
<mgrwt>
<rscale>  0 0.86475855E+03</rscale>
<asrwt>0</asrwt>
<pdfrwt beam="1">  1        2 0.52881813E+00 0.93587167E+03</pdfrwt>
<pdfrwt beam="2">  1       -2 0.28799299E+00 0.93587167E+03</pdfrwt>
<totfact> 0.35740750E-02</totfact>
</mgrwt>
</event>
<event>
 4    5  0.1905771E-007  0.1188586E+04  0.7818608E-02  0.9168298E-01
          2   -1    0    0  501    0  0.00000000000E+00  0.00000000000E+00  0.15717720271E+04  0.15717720271E+04  0.25500000000E-02 0. -1.
         -2   -1    0    0    0  501 -0.00000000000E+00 -0.00000000000E+00 -0.17929009358E+04  0.17929009358E+04  0.25500000000E-02 0.  1.
    8880023    1    1    2    0    0  0.71806276412E+03 -0.68067136616E+03  0.11586896323E+04  0.16599094892E+04  0.65864270000E+03 0.  0.
    8880022    1    1    2    0    0 -0.71806276412E+03  0.68067136616E+03 -0.13798185411E+04  0.17047634737E+04  0.15294330000E+03 0.  0.
<mgrwt>
<rscale>  0 0.11386726E+04</rscale>
<asrwt>0</asrwt>
<pdfrwt beam="1">  1        2 0.24181108E+00 0.11885865E+04</pdfrwt>
<pdfrwt beam="2">  1       -2 0.27583091E+00 0.11885865E+04</pdfrwt>
<totfact> 0.50352479E-01</totfact>
</mgrwt>
</event>
<event>
 4    5  0.1905771E-007  0.8337848E+03  0.7818608E-02  0.9642013E-01
         -2   -1    0    0    0  501 -0.00000000000E+00  0.00000000000E+00  0.14573719477E+04  0.14573719477E+04  0.25500000000E-02 0.  1.
          2   -1    0    0  501    0  0.00000000000E+00 -0.00000000000E+00 -0.37994225957E+03  0.37994225958E+03  0.25500000000E-02 0. -1.
    8880023    1    1    2    0    0 -0.50690599223E+03  0.66582893934E+02  0.28342153142E+03  0.88063893705E+03  0.65864270000E+03 0.  0.
    8880022    1    1    2    0    0  0.50690599223E+03 -0.66582893934E+02  0.79400815668E+03  0.95667527020E+03  0.15294330000E+03 0.  0.
<mgrwt>
<rscale>  0 0.74576830E+03</rscale>
<asrwt>0</asrwt>
<pdfrwt beam="1">  1        2 0.58452655E-01 0.83378485E+03</pdfrwt>
<pdfrwt beam="2">  1       -2 0.22421107E+00 0.83378485E+03</pdfrwt>
<totfact> 0.79415178E+00</totfact>
</mgrwt>
</event>
<event>
 4    5  0.1905771E-007  0.9292335E+03  0.7818608E-02  0.9480644E-01
          2   -1    0    0  501    0  0.00000000000E+00  0.00000000000E+00  0.20474433639E+04  0.20474433639E+04  0.25500000000E-02 0. -1.
         -2   -1    0    0    0  501 -0.00000000000E+00 -0.00000000000E+00 -0.46615883716E+03  0.46615883716E+03  0.25500000000E-02 0.  1.
    8880023    1    1    2    0    0  0.13781859185E+01  0.65548662957E+03  0.15886613209E+04  0.18404672286E+04  0.65864270000E+03 0.  0.
    8880022    1    1    2    0    0 -0.13781859185E+01 -0.65548662957E+03 -0.73767941899E+01  0.67313497238E+03  0.15294330000E+03 0.  0.
<mgrwt>
<rscale>  0 0.85726018E+03</rscale>
<asrwt>0</asrwt>
<pdfrwt beam="1">  1        2 0.31499128E+00 0.92923346E+03</pdfrwt>
<pdfrwt beam="2">  1       -2 0.71716746E-01 0.92923346E+03</pdfrwt>
<totfact> 0.11211898E+01</totfact>
</mgrwt>
</event>
<event>
 4    5  0.1905771E-007  0.1772972E+04  0.7818608E-02  0.8737636E-01
          2   -1    0    0  501    0  0.00000000000E+00  0.00000000000E+00  0.38574524599E+04  0.38574524599E+04  0.25500000000E-02 0. -1.
         -2   -1    0    0    0  501 -0.00000000000E+00 -0.00000000000E+00 -0.15493230532E+04  0.15493230532E+04  0.25500000000E-02 0.  1.
    8880023    1    1    2    0    0  0.13232095541E+04  0.97915061986E+03  0.31019466109E+04  0.35728843312E+04  0.65864270000E+03 0.  0.
    8880022    1    1    2    0    0 -0.13232095541E+04 -0.97915061986E+03 -0.79381720421E+03  0.18338911819E+04  0.15294330000E+03 0.  0.
<mgrwt>
<rscale>  0 0.17422344E+04</rscale>
<asrwt>0</asrwt>
<pdfrwt beam="1">  1        2 0.59345423E+00 0.17729720E+04</pdfrwt>
<pdfrwt beam="2">  1       -2 0.23835739E+00 0.17729720E+04</pdfrwt>
<totfact> 0.30807255E-02</totfact>
</mgrwt>
</event>
<event>
 4    5  0.1905771E-007  0.8394181E+03  0.7818608E-02  0.9631279E-01
         -2   -1    0    0    0  501 -0.00000000000E+00  0.00000000000E+00  0.17455079849E+04  0.17455079849E+04  0.25500000000E-02 0.  1.
          2   -1    0    0  501    0  0.00000000000E+00 -0.00000000000E+00 -0.30875467898E+03  0.30875467899E+03  0.25500000000E-02 0. -1.
    8880023    1    1    2    0    0  0.49914522508E+03 -0.14719552264E+03  0.11951495595E+04  0.14604811377E+04  0.65864270000E+03 0.  1.
    8880022    1    1    2    0    0 -0.49914522508E+03  0.14719552264E+03  0.24160374642E+03  0.59378152625E+03  0.15294330000E+03 0.  0.
<mgrwt>
<rscale>  0 0.75260106E+03</rscale>
<asrwt>0</asrwt>
<pdfrwt beam="1">  1        2 0.47500719E-01 0.83941806E+03</pdfrwt>
<pdfrwt beam="2">  1       -2 0.26853969E+00 0.83941806E+03</pdfrwt>
<totfact> 0.53709703E+00</totfact>
</mgrwt>
</event>
<event>
 4    5  0.1905771E-007  0.7043063E+03  0.7818608E-02  0.9979785E-01
          2   -1    0    0  501    0  0.00000000000E+00  0.00000000000E+00  0.63420112640E+03  0.63420112640E+03  0.25500000000E-02 0. -1.
         -2   -1    0    0    0  501 -0.00000000000E+00 -0.00000000000E+00 -0.46356266359E+03  0.46356266360E+03  0.25500000000E-02 0.  1.
    8880023    1    1    2    0    0  0.73661625559E+02 -0.23835088381E+03  0.31491630062E+03  0.77150480332E+03  0.65864270000E+03 0. -1.
    8880022    1    1    2    0    0 -0.73661625559E+02  0.23835088381E+03 -0.14427783781E+03  0.32625898668E+03  0.15294330000E+03 0.  0.
<mgrwt>
<rscale>  0 0.56545583E+03</rscale>
<asrwt>0</asrwt>
<pdfrwt beam="1">  1        2 0.97569405E-01 0.70430631E+03</pdfrwt>
<pdfrwt beam="2">  1       -2 0.71317332E-01 0.70430631E+03</pdfrwt>
<totfact> 0.83941795E+01</totfact>
</mgrwt>
</event>
<event>
 4    5  0.1905771E-007  0.7874003E+03  0.7818608E-02  0.9738732E-01
          2   -1    0    0  501    0  0.00000000000E+00  0.00000000000E+00  0.20686097026E+04  0.20686097026E+04  0.25500000000E-02 0. -1.
         -2   -1    0    0    0  501 -0.00000000000E+00 -0.00000000000E+00 -0.19379206187E+03  0.19379206189E+03  0.25500000000E-02 0.  1.
    8880023    1    1    2    0    0 -0.17771534738E+03 -0.39320007554E+03  0.13758986717E+04  0.15852748674E+04  0.65864270000E+03 0. -1.
    8880022    1    1    2    0    0  0.17771534738E+03  0.39320007554E+03  0.49891896895E+03  0.67712689704E+03  0.15294330000E+03 0. -1.
<mgrwt>
<rscale>  0 0.68756791E+03</rscale>
<asrwt>0</asrwt>
<pdfrwt beam="1">  1        2 0.31824765E+00 0.78740031E+03</pdfrwt>
<pdfrwt beam="2">  1       -2 0.29814163E-01 0.78740031E+03</pdfrwt>
<totfact> 0.65060183E+01</totfact>
</mgrwt>
</event>
<event>
 4    5  0.1905771E-007  0.7053142E+03  0.7818608E-02  0.9975831E-01
         -2   -1    0    0    0  501 -0.00000000000E+00  0.00000000000E+00  0.57099384737E+03  0.57099384737E+03  0.25500000000E-02 0.  1.
          2   -1    0    0  501    0  0.00000000000E+00 -0.00000000000E+00 -0.11126570460E+04  0.11126570460E+04  0.25500000000E-02 0. -1.
    8880023    1    1    2    0    0  0.78602796918E+02 -0.23974887565E+03 -0.94793737628E+03  0.11815470362E+04  0.65864270000E+03 0. -1.
    8880022    1    1    2    0    0 -0.78602796918E+02  0.23974887565E+03  0.40627417761E+03  0.50210385725E+03  0.15294330000E+03 0.  0.
<mgrwt>
<rscale>  0 0.56722819E+03</rscale>
<asrwt>0</asrwt>
<pdfrwt beam="1">  1        2 0.17117801E+00 0.70531421E+03</pdfrwt>
<pdfrwt beam="2">  1       -2 0.87845208E-01 0.70531421E+03</pdfrwt>
<totfact> 0.24453452E+01</totfact>
</mgrwt>
</event>
<event>
 4    5  0.1905771E-007  0.6591162E+03  0.7818608E-02  0.1025081E+00
         -2   -1    0    0    0  501 -0.00000000000E+00  0.00000000000E+00  0.61040709543E+02  0.61040709596E+02  0.25500000000E-02 0.  1.
          2   -1    0    0  501    0  0.00000000000E+00 -0.00000000000E+00 -0.35521262316E+04  0.35521262316E+04  0.25500000000E-02 0. -1.
    8880023    1    1    2    0    0  0.13625138976E+02 -0.20934477229E+02 -0.33092607704E+04  0.33742615413E+04  0.65864270000E+03 0. -1.
    8880022    1    1    2    0    0 -0.13625138976E+02  0.20934477229E+02 -0.18182475174E+03  0.23890539992E+03  0.15294330000E+03 0.  0.
<mgrwt>
<rscale>  0 0.45896866E+03</rscale>
<asrwt>0</asrwt>
<pdfrwt beam="1">  1        2 0.54648080E+00 0.65911615E+03</pdfrwt>
<pdfrwt beam="2">  1       -2 0.93908812E-02 0.65911615E+03</pdfrwt>
<totfact> 0.62130931E+01</totfact>
</mgrwt>
</event>
<event>
 4    5  0.1905771E-007  0.1879242E+04  0.7818608E-02  0.8679924E-01
         -2   -1    0    0    0  501 -0.00000000000E+00  0.00000000000E+00  0.10618827418E+04  0.10618827418E+04  0.25500000000E-02 0.  1.
          2   -1    0    0  501    0  0.00000000000E+00 -0.00000000000E+00 -0.32464968114E+04  0.32464968114E+04  0.25500000000E-02 0. -1.
    8880023    1    1    2    0    0 -0.17486522510E+04  0.19988777280E+03 -0.71607921514E+03  0.20110493443E+04  0.65864270000E+03 0.  0.
    8880022    1    1    2    0    0  0.17486522510E+04 -0.19988777280E+03 -0.14685348545E+04  0.22973302089E+04  0.15294330000E+03 0.  0.
<mgrwt>
<rscale>  0 0.18504443E+04</rscale>
<asrwt>0</asrwt>
<pdfrwt beam="1">  1        2 0.49946104E+00 0.18792419E+04</pdfrwt>
<pdfrwt beam="2">  1       -2 0.16336658E+00 0.18792419E+04</pdfrwt>
<totfact> 0.26174684E-01</totfact>
</mgrwt>
</event>
<event>
 4    5  0.1905771E-007  0.6985993E+03  0.7818608E-02  0.1000306E+00
          2   -1    0    0  501    0  0.00000000000E+00  0.00000000000E+00  0.19606319375E+04  0.19606319375E+04  0.25500000000E-02 0. -1.
         -2   -1    0    0    0  501 -0.00000000000E+00 -0.00000000000E+00 -0.22908394022E+03  0.22908394023E+03  0.25500000000E-02 0.  1.
    8880023    1    1    2    0    0  0.91423540378E+01  0.23269544786E+03  0.17751945560E+04  0.19077097977E+04  0.65864270000E+03 0.  0.
    8880022    1    1    2    0    0 -0.91423540378E+01 -0.23269544786E+03 -0.43646558741E+02  0.28200608007E+03  0.15294330000E+03 0.  0.
<mgrwt>
<rscale>  0 0.55516169E+03</rscale>
<asrwt>0</asrwt>
<pdfrwt beam="1">  1        2 0.30163569E+00 0.69859928E+03</pdfrwt>
<pdfrwt beam="2">  1       -2 0.35243683E-01 0.69859928E+03</pdfrwt>
<totfact> 0.54981347E+01</totfact>
</mgrwt>
</event>
<event>
 4    5  0.1905771E-007  0.1949038E+04  0.7818608E-02  0.8644287E-01
          2   -1    0    0  501    0  0.00000000000E+00  0.00000000000E+00  0.34208951274E+04  0.34208951274E+04  0.25500000000E-02 0. -1.
         -2   -1    0    0    0  501 -0.00000000000E+00 -0.00000000000E+00 -0.18538649486E+04  0.18538649486E+04  0.25500000000E-02 0.  1.
    8880023    1    1    2    0    0  0.16221253109E+04 -0.85653169863E+03 -0.94052968274E+03  0.21641033629E+04  0.65864270000E+03 0.  0.
    8880022    1    1    2    0    0 -0.16221253109E+04  0.85653169863E+03  0.25075598615E+04  0.31106567131E+04  0.15294330000E+03 0.  0.
<mgrwt>
<rscale>  0 0.19213803E+04</rscale>
<asrwt>0</asrwt>
<pdfrwt beam="1">  1        2 0.52629155E+00 0.19490375E+04</pdfrwt>
<pdfrwt beam="2">  1       -2 0.28520999E+00 0.19490375E+04</pdfrwt>
<totfact> 0.32157137E-02</totfact>
</mgrwt>
</event>
<event>
 4    5  0.1905771E-007  0.1432407E+04  0.7818608E-02  0.8958902E-01
          2   -1    0    0  501    0  0.00000000000E+00  0.00000000000E+00  0.15985532405E+04  0.15985532405E+04  0.25500000000E-02 0. -1.
         -2   -1    0    0    0  501 -0.00000000000E+00 -0.00000000000E+00 -0.22435143304E+04  0.22435143304E+04  0.25500000000E-02 0.  1.
    8880023    1    1    2    0    0  0.32244066439E+03 -0.12304522214E+04 -0.16708349173E+04  0.22007908075E+04  0.65864270000E+03 0.  0.
    8880022    1    1    2    0    0 -0.32244066439E+03  0.12304522214E+04  0.10258738274E+04  0.16412767634E+04  0.15294330000E+03 0.  0.
<mgrwt>
<rscale>  0 0.13929990E+04</rscale>
<asrwt>0</asrwt>
<pdfrwt beam="1">  1        2 0.24593127E+00 0.14324074E+04</pdfrwt>
<pdfrwt beam="2">  1       -2 0.34515605E+00 0.14324074E+04</pdfrwt>
<totfact> 0.17697552E-01</totfact>
</mgrwt>
</event>
<event>
 4    5  0.1905771E-007  0.8194972E+03  0.7818608E-02  0.9670124E-01
          2   -1    0    0  501    0  0.00000000000E+00  0.00000000000E+00  0.26418940631E+04  0.26418940631E+04  0.25500000000E-02 0. -1.
         -2   -1    0    0    0  501 -0.00000000000E+00 -0.00000000000E+00 -0.31132393415E+03  0.31132393416E+03  0.25500000000E-02 0.  1.
    8880023    1    1    2    0    0  0.37954402132E+03  0.30612390558E+03  0.22995863973E+04  0.24412442145E+04  0.65864270000E+03 0. -1.
    8880022    1    1    2    0    0 -0.37954402132E+03 -0.30612390558E+03  0.30983731702E+02  0.51197378286E+03  0.15294330000E+03 0.  0.
<mgrwt>
<rscale>  0 0.72823804E+03</rscale>
<asrwt>0</asrwt>
<pdfrwt beam="1">  1        2 0.40644524E+00 0.81949723E+03</pdfrwt>
<pdfrwt beam="2">  1       -2 0.47895990E-01 0.81949723E+03</pdfrwt>
<totfact> 0.12352139E+01</totfact>
</mgrwt>
</event>
<event>
 4    5  0.1905771E-007  0.8984389E+03  0.7818608E-02  0.9528542E-01
         -2   -1    0    0    0  501 -0.00000000000E+00  0.00000000000E+00  0.46014438463E+03  0.46014438464E+03  0.25500000000E-02 0.  1.
          2   -1    0    0  501    0  0.00000000000E+00 -0.00000000000E+00 -0.18734959011E+04  0.18734959011E+04  0.25500000000E-02 0. -1.
    8880023    1    1    2    0    0 -0.58312854471E+03  0.18260168481E+03 -0.14465674415E+04  0.17028651867E+04  0.65864270000E+03 0. -1.
    8880022    1    1    2    0    0  0.58312854471E+03 -0.18260168481E+03  0.33215924989E+02  0.63077509910E+03  0.15294330000E+03 0.  0.
<mgrwt>
<rscale>  0 0.82211828E+03</rscale>
<asrwt>0</asrwt>
<pdfrwt beam="1">  1        2 0.28823013E+00 0.89843891E+03</pdfrwt>
<pdfrwt beam="2">  1       -2 0.70791445E-01 0.89843891E+03</pdfrwt>
<totfact> 0.14425881E+01</totfact>
</mgrwt>
</event>
<event>
 4    5  0.1905771E-007  0.1241514E+04  0.7818608E-02  0.9117788E-01
         -2   -1    0    0    0  501 -0.00000000000E+00  0.00000000000E+00  0.67395456288E+03  0.67395456289E+03  0.25500000000E-02 0.  1.
          2   -1    0    0  501    0  0.00000000000E+00 -0.00000000000E+00 -0.19897839918E+04  0.19897839918E+04  0.25500000000E-02 0. -1.
    8880023    1    1    2    0    0  0.47309010418E+03  0.94007020797E+03 -0.83800456777E+03  0.14978678528E+04  0.65864270000E+03 0.  0.
    8880022    1    1    2    0    0 -0.47309010418E+03 -0.94007020797E+03 -0.47782486116E+03  0.11658707019E+04  0.15294330000E+03 0.  0.
<mgrwt>
<rscale>  0 0.11943827E+04</rscale>
<asrwt>0</asrwt>
<pdfrwt beam="1">  1        2 0.30612061E+00 0.12415138E+04</pdfrwt>
<pdfrwt beam="2">  1       -2 0.10368532E+00 0.12415138E+04</pdfrwt>
<totfact> 0.49972180E+00</totfact>
</mgrwt>
</event>
<event>
 4    5  0.1905771E-007  0.7832875E+03  0.7818608E-02  0.9748170E-01
         -2   -1    0    0    0  501 -0.00000000000E+00  0.00000000000E+00  0.30520830933E+03  0.30520830934E+03  0.25500000000E-02 0.  1.
          2   -1    0    0  501    0  0.00000000000E+00 -0.00000000000E+00 -0.41446413789E+04  0.41446413789E+04  0.25500000000E-02 0. -1.
    8880023    1    1    2    0    0  0.22933338612E+03 -0.35656036592E+03 -0.39152448019E+04  0.39928287168E+04  0.65864270000E+03 0. -1.
    8880022    1    1    2    0    0 -0.22933338612E+03  0.35656036592E+03  0.75811732359E+02  0.45702097142E+03  0.15294330000E+03 0.  0.
<mgrwt>
<rscale>  0 0.68219759E+03</rscale>
<asrwt>0</asrwt>
<pdfrwt beam="1">  1        2 0.63763709E+00 0.78328750E+03</pdfrwt>
<pdfrwt beam="2">  1       -2 0.46955128E-01 0.78328750E+03</pdfrwt>
<totfact> 0.12381712E+00</totfact>
</mgrwt>
</event>
<event>
 4    5  0.1973276E-007  0.1286091E+04  0.7818608E-02  0.9077665E-01
         -2   -1    0    0    0  501 -0.00000000000E+00  0.00000000000E+00  0.17973483524E+04  0.17973483524E+04  0.25500000000E-02 0.  1.
          2   -1    0    0  501    0  0.00000000000E+00 -0.00000000000E+00 -0.19949380921E+04  0.19949380921E+04  0.25500000000E-02 0. -1.
    8880023    1    1    2    0    0  0.15373024754E+03 -0.10938865195E+04 -0.15663873751E+04  0.20267215699E+04  0.65864270000E+03 0.  0.
    8880022    1    1    2    0    0 -0.15373024754E+03  0.10938865195E+04  0.13687976355E+04  0.17655648746E+04  0.15294330000E+03 0.  0.
<mgrwt>
<rscale>  0 0.12410506E+04</rscale>
<asrwt>0</asrwt>
<pdfrwt beam="1">  1        2 0.30691355E+00 0.12860913E+04</pdfrwt>
<pdfrwt beam="2">  1       -2 0.27651513E+00 0.12860913E+04</pdfrwt>
<totfact> 0.28640953E-01</totfact>
</mgrwt>
</event>
<event>
 4    5  0.1905771E-007  0.9199450E+03  0.7818608E-02  0.9494743E-01
         -2   -1    0    0    0  501 -0.00000000000E+00  0.00000000000E+00  0.31464939769E+03  0.31464939770E+03  0.25500000000E-02 0.  1.
          2   -1    0    0  501    0  0.00000000000E+00 -0.00000000000E+00 -0.23654020164E+04  0.23654020164E+04  0.25500000000E-02 0. -1.
    8880023    1    1    2    0    0 -0.39110549949E+03 -0.50943599578E+03 -0.16987778373E+04  0.19318760033E+04  0.65864270000E+03 0.  0.
    8880022    1    1    2    0    0  0.39110549949E+03  0.50943599578E+03 -0.35197478144E+03  0.74817541079E+03  0.15294330000E+03 0.  0.
<mgrwt>
<rscale>  0 0.84672480E+03</rscale>
<asrwt>0</asrwt>
<pdfrwt beam="1">  1        2 0.36390799E+00 0.91994497E+03</pdfrwt>
<pdfrwt beam="2">  1       -2 0.48407601E-01 0.91994497E+03</pdfrwt>
<totfact> 0.17142530E+01</totfact>
</mgrwt>
</event>
<event>
 4    5  0.1905771E-007  0.1671077E+04  0.7818608E-02  0.8797418E-01
         -2   -1    0    0    0  501 -0.00000000000E+00  0.00000000000E+00  0.91119608068E+03  0.91119608069E+03  0.25500000000E-02 0.  1.
          2   -1    0    0  501    0  0.00000000000E+00 -0.00000000000E+00 -0.33823590067E+04  0.33823590067E+04  0.25500000000E-02 0. -1.
    8880023    1    1    2    0    0 -0.60203280190E+03  0.14128857415E+04 -0.21397685256E+04  0.27149786671E+04  0.65864270000E+03 0.  0.
    8880022    1    1    2    0    0  0.60203280190E+03 -0.14128857415E+04 -0.33139440039E+03  0.15785764203E+04  0.15294330000E+03 0.  0.
<mgrwt>
<rscale>  0 0.16382003E+04</rscale>
<asrwt>0</asrwt>
<pdfrwt beam="1">  1        2 0.52036292E+00 0.16710774E+04</pdfrwt>
<pdfrwt beam="2">  1       -2 0.14018401E+00 0.16710774E+04</pdfrwt>
<totfact> 0.32791847E-01</totfact>
</mgrwt>
</event>
<event>
 4    5  0.1905771E-007  0.7906250E+03  0.7818608E-02  0.9731446E-01
         -2   -1    0    0    0  501 -0.00000000000E+00  0.00000000000E+00  0.18421857143E+03  0.18421857145E+03  0.25500000000E-02 0.  1.
          2   -1    0    0  501    0  0.00000000000E+00 -0.00000000000E+00 -0.23179135356E+04  0.23179135356E+04  0.25500000000E-02 0. -1.
    8880023    1    1    2    0    0 -0.14107930126E+03  0.41397385700E+03 -0.16644995171E+04  0.18427280245E+04  0.65864270000E+03 0. -1.
    8880022    1    1    2    0    0  0.14107930126E+03 -0.41397385700E+03 -0.46919544701E+03  0.65940408251E+03  0.15294330000E+03 0.  1.
<mgrwt>
<rscale>  0 0.69175002E+03</rscale>
<asrwt>0</asrwt>
<pdfrwt beam="1">  1        2 0.35660206E+00 0.79062502E+03</pdfrwt>
<pdfrwt beam="2">  1       -2 0.28341320E-01 0.79062502E+03</pdfrwt>
<totfact> 0.52020846E+01</totfact>
</mgrwt>
</event>
<event>
 4    5  0.1905771E-007  0.7497478E+03  0.7818608E-02  0.9832411E-01
          2   -1    0    0  501    0  0.00000000000E+00  0.00000000000E+00  0.55779028831E+03  0.55779028832E+03  0.25500000000E-02 0. -1.
         -2   -1    0    0    0  501 -0.00000000000E+00 -0.00000000000E+00 -0.20730747119E+04  0.20730747120E+04  0.25500000000E-02 0.  1.
    8880023    1    1    2    0    0 -0.25404857351E+02  0.35730408760E+03  0.27508428523E+03  0.79861955150E+03  0.65864270000E+03 0. -1.
    8880022    1    1    2    0    0  0.25404857351E+02 -0.35730408760E+03 -0.17903687089E+04  0.18322454488E+04  0.15294330000E+03 0.  0.
<mgrwt>
<rscale>  0 0.63651814E+03</rscale>
<asrwt>0</asrwt>
<pdfrwt beam="1">  1        2 0.85813892E-01 0.74974784E+03</pdfrwt>
<pdfrwt beam="2">  1       -2 0.31893457E+00 0.74974784E+03</pdfrwt>
<totfact> 0.13777799E+00</totfact>
</mgrwt>
</event>
<event>
 4    5  0.1905771E-007  0.9987848E+03  0.7818608E-02  0.9383149E-01
          2   -1    0    0  501    0  0.00000000000E+00  0.00000000000E+00  0.29745829724E+04  0.29745829724E+04  0.25500000000E-02 0. -1.
         -2   -1    0    0    0  501 -0.00000000000E+00 -0.00000000000E+00 -0.57448090118E+03  0.57448090118E+03  0.25500000000E-02 0.  1.
    8880023    1    1    2    0    0  0.41621334636E+03 -0.62492182041E+03  0.25760207503E+04  0.27628705984E+04  0.65864270000E+03 0. -1.
    8880022    1    1    2    0    0 -0.41621334636E+03  0.62492182041E+03 -0.17591867905E+03  0.78619327520E+03  0.15294330000E+03 0.  0.
<mgrwt>
<rscale>  0 0.93475501E+03</rscale>
<asrwt>0</asrwt>
<pdfrwt beam="1">  1        2 0.45762814E+00 0.99878478E+03</pdfrwt>
<pdfrwt beam="2">  1       -2 0.88381679E-01 0.99878478E+03</pdfrwt>
<totfact> 0.20302096E+00</totfact>
</mgrwt>
</event>
<event>
 4    5  0.1905771E-007  0.6682995E+03  0.7818608E-02  0.1016912E+00
         -2   -1    0    0    0  501 -0.00000000000E+00  0.00000000000E+00  0.85982417925E+03  0.85982417925E+03  0.25500000000E-02 0.  1.
          2   -1    0    0  501    0  0.00000000000E+00 -0.00000000000E+00 -0.77127717513E+03  0.77127717514E+03  0.25500000000E-02 0. -1.
    8880023    1    1    2    0    0 -0.29287573838E+02 -0.10934495786E+03 -0.61138405023E+03  0.90576748944E+03  0.65864270000E+03 0. -1.
    8880022    1    1    2    0    0  0.29287573838E+02  0.10934495786E+03  0.69993105434E+03  0.72533386495E+03  0.15294330000E+03 0.  0.
<mgrwt>
<rscale>  0 0.48817501E+03</rscale>
<asrwt>0</asrwt>
<pdfrwt beam="1">  1        2 0.11865803E+00 0.66829955E+03</pdfrwt>
<pdfrwt beam="2">  1       -2 0.13228064E+00 0.66829955E+03</pdfrwt>
<totfact> 0.15382331E+01</totfact>
</mgrwt>
</event>
<event>
 4    5  0.1905771E-007  0.1047795E+04  0.7818608E-02  0.9321537E-01
          2   -1    0    0  501    0  0.00000000000E+00  0.00000000000E+00  0.85083448565E+03  0.85083448565E+03  0.25500000000E-02 0. -1.
         -2   -1    0    0    0  501 -0.00000000000E+00 -0.00000000000E+00 -0.32956319266E+04  0.32956319266E+04  0.25500000000E-02 0.  1.
    8880023    1    1    2    0    0  0.64650780942E+03  0.49607593397E+03  0.44625700829E+03  0.11388675092E+04  0.65864270000E+03 0.  0.
    8880022    1    1    2    0    0 -0.64650780942E+03 -0.49607593397E+03 -0.28910544493E+04  0.30075989030E+04  0.15294330000E+03 0.  0.
<mgrwt>
<rscale>  0 0.98824069E+03</rscale>
<asrwt>0</asrwt>
<pdfrwt beam="1">  1        2 0.13089761E+00 0.10477948E+04</pdfrwt>
<pdfrwt beam="2">  1       -2 0.50702029E+00 0.10477948E+04</pdfrwt>
<totfact> 0.47336198E-02</totfact>
</mgrwt>
</event>
<event>
 4    5  0.1905771E-007  0.6878439E+03  0.7818608E-02  0.1005195E+00
         -2   -1    0    0    0  501 -0.00000000000E+00  0.00000000000E+00  0.11391965676E+03  0.11391965679E+03  0.25500000000E-02 0.  1.
          2   -1    0    0  501    0  0.00000000000E+00 -0.00000000000E+00 -0.37810779572E+04  0.37810779572E+04  0.25500000000E-02 0. -1.
    8880023    1    1    2    0    0  0.10824499476E+03  0.16613879842E+03 -0.35544305791E+04  0.36203737414E+04  0.65864270000E+03 0. -1.
    8880022    1    1    2    0    0 -0.10824499476E+03 -0.16613879842E+03 -0.11272772131E+03  0.27462387259E+03  0.15294330000E+03 0.  0.
<mgrwt>
<rscale>  0 0.53430000E+03</rscale>
<asrwt>0</asrwt>
<pdfrwt beam="1">  1        2 0.58170421E+00 0.68784394E+03</pdfrwt>
<pdfrwt beam="2">  1       -2 0.17526104E-01 0.68784394E+03</pdfrwt>
<totfact> 0.15040735E+01</totfact>
</mgrwt>
</event>
<event>
 4    5  0.1905771E-007  0.6777436E+03  0.7818608E-02  0.1010630E+00
          2   -1    0    0  501    0  0.00000000000E+00  0.00000000000E+00  0.14671266499E+04  0.14671266499E+04  0.25500000000E-02 0. -1.
         -2   -1    0    0    0  501 -0.00000000000E+00 -0.00000000000E+00 -0.42349606959E+03  0.42349606960E+03  0.25500000000E-02 0.  1.
    8880023    1    1    2    0    0 -0.64788251894E+02 -0.14604353006E+03  0.13512815820E+04  0.15117203281E+04  0.65864270000E+03 0. -1.
    8880022    1    1    2    0    0  0.64788251894E+02  0.14604353006E+03 -0.30765100177E+03  0.37890239133E+03  0.15294330000E+03 0.  0.
<mgrwt>
<rscale>  0 0.51225068E+03</rscale>
<asrwt>0</asrwt>
<pdfrwt beam="1">  1        2 0.22571179E+00 0.67774364E+03</pdfrwt>
<pdfrwt beam="2">  1       -2 0.65153242E-01 0.67774364E+03</pdfrwt>
<totfact> 0.29691340E+01</totfact>
</mgrwt>
</event>
<event>
 4    5  0.1905771E-007  0.6865542E+03  0.7818608E-02  0.1005835E+00
         -2   -1    0    0    0  501 -0.00000000000E+00  0.00000000000E+00  0.26273632503E+03  0.26273632504E+03  0.25500000000E-02 0.  1.
          2   -1    0    0  501    0  0.00000000000E+00 -0.00000000000E+00 -0.22909017703E+04  0.22909017703E+04  0.25500000000E-02 0. -1.
    8880023    1    1    2    0    0 -0.52228474136E+02  0.18659762421E+03 -0.21650992118E+04  0.22713457002E+04  0.65864270000E+03 0. -1.
    8880022    1    1    2    0    0  0.52228474136E+02 -0.18659762421E+03  0.13693376656E+03  0.28229239506E+03  0.15294330000E+03 0.  0.
<mgrwt>
<rscale>  0 0.53163955E+03</rscale>
<asrwt>0</asrwt>
<pdfrwt beam="1">  1        2 0.35244641E+00 0.68655422E+03</pdfrwt>
<pdfrwt beam="2">  1       -2 0.40420975E-01 0.68655422E+03</pdfrwt>
<totfact> 0.27880062E+01</totfact>
</mgrwt>
</event>
<event>
 4    5  0.1905771E-007  0.7011640E+03  0.7818608E-02  0.9992406E-01
          2   -1    0    0  501    0  0.00000000000E+00  0.00000000000E+00  0.16926501191E+04  0.16926501191E+04  0.25500000000E-02 0. -1.
         -2   -1    0    0    0  501 -0.00000000000E+00 -0.00000000000E+00 -0.23056981143E+03  0.23056981145E+03  0.25500000000E-02 0.  1.
    8880023    1    1    2    0    0  0.33628091252E+02 -0.23809649536E+03  0.14799879588E+04  0.16376798692E+04  0.65864270000E+03 0. -1.
    8880022    1    1    2    0    0 -0.33628091252E+02  0.23809649536E+03 -0.17907651147E+02  0.28554006130E+03  0.15294330000E+03 0.  0.
<mgrwt>
<rscale>  0 0.55984466E+03</rscale>
<asrwt>0</asrwt>
<pdfrwt beam="1">  1        2 0.26040771E+00 0.70116403E+03</pdfrwt>
<pdfrwt beam="2">  1       -2 0.35472279E-01 0.70116403E+03</pdfrwt>
<totfact> 0.75962084E+01</totfact>
</mgrwt>
</event>
<event>
 4    5  0.1905771E-007  0.7116625E+03  0.7818608E-02  0.9951878E-01
          2   -1    0    0  501    0  0.00000000000E+00  0.00000000000E+00  0.20333574047E+04  0.20333574047E+04  0.25500000000E-02 0. -1.
         -2   -1    0    0    0  501 -0.00000000000E+00 -0.00000000000E+00 -0.34063748625E+03  0.34063748626E+03  0.25500000000E-02 0.  1.
    8880023    1    1    2    0    0 -0.26932941773E+03  0.10724013767E+02  0.18811705900E+04  0.20112847472E+04  0.65864270000E+03 0. -1.
    8880022    1    1    2    0    0  0.26932941773E+03 -0.10724013767E+02 -0.18845067153E+03  0.36271014369E+03  0.15294330000E+03 0.  0.
<mgrwt>
<rscale>  0 0.57811590E+03</rscale>
<asrwt>0</asrwt>
<pdfrwt beam="1">  1        2 0.31282422E+00 0.71166252E+03</pdfrwt>
<pdfrwt beam="2">  1       -2 0.52405766E-01 0.71166252E+03</pdfrwt>
<totfact> 0.22874664E+01</totfact>
</mgrwt>
</event>
<event>
 4    5  0.1905771E-007  0.8122616E+03  0.7818608E-02  0.9684885E-01
          2   -1    0    0  501    0  0.00000000000E+00  0.00000000000E+00  0.13138248416E+04  0.13138248416E+04  0.25500000000E-02 0. -1.
         -2   -1    0    0    0  501 -0.00000000000E+00 -0.00000000000E+00 -0.71290368589E+03  0.71290368589E+03  0.25500000000E-02 0.  1.
    8880023    1    1    2    0    0 -0.47305202619E+03  0.46694984226E+02  0.10688057927E+04  0.13424286461E+04  0.65864270000E+03 0. -1.
    8880022    1    1    2    0    0  0.47305202619E+03 -0.46694984226E+02 -0.46788463705E+03  0.68429988136E+03  0.15294330000E+03 0.  0.
<mgrwt>
<rscale>  0 0.71923889E+03</rscale>
<asrwt>0</asrwt>
<pdfrwt beam="1">  1        2 0.20212690E+00 0.81226156E+03</pdfrwt>
<pdfrwt beam="2">  1       -2 0.10967749E+00 0.81226156E+03</pdfrwt>
<totfact> 0.10884470E+01</totfact>
</mgrwt>
</event>
<event>
 4    5  0.1905771E-007  0.9052474E+03  0.7818608E-02  0.9517660E-01
         -2   -1    0    0    0  501 -0.00000000000E+00  0.00000000000E+00  0.59575531538E+03  0.59575531538E+03  0.25500000000E-02 0.  1.
          2   -1    0    0  501    0  0.00000000000E+00 -0.00000000000E+00 -0.18884565856E+04  0.18884565857E+04  0.25500000000E-02 0. -1.
    8880023    1    1    2    0    0 -0.31796028458E+03  0.53344531866E+03 -0.15498686854E+04  0.17948720843E+04  0.65864270000E+03 0. -1.
    8880022    1    1    2    0    0  0.31796028458E+03 -0.53344531866E+03  0.25716741514E+03  0.68933981678E+03  0.15294330000E+03 0.  0.
<mgrwt>
<rscale>  0 0.82994265E+03</rscale>
<asrwt>0</asrwt>
<pdfrwt beam="1">  1        2 0.29053178E+00 0.90524740E+03</pdfrwt>
<pdfrwt beam="2">  1       -2 0.91654665E-01 0.90524740E+03</pdfrwt>
<totfact> 0.78944922E+00</totfact>
</mgrwt>
</event>
<event>
 4    5  0.1905771E-007  0.8361810E+03  0.7818608E-02  0.9637424E-01
          2   -1    0    0  501    0  0.00000000000E+00  0.00000000000E+00  0.10814281203E+04  0.10814281203E+04  0.25500000000E-02 0. -1.
         -2   -1    0    0    0  501 -0.00000000000E+00 -0.00000000000E+00 -0.55265686892E+03  0.55265686892E+03  0.25500000000E-02 0.  1.
    8880023    1    1    2    0    0  0.40654783992E+03  0.31639739458E+03  0.67783604176E+03  0.10764108710E+04  0.65864270000E+03 0.  0.
    8880022    1    1    2    0    0 -0.40654783992E+03 -0.31639739458E+03 -0.14906479034E+03  0.55767411826E+03  0.15294330000E+03 0.  0.
<mgrwt>
<rscale>  0 0.74867983E+03</rscale>
<asrwt>0</asrwt>
<pdfrwt beam="1">  1        2 0.16637356E+00 0.83618100E+03</pdfrwt>
<pdfrwt beam="2">  1       -2 0.85024134E-01 0.83618100E+03</pdfrwt>
<totfact> 0.27176042E+01</totfact>
</mgrwt>
</event>
<event>
 4    5  0.1905771E-007  0.9916108E+03  0.7818608E-02  0.9392616E-01
          2   -1    0    0  501    0  0.00000000000E+00  0.00000000000E+00  0.33560482187E+04  0.33560482187E+04  0.25500000000E-02 0. -1.
         -2   -1    0    0    0  501 -0.00000000000E+00 -0.00000000000E+00 -0.35087356573E+03  0.35087356574E+03  0.25500000000E-02 0.  1.
    8880023    1    1    2    0    0  0.74126142671E+03  0.36488761297E+01  0.27250552411E+04  0.28998651848E+04  0.65864270000E+03 0.  0.
    8880022    1    1    2    0    0 -0.74126142671E+03 -0.36488761297E+01  0.28011941188E+03  0.80705659960E+03  0.15294330000E+03 0.  0.
<mgrwt>
<rscale>  0 0.92685817E+03</rscale>
<asrwt>0</asrwt>
<pdfrwt beam="1">  1        2 0.51631512E+00 0.99161082E+03</pdfrwt>
<pdfrwt beam="2">  1       -2 0.53980547E-01 0.99161082E+03</pdfrwt>
<totfact> 0.34134266E+00</totfact>
</mgrwt>
</event>
<event>
 4    5  0.1905771E-007  0.7357230E+03  0.7818608E-02  0.9872585E-01
         -2   -1    0    0    0  501 -0.00000000000E+00  0.00000000000E+00  0.24921684747E+03  0.24921684749E+03  0.25500000000E-02 0.  1.
          2   -1    0    0  501    0  0.00000000000E+00 -0.00000000000E+00 -0.12722059102E+04  0.12722059102E+04  0.25500000000E-02 0. -1.
    8880023    1    1    2    0    0 -0.18944266951E+03  0.26756228982E+03 -0.83790339458E+03  0.11150652039E+04  0.65864270000E+03 0.  0.
    8880022    1    1    2    0    0  0.18944266951E+03 -0.26756228982E+03 -0.18508566811E+03  0.40635755379E+03  0.15294330000E+03 0.  0.
<mgrwt>
<rscale>  0 0.61608503E+03</rscale>
<asrwt>0</asrwt>
<pdfrwt beam="1">  1        2 0.19572398E+00 0.73572298E+03</pdfrwt>
<pdfrwt beam="2">  1       -2 0.38341054E-01 0.73572298E+03</pdfrwt>
<totfact> 0.11206407E+02</totfact>
</mgrwt>
</event>
<event>
 4    5  0.1905771E-007  0.6937666E+03  0.7818608E-02  0.1002411E+00
          2   -1    0    0  501    0  0.00000000000E+00  0.00000000000E+00  0.11408135686E+04  0.11408135686E+04  0.25500000000E-02 0. -1.
         -2   -1    0    0    0  501 -0.00000000000E+00 -0.00000000000E+00 -0.19826263917E+04  0.19826263917E+04  0.25500000000E-02 0.  1.
    8880023    1    1    2    0    0 -0.19239682089E+03  0.10239798589E+03  0.10250112295E+04  0.12377237620E+04  0.65864270000E+03 0. -1.
    8880022    1    1    2    0    0  0.19239682089E+03 -0.10239798589E+03 -0.18668240526E+04  0.18857161983E+04  0.15294330000E+03 0.  0.
<mgrwt>
<rscale>  0 0.54605435E+03</rscale>
<asrwt>0</asrwt>
<pdfrwt beam="1">  1        2 0.17550978E+00 0.69376660E+03</pdfrwt>
<pdfrwt beam="2">  1       -2 0.30501944E+00 0.69376660E+03</pdfrwt>
<totfact> 0.64695243E-01</totfact>
</mgrwt>
</event>
<event>
 4    5  0.1905771E-007  0.1295575E+04  0.7818608E-02  0.9069391E-01
         -2   -1    0    0    0  501 -0.00000000000E+00  0.00000000000E+00  0.82763200720E+03  0.82763200721E+03  0.25500000000E-02 0.  1.
          2   -1    0    0  501    0  0.00000000000E+00 -0.00000000000E+00 -0.21582335516E+04  0.21582335516E+04  0.25500000000E-02 0. -1.
    8880023    1    1    2    0    0 -0.24870136740E+03  0.10875899929E+04 -0.13342413810E+04  0.18597619826E+04  0.65864270000E+03 0.  0.
    8880022    1    1    2    0    0  0.24870136740E+03 -0.10875899929E+04  0.36398366355E+01  0.11261035762E+04  0.15294330000E+03 0.  0.
<mgrwt>
<rscale>  0 0.12509528E+04</rscale>
<asrwt>0</asrwt>
<pdfrwt beam="1">  1        2 0.33203593E+00 0.12955750E+04</pdfrwt>
<pdfrwt beam="2">  1       -2 0.12732800E+00 0.12955750E+04</pdfrwt>
<totfact> 0.24114774E+00</totfact>
</mgrwt>
</event>
<event>
 4    5  0.1905771E-007  0.8898583E+03  0.7818608E-02  0.9542512E-01
         -2   -1    0    0    0  501 -0.00000000000E+00  0.00000000000E+00  0.67565346357E+03  0.67565346357E+03  0.25500000000E-02 0.  1.
          2   -1    0    0  501    0  0.00000000000E+00 -0.00000000000E+00 -0.16339619065E+04  0.16339619065E+04  0.25500000000E-02 0. -1.
    8880023    1    1    2    0    0  0.80116315047E+02  0.59297467722E+03 -0.13214727886E+04  0.15931535171E+04  0.65864270000E+03 0. -1.
    8880022    1    1    2    0    0 -0.80116315047E+02 -0.59297467722E+03  0.36316434568E+03  0.71646185296E+03  0.15294330000E+03 0.  0.
<mgrwt>
<rscale>  0 0.81220824E+03</rscale>
<asrwt>0</asrwt>
<pdfrwt beam="1">  1        2 0.25137875E+00 0.88985830E+03</pdfrwt>
<pdfrwt beam="2">  1       -2 0.10394669E+00 0.88985830E+03</pdfrwt>
<totfact> 0.81089129E+00</totfact>
</mgrwt>
</event>
<event>
 4    5  0.1905771E-007  0.9672802E+03  0.7818608E-02  0.9425676E-01
          2   -1    0    0  501    0  0.00000000000E+00  0.00000000000E+00  0.21070521276E+04  0.21070521276E+04  0.25500000000E-02 0. -1.
         -2   -1    0    0    0  501 -0.00000000000E+00 -0.00000000000E+00 -0.96711695598E+03  0.96711695599E+03  0.25500000000E-02 0.  1.
    8880023    1    1    2    0    0 -0.55339796770E+03  0.44223454469E+03  0.18322596536E+04  0.20719088656E+04  0.65864270000E+03 0. -1.
    8880022    1    1    2    0    0  0.55339796770E+03 -0.44223454469E+03 -0.69232448194E+03  0.10022602180E+04  0.15294330000E+03 0.  0.
<mgrwt>
<rscale>  0 0.89992450E+03</rscale>
<asrwt>0</asrwt>
<pdfrwt beam="1">  1        2 0.32416186E+00 0.96728016E+03</pdfrwt>
<pdfrwt beam="2">  1       -2 0.14878723E+00 0.96728016E+03</pdfrwt>
<totfact> 0.17895565E+00</totfact>
</mgrwt>
</event>
<event>
 4    5  0.1905771E-007  0.7293217E+03  0.7818608E-02  0.9892221E-01
         -2   -1    0    0    0  501 -0.00000000000E+00  0.00000000000E+00  0.11597318460E+04  0.11597318460E+04  0.25500000000E-02 0.  1.
          2   -1    0    0  501    0  0.00000000000E+00 -0.00000000000E+00 -0.16253289048E+04  0.16253289048E+04  0.25500000000E-02 0. -1.
    8880023    1    1    2    0    0  0.20237520911E+03  0.23904842637E+03 -0.15138525117E+04  0.16803748121E+04  0.65864270000E+03 0. -1.
    8880022    1    1    2    0    0 -0.20237520911E+03 -0.23904842637E+03  0.10482554530E+04  0.11046859387E+04  0.15294330000E+03 0.  0.
<mgrwt>
<rscale>  0 0.60639775E+03</rscale>
<asrwt>0</asrwt>
<pdfrwt beam="1">  1        2 0.25005060E+00 0.72932166E+03</pdfrwt>
<pdfrwt beam="2">  1       -2 0.17842028E+00 0.72932166E+03</pdfrwt>
<totfact> 0.20789148E+00</totfact>
</mgrwt>
</event>
<event>
 4    5  0.1905771E-007  0.1329450E+04  0.7818608E-02  0.9040537E-01
         -2   -1    0    0    0  501 -0.00000000000E+00  0.00000000000E+00  0.20730000220E+04  0.20730000220E+04  0.25500000000E-02 0.  1.
          2   -1    0    0  501    0  0.00000000000E+00 -0.00000000000E+00 -0.11574664664E+04  0.11574664664E+04  0.25500000000E-02 0. -1.
    8880023    1    1    2    0    0  0.96828805327E+03 -0.62932057322E+03  0.14339438642E+04  0.19554107880E+04  0.65864270000E+03 0.  1.
    8880022    1    1    2    0    0 -0.96828805327E+03  0.62932057322E+03 -0.51841030860E+03  0.12750557004E+04  0.15294330000E+03 0.  0.
<mgrwt>
<rscale>  0 0.12862551E+04</rscale>
<asrwt>0</asrwt>
<pdfrwt beam="1">  1        2 0.17807177E+00 0.13294496E+04</pdfrwt>
<pdfrwt beam="2">  1       -2 0.31892308E+00 0.13294496E+04</pdfrwt>
<totfact> 0.47059066E-01</totfact>
</mgrwt>
</event>
<event>
 4    5  0.1905771E-007  0.9706720E+03  0.7818608E-02  0.9420975E-01
          2   -1    0    0  501    0  0.00000000000E+00  0.00000000000E+00  0.81189246371E+03  0.81189246371E+03  0.25500000000E-02 0. -1.
         -2   -1    0    0    0  501 -0.00000000000E+00 -0.00000000000E+00 -0.16243916263E+04  0.16243916263E+04  0.25500000000E-02 0.  1.
    8880023    1    1    2    0    0  0.54738848547E+03  0.45690228820E+03  0.37677872392E+03  0.10412330517E+04  0.65864270000E+03 0. -1.
    8880022    1    1    2    0    0 -0.54738848547E+03 -0.45690228820E+03 -0.11892778865E+04  0.13950510382E+04  0.15294330000E+03 0.  0.
<mgrwt>
<rscale>  0 0.90369406E+03</rscale>
<asrwt>0</asrwt>
<pdfrwt beam="1">  1        2 0.12490653E+00 0.97067196E+03</pdfrwt>
<pdfrwt beam="2">  1       -2 0.24990640E+00 0.97067196E+03</pdfrwt>
<totfact> 0.21752273E+00</totfact>
</mgrwt>
</event>
<event>
 4    5  0.1905771E-007  0.2063160E+04  0.7818608E-02  0.8589434E-01
          2   -1    0    0  501    0  0.00000000000E+00  0.00000000000E+00  0.20868107096E+04  0.20868107096E+04  0.25500000000E-02 0. -1.
         -2   -1    0    0    0  501 -0.00000000000E+00 -0.00000000000E+00 -0.21541309359E+04  0.21541309359E+04  0.25500000000E-02 0.  1.
    8880023    1    1    2    0    0  0.18514837082E+04  0.62835114281E+03  0.63362841082E+03  0.21582660285E+04  0.65864270000E+03 0.  0.
    8880022    1    1    2    0    0 -0.18514837082E+04 -0.62835114281E+03 -0.70094863713E+03  0.20826756170E+04  0.15294330000E+03 0.  0.
<mgrwt>
<rscale>  0 0.20371768E+04</rscale>
<asrwt>0</asrwt>
<pdfrwt beam="1">  1        2 0.32104780E+00 0.20631595E+04</pdfrwt>
<pdfrwt beam="2">  1       -2 0.33140476E+00 0.20631595E+04</pdfrwt>
<totfact> 0.10739985E-01</totfact>
</mgrwt>
</event>
<event>
 4    5  0.1905771E-007  0.2296334E+04  0.7818608E-02  0.8488566E-01
          2   -1    0    0  501    0  0.00000000000E+00  0.00000000000E+00  0.28201493980E+04  0.28201493980E+04  0.25500000000E-02 0. -1.
         -2   -1    0    0    0  501 -0.00000000000E+00 -0.00000000000E+00 -0.21844967827E+04  0.21844967827E+04  0.25500000000E-02 0.  1.
    8880023    1    1    2    0    0 -0.42878112718E+03 -0.21576574879E+04 -0.73154626973E+03  0.24100434107E+04  0.65864270000E+03 0.  1.
    8880022    1    1    2    0    0  0.42878112718E+03  0.21576574879E+04  0.13671988850E+04  0.25946027701E+04  0.15294330000E+03 0. -1.
<mgrwt>
<rscale>  0 0.22731930E+04</rscale>
<asrwt>0</asrwt>
<pdfrwt beam="1">  1        2 0.43386914E+00 0.22963339E+04</pdfrwt>
<pdfrwt beam="2">  1       -2 0.33607643E+00 0.22963339E+04</pdfrwt>
<totfact> 0.36669693E-02</totfact>
</mgrwt>
</event>
<event>
 4    5  0.1905771E-007  0.2150255E+04  0.7818608E-02  0.8550130E-01
         -2   -1    0    0    0  501 -0.00000000000E+00  0.00000000000E+00  0.16948792032E+04  0.16948792033E+04  0.25500000000E-02 0.  1.
          2   -1    0    0  501    0  0.00000000000E+00 -0.00000000000E+00 -0.29164909966E+04  0.29164909966E+04  0.25500000000E-02 0. -1.
    8880023    1    1    2    0    0 -0.16288109140E+04  0.12396614346E+04 -0.13762176225E+04  0.25529533127E+04  0.65864270000E+03 0.  0.
    8880022    1    1    2    0    0  0.16288109140E+04 -0.12396614346E+04  0.15460582911E+03  0.20584168872E+04  0.15294330000E+03 0.  0.
<mgrwt>
<rscale>  0 0.21254146E+04</rscale>
<asrwt>0</asrwt>
<pdfrwt beam="1">  1        2 0.44869092E+00 0.21502548E+04</pdfrwt>
<pdfrwt beam="2">  1       -2 0.26075065E+00 0.21502548E+04</pdfrwt>
<totfact> 0.94772380E-02</totfact>
</mgrwt>
</event>
<event>
 4    5  0.1905771E-007  0.2065569E+04  0.7818608E-02  0.8588318E-01
          2   -1    0    0  501    0  0.00000000000E+00  0.00000000000E+00  0.12112823955E+04  0.12112823955E+04  0.25500000000E-02 0. -1.
         -2   -1    0    0    0  501 -0.00000000000E+00 -0.00000000000E+00 -0.39065048858E+04  0.39065048858E+04  0.25500000000E-02 0.  1.
    8880023    1    1    2    0    0 -0.13676506660E+04  0.14008203912E+04 -0.41198542044E+03  0.21062545681E+04  0.65864270000E+03 0.  0.
    8880022    1    1    2    0    0  0.13676506660E+04 -0.14008203912E+04 -0.22832370699E+04  0.30115327132E+04  0.15294330000E+03 0.  0.
<mgrwt>
<rscale>  0 0.20396196E+04</rscale>
<asrwt>0</asrwt>
<pdfrwt beam="1">  1        2 0.18635114E+00 0.20655692E+04</pdfrwt>
<pdfrwt beam="2">  1       -2 0.60100075E+00 0.20655692E+04</pdfrwt>
<totfact> 0.81291140E-03</totfact>
</mgrwt>
</event>
<event>
 4    5  0.1905771E-007  0.6820915E+03  0.7818608E-02  0.1008164E+00
          2   -1    0    0  501    0  0.00000000000E+00  0.00000000000E+00  0.58458746476E+03  0.58458746476E+03  0.25500000000E-02 0. -1.
         -2   -1    0    0    0  501 -0.00000000000E+00 -0.00000000000E+00 -0.82339650626E+03  0.82339650627E+03  0.25500000000E-02 0.  1.
    8880023    1    1    2    0    0 -0.14861966077E+03 -0.96699490549E+02  0.35552493018E+03  0.76918578854E+03  0.65864270000E+03 0. -1.
    8880022    1    1    2    0    0  0.14861966077E+03  0.96699490549E+02 -0.59433397169E+03  0.63879818250E+03  0.15294330000E+03 0.  0.
<mgrwt>
<rscale>  0 0.52210698E+03</rscale>
<asrwt>0</asrwt>
<pdfrwt beam="1">  1        2 0.89936533E-01 0.68209149E+03</pdfrwt>
<pdfrwt beam="2">  1       -2 0.12667638E+00 0.68209149E+03</pdfrwt>
<totfact> 0.24187597E+01</totfact>
</mgrwt>
</event>
<event>
 4    5  0.1905771E-007  0.1162621E+04  0.7818608E-02  0.9194342E-01
          2   -1    0    0  501    0  0.00000000000E+00  0.00000000000E+00  0.24094272240E+04  0.24094272240E+04  0.25500000000E-02 0. -1.
         -2   -1    0    0    0  501 -0.00000000000E+00 -0.00000000000E+00 -0.74424227348E+03  0.74424227348E+03  0.25500000000E-02 0.  1.
    8880023    1    1    2    0    0 -0.70389300562E+03 -0.64993223212E+03  0.18314774985E+04  0.21693310729E+04  0.65864270000E+03 0.  0.
    8880022    1    1    2    0    0  0.70389300562E+03  0.64993223212E+03 -0.16629254800E+03  0.98433842465E+03  0.15294330000E+03 0.  0.
<mgrwt>
<rscale>  0 0.11112015E+04</rscale>
<asrwt>0</asrwt>
<pdfrwt beam="1">  1        2 0.37068111E+00 0.11626210E+04</pdfrwt>
<pdfrwt beam="2">  1       -2 0.11449881E+00 0.11626210E+04</pdfrwt>
<totfact> 0.23043554E+00</totfact>
</mgrwt>
</event>
<event>
 4    5  0.1905771E-007  0.8047830E+03  0.7818608E-02  0.9700548E-01
          2   -1    0    0  501    0  0.00000000000E+00  0.00000000000E+00  0.20632925787E+04  0.20632925787E+04  0.25500000000E-02 0. -1.
         -2   -1    0    0    0  501 -0.00000000000E+00 -0.00000000000E+00 -0.44826907147E+03  0.44826907148E+03  0.25500000000E-02 0.  1.
    8880023    1    1    2    0    0 -0.98898025276E+02  0.45175730191E+03  0.18146880384E+04  0.19851368623E+04  0.65864270000E+03 0.  0.
    8880022    1    1    2    0    0  0.98898025276E+02 -0.45175730191E+03 -0.19966453117E+03  0.52642478784E+03  0.15294330000E+03 0.  0.
<mgrwt>
<rscale>  0 0.70984170E+03</rscale>
<asrwt>0</asrwt>
<pdfrwt beam="1">  1        2 0.31742963E+00 0.80478301E+03</pdfrwt>
<pdfrwt beam="2">  1       -2 0.68964473E-01 0.80478301E+03</pdfrwt>
<totfact> 0.12166629E+01</totfact>
</mgrwt>
</event>
<event>
 4    5  0.1905771E-007  0.2033738E+04  0.7818608E-02  0.8603195E-01
          2   -1    0    0  501    0  0.00000000000E+00  0.00000000000E+00  0.47674099966E+04  0.47674099966E+04  0.25500000000E-02 0. -1.
         -2   -1    0    0    0  501 -0.00000000000E+00 -0.00000000000E+00 -0.11516974408E+04  0.11516974408E+04  0.25500000000E-02 0.  1.
    8880023    1    1    2    0    0  0.16856539642E+04  0.92782144172E+03  0.34200050857E+04  0.39790107950E+04  0.65864270000E+03 0.  0.
    8880022    1    1    2    0    0 -0.16856539642E+04 -0.92782144172E+03  0.19570747008E+03  0.19400966423E+04  0.15294330000E+03 0.  0.
<mgrwt>
<rscale>  0 0.20073446E+04</rscale>
<asrwt>0</asrwt>
<pdfrwt beam="1">  1        2 0.73344770E+00 0.20337385E+04</pdfrwt>
<pdfrwt beam="2">  1       -2 0.17718422E+00 0.20337385E+04</pdfrwt>
<totfact> 0.11089904E-02</totfact>
</mgrwt>
</event>
<event>
 4    5  0.1905771E-007  0.1082031E+04  0.7818608E-02  0.9281331E-01
          2   -1    0    0  501    0  0.00000000000E+00  0.00000000000E+00  0.13655626389E+04  0.13655626389E+04  0.25500000000E-02 0. -1.
         -2   -1    0    0    0  501 -0.00000000000E+00 -0.00000000000E+00 -0.10591651066E+04  0.10591651066E+04  0.25500000000E-02 0.  1.
    8880023    1    1    2    0    0  0.78017041779E+03 -0.35821117661E+03  0.86831992399E+03  0.13873611010E+04  0.65864270000E+03 0. -1.
    8880022    1    1    2    0    0 -0.78017041779E+03  0.35821117661E+03 -0.56192239167E+03  0.10373666445E+04  0.15294330000E+03 0.  0.
<mgrwt>
<rscale>  0 0.10251989E+04</rscale>
<asrwt>0</asrwt>
<pdfrwt beam="1">  1        2 0.21008656E+00 0.10820311E+04</pdfrwt>
<pdfrwt beam="2">  1       -2 0.16294848E+00 0.10820311E+04</pdfrwt>
<totfact> 0.35671336E+00</totfact>
</mgrwt>
</event>
<event>
 4    5  0.1905771E-007  0.1469427E+04  0.7818608E-02  0.8931532E-01
         -2   -1    0    0    0  501 -0.00000000000E+00  0.00000000000E+00  0.93327276177E+03  0.93327276177E+03  0.25500000000E-02 0.  1.
          2   -1    0    0  501    0  0.00000000000E+00 -0.00000000000E+00 -0.31725256954E+04  0.31725256954E+04  0.25500000000E-02 0. -1.
    8880023    1    1    2    0    0 -0.10279555491E+04 -0.81774845409E+03 -0.23576586143E+04  0.27780873804E+04  0.65864270000E+03 0.  1.
    8880022    1    1    2    0    0  0.10279555491E+04  0.81774845409E+03  0.11840568068E+03  0.13277110768E+04  0.15294330000E+03 0.  0.
<mgrwt>
<rscale>  0 0.14312101E+04</rscale>
<asrwt>0</asrwt>
<pdfrwt beam="1">  1        2 0.48808087E+00 0.14694269E+04</pdfrwt>
<pdfrwt beam="2">  1       -2 0.14358043E+00 0.14694269E+04</pdfrwt>
<totfact> 0.43335367E-01</totfact>
</mgrwt>
</event>
<event>
 4    5  0.1905771E-007  0.1320045E+04  0.7818608E-02  0.9048441E-01
          2   -1    0    0  501    0  0.00000000000E+00  0.00000000000E+00  0.30144626082E+04  0.30144626082E+04  0.25500000000E-02 0. -1.
         -2   -1    0    0    0  501 -0.00000000000E+00 -0.00000000000E+00 -0.68651508709E+03  0.68651508709E+03  0.25500000000E-02 0.  1.
    8880023    1    1    2    0    0  0.80096856886E+03  0.81679671030E+03  0.21645405926E+04  0.25353015003E+04  0.65864270000E+03 0.  0.
    8880022    1    1    2    0    0 -0.80096856886E+03 -0.81679671030E+03  0.16340692853E+03  0.11656761950E+04  0.15294330000E+03 0.  0.
<mgrwt>
<rscale>  0 0.12764639E+04</rscale>
<asrwt>0</asrwt>
<pdfrwt beam="1">  1        2 0.46376348E+00 0.13200446E+04</pdfrwt>
<pdfrwt beam="2">  1       -2 0.10561770E+00 0.13200446E+04</pdfrwt>
<totfact> 0.12050678E+00</totfact>
</mgrwt>
</event>
<event>
 4    5  0.1905771E-007  0.1118105E+04  0.7818608E-02  0.9241161E-01
         -2   -1    0    0    0  501 -0.00000000000E+00  0.00000000000E+00  0.16690975425E+04  0.16690975425E+04  0.25500000000E-02 0.  1.
          2   -1    0    0  501    0  0.00000000000E+00 -0.00000000000E+00 -0.18774643042E+04  0.18774643042E+04  0.25500000000E-02 0. -1.
    8880023    1    1    2    0    0 -0.64306217016E+03 -0.63468131143E+03 -0.15564999792E+04  0.19164685527E+04  0.65864270000E+03 0.  0.
    8880022    1    1    2    0    0  0.64306217016E+03  0.63468131143E+03  0.13481332176E+04  0.16300932940E+04  0.15294330000E+03 0.  0.
<mgrwt>
<rscale>  0 0.10638495E+04</rscale>
<asrwt>0</asrwt>
<pdfrwt beam="1">  1        2 0.28884066E+00 0.11181053E+04</pdfrwt>
<pdfrwt beam="2">  1       -2 0.25678424E+00 0.11181053E+04</pdfrwt>
<totfact> 0.44907925E-01</totfact>
</mgrwt>
</event>
<event>
 4    5  0.1905771E-007  0.8920575E+03  0.7818608E-02  0.9538904E-01
         -2   -1    0    0    0  501 -0.00000000000E+00  0.00000000000E+00  0.21639969127E+03  0.21639969128E+03  0.25500000000E-02 0.  1.
          2   -1    0    0  501    0  0.00000000000E+00 -0.00000000000E+00 -0.32073090961E+04  0.32073090961E+04  0.25500000000E-02 0. -1.
    8880023    1    1    2    0    0 -0.58658604366E+03 -0.13369045552E+03 -0.24243821272E+04  0.25832915494E+04  0.65864270000E+03 0. -1.
    8880022    1    1    2    0    0  0.58658604366E+03  0.13369045552E+03 -0.56652727766E+03  0.84041723796E+03  0.15294330000E+03 0.  0.
<mgrwt>
<rscale>  0 0.81475355E+03</rscale>
<asrwt>0</asrwt>
<pdfrwt beam="1">  1        2 0.49343213E+00 0.89205747E+03</pdfrwt>
<pdfrwt beam="2">  1       -2 0.33292263E-01 0.89205747E+03</pdfrwt>
<totfact> 0.11283736E+01</totfact>
</mgrwt>
</event>
<event>
 4    5  0.1905771E-007  0.7744084E+03  0.7818608E-02  0.9769140E-01
         -2   -1    0    0    0  501 -0.00000000000E+00  0.00000000000E+00  0.64593480183E+03  0.64593480184E+03  0.25500000000E-02 0.  1.
          2   -1    0    0  501    0  0.00000000000E+00 -0.00000000000E+00 -0.58022849008E+03  0.58022849009E+03  0.25500000000E-02 0. -1.
    8880023    1    1    2    0    0  0.29877005165E+03 -0.27682954063E+03 -0.49828755912E+02  0.77600982565E+03  0.65864270000E+03 0. -1.
    8880022    1    1    2    0    0 -0.29877005165E+03  0.27682954063E+03  0.11553506766E+03  0.45015346628E+03  0.15294330000E+03 0.  1.
<mgrwt>
<rscale>  0 0.67045315E+03</rscale>
<asrwt>0</asrwt>
<pdfrwt beam="1">  1        2 0.89265922E-01 0.77440838E+03</pdfrwt>
<pdfrwt beam="2">  1       -2 0.99374584E-01 0.77440838E+03</pdfrwt>
<totfact> 0.43751624E+01</totfact>
</mgrwt>
</event>
<event>
 4    5  0.1905771E-007  0.7283750E+03  0.7818608E-02  0.9895204E-01
         -2   -1    0    0    0  501 -0.00000000000E+00  0.00000000000E+00  0.31463949190E+03  0.31463949191E+03  0.25500000000E-02 0.  1.
          2   -1    0    0  501    0  0.00000000000E+00 -0.00000000000E+00 -0.12809349860E+04  0.12809349860E+04  0.25500000000E-02 0. -1.
    8880023    1    1    2    0    0 -0.30705022899E+03  0.49397857422E+02 -0.10110826223E+04  0.12461212889E+04  0.65864270000E+03 0. -1.
    8880022    1    1    2    0    0  0.30705022899E+03 -0.49397857422E+02  0.44787128147E+02  0.34945318900E+03  0.15294330000E+03 0.  0.
<mgrwt>
<rscale>  0 0.60494296E+03</rscale>
<asrwt>0</asrwt>
<pdfrwt beam="1">  1        2 0.19706692E+00 0.72837504E+03</pdfrwt>
<pdfrwt beam="2">  1       -2 0.48406076E-01 0.72837504E+03</pdfrwt>
<totfact> 0.69907351E+01</totfact>
</mgrwt>
</event>
<event>
 4    5  0.1905771E-007  0.7216907E+03  0.7818608E-02  0.9916906E-01
         -2   -1    0    0    0  501 -0.00000000000E+00  0.00000000000E+00  0.36602025771E+03  0.36602025772E+03  0.25500000000E-02 0.  1.
          2   -1    0    0  501    0  0.00000000000E+00 -0.00000000000E+00 -0.17680416289E+04  0.17680416289E+04  0.25500000000E-02 0. -1.
    8880023    1    1    2    0    0 -0.29058460792E+03  0.50870646891E+02 -0.15943784466E+04  0.17501085893E+04  0.65864270000E+03 0. -1.
    8880022    1    1    2    0    0  0.29058460792E+03 -0.50870646891E+02  0.19235707539E+03  0.38395329735E+03  0.15294330000E+03 0.  0.
<mgrwt>
<rscale>  0 0.59448890E+03</rscale>
<asrwt>0</asrwt>
<pdfrwt beam="1">  1        2 0.27200640E+00 0.72169068E+03</pdfrwt>
<pdfrwt beam="2">  1       -2 0.56310810E-01 0.72169068E+03</pdfrwt>
<totfact> 0.27457159E+01</totfact>
</mgrwt>
</event>
<event>
 4    5  0.1905771E-007  0.9744290E+03  0.7818608E-02  0.9415804E-01
         -2   -1    0    0    0  501 -0.00000000000E+00  0.00000000000E+00  0.12245553203E+04  0.12245553203E+04  0.25500000000E-02 0.  1.
          2   -1    0    0  501    0  0.00000000000E+00 -0.00000000000E+00 -0.12725107653E+04  0.12725107653E+04  0.25500000000E-02 0. -1.
    8880023    1    1    2    0    0  0.57752245500E+03 -0.42681323530E+03 -0.93165591233E+03  0.13481448991E+04  0.65864270000E+03 0. -1.
    8880022    1    1    2    0    0 -0.57752245500E+03  0.42681323530E+03  0.88370046733E+03  0.11489211865E+04  0.15294330000E+03 0.  0.
<mgrwt>
<rscale>  0 0.90786372E+03</rscale>
<asrwt>0</asrwt>
<pdfrwt beam="1">  1        2 0.19577089E+00 0.97442903E+03</pdfrwt>
<pdfrwt beam="2">  1       -2 0.18839313E+00 0.97442903E+03</pdfrwt>
<totfact> 0.27124956E+00</totfact>
</mgrwt>
</event>
<event>
 4    5  0.1905771E-007  0.7206475E+03  0.7818608E-02  0.9920401E-01
         -2   -1    0    0    0  501 -0.00000000000E+00  0.00000000000E+00  0.33045417638E+03  0.33045417639E+03  0.25500000000E-02 0.  1.
          2   -1    0    0  501    0  0.00000000000E+00 -0.00000000000E+00 -0.38975994410E+04  0.38975994410E+04  0.25500000000E-02 0. -1.
    8880023    1    1    2    0    0  0.29074164902E+03 -0.31494850580E+02 -0.37716008969E+04  0.38398315280E+04  0.65864270000E+03 0. -1.
    8880022    1    1    2    0    0 -0.29074164902E+03  0.31494850580E+02  0.20445563225E+03  0.38822208935E+03  0.15294330000E+03 0.  0.
<mgrwt>
<rscale>  0 0.59282673E+03</rscale>
<asrwt>0</asrwt>
<pdfrwt beam="1">  1        2 0.59963065E+00 0.72064751E+03</pdfrwt>
<pdfrwt beam="2">  1       -2 0.50839107E-01 0.72064751E+03</pdfrwt>
<totfact> 0.16814932E+00</totfact>
</mgrwt>
</event>
<event>
 4    5  0.1905771E-007  0.7306634E+03  0.7818608E-02  0.9888029E-01
          2   -1    0    0  501    0  0.00000000000E+00  0.00000000000E+00  0.18847280135E+04  0.18847280135E+04  0.25500000000E-02 0. -1.
         -2   -1    0    0    0  501 -0.00000000000E+00 -0.00000000000E+00 -0.15996909586E+03  0.15996909588E+03  0.25500000000E-02 0.  1.
    8880023    1    1    2    0    0  0.11169606576E+03  0.29594399287E+03  0.13198396930E+04  0.15085906931E+04  0.65864270000E+03 0.  0.
    8880022    1    1    2    0    0 -0.11169606576E+03 -0.29594399287E+03  0.40491922471E+03  0.53610641628E+03  0.15294330000E+03 0.  0.
<mgrwt>
<rscale>  0 0.60844965E+03</rscale>
<asrwt>0</asrwt>
<pdfrwt beam="1">  1        2 0.28995814E+00 0.73066344E+03</pdfrwt>
<pdfrwt beam="2">  1       -2 0.24610631E-01 0.73066344E+03</pdfrwt>
<totfact> 0.11707921E+02</totfact>
</mgrwt>
</event>
<event>
 4    5  0.1905771E-007  0.6764126E+03  0.7818608E-02  0.1011430E+00
         -2   -1    0    0    0  501 -0.00000000000E+00  0.00000000000E+00  0.42203521202E+03  0.42203521202E+03  0.25500000000E-02 0.  1.
          2   -1    0    0  501    0  0.00000000000E+00 -0.00000000000E+00 -0.62591279938E+03  0.62591279939E+03  0.25500000000E-02 0. -1.
    8880023    1    1    2    0    0 -0.15083806922E+03 -0.31171019841E+02 -0.37330939876E+03  0.77258906870E+03  0.65864270000E+03 0. -1.
    8880022    1    1    2    0    0  0.15083806922E+03  0.31171019841E+02  0.16943181140E+03  0.27535894271E+03  0.15294330000E+03 0. -1.
<mgrwt>
<rscale>  0 0.50910120E+03</rscale>
<asrwt>0</asrwt>
<pdfrwt beam="1">  1        2 0.96294277E-01 0.67641257E+03</pdfrwt>
<pdfrwt beam="2">  1       -2 0.64928494E-01 0.67641257E+03</pdfrwt>
<totfact> 0.10472857E+02</totfact>
</mgrwt>
</event>
<event>
 4    5  0.1905771E-007  0.7153519E+03  0.7818608E-02  0.9938639E-01
         -2   -1    0    0    0  501 -0.00000000000E+00  0.00000000000E+00  0.18492602919E+03  0.18492602921E+03  0.25500000000E-02 0.  1.
          2   -1    0    0  501    0  0.00000000000E+00 -0.00000000000E+00 -0.30207710524E+04  0.30207710524E+04  0.25500000000E-02 0. -1.
    8880023    1    1    2    0    0  0.70602661157E+02 -0.27006181870E+03 -0.27946474490E+04  0.28847500224E+04  0.65864270000E+03 0.  0.
    8880022    1    1    2    0    0 -0.70602661157E+02  0.27006181870E+03 -0.41197574302E+02  0.32094705923E+03  0.15294330000E+03 0.  0.
<mgrwt>
<rscale>  0 0.58424663E+03</rscale>
<asrwt>0</asrwt>
<pdfrwt beam="1">  1        2 0.46473397E+00 0.71535189E+03</pdfrwt>
<pdfrwt beam="2">  1       -2 0.28450161E-01 0.71535189E+03</pdfrwt>
<totfact> 0.20376651E+01</totfact>
</mgrwt>
</event>
<event>
 4    5  0.1905771E-007  0.8867314E+03  0.7818608E-02  0.9547677E-01
         -2   -1    0    0    0  501 -0.00000000000E+00  0.00000000000E+00  0.25621986939E+04  0.25621986939E+04  0.25500000000E-02 0.  1.
          2   -1    0    0  501    0  0.00000000000E+00 -0.00000000000E+00 -0.70105198249E+03  0.70105198250E+03  0.25500000000E-02 0. -1.
    8880023    1    1    2    0    0 -0.12197469405E+03  0.58103751186E+03 -0.36150770697E+03  0.95759095894E+03  0.65864270000E+03 0. -1.
    8880022    1    1    2    0    0  0.12197469405E+03 -0.58103751186E+03  0.22226544184E+04  0.23056597175E+04  0.15294330000E+03 0.  0.
<mgrwt>
<rscale>  0 0.80858256E+03</rscale>
<asrwt>0</asrwt>
<pdfrwt beam="1">  1        2 0.10785415E+00 0.88673143E+03</pdfrwt>
<pdfrwt beam="2">  1       -2 0.39418441E+00 0.88673143E+03</pdfrwt>
<totfact> 0.34352065E-01</totfact>
</mgrwt>
</event>
<event>
 4    5  0.1905771E-007  0.1093286E+04  0.7818608E-02  0.9268568E-01
         -2   -1    0    0    0  501 -0.00000000000E+00  0.00000000000E+00  0.89047219430E+03  0.89047219431E+03  0.25500000000E-02 0.  1.
          2   -1    0    0  501    0  0.00000000000E+00 -0.00000000000E+00 -0.11819949494E+04  0.11819949494E+04  0.25500000000E-02 0. -1.
    8880023    1    1    2    0    0 -0.10395071103E+03 -0.86640571920E+03 -0.43187735064E+03  0.11754968621E+04  0.65864270000E+03 0.  0.
    8880022    1    1    2    0    0  0.10395071103E+03  0.86640571920E+03  0.14035459553E+03  0.89697028161E+03  0.15294330000E+03 0.  0.
<mgrwt>
<rscale>  0 0.10372876E+04</rscale>
<asrwt>0</asrwt>
<pdfrwt beam="1">  1        2 0.18184538E+00 0.10932863E+04</pdfrwt>
<pdfrwt beam="2">  1       -2 0.13699572E+00 0.10932863E+04</pdfrwt>
<totfact> 0.72533149E+00</totfact>
</mgrwt>
</event>
<event>
 4    5  0.1905771E-007  0.7144822E+03  0.7818608E-02  0.9941718E-01
          2   -1    0    0  501    0  0.00000000000E+00  0.00000000000E+00  0.37846594655E+04  0.37846594655E+04  0.25500000000E-02 0. -1.
         -2   -1    0    0    0  501 -0.00000000000E+00 -0.00000000000E+00 -0.26664216760E+03  0.26664216761E+03  0.25500000000E-02 0.  1.
    8880023    1    1    2    0    0 -0.23165787760E+03  0.15168817101E+03  0.36420880089E+04  0.37115077723E+04  0.65864270000E+03 0. -1.
    8880022    1    1    2    0    0  0.23165787760E+03 -0.15168817101E+03 -0.12407071098E+03  0.33979386077E+03  0.15294330000E+03 0.  0.
<mgrwt>
<rscale>  0 0.58281346E+03</rscale>
<asrwt>0</asrwt>
<pdfrwt beam="1">  1        2 0.58225528E+00 0.71448225E+03</pdfrwt>
<pdfrwt beam="2">  1       -2 0.41021874E-01 0.71448225E+03</pdfrwt>
<totfact> 0.31418824E+00</totfact>
</mgrwt>
</event>
<event>
 4    5  0.1905771E-007  0.6769707E+03  0.7818608E-02  0.1011092E+00
         -2   -1    0    0    0  501 -0.00000000000E+00  0.00000000000E+00  0.47788757279E+03  0.47788757280E+03  0.25500000000E-02 0.  1.
          2   -1    0    0  501    0  0.00000000000E+00 -0.00000000000E+00 -0.14967083557E+04  0.14967083557E+04  0.25500000000E-02 0. -1.
    8880023    1    1    2    0    0  0.33433216892E+02  0.15284422281E+03 -0.13886604511E+04  0.15448841999E+04  0.65864270000E+03 0. -1.
    8880022    1    1    2    0    0 -0.33433216892E+02 -0.15284422281E+03  0.36983966823E+03  0.42971172855E+03  0.15294330000E+03 0.  0.
<mgrwt>
<rscale>  0 0.51043005E+03</rscale>
<asrwt>0</asrwt>
<pdfrwt beam="1">  1        2 0.23026282E+00 0.67697071E+03</pdfrwt>
<pdfrwt beam="2">  1       -2 0.73521166E-01 0.67697071E+03</pdfrwt>
<totfact> 0.21983902E+01</totfact>
</mgrwt>
</event>
<event>
 4    5  0.1905771E-007  0.1228270E+04  0.7818608E-02  0.9130120E-01
         -2   -1    0    0    0  501 -0.00000000000E+00  0.00000000000E+00  0.15240220138E+04  0.15240220138E+04  0.25500000000E-02 0.  1.
          2   -1    0    0  501    0  0.00000000000E+00 -0.00000000000E+00 -0.13538811970E+04  0.13538811970E+04  0.25500000000E-02 0. -1.
    8880023    1    1    2    0    0  0.10260249298E+04 -0.14869182025E+03 -0.78688010121E+03  0.14587072749E+04  0.65864270000E+03 0.  0.
    8880022    1    1    2    0    0 -0.10260249298E+04  0.14869182025E+03  0.95702091792E+03  0.14191959359E+04  0.15294330000E+03 0.  0.
<mgrwt>
<rscale>  0 0.11804753E+04</rscale>
<asrwt>0</asrwt>
<pdfrwt beam="1">  1        2 0.20828942E+00 0.12282698E+04</pdfrwt>
<pdfrwt beam="2">  1       -2 0.23446492E+00 0.12282698E+04</pdfrwt>
<totfact> 0.11939807E+00</totfact>
</mgrwt>
</event>
<event>
 4    5  0.1994940E-007  0.1065616E+04  0.7818608E-02  0.9300341E-01
         -2   -1    0    0    0  501 -0.00000000000E+00  0.00000000000E+00  0.12280994681E+04  0.12280994681E+04  0.25500000000E-02 0.  1.
          2   -1    0    0  501    0  0.00000000000E+00 -0.00000000000E+00 -0.19137186352E+04  0.19137186352E+04  0.25500000000E-02 0. -1.
    8880023    1    1    2    0    0 -0.82434879723E+03 -0.14891457592E+03 -0.15807279474E+04  0.19063676299E+04  0.65864270000E+03 0.  0.
    8880022    1    1    2    0    0  0.82434879723E+03  0.14891457592E+03  0.89510878035E+03  0.12354504733E+04  0.15294330000E+03 0.  0.
<mgrwt>
<rscale>  0 0.10075150E+04</rscale>
<asrwt>0</asrwt>
<pdfrwt beam="1">  1        2 0.29441825E+00 0.10656156E+04</pdfrwt>
<pdfrwt beam="2">  1       -2 0.18893838E+00 0.10656156E+04</pdfrwt>
<totfact> 0.11613446E+00</totfact>
</mgrwt>
</event>
<event>
 4    5  0.1905771E-007  0.7038238E+03  0.7818608E-02  0.9981693E-01
          2   -1    0    0  501    0  0.00000000000E+00  0.00000000000E+00  0.13765594986E+04  0.13765594986E+04  0.25500000000E-02 0. -1.
         -2   -1    0    0    0  501 -0.00000000000E+00 -0.00000000000E+00 -0.88107942909E+03  0.88107942909E+03  0.25500000000E-02 0.  1.
    8880023    1    1    2    0    0  0.23482433799E+03  0.80095600886E+02  0.12578952927E+04  0.14414119982E+04  0.65864270000E+03 0. -1.
    8880022    1    1    2    0    0 -0.23482433799E+03 -0.80095600886E+02 -0.76241522313E+03  0.81622692952E+03  0.15294330000E+03 0.  0.
<mgrwt>
<rscale>  0 0.56460281E+03</rscale>
<asrwt>0</asrwt>
<pdfrwt beam="1">  1        2 0.21177838E+00 0.70382383E+03</pdfrwt>
<pdfrwt beam="2">  1       -2 0.13555068E+00 0.70382383E+03</pdfrwt>
<totfact> 0.60045789E+00</totfact>
</mgrwt>
</event>
<event>
 4    5  0.1905771E-007  0.1159253E+04  0.7818608E-02  0.9197786E-01
          2   -1    0    0  501    0  0.00000000000E+00  0.00000000000E+00  0.14623206784E+04  0.14623206784E+04  0.25500000000E-02 0. -1.
         -2   -1    0    0    0  501 -0.00000000000E+00 -0.00000000000E+00 -0.13604114245E+04  0.13604114245E+04  0.25500000000E-02 0.  1.
    8880023    1    1    2    0    0  0.91531685179E+03  0.26879899468E+03 -0.87221867281E+03  0.14507354887E+04  0.65864270000E+03 0.  0.
    8880022    1    1    2    0    0 -0.91531685179E+03 -0.26879899468E+03  0.97412792669E+03  0.13719966142E+04  0.15294330000E+03 0.  0.
<mgrwt>
<rscale>  0 0.11076310E+04</rscale>
<asrwt>0</asrwt>
<pdfrwt beam="1">  1        2 0.22497241E+00 0.11592532E+04</pdfrwt>
<pdfrwt beam="2">  1       -2 0.20929407E+00 0.11592532E+04</pdfrwt>
<totfact> 0.15037318E+00</totfact>
</mgrwt>
</event>
<event>
 4    5  0.1905771E-007  0.8711341E+03  0.7818608E-02  0.9574057E-01
         -2   -1    0    0    0  501 -0.00000000000E+00  0.00000000000E+00  0.18177928306E+04  0.18177928306E+04  0.25500000000E-02 0.  1.
          2   -1    0    0  501    0  0.00000000000E+00 -0.00000000000E+00 -0.77902101769E+03  0.77902101770E+03  0.25500000000E-02 0. -1.
    8880023    1    1    2    0    0 -0.40144823927E+03 -0.40485035757E+03 -0.46061328721E+03  0.98541326734E+03  0.65864270000E+03 0. -1.
    8880022    1    1    2    0    0  0.40144823927E+03  0.40485035757E+03  0.14993851001E+04  0.16114005809E+04  0.15294330000E+03 0.  0.
<mgrwt>
<rscale>  0 0.79037337E+03</rscale>
<asrwt>0</asrwt>
<pdfrwt beam="1">  1        2 0.11984939E+00 0.87113415E+03</pdfrwt>
<pdfrwt beam="2">  1       -2 0.27966043E+00 0.87113415E+03</pdfrwt>
<totfact> 0.15386848E+00</totfact>
</mgrwt>
</event>
<event>
 4    5  0.1905771E-007  0.1689258E+04  0.7818608E-02  0.8786402E-01
         -2   -1    0    0    0  501 -0.00000000000E+00  0.00000000000E+00  0.17766644836E+04  0.17766644836E+04  0.25500000000E-02 0.  1.
          2   -1    0    0  501    0  0.00000000000E+00 -0.00000000000E+00 -0.23795971871E+04  0.23795971871E+04  0.25500000000E-02 0. -1.
    8880023    1    1    2    0    0 -0.61507009151E+03 -0.14288010725E+04  0.96238036675E+03  0.19441630330E+04  0.65864270000E+03 0.  0.
    8880022    1    1    2    0    0  0.61507009151E+03  0.14288010725E+04 -0.15653130703E+04  0.22120986378E+04  0.15294330000E+03 0.  0.
<mgrwt>
<rscale>  0 0.16567859E+04</rscale>
<asrwt>0</asrwt>
<pdfrwt beam="1">  1        2 0.36609188E+00 0.16892584E+04</pdfrwt>
<pdfrwt beam="2">  1       -2 0.27333300E+00 0.16892584E+04</pdfrwt>
<totfact> 0.17321864E-01</totfact>
</mgrwt>
</event>
<event>
 4    5  0.2003190E-007  0.1158820E+04  0.7818608E-02  0.9198230E-01
          2   -1    0    0  501    0  0.00000000000E+00  0.00000000000E+00  0.25985084004E+04  0.25985084004E+04  0.25500000000E-02 0. -1.
         -2   -1    0    0    0  501 -0.00000000000E+00 -0.00000000000E+00 -0.12700288516E+04  0.12700288516E+04  0.25500000000E-02 0.  1.
    8880023    1    1    2    0    0 -0.85745996991E+03  0.41691255336E+03  0.22518181341E+04  0.25324985276E+04  0.65864270000E+03 0.  0.
    8880022    1    1    2    0    0  0.85745996991E+03 -0.41691255336E+03 -0.92333858522E+03  0.13360387244E+04  0.15294330000E+03 0.  0.
<mgrwt>
<rscale>  0 0.11071716E+04</rscale>
<asrwt>0</asrwt>
<pdfrwt beam="1">  1        2 0.39977051E+00 0.11588200E+04</pdfrwt>
<pdfrwt beam="2">  1       -2 0.19538906E+00 0.11588200E+04</pdfrwt>
<totfact> 0.42762199E-01</totfact>
</mgrwt>
</event>
<event>
 4    5  0.1905771E-007  0.8108747E+03  0.7818608E-02  0.9687758E-01
         -2   -1    0    0    0  501 -0.00000000000E+00  0.00000000000E+00  0.30811792866E+03  0.30811792867E+03  0.25500000000E-02 0.  1.
          2   -1    0    0  501    0  0.00000000000E+00 -0.00000000000E+00 -0.31927863972E+04  0.31927863972E+04  0.25500000000E-02 0. -1.
    8880023    1    1    2    0    0  0.42864299067E+02 -0.47103107438E+03 -0.28922364584E+04  0.30037559087E+04  0.65864270000E+03 0. -1.
    8880022    1    1    2    0    0 -0.42864299067E+02  0.47103107438E+03  0.75679899554E+01  0.49714841713E+03  0.15294330000E+03 0.  0.
<mgrwt>
<rscale>  0 0.71750389E+03</rscale>
<asrwt>0</asrwt>
<pdfrwt beam="1">  1        2 0.49119788E+00 0.81087473E+03</pdfrwt>
<pdfrwt beam="2">  1       -2 0.47402761E-01 0.81087473E+03</pdfrwt>
<totfact> 0.58600792E+00</totfact>
</mgrwt>
</event>
<event>
 4    5  0.1905771E-007  0.6589113E+03  0.7818608E-02  0.1025301E+00
          2   -1    0    0  501    0  0.00000000000E+00  0.00000000000E+00  0.10830880634E+04  0.10830880634E+04  0.25500000000E-02 0. -1.
         -2   -1    0    0    0  501 -0.00000000000E+00 -0.00000000000E+00 -0.31491883536E+03  0.31491883537E+03  0.25500000000E-02 0.  1.
    8880023    1    1    2    0    0 -0.45437512666E+00 -0.18807142416E+02  0.95221869806E+03  0.11579657034E+04  0.65864270000E+03 0. -1.
    8880022    1    1    2    0    0  0.45437512666E+00  0.18807142416E+02 -0.18404946999E+03  0.24004119539E+03  0.15294330000E+03 0.  0.
<mgrwt>
<rscale>  0 0.45821367E+03</rscale>
<asrwt>0</asrwt>
<pdfrwt beam="1">  1        2 0.16662894E+00 0.65891132E+03</pdfrwt>
<pdfrwt beam="2">  1       -2 0.48449051E-01 0.65891132E+03</pdfrwt>
<totfact> 0.92061942E+01</totfact>
</mgrwt>
</event>
<event>
 4    5  0.1905771E-007  0.1776309E+04  0.7818608E-02  0.8735756E-01
          2   -1    0    0  501    0  0.00000000000E+00  0.00000000000E+00  0.21524631977E+04  0.21524631977E+04  0.25500000000E-02 0. -1.
         -2   -1    0    0    0  501 -0.00000000000E+00 -0.00000000000E+00 -0.16976828592E+04  0.16976828592E+04  0.25500000000E-02 0.  1.
    8880023    1    1    2    0    0  0.16257493442E+04 -0.28000417860E+03 -0.61299586791E+03  0.18791054815E+04  0.65864270000E+03 0.  1.
    8880022    1    1    2    0    0 -0.16257493442E+04  0.28000417860E+03  0.10677762064E+04  0.19710405755E+04  0.15294330000E+03 0. -1.
<mgrwt>
<rscale>  0 0.17456365E+04</rscale>
<asrwt>0</asrwt>
<pdfrwt beam="1">  1        2 0.33114818E+00 0.17763089E+04</pdfrwt>
<pdfrwt beam="2">  1       -2 0.26118198E+00 0.17763089E+04</pdfrwt>
<totfact> 0.27428211E-01</totfact>
</mgrwt>
</event>
<event>
 4    5  0.1905771E-007  0.8026072E+03  0.7818608E-02  0.9705187E-01
          2   -1    0    0  501    0  0.00000000000E+00  0.00000000000E+00  0.31660436439E+04  0.31660436439E+04  0.25500000000E-02 0. -1.
         -2   -1    0    0    0  501 -0.00000000000E+00 -0.00000000000E+00 -0.24055639735E+03  0.24055639736E+03  0.25500000000E-02 0.  1.
    8880023    1    1    2    0    0  0.43215680246E+03 -0.15365091849E+03  0.27919310598E+04  0.29050055689E+04  0.65864270000E+03 0.  0.
    8880022    1    1    2    0    0 -0.43215680246E+03  0.15365091849E+03  0.13355618682E+03  0.50159447238E+03  0.15294330000E+03 0.  0.
<mgrwt>
<rscale>  0 0.70708806E+03</rscale>
<asrwt>0</asrwt>
<pdfrwt beam="1">  1        2 0.48708357E+00 0.80260720E+03</pdfrwt>
<pdfrwt beam="2">  1       -2 0.37008682E-01 0.80260720E+03</pdfrwt>
<totfact> 0.99372259E+00</totfact>
</mgrwt>
</event>
<event>
 4    5  0.1905771E-007  0.9765747E+03  0.7818608E-02  0.9412868E-01
         -2   -1    0    0    0  501 -0.00000000000E+00  0.00000000000E+00  0.58778579961E+03  0.58778579962E+03  0.25500000000E-02 0.  1.
          2   -1    0    0  501    0  0.00000000000E+00 -0.00000000000E+00 -0.21294499315E+04  0.21294499315E+04  0.25500000000E-02 0. -1.
    8880023    1    1    2    0    0 -0.60630918099E+03 -0.39022705558E+03 -0.17026050519E+04  0.19627944739E+04  0.65864270000E+03 0. -1.
    8880022    1    1    2    0    0  0.60630918099E+03  0.39022705558E+03  0.16094091998E+03  0.75444125722E+03  0.15294330000E+03 0.  0.
<mgrwt>
<rscale>  0 0.91024235E+03</rscale>
<asrwt>0</asrwt>
<pdfrwt beam="1">  1        2 0.32760768E+00 0.97657472E+03</pdfrwt>
<pdfrwt beam="2">  1       -2 0.90428585E-01 0.97657472E+03</pdfrwt>
<totfact> 0.59487203E+00</totfact>
</mgrwt>
</event>
<event>
 4    5  0.1905771E-007  0.9277781E+03  0.7818608E-02  0.9482834E-01
         -2   -1    0    0    0  501 -0.00000000000E+00  0.00000000000E+00  0.73567726872E+03  0.73567726873E+03  0.25500000000E-02 0.  1.
          2   -1    0    0  501    0  0.00000000000E+00 -0.00000000000E+00 -0.14501821139E+04  0.14501821139E+04  0.25500000000E-02 0. -1.
    8880023    1    1    2    0    0  0.54504775687E+03  0.36039541077E+03 -0.10783099798E+04  0.14225064247E+04  0.65864270000E+03 0.  0.
    8880022    1    1    2    0    0 -0.54504775687E+03 -0.36039541077E+03  0.36380513467E+03  0.76335295794E+03  0.15294330000E+03 0.  0.
<mgrwt>
<rscale>  0 0.85561280E+03</rscale>
<asrwt>0</asrwt>
<pdfrwt beam="1">  1        2 0.22310494E+00 0.92777805E+03</pdfrwt>
<pdfrwt beam="2">  1       -2 0.11318112E+00 0.92777805E+03</pdfrwt>
<totfact> 0.83199614E+00</totfact>
</mgrwt>
</event>
<event>
 4    5  0.1905771E-007  0.8051438E+03  0.7818608E-02  0.9699783E-01
          2   -1    0    0  501    0  0.00000000000E+00  0.00000000000E+00  0.17766936823E+04  0.17766936823E+04  0.25500000000E-02 0. -1.
         -2   -1    0    0    0  501 -0.00000000000E+00 -0.00000000000E+00 -0.44850758769E+03  0.44850758770E+03  0.25500000000E-02 0.  1.
    8880023    1    1    2    0    0  0.87734950114E+02  0.45469644615E+03  0.15046874484E+04  0.17065581746E+04  0.65864270000E+03 0. -1.
    8880022    1    1    2    0    0 -0.87734950114E+02 -0.45469644615E+03 -0.17650135372E+03  0.51864309548E+03  0.15294330000E+03 0.  0.
<mgrwt>
<rscale>  0 0.71029739E+03</rscale>
<asrwt>0</asrwt>
<pdfrwt beam="1">  1        2 0.27333749E+00 0.80514377E+03</pdfrwt>
<pdfrwt beam="2">  1       -2 0.69001167E-01 0.80514377E+03</pdfrwt>
<totfact> 0.17431608E+01</totfact>
</mgrwt>
</event>
<event>
 4    5  0.1905771E-007  0.6762025E+03  0.7818608E-02  0.1011559E+00
          2   -1    0    0  501    0  0.00000000000E+00  0.00000000000E+00  0.13704402435E+04  0.13704402435E+04  0.25500000000E-02 0. -1.
         -2   -1    0    0    0  501 -0.00000000000E+00 -0.00000000000E+00 -0.18820503590E+03  0.18820503592E+03  0.25500000000E-02 0.  1.
    8880023    1    1    2    0    0 -0.14933771263E+03  0.33732687166E+02  0.11578830955E+04  0.13408740119E+04  0.65864270000E+03 0. -1.
    8880022    1    1    2    0    0  0.14933771263E+03 -0.33732687166E+02  0.24352112107E+02  0.21777126756E+03  0.15294330000E+03 0.  0.
<mgrwt>
<rscale>  0 0.50859796E+03</rscale>
<asrwt>0</asrwt>
<pdfrwt beam="1">  1        2 0.21083695E+00 0.67620252E+03</pdfrwt>
<pdfrwt beam="2">  1       -2 0.28954622E-01 0.67620252E+03</pdfrwt>
<totfact> 0.16806471E+02</totfact>
</mgrwt>
</event>
<event>
 4    5  0.1905771E-007  0.1430764E+04  0.7818608E-02  0.8960140E-01
         -2   -1    0    0    0  501 -0.00000000000E+00  0.00000000000E+00  0.15611602066E+04  0.15611602066E+04  0.25500000000E-02 0.  1.
          2   -1    0    0  501    0  0.00000000000E+00 -0.00000000000E+00 -0.12752782534E+04  0.12752782534E+04  0.25500000000E-02 0. -1.
    8880023    1    1    2    0    0 -0.40003243522E+03 -0.12055080344E+04 -0.24454527495E+03  0.14515123726E+04  0.65864270000E+03 0. -1.
    8880022    1    1    2    0    0  0.40003243522E+03  0.12055080344E+04  0.53042722819E+03  0.13849260874E+04  0.15294330000E+03 0.  0.
<mgrwt>
<rscale>  0 0.13913009E+04</rscale>
<asrwt>0</asrwt>
<pdfrwt beam="1">  1        2 0.19619666E+00 0.14307641E+04</pdfrwt>
<pdfrwt beam="2">  1       -2 0.24017849E+00 0.14307641E+04</pdfrwt>
<totfact> 0.11986526E+00</totfact>
</mgrwt>
</event>
<event>
 4    5  0.1905771E-007  0.6657366E+03  0.7818608E-02  0.1018923E+00
          2   -1    0    0  501    0  0.00000000000E+00  0.00000000000E+00  0.13277418122E+04  0.13277418122E+04  0.25500000000E-02 0. -1.
         -2   -1    0    0    0  501 -0.00000000000E+00 -0.00000000000E+00 -0.20651114062E+03  0.20651114064E+03  0.25500000000E-02 0.  1.
    8880023    1    1    2    0    0  0.41614258175E+02  0.87539910359E+02  0.11705173012E+04  0.13465942006E+04  0.65864270000E+03 0.  0.
    8880022    1    1    2    0    0 -0.41614258175E+02 -0.87539910359E+02 -0.49286629692E+02  0.18765875218E+03  0.15294330000E+03 0.  0.
<mgrwt>
<rscale>  0 0.48077173E+03</rscale>
<asrwt>0</asrwt>
<pdfrwt beam="1">  1        2 0.20426797E+00 0.66573658E+03</pdfrwt>
<pdfrwt beam="2">  1       -2 0.31770945E-01 0.66573658E+03</pdfrwt>
<totfact> 0.14973036E+02</totfact>
</mgrwt>
</event>
<event>
 4    5  0.1905771E-007  0.1198315E+04  0.7818608E-02  0.9158762E-01
          2   -1    0    0  501    0  0.00000000000E+00  0.00000000000E+00  0.29587870495E+04  0.29587870495E+04  0.25500000000E-02 0. -1.
         -2   -1    0    0    0  501 -0.00000000000E+00 -0.00000000000E+00 -0.65356786514E+03  0.65356786514E+03  0.25500000000E-02 0.  1.
    8880023    1    1    2    0    0  0.10010730426E+04  0.67274129198E+00  0.23070101618E+04  0.25996641672E+04  0.65864270000E+03 0.  0.
    8880022    1    1    2    0    0 -0.10010730426E+04 -0.67274129198E+00 -0.17909775106E+01  0.10126907474E+04  0.15294330000E+03 0.  0.
<mgrwt>
<rscale>  0 0.11489396E+04</rscale>
<asrwt>0</asrwt>
<pdfrwt beam="1">  1        2 0.45519802E+00 0.11983146E+04</pdfrwt>
<pdfrwt beam="2">  1       -2 0.10054890E+00 0.11983146E+04</pdfrwt>
<totfact> 0.14912917E+00</totfact>
</mgrwt>
</event>
<event>
 4    5  0.1905771E-007  0.1061234E+04  0.7818608E-02  0.9305498E-01
         -2   -1    0    0    0  501 -0.00000000000E+00  0.00000000000E+00  0.37612510900E+03  0.37612510901E+03  0.25500000000E-02 0.  1.
          2   -1    0    0  501    0  0.00000000000E+00 -0.00000000000E+00 -0.30464565110E+04  0.30464565110E+04  0.25500000000E-02 0. -1.
    8880023    1    1    2    0    0  0.82857731269E+03  0.76589848103E+02 -0.68133867135E+03  0.12611260680E+04  0.65864270000E+03 0.  1.
    8880022    1    1    2    0    0 -0.82857731269E+03 -0.76589848103E+02 -0.19889927306E+04  0.21614555520E+04  0.15294330000E+03 0.  0.
<mgrwt>
<rscale>  0 0.10027832E+04</rscale>
<asrwt>0</asrwt>
<pdfrwt beam="1">  1        2 0.46868560E+00 0.10612335E+04</pdfrwt>
<pdfrwt beam="2">  1       -2 0.57865403E-01 0.10612335E+04</pdfrwt>
<totfact> 0.46197363E+00</totfact>
</mgrwt>
</event>
<event>
 4    5  0.1905771E-007  0.1080612E+04  0.7818608E-02  0.9282956E-01
         -2   -1    0    0    0  501 -0.00000000000E+00  0.00000000000E+00  0.16952049954E+04  0.16952049954E+04  0.25500000000E-02 0.  1.
          2   -1    0    0  501    0  0.00000000000E+00 -0.00000000000E+00 -0.11163921845E+04  0.11163921845E+04  0.25500000000E-02 0. -1.
    8880023    1    1    2    0    0  0.43682510795E+03 -0.73694997426E+03 -0.68332047383E+03  0.12785337366E+04  0.65864270000E+03 0. -1.
    8880022    1    1    2    0    0 -0.43682510795E+03  0.73694997426E+03  0.12621332847E+04  0.15330634432E+04  0.15294330000E+03 0.  0.
<mgrwt>
<rscale>  0 0.10236723E+04</rscale>
<asrwt>0</asrwt>
<pdfrwt beam="1">  1        2 0.17175264E+00 0.10806117E+04</pdfrwt>
<pdfrwt beam="2">  1       -2 0.26080077E+00 0.10806117E+04</pdfrwt>
<totfact> 0.11598614E+00</totfact>
</mgrwt>
</event>
<event>
 4    5  0.1905771E-007  0.1013223E+04  0.7818608E-02  0.9364458E-01
         -2   -1    0    0    0  501 -0.00000000000E+00  0.00000000000E+00  0.48331570731E+03  0.48331570732E+03  0.25500000000E-02 0.  1.
          2   -1    0    0  501    0  0.00000000000E+00 -0.00000000000E+00 -0.22966202822E+04  0.22966202822E+04  0.25500000000E-02 0. -1.
    8880023    1    1    2    0    0 -0.45263168723E+03 -0.62284486554E+03 -0.17107389067E+04  0.19882778941E+04  0.65864270000E+03 0.  0.
    8880022    1    1    2    0    0  0.45263168723E+03  0.62284486554E+03 -0.10256566818E+03  0.79165809547E+03  0.15294330000E+03 0.  0.
<mgrwt>
<rscale>  0 0.95059237E+03</rscale>
<asrwt>0</asrwt>
<pdfrwt beam="1">  1        2 0.35332619E+00 0.10132233E+04</pdfrwt>
<pdfrwt beam="2">  1       -2 0.74356264E-01 0.10132233E+04</pdfrwt>
<totfact> 0.74520869E+00</totfact>
</mgrwt>
</event>
<event>
 4    5  0.1905771E-007  0.8403721E+03  0.7818608E-02  0.9629479E-01
          2   -1    0    0  501    0  0.00000000000E+00  0.00000000000E+00  0.11165444780E+04  0.11165444780E+04  0.25500000000E-02 0. -1.
         -2   -1    0    0    0  501 -0.00000000000E+00 -0.00000000000E+00 -0.62621700782E+03  0.62621700783E+03  0.25500000000E-02 0.  1.
    8880023    1    1    2    0    0  0.50378880945E+03  0.13642556031E+03  0.76235842512E+03  0.11346434121E+04  0.65864270000E+03 0.  0.
    8880022    1    1    2    0    0 -0.50378880945E+03 -0.13642556031E+03 -0.27203095499E+03  0.60811807367E+03  0.15294330000E+03 0.  1.
<mgrwt>
<rscale>  0 0.75375419E+03</rscale>
<asrwt>0</asrwt>
<pdfrwt beam="1">  1        2 0.17177607E+00 0.84037212E+03</pdfrwt>
<pdfrwt beam="2">  1       -2 0.96341079E-01 0.84037212E+03</pdfrwt>
<totfact> 0.19356695E+01</totfact>
</mgrwt>
</event>
<event>
 4    5  0.2309674E-007  0.1686014E+04  0.7818608E-02  0.8788356E-01
         -2   -1    0    0    0  501 -0.00000000000E+00  0.00000000000E+00  0.18785388766E+04  0.18785388766E+04  0.25500000000E-02 0.  1.
          2   -1    0    0  501    0  0.00000000000E+00 -0.00000000000E+00 -0.32489261392E+04  0.32489261392E+04  0.25500000000E-02 0. -1.
    8880023    1    1    2    0    0  0.15393189892E+04  0.19831651377E+03 -0.26291373020E+04  0.31233004256E+04  0.65864270000E+03 0.  0.
    8880022    1    1    2    0    0 -0.15393189892E+04 -0.19831651377E+03  0.12587500393E+04  0.20041645902E+04  0.15294330000E+03 0.  0.
<mgrwt>
<rscale>  0 0.16534699E+04</rscale>
<asrwt>0</asrwt>
<pdfrwt beam="1">  1        2 0.49983479E+00 0.16860138E+04</pdfrwt>
<pdfrwt beam="2">  1       -2 0.28900598E+00 0.16860138E+04</pdfrwt>
<totfact> 0.41069856E-02</totfact>
</mgrwt>
</event>
<event>
 4    5  0.1905771E-007  0.1179458E+04  0.7818608E-02  0.9177354E-01
         -2   -1    0    0    0  501 -0.00000000000E+00  0.00000000000E+00  0.13560678382E+04  0.13560678382E+04  0.25500000000E-02 0.  1.
          2   -1    0    0  501    0  0.00000000000E+00 -0.00000000000E+00 -0.13710840202E+04  0.13710840202E+04  0.25500000000E-02 0. -1.
    8880023    1    1    2    0    0  0.16783400012E+03  0.96392057514E+03 -0.83196958266E+03  0.14433622967E+04  0.65864270000E+03 0.  0.
    8880022    1    1    2    0    0 -0.16783400012E+03 -0.96392057514E+03  0.81695340064E+03  0.12837895616E+04  0.15294330000E+03 0.  0.
<mgrwt>
<rscale>  0 0.11290263E+04</rscale>
<asrwt>0</asrwt>
<pdfrwt beam="1">  1        2 0.21093600E+00 0.11794581E+04</pdfrwt>
<pdfrwt beam="2">  1       -2 0.20862582E+00 0.11794581E+04</pdfrwt>
<totfact> 0.17088255E+00</totfact>
</mgrwt>
</event>
<event>
 4    5  0.2394522E-007  0.7023436E+03  0.7818608E-02  0.9987614E-01
          2   -1    0    0  501    0  0.00000000000E+00  0.00000000000E+00  0.20036009810E+04  0.20036009810E+04  0.25500000000E-02 0. -1.
         -2   -1    0    0    0  501 -0.00000000000E+00 -0.00000000000E+00 -0.12231756356E+04  0.12231756356E+04  0.25500000000E-02 0.  1.
    8880023    1    1    2    0    0  0.23274620523E+03 -0.72839137893E+02  0.19236549453E+04  0.20478610526E+04  0.65864270000E+03 0. -1.
    8880022    1    1    2    0    0 -0.23274620523E+03  0.72839137893E+02 -0.11432295999E+04  0.11789155641E+04  0.15294330000E+03 0.  0.
<mgrwt>
<rscale>  0 0.56196669E+03</rscale>
<asrwt>0</asrwt>
<pdfrwt beam="1">  1        2 0.30824630E+00 0.70234361E+03</pdfrwt>
<pdfrwt beam="2">  1       -2 0.18818087E+00 0.70234361E+03</pdfrwt>
<totfact> 0.11160302E+00</totfact>
</mgrwt>
</event>
<event>
 4    5  0.1905771E-007  0.6761247E+03  0.7818608E-02  0.1011607E+00
         -2   -1    0    0    0  501 -0.00000000000E+00  0.00000000000E+00  0.35623673754E+03  0.35623673755E+03  0.25500000000E-02 0.  1.
          2   -1    0    0  501    0  0.00000000000E+00 -0.00000000000E+00 -0.11839348165E+04  0.11839348165E+04  0.25500000000E-02 0. -1.
    8880023    1    1    2    0    0 -0.13897083832E+03 -0.63414996298E+02 -0.10378713080E+04  0.12386772840E+04  0.65864270000E+03 0. -1.
    8880022    1    1    2    0    0  0.13897083832E+03  0.63414996298E+02  0.21017322904E+03  0.30149427006E+03  0.15294330000E+03 0.  0.
<mgrwt>
<rscale>  0 0.50841098E+03</rscale>
<asrwt>0</asrwt>
<pdfrwt beam="1">  1        2 0.18214382E+00 0.67612466E+03</pdfrwt>
<pdfrwt beam="2">  1       -2 0.54805653E-01 0.67612466E+03</pdfrwt>
<totfact> 0.62110890E+01</totfact>
</mgrwt>
</event>
<event>
 4    5  0.1905771E-007  0.1688670E+04  0.7818608E-02  0.8786756E-01
          2   -1    0    0  501    0  0.00000000000E+00  0.00000000000E+00  0.20705492395E+04  0.20705492395E+04  0.25500000000E-02 0. -1.
         -2   -1    0    0    0  501 -0.00000000000E+00 -0.00000000000E+00 -0.13680952780E+04  0.13680952781E+04  0.25500000000E-02 0.  1.
    8880023    1    1    2    0    0  0.13017673692E+04  0.85041046338E+03  0.80926160276E+03  0.18725679661E+04  0.65864270000E+03 0.  0.
    8880022    1    1    2    0    0 -0.13017673692E+04 -0.85041046338E+03 -0.10680764130E+03  0.15660765515E+04  0.15294330000E+03 0.  0.
<mgrwt>
<rscale>  0 0.16561846E+04</rscale>
<asrwt>0</asrwt>
<pdfrwt beam="1">  1        2 0.31854604E+00 0.16886700E+04</pdfrwt>
<pdfrwt beam="2">  1       -2 0.21047620E+00 0.16886700E+04</pdfrwt>
<totfact> 0.63955979E-01</totfact>
</mgrwt>
</event>
<event>
 4    5  0.1905771E-007  0.9497871E+03  0.7818608E-02  0.9450420E-01
          2   -1    0    0  501    0  0.00000000000E+00  0.00000000000E+00  0.84366239212E+03  0.84366239212E+03  0.25500000000E-02 0. -1.
         -2   -1    0    0    0  501 -0.00000000000E+00 -0.00000000000E+00 -0.17755018418E+04  0.17755018418E+04  0.25500000000E-02 0.  1.
    8880023    1    1    2    0    0  0.73317194996E+02 -0.68037480724E+03  0.46402445194E+03  0.10570781370E+04  0.65864270000E+03 0.  0.
    8880022    1    1    2    0    0 -0.73317194996E+02  0.68037480724E+03 -0.13958639017E+04  0.15620860970E+04  0.15294330000E+03 0.  0.
<mgrwt>
<rscale>  0 0.88039927E+03</rscale>
<asrwt>0</asrwt>
<pdfrwt beam="1">  1        2 0.12979421E+00 0.94978708E+03</pdfrwt>
<pdfrwt beam="2">  1       -2 0.27315413E+00 0.94978708E+03</pdfrwt>
<totfact> 0.14969718E+00</totfact>
</mgrwt>
</event>
<event>
 4    5  0.1905771E-007  0.9017264E+03  0.7818608E-02  0.9523266E-01
         -2   -1    0    0    0  501 -0.00000000000E+00  0.00000000000E+00  0.74900833945E+03  0.74900833945E+03  0.25500000000E-02 0.  1.
          2   -1    0    0  501    0  0.00000000000E+00 -0.00000000000E+00 -0.85663217012E+03  0.85663217013E+03  0.25500000000E-02 0. -1.
    8880023    1    1    2    0    0  0.25990982949E+03  0.55834318301E+03 -0.28682223430E+03  0.94624385326E+03  0.65864270000E+03 0. -1.
    8880022    1    1    2    0    0 -0.25990982949E+03 -0.55834318301E+03  0.17919840363E+03  0.65939665631E+03  0.15294330000E+03 0.  0.
<mgrwt>
<rscale>  0 0.82590042E+03</rscale>
<asrwt>0</asrwt>
<pdfrwt beam="1">  1        2 0.13178956E+00 0.90172636E+03</pdfrwt>
<pdfrwt beam="2">  1       -2 0.11523205E+00 0.90172636E+03</pdfrwt>
<totfact> 0.18445736E+01</totfact>
</mgrwt>
</event>
<event>
 4    5  0.1905771E-007  0.6747748E+03  0.7818608E-02  0.1012449E+00
          2   -1    0    0  501    0  0.00000000000E+00  0.00000000000E+00  0.20569844746E+04  0.20569844746E+04  0.25500000000E-02 0. -1.
         -2   -1    0    0    0  501 -0.00000000000E+00 -0.00000000000E+00 -0.33560733990E+03  0.33560733991E+03  0.25500000000E-02 0.  1.
    8880023    1    1    2    0    0  0.10433801695E+03 -0.10307460381E+03  0.19603313966E+04  0.20732149398E+04  0.65864270000E+03 0. -1.
    8880022    1    1    2    0    0 -0.10433801695E+03  0.10307460381E+03 -0.23895426198E+03  0.31937687466E+03  0.15294330000E+03 0.  0.
<mgrwt>
<rscale>  0 0.50512968E+03</rscale>
<asrwt>0</asrwt>
<pdfrwt beam="1">  1        2 0.31645916E+00 0.67477478E+03</pdfrwt>
<pdfrwt beam="2">  1       -2 0.51631897E-01 0.67477478E+03</pdfrwt>
<totfact> 0.23020507E+01</totfact>
</mgrwt>
</event>
<event>
 4    5  0.1905771E-007  0.7337575E+03  0.7818608E-02  0.9878519E-01
          2   -1    0    0  501    0  0.00000000000E+00  0.00000000000E+00  0.28760381255E+04  0.28760381255E+04  0.25500000000E-02 0. -1.
         -2   -1    0    0    0  501 -0.00000000000E+00 -0.00000000000E+00 -0.85718509829E+03  0.85718509829E+03  0.25500000000E-02 0.  1.
    8880023    1    1    2    0    0  0.11674321443E+03  0.30159722513E+03  0.27890721744E+04  0.28839770569E+04  0.65864270000E+03 0. -1.
    8880022    1    1    2    0    0 -0.11674321443E+03 -0.30159722513E+03 -0.77021914718E+03  0.84924616692E+03  0.15294330000E+03 0.  0.
<mgrwt>
<rscale>  0 0.61313742E+03</rscale>
<asrwt>0</asrwt>
<pdfrwt beam="1">  1        2 0.44246741E+00 0.73375750E+03</pdfrwt>
<pdfrwt beam="2">  1       -2 0.13187463E+00 0.73375750E+03</pdfrwt>
<totfact> 0.92963182E-01</totfact>
</mgrwt>
</event>
<event>
 4    5  0.1905771E-007  0.7062270E+03  0.7818608E-02  0.9972288E-01
          2   -1    0    0  501    0  0.00000000000E+00  0.00000000000E+00  0.29204112785E+04  0.29204112785E+04  0.25500000000E-02 0. -1.
         -2   -1    0    0    0  501 -0.00000000000E+00 -0.00000000000E+00 -0.18852139205E+03  0.18852139207E+03  0.25500000000E-02 0.  1.
    8880023    1    1    2    0    0  0.21471254555E+03 -0.13727657099E+03  0.27213865568E+04  0.28115300695E+04  0.65864270000E+03 0. -1.
    8880022    1    1    2    0    0 -0.21471254555E+03  0.13727657099E+03  0.10503329676E+02  0.29740260104E+03  0.15294330000E+03 0.  0.
<mgrwt>
<rscale>  0 0.56882237E+03</rscale>
<asrwt>0</asrwt>
<pdfrwt beam="1">  1        2 0.44929400E+00 0.70622698E+03</pdfrwt>
<pdfrwt beam="2">  1       -2 0.29003294E-01 0.70622698E+03</pdfrwt>
<totfact> 0.22667523E+01</totfact>
</mgrwt>
</event>
<event>
 4    5  0.1905771E-007  0.7597276E+03  0.7818608E-02  0.9805813E-01
         -2   -1    0    0    0  501 -0.00000000000E+00  0.00000000000E+00  0.22743490646E+03  0.22743490648E+03  0.25500000000E-02 0.  1.
          2   -1    0    0  501    0  0.00000000000E+00 -0.00000000000E+00 -0.24803794115E+04  0.24803794115E+04  0.25500000000E-02 0. -1.
    8880023    1    1    2    0    0 -0.23180979415E+03 -0.29939940505E+03 -0.21590088578E+04  0.22887781105E+04  0.65864270000E+03 0. -1.
    8880022    1    1    2    0    0  0.23180979415E+03  0.29939940505E+03 -0.93935647230E+02  0.41903620756E+03  0.15294330000E+03 0.  0.
<mgrwt>
<rscale>  0 0.65051501E+03</rscale>
<asrwt>0</asrwt>
<pdfrwt beam="1">  1        2 0.38159681E+00 0.75972758E+03</pdfrwt>
<pdfrwt beam="2">  1       -2 0.34989987E-01 0.75972758E+03</pdfrwt>
<totfact> 0.28534944E+01</totfact>
</mgrwt>
</event>
<event>
 4    5  0.1905771E-007  0.1823744E+04  0.7818608E-02  0.8709515E-01
         -2   -1    0    0    0  501 -0.00000000000E+00  0.00000000000E+00  0.10341238339E+04  0.10341238339E+04  0.25500000000E-02 0.  1.
          2   -1    0    0  501    0  0.00000000000E+00 -0.00000000000E+00 -0.31283537733E+04  0.31283537733E+04  0.25500000000E-02 0. -1.
    8880023    1    1    2    0    0  0.17001900869E+04 -0.39826634592E+02 -0.68364130194E+03  0.19476673557E+04  0.65864270000E+03 0.  0.
    8880022    1    1    2    0    0 -0.17001900869E+04  0.39826634592E+02 -0.14105886375E+04  0.22148102514E+04  0.15294330000E+03 0.  0.
<mgrwt>
<rscale>  0 0.17939667E+04</rscale>
<asrwt>0</asrwt>
<pdfrwt beam="1">  1        2 0.48128519E+00 0.18237441E+04</pdfrwt>
<pdfrwt beam="2">  1       -2 0.15909598E+00 0.18237441E+04</pdfrwt>
<totfact> 0.33793338E-01</totfact>
</mgrwt>
</event>
<event>
 4    5  0.1905771E-007  0.8685164E+03  0.7818608E-02  0.9578590E-01
         -2   -1    0    0    0  501 -0.00000000000E+00  0.00000000000E+00  0.23729842578E+03  0.23729842580E+03  0.25500000000E-02 0.  1.
          2   -1    0    0  501    0  0.00000000000E+00 -0.00000000000E+00 -0.33583463410E+04  0.33583463410E+04  0.25500000000E-02 0. -1.
    8880023    1    1    2    0    0  0.10404033273E+02 -0.56604082740E+03 -0.27903601567E+04  0.29224014907E+04  0.65864270000E+03 0. -1.
    8880022    1    1    2    0    0 -0.10404033273E+02  0.56604082740E+03 -0.33068775846E+03  0.67324327609E+03  0.15294330000E+03 0. -1.
<mgrwt>
<rscale>  0 0.78729566E+03</rscale>
<asrwt>0</asrwt>
<pdfrwt beam="1">  1        2 0.51666864E+00 0.86851636E+03</pdfrwt>
<pdfrwt beam="2">  1       -2 0.36507452E-01 0.86851636E+03</pdfrwt>
<totfact> 0.75739560E+00</totfact>
</mgrwt>
</event>
<event>
 4    5  0.1905771E-007  0.1913336E+04  0.7818608E-02  0.8662305E-01
          2   -1    0    0  501    0  0.00000000000E+00  0.00000000000E+00  0.39280317062E+04  0.39280317062E+04  0.25500000000E-02 0. -1.
         -2   -1    0    0    0  501 -0.00000000000E+00 -0.00000000000E+00 -0.16924476276E+04  0.16924476276E+04  0.25500000000E-02 0.  1.
    8880023    1    1    2    0    0 -0.88496664308E+03  0.15632909310E+04  0.30829171651E+04  0.36283926121E+04  0.65864270000E+03 0.  0.
    8880022    1    1    2    0    0  0.88496664308E+03 -0.15632909310E+04 -0.84733308653E+03  0.19920867217E+04  0.15294330000E+03 0.  0.
<mgrwt>
<rscale>  0 0.18851076E+04</rscale>
<asrwt>0</asrwt>
<pdfrwt beam="1">  1        2 0.60431256E+00 0.19133360E+04</pdfrwt>
<pdfrwt beam="2">  1       -2 0.26037656E+00 0.19133360E+04</pdfrwt>
<totfact> 0.19482578E-02</totfact>
</mgrwt>
</event>
<event>
 4    5  0.1905771E-007  0.8634879E+03  0.7818608E-02  0.9587389E-01
          2   -1    0    0  501    0  0.00000000000E+00  0.00000000000E+00  0.24460845105E+04  0.24460845105E+04  0.25500000000E-02 0. -1.
         -2   -1    0    0    0  501 -0.00000000000E+00 -0.00000000000E+00 -0.99348375084E+03  0.99348375084E+03  0.25500000000E-02 0.  1.
    8880023    1    1    2    0    0 -0.40741903256E+03  0.38185185766E+03  0.22752619414E+04  0.24336039566E+04  0.65864270000E+03 0.  0.
    8880022    1    1    2    0    0  0.40741903256E+03 -0.38185185766E+03 -0.82266118179E+03  0.10059643047E+04  0.15294330000E+03 0.  0.
<mgrwt>
<rscale>  0 0.78136511E+03</rscale>
<asrwt>0</asrwt>
<pdfrwt beam="1">  1        2 0.37632070E+00 0.86348788E+03</pdfrwt>
<pdfrwt beam="2">  1       -2 0.15284365E+00 0.86348788E+03</pdfrwt>
<totfact> 0.10957018E+00</totfact>
</mgrwt>
</event>
<event>
 4    5  0.1905771E-007  0.8106257E+03  0.7818608E-02  0.9688275E-01
         -2   -1    0    0    0  501 -0.00000000000E+00  0.00000000000E+00  0.18439136022E+03  0.18439136024E+03  0.25500000000E-02 0.  1.
          2   -1    0    0  501    0  0.00000000000E+00 -0.00000000000E+00 -0.26053609515E+04  0.26053609515E+04  0.25500000000E-02 0. -1.
    8880023    1    1    2    0    0  0.47254749417E+03 -0.16286126667E+01 -0.19208889860E+04  0.20849288931E+04  0.65864270000E+03 0.  0.
    8880022    1    1    2    0    0 -0.47254749417E+03  0.16286126667E+01 -0.50008060529E+03  0.70482341861E+03  0.15294330000E+03 0.  0.
<mgrwt>
<rscale>  0 0.71719195E+03</rscale>
<asrwt>0</asrwt>
<pdfrwt beam="1">  1        2 0.40082473E+00 0.81062568E+03</pdfrwt>
<pdfrwt beam="2">  1       -2 0.28367903E-01 0.81062568E+03</pdfrwt>
<totfact> 0.35616639E+01</totfact>
</mgrwt>
</event>
<event>
 4    5  0.1905771E-007  0.9856263E+03  0.7818608E-02  0.9400609E-01
         -2   -1    0    0    0  501 -0.00000000000E+00  0.00000000000E+00  0.60776358960E+03  0.60776358961E+03  0.25500000000E-02 0.  1.
          2   -1    0    0  501    0  0.00000000000E+00 -0.00000000000E+00 -0.25204855757E+04  0.25204855757E+04  0.25500000000E-02 0. -1.
    8880023    1    1    2    0    0 -0.44156455946E+03  0.58538003633E+03 -0.21311422109E+04  0.23480260596E+04  0.65864270000E+03 0.  0.
    8880022    1    1    2    0    0  0.44156455946E+03 -0.58538003633E+03  0.21842022480E+03  0.78022310574E+03  0.15294330000E+03 0.  0.
<mgrwt>
<rscale>  0 0.92025570E+03</rscale>
<asrwt>0</asrwt>
<pdfrwt beam="1">  1        2 0.38776701E+00 0.98562633E+03</pdfrwt>
<pdfrwt beam="2">  1       -2 0.93502092E-01 0.98562633E+03</pdfrwt>
<totfact> 0.33139859E+00</totfact>
</mgrwt>
</event>
<event>
 4    5  0.1905771E-007  0.1163379E+04  0.7818608E-02  0.9193569E-01
          2   -1    0    0  501    0  0.00000000000E+00  0.00000000000E+00  0.14100412802E+04  0.14100412802E+04  0.25500000000E-02 0. -1.
         -2   -1    0    0    0  501 -0.00000000000E+00 -0.00000000000E+00 -0.11174671374E+04  0.11174671374E+04  0.25500000000E-02 0.  1.
    8880023    1    1    2    0    0  0.91817677827E+03 -0.27675353638E+03  0.81914550052E+03  0.14228319203E+04  0.65864270000E+03 0.  0.
    8880022    1    1    2    0    0 -0.91817677827E+03  0.27675353638E+03 -0.52657135769E+03  0.11046764974E+04  0.15294330000E+03 0.  0.
<mgrwt>
<rscale>  0 0.11120053E+04</rscale>
<asrwt>0</asrwt>
<pdfrwt beam="1">  1        2 0.21692943E+00 0.11633793E+04</pdfrwt>
<pdfrwt beam="2">  1       -2 0.17191802E+00 0.11633793E+04</pdfrwt>
<totfact> 0.28742695E+00</totfact>
</mgrwt>
</event>
<event>
 4    5  0.1905771E-007  0.8615710E+03  0.7818608E-02  0.9590775E-01
          2   -1    0    0  501    0  0.00000000000E+00  0.00000000000E+00  0.11152257984E+04  0.11152257984E+04  0.25500000000E-02 0. -1.
         -2   -1    0    0    0  501 -0.00000000000E+00 -0.00000000000E+00 -0.66866084781E+03  0.66866084781E+03  0.25500000000E-02 0.  1.
    8880023    1    1    2    0    0  0.49414078284E+02  0.55322025670E+03  0.74146866358E+03  0.11366971404E+04  0.65864270000E+03 0. -1.
    8880022    1    1    2    0    0 -0.49414078284E+02 -0.55322025670E+03 -0.29490371299E+03  0.64718950586E+03  0.15294330000E+03 0.  0.
<mgrwt>
<rscale>  0 0.77909772E+03</rscale>
<asrwt>0</asrwt>
<pdfrwt beam="1">  1        2 0.17157320E+00 0.86157101E+03</pdfrwt>
<pdfrwt beam="2">  1       -2 0.10287090E+00 0.86157101E+03</pdfrwt>
<totfact> 0.16564779E+01</totfact>
</mgrwt>
</event>
<event>
 4    5  0.1905771E-007  0.1329602E+04  0.7818608E-02  0.9040409E-01
          2   -1    0    0  501    0  0.00000000000E+00  0.00000000000E+00  0.26744102386E+04  0.26744102386E+04  0.25500000000E-02 0. -1.
         -2   -1    0    0    0  501 -0.00000000000E+00 -0.00000000000E+00 -0.89617987106E+03  0.89617987106E+03  0.25500000000E-02 0.  1.
    8880023    1    1    2    0    0  0.10721387152E+04  0.42959377564E+03  0.19831515879E+04  0.23876207118E+04  0.65864270000E+03 0. -1.
    8880022    1    1    2    0    0 -0.10721387152E+04 -0.42959377564E+03 -0.20492122031E+03  0.11829693979E+04  0.15294330000E+03 0.  0.
<mgrwt>
<rscale>  0 0.12864140E+04</rscale>
<asrwt>0</asrwt>
<pdfrwt beam="1">  1        2 0.41144773E+00 0.13296024E+04</pdfrwt>
<pdfrwt beam="2">  1       -2 0.13787383E+00 0.13296024E+04</pdfrwt>
<totfact> 0.99222686E-01</totfact>
</mgrwt>
</event>
<event>
 4    5  0.2241975E-007  0.7627752E+03  0.7818608E-02  0.9797975E-01
          2   -1    0    0  501    0  0.00000000000E+00  0.00000000000E+00  0.17294099220E+04  0.17294099220E+04  0.25500000000E-02 0. -1.
         -2   -1    0    0    0  501 -0.00000000000E+00 -0.00000000000E+00 -0.10481665259E+04  0.10481665259E+04  0.25500000000E-02 0.  1.
    8880023    1    1    2    0    0 -0.38367578519E+03  0.28436592926E+02  0.15985261189E+04  0.17711893482E+04  0.65864270000E+03 0. -1.
    8880022    1    1    2    0    0  0.38367578519E+03 -0.28436592926E+02 -0.91728272281E+03  0.10063870997E+04  0.15294330000E+03 0.  0.
<mgrwt>
<rscale>  0 0.65471321E+03</rscale>
<asrwt>0</asrwt>
<pdfrwt beam="1">  1        2 0.26606306E+00 0.76277517E+03</pdfrwt>
<pdfrwt beam="2">  1       -2 0.16125639E+00 0.76277517E+03</pdfrwt>
<totfact> 0.23987820E+00</totfact>
</mgrwt>
</event>
<event>
 4    5  0.1905771E-007  0.6844680E+03  0.7818608E-02  0.1006901E+00
         -2   -1    0    0    0  501 -0.00000000000E+00  0.00000000000E+00  0.81560526250E+03  0.81560526251E+03  0.25500000000E-02 0.  1.
          2   -1    0    0  501    0  0.00000000000E+00 -0.00000000000E+00 -0.32164298595E+03  0.32164298596E+03  0.25500000000E-02 0. -1.
    8880023    1    1    2    0    0 -0.48619817342E+02  0.17978431214E+03  0.12383729412E+03  0.69558045344E+03  0.65864270000E+03 0. -1.
    8880022    1    1    2    0    0  0.48619817342E+02 -0.17978431214E+03  0.37012498243E+03  0.44166779502E+03  0.15294330000E+03 0.  0.
<mgrwt>
<rscale>  0 0.52724962E+03</rscale>
<asrwt>0</asrwt>
<pdfrwt beam="1">  1        2 0.49483536E-01 0.68446804E+03</pdfrwt>
<pdfrwt beam="2">  1       -2 0.12547773E+00 0.68446804E+03</pdfrwt>
<totfact> 0.48957232E+01</totfact>
</mgrwt>
</event>
<event>
 4    5  0.1905771E-007  0.7455924E+03  0.7818608E-02  0.9843946E-01
          2   -1    0    0  501    0  0.00000000000E+00  0.00000000000E+00  0.13999533684E+04  0.13999533684E+04  0.25500000000E-02 0. -1.
         -2   -1    0    0    0  501 -0.00000000000E+00 -0.00000000000E+00 -0.28959846686E+03  0.28959846687E+03  0.25500000000E-02 0.  1.
    8880023    1    1    2    0    0 -0.13463917418E+03  0.32244402515E+03  0.10725621169E+04  0.13062532517E+04  0.65864270000E+03 0. -1.
    8880022    1    1    2    0    0  0.13463917418E+03 -0.32244402515E+03  0.37792784579E+02  0.38329858356E+03  0.15294330000E+03 0.  0.
<mgrwt>
<rscale>  0 0.63056531E+03</rscale>
<asrwt>0</asrwt>
<pdfrwt beam="1">  1        2 0.21537744E+00 0.74559242E+03</pdfrwt>
<pdfrwt beam="2">  1       -2 0.44553610E-01 0.74559242E+03</pdfrwt>
<totfact> 0.70474926E+01</totfact>
</mgrwt>
</event>
<event>
 4    5  0.1905771E-007  0.1259684E+04  0.7818608E-02  0.9101181E-01
          2   -1    0    0  501    0  0.00000000000E+00  0.00000000000E+00  0.24774938161E+04  0.24774938161E+04  0.25500000000E-02 0. -1.
         -2   -1    0    0    0  501 -0.00000000000E+00 -0.00000000000E+00 -0.63210819945E+03  0.63210819946E+03  0.25500000000E-02 0.  1.
    8880023    1    1    2    0    0  0.67304724121E+03 -0.83666099388E+03  0.15263769320E+04  0.19790479915E+04  0.65864270000E+03 0.  0.
    8880022    1    1    2    0    0 -0.67304724121E+03  0.83666099388E+03  0.31900868463E+03  0.11305540241E+04  0.15294330000E+03 0.  0.
<mgrwt>
<rscale>  0 0.12134308E+04</rscale>
<asrwt>0</asrwt>
<pdfrwt beam="1">  1        2 0.38115290E+00 0.12596843E+04</pdfrwt>
<pdfrwt beam="2">  1       -2 0.97247415E-01 0.12596843E+04</pdfrwt>
<totfact> 0.30919392E+00</totfact>
</mgrwt>
</event>
<event>
 4    5  0.1905771E-007  0.9833514E+03  0.7818608E-02  0.9403671E-01
         -2   -1    0    0    0  501 -0.00000000000E+00  0.00000000000E+00  0.98887561290E+03  0.98887561290E+03  0.25500000000E-02 0.  1.
          2   -1    0    0  501    0  0.00000000000E+00 -0.00000000000E+00 -0.16562687129E+04  0.16562687129E+04  0.25500000000E-02 0. -1.
    8880023    1    1    2    0    0 -0.10988307605E+03  0.72186949391E+03 -0.13254257638E+04  0.16503737511E+04  0.65864270000E+03 0. -1.
    8880022    1    1    2    0    0  0.10988307605E+03 -0.72186949391E+03  0.65803266381E+03  0.99477057471E+03  0.15294330000E+03 0.  0.
<mgrwt>
<rscale>  0 0.91774223E+03</rscale>
<asrwt>0</asrwt>
<pdfrwt beam="1">  1        2 0.25481057E+00 0.98335144E+03</pdfrwt>
<pdfrwt beam="2">  1       -2 0.15213471E+00 0.98335144E+03</pdfrwt>
<totfact> 0.29811631E+00</totfact>
</mgrwt>
</event>
<event>
 4    5  0.2296015E-007  0.1385263E+04  0.7818608E-02  0.8995219E-01
         -2   -1    0    0    0  501 -0.00000000000E+00  0.00000000000E+00  0.20523776804E+04  0.20523776804E+04  0.25500000000E-02 0.  1.
          2   -1    0    0  501    0  0.00000000000E+00 -0.00000000000E+00 -0.23755129198E+04  0.23755129198E+04  0.25500000000E-02 0. -1.
    8880023    1    1    2    0    0  0.93212985218E+03  0.78503338242E+03 -0.19484488613E+04  0.23906916665E+04  0.65864270000E+03 0.  0.
    8880022    1    1    2    0    0 -0.93212985218E+03 -0.78503338242E+03  0.16253136219E+04  0.20371989337E+04  0.15294330000E+03 0.  0.
<mgrwt>
<rscale>  0 0.13442146E+04</rscale>
<asrwt>0</asrwt>
<pdfrwt beam="1">  1        2 0.36546353E+00 0.13852630E+04</pdfrwt>
<pdfrwt beam="2">  1       -2 0.31575041E+00 0.13852630E+04</pdfrwt>
<totfact> 0.99574798E-02</totfact>
</mgrwt>
</event>
<event>
 4    5  0.1905771E-007  0.7059565E+03  0.7818608E-02  0.9973334E-01
          2   -1    0    0  501    0  0.00000000000E+00  0.00000000000E+00  0.16373952195E+04  0.16373952195E+04  0.25500000000E-02 0. -1.
         -2   -1    0    0    0  501 -0.00000000000E+00 -0.00000000000E+00 -0.37587963042E+03  0.37587963043E+03  0.25500000000E-02 0.  1.
    8880023    1    1    2    0    0  0.54632910317E+02  0.24815243568E+03  0.14834446924E+04  0.16428581034E+04  0.65864270000E+03 0.  0.
    8880022    1    1    2    0    0 -0.54632910317E+02 -0.24815243568E+03 -0.22192910329E+03  0.37041674655E+03  0.15294330000E+03 0.  0.
<mgrwt>
<rscale>  0 0.56835105E+03</rscale>
<asrwt>0</asrwt>
<pdfrwt beam="1">  1        2 0.25190696E+00 0.70595651E+03</pdfrwt>
<pdfrwt beam="2">  1       -2 0.57827635E-01 0.70595651E+03</pdfrwt>
<totfact> 0.30677582E+01</totfact>
</mgrwt>
</event>
<event>
 4    5  0.1905771E-007  0.8466787E+03  0.7818608E-02  0.9617713E-01
         -2   -1    0    0    0  501 -0.00000000000E+00  0.00000000000E+00  0.90607663184E+03  0.90607663184E+03  0.25500000000E-02 0.  1.
          2   -1    0    0  501    0  0.00000000000E+00 -0.00000000000E+00 -0.74104040609E+03  0.74104040610E+03  0.25500000000E-02 0. -1.
    8880023    1    1    2    0    0 -0.38531512215E+03 -0.36686088090E+03 -0.32587389235E+03  0.90722579839E+03  0.65864270000E+03 0.  0.
    8880022    1    1    2    0    0  0.38531512215E+03  0.36686088090E+03  0.49091011810E+03  0.73989123954E+03  0.15294330000E+03 0.  0.
<mgrwt>
<rscale>  0 0.76134812E+03</rscale>
<asrwt>0</asrwt>
<pdfrwt beam="1">  1        2 0.11400622E+00 0.84667872E+03</pdfrwt>
<pdfrwt beam="2">  1       -2 0.13939640E+00 0.84667872E+03</pdfrwt>
<totfact> 0.13910122E+01</totfact>
</mgrwt>
</event>
<event>
 4    5  0.1905771E-007  0.9403603E+03  0.7818608E-02  0.9464121E-01
          2   -1    0    0  501    0  0.00000000000E+00  0.00000000000E+00  0.26022287572E+04  0.26022287572E+04  0.25500000000E-02 0. -1.
         -2   -1    0    0    0  501 -0.00000000000E+00 -0.00000000000E+00 -0.67172037361E+03  0.67172037361E+03  0.25500000000E-02 0.  1.
    8880023    1    1    2    0    0 -0.45299007336E+03  0.49524463640E+03  0.23056151796E+04  0.24900077950E+04  0.65864270000E+03 0.  0.
    8880022    1    1    2    0    0  0.45299007336E+03 -0.49524463640E+03 -0.37510679607E+03  0.78394133577E+03  0.15294330000E+03 0.  0.
<mgrwt>
<rscale>  0 0.86981489E+03</rscale>
<asrwt>0</asrwt>
<pdfrwt beam="1">  1        2 0.40034289E+00 0.94036028E+03</pdfrwt>
<pdfrwt beam="2">  1       -2 0.10334159E+00 0.94036028E+03</pdfrwt>
<totfact> 0.23621644E+00</totfact>
</mgrwt>
</event>
<event>
 4    5  0.1905771E-007  0.8850213E+03  0.7818608E-02  0.9550518E-01
         -2   -1    0    0    0  501 -0.00000000000E+00  0.00000000000E+00  0.26517385031E+04  0.26517385031E+04  0.25500000000E-02 0.  1.
          2   -1    0    0  501    0  0.00000000000E+00 -0.00000000000E+00 -0.12929932698E+04  0.12929932698E+04  0.25500000000E-02 0. -1.
    8880023    1    1    2    0    0 -0.53947319424E+03 -0.24170467174E+03 -0.10996978157E+04  0.14115941229E+04  0.65864270000E+03 0.  0.
    8880022    1    1    2    0    0  0.53947319424E+03  0.24170467174E+03  0.24584430490E+04  0.25331376500E+04  0.15294330000E+03 0.  0.
<mgrwt>
<rscale>  0 0.80659626E+03</rscale>
<asrwt>0</asrwt>
<pdfrwt beam="1">  1        2 0.19892205E+00 0.88502129E+03</pdfrwt>
<pdfrwt beam="2">  1       -2 0.40795976E+00 0.88502129E+03</pdfrwt>
<totfact> 0.11437244E-01</totfact>
</mgrwt>
</event>
<event>
 4    5  0.1905771E-007  0.1807649E+04  0.7818608E-02  0.8718317E-01
         -2   -1    0    0    0  501 -0.00000000000E+00  0.00000000000E+00  0.13645651005E+04  0.13645651005E+04  0.25500000000E-02 0.  1.
          2   -1    0    0  501    0  0.00000000000E+00 -0.00000000000E+00 -0.27039921471E+04  0.27039921471E+04  0.25500000000E-02 0. -1.
    8880023    1    1    2    0    0  0.46428476638E+03  0.16180926893E+04  0.15240766659E+03  0.18140624572E+04  0.65864270000E+03 0.  0.
    8880022    1    1    2    0    0 -0.46428476638E+03 -0.16180926893E+04 -0.14918347132E+04  0.22544947904E+04  0.15294330000E+03 0.  0.
<mgrwt>
<rscale>  0 0.17775740E+04</rscale>
<asrwt>0</asrwt>
<pdfrwt beam="1">  1        2 0.41599879E+00 0.18076489E+04</pdfrwt>
<pdfrwt beam="2">  1       -2 0.20993309E+00 0.18076489E+04</pdfrwt>
<totfact> 0.27528290E-01</totfact>
</mgrwt>
</event>
<event>
 4    5  0.1905771E-007  0.7574704E+03  0.7818608E-02  0.9811701E-01
         -2   -1    0    0    0  501 -0.00000000000E+00  0.00000000000E+00  0.14123444470E+04  0.14123444470E+04  0.25500000000E-02 0.  1.
          2   -1    0    0  501    0  0.00000000000E+00 -0.00000000000E+00 -0.46531494598E+03  0.46531494599E+03  0.25500000000E-02 0. -1.
    8880023    1    1    2    0    0  0.20537529616E+02 -0.37353645799E+03 -0.91768919113E+02  0.76300918497E+03  0.65864270000E+03 0. -1.
    8880022    1    1    2    0    0 -0.20537529616E+02  0.37353645799E+03  0.10387984202E+04  0.11146502081E+04  0.15294330000E+03 0.  0.
<mgrwt>
<rscale>  0 0.64738378E+03</rscale>
<asrwt>0</asrwt>
<pdfrwt beam="1">  1        2 0.71586915E-01 0.75747045E+03</pdfrwt>
<pdfrwt beam="2">  1       -2 0.21728376E+00 0.75747045E+03</pdfrwt>
<totfact> 0.70287923E+00</totfact>
</mgrwt>
</event>
<event>
 4    5  0.1905771E-007  0.1295036E+04  0.7818608E-02  0.9069859E-01
          2   -1    0    0  501    0  0.00000000000E+00  0.00000000000E+00  0.11809942497E+04  0.11809942497E+04  0.25500000000E-02 0. -1.
         -2   -1    0    0    0  501 -0.00000000000E+00 -0.00000000000E+00 -0.13353354383E+04  0.13353354383E+04  0.25500000000E-02 0.  1.
    8880023    1    1    2    0    0  0.57354806694E+03  0.95621618744E+03 -0.41717447508E+03  0.13605702963E+04  0.65864270000E+03 0.  0.
    8880022    1    1    2    0    0 -0.57354806694E+03 -0.95621618744E+03  0.26283328644E+03  0.11557593918E+04  0.15294330000E+03 0.  0.
<mgrwt>
<rscale>  0 0.12503898E+04</rscale>
<asrwt>0</asrwt>
<pdfrwt beam="1">  1        2 0.18169142E+00 0.12950355E+04</pdfrwt>
<pdfrwt beam="2">  1       -2 0.20543622E+00 0.12950355E+04</pdfrwt>
<totfact> 0.22936270E+00</totfact>
</mgrwt>
</event>
<event>
 4    5  0.1905771E-007  0.1455756E+04  0.7818608E-02  0.8941527E-01
         -2   -1    0    0    0  501 -0.00000000000E+00  0.00000000000E+00  0.93046635806E+03  0.93046635806E+03  0.25500000000E-02 0.  1.
          2   -1    0    0  501    0  0.00000000000E+00 -0.00000000000E+00 -0.23184127460E+04  0.23184127460E+04  0.25500000000E-02 0. -1.
    8880023    1    1    2    0    0  0.71707344491E+02  0.12962534179E+04 -0.12778453173E+04  0.19370373584E+04  0.65864270000E+03 0.  0.
    8880022    1    1    2    0    0 -0.71707344491E+02 -0.12962534179E+04 -0.11010107059E+03  0.13118417456E+04  0.15294330000E+03 0.  0.
<mgrwt>
<rscale>  0 0.14171082E+04</rscale>
<asrwt>0</asrwt>
<pdfrwt beam="1">  1        2 0.35667888E+00 0.14557558E+04</pdfrwt>
<pdfrwt beam="2">  1       -2 0.14314867E+00 0.14557558E+04</pdfrwt>
<totfact> 0.14242158E+00</totfact>
</mgrwt>
</event>
<event>
 4    5  0.1905771E-007  0.6769406E+03  0.7818608E-02  0.1011110E+00
         -2   -1    0    0    0  501 -0.00000000000E+00  0.00000000000E+00  0.87420268436E+02  0.87420268473E+02  0.25500000000E-02 0.  1.
          2   -1    0    0  501    0  0.00000000000E+00 -0.00000000000E+00 -0.26005292836E+04  0.26005292836E+04  0.25500000000E-02 0. -1.
    8880023    1    1    2    0    0 -0.12011400646E+03 -0.10005466526E+03 -0.22283184867E+04  0.23288735035E+04  0.65864270000E+03 0. -1.
    8880022    1    1    2    0    0  0.12011400646E+03  0.10005466526E+03 -0.28479052848E+03  0.35907604865E+03  0.15294330000E+03 0.  1.
<mgrwt>
<rscale>  0 0.51035856E+03</rscale>
<asrwt>0</asrwt>
<pdfrwt beam="1">  1        2 0.40008137E+00 0.67694056E+03</pdfrwt>
<pdfrwt beam="2">  1       -2 0.13449274E-01 0.67694056E+03</pdfrwt>
<totfact> 0.13444509E+02</totfact>
</mgrwt>
</event>
<event>
 4    5  0.1974972E-007  0.1113274E+04  0.7818608E-02  0.9246419E-01
         -2   -1    0    0    0  501 -0.00000000000E+00  0.00000000000E+00  0.14954311090E+04  0.14954311090E+04  0.25500000000E-02 0.  1.
          2   -1    0    0  501    0  0.00000000000E+00 -0.00000000000E+00 -0.16173098926E+04  0.16173098926E+04  0.25500000000E-02 0. -1.
    8880023    1    1    2    0    0  0.18612729436E+02  0.89734202679E+03 -0.12428849432E+04  0.16685749414E+04  0.65864270000E+03 0. -1.
    8880022    1    1    2    0    0 -0.18612729436E+02 -0.89734202679E+03  0.11210061595E+04  0.14441660602E+04  0.15294330000E+03 0.  0.
<mgrwt>
<rscale>  0 0.10586889E+04</rscale>
<asrwt>0</asrwt>
<pdfrwt beam="1">  1        2 0.24881691E+00 0.11132742E+04</pdfrwt>
<pdfrwt beam="2">  1       -2 0.23006633E+00 0.11132742E+04</pdfrwt>
<totfact> 0.91418317E-01</totfact>
</mgrwt>
</event>
<event>
 4    5  0.1905771E-007  0.8186499E+03  0.7818608E-02  0.9671833E-01
         -2   -1    0    0    0  501 -0.00000000000E+00  0.00000000000E+00  0.68990479198E+03  0.68990479199E+03  0.25500000000E-02 0.  1.
          2   -1    0    0  501    0  0.00000000000E+00 -0.00000000000E+00 -0.16201294006E+04  0.16201294006E+04  0.25500000000E-02 0. -1.
    8880023    1    1    2    0    0  0.23694027079E+02 -0.48560900974E+03 -0.13968158269E+04  0.16190374232E+04  0.65864270000E+03 0. -1.
    8880022    1    1    2    0    0 -0.23694027079E+02  0.48560900974E+03  0.46659121829E+03  0.69099676935E+03  0.15294330000E+03 0.  0.
<mgrwt>
<rscale>  0 0.72718871E+03</rscale>
<asrwt>0</asrwt>
<pdfrwt beam="1">  1        2 0.24925068E+00 0.81864994E+03</pdfrwt>
<pdfrwt beam="2">  1       -2 0.10613920E+00 0.81864994E+03</pdfrwt>
<totfact> 0.79196016E+00</totfact>
</mgrwt>
</event>
<event>
 4    5  0.1905771E-007  0.1758215E+04  0.7818608E-02  0.8746009E-01
         -2   -1    0    0    0  501 -0.00000000000E+00  0.00000000000E+00  0.18711965260E+04  0.18711965260E+04  0.25500000000E-02 0.  1.
          2   -1    0    0  501    0  0.00000000000E+00 -0.00000000000E+00 -0.28413968521E+04  0.28413968521E+04  0.25500000000E-02 0. -1.
    8880023    1    1    2    0    0 -0.35107329486E+03 -0.15919348963E+04 -0.20883100077E+04  0.27299007430E+04  0.65864270000E+03 0.  0.
    8880022    1    1    2    0    0  0.35107329486E+03  0.15919348963E+04  0.11181096815E+04  0.19826926351E+04  0.15294330000E+03 0.  0.
<mgrwt>
<rscale>  0 0.17271858E+04</rscale>
<asrwt>0</asrwt>
<pdfrwt beam="1">  1        2 0.43713798E+00 0.17582148E+04</pdfrwt>
<pdfrwt beam="2">  1       -2 0.28787639E+00 0.17582148E+04</pdfrwt>
<totfact> 0.74814449E-02</totfact>
</mgrwt>
</event>
<event>
 4    5  0.1905771E-007  0.8660697E+03  0.7818608E-02  0.9582856E-01
          2   -1    0    0  501    0  0.00000000000E+00  0.00000000000E+00  0.24319230093E+04  0.24319230093E+04  0.25500000000E-02 0. -1.
         -2   -1    0    0    0  501 -0.00000000000E+00 -0.00000000000E+00 -0.27226919306E+03  0.27226919307E+03  0.25500000000E-02 0.  1.
    8880023    1    1    2    0    0 -0.21662673733E+03  0.51897923531E+03  0.64078858223E+03  0.10773517547E+04  0.65864270000E+03 0.  0.
    8880022    1    1    2    0    0  0.21662673733E+03 -0.51897923531E+03  0.15188652340E+04  0.16268404476E+04  0.15294330000E+03 0.  0.
<mgrwt>
<rscale>  0 0.78441325E+03</rscale>
<asrwt>0</asrwt>
<pdfrwt beam="1">  1        2 0.37414201E+00 0.86606974E+03</pdfrwt>
<pdfrwt beam="2">  1       -2 0.41887567E-01 0.86606974E+03</pdfrwt>
<totfact> 0.21140515E+01</totfact>
</mgrwt>
</event>
<event>
 4    5  0.1905771E-007  0.7202515E+03  0.7818608E-02  0.9921736E-01
         -2   -1    0    0    0  501 -0.00000000000E+00  0.00000000000E+00  0.39092990098E+03  0.39092990098E+03  0.25500000000E-02 0.  1.
          2   -1    0    0  501    0  0.00000000000E+00 -0.00000000000E+00 -0.14450991798E+04  0.14450991798E+04  0.25500000000E-02 0. -1.
    8880023    1    1    2    0    0  0.34598344802E+01  0.29144467174E+03 -0.12574811613E+04  0.14491449356E+04  0.65864270000E+03 0.  0.
    8880022    1    1    2    0    0 -0.34598344802E+01 -0.29144467174E+03  0.20331188254E+03  0.38688414511E+03  0.15294330000E+03 0.  0.
<mgrwt>
<rscale>  0 0.59219336E+03</rscale>
<asrwt>0</asrwt>
<pdfrwt beam="1">  1        2 0.22232295E+00 0.72025147E+03</pdfrwt>
<pdfrwt beam="2">  1       -2 0.60143062E-01 0.72025147E+03</pdfrwt>
<totfact> 0.36032382E+01</totfact>
</mgrwt>
</event>
<event>
 4    5  0.1905771E-007  0.9096656E+03  0.7818608E-02  0.9510690E-01
          2   -1    0    0  501    0  0.00000000000E+00  0.00000000000E+00  0.11500545845E+04  0.11500545845E+04  0.25500000000E-02 0. -1.
         -2   -1    0    0    0  501 -0.00000000000E+00 -0.00000000000E+00 -0.12276396874E+04  0.12276396874E+04  0.25500000000E-02 0.  1.
    8880023    1    1    2    0    0 -0.51351904028E+03 -0.36052673460E+03  0.85162762679E+03  0.12460983717E+04  0.65864270000E+03 0. -1.
    8880022    1    1    2    0    0  0.51351904028E+03  0.36052673460E+03 -0.92921272970E+03  0.11315959001E+04  0.15294330000E+03 0.  0.
<mgrwt>
<rscale>  0 0.83500263E+03</rscale>
<asrwt>0</asrwt>
<pdfrwt beam="1">  1        2 0.17693148E+00 0.90966562E+03</pdfrwt>
<pdfrwt beam="2">  1       -2 0.18886764E+00 0.90966562E+03</pdfrwt>
<totfact> 0.32098058E+00</totfact>
</mgrwt>
</event>
<event>
 4    5  0.1905771E-007  0.7159014E+03  0.7818608E-02  0.9936706E-01
         -2   -1    0    0    0  501 -0.00000000000E+00  0.00000000000E+00  0.26034863856E+03  0.26034863858E+03  0.25500000000E-02 0.  1.
          2   -1    0    0  501    0  0.00000000000E+00 -0.00000000000E+00 -0.25613097761E+04  0.25613097761E+04  0.25500000000E-02 0. -1.
    8880023    1    1    2    0    0  0.20062915225E+03  0.19609314980E+03 -0.23859378882E+04  0.24910267748E+04  0.65864270000E+03 0. -1.
    8880022    1    1    2    0    0 -0.20062915225E+03 -0.19609314980E+03  0.84976750660E+02  0.33063163989E+03  0.15294330000E+03 0.  0.
<mgrwt>
<rscale>  0 0.58514853E+03</rscale>
<asrwt>0</asrwt>
<pdfrwt beam="1">  1        2 0.39404764E+00 0.71590138E+03</pdfrwt>
<pdfrwt beam="2">  1       -2 0.40053638E-01 0.71590138E+03</pdfrwt>
<totfact> 0.19914981E+01</totfact>
</mgrwt>
</event>
<event>
 4    5  0.1905771E-007  0.9946933E+03  0.7818608E-02  0.9388534E-01
          2   -1    0    0  501    0  0.00000000000E+00  0.00000000000E+00  0.14848680060E+04  0.14848680060E+04  0.25500000000E-02 0. -1.
         -2   -1    0    0    0  501 -0.00000000000E+00 -0.00000000000E+00 -0.97939613277E+03  0.97939613277E+03  0.25500000000E-02 0.  1.
    8880023    1    1    2    0    0  0.31492848524E+03  0.67559204771E+03  0.11114340881E+04  0.14915429944E+04  0.65864270000E+03 0.  0.
    8880022    1    1    2    0    0 -0.31492848524E+03 -0.67559204771E+03 -0.60596221489E+03  0.97272114433E+03  0.15294330000E+03 0.  0.
<mgrwt>
<rscale>  0 0.93025361E+03</rscale>
<asrwt>0</asrwt>
<pdfrwt beam="1">  1        2 0.22844123E+00 0.99469331E+03</pdfrwt>
<pdfrwt beam="2">  1       -2 0.15067633E+00 0.99469331E+03</pdfrwt>
<totfact> 0.38069314E+00</totfact>
</mgrwt>
</event>
<event>
 4    5  0.1905771E-007  0.1094534E+04  0.7818608E-02  0.9267167E-01
          2   -1    0    0  501    0  0.00000000000E+00  0.00000000000E+00  0.99273614130E+03  0.99273614131E+03  0.25500000000E-02 0. -1.
         -2   -1    0    0    0  501 -0.00000000000E+00 -0.00000000000E+00 -0.15187928976E+04  0.15187928976E+04  0.25500000000E-02 0.  1.
    8880023    1    1    2    0    0 -0.12226004409E+03  0.86559027571E+03  0.45792115897E+03  0.11864636690E+04  0.65864270000E+03 0.  0.
    8880022    1    1    2    0    0  0.12226004409E+03 -0.86559027571E+03 -0.98397791532E+03  0.13250653699E+04  0.15294330000E+03 0.  1.
<mgrwt>
<rscale>  0 0.10386258E+04</rscale>
<asrwt>0</asrwt>
<pdfrwt beam="1">  1        2 0.15272864E+00 0.10945338E+04</pdfrwt>
<pdfrwt beam="2">  1       -2 0.23366045E+00 0.10945338E+04</pdfrwt>
<totfact> 0.20326361E+00</totfact>
</mgrwt>
</event>
<event>
 4    5  0.1905771E-007  0.6595306E+03  0.7818608E-02  0.1024643E+00
         -2   -1    0    0    0  501 -0.00000000000E+00  0.00000000000E+00  0.18745149612E+04  0.18745149612E+04  0.25500000000E-02 0.  1.
          2   -1    0    0  501    0  0.00000000000E+00 -0.00000000000E+00 -0.13918700230E+03  0.13918700232E+03  0.25500000000E-02 0. -1.
    8880023    1    1    2    0    0 -0.15867420714E+02 -0.30308395940E+02  0.68185141227E+03  0.94863160846E+03  0.65864270000E+03 0. -1.
    8880022    1    1    2    0    0  0.15867420714E+02  0.30308395940E+02  0.10534765466E+04  0.10650703551E+04  0.15294330000E+03 0.  0.
<mgrwt>
<rscale>  0 0.46047836E+03</rscale>
<asrwt>0</asrwt>
<pdfrwt beam="1">  1        2 0.21413385E-01 0.65953058E+03</pdfrwt>
<pdfrwt beam="2">  1       -2 0.28838691E+00 0.65953058E+03</pdfrwt>
<totfact> 0.10271345E+01</totfact>
</mgrwt>
</event>
<event>
 4    5  0.1905771E-007  0.1099222E+04  0.7818608E-02  0.9261923E-01
         -2   -1    0    0    0  501 -0.00000000000E+00  0.00000000000E+00  0.96623801016E+03  0.96623801016E+03  0.25500000000E-02 0.  1.
          2   -1    0    0  501    0  0.00000000000E+00 -0.00000000000E+00 -0.11835181020E+04  0.11835181020E+04  0.25500000000E-02 0. -1.
    8880023    1    1    2    0    0  0.78716435959E+03 -0.39351168582E+03 -0.50727203275E+03  0.12106255810E+04  0.65864270000E+03 0.  1.
    8880022    1    1    2    0    0 -0.78716435959E+03  0.39351168582E+03  0.28999194086E+03  0.93913053122E+03  0.15294330000E+03 0.  0.
<mgrwt>
<rscale>  0 0.10436519E+04</rscale>
<asrwt>0</asrwt>
<pdfrwt beam="1">  1        2 0.18207971E+00 0.10992222E+04</pdfrwt>
<pdfrwt beam="2">  1       -2 0.14865200E+00 0.10992222E+04</pdfrwt>
<totfact> 0.58387397E+00</totfact>
</mgrwt>
</event>
<event>
 4    5  0.1905771E-007  0.8400594E+03  0.7818608E-02  0.9630068E-01
          2   -1    0    0  501    0  0.00000000000E+00  0.00000000000E+00  0.71523279993E+03  0.71523279993E+03  0.25500000000E-02 0. -1.
         -2   -1    0    0    0  501 -0.00000000000E+00 -0.00000000000E+00 -0.11665735024E+04  0.11665735024E+04  0.25500000000E-02 0.  1.
    8880023    1    1    2    0    0 -0.27323460409E+03  0.44410856048E+03  0.35291805447E+03  0.91118105874E+03  0.65864270000E+03 0.  0.
    8880022    1    1    2    0    0  0.27323460409E+03 -0.44410856048E+03 -0.80425875690E+03  0.97062524356E+03  0.15294330000E+03 0.  0.
<mgrwt>
<rscale>  0 0.75337632E+03</rscale>
<asrwt>0</asrwt>
<pdfrwt beam="1">  1        2 0.11003581E+00 0.84005938E+03</pdfrwt>
<pdfrwt beam="2">  1       -2 0.17947285E+00 0.84005938E+03</pdfrwt>
<totfact> 0.73480025E+00</totfact>
</mgrwt>
</event>
<event>
 4    5  0.1905771E-007  0.7469180E+03  0.7818608E-02  0.9840235E-01
         -2   -1    0    0    0  501 -0.00000000000E+00  0.00000000000E+00  0.15509425365E+03  0.15509425367E+03  0.25500000000E-02 0.  1.
          2   -1    0    0  501    0  0.00000000000E+00 -0.00000000000E+00 -0.28947121770E+04  0.28947121770E+04  0.25500000000E-02 0. -1.
    8880023    1    1    2    0    0 -0.29008680907E+02  0.35104816667E+03 -0.24703394435E+04  0.25807873781E+04  0.65864270000E+03 0. -1.
    8880022    1    1    2    0    0  0.29008680907E+02 -0.35104816667E+03 -0.26927847985E+03  0.46901905251E+03  0.15294330000E+03 0.  0.
<mgrwt>
<rscale>  0 0.63247289E+03</rscale>
<asrwt>0</asrwt>
<pdfrwt beam="1">  1        2 0.44534030E+00 0.74691802E+03</pdfrwt>
<pdfrwt beam="2">  1       -2 0.23860657E-01 0.74691802E+03</pdfrwt>
<totfact> 0.33271731E+01</totfact>
</mgrwt>
</event>
<event>
 4    5  0.1905771E-007  0.6872838E+03  0.7818608E-02  0.1005471E+00
         -2   -1    0    0    0  501 -0.00000000000E+00  0.00000000000E+00  0.74695399749E+03  0.74695399749E+03  0.25500000000E-02 0.  1.
          2   -1    0    0  501    0  0.00000000000E+00 -0.00000000000E+00 -0.15028694644E+04  0.15028694644E+04  0.25500000000E-02 0. -1.
    8880023    1    1    2    0    0  0.15918762085E+03 -0.11492634637E+03 -0.13998496859E+04  0.15594672530E+04  0.65864270000E+03 0. -1.
    8880022    1    1    2    0    0 -0.15918762085E+03  0.11492634637E+03  0.64393421902E+03  0.69035620890E+03  0.15294330000E+03 0.  0.
<mgrwt>
<rscale>  0 0.53314928E+03</rscale>
<asrwt>0</asrwt>
<pdfrwt beam="1">  1        2 0.23121069E+00 0.68728376E+03</pdfrwt>
<pdfrwt beam="2">  1       -2 0.11491600E+00 0.68728376E+03</pdfrwt>
<totfact> 0.77285453E+00</totfact>
</mgrwt>
</event>
<event>
 4    5  0.1905771E-007  0.9278572E+03  0.7818608E-02  0.9482715E-01
         -2   -1    0    0    0  501 -0.00000000000E+00  0.00000000000E+00  0.12795249564E+04  0.12795249564E+04  0.25500000000E-02 0.  1.
          2   -1    0    0  501    0  0.00000000000E+00 -0.00000000000E+00 -0.14546987045E+04  0.14546987045E+04  0.25500000000E-02 0. -1.
    8880023    1    1    2    0    0  0.31135051017E+03  0.57460382412E+03 -0.11952577379E+04  0.15131291951E+04  0.65864270000E+03 0. -1.
    8880022    1    1    2    0    0 -0.31135051017E+03 -0.57460382412E+03  0.10200839898E+04  0.12210944657E+04  0.15294330000E+03 0.  0.
<mgrwt>
<rscale>  0 0.85570237E+03</rscale>
<asrwt>0</asrwt>
<pdfrwt beam="1">  1        2 0.22379980E+00 0.92785716E+03</pdfrwt>
<pdfrwt beam="2">  1       -2 0.19684999E+00 0.92785716E+03</pdfrwt>
<totfact> 0.18841939E+00</totfact>
</mgrwt>
</event>
<event>
 4    5  0.1905771E-007  0.8670088E+03  0.7818608E-02  0.9581216E-01
         -2   -1    0    0    0  501 -0.00000000000E+00  0.00000000000E+00  0.17121436918E+04  0.17121436918E+04  0.25500000000E-02 0.  1.
          2   -1    0    0  501    0  0.00000000000E+00 -0.00000000000E+00 -0.10298059897E+04  0.10298059897E+04  0.25500000000E-02 0. -1.
    8880023    1    1    2    0    0  0.55855565700E+03  0.76874629224E+02 -0.78062764233E+03  0.11666549845E+04  0.65864270000E+03 0. -1.
    8880022    1    1    2    0    0 -0.55855565700E+03 -0.76874629224E+02  0.14629653444E+04  0.15752946970E+04  0.15294330000E+03 0.  0.
<mgrwt>
<rscale>  0 0.78552031E+03</rscale>
<asrwt>0</asrwt>
<pdfrwt beam="1">  1        2 0.15843169E+00 0.86700884E+03</pdfrwt>
<pdfrwt beam="2">  1       -2 0.26340672E+00 0.86700884E+03</pdfrwt>
<totfact> 0.13045381E+00</totfact>
</mgrwt>
</event>
<event>
 4    5  0.1905771E-007  0.7248264E+03  0.7818608E-02  0.9906581E-01
          2   -1    0    0  501    0  0.00000000000E+00  0.00000000000E+00  0.13402650783E+04  0.13402650783E+04  0.25500000000E-02 0. -1.
         -2   -1    0    0    0  501 -0.00000000000E+00 -0.00000000000E+00 -0.24883234858E+03  0.24883234860E+03  0.25500000000E-02 0.  1.
    8880023    1    1    2    0    0 -0.12982123344E+03 -0.27333040832E+03  0.10051634295E+04  0.12392444436E+04  0.65864270000E+03 0. -1.
    8880022    1    1    2    0    0  0.12982123344E+03  0.27333040832E+03  0.86269300266E+02  0.34985298333E+03  0.15294330000E+03 0.  1.
<mgrwt>
<rscale>  0 0.59943396E+03</rscale>
<asrwt>0</asrwt>
<pdfrwt beam="1">  1        2 0.20619463E+00 0.72482637E+03</pdfrwt>
<pdfrwt beam="2">  1       -2 0.38281900E-01 0.72482637E+03</pdfrwt>
<totfact> 0.10280129E+02</totfact>
</mgrwt>
</event>
<event>
 4    5  0.1905771E-007  0.1246073E+04  0.7818608E-02  0.9113587E-01
         -2   -1    0    0    0  501 -0.00000000000E+00  0.00000000000E+00  0.16283037529E+04  0.16283037529E+04  0.25500000000E-02 0.  1.
          2   -1    0    0  501    0  0.00000000000E+00 -0.00000000000E+00 -0.19681802423E+04  0.19681802423E+04  0.25500000000E-02 0. -1.
    8880023    1    1    2    0    0 -0.25075495148E+03  0.10276229743E+04 -0.15455462915E+04  0.19852986094E+04  0.65864270000E+03 0.  0.
    8880022    1    1    2    0    0  0.25075495148E+03 -0.10276229743E+04  0.12056698021E+04  0.16111853859E+04  0.15294330000E+03 0.  0.
<mgrwt>
<rscale>  0 0.11991653E+04</rscale>
<asrwt>0</asrwt>
<pdfrwt beam="1">  1        2 0.30279696E+00 0.12460727E+04</pdfrwt>
<pdfrwt beam="2">  1       -2 0.25050827E+00 0.12460727E+04</pdfrwt>
<totfact> 0.42922403E-01</totfact>
</mgrwt>
</event>
<event>
 4    5  0.1905771E-007  0.9696232E+03  0.7818608E-02  0.9422426E-01
         -2   -1    0    0    0  501 -0.00000000000E+00  0.00000000000E+00  0.53923931044E+03  0.53923931044E+03  0.25500000000E-02 0.  1.
          2   -1    0    0  501    0  0.00000000000E+00 -0.00000000000E+00 -0.29463091972E+04  0.29463091972E+04  0.25500000000E-02 0. -1.
    8880023    1    1    2    0    0 -0.21497728811E+03  0.67833887079E+03 -0.25637968274E+04  0.27410259459E+04  0.65864270000E+03 0.  0.
    8880022    1    1    2    0    0  0.21497728811E+03 -0.67833887079E+03  0.15672694057E+03  0.74452256174E+03  0.15294330000E+03 0.  0.
<mgrwt>
<rscale>  0 0.90252898E+03</rscale>
<asrwt>0</asrwt>
<pdfrwt beam="1">  1        2 0.45327833E+00 0.96962316E+03</pdfrwt>
<pdfrwt beam="2">  1       -2 0.82959896E-01 0.96962316E+03</pdfrwt>
<totfact> 0.24534831E+00</totfact>
</mgrwt>
</event>
<event>
 4    5  0.1905771E-007  0.6588039E+03  0.7818608E-02  0.1025417E+00
          2   -1    0    0  501    0  0.00000000000E+00  0.00000000000E+00  0.11220923730E+04  0.11220923730E+04  0.25500000000E-02 0. -1.
         -2   -1    0    0    0  501 -0.00000000000E+00 -0.00000000000E+00 -0.38357272806E+03  0.38357272807E+03  0.25500000000E-02 0.  1.
    8880023    1    1    2    0    0 -0.14029015275E+02  0.39526212513E+01  0.10028741618E+04  0.11999080078E+04  0.65864270000E+03 0. -1.
    8880022    1    1    2    0    0  0.14029015275E+02 -0.39526212513E+01 -0.26435451687E+03  0.30575709328E+03  0.15294330000E+03 0.  0.
<mgrwt>
<rscale>  0 0.45781556E+03</rscale>
<asrwt>0</asrwt>
<pdfrwt beam="1">  1        2 0.17262959E+00 0.65880395E+03</pdfrwt>
<pdfrwt beam="2">  1       -2 0.59011190E-01 0.65880395E+03</pdfrwt>
<totfact> 0.58070576E+01</totfact>
</mgrwt>
</event>
<event>
 4    5  0.1905771E-007  0.8573799E+03  0.7818608E-02  0.9598241E-01
          2   -1    0    0  501    0  0.00000000000E+00  0.00000000000E+00  0.24018840031E+04  0.24018840032E+04  0.25500000000E-02 0. -1.
         -2   -1    0    0    0  501 -0.00000000000E+00 -0.00000000000E+00 -0.54130766562E+03  0.54130766563E+03  0.25500000000E-02 0.  1.
    8880023    1    1    2    0    0  0.38182243036E+03 -0.39433704202E+03  0.21423319946E+04  0.23075282560E+04  0.65864270000E+03 0. -1.
    8880022    1    1    2    0    0 -0.38182243036E+03  0.39433704202E+03 -0.28175565705E+03  0.63566341277E+03  0.15294330000E+03 0.  0.
<mgrwt>
<rscale>  0 0.77412697E+03</rscale>
<asrwt>0</asrwt>
<pdfrwt beam="1">  1        2 0.36952061E+00 0.85737989E+03</pdfrwt>
<pdfrwt beam="2">  1       -2 0.83278104E-01 0.85737989E+03</pdfrwt>
<totfact> 0.51488791E+00</totfact>
</mgrwt>
</event>
<event>
 4    5  0.1905771E-007  0.1785759E+04  0.7818608E-02  0.8730455E-01
         -2   -1    0    0    0  501 -0.00000000000E+00  0.00000000000E+00  0.15012522671E+04  0.15012522671E+04  0.25500000000E-02 0.  1.
          2   -1    0    0  501    0  0.00000000000E+00 -0.00000000000E+00 -0.27301204400E+04  0.27301204400E+04  0.25500000000E-02 0. -1.
    8880023    1    1    2    0    0 -0.11374468687E+04  0.12088581765E+04  0.47488925795E+03  0.18478239860E+04  0.65864270000E+03 0.  0.
    8880022    1    1    2    0    0  0.11374468687E+04 -0.12088581765E+04 -0.17037574308E+04  0.23835487211E+04  0.15294330000E+03 0.  0.
<mgrwt>
<rscale>  0 0.17552689E+04</rscale>
<asrwt>0</asrwt>
<pdfrwt beam="1">  1        2 0.42001853E+00 0.17857586E+04</pdfrwt>
<pdfrwt beam="2">  1       -2 0.23096189E+00 0.17857586E+04</pdfrwt>
<totfact> 0.19536930E-01</totfact>
</mgrwt>
</event>
<event>
 4    5  0.1905771E-007  0.8101492E+03  0.7818608E-02  0.9689266E-01
         -2   -1    0    0    0  501 -0.00000000000E+00  0.00000000000E+00  0.16006812057E+03  0.16006812059E+03  0.25500000000E-02 0.  1.
          2   -1    0    0  501    0  0.00000000000E+00 -0.00000000000E+00 -0.31237523668E+04  0.31237523668E+04  0.25500000000E-02 0. -1.
    8880023    1    1    2    0    0  0.36557792646E+00 -0.47173226845E+03 -0.23999778601E+04  0.25330288988E+04  0.65864270000E+03 0. -1.
    8880022    1    1    2    0    0 -0.36557792646E+00  0.47173226845E+03 -0.56370638603E+03  0.75079158853E+03  0.15294330000E+03 0.  0.
<mgrwt>
<rscale>  0 0.71659482E+03</rscale>
<asrwt>0</asrwt>
<pdfrwt beam="1">  1        2 0.48057724E+00 0.81014917E+03</pdfrwt>
<pdfrwt beam="2">  1       -2 0.24625867E-01 0.81014917E+03</pdfrwt>
<totfact> 0.22526905E+01</totfact>
</mgrwt>
</event>
<event>
 4    5  0.1905771E-007  0.8458329E+03  0.7818608E-02  0.9619278E-01
         -2   -1    0    0    0  501 -0.00000000000E+00  0.00000000000E+00  0.62331551165E+03  0.62331551166E+03  0.25500000000E-02 0.  1.
          2   -1    0    0  501    0  0.00000000000E+00 -0.00000000000E+00 -0.34580041173E+04  0.34580041173E+04  0.25500000000E-02 0. -1.
    8880023    1    1    2    0    0  0.40180802680E+03 -0.34666041244E+03 -0.32703040220E+04  0.33779167743E+04  0.65864270000E+03 0.  0.
    8880022    1    1    2    0    0 -0.40180802680E+03  0.34666041244E+03  0.43561541632E+03  0.70340285463E+03  0.15294330000E+03 0.  1.
<mgrwt>
<rscale>  0 0.76033249E+03</rscale>
<asrwt>0</asrwt>
<pdfrwt beam="1">  1        2 0.53200062E+00 0.84583293E+03</pdfrwt>
<pdfrwt beam="2">  1       -2 0.95894696E-01 0.84583293E+03</pdfrwt>
<totfact> 0.84335535E-01</totfact>
</mgrwt>
</event>
<event>
 4    5  0.1905771E-007  0.8061466E+03  0.7818608E-02  0.9697660E-01
         -2   -1    0    0    0  501 -0.00000000000E+00  0.00000000000E+00  0.71212192002E+03  0.71212192003E+03  0.25500000000E-02 0.  1.
          2   -1    0    0  501    0  0.00000000000E+00 -0.00000000000E+00 -0.17010682964E+04  0.17010682964E+04  0.25500000000E-02 0. -1.
    8880023    1    1    2    0    0  0.40070829795E+03  0.23557382150E+03 -0.15017066733E+04  0.17044046774E+04  0.65864270000E+03 0. -1.
    8880022    1    1    2    0    0 -0.40070829795E+03 -0.23557382150E+03  0.51276029685E+03  0.70878553911E+03  0.15294330000E+03 0.  0.
<mgrwt>
<rscale>  0 0.71156282E+03</rscale>
<asrwt>0</asrwt>
<pdfrwt beam="1">  1        2 0.26170281E+00 0.80614662E+03</pdfrwt>
<pdfrwt beam="2">  1       -2 0.10955722E+00 0.80614662E+03</pdfrwt>
<totfact> 0.66323056E+00</totfact>
</mgrwt>
</event>
<event>
 4    5  0.1905771E-007  0.8887166E+03  0.7818608E-02  0.9544393E-01
         -2   -1    0    0    0  501 -0.00000000000E+00  0.00000000000E+00  0.55297373993E+03  0.55297373993E+03  0.25500000000E-02 0.  1.
          2   -1    0    0  501    0  0.00000000000E+00 -0.00000000000E+00 -0.19429747875E+04  0.19429747875E+04  0.25500000000E-02 0. -1.
    8880023    1    1    2    0    0 -0.33236029769E+03 -0.49552353677E+03  0.89635016058E+02  0.89322538328E+03  0.65864270000E+03 0.  1.
    8880022    1    1    2    0    0  0.33236029769E+03  0.49552353677E+03 -0.14796360636E+04  0.16027231441E+04  0.15294330000E+03 0.  0.
<mgrwt>
<rscale>  0 0.81088529E+03</rscale>
<asrwt>0</asrwt>
<pdfrwt beam="1">  1        2 0.29891919E+00 0.88871657E+03</pdfrwt>
<pdfrwt beam="2">  1       -2 0.85072884E-01 0.88871657E+03</pdfrwt>
<totfact> 0.87675759E+00</totfact>
</mgrwt>
</event>
<event>
 4    5  0.1957704E-007  0.9253348E+03  0.7818608E-02  0.9486527E-01
          2   -1    0    0  501    0  0.00000000000E+00  0.00000000000E+00  0.16674721113E+04  0.16674721113E+04  0.25500000000E-02 0. -1.
         -2   -1    0    0    0  501 -0.00000000000E+00 -0.00000000000E+00 -0.13422994114E+04  0.13422994114E+04  0.25500000000E-02 0.  1.
    8880023    1    1    2    0    0  0.42613510286E+01 -0.64993548679E+03  0.14391794704E+04  0.17109886178E+04  0.65864270000E+03 0. -1.
    8880022    1    1    2    0    0 -0.42613510286E+01  0.64993548679E+03 -0.11140067705E+04  0.12987829048E+04  0.15294330000E+03 0.  0.
<mgrwt>
<rscale>  0 0.85284448E+03</rscale>
<asrwt>0</asrwt>
<pdfrwt beam="1">  1        2 0.25653417E+00 0.92533481E+03</pdfrwt>
<pdfrwt beam="2">  1       -2 0.20650760E+00 0.92533481E+03</pdfrwt>
<totfact> 0.12410489E+00</totfact>
</mgrwt>
</event>
<event>
 4    5  0.1905771E-007  0.9394707E+03  0.7818608E-02  0.9465428E-01
         -2   -1    0    0    0  501 -0.00000000000E+00  0.00000000000E+00  0.51100260483E+03  0.51100260484E+03  0.25500000000E-02 0.  1.
          2   -1    0    0  501    0  0.00000000000E+00 -0.00000000000E+00 -0.22190914712E+04  0.22190914712E+04  0.25500000000E-02 0. -1.
    8880023    1    1    2    0    0 -0.25947433602E+03  0.61763100053E+03 -0.18062472517E+04  0.20359602954E+04  0.65864270000E+03 0.  0.
    8880022    1    1    2    0    0  0.25947433602E+03 -0.61763100053E+03  0.98158385290E+02  0.69413378069E+03  0.15294330000E+03 0.  0.
<mgrwt>
<rscale>  0 0.86881366E+03</rscale>
<asrwt>0</asrwt>
<pdfrwt beam="1">  1        2 0.34139868E+00 0.93947070E+03</pdfrwt>
<pdfrwt beam="2">  1       -2 0.78615787E-01 0.93947070E+03</pdfrwt>
<totfact> 0.73367668E+00</totfact>
</mgrwt>
</event>
<event>
 4    5  0.1905771E-007  0.7843379E+03  0.7818608E-02  0.9745744E-01
          2   -1    0    0  501    0  0.00000000000E+00  0.00000000000E+00  0.24255084359E+04  0.24255084359E+04  0.25500000000E-02 0. -1.
         -2   -1    0    0    0  501 -0.00000000000E+00 -0.00000000000E+00 -0.22504696858E+03  0.22504696859E+03  0.25500000000E-02 0.  1.
    8880023    1    1    2    0    0 -0.23253412484E+03 -0.35679639780E+03  0.20136256869E+04  0.21609892184E+04  0.65864270000E+03 0.  0.
    8880022    1    1    2    0    0  0.23253412484E+03  0.35679639780E+03  0.18683578036E+03  0.48956618606E+03  0.15294330000E+03 0.  0.
<mgrwt>
<rscale>  0 0.68357320E+03</rscale>
<asrwt>0</asrwt>
<pdfrwt beam="1">  1        2 0.37315512E+00 0.78433793E+03</pdfrwt>
<pdfrwt beam="2">  1       -2 0.34622613E-01 0.78433793E+03</pdfrwt>
<totfact> 0.31159952E+01</totfact>
</mgrwt>
</event>
<event>
 4    5  0.1905771E-007  0.1931382E+04  0.7818608E-02  0.8653143E-01
          2   -1    0    0  501    0  0.00000000000E+00  0.00000000000E+00  0.16612876501E+04  0.16612876501E+04  0.25500000000E-02 0. -1.
         -2   -1    0    0    0  501 -0.00000000000E+00 -0.00000000000E+00 -0.26491223526E+04  0.26491223526E+04  0.25500000000E-02 0.  1.
    8880023    1    1    2    0    0  0.17131574636E+04  0.60126486189E+03 -0.14682433893E+04  0.24261032100E+04  0.65864270000E+03 0.  0.
    8880022    1    1    2    0    0 -0.17131574636E+04 -0.60126486189E+03  0.48040868677E+03  0.18843067926E+04  0.15294330000E+03 0.  0.
<mgrwt>
<rscale>  0 0.19034458E+04</rscale>
<asrwt>0</asrwt>
<pdfrwt beam="1">  1        2 0.25558272E+00 0.19313824E+04</pdfrwt>
<pdfrwt beam="2">  1       -2 0.40755729E+00 0.19313824E+04</pdfrwt>
<totfact> 0.61185635E-02</totfact>
</mgrwt>
</event>
<event>
 4    5  0.1905771E-007  0.9735340E+03  0.7818608E-02  0.9417033E-01
          2   -1    0    0  501    0  0.00000000000E+00  0.00000000000E+00  0.10757651318E+04  0.10757651318E+04  0.25500000000E-02 0. -1.
         -2   -1    0    0    0  501 -0.00000000000E+00 -0.00000000000E+00 -0.24399416900E+04  0.24399416900E+04  0.25500000000E-02 0.  1.
    8880023    1    1    2    0    0  0.38090776428E+03 -0.60734456970E+03  0.78141415155E+03  0.12483494838E+04  0.65864270000E+03 0.  0.
    8880022    1    1    2    0    0 -0.38090776428E+03  0.60734456970E+03 -0.21455907098E+04  0.22673573380E+04  0.15294330000E+03 0.  0.
<mgrwt>
<rscale>  0 0.90687089E+03</rscale>
<asrwt>0</asrwt>
<pdfrwt beam="1">  1        2 0.16550233E+00 0.97353395E+03</pdfrwt>
<pdfrwt beam="2">  1       -2 0.37537564E+00 0.97353395E+03</pdfrwt>
<totfact> 0.24649955E-01</totfact>
</mgrwt>
</event>
<event>
 4    5  0.1905771E-007  0.7228224E+03  0.7818608E-02  0.9913149E-01
          2   -1    0    0  501    0  0.00000000000E+00  0.00000000000E+00  0.41626192188E+03  0.41626192188E+03  0.25500000000E-02 0. -1.
         -2   -1    0    0    0  501 -0.00000000000E+00 -0.00000000000E+00 -0.11806249474E+04  0.11806249474E+04  0.25500000000E-02 0.  1.
    8880023    1    1    2    0    0  0.13381949337E+03 -0.26599683911E+03  0.41757201630E+02  0.72402751700E+03  0.65864270000E+03 0. -1.
    8880022    1    1    2    0    0 -0.13381949337E+03  0.26599683911E+03 -0.80612022712E+03  0.87285935225E+03  0.15294330000E+03 0.  0.
<mgrwt>
<rscale>  0 0.59628232E+03</rscale>
<asrwt>0</asrwt>
<pdfrwt beam="1">  1        2 0.64040296E-01 0.72282237E+03</pdfrwt>
<pdfrwt beam="2">  1       -2 0.18163461E+00 0.72282237E+03</pdfrwt>
<totfact> 0.13681666E+01</totfact>
</mgrwt>
</event>
<event>
 4    5  0.1905771E-007  0.1042096E+04  0.7818608E-02  0.9328444E-01
         -2   -1    0    0    0  501 -0.00000000000E+00  0.00000000000E+00  0.65398768109E+03  0.65398768110E+03  0.25500000000E-02 0.  1.
          2   -1    0    0  501    0  0.00000000000E+00 -0.00000000000E+00 -0.22793320278E+04  0.22793320278E+04  0.25500000000E-02 0. -1.
    8880023    1    1    2    0    0  0.79729970048E+03  0.12832620916E+03 -0.18121712014E+04  0.20904375374E+04  0.65864270000E+03 0.  0.
    8880022    1    1    2    0    0 -0.79729970048E+03 -0.12832620916E+03  0.18682685471E+03  0.84288217148E+03  0.15294330000E+03 0.  0.
<mgrwt>
<rscale>  0 0.98205939E+03</rscale>
<asrwt>0</asrwt>
<pdfrwt beam="1">  1        2 0.35066646E+00 0.10420963E+04</pdfrwt>
<pdfrwt beam="2">  1       -2 0.10061349E+00 0.10420963E+04</pdfrwt>
<totfact> 0.37884853E+00</totfact>
</mgrwt>
</event>
<event>
 4    5  0.1905771E-007  0.7380706E+03  0.7818608E-02  0.9865603E-01
         -2   -1    0    0    0  501 -0.00000000000E+00  0.00000000000E+00  0.27260126458E+04  0.27260126458E+04  0.25500000000E-02 0.  1.
          2   -1    0    0  501    0  0.00000000000E+00 -0.00000000000E+00 -0.54612323753E+03  0.54612323754E+03  0.25500000000E-02 0. -1.
    8880023    1    1    2    0    0 -0.12901644113E+03  0.30707127254E+03 -0.27679205508E+03  0.78826521966E+03  0.65864270000E+03 0. -1.
    8880022    1    1    2    0    0  0.12901644113E+03 -0.30707127254E+03  0.24566814633E+04  0.24838706637E+04  0.15294330000E+03 0.  0.
<mgrwt>
<rscale>  0 0.61957648E+03</rscale>
<asrwt>0</asrwt>
<pdfrwt beam="1">  1        2 0.84018961E-01 0.73807060E+03</pdfrwt>
<pdfrwt beam="2">  1       -2 0.41938655E+00 0.73807060E+03</pdfrwt>
<totfact> 0.32843269E-01</totfact>
</mgrwt>
</event>
<event>
 4    5  0.1905771E-007  0.9036675E+03  0.7818608E-02  0.9520170E-01
         -2   -1    0    0    0  501 -0.00000000000E+00  0.00000000000E+00  0.32238099508E+03  0.32238099509E+03  0.25500000000E-02 0.  1.
          2   -1    0    0  501    0  0.00000000000E+00 -0.00000000000E+00 -0.20581188364E+04  0.20581188364E+04  0.25500000000E-02 0. -1.
    8880023    1    1    2    0    0 -0.24825931114E+03  0.56672047005E+03 -0.13830066261E+04  0.16520660734E+04  0.65864270000E+03 0.  0.
    8880022    1    1    2    0    0  0.24825931114E+03 -0.56672047005E+03 -0.35273121524E+03  0.72843375811E+03  0.15294330000E+03 0.  0.
<mgrwt>
<rscale>  0 0.82813000E+03</rscale>
<asrwt>0</asrwt>
<pdfrwt beam="1">  1        2 0.31663366E+00 0.90366752E+03</pdfrwt>
<pdfrwt beam="2">  1       -2 0.49597077E-01 0.90366752E+03</pdfrwt>
<totfact> 0.24218787E+01</totfact>
</mgrwt>
</event>
<event>
 4    5  0.1905771E-007  0.9239051E+03  0.7818608E-02  0.9488697E-01
          2   -1    0    0  501    0  0.00000000000E+00  0.00000000000E+00  0.17223579598E+04  0.17223579598E+04  0.25500000000E-02 0. -1.
         -2   -1    0    0    0  501 -0.00000000000E+00 -0.00000000000E+00 -0.46355955167E+03  0.46355955168E+03  0.25500000000E-02 0.  1.
    8880023    1    1    2    0    0  0.43100633636E+03  0.48376018894E+03  0.21612919788E+03  0.94884794294E+03  0.65864270000E+03 0.  0.
    8880022    1    1    2    0    0 -0.43100633636E+03 -0.48376018894E+03  0.10426692103E+04  0.12370695686E+04  0.15294330000E+03 0.  0.
<mgrwt>
<rscale>  0 0.85122287E+03</rscale>
<asrwt>0</asrwt>
<pdfrwt beam="1">  1        2 0.26497815E+00 0.92390508E+03</pdfrwt>
<pdfrwt beam="2">  1       -2 0.71316853E-01 0.92390508E+03</pdfrwt>
<totfact> 0.17133538E+01</totfact>
</mgrwt>
</event>
<event>
 4    5  0.1905771E-007  0.8815832E+03  0.7818608E-02  0.9556268E-01
         -2   -1    0    0    0  501 -0.00000000000E+00  0.00000000000E+00  0.27822969335E+03  0.27822969336E+03  0.25500000000E-02 0.  1.
          2   -1    0    0  501    0  0.00000000000E+00 -0.00000000000E+00 -0.38288783443E+04  0.38288783443E+04  0.25500000000E-02 0. -1.
    8880023    1    1    2    0    0  0.58159355862E+03  0.71607320073E+02 -0.33576920828E+04  0.34714960759E+04  0.65864270000E+03 0.  0.
    8880022    1    1    2    0    0 -0.58159355862E+03 -0.71607320073E+02 -0.19295656812E+03  0.63561196174E+03  0.15294330000E+03 0.  0.
<mgrwt>
<rscale>  0 0.80259554E+03</rscale>
<asrwt>0</asrwt>
<pdfrwt beam="1">  1        2 0.58905817E+00 0.88158317E+03</pdfrwt>
<pdfrwt beam="2">  1       -2 0.42804571E-01 0.88158317E+03</pdfrwt>
<totfact> 0.25858932E+00</totfact>
</mgrwt>
</event>
<event>
 4    5  0.1905771E-007  0.1098385E+04  0.7818608E-02  0.9262856E-01
          2   -1    0    0  501    0  0.00000000000E+00  0.00000000000E+00  0.12935081838E+04  0.12935081838E+04  0.25500000000E-02 0. -1.
         -2   -1    0    0    0  501 -0.00000000000E+00 -0.00000000000E+00 -0.83902940443E+03  0.83902940444E+03  0.25500000000E-02 0.  1.
    8880023    1    1    2    0    0 -0.87186445372E+03  0.11177011192E+03  0.56210961111E+03  0.12338628792E+04  0.65864270000E+03 0. -1.
    8880022    1    1    2    0    0  0.87186445372E+03 -0.11177011192E+03 -0.10763083177E+03  0.89867470897E+03  0.15294330000E+03 0.  0.
<mgrwt>
<rscale>  0 0.10427552E+04</rscale>
<asrwt>0</asrwt>
<pdfrwt beam="1">  1        2 0.19900126E+00 0.10983854E+04</pdfrwt>
<pdfrwt beam="2">  1       -2 0.12908145E+00 0.10983854E+04</pdfrwt>
<totfact> 0.72496199E+00</totfact>
</mgrwt>
</event>
<event>
 4    5  0.1905771E-007  0.8789195E+03  0.7818608E-02  0.9560757E-01
         -2   -1    0    0    0  501 -0.00000000000E+00  0.00000000000E+00  0.61325473102E+03  0.61325473103E+03  0.25500000000E-02 0.  1.
          2   -1    0    0  501    0  0.00000000000E+00 -0.00000000000E+00 -0.10400366439E+04  0.10400366439E+04  0.25500000000E-02 0. -1.
    8880023    1    1    2    0    0  0.14559816212E+02  0.58178796943E+03  0.57626826676E+02  0.88080661160E+03  0.65864270000E+03 0.  0.
    8880022    1    1    2    0    0 -0.14559816212E+02 -0.58178796943E+03 -0.48440873957E+03  0.77248476335E+03  0.15294330000E+03 0.  0.
<mgrwt>
<rscale>  0 0.79948904E+03</rscale>
<asrwt>0</asrwt>
<pdfrwt beam="1">  1        2 0.16000564E+00 0.87891947E+03</pdfrwt>
<pdfrwt beam="2">  1       -2 0.94346882E-01 0.87891947E+03</pdfrwt>
<totfact> 0.22594553E+01</totfact>
</mgrwt>
</event>
<event>
 4    5  0.1905771E-007  0.1300994E+04  0.7818608E-02  0.9064702E-01
          2   -1    0    0  501    0  0.00000000000E+00  0.00000000000E+00  0.35580177293E+04  0.35580177293E+04  0.25500000000E-02 0. -1.
         -2   -1    0    0    0  501 -0.00000000000E+00 -0.00000000000E+00 -0.47699336747E+03  0.47699336747E+03  0.25500000000E-02 0.  1.
    8880023    1    1    2    0    0 -0.12324576446E+03 -0.11151621659E+04  0.91393583798E+03  0.15899261294E+04  0.65864270000E+03 0.  0.
    8880022    1    1    2    0    0  0.12324576446E+03  0.11151621659E+04  0.21670885239E+04  0.24450849674E+04  0.15294330000E+03 0.  0.
<mgrwt>
<rscale>  0 0.12566076E+04</rscale>
<asrwt>0</asrwt>
<pdfrwt beam="1">  1        2 0.54738736E+00 0.13009944E+04</pdfrwt>
<pdfrwt beam="2">  1       -2 0.73383593E-01 0.13009944E+04</pdfrwt>
<totfact> 0.12300120E+00</totfact>
</mgrwt>
</event>
<event>
 4    5  0.1905771E-007  0.1611018E+04  0.7818608E-02  0.8834976E-01
          2   -1    0    0  501    0  0.00000000000E+00  0.00000000000E+00  0.26518450851E+04  0.26518450851E+04  0.25500000000E-02 0. -1.
         -2   -1    0    0    0  501 -0.00000000000E+00 -0.00000000000E+00 -0.12968431679E+04  0.12968431679E+04  0.25500000000E-02 0.  1.
    8880023    1    1    2    0    0 -0.49208650516E+03  0.13854316166E+04  0.17896472435E+04  0.24079487858E+04  0.65864270000E+03 0.  0.
    8880022    1    1    2    0    0  0.49208650516E+03 -0.13854316166E+04 -0.43464532629E+03  0.15407394671E+04  0.15294330000E+03 0.  0.
<mgrwt>
<rscale>  0 0.15767246E+04</rscale>
<asrwt>0</asrwt>
<pdfrwt beam="1">  1        2 0.40797616E+00 0.16110183E+04</pdfrwt>
<pdfrwt beam="2">  1       -2 0.19951433E+00 0.16110183E+04</pdfrwt>
<totfact> 0.35297502E-01</totfact>
</mgrwt>
</event>
<event>
 4    5  0.1905771E-007  0.1079707E+04  0.7818608E-02  0.9283994E-01
          2   -1    0    0  501    0  0.00000000000E+00  0.00000000000E+00  0.17964929481E+04  0.17964929481E+04  0.25500000000E-02 0. -1.
         -2   -1    0    0    0  501 -0.00000000000E+00 -0.00000000000E+00 -0.77759617660E+03  0.77759617660E+03  0.25500000000E-02 0.  1.
    8880023    1    1    2    0    0 -0.50398285069E+03 -0.69134478207E+03  0.12724023482E+04  0.16687642924E+04  0.65864270000E+03 0.  0.
    8880022    1    1    2    0    0  0.50398285069E+03  0.69134478207E+03 -0.25350557677E+03  0.90532483228E+03  0.15294330000E+03 0.  0.
<mgrwt>
<rscale>  0 0.10226988E+04</rscale>
<asrwt>0</asrwt>
<pdfrwt beam="1">  1        2 0.27638353E+00 0.10797067E+04</pdfrwt>
<pdfrwt beam="2">  1       -2 0.11963018E+00 0.10797067E+04</pdfrwt>
<totfact> 0.45805138E+00</totfact>
</mgrwt>
</event>
<event>
 4    5  0.1905771E-007  0.8549927E+03  0.7818608E-02  0.9602533E-01
         -2   -1    0    0    0  501 -0.00000000000E+00  0.00000000000E+00  0.23790890908E+03  0.23790890909E+03  0.25500000000E-02 0.  1.
          2   -1    0    0  501    0  0.00000000000E+00 -0.00000000000E+00 -0.22965093551E+04  0.22965093551E+04  0.25500000000E-02 0. -1.
    8880023    1    1    2    0    0 -0.22270975375E+03 -0.49759687512E+03 -0.15647287093E+04  0.17830839645E+04  0.65864270000E+03 0.  0.
    8880022    1    1    2    0    0  0.22270975375E+03  0.49759687512E+03 -0.49387173676E+03  0.75133429971E+03  0.15294330000E+03 0.  0.
<mgrwt>
<rscale>  0 0.77128736E+03</rscale>
<asrwt>0</asrwt>
<pdfrwt beam="1">  1        2 0.35330912E+00 0.85499268E+03</pdfrwt>
<pdfrwt beam="2">  1       -2 0.36601372E-01 0.85499268E+03</pdfrwt>
<totfact> 0.32793451E+01</totfact>
</mgrwt>
</event>
<event>
 4    5  0.1905771E-007  0.9778052E+03  0.7818608E-02  0.9411189E-01
         -2   -1    0    0    0  501 -0.00000000000E+00  0.00000000000E+00  0.81225067896E+03  0.81225067897E+03  0.25500000000E-02 0.  1.
          2   -1    0    0  501    0  0.00000000000E+00 -0.00000000000E+00 -0.20174410866E+04  0.20174410866E+04  0.25500000000E-02 0. -1.
    8880023    1    1    2    0    0  0.40916869682E+03 -0.59571277711E+03 -0.16854814940E+04  0.19485766108E+04  0.65864270000E+03 0. -1.
    8880022    1    1    2    0    0 -0.40916869682E+03  0.59571277711E+03  0.48029108638E+03  0.88111515476E+03  0.15294330000E+03 0.  0.
<mgrwt>
<rscale>  0 0.91160550E+03</rscale>
<asrwt>0</asrwt>
<pdfrwt beam="1">  1        2 0.31037555E+00 0.97780517E+03</pdfrwt>
<pdfrwt beam="2">  1       -2 0.12496164E+00 0.97780517E+03</pdfrwt>
<totfact> 0.31410264E+00</totfact>
</mgrwt>
</event>
<event>
 4    5  0.1905771E-007  0.8038387E+03  0.7818608E-02  0.9702557E-01
         -2   -1    0    0    0  501 -0.00000000000E+00  0.00000000000E+00  0.48047992609E+03  0.48047992610E+03  0.25500000000E-02 0.  1.
          2   -1    0    0  501    0  0.00000000000E+00 -0.00000000000E+00 -0.18777943203E+04  0.18777943203E+04  0.25500000000E-02 0. -1.
    8880023    1    1    2    0    0  0.15900879186E+03  0.43250743833E+03 -0.16318317419E+04  0.18190743581E+04  0.65864270000E+03 0. -1.
    8880022    1    1    2    0    0 -0.15900879186E+03 -0.43250743833E+03  0.23451734774E+03  0.53919988826E+03  0.15294330000E+03 0.  0.
<mgrwt>
<rscale>  0 0.70864776E+03</rscale>
<asrwt>0</asrwt>
<pdfrwt beam="1">  1        2 0.28889143E+00 0.80383872E+03</pdfrwt>
<pdfrwt beam="2">  1       -2 0.73919990E-01 0.80383872E+03</pdfrwt>
<totfact> 0.13198521E+01</totfact>
</mgrwt>
</event>
<event>
 4    5  0.1905771E-007  0.1033558E+04  0.7818608E-02  0.9338913E-01
         -2   -1    0    0    0  501 -0.00000000000E+00  0.00000000000E+00  0.13596652835E+04  0.13596652835E+04  0.25500000000E-02 0.  1.
          2   -1    0    0  501    0  0.00000000000E+00 -0.00000000000E+00 -0.11814150670E+04  0.11814150670E+04  0.25500000000E-02 0. -1.
    8880023    1    1    2    0    0  0.24891201975E+03 -0.75662083565E+03 -0.77325903832E+03  0.12908028622E+04  0.65864270000E+03 0.  0.
    8880022    1    1    2    0    0 -0.24891201975E+03  0.75662083565E+03  0.95150925484E+03  0.12502774882E+04  0.15294330000E+03 0.  0.
<mgrwt>
<rscale>  0 0.97278060E+03</rscale>
<asrwt>0</asrwt>
<pdfrwt beam="1">  1        2 0.18175616E+00 0.10335582E+04</pdfrwt>
<pdfrwt beam="2">  1       -2 0.20917927E+00 0.10335582E+04</pdfrwt>
<totfact> 0.22274509E+00</totfact>
</mgrwt>
</event>
<event>
 4    5  0.1905771E-007  0.1052457E+04  0.7818608E-02  0.9315934E-01
          2   -1    0    0  501    0  0.00000000000E+00  0.00000000000E+00  0.14493979406E+04  0.14493979406E+04  0.25500000000E-02 0. -1.
         -2   -1    0    0    0  501 -0.00000000000E+00 -0.00000000000E+00 -0.15650653170E+04  0.15650653170E+04  0.25500000000E-02 0.  1.
    8880023    1    1    2    0    0 -0.68095235391E+02 -0.81805780797E+03  0.11111338815E+04  0.15304523015E+04  0.65864270000E+03 0.  0.
    8880022    1    1    2    0    0  0.68095235391E+02  0.81805780797E+03 -0.12268012579E+04  0.14840109560E+04  0.15294330000E+03 0.  0.
<mgrwt>
<rscale>  0 0.99329127E+03</rscale>
<asrwt>0</asrwt>
<pdfrwt beam="1">  1        2 0.22298430E+00 0.10524570E+04</pdfrwt>
<pdfrwt beam="2">  1       -2 0.24077928E+00 0.10524570E+04</pdfrwt>
<totfact> 0.98300497E-01</totfact>
</mgrwt>
</event>
<event>
 4    5  0.1943333E-007  0.8229817E+03  0.7818608E-02  0.9663145E-01
         -2   -1    0    0    0  501 -0.00000000000E+00  0.00000000000E+00  0.10314475906E+04  0.10314475906E+04  0.25500000000E-02 0.  1.
          2   -1    0    0  501    0  0.00000000000E+00 -0.00000000000E+00 -0.14524425959E+04  0.14524425959E+04  0.25500000000E-02 0. -1.
    8880023    1    1    2    0    0  0.36458581363E+03  0.33251438455E+03 -0.12562291548E+04  0.15018024261E+04  0.65864270000E+03 0. -1.
    8880022    1    1    2    0    0 -0.36458581363E+03 -0.33251438455E+03  0.83523414960E+03  0.98208776039E+03  0.15294330000E+03 0.  0.
<mgrwt>
<rscale>  0 0.73254142E+03</rscale>
<asrwt>0</asrwt>
<pdfrwt beam="1">  1        2 0.22345271E+00 0.82298168E+03</pdfrwt>
<pdfrwt beam="2">  1       -2 0.15868424E+00 0.82298168E+03</pdfrwt>
<totfact> 0.35324814E+00</totfact>
</mgrwt>
</event>
<event>
 4    5  0.1905771E-007  0.1633545E+04  0.7818608E-02  0.8820672E-01
          2   -1    0    0  501    0  0.00000000000E+00  0.00000000000E+00  0.40869138991E+04  0.40869138991E+04  0.25500000000E-02 0. -1.
         -2   -1    0    0    0  501 -0.00000000000E+00 -0.00000000000E+00 -0.14008905459E+04  0.14008905459E+04  0.25500000000E-02 0.  1.
    8880023    1    1    2    0    0 -0.11182846923E+04 -0.99201779134E+03  0.34388284357E+04  0.38071000996E+04  0.65864270000E+03 0.  0.
    8880022    1    1    2    0    0  0.11182846923E+04  0.99201779134E+03 -0.75280508249E+03  0.16807043454E+04  0.15294330000E+03 0.  0.
<mgrwt>
<rscale>  0 0.15997979E+04</rscale>
<asrwt>0</asrwt>
<pdfrwt beam="1">  1        2 0.62875597E+00 0.16335453E+04</pdfrwt>
<pdfrwt beam="2">  1       -2 0.21552163E+00 0.16335453E+04</pdfrwt>
<totfact> 0.28721147E-02</totfact>
</mgrwt>
</event>
<event>
 4    5  0.1905771E-007  0.1079400E+04  0.7818608E-02  0.9284346E-01
         -2   -1    0    0    0  501 -0.00000000000E+00  0.00000000000E+00  0.10254748967E+04  0.10254748967E+04  0.25500000000E-02 0.  1.
          2   -1    0    0  501    0  0.00000000000E+00 -0.00000000000E+00 -0.15080685618E+04  0.15080685618E+04  0.25500000000E-02 0. -1.
    8880023    1    1    2    0    0  0.82006314958E+03  0.24246781405E+03 -0.10419970820E+04  0.15002874176E+04  0.65864270000E+03 0. -1.
    8880022    1    1    2    0    0 -0.82006314958E+03 -0.24246781405E+03  0.55940341691E+03  0.10332560409E+04  0.15294330000E+03 0.  0.
<mgrwt>
<rscale>  0 0.10223688E+04</rscale>
<asrwt>0</asrwt>
<pdfrwt beam="1">  1        2 0.23201055E+00 0.10794000E+04</pdfrwt>
<pdfrwt beam="2">  1       -2 0.15776537E+00 0.10794000E+04</pdfrwt>
<totfact> 0.32337752E+00</totfact>
</mgrwt>
</event>
<event>
 4    5  0.1905771E-007  0.1479324E+04  0.7818608E-02  0.8924376E-01
         -2   -1    0    0    0  501 -0.00000000000E+00  0.00000000000E+00  0.19559908180E+04  0.19559908180E+04  0.25500000000E-02 0.  1.
          2   -1    0    0  501    0  0.00000000000E+00 -0.00000000000E+00 -0.13333141132E+04  0.13333141132E+04  0.25500000000E-02 0. -1.
    8880023    1    1    2    0    0 -0.13155632243E+04  0.15454044817E+03  0.11311562900E+04  0.18622336335E+04  0.65864270000E+03 0.  0.
    8880022    1    1    2    0    0  0.13155632243E+04 -0.15454044817E+03 -0.50847958514E+03  0.14270712977E+04  0.15294330000E+03 0.  0.
<mgrwt>
<rscale>  0 0.14414128E+04</rscale>
<asrwt>0</asrwt>
<pdfrwt beam="1">  1        2 0.20512525E+00 0.14793240E+04</pdfrwt>
<pdfrwt beam="2">  1       -2 0.30092166E+00 0.14793240E+04</pdfrwt>
<totfact> 0.46862043E-01</totfact>
</mgrwt>
</event>
<event>
 4    5  0.1905771E-007  0.6739251E+03  0.7818608E-02  0.1012993E+00
          2   -1    0    0  501    0  0.00000000000E+00  0.00000000000E+00  0.29527694626E+04  0.29527694626E+04  0.25500000000E-02 0. -1.
         -2   -1    0    0    0  501 -0.00000000000E+00 -0.00000000000E+00 -0.14607771857E+03  0.14607771859E+03  0.25500000000E-02 0.  1.
    8880023    1    1    2    0    0  0.10462216887E+03 -0.97051541415E+02  0.28099558266E+04  0.28896412846E+04  0.65864270000E+03 0. -1.
    8880022    1    1    2    0    0 -0.10462216887E+03  0.97051541415E+02 -0.32640825984E+01  0.20920589657E+03  0.15294330000E+03 0.  0.
<mgrwt>
<rscale>  0 0.50302431E+03</rscale>
<asrwt>0</asrwt>
<pdfrwt beam="1">  1        2 0.45427219E+00 0.67392507E+03</pdfrwt>
<pdfrwt beam="2">  1       -2 0.22473497E-01 0.67392507E+03</pdfrwt>
<totfact> 0.34561311E+01</totfact>
</mgrwt>
</event>
<event>
 4    5  0.1905771E-007  0.1010869E+04  0.7818608E-02  0.9367474E-01
          2   -1    0    0  501    0  0.00000000000E+00  0.00000000000E+00  0.26611817033E+04  0.26611817033E+04  0.25500000000E-02 0. -1.
         -2   -1    0    0    0  501 -0.00000000000E+00 -0.00000000000E+00 -0.37366970429E+03  0.37366970430E+03  0.25500000000E-02 0.  1.
    8880023    1    1    2    0    0 -0.70865953168E+03  0.29299592741E+03  0.19221638157E+04  0.21717663056E+04  0.65864270000E+03 0.  0.
    8880022    1    1    2    0    0  0.70865953168E+03 -0.29299592741E+03  0.36534818333E+03  0.86308510206E+03  0.15294330000E+03 0.  0.
<mgrwt>
<rscale>  0 0.94801439E+03</rscale>
<asrwt>0</asrwt>
<pdfrwt beam="1">  1        2 0.40941257E+00 0.10108685E+04</pdfrwt>
<pdfrwt beam="2">  1       -2 0.57487646E-01 0.10108685E+04</pdfrwt>
<totfact> 0.80461280E+00</totfact>
</mgrwt>
</event>
<event>
 4    5  0.1905771E-007  0.7680487E+03  0.7818608E-02  0.9784699E-01
          2   -1    0    0  501    0  0.00000000000E+00  0.00000000000E+00  0.41760265672E+04  0.41760265672E+04  0.25500000000E-02 0. -1.
         -2   -1    0    0    0  501 -0.00000000000E+00 -0.00000000000E+00 -0.46744658793E+03  0.46744658794E+03  0.25500000000E-02 0.  1.
    8880023    1    1    2    0    0 -0.17133476684E+03  0.35599573438E+03  0.40357581483E+04  0.41081921331E+04  0.65864270000E+03 0. -1.
    8880022    1    1    2    0    0  0.17133476684E+03 -0.35599573438E+03 -0.32717816900E+03  0.53528102200E+03  0.15294330000E+03 0.  0.
<mgrwt>
<rscale>  0 0.66190191E+03</rscale>
<asrwt>0</asrwt>
<pdfrwt beam="1">  1        2 0.64246562E+00 0.76804868E+03</pdfrwt>
<pdfrwt beam="2">  1       -2 0.71914861E-01 0.76804868E+03</pdfrwt>
<totfact> 0.47786240E-01</totfact>
</mgrwt>
</event>
<event>
 4    5  0.1905771E-007  0.6985091E+03  0.7818608E-02  0.1000344E+00
          2   -1    0    0  501    0  0.00000000000E+00  0.00000000000E+00  0.14350375507E+04  0.14350375507E+04  0.25500000000E-02 0. -1.
         -2   -1    0    0    0  501 -0.00000000000E+00 -0.00000000000E+00 -0.13023182098E+04  0.13023182098E+04  0.25500000000E-02 0.  1.
    8880023    1    1    2    0    0  0.18873508367E+03 -0.13595516524E+03  0.13331552583E+04  0.15050640810E+04  0.65864270000E+03 0.  0.
    8880022    1    1    2    0    0 -0.18873508367E+03  0.13595516524E+03 -0.12004359174E+04  0.12322916795E+04  0.15294330000E+03 0.  1.
<mgrwt>
<rscale>  0 0.55499520E+03</rscale>
<asrwt>0</asrwt>
<pdfrwt beam="1">  1        2 0.22077501E+00 0.69850909E+03</pdfrwt>
<pdfrwt beam="2">  1       -2 0.20035665E+00 0.69850909E+03</pdfrwt>
<totfact> 0.19027045E+00</totfact>
</mgrwt>
</event>
<event>
 4    5  0.1905771E-007  0.7959340E+03  0.7818608E-02  0.9719657E-01
         -2   -1    0    0    0  501 -0.00000000000E+00  0.00000000000E+00  0.31429819505E+03  0.31429819506E+03  0.25500000000E-02 0.  1.
          2   -1    0    0  501    0  0.00000000000E+00 -0.00000000000E+00 -0.14773622896E+04  0.14773622896E+04  0.25500000000E-02 0. -1.
    8880023    1    1    2    0    0  0.44446516224E+03  0.46383886842E+02 -0.10285592016E+04  0.13005556439E+04  0.65864270000E+03 0.  0.
    8880022    1    1    2    0    0 -0.44446516224E+03 -0.46383886842E+02 -0.13450489296E+03  0.49110484079E+03  0.15294330000E+03 0.  0.
<mgrwt>
<rscale>  0 0.69858361E+03</rscale>
<asrwt>0</asrwt>
<pdfrwt beam="1">  1        2 0.22728650E+00 0.79593401E+03</pdfrwt>
<pdfrwt beam="2">  1       -2 0.48353569E-01 0.79593401E+03</pdfrwt>
<totfact> 0.53837469E+01</totfact>
</mgrwt>
</event>
<event>
 4    5  0.1905771E-007  0.7307060E+03  0.7818608E-02  0.9887897E-01
         -2   -1    0    0    0  501 -0.00000000000E+00  0.00000000000E+00  0.26650317900E+03  0.26650317901E+03  0.25500000000E-02 0.  1.
          2   -1    0    0  501    0  0.00000000000E+00 -0.00000000000E+00 -0.10990422731E+04  0.10990422731E+04  0.25500000000E-02 0. -1.
    8880023    1    1    2    0    0 -0.48561218536E+02 -0.31267044157E+03 -0.57588742640E+03  0.93036419274E+03  0.65864270000E+03 0.  0.
    8880022    1    1    2    0    0  0.48561218536E+02  0.31267044157E+03 -0.25665166774E+03  0.43518125941E+03  0.15294330000E+03 0.  1.
<mgrwt>
<rscale>  0 0.60851448E+03</rscale>
<asrwt>0</asrwt>
<pdfrwt beam="1">  1        2 0.16908342E+00 0.73070596E+03</pdfrwt>
<pdfrwt beam="2">  1       -2 0.41000490E-01 0.73070596E+03</pdfrwt>
<totfact> 0.12471261E+02</totfact>
</mgrwt>
</event>
<event>
 4    5  0.1905771E-007  0.8923479E+03  0.7818608E-02  0.9538429E-01
          2   -1    0    0  501    0  0.00000000000E+00  0.00000000000E+00  0.22774486663E+04  0.22774486663E+04  0.25500000000E-02 0. -1.
         -2   -1    0    0    0  501 -0.00000000000E+00 -0.00000000000E+00 -0.88800562134E+03  0.88800562134E+03  0.25500000000E-02 0.  1.
    8880023    1    1    2    0    0  0.46910038628E+03  0.37738482991E+03  0.20638864473E+04  0.22485355135E+04  0.65864270000E+03 0. -1.
    8880022    1    1    2    0    0 -0.46910038628E+03 -0.37738482991E+03 -0.67444340233E+03  0.91691877406E+03  0.15294330000E+03 0.  0.
<mgrwt>
<rscale>  0 0.81508935E+03</rscale>
<asrwt>0</asrwt>
<pdfrwt beam="1">  1        2 0.35037671E+00 0.89234785E+03</pdfrwt>
<pdfrwt beam="2">  1       -2 0.13661625E+00 0.89234785E+03</pdfrwt>
<totfact> 0.18202441E+00</totfact>
</mgrwt>
</event>
<event>
 4    5  0.1905771E-007  0.6769323E+03  0.7818608E-02  0.1011115E+00
         -2   -1    0    0    0  501 -0.00000000000E+00  0.00000000000E+00  0.63289571754E+03  0.63289571754E+03  0.25500000000E-02 0.  1.
          2   -1    0    0  501    0  0.00000000000E+00 -0.00000000000E+00 -0.19645094978E+04  0.19645094978E+04  0.25500000000E-02 0. -1.
    8880023    1    1    2    0    0 -0.14209096006E+03  0.65094302984E+02 -0.18847415570E+04  0.20026202966E+04  0.65864270000E+03 0.  0.
    8880022    1    1    2    0    0  0.14209096006E+03 -0.65094302984E+02  0.55312777674E+03  0.59478491879E+03  0.15294330000E+03 0.  0.
<mgrwt>
<rscale>  0 0.51033894E+03</rscale>
<asrwt>0</asrwt>
<pdfrwt beam="1">  1        2 0.30223223E+00 0.67693228E+03</pdfrwt>
<pdfrwt beam="2">  1       -2 0.97368573E-01 0.67693228E+03</pdfrwt>
<totfact> 0.64447370E+00</totfact>
</mgrwt>
</event>
<event>
 4    5  0.1905771E-007  0.1425539E+04  0.7818608E-02  0.8964088E-01
         -2   -1    0    0    0  501 -0.00000000000E+00  0.00000000000E+00  0.67296912262E+03  0.67296912262E+03  0.25500000000E-02 0.  1.
          2   -1    0    0  501    0  0.00000000000E+00 -0.00000000000E+00 -0.28317298631E+04  0.28317298631E+04  0.25500000000E-02 0. -1.
    8880023    1    1    2    0    0  0.11793124182E+04  0.45560255833E+03 -0.15059247804E+04  0.20736371720E+04  0.65864270000E+03 0.  0.
    8880022    1    1    2    0    0 -0.11793124182E+04 -0.45560255833E+03 -0.65283596008E+03  0.14310618137E+04  0.15294330000E+03 0.  0.
<mgrwt>
<rscale>  0 0.13859007E+04</rscale>
<asrwt>0</asrwt>
<pdfrwt beam="1">  1        2 0.43565074E+00 0.14255391E+04</pdfrwt>
<pdfrwt beam="2">  1       -2 0.10353371E+00 0.14255391E+04</pdfrwt>
<totfact> 0.16179103E+00</totfact>
</mgrwt>
</event>
<event>
 4    5  0.1905771E-007  0.9283720E+03  0.7818608E-02  0.9481940E-01
         -2   -1    0    0    0  501 -0.00000000000E+00  0.00000000000E+00  0.11046187393E+04  0.11046187393E+04  0.25500000000E-02 0.  1.
          2   -1    0    0  501    0  0.00000000000E+00 -0.00000000000E+00 -0.10989818898E+04  0.10989818898E+04  0.25500000000E-02 0. -1.
    8880023    1    1    2    0    0  0.50849577723E+03  0.41169951496E+03 -0.74925084473E+03  0.11930010397E+04  0.65864270000E+03 0.  0.
    8880022    1    1    2    0    0 -0.50849577723E+03 -0.41169951496E+03  0.75488769427E+03  0.10105995894E+04  0.15294330000E+03 0.  0.
<mgrwt>
<rscale>  0 0.85628529E+03</rscale>
<asrwt>0</asrwt>
<pdfrwt beam="1">  1        2 0.16907414E+00 0.92837204E+03</pdfrwt>
<pdfrwt beam="2">  1       -2 0.16994134E+00 0.92837204E+03</pdfrwt>
<totfact> 0.46493540E+00</totfact>
</mgrwt>
</event>
<event>
 4    5  0.1905771E-007  0.8186421E+03  0.7818608E-02  0.9671849E-01
          2   -1    0    0  501    0  0.00000000000E+00  0.00000000000E+00  0.18609001013E+04  0.18609001013E+04  0.25500000000E-02 0. -1.
         -2   -1    0    0    0  501 -0.00000000000E+00 -0.00000000000E+00 -0.29348832148E+03  0.29348832149E+03  0.25500000000E-02 0.  1.
    8880023    1    1    2    0    0  0.43988484079E+03  0.20704110238E+03  0.13929372225E+04  0.16156883992E+04  0.65864270000E+03 0.  0.
    8880022    1    1    2    0    0 -0.43988484079E+03 -0.20704110238E+03  0.17447455730E+03  0.53870002357E+03  0.15294330000E+03 0.  0.
<mgrwt>
<rscale>  0 0.72717900E+03</rscale>
<asrwt>0</asrwt>
<pdfrwt beam="1">  1        2 0.28629233E+00 0.81864211E+03</pdfrwt>
<pdfrwt beam="2">  1       -2 0.45152049E-01 0.81864211E+03</pdfrwt>
<totfact> 0.37898502E+01</totfact>
</mgrwt>
</event>
<event>
 4    5  0.1905771E-007  0.9207000E+03  0.7818608E-02  0.9493587E-01
         -2   -1    0    0    0  501 -0.00000000000E+00  0.00000000000E+00  0.17792362480E+03  0.17792362482E+03  0.25500000000E-02 0.  1.
          2   -1    0    0  501    0  0.00000000000E+00 -0.00000000000E+00 -0.47911201727E+04  0.47911201727E+04  0.25500000000E-02 0. -1.
    8880023    1    1    2    0    0 -0.32547347151E+03  0.55492813566E+03 -0.38530519870E+04  0.39615272355E+04  0.65864270000E+03 0. -1.
    8880022    1    1    2    0    0  0.32547347151E+03 -0.55492813566E+03 -0.76014456091E+03  0.10075165621E+04  0.15294330000E+03 0.  0.
<mgrwt>
<rscale>  0 0.84758310E+03</rscale>
<asrwt>0</asrwt>
<pdfrwt beam="1">  1        2 0.73709531E+00 0.92069996E+03</pdfrwt>
<pdfrwt beam="2">  1       -2 0.27372869E-01 0.92069996E+03</pdfrwt>
<totfact> 0.82121777E-01</totfact>
</mgrwt>
</event>
<event>
 4    5  0.1905771E-007  0.1384890E+04  0.7818608E-02  0.8995514E-01
          2   -1    0    0  501    0  0.00000000000E+00  0.00000000000E+00  0.17120736092E+04  0.17120736092E+04  0.25500000000E-02 0. -1.
         -2   -1    0    0    0  501 -0.00000000000E+00 -0.00000000000E+00 -0.25569838164E+04  0.25569838164E+04  0.25500000000E-02 0.  1.
    8880023    1    1    2    0    0 -0.10665480843E+04 -0.58871422238E+03  0.12338316900E+04  0.18547938153E+04  0.65864270000E+03 0.  0.
    8880022    1    1    2    0    0  0.10665480843E+04  0.58871422238E+03 -0.20787418973E+04  0.24142636103E+04  0.15294330000E+03 0.  0.
<mgrwt>
<rscale>  0 0.13438277E+04</rscale>
<asrwt>0</asrwt>
<pdfrwt beam="1">  1        2 0.26339594E+00 0.13848897E+04</pdfrwt>
<pdfrwt beam="2">  1       -2 0.39338212E+00 0.13848897E+04</pdfrwt>
<totfact> 0.75683141E-02</totfact>
</mgrwt>
</event>
<event>
 4    5  0.1905771E-007  0.6914130E+03  0.7818608E-02  0.1003488E+00
          2   -1    0    0  501    0  0.00000000000E+00  0.00000000000E+00  0.72055157243E+03  0.72055157243E+03  0.25500000000E-02 0. -1.
         -2   -1    0    0    0  501 -0.00000000000E+00 -0.00000000000E+00 -0.37849557471E+03  0.37849557472E+03  0.25500000000E-02 0.  1.
    8880023    1    1    2    0    0 -0.64719394619E+02 -0.20013273879E+03  0.44179972312E+03  0.82051137396E+03  0.65864270000E+03 0.  1.
    8880022    1    1    2    0    0  0.64719394619E+02  0.20013273879E+03 -0.99743725405E+02  0.27853577319E+03  0.15294330000E+03 0.  0.
<mgrwt>
<rscale>  0 0.54146860E+03</rscale>
<asrwt>0</asrwt>
<pdfrwt beam="1">  1        2 0.11085409E+00 0.69141299E+03</pdfrwt>
<pdfrwt beam="2">  1       -2 0.58230089E-01 0.69141299E+03</pdfrwt>
<totfact> 0.11062923E+02</totfact>
</mgrwt>
</event>
<event>
 4    5  0.1905771E-007  0.8434512E+03  0.7818608E-02  0.9623707E-01
          2   -1    0    0  501    0  0.00000000000E+00  0.00000000000E+00  0.89673505676E+03  0.89673505677E+03  0.25500000000E-02 0. -1.
         -2   -1    0    0    0  501 -0.00000000000E+00 -0.00000000000E+00 -0.77410138478E+03  0.77410138478E+03  0.25500000000E-02 0.  1.
    8880023    1    1    2    0    0  0.13078140077E+03  0.51038807487E+03  0.52229755725E+03  0.99207091800E+03  0.65864270000E+03 0. -1.
    8880022    1    1    2    0    0 -0.13078140077E+03 -0.51038807487E+03 -0.39966388526E+03  0.67876552355E+03  0.15294330000E+03 0.  0.
<mgrwt>
<rscale>  0 0.75746792E+03</rscale>
<asrwt>0</asrwt>
<pdfrwt beam="1">  1        2 0.13795924E+00 0.84345122E+03</pdfrwt>
<pdfrwt beam="2">  1       -2 0.11909252E+00 0.84345122E+03</pdfrwt>
<totfact> 0.16047835E+01</totfact>
</mgrwt>
</event>
<event>
 4    5  0.1905771E-007  0.1330278E+04  0.7818608E-02  0.9039844E-01
          2   -1    0    0  501    0  0.00000000000E+00  0.00000000000E+00  0.24374229498E+04  0.24374229498E+04  0.25500000000E-02 0. -1.
         -2   -1    0    0    0  501 -0.00000000000E+00 -0.00000000000E+00 -0.73380175442E+03  0.73380175442E+03  0.25500000000E-02 0.  1.
    8880023    1    1    2    0    0  0.65732416885E+03  0.95066016065E+03  0.14693250433E+04  0.19820585493E+04  0.65864270000E+03 0. -1.
    8880022    1    1    2    0    0 -0.65732416885E+03 -0.95066016065E+03  0.23429615211E+03  0.11891661549E+04  0.15294330000E+03 0.  0.
<mgrwt>
<rscale>  0 0.12871173E+04</rscale>
<asrwt>0</asrwt>
<pdfrwt beam="1">  1        2 0.37498815E+00 0.13302782E+04</pdfrwt>
<pdfrwt beam="2">  1       -2 0.11289258E+00 0.13302782E+04</pdfrwt>
<totfact> 0.22566216E+00</totfact>
</mgrwt>
</event>
<event>
 4    5  0.1905771E-007  0.2012877E+04  0.7818608E-02  0.8613108E-01
          2   -1    0    0  501    0  0.00000000000E+00  0.00000000000E+00  0.35251980297E+04  0.35251980297E+04  0.25500000000E-02 0. -1.
         -2   -1    0    0    0  501 -0.00000000000E+00 -0.00000000000E+00 -0.16879086137E+04  0.16879086137E+04  0.25500000000E-02 0.  1.
    8880023    1    1    2    0    0  0.18104237824E+04  0.58329105262E+03  0.24850145168E+04  0.31979634268E+04  0.65864270000E+03 0.  0.
    8880022    1    1    2    0    0 -0.18104237824E+04 -0.58329105262E+03 -0.64772510082E+03  0.20151432166E+04  0.15294330000E+03 0.  0.
<mgrwt>
<rscale>  0 0.19861830E+04</rscale>
<asrwt>0</asrwt>
<pdfrwt beam="1">  1        2 0.54233816E+00 0.20128768E+04</pdfrwt>
<pdfrwt beam="2">  1       -2 0.25967825E+00 0.20128768E+04</pdfrwt>
<totfact> 0.38770339E-02</totfact>
</mgrwt>
</event>
<event>
 4    5  0.1905771E-007  0.7441289E+03  0.7818608E-02  0.9848079E-01
         -2   -1    0    0    0  501 -0.00000000000E+00  0.00000000000E+00  0.23938642114E+03  0.23938642115E+03  0.25500000000E-02 0.  1.
          2   -1    0    0  501    0  0.00000000000E+00 -0.00000000000E+00 -0.23732560349E+04  0.23732560349E+04  0.25500000000E-02 0. -1.
    8880023    1    1    2    0    0 -0.13717501376E+03  0.31796329535E+03 -0.21053748342E+04  0.22330094134E+04  0.65864270000E+03 0. -1.
    8880022    1    1    2    0    0  0.13717501376E+03 -0.31796329535E+03 -0.28494779554E+02  0.37963304264E+03  0.15294330000E+03 0.  0.
<mgrwt>
<rscale>  0 0.62844957E+03</rscale>
<asrwt>0</asrwt>
<pdfrwt beam="1">  1        2 0.36511630E+00 0.74412892E+03</pdfrwt>
<pdfrwt beam="2">  1       -2 0.36828682E-01 0.74412892E+03</pdfrwt>
<totfact> 0.29787763E+01</totfact>
</mgrwt>
</event>
<event>
 4    5  0.1905771E-007  0.7150735E+03  0.7818608E-02  0.9939622E-01
          2   -1    0    0  501    0  0.00000000000E+00  0.00000000000E+00  0.22531222294E+04  0.22531222294E+04  0.25500000000E-02 0. -1.
         -2   -1    0    0    0  501 -0.00000000000E+00 -0.00000000000E+00 -0.51488832010E+03  0.51488832010E+03  0.25500000000E-02 0.  1.
    8880023    1    1    2    0    0  0.22721557164E+03 -0.16091294787E+03  0.21397243659E+04  0.22560475308E+04  0.65864270000E+03 0. -1.
    8880022    1    1    2    0    0 -0.22721557164E+03  0.16091294787E+03 -0.40149045660E+03  0.51196301873E+03  0.15294330000E+03 0.  0.
<mgrwt>
<rscale>  0 0.58378861E+03</rscale>
<asrwt>0</asrwt>
<pdfrwt beam="1">  1        2 0.34663418E+00 0.71507349E+03</pdfrwt>
<pdfrwt beam="2">  1       -2 0.79213589E-01 0.71507349E+03</pdfrwt>
<totfact> 0.71419019E+00</totfact>
</mgrwt>
</event>
<event>
 4    5  0.1905771E-007  0.1155058E+04  0.7818608E-02  0.9202098E-01
         -2   -1    0    0    0  501 -0.00000000000E+00  0.00000000000E+00  0.13851806838E+04  0.13851806838E+04  0.25500000000E-02 0.  1.
          2   -1    0    0  501    0  0.00000000000E+00 -0.00000000000E+00 -0.19007465950E+04  0.19007465950E+04  0.25500000000E-02 0. -1.
    8880023    1    1    2    0    0 -0.79134805613E+03 -0.52356097016E+03 -0.15112058802E+04  0.19020781409E+04  0.65864270000E+03 0.  0.
    8880022    1    1    2    0    0  0.79134805613E+03  0.52356097016E+03  0.99563996910E+03  0.13838491379E+04  0.15294330000E+03 0.  0.
<mgrwt>
<rscale>  0 0.11031801E+04</rscale>
<asrwt>0</asrwt>
<pdfrwt beam="1">  1        2 0.29242255E+00 0.11550576E+04</pdfrwt>
<pdfrwt beam="2">  1       -2 0.21310472E+00 0.11550576E+04</pdfrwt>
<totfact> 0.81026354E-01</totfact>
</mgrwt>
</event>
<event>
 4    5  0.1905771E-007  0.7589847E+03  0.7818608E-02  0.9807743E-01
          2   -1    0    0  501    0  0.00000000000E+00  0.00000000000E+00  0.11135754151E+04  0.11135754151E+04  0.25500000000E-02 0. -1.
         -2   -1    0    0    0  501 -0.00000000000E+00 -0.00000000000E+00 -0.52000380473E+03  0.52000380474E+03  0.25500000000E-02 0.  1.
    8880023    1    1    2    0    0 -0.72371735035E+02 -0.37014847373E+03  0.86009136409E+03  0.11470897617E+04  0.65864270000E+03 0. -1.
    8880022    1    1    2    0    0  0.72371735035E+02  0.37014847373E+03 -0.26651975377E+03  0.48648945806E+03  0.15294330000E+03 0.  0.
<mgrwt>
<rscale>  0 0.64948655E+03</rscale>
<asrwt>0</asrwt>
<pdfrwt beam="1">  1        2 0.17131929E+00 0.75898469E+03</pdfrwt>
<pdfrwt beam="2">  1       -2 0.80000586E-01 0.75898469E+03</pdfrwt>
<totfact> 0.30030022E+01</totfact>
</mgrwt>
</event>
<event>
 4    5  0.1905771E-007  0.7967604E+03  0.7818608E-02  0.9717845E-01
         -2   -1    0    0    0  501 -0.00000000000E+00  0.00000000000E+00  0.56354418805E+03  0.56354418806E+03  0.25500000000E-02 0.  1.
          2   -1    0    0  501    0  0.00000000000E+00 -0.00000000000E+00 -0.21381112968E+04  0.21381112968E+04  0.25500000000E-02 0. -1.
    8880023    1    1    2    0    0  0.23130564742E+03 -0.38407633337E+03 -0.19439815034E+04  0.21009262777E+04  0.65864270000E+03 0. -1.
    8880022    1    1    2    0    0 -0.23130564742E+03  0.38407633337E+03  0.36941439465E+03  0.60072920719E+03  0.15294330000E+03 0.  0.
<mgrwt>
<rscale>  0 0.69964179E+03</rscale>
<asrwt>0</asrwt>
<pdfrwt beam="1">  1        2 0.32894020E+00 0.79676040E+03</pdfrwt>
<pdfrwt beam="2">  1       -2 0.86699107E-01 0.79676040E+03</pdfrwt>
<totfact> 0.66464489E+00</totfact>
</mgrwt>
</event>
<event>
 4    5  0.1905771E-007  0.7765537E+03  0.7818608E-02  0.9763995E-01
         -2   -1    0    0    0  501 -0.00000000000E+00  0.00000000000E+00  0.47803424671E+03  0.47803424671E+03  0.25500000000E-02 0.  1.
          2   -1    0    0  501    0  0.00000000000E+00 -0.00000000000E+00 -0.12160318623E+04  0.12160318623E+04  0.25500000000E-02 0. -1.
    8880023    1    1    2    0    0  0.13047697705E+03 -0.39012980636E+03 -0.93293588705E+03  0.12138389856E+04  0.65864270000E+03 0. -1.
    8880022    1    1    2    0    0 -0.13047697705E+03  0.39012980636E+03  0.19493827147E+03  0.48022712340E+03  0.15294330000E+03 0.  0.
<mgrwt>
<rscale>  0 0.67331069E+03</rscale>
<asrwt>0</asrwt>
<pdfrwt beam="1">  1        2 0.18708182E+00 0.77655374E+03</pdfrwt>
<pdfrwt beam="2">  1       -2 0.73543731E-01 0.77655374E+03</pdfrwt>
<totfact> 0.31395373E+01</totfact>
</mgrwt>
</event>
<event>
 4    5  0.1905771E-007  0.7278224E+03  0.7818608E-02  0.9896955E-01
         -2   -1    0    0    0  501 -0.00000000000E+00  0.00000000000E+00  0.25046884331E+03  0.25046884332E+03  0.25500000000E-02 0.  1.
          2   -1    0    0  501    0  0.00000000000E+00 -0.00000000000E+00 -0.15744876722E+04  0.15744876722E+04  0.25500000000E-02 0. -1.
    8880023    1    1    2    0    0  0.29555643552E+03 -0.92528917249E+02 -0.12857210702E+04  0.14774315834E+04  0.65864270000E+03 0.  0.
    8880022    1    1    2    0    0 -0.29555643552E+03  0.92528917249E+02 -0.38297758712E+02  0.34752493212E+03  0.15294330000E+03 0.  0.
<mgrwt>
<rscale>  0 0.60409081E+03</rscale>
<asrwt>0</asrwt>
<pdfrwt beam="1">  1        2 0.24222887E+00 0.72782238E+03</pdfrwt>
<pdfrwt beam="2">  1       -2 0.38533669E-01 0.72782238E+03</pdfrwt>
<totfact> 0.75016107E+01</totfact>
</mgrwt>
</event>
<event>
 4    5  0.1905771E-007  0.9385291E+03  0.7818608E-02  0.9466814E-01
         -2   -1    0    0    0  501 -0.00000000000E+00  0.00000000000E+00  0.11047965462E+04  0.11047965462E+04  0.25500000000E-02 0.  1.
          2   -1    0    0  501    0  0.00000000000E+00 -0.00000000000E+00 -0.94495872470E+03  0.94495872470E+03  0.25500000000E-02 0. -1.
    8880023    1    1    2    0    0  0.32004384129E+03 -0.58702520921E+03 -0.52928324291E+03  0.10774867118E+04  0.65864270000E+03 0. -1.
    8880022    1    1    2    0    0 -0.32004384129E+03  0.58702520921E+03  0.68912106440E+03  0.97226855910E+03  0.15294330000E+03 0.  0.
<mgrwt>
<rscale>  0 0.86775342E+03</rscale>
<asrwt>0</asrwt>
<pdfrwt beam="1">  1        2 0.14537827E+00 0.93852910E+03</pdfrwt>
<pdfrwt beam="2">  1       -2 0.16996870E+00 0.93852910E+03</pdfrwt>
<totfact> 0.58190747E+00</totfact>
</mgrwt>
</event>
<event>
 4    5  0.1905771E-007  0.8411832E+03  0.7818608E-02  0.9627953E-01
         -2   -1    0    0    0  501 -0.00000000000E+00  0.00000000000E+00  0.16560851351E+04  0.16560851351E+04  0.25500000000E-02 0.  1.
          2   -1    0    0  501    0  0.00000000000E+00 -0.00000000000E+00 -0.13392713974E+04  0.13392713974E+04  0.25500000000E-02 0. -1.
    8880023    1    1    2    0    0 -0.52098960820E+03 -0.48464480209E+02 -0.11532710904E+04  0.14274534640E+04  0.65864270000E+03 0. -1.
    8880022    1    1    2    0    0  0.52098960820E+03  0.48464480209E+02  0.14700848281E+04  0.15679030686E+04  0.15294330000E+03 0.  0.
<mgrwt>
<rscale>  0 0.75473359E+03</rscale>
<asrwt>0</asrwt>
<pdfrwt beam="1">  1        2 0.20604175E+00 0.84118320E+03</pdfrwt>
<pdfrwt beam="2">  1       -2 0.25478233E+00 0.84118320E+03</pdfrwt>
<totfact> 0.96377141E-01</totfact>
</mgrwt>
</event>
<event>
 4    5  0.1905771E-007  0.1034579E+04  0.7818608E-02  0.9337654E-01
          2   -1    0    0  501    0  0.00000000000E+00  0.00000000000E+00  0.79384553373E+03  0.79384553374E+03  0.25500000000E-02 0. -1.
         -2   -1    0    0    0  501 -0.00000000000E+00 -0.00000000000E+00 -0.15735189429E+04  0.15735189429E+04  0.25500000000E-02 0.  1.
    8880023    1    1    2    0    0  0.10551736411E+01  0.79783576000E+03  0.24158534519E+03  0.10624107956E+04  0.65864270000E+03 0.  0.
    8880022    1    1    2    0    0 -0.10551736411E+01 -0.79783576000E+03 -0.10212587544E+04  0.13049536811E+04  0.15294330000E+03 0.  0.
<mgrwt>
<rscale>  0 0.97389085E+03</rscale>
<asrwt>0</asrwt>
<pdfrwt beam="1">  1        2 0.12213008E+00 0.10345788E+04</pdfrwt>
<pdfrwt beam="2">  1       -2 0.24207984E+00 0.10345788E+04</pdfrwt>
<totfact> 0.24845234E+00</totfact>
</mgrwt>
</event>
<event>
 4    5  0.1905771E-007  0.1020898E+04  0.7818608E-02  0.9354713E-01
          2   -1    0    0  501    0  0.00000000000E+00  0.00000000000E+00  0.27432657278E+04  0.27432657278E+04  0.25500000000E-02 0. -1.
         -2   -1    0    0    0  501 -0.00000000000E+00 -0.00000000000E+00 -0.64643812003E+03  0.64643812003E+03  0.25500000000E-02 0.  1.
    8880023    1    1    2    0    0  0.36940946807E+03 -0.68699320528E+03  0.23445113963E+04  0.25571403780E+04  0.65864270000E+03 0.  0.
    8880022    1    1    2    0    0 -0.36940946807E+03  0.68699320528E+03 -0.24768378852E+03  0.83256346984E+03  0.15294330000E+03 0.  0.
<mgrwt>
<rscale>  0 0.95898222E+03</rscale>
<asrwt>0</asrwt>
<pdfrwt beam="1">  1        2 0.42204087E+00 0.10208982E+04</pdfrwt>
<pdfrwt beam="2">  1       -2 0.99452021E-01 0.10208982E+04</pdfrwt>
<totfact> 0.21155970E+00</totfact>
</mgrwt>
</event>
<event>
 4    5  0.1905771E-007  0.9291494E+03  0.7818608E-02  0.9480770E-01
         -2   -1    0    0    0  501 -0.00000000000E+00  0.00000000000E+00  0.20438509421E+04  0.20438509421E+04  0.25500000000E-02 0.  1.
          2   -1    0    0  501    0  0.00000000000E+00 -0.00000000000E+00 -0.32830722623E+03  0.32830722624E+03  0.25500000000E-02 0. -1.
    8880023    1    1    2    0    0 -0.51414592774E+03 -0.40640161666E+03  0.74410430926E+03  0.11903821816E+04  0.65864270000E+03 0.  1.
    8880022    1    1    2    0    0  0.51414592774E+03  0.40640161666E+03  0.97143940665E+03  0.11817759867E+04  0.15294330000E+03 0. -1.
<mgrwt>
<rscale>  0 0.85716500E+03</rscale>
<asrwt>0</asrwt>
<pdfrwt beam="1">  1        2 0.50508803E-01 0.92914935E+03</pdfrwt>
<pdfrwt beam="2">  1       -2 0.31443861E+00 0.92914935E+03</pdfrwt>
<totfact> 0.26226779E+00</totfact>
</mgrwt>
</event>
<event>
 4    5  0.1905771E-007  0.1286429E+04  0.7818608E-02  0.9077368E-01
          2   -1    0    0  501    0  0.00000000000E+00  0.00000000000E+00  0.15250733668E+04  0.15250733668E+04  0.25500000000E-02 0. -1.
         -2   -1    0    0    0  501 -0.00000000000E+00 -0.00000000000E+00 -0.10447390004E+04  0.10447390004E+04  0.25500000000E-02 0.  1.
    8880023    1    1    2    0    0 -0.11048106161E+04  0.21990436596E+02  0.65016889539E+03  0.14413951143E+04  0.65864270000E+03 0.  0.
    8880022    1    1    2    0    0  0.11048106161E+04 -0.21990436596E+02 -0.16983452899E+03  0.11284172530E+04  0.15294330000E+03 0.  0.
<mgrwt>
<rscale>  0 0.12414036E+04</rscale>
<asrwt>0</asrwt>
<pdfrwt beam="1">  1        2 0.23462667E+00 0.12864293E+04</pdfrwt>
<pdfrwt beam="2">  1       -2 0.16072908E+00 0.12864293E+04</pdfrwt>
<totfact> 0.29444343E+00</totfact>
</mgrwt>
</event>
<event>
 4    5  0.1905771E-007  0.1324543E+04  0.7818608E-02  0.9044650E-01
          2   -1    0    0  501    0  0.00000000000E+00  0.00000000000E+00  0.17497009410E+04  0.17497009410E+04  0.25500000000E-02 0. -1.
         -2   -1    0    0    0  501 -0.00000000000E+00 -0.00000000000E+00 -0.10119364220E+04  0.10119364220E+04  0.25500000000E-02 0.  1.
    8880023    1    1    2    0    0  0.11131138880E+04  0.28562337301E+03  0.88503003792E+03  0.15930133751E+04  0.65864270000E+03 0. -1.
    8880022    1    1    2    0    0 -0.11131138880E+04 -0.28562337301E+03 -0.14726551891E+03  0.11686239879E+04  0.15294330000E+03 0.  0.
<mgrwt>
<rscale>  0 0.12811476E+04</rscale>
<asrwt>0</asrwt>
<pdfrwt beam="1">  1        2 0.26918476E+00 0.13245427E+04</pdfrwt>
<pdfrwt beam="2">  1       -2 0.15568252E+00 0.13245427E+04</pdfrwt>
<totfact> 0.23960572E+00</totfact>
</mgrwt>
</event>
<event>
 4    5  0.1905771E-007  0.1172206E+04  0.7818608E-02  0.9184625E-01
         -2   -1    0    0    0  501 -0.00000000000E+00  0.00000000000E+00  0.54227978643E+03  0.54227978644E+03  0.25500000000E-02 0.  1.
          2   -1    0    0  501    0  0.00000000000E+00 -0.00000000000E+00 -0.27799687422E+04  0.27799687422E+04  0.25500000000E-02 0. -1.
    8880023    1    1    2    0    0  0.87242655213E+03 -0.42323537783E+03 -0.19903975374E+04  0.23099239895E+04  0.65864270000E+03 0. -1.
    8880022    1    1    2    0    0 -0.87242655213E+03  0.42323537783E+03 -0.24729141827E+03  0.10123245391E+04  0.15294330000E+03 0.  0.
<mgrwt>
<rscale>  0 0.11213539E+04</rscale>
<asrwt>0</asrwt>
<pdfrwt beam="1">  1        2 0.42768749E+00 0.11722058E+04</pdfrwt>
<pdfrwt beam="2">  1       -2 0.83427661E-01 0.11722058E+04</pdfrwt>
<totfact> 0.29679085E+00</totfact>
</mgrwt>
</event>
<event>
 4    5  0.1905771E-007  0.6626170E+03  0.7818608E-02  0.1021622E+00
         -2   -1    0    0    0  501 -0.00000000000E+00  0.00000000000E+00  0.23223479166E+03  0.23223479167E+03  0.25500000000E-02 0.  1.
          2   -1    0    0  501    0  0.00000000000E+00 -0.00000000000E+00 -0.11970943327E+04  0.11970943327E+04  0.25500000000E-02 0. -1.
    8880023    1    1    2    0    0 -0.69494833154E+02  0.20531231225E+02 -0.10486704465E+04  0.12404720775E+04  0.65864270000E+03 0. -1.
    8880022    1    1    2    0    0  0.69494833154E+02 -0.20531231225E+02  0.83810905455E+02  0.18885704694E+03  0.15294330000E+03 0.  0.
<mgrwt>
<rscale>  0 0.47105726E+03</rscale>
<asrwt>0</asrwt>
<pdfrwt beam="1">  1        2 0.18416836E+00 0.66261699E+03</pdfrwt>
<pdfrwt beam="2">  1       -2 0.35728430E-01 0.66261699E+03</pdfrwt>
<totfact> 0.14285248E+02</totfact>
</mgrwt>
</event>
<event>
 4    5  0.1905771E-007  0.1276911E+04  0.7818608E-02  0.9085759E-01
          2   -1    0    0  501    0  0.00000000000E+00  0.00000000000E+00  0.37260983987E+04  0.37260983987E+04  0.25500000000E-02 0. -1.
         -2   -1    0    0    0  501 -0.00000000000E+00 -0.00000000000E+00 -0.80533765488E+03  0.80533765489E+03  0.25500000000E-02 0.  1.
    8880023    1    1    2    0    0 -0.64547517269E+03  0.88320668575E+03  0.31538475950E+04  0.34025368634E+04  0.65864270000E+03 0. -1.
    8880022    1    1    2    0    0  0.64547517269E+03 -0.88320668575E+03 -0.23308685118E+03  0.11288991902E+04  0.15294330000E+03 0.  0.
<mgrwt>
<rscale>  0 0.12314570E+04</rscale>
<asrwt>0</asrwt>
<pdfrwt beam="1">  1        2 0.57324591E+00 0.12769113E+04</pdfrwt>
<pdfrwt beam="2">  1       -2 0.12389810E+00 0.12769113E+04</pdfrwt>
<totfact> 0.27114975E-01</totfact>
</mgrwt>
</event>
<event>
 4    5  0.1905771E-007  0.7053620E+03  0.7818608E-02  0.9975645E-01
         -2   -1    0    0    0  501 -0.00000000000E+00  0.00000000000E+00  0.99537478369E+03  0.99537478369E+03  0.25500000000E-02 0.  1.
          2   -1    0    0  501    0  0.00000000000E+00 -0.00000000000E+00 -0.54195526870E+03  0.54195526870E+03  0.25500000000E-02 0. -1.
    8880023    1    1    2    0    0 -0.25164199461E+03  0.20042597603E+02 -0.27057904092E+03  0.75547906842E+03  0.65864270000E+03 0.  0.
    8880022    1    1    2    0    0  0.25164199461E+03 -0.20042597603E+02  0.72399855591E+03  0.78185098398E+03  0.15294330000E+03 0.  0.
<mgrwt>
<rscale>  0 0.56731199E+03</rscale>
<asrwt>0</asrwt>
<pdfrwt beam="1">  1        2 0.83377734E-01 0.70536204E+03</pdfrwt>
<pdfrwt beam="2">  1       -2 0.15313458E+00 0.70536204E+03</pdfrwt>
<totfact> 0.16180901E+01</totfact>
</mgrwt>
</event>
<event>
 4    5  0.1905771E-007  0.6684292E+03  0.7818608E-02  0.1016815E+00
         -2   -1    0    0    0  501 -0.00000000000E+00  0.00000000000E+00  0.23245779364E+03  0.23245779365E+03  0.25500000000E-02 0.  1.
          2   -1    0    0  501    0  0.00000000000E+00 -0.00000000000E+00 -0.19921975853E+04  0.19921975853E+04  0.25500000000E-02 0. -1.
    8880023    1    1    2    0    0 -0.39952429674E+02  0.10672926567E+03 -0.18826226423E+04  0.19977651395E+04  0.65864270000E+03 0. -1.
    8880022    1    1    2    0    0  0.39952429674E+02 -0.10672926567E+03  0.12288285064E+03  0.22689023951E+03  0.15294330000E+03 0.  0.
<mgrwt>
<rscale>  0 0.48853745E+03</rscale>
<asrwt>0</asrwt>
<pdfrwt beam="1">  1        2 0.30649192E+00 0.66842916E+03</pdfrwt>
<pdfrwt beam="2">  1       -2 0.35762739E-01 0.66842916E+03</pdfrwt>
<totfact> 0.51600612E+01</totfact>
</mgrwt>
</event>
<event>
 4    5  0.1905771E-007  0.6848139E+03  0.7818608E-02  0.1006722E+00
         -2   -1    0    0    0  501 -0.00000000000E+00  0.00000000000E+00  0.23335666811E+03  0.23335666812E+03  0.25500000000E-02 0.  1.
          2   -1    0    0  501    0  0.00000000000E+00 -0.00000000000E+00 -0.32318007742E+04  0.32318007742E+04  0.25500000000E-02 0. -1.
    8880023    1    1    2    0    0  0.41020297248E+02 -0.18296790642E+03 -0.31200670867E+04  0.31943369815E+04  0.65864270000E+03 0. -1.
    8880022    1    1    2    0    0 -0.41020297248E+02  0.18296790642E+03  0.12162298062E+03  0.27082046081E+03  0.15294330000E+03 0.  0.
<mgrwt>
<rscale>  0 0.52798522E+03</rscale>
<asrwt>0</asrwt>
<pdfrwt beam="1">  1        2 0.49720009E+00 0.68481394E+03</pdfrwt>
<pdfrwt beam="2">  1       -2 0.35901028E-01 0.68481394E+03</pdfrwt>
<totfact> 0.97789774E+00</totfact>
</mgrwt>
</event>
<event>
 4    5  0.1905771E-007  0.7054570E+03  0.7818608E-02  0.9975274E-01
          2   -1    0    0  501    0  0.00000000000E+00  0.00000000000E+00  0.16163875768E+04  0.16163875768E+04  0.25500000000E-02 0. -1.
         -2   -1    0    0    0  501 -0.00000000000E+00 -0.00000000000E+00 -0.59749229989E+03  0.59749229990E+03  0.25500000000E-02 0.  1.
    8880023    1    1    2    0    0 -0.21123738451E+03 -0.13870156496E+03  0.14952860939E+04  0.16533451139E+04  0.65864270000E+03 0. -1.
    8880022    1    1    2    0    0  0.21123738451E+03  0.13870156496E+03 -0.47639081702E+03  0.56053476279E+03  0.15294330000E+03 0.  0.
<mgrwt>
<rscale>  0 0.56747824E+03</rscale>
<asrwt>0</asrwt>
<pdfrwt beam="1">  1        2 0.24867500E+00 0.70545699E+03</pdfrwt>
<pdfrwt beam="2">  1       -2 0.91921895E-01 0.70545699E+03</pdfrwt>
<totfact> 0.11353895E+01</totfact>
</mgrwt>
</event>
<event>
 4    5  0.1905771E-007  0.8014781E+03  0.7818608E-02  0.9707609E-01
          2   -1    0    0  501    0  0.00000000000E+00  0.00000000000E+00  0.45732863321E+04  0.45732863321E+04  0.25500000000E-02 0. -1.
         -2   -1    0    0    0  501 -0.00000000000E+00 -0.00000000000E+00 -0.16793426512E+03  0.16793426514E+03  0.25500000000E-02 0.  1.
    8880023    1    1    2    0    0  0.16293508808E+03  0.42662533116E+03  0.40847989746E+04  0.41626854176E+04  0.65864270000E+03 0.  0.
    8880022    1    1    2    0    0 -0.16293508808E+03 -0.42662533116E+03  0.32055309239E+03  0.57853517972E+03  0.15294330000E+03 0.  0.
<mgrwt>
<rscale>  0 0.70565553E+03</rscale>
<asrwt>0</asrwt>
<pdfrwt beam="1">  1        2 0.70358242E+00 0.80147815E+03</pdfrwt>
<pdfrwt beam="2">  1       -2 0.25836044E-01 0.80147815E+03</pdfrwt>
<totfact> 0.15814648E+00</totfact>
</mgrwt>
</event>
<event>
 4    5  0.1905771E-007  0.8324323E+03  0.7818608E-02  0.9644618E-01
         -2   -1    0    0    0  501 -0.00000000000E+00  0.00000000000E+00  0.11311457213E+04  0.11311457213E+04  0.25500000000E-02 0.  1.
          2   -1    0    0  501    0  0.00000000000E+00 -0.00000000000E+00 -0.71700819158E+03  0.71700819159E+03  0.25500000000E-02 0. -1.
    8880023    1    1    2    0    0  0.43057880966E+03  0.27154243797E+03 -0.36176900021E+03  0.90764553804E+03  0.65864270000E+03 0.  0.
    8880022    1    1    2    0    0 -0.43057880966E+03 -0.27154243797E+03  0.77590652988E+03  0.94050837481E+03  0.15294330000E+03 0.  0.
<mgrwt>
<rscale>  0 0.74412147E+03</rscale>
<asrwt>0</asrwt>
<pdfrwt beam="1">  1        2 0.11030895E+00 0.83243235E+03</pdfrwt>
<pdfrwt beam="2">  1       -2 0.17402242E+00 0.83243235E+03</pdfrwt>
<totfact> 0.79990343E+00</totfact>
</mgrwt>
</event>
<event>
 4    5  0.1905771E-007  0.8374701E+03  0.7818608E-02  0.9634969E-01
          2   -1    0    0  501    0  0.00000000000E+00  0.00000000000E+00  0.28235003710E+04  0.28235003710E+04  0.25500000000E-02 0. -1.
         -2   -1    0    0    0  501 -0.00000000000E+00 -0.00000000000E+00 -0.33925287143E+03  0.33925287144E+03  0.25500000000E-02 0.  1.
    8880023    1    1    2    0    0 -0.48788205335E+03  0.17180536026E+03  0.24860975501E+04  0.26233637213E+04  0.65864270000E+03 0.  0.
    8880022    1    1    2    0    0  0.48788205335E+03 -0.17180536026E+03 -0.18500504662E+01  0.53938952112E+03  0.15294330000E+03 0.  0.
<mgrwt>
<rscale>  0 0.75024304E+03</rscale>
<asrwt>0</asrwt>
<pdfrwt beam="1">  1        2 0.43438467E+00 0.83747011E+03</pdfrwt>
<pdfrwt beam="2">  1       -2 0.52192750E-01 0.83747011E+03</pdfrwt>
<totfact> 0.80889450E+00</totfact>
</mgrwt>
</event>
<event>
 4    5  0.1905771E-007  0.2099514E+04  0.7818608E-02  0.8572774E-01
         -2   -1    0    0    0  501 -0.00000000000E+00  0.00000000000E+00  0.18243086552E+04  0.18243086552E+04  0.25500000000E-02 0.  1.
          2   -1    0    0  501    0  0.00000000000E+00 -0.00000000000E+00 -0.31600262189E+04  0.31600262189E+04  0.25500000000E-02 0. -1.
    8880023    1    1    2    0    0 -0.19676038850E+04 -0.32044400459E+03 -0.19777991120E+04  0.28843801660E+04  0.65864270000E+03 0.  0.
    8880022    1    1    2    0    0  0.19676038850E+04  0.32044400459E+03  0.64208154820E+03  0.20999547081E+04  0.15294330000E+03 0.  0.
<mgrwt>
<rscale>  0 0.20740213E+04</rscale>
<asrwt>0</asrwt>
<pdfrwt beam="1">  1        2 0.48615788E+00 0.20995141E+04</pdfrwt>
<pdfrwt beam="2">  1       -2 0.28066287E+00 0.20995141E+04</pdfrwt>
<totfact> 0.50347072E-02</totfact>
</mgrwt>
</event>
<event>
 4    5  0.1905771E-007  0.7374143E+03  0.7818608E-02  0.9867544E-01
         -2   -1    0    0    0  501 -0.00000000000E+00  0.00000000000E+00  0.73216699305E+03  0.73216699305E+03  0.25500000000E-02 0.  1.
          2   -1    0    0  501    0  0.00000000000E+00 -0.00000000000E+00 -0.85212119725E+03  0.85212119725E+03  0.25500000000E-02 0. -1.
    8880023    1    1    2    0    0 -0.29190693276E+03 -0.15735327964E+03 -0.62114923530E+03  0.96416092577E+03  0.65864270000E+03 0. -1.
    8880022    1    1    2    0    0  0.29190693276E+03  0.15735327964E+03  0.50119503110E+03  0.62012726454E+03  0.15294330000E+03 0.  0.
<mgrwt>
<rscale>  0 0.61860360E+03</rscale>
<asrwt>0</asrwt>
<pdfrwt beam="1">  1        2 0.13109557E+00 0.73741435E+03</pdfrwt>
<pdfrwt beam="2">  1       -2 0.11264108E+00 0.73741435E+03</pdfrwt>
<totfact> 0.19938006E+01</totfact>
</mgrwt>
</event>
<event>
 4    5  0.1905771E-007  0.1192326E+04  0.7818608E-02  0.9164619E-01
         -2   -1    0    0    0  501 -0.00000000000E+00  0.00000000000E+00  0.19114947826E+04  0.19114947826E+04  0.25500000000E-02 0.  1.
          2   -1    0    0  501    0  0.00000000000E+00 -0.00000000000E+00 -0.16431324100E+04  0.16431324100E+04  0.25500000000E-02 0. -1.
    8880023    1    1    2    0    0 -0.77727101596E+03 -0.61941884402E+03 -0.12538472454E+04  0.17302523104E+04  0.65864270000E+03 0.  0.
    8880022    1    1    2    0    0  0.77727101596E+03  0.61941884402E+03  0.15222096180E+04  0.18243748822E+04  0.15294330000E+03 0.  0.
<mgrwt>
<rscale>  0 0.11426203E+04</rscale>
<asrwt>0</asrwt>
<pdfrwt beam="1">  1        2 0.25278960E+00 0.11923255E+04</pdfrwt>
<pdfrwt beam="2">  1       -2 0.29407612E+00 0.11923255E+04</pdfrwt>
<totfact> 0.35580005E-01</totfact>
</mgrwt>
</event>
<event>
 4    5  0.1905771E-007  0.7753830E+03  0.7818608E-02  0.9766796E-01
         -2   -1    0    0    0  501 -0.00000000000E+00  0.00000000000E+00  0.54292844322E+03  0.54292844323E+03  0.25500000000E-02 0.  1.
          2   -1    0    0  501    0  0.00000000000E+00 -0.00000000000E+00 -0.12878073924E+04  0.12878073924E+04  0.25500000000E-02 0. -1.
    8880023    1    1    2    0    0  0.13499187907E+03  0.38624582666E+03 -0.10446452567E+04  0.13009621688E+04  0.65864270000E+03 0. -1.
    8880022    1    1    2    0    0 -0.13499187907E+03 -0.38624582666E+03  0.29976630746E+03  0.52977366689E+03  0.15294330000E+03 0.  0.
<mgrwt>
<rscale>  0 0.67175298E+03</rscale>
<asrwt>0</asrwt>
<pdfrwt beam="1">  1        2 0.19812421E+00 0.77538304E+03</pdfrwt>
<pdfrwt beam="2">  1       -2 0.83527453E-01 0.77538304E+03</pdfrwt>
<totfact> 0.21437717E+01</totfact>
</mgrwt>
</event>
<event>
 4    5  0.1905771E-007  0.6974477E+03  0.7818608E-02  0.1000796E+00
         -2   -1    0    0    0  501 -0.00000000000E+00  0.00000000000E+00  0.39437955258E+03  0.39437955259E+03  0.25500000000E-02 0.  1.
          2   -1    0    0  501    0  0.00000000000E+00 -0.00000000000E+00 -0.97312824544E+03  0.97312824545E+03  0.25500000000E-02 0. -1.
    8880023    1    1    2    0    0 -0.20195981722E+03 -0.10879034322E+03 -0.76467336953E+03  0.10349679584E+04  0.65864270000E+03 0. -1.
    8880022    1    1    2    0    0  0.20195981722E+03  0.10879034322E+03  0.18592467666E+03  0.33253983966E+03  0.15294330000E+03 0.  0.
<mgrwt>
<rscale>  0 0.55302655E+03</rscale>
<asrwt>0</asrwt>
<pdfrwt beam="1">  1        2 0.14971204E+00 0.69744771E+03</pdfrwt>
<pdfrwt beam="2">  1       -2 0.60673778E-01 0.69744771E+03</pdfrwt>
<totfact> 0.67577363E+01</totfact>
</mgrwt>
</event>
<event>
 4    5  0.1905771E-007  0.2563500E+04  0.7818608E-02  0.8387853E-01
         -2   -1    0    0    0  501 -0.00000000000E+00  0.00000000000E+00  0.16885521791E+04  0.16885521791E+04  0.25500000000E-02 0.  1.
          2   -1    0    0  501    0  0.00000000000E+00 -0.00000000000E+00 -0.42025423860E+04  0.42025423860E+04  0.25500000000E-02 0. -1.
    8880023    1    1    2    0    0  0.24079222921E+03  0.24657133159E+04 -0.22208012505E+04  0.33916797393E+04  0.65864270000E+03 0.  0.
    8880022    1    1    2    0    0 -0.24079222921E+03 -0.24657133159E+04 -0.29318895638E+03  0.24994148257E+04  0.15294330000E+03 0.  0.
<mgrwt>
<rscale>  0 0.25429184E+04</rscale>
<asrwt>0</asrwt>
<pdfrwt beam="1">  1        2 0.64654498E+00 0.25635002E+04</pdfrwt>
<pdfrwt beam="2">  1       -2 0.25977726E+00 0.25635002E+04</pdfrwt>
<totfact> 0.10852849E-02</totfact>
</mgrwt>
</event>
<event>
 4    5  0.1905771E-007  0.9580352E+03  0.7818608E-02  0.9438646E-01
          2   -1    0    0  501    0  0.00000000000E+00  0.00000000000E+00  0.20273298584E+04  0.20273298584E+04  0.25500000000E-02 0. -1.
         -2   -1    0    0    0  501 -0.00000000000E+00 -0.00000000000E+00 -0.66852347723E+03  0.66852347723E+03  0.25500000000E-02 0.  1.
    8880023    1    1    2    0    0  0.59463906250E+03 -0.36114482929E+03  0.16646444836E+04  0.19206438153E+04  0.65864270000E+03 0.  0.
    8880022    1    1    2    0    0 -0.59463906250E+03  0.36114482929E+03 -0.30583810245E+03  0.77520952026E+03  0.15294330000E+03 0.  0.
<mgrwt>
<rscale>  0 0.88962356E+03</rscale>
<asrwt>0</asrwt>
<pdfrwt beam="1">  1        2 0.31189690E+00 0.95803518E+03</pdfrwt>
<pdfrwt beam="2">  1       -2 0.10284977E+00 0.95803518E+03</pdfrwt>
<totfact> 0.50128739E+00</totfact>
</mgrwt>
</event>
<event>
 4    5  0.1905771E-007  0.1538747E+04  0.7818608E-02  0.8882749E-01
         -2   -1    0    0    0  501 -0.00000000000E+00  0.00000000000E+00  0.22768108008E+04  0.22768108008E+04  0.25500000000E-02 0.  1.
          2   -1    0    0  501    0  0.00000000000E+00 -0.00000000000E+00 -0.20041823246E+04  0.20041823246E+04  0.25500000000E-02 0. -1.
    8880023    1    1    2    0    0  0.94686829368E+03 -0.10185149358E+04 -0.14139084148E+04  0.20897079824E+04  0.65864270000E+03 0.  0.
    8880022    1    1    2    0    0 -0.94686829368E+03  0.10185149358E+04  0.16865368910E+04  0.21912851430E+04  0.15294330000E+03 0.  0.
<mgrwt>
<rscale>  0 0.15025650E+04</rscale>
<asrwt>0</asrwt>
<pdfrwt beam="1">  1        2 0.30833574E+00 0.15387470E+04</pdfrwt>
<pdfrwt beam="2">  1       -2 0.35027858E+00 0.15387470E+04</pdfrwt>
<totfact> 0.96238925E-02</totfact>
</mgrwt>
</event>
<event>
 4    5  0.1905771E-007  0.7962587E+03  0.7818608E-02  0.9718945E-01
         -2   -1    0    0    0  501 -0.00000000000E+00  0.00000000000E+00  0.62992984032E+03  0.62992984033E+03  0.25500000000E-02 0.  1.
          2   -1    0    0  501    0  0.00000000000E+00 -0.00000000000E+00 -0.42519199743E+04  0.42519199743E+04  0.25500000000E-02 0. -1.
    8880023    1    1    2    0    0 -0.31074492828E+03 -0.32195533330E+03 -0.41193331612E+04  0.41955850064E+04  0.65864270000E+03 0. -1.
    8880022    1    1    2    0    0  0.31074492828E+03  0.32195533330E+03  0.49734302727E+03  0.68626480814E+03  0.15294330000E+03 0.  0.
<mgrwt>
<rscale>  0 0.69899949E+03</rscale>
<asrwt>0</asrwt>
<pdfrwt beam="1">  1        2 0.65414152E+00 0.79625866E+03</pdfrwt>
<pdfrwt beam="2">  1       -2 0.96912286E-01 0.79625866E+03</pdfrwt>
<totfact> 0.20758915E-01</totfact>
</mgrwt>
</event>
<event>
 4    5  0.1905771E-007  0.1014102E+04  0.7818608E-02  0.9363336E-01
         -2   -1    0    0    0  501 -0.00000000000E+00  0.00000000000E+00  0.55212086205E+03  0.55212086205E+03  0.25500000000E-02 0.  1.
          2   -1    0    0  501    0  0.00000000000E+00 -0.00000000000E+00 -0.25438559875E+04  0.25438559875E+04  0.25500000000E-02 0. -1.
    8880023    1    1    2    0    0  0.16839092547E+03 -0.75248720854E+03 -0.20709126640E+04  0.23058798691E+04  0.65864270000E+03 0. -1.
    8880022    1    1    2    0    0 -0.16839092547E+03  0.75248720854E+03  0.79177538548E+02  0.79009698039E+03  0.15294330000E+03 0.  0.
<mgrwt>
<rscale>  0 0.95155385E+03</rscale>
<asrwt>0</asrwt>
<pdfrwt beam="1">  1        2 0.39136245E+00 0.10141019E+04</pdfrwt>
<pdfrwt beam="2">  1       -2 0.84941673E-01 0.10141019E+04</pdfrwt>
<totfact> 0.39960538E+00</totfact>
</mgrwt>
</event>
<event>
 4    5  0.1905771E-007  0.9480265E+03  0.7818608E-02  0.9452959E-01
         -2   -1    0    0    0  501 -0.00000000000E+00  0.00000000000E+00  0.23217031361E+03  0.23217031363E+03  0.25500000000E-02 0.  1.
          2   -1    0    0  501    0  0.00000000000E+00 -0.00000000000E+00 -0.34725042673E+04  0.34725042673E+04  0.25500000000E-02 0. -1.
    8880023    1    1    2    0    0 -0.19328970906E+03  0.65389835978E+03 -0.25578499447E+04  0.27278838910E+04  0.65864270000E+03 0. -1.
    8880022    1    1    2    0    0  0.19328970906E+03 -0.65389835978E+03 -0.68248400901E+03  0.97679069002E+03  0.15294330000E+03 0.  1.
<mgrwt>
<rscale>  0 0.87842593E+03</rscale>
<asrwt>0</asrwt>
<pdfrwt beam="1">  1        2 0.53423139E+00 0.94802647E+03</pdfrwt>
<pdfrwt beam="2">  1       -2 0.35718512E-01 0.94802647E+03</pdfrwt>
<totfact> 0.65369017E+00</totfact>
</mgrwt>
</event>
<event>
 4    5  0.1905771E-007  0.7223632E+03  0.7818608E-02  0.9914669E-01
         -2   -1    0    0    0  501 -0.00000000000E+00  0.00000000000E+00  0.15078442704E+04  0.15078442704E+04  0.25500000000E-02 0.  1.
          2   -1    0    0  501    0  0.00000000000E+00 -0.00000000000E+00 -0.12347164167E+04  0.12347164167E+04  0.25500000000E-02 0. -1.
    8880023    1    1    2    0    0  0.21774639416E+03 -0.20145692869E+03 -0.11074490107E+04  0.13222147722E+04  0.65864270000E+03 0. -1.
    8880022    1    1    2    0    0 -0.21774639416E+03  0.20145692869E+03  0.13805768644E+04  0.14203459149E+04  0.15294330000E+03 0.  0.
<mgrwt>
<rscale>  0 0.59555586E+03</rscale>
<asrwt>0</asrwt>
<pdfrwt beam="1">  1        2 0.18995637E+00 0.72236320E+03</pdfrwt>
<pdfrwt beam="2">  1       -2 0.23197604E+00 0.72236320E+03</pdfrwt>
<totfact> 0.15588075E+00</totfact>
</mgrwt>
</event>
<event>
 4    5  0.1905771E-007  0.7050036E+03  0.7818608E-02  0.9977045E-01
          2   -1    0    0  501    0  0.00000000000E+00  0.00000000000E+00  0.20023918900E+04  0.20023918900E+04  0.25500000000E-02 0. -1.
         -2   -1    0    0    0  501 -0.00000000000E+00 -0.00000000000E+00 -0.23027910252E+03  0.23027910253E+03  0.25500000000E-02 0.  1.
    8880023    1    1    2    0    0  0.48005795664E+02 -0.24681018984E+03  0.18037932744E+04  0.19366724579E+04  0.65864270000E+03 0. -1.
    8880022    1    1    2    0    0 -0.48005795664E+02  0.24681018984E+03 -0.31680486925E+02  0.29599853461E+03  0.15294330000E+03 0.  0.
<mgrwt>
<rscale>  0 0.56668331E+03</rscale>
<asrwt>0</asrwt>
<pdfrwt beam="1">  1        2 0.30806030E+00 0.70500357E+03</pdfrwt>
<pdfrwt beam="2">  1       -2 0.35427554E-01 0.70500357E+03</pdfrwt>
<totfact> 0.51620382E+01</totfact>
</mgrwt>
</event>
<event>
 4    5  0.1905771E-007  0.9747301E+03  0.7818608E-02  0.9415392E-01
          2   -1    0    0  501    0  0.00000000000E+00  0.00000000000E+00  0.45499655501E+03  0.45499655502E+03  0.25500000000E-02 0. -1.
         -2   -1    0    0    0  501 -0.00000000000E+00 -0.00000000000E+00 -0.22361108222E+04  0.22361108222E+04  0.25500000000E-02 0.  1.
    8880023    1    1    2    0    0  0.26342202081E+02  0.71804924989E+03 -0.27086852086E+03  0.10116662487E+04  0.65864270000E+03 0.  0.
    8880022    1    1    2    0    0 -0.26342202081E+02 -0.71804924989E+03 -0.15102457463E+04  0.16794411285E+04  0.15294330000E+03 0.  1.
<mgrwt>
<rscale>  0 0.90819763E+03</rscale>
<asrwt>0</asrwt>
<pdfrwt beam="1">  1        2 0.69999471E-01 0.97473014E+03</pdfrwt>
<pdfrwt beam="2">  1       -2 0.34401704E+00 0.97473014E+03</pdfrwt>
<totfact> 0.11857594E+00</totfact>
</mgrwt>
</event>
<event>
 4    5  0.1905771E-007  0.9938792E+03  0.7818608E-02  0.9389610E-01
          2   -1    0    0  501    0  0.00000000000E+00  0.00000000000E+00  0.28755466541E+04  0.28755466541E+04  0.25500000000E-02 0. -1.
         -2   -1    0    0    0  501 -0.00000000000E+00 -0.00000000000E+00 -0.43956948610E+03  0.43956948611E+03  0.25500000000E-02 0.  1.
    8880023    1    1    2    0    0 -0.72742727413E+03 -0.15759186578E+03  0.28509560630E+03  0.10339609984E+04  0.65864270000E+03 0.  0.
    8880022    1    1    2    0    0  0.72742727413E+03  0.15759186578E+03  0.21508815617E+04  0.22811551417E+04  0.15294330000E+03 0.  0.
<mgrwt>
<rscale>  0 0.92935718E+03</rscale>
<asrwt>0</asrwt>
<pdfrwt beam="1">  1        2 0.44239180E+00 0.99387919E+03</pdfrwt>
<pdfrwt beam="2">  1       -2 0.67626074E-01 0.99387919E+03</pdfrwt>
<totfact> 0.42519165E+00</totfact>
</mgrwt>
</event>
<event>
 4    5  0.1905771E-007  0.9452016E+03  0.7818608E-02  0.9457052E-01
          2   -1    0    0  501    0  0.00000000000E+00  0.00000000000E+00  0.71936320923E+03  0.71936320923E+03  0.25500000000E-02 0. -1.
         -2   -1    0    0    0  501 -0.00000000000E+00 -0.00000000000E+00 -0.97888601216E+03  0.97888601217E+03  0.25500000000E-02 0.  1.
    8880023    1    1    2    0    0  0.35173483063E+03  0.57955028344E+03  0.29285405207E+02  0.94565520320E+03  0.65864270000E+03 0. -1.
    8880022    1    1    2    0    0 -0.35173483063E+03 -0.57955028344E+03 -0.28880820815E+03  0.75259401820E+03  0.15294330000E+03 0.  0.
<mgrwt>
<rscale>  0 0.87525650E+03</rscale>
<asrwt>0</asrwt>
<pdfrwt beam="1">  1        2 0.11067126E+00 0.94520163E+03</pdfrwt>
<pdfrwt beam="2">  1       -2 0.15059785E+00 0.94520163E+03</pdfrwt>
<totfact> 0.11695987E+01</totfact>
</mgrwt>
</event>
<event>
 4    5  0.1905771E-007  0.9604123E+03  0.7818608E-02  0.9435289E-01
         -2   -1    0    0    0  501 -0.00000000000E+00  0.00000000000E+00  0.88814960114E+03  0.88814960115E+03  0.25500000000E-02 0.  1.
          2   -1    0    0  501    0  0.00000000000E+00 -0.00000000000E+00 -0.11920694912E+04  0.11920694912E+04  0.25500000000E-02 0. -1.
    8880023    1    1    2    0    0 -0.49672701752E+03 -0.49177614122E+03 -0.76598941546E+03  0.12284671318E+04  0.65864270000E+03 0. -1.
    8880022    1    1    2    0    0  0.49672701752E+03  0.49177614122E+03  0.46206952540E+03  0.85175196057E+03  0.15294330000E+03 0.  0.
<mgrwt>
<rscale>  0 0.89227592E+03</rscale>
<asrwt>0</asrwt>
<pdfrwt beam="1">  1        2 0.18339531E+00 0.96041226E+03</pdfrwt>
<pdfrwt beam="2">  1       -2 0.13663840E+00 0.96041226E+03</pdfrwt>
<totfact> 0.72935044E+00</totfact>
</mgrwt>
</event>
<event>
 4    5  0.1905771E-007  0.1141589E+04  0.7818608E-02  0.9216106E-01
         -2   -1    0    0    0  501 -0.00000000000E+00  0.00000000000E+00  0.11504491355E+04  0.11504491356E+04  0.25500000000E-02 0.  1.
          2   -1    0    0  501    0  0.00000000000E+00 -0.00000000000E+00 -0.25094092953E+04  0.25094092953E+04  0.25500000000E-02 0. -1.
    8880023    1    1    2    0    0 -0.93205653247E+03  0.26194675911E+02  0.73833272933E+03  0.13595443966E+04  0.65864270000E+03 0.  1.
    8880022    1    1    2    0    0  0.93205653247E+03 -0.26194675911E+02 -0.20972928891E+04  0.23003140343E+04  0.15294330000E+03 0.  0.
<mgrwt>
<rscale>  0 0.10888726E+04</rscale>
<asrwt>0</asrwt>
<pdfrwt beam="1">  1        2 0.38606297E+00 0.11415891E+04</pdfrwt>
<pdfrwt beam="2">  1       -2 0.17699217E+00 0.11415891E+04</pdfrwt>
<totfact> 0.64382536E-01</totfact>
</mgrwt>
</event>
<event>
 4    5  0.1905771E-007  0.6587970E+03  0.7818608E-02  0.1025424E+00
         -2   -1    0    0    0  501 -0.00000000000E+00  0.00000000000E+00  0.61896187017E+03  0.61896187018E+03  0.25500000000E-02 0.  1.
          2   -1    0    0  501    0  0.00000000000E+00 -0.00000000000E+00 -0.21181147308E+04  0.21181147308E+04  0.25500000000E-02 0. -1.
    8880023    1    1    2    0    0 -0.10313523804E+02 -0.98449557224E+01 -0.20562411450E+04  0.21591991906E+04  0.65864270000E+03 0. -1.
    8880022    1    1    2    0    0  0.10313523804E+02  0.98449557224E+01  0.55708828434E+03  0.57787741043E+03  0.15294330000E+03 0.  0.
<mgrwt>
<rscale>  0 0.45778977E+03</rscale>
<asrwt>0</asrwt>
<pdfrwt beam="1">  1        2 0.32586380E+00 0.65879701E+03</pdfrwt>
<pdfrwt beam="2">  1       -2 0.95224904E-01 0.65879701E+03</pdfrwt>
<totfact> 0.56186925E+00</totfact>
</mgrwt>
</event>
<event>
 4    5  0.1905771E-007  0.6845970E+03  0.7818608E-02  0.1006834E+00
          2   -1    0    0  501    0  0.00000000000E+00  0.00000000000E+00  0.11050662424E+04  0.11050662424E+04  0.25500000000E-02 0. -1.
         -2   -1    0    0    0  501 -0.00000000000E+00 -0.00000000000E+00 -0.34835981941E+03  0.34835981942E+03  0.25500000000E-02 0.  1.
    8880023    1    1    2    0    0  0.16563089155E+03 -0.86193163072E+02  0.93107454029E+03  0.11556698748E+04  0.65864270000E+03 0. -1.
    8880022    1    1    2    0    0 -0.16563089155E+03  0.86193163072E+02 -0.17436811729E+03  0.29775618707E+03  0.15294330000E+03 0.  0.
<mgrwt>
<rscale>  0 0.52752426E+03</rscale>
<asrwt>0</asrwt>
<pdfrwt beam="1">  1        2 0.17001019E+00 0.68459701E+03</pdfrwt>
<pdfrwt beam="2">  1       -2 0.53593819E-01 0.68459701E+03</pdfrwt>
<totfact> 0.72482569E+01</totfact>
</mgrwt>
</event>
<event>
 4    5  0.1905771E-007  0.7808771E+03  0.7818608E-02  0.9753781E-01
         -2   -1    0    0    0  501 -0.00000000000E+00  0.00000000000E+00  0.67186511178E+03  0.67186511179E+03  0.25500000000E-02 0.  1.
          2   -1    0    0  501    0  0.00000000000E+00 -0.00000000000E+00 -0.20156737872E+04  0.20156737872E+04  0.25500000000E-02 0. -1.
    8880023    1    1    2    0    0 -0.62344875531E+02 -0.41481560344E+03 -0.18527036192E+04  0.20105421596E+04  0.65864270000E+03 0.  0.
    8880022    1    1    2    0    0  0.62344875531E+02  0.41481560344E+03  0.50889494381E+03  0.67699673944E+03  0.15294330000E+03 0.  0.
<mgrwt>
<rscale>  0 0.67903036E+03</rscale>
<asrwt>0</asrwt>
<pdfrwt beam="1">  1        2 0.31010366E+00 0.78087712E+03</pdfrwt>
<pdfrwt beam="2">  1       -2 0.10336386E+00 0.78087712E+03</pdfrwt>
<totfact> 0.51548675E+00</totfact>
</mgrwt>
</event>
<event>
 4    5  0.1905771E-007  0.7235097E+03  0.7818608E-02  0.9910884E-01
          2   -1    0    0  501    0  0.00000000000E+00  0.00000000000E+00  0.18515873266E+04  0.18515873266E+04  0.25500000000E-02 0. -1.
         -2   -1    0    0    0  501 -0.00000000000E+00 -0.00000000000E+00 -0.27762601788E+03  0.27762601789E+03  0.25500000000E-02 0.  1.
    8880023    1    1    2    0    0 -0.97120421588E+02  0.28323801750E+03  0.16345996162E+04  0.17875632191E+04  0.65864270000E+03 0. -1.
    8880022    1    1    2    0    0  0.97120421588E+02 -0.28323801750E+03 -0.60638307437E+02  0.34165012540E+03  0.15294330000E+03 0.  0.
<mgrwt>
<rscale>  0 0.59736677E+03</rscale>
<asrwt>0</asrwt>
<pdfrwt beam="1">  1        2 0.28485959E+00 0.72350975E+03</pdfrwt>
<pdfrwt beam="2">  1       -2 0.42711695E-01 0.72350975E+03</pdfrwt>
<totfact> 0.43293151E+01</totfact>
</mgrwt>
</event>
<event>
 4    5  0.1905771E-007  0.6586511E+03  0.7818608E-02  0.1025583E+00
          2   -1    0    0  501    0  0.00000000000E+00  0.00000000000E+00  0.22024847782E+04  0.22024847782E+04  0.25500000000E-02 0. -1.
         -2   -1    0    0    0  501 -0.00000000000E+00 -0.00000000000E+00 -0.68650600084E+03  0.68650600085E+03  0.25500000000E-02 0.  1.
    8880023    1    1    2    0    0  0.29410103147E+01  0.15495452826E+01  0.21438524300E+04  0.22427493169E+04  0.65864270000E+03 0. -1.
    8880022    1    1    2    0    0 -0.29410103147E+01 -0.15495452826E+01 -0.62787365266E+03  0.64624146212E+03  0.15294330000E+03 0.  0.
<mgrwt>
<rscale>  0 0.45724589E+03</rscale>
<asrwt>0</asrwt>
<pdfrwt beam="1">  1        2 0.33884381E+00 0.65865109E+03</pdfrwt>
<pdfrwt beam="2">  1       -2 0.10561631E+00 0.65865109E+03</pdfrwt>
<totfact> 0.39534515E+00</totfact>
</mgrwt>
</event>
<event>
 4    5  0.1905771E-007  0.9694200E+03  0.7818608E-02  0.9422707E-01
         -2   -1    0    0    0  501 -0.00000000000E+00  0.00000000000E+00  0.57385334286E+03  0.57385334286E+03  0.25500000000E-02 0.  1.
          2   -1    0    0  501    0  0.00000000000E+00 -0.00000000000E+00 -0.19372740258E+04  0.19372740258E+04  0.25500000000E-02 0. -1.
    8880023    1    1    2    0    0  0.39089740414E+03 -0.59427614506E+03 -0.14850552557E+04  0.17734610895E+04  0.65864270000E+03 0.  0.
    8880022    1    1    2    0    0 -0.39089740414E+03  0.59427614506E+03  0.12163457276E+03  0.73766627919E+03  0.15294330000E+03 0.  0.
<mgrwt>
<rscale>  0 0.90230324E+03</rscale>
<asrwt>0</asrwt>
<pdfrwt beam="1">  1        2 0.29804215E+00 0.96941999E+03</pdfrwt>
<pdfrwt beam="2">  1       -2 0.88285131E-01 0.96941999E+03</pdfrwt>
<totfact> 0.80317659E+00</totfact>
</mgrwt>
</event>
<event>
 4    5  0.1905771E-007  0.6898978E+03  0.7818608E-02  0.1004201E+00
         -2   -1    0    0    0  501 -0.00000000000E+00  0.00000000000E+00  0.15960614159E+03  0.15960614161E+03  0.25500000000E-02 0.  1.
          2   -1    0    0  501    0  0.00000000000E+00 -0.00000000000E+00 -0.15311499807E+04  0.15311499807E+04  0.25500000000E-02 0. -1.
    8880023    1    1    2    0    0  0.18969133052E+03 -0.78523683767E+02 -0.11947568296E+04  0.13796386694E+04  0.65864270000E+03 0. -1.
    8880022    1    1    2    0    0 -0.18969133052E+03  0.78523683767E+02 -0.17678700946E+03  0.31111745293E+03  0.15294330000E+03 0.  0.
<mgrwt>
<rscale>  0 0.53845849E+03</rscale>
<asrwt>0</asrwt>
<pdfrwt beam="1">  1        2 0.23556152E+00 0.68989780E+03</pdfrwt>
<pdfrwt beam="2">  1       -2 0.24554792E-01 0.68989780E+03</pdfrwt>
<totfact> 0.18421811E+02</totfact>
</mgrwt>
</event>
<event>
 4    5  0.1905771E-007  0.1014201E+04  0.7818608E-02  0.9363210E-01
          2   -1    0    0  501    0  0.00000000000E+00  0.00000000000E+00  0.15935709556E+04  0.15935709556E+04  0.25500000000E-02 0. -1.
         -2   -1    0    0    0  501 -0.00000000000E+00 -0.00000000000E+00 -0.56558001125E+03  0.56558001126E+03  0.25500000000E-02 0.  1.
    8880023    1    1    2    0    0 -0.76626748393E+03 -0.87334571424E+02  0.23216249995E+03  0.10404339561E+04  0.65864270000E+03 0.  0.
    8880022    1    1    2    0    0  0.76626748393E+03  0.87334571424E+02  0.79582844438E+03  0.11187170108E+04  0.15294330000E+03 0.  0.
<mgrwt>
<rscale>  0 0.95166210E+03</rscale>
<asrwt>0</asrwt>
<pdfrwt beam="1">  1        2 0.24516477E+00 0.10142009E+04</pdfrwt>
<pdfrwt beam="2">  1       -2 0.87012308E-01 0.10142009E+04</pdfrwt>
<totfact> 0.12789794E+01</totfact>
</mgrwt>
</event>
<event>
 4    5  0.1905771E-007  0.1673298E+04  0.7818608E-02  0.8796064E-01
          2   -1    0    0  501    0  0.00000000000E+00  0.00000000000E+00  0.34103842956E+04  0.34103842956E+04  0.25500000000E-02 0. -1.
         -2   -1    0    0    0  501 -0.00000000000E+00 -0.00000000000E+00 -0.11393974738E+04  0.11393974738E+04  0.25500000000E-02 0.  1.
    8880023    1    1    2    0    0  0.44887495838E+03  0.14712676552E+04 -0.14717860628E+03  0.16797586106E+04  0.65864270000E+03 0.  0.
    8880022    1    1    2    0    0 -0.44887495838E+03 -0.14712676552E+04  0.24181654280E+04  0.28700231588E+04  0.15294330000E+03 0.  0.
<mgrwt>
<rscale>  0 0.16404712E+04</rscale>
<asrwt>0</asrwt>
<pdfrwt beam="1">  1        2 0.52467450E+00 0.16732984E+04</pdfrwt>
<pdfrwt beam="2">  1       -2 0.17529192E+00 0.16732984E+04</pdfrwt>
<totfact> 0.17040967E-01</totfact>
</mgrwt>
</event>
<event>
 4    5  0.2761775E-007  0.9110093E+03  0.7818608E-02  0.9508584E-01
         -2   -1    0    0    0  501 -0.00000000000E+00  0.00000000000E+00  0.74632106144E+03  0.74632106144E+03  0.25500000000E-02 0.  1.
          2   -1    0    0  501    0  0.00000000000E+00 -0.00000000000E+00 -0.20928435698E+04  0.20928435698E+04  0.25500000000E-02 0. -1.
    8880023    1    1    2    0    0 -0.39723664037E+03  0.48819129999E+03 -0.18210653328E+04  0.20362261285E+04  0.65864270000E+03 0.  0.
    8880022    1    1    2    0    0  0.39723664037E+03 -0.48819129999E+03  0.47454282447E+03  0.80293850270E+03  0.15294330000E+03 0.  0.
<mgrwt>
<rscale>  0 0.83653882E+03</rscale>
<asrwt>0</asrwt>
<pdfrwt beam="1">  1        2 0.32197593E+00 0.91100928E+03</pdfrwt>
<pdfrwt beam="2">  1       -2 0.11481863E+00 0.91100928E+03</pdfrwt>
<totfact> 0.35551791E+00</totfact>
</mgrwt>
</event>
<event>
 4    5  0.1905771E-007  0.7557813E+03  0.7818608E-02  0.9816154E-01
          2   -1    0    0  501    0  0.00000000000E+00  0.00000000000E+00  0.36121235529E+04  0.36121235529E+04  0.25500000000E-02 0. -1.
         -2   -1    0    0    0  501 -0.00000000000E+00 -0.00000000000E+00 -0.44492491146E+03  0.44492491147E+03  0.25500000000E-02 0.  1.
    8880023    1    1    2    0    0 -0.35195934022E+03  0.11627485557E+03  0.34720407107E+04  0.35533466088E+04  0.65864270000E+03 0. -1.
    8880022    1    1    2    0    0  0.35195934022E+03 -0.11627485557E+03 -0.30484206920E+03  0.50370185564E+03  0.15294330000E+03 0.  0.
<mgrwt>
<rscale>  0 0.64502782E+03</rscale>
<asrwt>0</asrwt>
<pdfrwt beam="1">  1        2 0.55571133E+00 0.75578133E+03</pdfrwt>
<pdfrwt beam="2">  1       -2 0.68449985E-01 0.75578133E+03</pdfrwt>
<totfact> 0.14417111E+00</totfact>
</mgrwt>
</event>
<event>
 4    5  0.1905771E-007  0.1223778E+04  0.7818608E-02  0.9134348E-01
          2   -1    0    0  501    0  0.00000000000E+00  0.00000000000E+00  0.16426164255E+04  0.16426164255E+04  0.25500000000E-02 0. -1.
         -2   -1    0    0    0  501 -0.00000000000E+00 -0.00000000000E+00 -0.17640858647E+04  0.17640858647E+04  0.25500000000E-02 0.  1.
    8880023    1    1    2    0    0  0.93157793654E+03 -0.44270225025E+03  0.12063562330E+04  0.17184086538E+04  0.65864270000E+03 0.  0.
    8880022    1    1    2    0    0 -0.93157793654E+03  0.44270225025E+03 -0.13278256722E+04  0.16882936365E+04  0.15294330000E+03 0.  0.
<mgrwt>
<rscale>  0 0.11757539E+04</rscale>
<asrwt>0</asrwt>
<pdfrwt beam="1">  1        2 0.25271022E+00 0.12237781E+04</pdfrwt>
<pdfrwt beam="2">  1       -2 0.27139782E+00 0.12237781E+04</pdfrwt>
<totfact> 0.48669827E-01</totfact>
</mgrwt>
</event>
<event>
 4    5  0.1905771E-007  0.9683165E+03  0.7818608E-02  0.9424236E-01
         -2   -1    0    0    0  501 -0.00000000000E+00  0.00000000000E+00  0.19460647979E+04  0.19460647979E+04  0.25500000000E-02 0.  1.
          2   -1    0    0  501    0  0.00000000000E+00 -0.00000000000E+00 -0.77693321675E+03  0.77693321675E+03  0.25500000000E-02 0. -1.
    8880023    1    1    2    0    0  0.51509760602E+03  0.48836576288E+03 -0.35772848366E+03  0.10322821980E+04  0.65864270000E+03 0. -1.
    8880022    1    1    2    0    0 -0.51509760602E+03 -0.48836576288E+03  0.15268600648E+04  0.16907158167E+04  0.15294330000E+03 0.  0.
<mgrwt>
<rscale>  0 0.90107681E+03</rscale>
<asrwt>0</asrwt>
<pdfrwt beam="1">  1        2 0.11952819E+00 0.96831651E+03</pdfrwt>
<pdfrwt beam="2">  1       -2 0.29939458E+00 0.96831651E+03</pdfrwt>
<totfact> 0.11580683E+00</totfact>
</mgrwt>
</event>
<event>
 4    5  0.1905771E-007  0.8782158E+03  0.7818608E-02  0.9561948E-01
          2   -1    0    0  501    0  0.00000000000E+00  0.00000000000E+00  0.18595718835E+04  0.18595718835E+04  0.25500000000E-02 0. -1.
         -2   -1    0    0    0  501 -0.00000000000E+00 -0.00000000000E+00 -0.46306458851E+03  0.46306458851E+03  0.25500000000E-02 0.  1.
    8880023    1    1    2    0    0 -0.54098927631E+03 -0.21162074027E+03  0.14751784510E+04  0.17168035424E+04  0.65864270000E+03 0.  0.
    8880022    1    1    2    0    0  0.54098927631E+03  0.21162074027E+03 -0.78671155971E+02  0.60583292960E+03  0.15294330000E+03 0.  0.
<mgrwt>
<rscale>  0 0.79866733E+03</rscale>
<asrwt>0</asrwt>
<pdfrwt beam="1">  1        2 0.28608798E+00 0.87821577E+03</pdfrwt>
<pdfrwt beam="2">  1       -2 0.71240705E-01 0.87821577E+03</pdfrwt>
<totfact> 0.14513225E+01</totfact>
</mgrwt>
</event>
<event>
 4    5  0.1905771E-007  0.7961464E+03  0.7818608E-02  0.9719191E-01
          2   -1    0    0  501    0  0.00000000000E+00  0.00000000000E+00  0.12109811825E+04  0.12109811825E+04  0.25500000000E-02 0. -1.
         -2   -1    0    0    0  501 -0.00000000000E+00 -0.00000000000E+00 -0.85959131696E+03  0.85959131697E+03  0.25500000000E-02 0.  1.
    8880023    1    1    2    0    0  0.23284109365E+03  0.38186890118E+03  0.99356288707E+03  0.12731913640E+04  0.65864270000E+03 0. -1.
    8880022    1    1    2    0    0 -0.23284109365E+03 -0.38186890118E+03 -0.64217302153E+03  0.79738113545E+03  0.15294330000E+03 0.  0.
<mgrwt>
<rscale>  0 0.69885567E+03</rscale>
<asrwt>0</asrwt>
<pdfrwt beam="1">  1        2 0.18630480E+00 0.79614637E+03</pdfrwt>
<pdfrwt beam="2">  1       -2 0.13224482E+00 0.79614637E+03</pdfrwt>
<totfact> 0.78701306E+00</totfact>
</mgrwt>
</event>
<event>
 4    5  0.1905771E-007  0.8201704E+03  0.7818608E-02  0.9668769E-01
          2   -1    0    0  501    0  0.00000000000E+00  0.00000000000E+00  0.10319649946E+04  0.10319649946E+04  0.25500000000E-02 0. -1.
         -2   -1    0    0    0  501 -0.00000000000E+00 -0.00000000000E+00 -0.70793281264E+03  0.70793281265E+03  0.25500000000E-02 0.  1.
    8880023    1    1    2    0    0 -0.40050281445E+03  0.28011921758E+03  0.72093553540E+03  0.10919833025E+04  0.65864270000E+03 0. -1.
    8880022    1    1    2    0    0  0.40050281445E+03 -0.28011921758E+03 -0.39690335347E+03  0.64791450474E+03  0.15294330000E+03 0.  0.
<mgrwt>
<rscale>  0 0.72907091E+03</rscale>
<asrwt>0</asrwt>
<pdfrwt beam="1">  1        2 0.15876385E+00 0.82017040E+03</pdfrwt>
<pdfrwt beam="2">  1       -2 0.10891274E+00 0.82017040E+03</pdfrwt>
<totfact> 0.16329279E+01</totfact>
</mgrwt>
</event>
<event>
 4    5  0.1905771E-007  0.7545093E+03  0.7818608E-02  0.9819535E-01
          2   -1    0    0  501    0  0.00000000000E+00  0.00000000000E+00  0.40981771227E+04  0.40981771227E+04  0.25500000000E-02 0. -1.
         -2   -1    0    0    0  501 -0.00000000000E+00 -0.00000000000E+00 -0.15803086472E+03  0.15803086474E+03  0.25500000000E-02 0.  1.
    8880023    1    1    2    0    0 -0.24515300373E+03 -0.27454343343E+03  0.37301480435E+04  0.38056916224E+04  0.65864270000E+03 0.  0.
    8880022    1    1    2    0    0  0.24515300373E+03  0.27454343343E+03  0.20999821446E+03  0.45051636504E+03  0.15294330000E+03 0.  0.
<mgrwt>
<rscale>  0 0.64324621E+03</rscale>
<asrwt>0</asrwt>
<pdfrwt beam="1">  1        2 0.63048878E+00 0.75450931E+03</pdfrwt>
<pdfrwt beam="2">  1       -2 0.24312441E-01 0.75450931E+03</pdfrwt>
<totfact> 0.47444906E+00</totfact>
</mgrwt>
</event>
<event>
 4    5  0.1905771E-007  0.1049286E+04  0.7818608E-02  0.9319741E-01
         -2   -1    0    0    0  501 -0.00000000000E+00  0.00000000000E+00  0.11585945209E+04  0.11585945209E+04  0.25500000000E-02 0.  1.
          2   -1    0    0  501    0  0.00000000000E+00 -0.00000000000E+00 -0.36198728128E+04  0.36198728128E+04  0.25500000000E-02 0. -1.
    8880023    1    1    2    0    0 -0.78385771824E+03  0.22968945984E+03 -0.33803186672E+04  0.35394285793E+04  0.65864270000E+03 0.  0.
    8880022    1    1    2    0    0  0.78385771824E+03 -0.22968945984E+03  0.91904037522E+03  0.12390387543E+04  0.15294330000E+03 0.  0.
<mgrwt>
<rscale>  0 0.98985640E+03</rscale>
<asrwt>0</asrwt>
<pdfrwt beam="1">  1        2 0.55690351E+00 0.10492857E+04</pdfrwt>
<pdfrwt beam="2">  1       -2 0.17824531E+00 0.10492857E+04</pdfrwt>
<totfact> 0.12755650E-01</totfact>
</mgrwt>
</event>
<event>
 4    5  0.1905771E-007  0.8027519E+03  0.7818608E-02  0.9704877E-01
          2   -1    0    0  501    0  0.00000000000E+00  0.00000000000E+00  0.29427269921E+03  0.29427269922E+03  0.25500000000E-02 0. -1.
         -2   -1    0    0    0  501 -0.00000000000E+00 -0.00000000000E+00 -0.15436411855E+04  0.15436411855E+04  0.25500000000E-02 0.  1.
    8880023    1    1    2    0    0  0.21692550319E+03  0.40440546837E+03 -0.10323650067E+04  0.13077416297E+04  0.65864270000E+03 0.  0.
    8880022    1    1    2    0    0 -0.21692550319E+03 -0.40440546837E+03 -0.21700347955E+03  0.53017225497E+03  0.15294330000E+03 0.  0.
<mgrwt>
<rscale>  0 0.70727152E+03</rscale>
<asrwt>0</asrwt>
<pdfrwt beam="1">  1        2 0.45272724E-01 0.80275193E+03</pdfrwt>
<pdfrwt beam="2">  1       -2 0.23748325E+00 0.80275193E+03</pdfrwt>
<totfact> 0.87762693E+00</totfact>
</mgrwt>
</event>
<event>
 4    5  0.1905771E-007  0.1559267E+04  0.7818608E-02  0.8868881E-01
          2   -1    0    0  501    0  0.00000000000E+00  0.00000000000E+00  0.22054540644E+04  0.22054540644E+04  0.25500000000E-02 0. -1.
         -2   -1    0    0    0  501 -0.00000000000E+00 -0.00000000000E+00 -0.17933535607E+04  0.17933535607E+04  0.25500000000E-02 0.  1.
    8880023    1    1    2    0    0 -0.74871648644E+03  0.11987193413E+04  0.15343863137E+04  0.21876142261E+04  0.65864270000E+03 0.  0.
    8880022    1    1    2    0    0  0.74871648644E+03 -0.11987193413E+04 -0.11222858101E+04  0.18111933990E+04  0.15294330000E+03 0.  0.
<mgrwt>
<rscale>  0 0.15236438E+04</rscale>
<asrwt>0</asrwt>
<pdfrwt beam="1">  1        2 0.33930062E+00 0.15592673E+04</pdfrwt>
<pdfrwt beam="2">  1       -2 0.27590055E+00 0.15592673E+04</pdfrwt>
<totfact> 0.21290296E-01</totfact>
</mgrwt>
</event>
<event>
 4    5  0.1905771E-007  0.1025945E+04  0.7818608E-02  0.9348374E-01
         -2   -1    0    0    0  501 -0.00000000000E+00  0.00000000000E+00  0.10492789714E+04  0.10492789714E+04  0.25500000000E-02 0.  1.
          2   -1    0    0  501    0  0.00000000000E+00 -0.00000000000E+00 -0.15434620891E+04  0.15434620891E+04  0.25500000000E-02 0. -1.
    8880023    1    1    2    0    0  0.58765103283E+03  0.52289459601E+03 -0.11616477813E+04  0.15498349167E+04  0.65864270000E+03 0.  0.
    8880022    1    1    2    0    0 -0.58765103283E+03 -0.52289459601E+03  0.66746466357E+03  0.10429061439E+04  0.15294330000E+03 0.  0.
<mgrwt>
<rscale>  0 0.96448851E+03</rscale>
<asrwt>0</asrwt>
<pdfrwt beam="1">  1        2 0.23745570E+00 0.10259448E+04</pdfrwt>
<pdfrwt beam="2">  1       -2 0.16142754E+00 0.10259448E+04</pdfrwt>
<totfact> 0.29194351E+00</totfact>
</mgrwt>
</event>
<event>
 4    5  0.1905771E-007  0.7855311E+03  0.7818608E-02  0.9743001E-01
         -2   -1    0    0    0  501 -0.00000000000E+00  0.00000000000E+00  0.34386257006E+03  0.34386257007E+03  0.25500000000E-02 0.  1.
          2   -1    0    0  501    0  0.00000000000E+00 -0.00000000000E+00 -0.35272076486E+04  0.35272076486E+04  0.25500000000E-02 0. -1.
    8880023    1    1    2    0    0 -0.37849483126E+03  0.19997657703E+03 -0.33077755721E+04  0.33997703467E+04  0.65864270000E+03 0. -1.
    8880022    1    1    2    0    0  0.37849483126E+03 -0.19997657703E+03  0.12443049349E+03  0.47129987203E+03  0.15294330000E+03 0.  0.
<mgrwt>
<rscale>  0 0.68513242E+03</rscale>
<asrwt>0</asrwt>
<pdfrwt beam="1">  1        2 0.54264731E+00 0.78553114E+03</pdfrwt>
<pdfrwt beam="2">  1       -2 0.52901936E-01 0.78553114E+03</pdfrwt>
<totfact> 0.28297692E+00</totfact>
</mgrwt>
</event>
<event>
 4    5  0.1905771E-007  0.1261756E+04  0.7818608E-02  0.9099310E-01
          2   -1    0    0  501    0  0.00000000000E+00  0.00000000000E+00  0.10570172154E+04  0.10570172154E+04  0.25500000000E-02 0. -1.
         -2   -1    0    0    0  501 -0.00000000000E+00 -0.00000000000E+00 -0.14680822799E+04  0.14680822800E+04  0.25500000000E-02 0.  1.
    8880023    1    1    2    0    0  0.10682677779E+04  0.13047010862E+03  0.20091167318E+03  0.12776518310E+04  0.65864270000E+03 0. -1.
    8880022    1    1    2    0    0 -0.10682677779E+04 -0.13047010862E+03 -0.61197673777E+03  0.12474476643E+04  0.15294330000E+03 0.  1.
<mgrwt>
<rscale>  0 0.12156005E+04</rscale>
<asrwt>0</asrwt>
<pdfrwt beam="1">  1        2 0.16261803E+00 0.12617562E+04</pdfrwt>
<pdfrwt beam="2">  1       -2 0.22585881E+00 0.12617562E+04</pdfrwt>
<totfact> 0.20331580E+00</totfact>
</mgrwt>
</event>
<event>
 4    5  0.1905771E-007  0.1532504E+04  0.7818608E-02  0.8887018E-01
          2   -1    0    0  501    0  0.00000000000E+00  0.00000000000E+00  0.16457147654E+04  0.16457147654E+04  0.25500000000E-02 0. -1.
         -2   -1    0    0    0  501 -0.00000000000E+00 -0.00000000000E+00 -0.19424226748E+04  0.19424226748E+04  0.25500000000E-02 0.  1.
    8880023    1    1    2    0    0  0.12445314483E+04  0.60489746596E+03  0.87833048979E+03  0.17663618332E+04  0.65864270000E+03 0.  0.
    8880022    1    1    2    0    0 -0.12445314483E+04 -0.60489746596E+03 -0.11750383992E+04  0.18217756071E+04  0.15294330000E+03 0.  0.
<mgrwt>
<rscale>  0 0.14961487E+04</rscale>
<asrwt>0</asrwt>
<pdfrwt beam="1">  1        2 0.25318689E+00 0.15325044E+04</pdfrwt>
<pdfrwt beam="2">  1       -2 0.29883426E+00 0.15325044E+04</pdfrwt>
<totfact> 0.31808324E-01</totfact>
</mgrwt>
</event>
<event>
 4    5  0.1905771E-007  0.1319807E+04  0.7818608E-02  0.9048641E-01
          2   -1    0    0  501    0  0.00000000000E+00  0.00000000000E+00  0.32655255192E+04  0.32655255192E+04  0.25500000000E-02 0. -1.
         -2   -1    0    0    0  501 -0.00000000000E+00 -0.00000000000E+00 -0.60784060275E+03  0.60784060275E+03  0.25500000000E-02 0.  1.
    8880023    1    1    2    0    0 -0.37254576758E+03 -0.10813373106E+04  0.23232869726E+04  0.26719942536E+04  0.65864270000E+03 0.  0.
    8880022    1    1    2    0    0  0.37254576758E+03  0.10813373106E+04  0.33439794388E+03  0.12013718683E+04  0.15294330000E+03 0.  0.
<mgrwt>
<rscale>  0 0.12762166E+04</rscale>
<asrwt>0</asrwt>
<pdfrwt beam="1">  1        2 0.50238854E+00 0.13198072E+04</pdfrwt>
<pdfrwt beam="2">  1       -2 0.93513940E-01 0.13198072E+04</pdfrwt>
<totfact> 0.11137288E+00</totfact>
</mgrwt>
</event>
<event>
 4    5  0.2561602E-007  0.1208006E+04  0.7818608E-02  0.9149379E-01
          2   -1    0    0  501    0  0.00000000000E+00  0.00000000000E+00  0.31805516741E+04  0.31805516741E+04  0.25500000000E-02 0. -1.
         -2   -1    0    0    0  501 -0.00000000000E+00 -0.00000000000E+00 -0.17171127740E+04  0.17171127740E+04  0.25500000000E-02 0.  1.
    8880023    1    1    2    0    0  0.98258868241E+03 -0.24492447464E+03  0.28953227655E+04  0.31372237153E+04  0.65864270000E+03 0.  0.
    8880022    1    1    2    0    0 -0.98258868241E+03  0.24492447464E+03 -0.14318838654E+04  0.17604407329E+04  0.15294330000E+03 0.  1.
<mgrwt>
<rscale>  0 0.11591551E+04</rscale>
<asrwt>0</asrwt>
<pdfrwt beam="1">  1        2 0.48931564E+00 0.12080061E+04</pdfrwt>
<pdfrwt beam="2">  1       -2 0.26417120E+00 0.12080061E+04</pdfrwt>
<totfact> 0.69352200E-02</totfact>
</mgrwt>
</event>
<event>
 4    5  0.1905771E-007  0.8596620E+03  0.7818608E-02  0.9594165E-01
          2   -1    0    0  501    0  0.00000000000E+00  0.00000000000E+00  0.10329117093E+04  0.10329117093E+04  0.25500000000E-02 0. -1.
         -2   -1    0    0    0  501 -0.00000000000E+00 -0.00000000000E+00 -0.13658811597E+04  0.13658811597E+04  0.25500000000E-02 0.  1.
    8880023    1    1    2    0    0  0.18797111946E+02  0.55213694411E+03  0.77107257253E+03  0.11548037300E+04  0.65864270000E+03 0. -1.
    8880022    1    1    2    0    0 -0.18797111946E+02 -0.55213694411E+03 -0.11040420229E+04  0.12439891389E+04  0.15294330000E+03 0.  0.
<mgrwt>
<rscale>  0 0.77683587E+03</rscale>
<asrwt>0</asrwt>
<pdfrwt beam="1">  1        2 0.15890949E+00 0.85966199E+03</pdfrwt>
<pdfrwt beam="2">  1       -2 0.21013556E+00 0.85966199E+03</pdfrwt>
<totfact> 0.27704520E+00</totfact>
</mgrwt>
</event>
<event>
 4    5  0.1905771E-007  0.7423404E+03  0.7818608E-02  0.9853181E-01
         -2   -1    0    0    0  501 -0.00000000000E+00  0.00000000000E+00  0.14186826594E+04  0.14186826594E+04  0.25500000000E-02 0.  1.
          2   -1    0    0  501    0  0.00000000000E+00 -0.00000000000E+00 -0.10290254427E+04  0.10290254427E+04  0.25500000000E-02 0. -1.
    8880023    1    1    2    0    0 -0.34235716724E+03  0.71132660745E+01 -0.86402875871E+03  0.11391290228E+04  0.65864270000E+03 0. -1.
    8880022    1    1    2    0    0  0.34235716724E+03 -0.71132660745E+01  0.12536859754E+04  0.13085790792E+04  0.15294330000E+03 0.  0.
<mgrwt>
<rscale>  0 0.62584969E+03</rscale>
<asrwt>0</asrwt>
<pdfrwt beam="1">  1        2 0.15831161E+00 0.74234038E+03</pdfrwt>
<pdfrwt beam="2">  1       -2 0.21825887E+00 0.74234038E+03</pdfrwt>
<totfact> 0.25177691E+00</totfact>
</mgrwt>
</event>
<event>
 4    5  0.1905771E-007  0.7802030E+03  0.7818608E-02  0.9755360E-01
         -2   -1    0    0    0  501 -0.00000000000E+00  0.00000000000E+00  0.35943072516E+03  0.35943072517E+03  0.25500000000E-02 0.  1.
          2   -1    0    0  501    0  0.00000000000E+00 -0.00000000000E+00 -0.27679778098E+04  0.27679778098E+04  0.25500000000E-02 0. -1.
    8880023    1    1    2    0    0  0.29905336057E+03  0.29235874514E+03 -0.25448068151E+04  0.26617209622E+04  0.65864270000E+03 0.  1.
    8880022    1    1    2    0    0 -0.29905336057E+03 -0.29235874514E+03  0.13625973039E+03  0.46568757281E+03  0.15294330000E+03 0.  1.
<mgrwt>
<rscale>  0 0.67814188E+03</rscale>
<asrwt>0</asrwt>
<pdfrwt beam="1">  1        2 0.42584273E+00 0.78020302E+03</pdfrwt>
<pdfrwt beam="2">  1       -2 0.55297036E-01 0.78020302E+03</pdfrwt>
<totfact> 0.78163500E+00</totfact>
</mgrwt>
</event>
<event>
 4    5  0.1905771E-007  0.8330216E+03  0.7818608E-02  0.9643482E-01
         -2   -1    0    0    0  501 -0.00000000000E+00  0.00000000000E+00  0.85427957700E+03  0.85427957701E+03  0.25500000000E-02 0.  1.
          2   -1    0    0  501    0  0.00000000000E+00 -0.00000000000E+00 -0.10372403075E+04  0.10372403075E+04  0.25500000000E-02 0. -1.
    8880023    1    1    2    0    0  0.36975812237E+03  0.35127431924E+03 -0.74482037490E+03  0.11174445461E+04  0.65864270000E+03 0.  0.
    8880022    1    1    2    0    0 -0.36975812237E+03 -0.35127431924E+03  0.56185964445E+03  0.77407533839E+03  0.15294330000E+03 0.  0.
<mgrwt>
<rscale>  0 0.74483922E+03</rscale>
<asrwt>0</asrwt>
<pdfrwt beam="1">  1        2 0.15957543E+00 0.83302156E+03</pdfrwt>
<pdfrwt beam="2">  1       -2 0.13142763E+00 0.83302156E+03</pdfrwt>
<totfact> 0.10157161E+01</totfact>
</mgrwt>
</event>
<event>
 4    5  0.1905771E-007  0.7930502E+03  0.7818608E-02  0.9726029E-01
         -2   -1    0    0    0  501 -0.00000000000E+00  0.00000000000E+00  0.71982466963E+03  0.71982466964E+03  0.25500000000E-02 0.  1.
          2   -1    0    0  501    0  0.00000000000E+00 -0.00000000000E+00 -0.12151455415E+04  0.12151455415E+04  0.25500000000E-02 0. -1.
    8880023    1    1    2    0    0  0.39392616195E+03  0.19985150702E+03 -0.98061224023E+03  0.12611617731E+04  0.65864270000E+03 0. -1.
    8880022    1    1    2    0    0 -0.39392616195E+03 -0.19985150702E+03  0.48529136838E+03  0.67380843804E+03  0.15294330000E+03 0.  1.
<mgrwt>
<rscale>  0 0.69487943E+03</rscale>
<asrwt>0</asrwt>
<pdfrwt beam="1">  1        2 0.18694547E+00 0.79305022E+03</pdfrwt>
<pdfrwt beam="2">  1       -2 0.11074226E+00 0.79305022E+03</pdfrwt>
<totfact> 0.12166065E+01</totfact>
</mgrwt>
</event>
<event>
 4    5  0.1905771E-007  0.6636040E+03  0.7818608E-02  0.1020734E+00
         -2   -1    0    0    0  501 -0.00000000000E+00  0.00000000000E+00  0.29720593276E+03  0.29720593277E+03  0.25500000000E-02 0.  1.
          2   -1    0    0  501    0  0.00000000000E+00 -0.00000000000E+00 -0.15777642324E+04  0.15777642324E+04  0.25500000000E-02 0. -1.
    8880023    1    1    2    0    0 -0.68120372486E+02 -0.43813864578E+02 -0.14733469619E+04  0.16158965055E+04  0.65864270000E+03 0. -1.
    8880022    1    1    2    0    0  0.68120372486E+02  0.43813864578E+02  0.19278866224E+03  0.25907365976E+03  0.15294330000E+03 0.  0.
<mgrwt>
<rscale>  0 0.47422496E+03</rscale>
<asrwt>0</asrwt>
<pdfrwt beam="1">  1        2 0.24273295E+00 0.66360398E+03</pdfrwt>
<pdfrwt beam="2">  1       -2 0.45723991E-01 0.66360398E+03</pdfrwt>
<totfact> 0.53749661E+01</totfact>
</mgrwt>
</event>
<event>
 4    5  0.1905771E-007  0.1481796E+04  0.7818608E-02  0.8922598E-01
         -2   -1    0    0    0  501 -0.00000000000E+00  0.00000000000E+00  0.80393014582E+03  0.80393014583E+03  0.25500000000E-02 0.  1.
          2   -1    0    0  501    0  0.00000000000E+00 -0.00000000000E+00 -0.31040566503E+04  0.31040566503E+04  0.25500000000E-02 0. -1.
    8880023    1    1    2    0    0  0.38570166583E+03  0.12700959275E+04 -0.20799692397E+04  0.25538190391E+04  0.65864270000E+03 0. -1.
    8880022    1    1    2    0    0 -0.38570166583E+03 -0.12700959275E+04 -0.22015726476E+03  0.13541677570E+04  0.15294330000E+03 0.  1.
<mgrwt>
<rscale>  0 0.14439603E+04</rscale>
<asrwt>0</asrwt>
<pdfrwt beam="1">  1        2 0.47754717E+00 0.14817961E+04</pdfrwt>
<pdfrwt beam="2">  1       -2 0.12368156E+00 0.14817961E+04</pdfrwt>
<totfact> 0.70333290E-01</totfact>
</mgrwt>
</event>
<event>
 4    5  0.1905771E-007  0.1398461E+04  0.7818608E-02  0.8984880E-01
         -2   -1    0    0    0  501 -0.00000000000E+00  0.00000000000E+00  0.97558130949E+03  0.97558130949E+03  0.25500000000E-02 0.  1.
          2   -1    0    0  501    0  0.00000000000E+00 -0.00000000000E+00 -0.31739145784E+04  0.31739145784E+04  0.25500000000E-02 0. -1.
    8880023    1    1    2    0    0  0.10236580497E+04 -0.68848174330E+03 -0.25051924239E+04  0.28690908318E+04  0.65864270000E+03 0.  0.
    8880022    1    1    2    0    0 -0.10236580497E+04  0.68848174330E+03  0.30685915506E+03  0.12804050561E+04  0.15294330000E+03 0.  0.
<mgrwt>
<rscale>  0 0.13578865E+04</rscale>
<asrwt>0</asrwt>
<pdfrwt beam="1">  1        2 0.48829455E+00 0.13984610E+04</pdfrwt>
<pdfrwt beam="2">  1       -2 0.15008943E+00 0.13984610E+04</pdfrwt>
<totfact> 0.38779304E-01</totfact>
</mgrwt>
</event>
<event>
 4    5  0.1905771E-007  0.1607216E+04  0.7818608E-02  0.8837417E-01
          2   -1    0    0  501    0  0.00000000000E+00  0.00000000000E+00  0.44394987279E+04  0.44394987279E+04  0.25500000000E-02 0. -1.
         -2   -1    0    0    0  501 -0.00000000000E+00 -0.00000000000E+00 -0.73131531213E+03  0.73131531213E+03  0.25500000000E-02 0.  1.
    8880023    1    1    2    0    0 -0.12987244474E+04 -0.68018145145E+03  0.32525596321E+04  0.36279865441E+04  0.65864270000E+03 0.  0.
    8880022    1    1    2    0    0  0.12987244474E+04  0.68018145145E+03  0.45562378364E+03  0.15428274960E+04  0.15294330000E+03 0.  0.
<mgrwt>
<rscale>  0 0.15728278E+04</rscale>
<asrwt>0</asrwt>
<pdfrwt beam="1">  1        2 0.68299980E+00 0.16072157E+04</pdfrwt>
<pdfrwt beam="2">  1       -2 0.11251005E+00 0.16072157E+04</pdfrwt>
<totfact> 0.84248909E-02</totfact>
</mgrwt>
</event>
<event>
 4    5  0.1905771E-007  0.1803900E+04  0.7818608E-02  0.8720382E-01
          2   -1    0    0  501    0  0.00000000000E+00  0.00000000000E+00  0.28044390372E+04  0.28044390372E+04  0.25500000000E-02 0. -1.
         -2   -1    0    0    0  501 -0.00000000000E+00 -0.00000000000E+00 -0.15384127410E+04  0.15384127410E+04  0.25500000000E-02 0.  1.
    8880023    1    1    2    0    0  0.16599494453E+04 -0.25458485978E+03  0.18252437153E+04  0.25662366294E+04  0.65864270000E+03 0.  0.
    8880022    1    1    2    0    0 -0.16599494453E+04  0.25458485978E+03 -0.55921741905E+03  0.17766151487E+04  0.15294330000E+03 0.  0.
<mgrwt>
<rscale>  0 0.17737551E+04</rscale>
<asrwt>0</asrwt>
<pdfrwt beam="1">  1        2 0.43145215E+00 0.18039002E+04</pdfrwt>
<pdfrwt beam="2">  1       -2 0.23667889E+00 0.18039002E+04</pdfrwt>
<totfact> 0.16195140E-01</totfact>
</mgrwt>
</event>
<event>
 4    5  0.1905771E-007  0.1015238E+04  0.7818608E-02  0.9361888E-01
         -2   -1    0    0    0  501 -0.00000000000E+00  0.00000000000E+00  0.83078606682E+03  0.83078606682E+03  0.25500000000E-02 0.  1.
          2   -1    0    0  501    0  0.00000000000E+00 -0.00000000000E+00 -0.14110947542E+04  0.14110947542E+04  0.25500000000E-02 0. -1.
    8880023    1    1    2    0    0  0.76259512295E+03 -0.12387776300E+03 -0.93308637862E+03  0.13788971745E+04  0.65864270000E+03 0.  0.
    8880022    1    1    2    0    0 -0.76259512295E+03  0.12387776300E+03  0.35277769121E+03  0.86298364651E+03  0.15294330000E+03 0.  0.
<mgrwt>
<rscale>  0 0.95279611E+03</rscale>
<asrwt>0</asrwt>
<pdfrwt beam="1">  1        2 0.21709150E+00 0.10152375E+04</pdfrwt>
<pdfrwt beam="2">  1       -2 0.12781324E+00 0.10152375E+04</pdfrwt>
<totfact> 0.64096497E+00</totfact>
</mgrwt>
</event>
<event>
 4    5  0.1905771E-007  0.9294737E+03  0.7818608E-02  0.9480283E-01
          2   -1    0    0  501    0  0.00000000000E+00  0.00000000000E+00  0.14285746805E+04  0.14285746805E+04  0.25500000000E-02 0. -1.
         -2   -1    0    0    0  501 -0.00000000000E+00 -0.00000000000E+00 -0.24396163054E+04  0.24396163054E+04  0.25500000000E-02 0.  1.
    8880023    1    1    2    0    0 -0.54182470941E+03  0.36950940726E+03  0.12222826950E+04  0.15355443369E+04  0.65864270000E+03 0.  0.
    8880022    1    1    2    0    0  0.54182470941E+03 -0.36950940726E+03 -0.22333243200E+04  0.23326466490E+04  0.15294330000E+03 0.  0.
<mgrwt>
<rscale>  0 0.85753202E+03</rscale>
<asrwt>0</asrwt>
<pdfrwt beam="1">  1        2 0.21978072E+00 0.92947373E+03</pdfrwt>
<pdfrwt beam="2">  1       -2 0.37532559E+00 0.92947373E+03</pdfrwt>
<totfact> 0.15396456E-01</totfact>
</mgrwt>
</event>
<event>
 4    5  0.1905771E-007  0.8591309E+03  0.7818608E-02  0.9595111E-01
          2   -1    0    0  501    0  0.00000000000E+00  0.00000000000E+00  0.13025848843E+04  0.13025848843E+04  0.25500000000E-02 0. -1.
         -2   -1    0    0    0  501 -0.00000000000E+00 -0.00000000000E+00 -0.14836907622E+04  0.14836907622E+04  0.25500000000E-02 0.  1.
    8880023    1    1    2    0    0  0.46308575644E+02  0.54968278670E+03  0.10925561643E+04  0.13898866244E+04  0.65864270000E+03 0. -1.
    8880022    1    1    2    0    0 -0.46308575644E+02 -0.54968278670E+03 -0.12736620423E+04  0.13963890221E+04  0.15294330000E+03 0.  0.
<mgrwt>
<rscale>  0 0.77620591E+03</rscale>
<asrwt>0</asrwt>
<pdfrwt beam="1">  1        2 0.20039767E+00 0.85913087E+03</pdfrwt>
<pdfrwt beam="2">  1       -2 0.22826012E+00 0.85913087E+03</pdfrwt>
<totfact> 0.14661938E+00</totfact>
</mgrwt>
</event>
<event>
 4    5  0.1905771E-007  0.6825131E+03  0.7818608E-02  0.1007936E+00
         -2   -1    0    0    0  501 -0.00000000000E+00  0.00000000000E+00  0.15985356968E+03  0.15985356970E+03  0.25500000000E-02 0.  1.
          2   -1    0    0  501    0  0.00000000000E+00 -0.00000000000E+00 -0.29375674831E+04  0.29375674831E+04  0.25500000000E-02 0. -1.
    8880023    1    1    2    0    0  0.17804567433E+03  0.17711997771E+02 -0.27794594493E+04  0.28620305752E+04  0.65864270000E+03 0. -1.
    8880022    1    1    2    0    0 -0.17804567433E+03 -0.17711997771E+02  0.17455358944E+01  0.23539047756E+03  0.15294330000E+03 0.  0.
<mgrwt>
<rscale>  0 0.52303108E+03</rscale>
<asrwt>0</asrwt>
<pdfrwt beam="1">  1        2 0.45193342E+00 0.68251314E+03</pdfrwt>
<pdfrwt beam="2">  1       -2 0.24592859E-01 0.68251314E+03</pdfrwt>
<totfact> 0.30008621E+01</totfact>
</mgrwt>
</event>
<event>
 4    5  0.1905771E-007  0.1219394E+04  0.7818608E-02  0.9138497E-01
         -2   -1    0    0    0  501 -0.00000000000E+00  0.00000000000E+00  0.87632067241E+03  0.87632067241E+03  0.25500000000E-02 0.  1.
          2   -1    0    0  501    0  0.00000000000E+00 -0.00000000000E+00 -0.25885661571E+04  0.25885661571E+04  0.25500000000E-02 0. -1.
    8880023    1    1    2    0    0  0.59738296415E+03 -0.83441269664E+03 -0.20401221041E+04  0.23767665767E+04  0.65864270000E+03 0.  0.
    8880022    1    1    2    0    0 -0.59738296415E+03  0.83441269664E+03  0.32787661936E+03  0.10881202529E+04  0.15294330000E+03 0.  0.
<mgrwt>
<rscale>  0 0.11711428E+04</rscale>
<asrwt>0</asrwt>
<pdfrwt beam="1">  1        2 0.39824094E+00 0.12193938E+04</pdfrwt>
<pdfrwt beam="2">  1       -2 0.13481857E+00 0.12193938E+04</pdfrwt>
<totfact> 0.11963127E+00</totfact>
</mgrwt>
</event>
<event>
 4    5  0.1905771E-007  0.7400053E+03  0.7818608E-02  0.9859932E-01
          2   -1    0    0  501    0  0.00000000000E+00  0.00000000000E+00  0.13365487631E+04  0.13365487631E+04  0.25500000000E-02 0. -1.
         -2   -1    0    0    0  501 -0.00000000000E+00 -0.00000000000E+00 -0.23115869603E+03  0.23115869605E+03  0.25500000000E-02 0.  1.
    8880023    1    1    2    0    0 -0.32277559401E+03  0.98048534749E+02  0.70080564742E+03  0.10191841644E+04  0.65864270000E+03 0.  0.
    8880022    1    1    2    0    0  0.32277559401E+03 -0.98048534749E+02  0.40458441969E+03  0.54852329479E+03  0.15294330000E+03 0. -1.
<mgrwt>
<rscale>  0 0.62243087E+03</rscale>
<asrwt>0</asrwt>
<pdfrwt beam="1">  1        2 0.20562289E+00 0.74000527E+03</pdfrwt>
<pdfrwt beam="2">  1       -2 0.35562876E-01 0.74000527E+03</pdfrwt>
<totfact> 0.11886133E+02</totfact>
</mgrwt>
</event>
<event>
 4    5  0.1905771E-007  0.9407916E+03  0.7818608E-02  0.9463489E-01
          2   -1    0    0  501    0  0.00000000000E+00  0.00000000000E+00  0.27733334109E+04  0.27733334109E+04  0.25500000000E-02 0. -1.
         -2   -1    0    0    0  501 -0.00000000000E+00 -0.00000000000E+00 -0.40254146763E+03  0.40254146764E+03  0.25500000000E-02 0.  1.
    8880023    1    1    2    0    0 -0.59742817322E+03  0.30717790505E+03  0.22979455347E+04  0.24830711980E+04  0.65864270000E+03 0.  0.
    8880022    1    1    2    0    0  0.59742817322E+03 -0.30717790505E+03  0.72846408532E+02  0.69280368053E+03  0.15294330000E+03 0.  0.
<mgrwt>
<rscale>  0 0.87030023E+03</rscale>
<asrwt>0</asrwt>
<pdfrwt beam="1">  1        2 0.42666668E+00 0.94079163E+03</pdfrwt>
<pdfrwt beam="2">  1       -2 0.61929456E-01 0.94079163E+03</pdfrwt>
<totfact> 0.59610380E+00</totfact>
</mgrwt>
</event>
<event>
 4    5  0.1905771E-007  0.7667176E+03  0.7818608E-02  0.9788017E-01
         -2   -1    0    0    0  501 -0.00000000000E+00  0.00000000000E+00  0.59037330478E+03  0.59037330478E+03  0.25500000000E-02 0.  1.
          2   -1    0    0  501    0  0.00000000000E+00 -0.00000000000E+00 -0.17335874136E+04  0.17335874136E+04  0.25500000000E-02 0. -1.
    8880023    1    1    2    0    0  0.39035340065E+03  0.40864275094E+02 -0.15557152996E+04  0.17343892199E+04  0.65864270000E+03 0.  0.
    8880022    1    1    2    0    0 -0.39035340065E+03 -0.40864275094E+02  0.41250119081E+03  0.58957149847E+03  0.15294330000E+03 0.  1.
<mgrwt>
<rscale>  0 0.66009614E+03</rscale>
<asrwt>0</asrwt>
<pdfrwt beam="1">  1        2 0.26670575E+00 0.76671760E+03</pdfrwt>
<pdfrwt beam="2">  1       -2 0.90826663E-01 0.76671760E+03</pdfrwt>
<totfact> 0.99813209E+00</totfact>
</mgrwt>
</event>
<event>
 4    5  0.1905771E-007  0.7694988E+03  0.7818608E-02  0.9781109E-01
         -2   -1    0    0    0  501 -0.00000000000E+00  0.00000000000E+00  0.53589582499E+03  0.53589582500E+03  0.25500000000E-02 0.  1.
          2   -1    0    0  501    0  0.00000000000E+00 -0.00000000000E+00 -0.13595154147E+04  0.13595154147E+04  0.25500000000E-02 0. -1.
    8880023    1    1    2    0    0  0.38936121269E+03  0.81951792890E+02 -0.11323591967E+04  0.13690747996E+04  0.65864270000E+03 0.  0.
    8880022    1    1    2    0    0 -0.38936121269E+03 -0.81951792890E+02  0.30873960694E+03  0.52633644014E+03  0.15294330000E+03 0.  0.
<mgrwt>
<rscale>  0 0.66386275E+03</rscale>
<asrwt>0</asrwt>
<pdfrwt beam="1">  1        2 0.20915622E+00 0.76949883E+03</pdfrwt>
<pdfrwt beam="2">  1       -2 0.82445512E-01 0.76949883E+03</pdfrwt>
<totfact> 0.20096206E+01</totfact>
</mgrwt>
</event>
<event>
 4    5  0.2169823E-007  0.7827917E+03  0.7818608E-02  0.9749320E-01
         -2   -1    0    0    0  501 -0.00000000000E+00  0.00000000000E+00  0.12434359483E+04  0.12434359483E+04  0.25500000000E-02 0.  1.
          2   -1    0    0  501    0  0.00000000000E+00 -0.00000000000E+00 -0.19676553650E+04  0.19676553650E+04  0.25500000000E-02 0. -1.
    8880023    1    1    2    0    0  0.20570712472E+03  0.36964467289E+03 -0.18445768437E+04  0.20038030202E+04  0.65864270000E+03 0. -1.
    8880022    1    1    2    0    0 -0.20570712472E+03 -0.36964467289E+03  0.11203574269E+04  0.12072882930E+04  0.15294330000E+03 0.  0.
<mgrwt>
<rscale>  0 0.68154731E+03</rscale>
<asrwt>0</asrwt>
<pdfrwt beam="1">  1        2 0.30271621E+00 0.78279168E+03</pdfrwt>
<pdfrwt beam="2">  1       -2 0.19129784E+00 0.78279168E+03</pdfrwt>
<totfact> 0.10950031E+00</totfact>
</mgrwt>
</event>
<event>
 4    5  0.1905771E-007  0.7351450E+03  0.7818608E-02  0.9874322E-01
         -2   -1    0    0    0  501 -0.00000000000E+00  0.00000000000E+00  0.16329009083E+04  0.16329009083E+04  0.25500000000E-02 0.  1.
          2   -1    0    0  501    0  0.00000000000E+00 -0.00000000000E+00 -0.34833480102E+03  0.34833480103E+03  0.25500000000E-02 0. -1.
    8880023    1    1    2    0    0 -0.32354451366E+03 -0.44124249588E+02  0.98676128921E+02  0.74173794996E+03  0.65864270000E+03 0. -1.
    8880022    1    1    2    0    0  0.32354451366E+03  0.44124249588E+02  0.11858899783E+04  0.12394977593E+04  0.15294330000E+03 0.  0.
<mgrwt>
<rscale>  0 0.61522063E+03</rscale>
<asrwt>0</asrwt>
<pdfrwt beam="1">  1        2 0.53589969E-01 0.73514503E+03</pdfrwt>
<pdfrwt beam="2">  1       -2 0.25121553E+00 0.73514503E+03</pdfrwt>
<totfact> 0.60441017E+00</totfact>
</mgrwt>
</event>
<event>
 4    5  0.1905771E-007  0.1181257E+04  0.7818608E-02  0.9175561E-01
          2   -1    0    0  501    0  0.00000000000E+00  0.00000000000E+00  0.96521837145E+03  0.96521837145E+03  0.25500000000E-02 0. -1.
         -2   -1    0    0    0  501 -0.00000000000E+00 -0.00000000000E+00 -0.18143990138E+04  0.18143990138E+04  0.25500000000E-02 0.  1.
    8880023    1    1    2    0    0 -0.62327310897E+03  0.75702624175E+03 -0.12403676505E+04  0.17128573244E+04  0.65864270000E+03 0.  0.
    8880022    1    1    2    0    0  0.62327310897E+03 -0.75702624175E+03  0.39118700816E+03  0.10667600609E+04  0.15294330000E+03 0.  0.
<mgrwt>
<rscale>  0 0.11309283E+04</rscale>
<asrwt>0</asrwt>
<pdfrwt beam="1">  1        2 0.14849513E+00 0.11812571E+04</pdfrwt>
<pdfrwt beam="2">  1       -2 0.27913831E+00 0.11812571E+04</pdfrwt>
<totfact> 0.11069253E+00</totfact>
</mgrwt>
</event>
<event>
 4    5  0.1905771E-007  0.1001895E+04  0.7818608E-02  0.9379083E-01
         -2   -1    0    0    0  501 -0.00000000000E+00  0.00000000000E+00  0.50863162428E+03  0.50863162428E+03  0.25500000000E-02 0.  1.
          2   -1    0    0  501    0  0.00000000000E+00 -0.00000000000E+00 -0.22389815336E+04  0.22389815336E+04  0.25500000000E-02 0. -1.
    8880023    1    1    2    0    0  0.68993446067E+03  0.30655107914E+03 -0.17041661581E+04  0.19768600418E+04  0.65864270000E+03 0. -1.
    8880022    1    1    2    0    0 -0.68993446067E+03 -0.30655107914E+03 -0.26183751234E+02  0.77075311611E+03  0.15294330000E+03 0.  0.
<mgrwt>
<rscale>  0 0.93817261E+03</rscale>
<asrwt>0</asrwt>
<pdfrwt beam="1">  1        2 0.34445869E+00 0.10018949E+04</pdfrwt>
<pdfrwt beam="2">  1       -2 0.78251020E-01 0.10018949E+04</pdfrwt>
<totfact> 0.71707988E+00</totfact>
</mgrwt>
</event>
<event>
 4    5  0.1905771E-007  0.7367283E+03  0.7818608E-02  0.9869582E-01
         -2   -1    0    0    0  501 -0.00000000000E+00  0.00000000000E+00  0.37280854744E+03  0.37280854745E+03  0.25500000000E-02 0.  1.
          2   -1    0    0  501    0  0.00000000000E+00 -0.00000000000E+00 -0.12223152098E+04  0.12223152098E+04  0.25500000000E-02 0. -1.
    8880023    1    1    2    0    0 -0.26683915356E+03  0.19430707017E+03 -0.96440768156E+03  0.12136106270E+04  0.65864270000E+03 0. -1.
    8880022    1    1    2    0    0  0.26683915356E+03 -0.19430707017E+03  0.11490101916E+03  0.38151313032E+03  0.15294330000E+03 0.  0.
<mgrwt>
<rscale>  0 0.61758397E+03</rscale>
<asrwt>0</asrwt>
<pdfrwt beam="1">  1        2 0.18804849E+00 0.73672829E+03</pdfrwt>
<pdfrwt beam="2">  1       -2 0.57355162E-01 0.73672829E+03</pdfrwt>
<totfact> 0.53314495E+01</totfact>
</mgrwt>
</event>
<event>
 4    5  0.2075401E-007  0.8306081E+03  0.7818608E-02  0.9648150E-01
         -2   -1    0    0    0  501 -0.00000000000E+00  0.00000000000E+00  0.14824861144E+04  0.14824861144E+04  0.25500000000E-02 0.  1.
          2   -1    0    0  501    0  0.00000000000E+00 -0.00000000000E+00 -0.34038175244E+04  0.34038175244E+04  0.25500000000E-02 0. -1.
    8880023    1    1    2    0    0  0.18649830886E+03 -0.47044452061E+03 -0.33035829740E+04  0.34064013766E+04  0.65864270000E+03 0.  0.
    8880022    1    1    2    0    0 -0.18649830886E+03  0.47044452061E+03  0.13822515640E+04  0.14799022621E+04  0.15294330000E+03 0.  0.
<mgrwt>
<rscale>  0 0.74189625E+03</rscale>
<asrwt>0</asrwt>
<pdfrwt beam="1">  1        2 0.52366423E+00 0.83060813E+03</pdfrwt>
<pdfrwt beam="2">  1       -2 0.22807479E+00 0.83060813E+03</pdfrwt>
<totfact> 0.89441245E-02</totfact>
</mgrwt>
</event>
<event>
 4    5  0.1905771E-007  0.9741336E+03  0.7818608E-02  0.9416210E-01
          2   -1    0    0  501    0  0.00000000000E+00  0.00000000000E+00  0.55771765842E+03  0.55771765843E+03  0.25500000000E-02 0. -1.
         -2   -1    0    0    0  501 -0.00000000000E+00 -0.00000000000E+00 -0.18956275279E+04  0.18956275279E+04  0.25500000000E-02 0.  1.
    8880023    1    1    2    0    0 -0.45523907437E+03 -0.55487244575E+03 -0.55373539339E+02  0.97570614480E+03  0.65864270000E+03 0. -1.
    8880022    1    1    2    0    0  0.45523907437E+03  0.55487244575E+03 -0.12825363301E+04  0.14776390415E+04  0.15294330000E+03 0.  0.
<mgrwt>
<rscale>  0 0.90753605E+03</rscale>
<asrwt>0</asrwt>
<pdfrwt beam="1">  1        2 0.85802718E-01 0.97413359E+03</pdfrwt>
<pdfrwt beam="2">  1       -2 0.29163500E+00 0.97413359E+03</pdfrwt>
<totfact> 0.19522543E+00</totfact>
</mgrwt>
</event>
<event>
 4    5  0.1905771E-007  0.8227028E+03  0.7818608E-02  0.9663701E-01
          2   -1    0    0  501    0  0.00000000000E+00  0.00000000000E+00  0.81352250245E+03  0.81352250245E+03  0.25500000000E-02 0. -1.
         -2   -1    0    0    0  501 -0.00000000000E+00 -0.00000000000E+00 -0.10460027787E+04  0.10460027787E+04  0.25500000000E-02 0.  1.
    8880023    1    1    2    0    0 -0.48917331723E+03 -0.61148615899E+02  0.50054296105E+03  0.96300734662E+03  0.65864270000E+03 0.  0.
    8880022    1    1    2    0    0  0.48917331723E+03  0.61148615899E+02 -0.73302323733E+03  0.89651793457E+03  0.15294330000E+03 0.  0.
<mgrwt>
<rscale>  0 0.73219769E+03</rscale>
<asrwt>0</asrwt>
<pdfrwt beam="1">  1        2 0.12515731E+00 0.82270280E+03</pdfrwt>
<pdfrwt beam="2">  1       -2 0.16092351E+00 0.82270280E+03</pdfrwt>
<totfact> 0.84266864E+00</totfact>
</mgrwt>
</event>
<event>
 4    5  0.1905771E-007  0.1537160E+04  0.7818608E-02  0.8883832E-01
          2   -1    0    0  501    0  0.00000000000E+00  0.00000000000E+00  0.17118709418E+04  0.17118709418E+04  0.25500000000E-02 0. -1.
         -2   -1    0    0    0  501 -0.00000000000E+00 -0.00000000000E+00 -0.16491916189E+04  0.16491916189E+04  0.25500000000E-02 0.  1.
    8880023    1    1    2    0    0 -0.23488992044E+03  0.13688958620E+04  0.85071758703E+03  0.17568664647E+04  0.65864270000E+03 0.  0.
    8880022    1    1    2    0    0  0.23488992044E+03 -0.13688958620E+04 -0.78803826409E+03  0.16041960960E+04  0.15294330000E+03 0.  0.
<mgrwt>
<rscale>  0 0.15009335E+04</rscale>
<asrwt>0</asrwt>
<pdfrwt beam="1">  1        2 0.26336476E+00 0.15371595E+04</pdfrwt>
<pdfrwt beam="2">  1       -2 0.25372179E+00 0.15371595E+04</pdfrwt>
<totfact> 0.55067976E-01</totfact>
</mgrwt>
</event>
<event>
 4    5  0.1905771E-007  0.9969450E+03  0.7818608E-02  0.9385565E-01
          2   -1    0    0  501    0  0.00000000000E+00  0.00000000000E+00  0.33520955174E+04  0.33520955174E+04  0.25500000000E-02 0. -1.
         -2   -1    0    0    0  501 -0.00000000000E+00 -0.00000000000E+00 -0.54188340892E+03  0.54188340892E+03  0.25500000000E-02 0.  1.
    8880023    1    1    2    0    0 -0.30753042296E+03  0.68228600989E+03  0.29531257650E+04  0.31168655971E+04  0.65864270000E+03 0.  0.
    8880022    1    1    2    0    0  0.30753042296E+03 -0.68228600989E+03 -0.14291365644E+03  0.77711332928E+03  0.15294330000E+03 0.  0.
<mgrwt>
<rscale>  0 0.93273168E+03</rscale>
<asrwt>0</asrwt>
<pdfrwt beam="1">  1        2 0.51570701E+00 0.99694502E+03</pdfrwt>
<pdfrwt beam="2">  1       -2 0.83366676E-01 0.99694502E+03</pdfrwt>
<totfact> 0.13341490E+00</totfact>
</mgrwt>
</event>
<event>
 4    5  0.1905771E-007  0.1052451E+04  0.7818608E-02  0.9315941E-01
          2   -1    0    0  501    0  0.00000000000E+00  0.00000000000E+00  0.10800224171E+04  0.10800224171E+04  0.25500000000E-02 0. -1.
         -2   -1    0    0    0  501 -0.00000000000E+00 -0.00000000000E+00 -0.10033021802E+04  0.10033021802E+04  0.25500000000E-02 0.  1.
    8880023    1    1    2    0    0 -0.78813509780E+03 -0.22953327589E+03  0.47916543583E+03  0.11563962030E+04  0.65864270000E+03 0.  1.
    8880022    1    1    2    0    0  0.78813509780E+03  0.22953327589E+03 -0.40244519889E+03  0.92692839435E+03  0.15294330000E+03 0.  0.
<mgrwt>
<rscale>  0 0.99328454E+03</rscale>
<asrwt>0</asrwt>
<pdfrwt beam="1">  1        2 0.16615730E+00 0.10524508E+04</pdfrwt>
<pdfrwt beam="2">  1       -2 0.15435418E+00 0.10524508E+04</pdfrwt>
<totfact> 0.61370099E+00</totfact>
</mgrwt>
</event>
<event>
 4    5  0.1905771E-007  0.6810542E+03  0.7818608E-02  0.1008734E+00
         -2   -1    0    0    0  501 -0.00000000000E+00  0.00000000000E+00  0.55111791076E+03  0.55111791077E+03  0.25500000000E-02 0.  1.
          2   -1    0    0  501    0  0.00000000000E+00 -0.00000000000E+00 -0.53141746311E+03  0.53141746311E+03  0.25500000000E-02 0. -1.
    8880023    1    1    2    0    0  0.27163661959E+02 -0.17113359801E+03 -0.25168507761E+03  0.72607173024E+03  0.65864270000E+03 0. -1.
    8880022    1    1    2    0    0 -0.27163661959E+02  0.17113359801E+03  0.27138552527E+03  0.35646364364E+03  0.15294330000E+03 0.  0.
<mgrwt>
<rscale>  0 0.51981091E+03</rscale>
<asrwt>0</asrwt>
<pdfrwt beam="1">  1        2 0.81756533E-01 0.68105417E+03</pdfrwt>
<pdfrwt beam="2">  1       -2 0.84787370E-01 0.68105417E+03</pdfrwt>
<totfact> 0.70595786E+01</totfact>
</mgrwt>
</event>
<event>
 4    5  0.1905771E-007  0.7730725E+03  0.7818608E-02  0.9772369E-01
         -2   -1    0    0    0  501 -0.00000000000E+00  0.00000000000E+00  0.82364643650E+03  0.82364643651E+03  0.25500000000E-02 0.  1.
          2   -1    0    0  501    0  0.00000000000E+00 -0.00000000000E+00 -0.32433967195E+04  0.32433967195E+04  0.25500000000E-02 0. -1.
    8880023    1    1    2    0    0  0.13558676252E+03  0.38137519511E+03 -0.31361971335E+04  0.32300732927E+04  0.65864270000E+03 0. -1.
    8880022    1    1    2    0    0 -0.13558676252E+03 -0.38137519511E+03  0.71644685047E+03  0.83696986337E+03  0.15294330000E+03 0.  0.
<mgrwt>
<rscale>  0 0.66866700E+03</rscale>
<asrwt>0</asrwt>
<pdfrwt beam="1">  1        2 0.49898410E+00 0.77307245E+03</pdfrwt>
<pdfrwt beam="2">  1       -2 0.12671484E+00 0.77307245E+03</pdfrwt>
<totfact> 0.60344089E-01</totfact>
</mgrwt>
</event>
<event>
 4    5  0.1905771E-007  0.7636956E+03  0.7818608E-02  0.9795632E-01
         -2   -1    0    0    0  501 -0.00000000000E+00  0.00000000000E+00  0.24187000538E+03  0.24187000539E+03  0.25500000000E-02 0.  1.
          2   -1    0    0  501    0  0.00000000000E+00 -0.00000000000E+00 -0.23823944423E+04  0.23823944423E+04  0.25500000000E-02 0. -1.
    8880023    1    1    2    0    0 -0.70466733916E+02 -0.38007260123E+03 -0.20650772199E+04  0.22017663076E+04  0.65864270000E+03 0. -1.
    8880022    1    1    2    0    0  0.70466733916E+02  0.38007260123E+03 -0.75447216981E+02  0.42249814007E+03  0.15294330000E+03 0.  0.
<mgrwt>
<rscale>  0 0.65597467E+03</rscale>
<asrwt>0</asrwt>
<pdfrwt beam="1">  1        2 0.36652221E+00 0.76369559E+03</pdfrwt>
<pdfrwt beam="2">  1       -2 0.37210772E-01 0.76369559E+03</pdfrwt>
<totfact> 0.28781661E+01</totfact>
</mgrwt>
</event>
<event>
 4    5  0.1905771E-007  0.7787396E+03  0.7818608E-02  0.9758806E-01
          2   -1    0    0  501    0  0.00000000000E+00  0.00000000000E+00  0.31052775459E+04  0.31052775459E+04  0.25500000000E-02 0. -1.
         -2   -1    0    0    0  501 -0.00000000000E+00 -0.00000000000E+00 -0.17108457408E+03  0.17108457410E+03  0.25500000000E-02 0.  1.
    8880023    1    1    2    0    0 -0.27651730617E+03  0.31010224463E+03  0.26204867608E+04  0.27337494933E+04  0.65864270000E+03 0. -1.
    8880022    1    1    2    0    0  0.27651730617E+03 -0.31010224463E+03  0.31370621106E+03  0.54261262666E+03  0.15294330000E+03 0.  0.
<mgrwt>
<rscale>  0 0.67620892E+03</rscale>
<asrwt>0</asrwt>
<pdfrwt beam="1">  1        2 0.47773502E+00 0.77873964E+03</pdfrwt>
<pdfrwt beam="2">  1       -2 0.26320703E-01 0.77873964E+03</pdfrwt>
<totfact> 0.20609357E+01</totfact>
</mgrwt>
</event>
<event>
 4    5  0.1905771E-007  0.1685737E+04  0.7818608E-02  0.8788523E-01
          2   -1    0    0  501    0  0.00000000000E+00  0.00000000000E+00  0.14790316909E+04  0.14790316909E+04  0.25500000000E-02 0. -1.
         -2   -1    0    0    0  501 -0.00000000000E+00 -0.00000000000E+00 -0.19929856197E+04  0.19929856197E+04  0.25500000000E-02 0.  1.
    8880023    1    1    2    0    0 -0.10901874993E+04  0.11042598266E+04 -0.83320717199E+03  0.18804103132E+04  0.65864270000E+03 0.  1.
    8880022    1    1    2    0    0  0.10901874993E+04 -0.11042598266E+04  0.31925324319E+03  0.15916069975E+04  0.15294330000E+03 0.  0.
<mgrwt>
<rscale>  0 0.16531868E+04</rscale>
<asrwt>0</asrwt>
<pdfrwt beam="1">  1        2 0.22754334E+00 0.16857369E+04</pdfrwt>
<pdfrwt beam="2">  1       -2 0.30661317E+00 0.16857369E+04</pdfrwt>
<totfact> 0.34886770E-01</totfact>
</mgrwt>
</event>
<event>
 4    5  0.1905771E-007  0.7844047E+03  0.7818608E-02  0.9745590E-01
          2   -1    0    0  501    0  0.00000000000E+00  0.00000000000E+00  0.15158756086E+04  0.15158756086E+04  0.25500000000E-02 0. -1.
         -2   -1    0    0    0  501 -0.00000000000E+00 -0.00000000000E+00 -0.53076418603E+03  0.53076418604E+03  0.25500000000E-02 0.  1.
    8880023    1    1    2    0    0  0.13702743396E+03  0.40336584300E+03  0.12837079868E+04  0.15043925427E+04  0.65864270000E+03 0. -1.
    8880022    1    1    2    0    0 -0.13702743396E+03 -0.40336584300E+03 -0.29859656427E+03  0.54224725187E+03  0.15294330000E+03 0.  0.
<mgrwt>
<rscale>  0 0.68366054E+03</rscale>
<asrwt>0</asrwt>
<pdfrwt beam="1">  1        2 0.23321163E+00 0.78440470E+03</pdfrwt>
<pdfrwt beam="2">  1       -2 0.81656029E-01 0.78440470E+03</pdfrwt>
<totfact> 0.16742115E+01</totfact>
</mgrwt>
</event>
<event>
 4    5  0.1905771E-007  0.7037545E+03  0.7818608E-02  0.9981969E-01
          2   -1    0    0  501    0  0.00000000000E+00  0.00000000000E+00  0.75032272224E+03  0.75032272224E+03  0.25500000000E-02 0. -1.
         -2   -1    0    0    0  501 -0.00000000000E+00 -0.00000000000E+00 -0.41162314459E+03  0.41162314460E+03  0.25500000000E-02 0.  1.
    8880023    1    1    2    0    0  0.21976625756E+03  0.11472975372E+03  0.46599731604E+03  0.84405202990E+03  0.65864270000E+03 0.  0.
    8880022    1    1    2    0    0 -0.21976625756E+03 -0.11472975372E+03 -0.12729773840E+03  0.31789383694E+03  0.15294330000E+03 0.  0.
<mgrwt>
<rscale>  0 0.56447990E+03</rscale>
<asrwt>0</asrwt>
<pdfrwt beam="1">  1        2 0.11543426E+00 0.70375445E+03</pdfrwt>
<pdfrwt beam="2">  1       -2 0.63326638E-01 0.70375445E+03</pdfrwt>
<totfact> 0.87884877E+01</totfact>
</mgrwt>
</event>
<event>
 4    5  0.1905771E-007  0.1339696E+04  0.7818608E-02  0.9032016E-01
          2   -1    0    0  501    0  0.00000000000E+00  0.00000000000E+00  0.20618708278E+04  0.20618708278E+04  0.25500000000E-02 0. -1.
         -2   -1    0    0    0  501 -0.00000000000E+00 -0.00000000000E+00 -0.86002887453E+03  0.86002887454E+03  0.25500000000E-02 0.  1.
    8880023    1    1    2    0    0 -0.10287898252E+04  0.55006005350E+03  0.15794060177E+03  0.13489736865E+04  0.65864270000E+03 0.  0.
    8880022    1    1    2    0    0  0.10287898252E+04 -0.55006005350E+03  0.10439013515E+04  0.15729260159E+04  0.15294330000E+03 0.  0.
<mgrwt>
<rscale>  0 0.12969135E+04</rscale>
<asrwt>0</asrwt>
<pdfrwt beam="1">  1        2 0.31721090E+00 0.13396958E+04</pdfrwt>
<pdfrwt beam="2">  1       -2 0.13231213E+00 0.13396958E+04</pdfrwt>
<totfact> 0.24636901E+00</totfact>
</mgrwt>
</event>
<event>
 4    5  0.1905771E-007  0.9868671E+03  0.7818608E-02  0.9398945E-01
         -2   -1    0    0    0  501 -0.00000000000E+00  0.00000000000E+00  0.12084268820E+04  0.12084268820E+04  0.25500000000E-02 0.  1.
          2   -1    0    0  501    0  0.00000000000E+00 -0.00000000000E+00 -0.16632137726E+04  0.16632137727E+04  0.25500000000E-02 0. -1.
    8880023    1    1    2    0    0  0.40382144383E+02 -0.73380224167E+03 -0.13697004979E+04  0.16881901871E+04  0.65864270000E+03 0. -1.
    8880022    1    1    2    0    0 -0.40382144383E+02  0.73380224167E+03  0.91491360727E+03  0.11834504676E+04  0.15294330000E+03 0.  0.
<mgrwt>
<rscale>  0 0.92162574E+03</rscale>
<asrwt>0</asrwt>
<pdfrwt beam="1">  1        2 0.25587904E+00 0.98686709E+03</pdfrwt>
<pdfrwt beam="2">  1       -2 0.18591183E+00 0.98686709E+03</pdfrwt>
<totfact> 0.16913643E+00</totfact>
</mgrwt>
</event>
<event>
 4    5  0.1905771E-007  0.8835367E+03  0.7818608E-02  0.9552995E-01
         -2   -1    0    0    0  501 -0.00000000000E+00  0.00000000000E+00  0.81577797057E+03  0.81577797057E+03  0.25500000000E-02 0.  1.
          2   -1    0    0  501    0  0.00000000000E+00 -0.00000000000E+00 -0.12290602836E+04  0.12290602836E+04  0.25500000000E-02 0. -1.
    8880023    1    1    2    0    0  0.52384233690E+02  0.58658570954E+03 -0.90332730937E+03  0.12635811556E+04  0.65864270000E+03 0. -1.
    8880022    1    1    2    0    0 -0.52384233690E+02 -0.58658570954E+03  0.49004499638E+03  0.78125709857E+03  0.15294330000E+03 0.  0.
<mgrwt>
<rscale>  0 0.80486996E+03</rscale>
<asrwt>0</asrwt>
<pdfrwt beam="1">  1        2 0.18908620E+00 0.88353670E+03</pdfrwt>
<pdfrwt beam="2">  1       -2 0.12550430E+00 0.88353670E+03</pdfrwt>
<totfact> 0.86763187E+00</totfact>
</mgrwt>
</event>
<event>
 4    5  0.1905771E-007  0.9475257E+03  0.7818608E-02  0.9453683E-01
         -2   -1    0    0    0  501 -0.00000000000E+00  0.00000000000E+00  0.60637123255E+03  0.60637123255E+03  0.25500000000E-02 0.  1.
          2   -1    0    0  501    0  0.00000000000E+00 -0.00000000000E+00 -0.25343130564E+04  0.25343130564E+04  0.25500000000E-02 0. -1.
    8880023    1    1    2    0    0  0.66044637835E+03 -0.16674916938E+03 -0.21969093560E+04  0.23925333078E+04  0.65864270000E+03 0. -1.
    8880022    1    1    2    0    0 -0.66044637835E+03  0.16674916938E+03  0.26896753219E+03  0.74815098112E+03  0.15294330000E+03 0.  0.
<mgrwt>
<rscale>  0 0.87786435E+03</rscale>
<asrwt>0</asrwt>
<pdfrwt beam="1">  1        2 0.38989431E+00 0.94752568E+03</pdfrwt>
<pdfrwt beam="2">  1       -2 0.93287883E-01 0.94752568E+03</pdfrwt>
<totfact> 0.32895205E+00</totfact>
</mgrwt>
</event>
<event>
 4    5  0.1905771E-007  0.7303578E+03  0.7818608E-02  0.9888980E-01
         -2   -1    0    0    0  501 -0.00000000000E+00  0.00000000000E+00  0.25557777185E+03  0.25557777186E+03  0.25500000000E-02 0.  1.
          2   -1    0    0  501    0  0.00000000000E+00 -0.00000000000E+00 -0.14977544257E+04  0.14977544257E+04  0.25500000000E-02 0. -1.
    8880023    1    1    2    0    0 -0.96213986724E+01 -0.31546750587E+03 -0.11935194798E+04  0.13992538274E+04  0.65864270000E+03 0. -1.
    8880022    1    1    2    0    0  0.96213986724E+01  0.31546750587E+03 -0.48657173981E+02  0.35407837009E+03  0.15294330000E+03 0.  0.
<mgrwt>
<rscale>  0 0.60798330E+03</rscale>
<asrwt>0</asrwt>
<pdfrwt beam="1">  1        2 0.23042375E+00 0.73035781E+03</pdfrwt>
<pdfrwt beam="2">  1       -2 0.39319658E-01 0.73035781E+03</pdfrwt>
<totfact> 0.79534553E+01</totfact>
</mgrwt>
</event>
<event>
 4    5  0.1905771E-007  0.1462536E+04  0.7818608E-02  0.8936554E-01
         -2   -1    0    0    0  501 -0.00000000000E+00  0.00000000000E+00  0.10484354483E+04  0.10484354483E+04  0.25500000000E-02 0.  1.
          2   -1    0    0  501    0  0.00000000000E+00 -0.00000000000E+00 -0.29096692615E+04  0.29096692615E+04  0.25500000000E-02 0. -1.
    8880023    1    1    2    0    0  0.11648300591E+04 -0.59023087572E+03 -0.21612010996E+04  0.26095597239E+04  0.65864270000E+03 0. -1.
    8880022    1    1    2    0    0 -0.11648300591E+04  0.59023087572E+03  0.29996728642E+03  0.13485449860E+04  0.15294330000E+03 0.  0.
<mgrwt>
<rscale>  0 0.14241035E+04</rscale>
<asrwt>0</asrwt>
<pdfrwt beam="1">  1        2 0.44764142E+00 0.14625361E+04</pdfrwt>
<pdfrwt beam="2">  1       -2 0.16129776E+00 0.14625361E+04</pdfrwt>
<totfact> 0.46372245E-01</totfact>
</mgrwt>
</event>
<event>
 4    5  0.1905771E-007  0.1185627E+04  0.7818608E-02  0.9171223E-01
          2   -1    0    0  501    0  0.00000000000E+00  0.00000000000E+00  0.79992385323E+03  0.79992385324E+03  0.25500000000E-02 0. -1.
         -2   -1    0    0    0  501 -0.00000000000E+00 -0.00000000000E+00 -0.17551668474E+04  0.17551668474E+04  0.25500000000E-02 0.  1.
    8880023    1    1    2    0    0 -0.68755101203E+03 -0.70652218864E+03 -0.17268509072E+02  0.11857522527E+04  0.65864270000E+03 0.  0.
    8880022    1    1    2    0    0  0.68755101203E+03  0.70652218864E+03 -0.93797448505E+03  0.13693384479E+04  0.15294330000E+03 0.  0.
<mgrwt>
<rscale>  0 0.11355460E+04</rscale>
<asrwt>0</asrwt>
<pdfrwt beam="1">  1        2 0.12306521E+00 0.11856265E+04</pdfrwt>
<pdfrwt beam="2">  1       -2 0.27002567E+00 0.11856265E+04</pdfrwt>
<totfact> 0.16348720E+00</totfact>
</mgrwt>
</event>
<event>
 4    5  0.1905771E-007  0.1021277E+04  0.7818608E-02  0.9354235E-01
         -2   -1    0    0    0  501 -0.00000000000E+00  0.00000000000E+00  0.29165086545E+03  0.29165086546E+03  0.25500000000E-02 0.  1.
          2   -1    0    0  501    0  0.00000000000E+00 -0.00000000000E+00 -0.36467453333E+04  0.36467453333E+04  0.25500000000E-02 0. -1.
    8880023    1    1    2    0    0 -0.73476013204E+03 -0.26329649063E+03 -0.27663469877E+04  0.29488444103E+04  0.65864270000E+03 0.  1.
    8880022    1    1    2    0    0  0.73476013204E+03  0.26329649063E+03 -0.58874748012E+03  0.98955178842E+03  0.15294330000E+03 0.  0.
<mgrwt>
<rscale>  0 0.95939629E+03</rscale>
<asrwt>0</asrwt>
<pdfrwt beam="1">  1        2 0.56103771E+00 0.10212775E+04</pdfrwt>
<pdfrwt beam="2">  1       -2 0.44869366E-01 0.10212775E+04</pdfrwt>
<totfact> 0.31238840E+00</totfact>
</mgrwt>
</event>
<event>
 4    5  0.1905771E-007  0.8979742E+03  0.7818608E-02  0.9529292E-01
         -2   -1    0    0    0  501 -0.00000000000E+00  0.00000000000E+00  0.17096419616E+04  0.17096419616E+04  0.25500000000E-02 0.  1.
          2   -1    0    0  501    0  0.00000000000E+00 -0.00000000000E+00 -0.76809396525E+03  0.76809396525E+03  0.25500000000E-02 0. -1.
    8880023    1    1    2    0    0  0.43308011831E+03 -0.43010348684E+03 -0.40980631792E+03  0.98706576414E+03  0.65864270000E+03 0. -1.
    8880022    1    1    2    0    0 -0.43308011831E+03  0.43010348684E+03  0.13513543143E+04  0.14906701627E+04  0.15294330000E+03 0.  0.
<mgrwt>
<rscale>  0 0.82158296E+03</rscale>
<asrwt>0</asrwt>
<pdfrwt beam="1">  1        2 0.11816830E+00 0.89797417E+03</pdfrwt>
<pdfrwt beam="2">  1       -2 0.26302184E+00 0.89797417E+03</pdfrwt>
<totfact> 0.19674963E+00</totfact>
</mgrwt>
</event>
<event>
 4    5  0.1905771E-007  0.7271953E+03  0.7818608E-02  0.9898951E-01
         -2   -1    0    0    0  501 -0.00000000000E+00  0.00000000000E+00  0.22661807334E+03  0.22661807336E+03  0.25500000000E-02 0.  1.
          2   -1    0    0  501    0  0.00000000000E+00 -0.00000000000E+00 -0.19554833927E+04  0.19554833927E+04  0.25500000000E-02 0. -1.
    8880023    1    1    2    0    0 -0.18595450474E+03 -0.24581233236E+03 -0.16850129357E+04  0.18352333858E+04  0.65864270000E+03 0. -1.
    8880022    1    1    2    0    0  0.18595450474E+03  0.24581233236E+03 -0.43852383710E+02  0.34686808032E+03  0.15294330000E+03 0.  0.
<mgrwt>
<rscale>  0 0.60312135E+03</rscale>
<asrwt>0</asrwt>
<pdfrwt beam="1">  1        2 0.30084359E+00 0.72719529E+03</pdfrwt>
<pdfrwt beam="2">  1       -2 0.34864320E-01 0.72719529E+03</pdfrwt>
<totfact> 0.56290347E+01</totfact>
</mgrwt>
</event>
<event>
 4    5  0.1905771E-007  0.6675801E+03  0.7818608E-02  0.1017460E+00
         -2   -1    0    0    0  501 -0.00000000000E+00  0.00000000000E+00  0.74166734410E+03  0.74166734411E+03  0.25500000000E-02 0.  1.
          2   -1    0    0  501    0  0.00000000000E+00 -0.00000000000E+00 -0.11012791369E+04  0.11012791369E+04  0.25500000000E-02 0. -1.
    8880023    1    1    2    0    0 -0.38499679110E+02 -0.10183665435E+03 -0.98504304368E+03  0.11899466096E+04  0.65864270000E+03 0. -1.
    8880022    1    1    2    0    0  0.38499679110E+02  0.10183665435E+03  0.62543125090E+03  0.65299987142E+03  0.15294330000E+03 0.  0.
<mgrwt>
<rscale>  0 0.48614303E+03</rscale>
<asrwt>0</asrwt>
<pdfrwt beam="1">  1        2 0.16942756E+00 0.66758006E+03</pdfrwt>
<pdfrwt beam="2">  1       -2 0.11410267E+00 0.66758006E+03</pdfrwt>
<totfact> 0.13444455E+01</totfact>
</mgrwt>
</event>
<event>
 4    5  0.1905771E-007  0.9490544E+03  0.7818608E-02  0.9451476E-01
         -2   -1    0    0    0  501 -0.00000000000E+00  0.00000000000E+00  0.89964771410E+03  0.89964771411E+03  0.25500000000E-02 0.  1.
          2   -1    0    0  501    0  0.00000000000E+00 -0.00000000000E+00 -0.87564841130E+03  0.87564841131E+03  0.25500000000E-02 0. -1.
    8880023    1    1    2    0    0 -0.68052950143E+03 -0.61429298690E+02 -0.31149645910E+03  0.99886646323E+03  0.65864270000E+03 0.  1.
    8880022    1    1    2    0    0  0.68052950143E+03  0.61429298690E+02  0.33549576190E+03  0.77642966219E+03  0.15294330000E+03 0.  0.
<mgrwt>
<rscale>  0 0.87957820E+03</rscale>
<asrwt>0</asrwt>
<pdfrwt beam="1">  1        2 0.13471514E+00 0.94905435E+03</pdfrwt>
<pdfrwt beam="2">  1       -2 0.13840734E+00 0.94905435E+03</pdfrwt>
<totfact> 0.11230645E+01</totfact>
</mgrwt>
</event>
<event>
 4    5  0.1905771E-007  0.1437516E+04  0.7818608E-02  0.8955067E-01
          2   -1    0    0  501    0  0.00000000000E+00  0.00000000000E+00  0.16335447472E+04  0.16335447472E+04  0.25500000000E-02 0. -1.
         -2   -1    0    0    0  501 -0.00000000000E+00 -0.00000000000E+00 -0.16321113677E+04  0.16321113677E+04  0.25500000000E-02 0.  1.
    8880023    1    1    2    0    0  0.74149776838E+03  0.10405875792E+04  0.90009593678E+03  0.16960614235E+04  0.65864270000E+03 0.  0.
    8880022    1    1    2    0    0 -0.74149776838E+03 -0.10405875792E+04 -0.89866255726E+03  0.15695946914E+04  0.15294330000E+03 0.  0.
<mgrwt>
<rscale>  0 0.13982766E+04</rscale>
<asrwt>0</asrwt>
<pdfrwt beam="1">  1        2 0.25131458E+00 0.14375158E+04</pdfrwt>
<pdfrwt beam="2">  1       -2 0.25109406E+00 0.14375158E+04</pdfrwt>
<totfact> 0.63890624E-01</totfact>
</mgrwt>
</event>
<event>
 4    5  0.1905771E-007  0.6996055E+03  0.7818608E-02  0.9998841E-01
          2   -1    0    0  501    0  0.00000000000E+00  0.00000000000E+00  0.96519993490E+03  0.96519993490E+03  0.25500000000E-02 0. -1.
         -2   -1    0    0    0  501 -0.00000000000E+00 -0.00000000000E+00 -0.61340533155E+03  0.61340533156E+03  0.25500000000E-02 0.  1.
    8880023    1    1    2    0    0 -0.89532739365E+02 -0.21822374004E+03  0.79171550098E+03  0.10565327032E+04  0.65864270000E+03 0. -1.
    8880022    1    1    2    0    0  0.89532739365E+02  0.21822374004E+03 -0.43992089763E+03  0.52207256328E+03  0.15294330000E+03 0.  0.
<mgrwt>
<rscale>  0 0.55701064E+03</rscale>
<asrwt>0</asrwt>
<pdfrwt beam="1">  1        2 0.14849230E+00 0.69960554E+03</pdfrwt>
<pdfrwt beam="2">  1       -2 0.94370051E-01 0.69960554E+03</pdfrwt>
<totfact> 0.25647336E+01</totfact>
</mgrwt>
</event>
<event>
 4    5  0.1905771E-007  0.1210077E+04  0.7818608E-02  0.9147389E-01
         -2   -1    0    0    0  501 -0.00000000000E+00  0.00000000000E+00  0.13053480405E+04  0.13053480405E+04  0.25500000000E-02 0.  1.
          2   -1    0    0  501    0  0.00000000000E+00 -0.00000000000E+00 -0.14891252162E+04  0.14891252162E+04  0.25500000000E-02 0. -1.
    8880023    1    1    2    0    0  0.34856512778E+02  0.10145249449E+04 -0.92930350656E+03  0.15257427876E+04  0.65864270000E+03 0.  0.
    8880022    1    1    2    0    0 -0.34856512778E+02 -0.10145249449E+04  0.74552633081E+03  0.12687304691E+04  0.15294330000E+03 0.  0.
<mgrwt>
<rscale>  0 0.11613362E+04</rscale>
<asrwt>0</asrwt>
<pdfrwt beam="1">  1        2 0.22909619E+00 0.12100769E+04</pdfrwt>
<pdfrwt beam="2">  1       -2 0.20082278E+00 0.12100769E+04</pdfrwt>
<totfact> 0.16388144E+00</totfact>
</mgrwt>
</event>
<event>
 4    5  0.1905771E-007  0.1099705E+04  0.7818608E-02  0.9261384E-01
         -2   -1    0    0    0  501 -0.00000000000E+00  0.00000000000E+00  0.19965269968E+04  0.19965269968E+04  0.25500000000E-02 0.  1.
          2   -1    0    0  501    0  0.00000000000E+00 -0.00000000000E+00 -0.17155129080E+04  0.17155129080E+04  0.25500000000E-02 0. -1.
    8880023    1    1    2    0    0 -0.66563556717E+03 -0.57660263621E+03 -0.14166842360E+04  0.17934173355E+04  0.65864270000E+03 0. -1.
    8880022    1    1    2    0    0  0.66563556717E+03  0.57660263621E+03  0.16976983248E+04  0.19186225693E+04  0.15294330000E+03 0.  0.
<mgrwt>
<rscale>  0 0.10441695E+04</rscale>
<asrwt>0</asrwt>
<pdfrwt beam="1">  1        2 0.26392506E+00 0.10997052E+04</pdfrwt>
<pdfrwt beam="2">  1       -2 0.30715800E+00 0.10997052E+04</pdfrwt>
<totfact> 0.27382511E-01</totfact>
</mgrwt>
</event>
<event>
 4    5  0.1905771E-007  0.1265087E+04  0.7818608E-02  0.9096312E-01
          2   -1    0    0  501    0  0.00000000000E+00  0.00000000000E+00  0.39122390959E+04  0.39122390959E+04  0.25500000000E-02 0. -1.
         -2   -1    0    0    0  501 -0.00000000000E+00 -0.00000000000E+00 -0.76887278008E+03  0.76887278008E+03  0.25500000000E-02 0.  1.
    8880023    1    1    2    0    0 -0.10495124856E+04 -0.25525950480E+03 -0.90389996581E+02  0.12683116455E+04  0.65864270000E+03 0.  1.
    8880022    1    1    2    0    0  0.10495124856E+04  0.25525950480E+03  0.32337563124E+04  0.34128002305E+04  0.15294330000E+03 0.  0.
<mgrwt>
<rscale>  0 0.12190871E+04</rscale>
<asrwt>0</asrwt>
<pdfrwt beam="1">  1        2 0.60188293E+00 0.12650866E+04</pdfrwt>
<pdfrwt beam="2">  1       -2 0.11828812E+00 0.12650866E+04</pdfrwt>
<totfact> 0.22076730E-01</totfact>
</mgrwt>
</event>
<event>
 4    5  0.1905771E-007  0.1605266E+04  0.7818608E-02  0.8838672E-01
         -2   -1    0    0    0  501 -0.00000000000E+00  0.00000000000E+00  0.20796934276E+04  0.20796934276E+04  0.25500000000E-02 0.  1.
          2   -1    0    0  501    0  0.00000000000E+00 -0.00000000000E+00 -0.17900577959E+04  0.17900577959E+04  0.25500000000E-02 0. -1.
    8880023    1    1    2    0    0  0.41347677994E+03  0.14043168691E+04 -0.10180484947E+04  0.19008687120E+04  0.65864270000E+03 0.  0.
    8880022    1    1    2    0    0 -0.41347677994E+03 -0.14043168691E+04  0.13076841265E+04  0.19688825115E+04  0.15294330000E+03 0.  0.
<mgrwt>
<rscale>  0 0.15708297E+04</rscale>
<asrwt>0</asrwt>
<pdfrwt beam="1">  1        2 0.27539351E+00 0.16052661E+04</pdfrwt>
<pdfrwt beam="2">  1       -2 0.31995283E+00 0.16052661E+04</pdfrwt>
<totfact> 0.19432972E-01</totfact>
</mgrwt>
</event>
<event>
 4    5  0.1905771E-007  0.8475440E+03  0.7818608E-02  0.9616116E-01
          2   -1    0    0  501    0  0.00000000000E+00  0.00000000000E+00  0.12165445925E+04  0.12165445925E+04  0.25500000000E-02 0. -1.
         -2   -1    0    0    0  501 -0.00000000000E+00 -0.00000000000E+00 -0.71544533738E+03  0.71544533738E+03  0.25500000000E-02 0.  1.
    8880023    1    1    2    0    0 -0.53103745817E+03 -0.50198778717E+02  0.90935856359E+03  0.12430864422E+04  0.65864270000E+03 0.  0.
    8880022    1    1    2    0    0  0.53103745817E+03  0.50198778717E+02 -0.40825930847E+03  0.68890348768E+03  0.15294330000E+03 0.  0.
<mgrwt>
<rscale>  0 0.76238632E+03</rscale>
<asrwt>0</asrwt>
<pdfrwt beam="1">  1        2 0.18716070E+00 0.84754404E+03</pdfrwt>
<pdfrwt beam="2">  1       -2 0.11006851E+00 0.84754404E+03</pdfrwt>
<totfact> 0.12249229E+01</totfact>
</mgrwt>
</event>
<event>
 4    5  0.1905771E-007  0.6770102E+03  0.7818608E-02  0.1011068E+00
          2   -1    0    0  501    0  0.00000000000E+00  0.00000000000E+00  0.26033976974E+03  0.26033976975E+03  0.25500000000E-02 0. -1.
         -2   -1    0    0    0  501 -0.00000000000E+00 -0.00000000000E+00 -0.90021637354E+03  0.90021637355E+03  0.25500000000E-02 0.  1.
    8880023    1    1    2    0    0  0.10329363899E+03 -0.11774125901E+03 -0.26617778749E+03  0.72745680335E+03  0.65864270000E+03 0. -1.
    8880022    1    1    2    0    0 -0.10329363899E+03  0.11774125901E+03 -0.37369881632E+03  0.43309933994E+03  0.15294330000E+03 0.  0.
<mgrwt>
<rscale>  0 0.51052357E+03</rscale>
<asrwt>0</asrwt>
<pdfrwt beam="1">  1        2 0.40052273E-01 0.67701018E+03</pdfrwt>
<pdfrwt beam="2">  1       -2 0.13849483E+00 0.67701018E+03</pdfrwt>
<totfact> 0.48222187E+01</totfact>
</mgrwt>
</event>
<event>
 4    5  0.1905771E-007  0.7032956E+03  0.7818608E-02  0.9983795E-01
         -2   -1    0    0    0  501 -0.00000000000E+00  0.00000000000E+00  0.34466415959E+03  0.34466415960E+03  0.25500000000E-02 0.  1.
          2   -1    0    0  501    0  0.00000000000E+00 -0.00000000000E+00 -0.13773611436E+04  0.13773611436E+04  0.25500000000E-02 0. -1.
    8880023    1    1    2    0    0  0.24256321471E+03 -0.44470384640E+02 -0.11971739322E+04  0.13884704385E+04  0.65864270000E+03 0. -1.
    8880022    1    1    2    0    0 -0.24256321471E+03  0.44470384640E+02  0.16447694825E+03  0.33355486469E+03  0.15294330000E+03 0.  0.
<mgrwt>
<rscale>  0 0.56366547E+03</rscale>
<asrwt>0</asrwt>
<pdfrwt beam="1">  1        2 0.21190171E+00 0.70329562E+03</pdfrwt>
<pdfrwt beam="2">  1       -2 0.53025256E-01 0.70329562E+03</pdfrwt>
<totfact> 0.51250684E+01</totfact>
</mgrwt>
</event>
<event>
 4    5  0.1905771E-007  0.8799571E+03  0.7818608E-02  0.9559005E-01
         -2   -1    0    0    0  501 -0.00000000000E+00  0.00000000000E+00  0.11531464925E+04  0.11531464925E+04  0.25500000000E-02 0.  1.
          2   -1    0    0  501    0  0.00000000000E+00 -0.00000000000E+00 -0.16026262596E+04  0.16026262596E+04  0.25500000000E-02 0. -1.
    8880023    1    1    2    0    0  0.50991427290E+03  0.28372830256E+03 -0.13860228747E+04  0.16417624465E+04  0.65864270000E+03 0. -1.
    8880022    1    1    2    0    0 -0.50991427290E+03 -0.28372830256E+03  0.93654310761E+03  0.11140103055E+04  0.15294330000E+03 0.  0.
<mgrwt>
<rscale>  0 0.80069991E+03</rscale>
<asrwt>0</asrwt>
<pdfrwt beam="1">  1        2 0.24655789E+00 0.87995711E+03</pdfrwt>
<pdfrwt beam="2">  1       -2 0.17740715E+00 0.87995711E+03</pdfrwt>
<totfact> 0.21216569E+00</totfact>
</mgrwt>
</event>
<event>
 4    5  0.1905771E-007  0.8848461E+03  0.7818608E-02  0.9550810E-01
          2   -1    0    0  501    0  0.00000000000E+00  0.00000000000E+00  0.21837341309E+04  0.21837341309E+04  0.25500000000E-02 0. -1.
         -2   -1    0    0    0  501 -0.00000000000E+00 -0.00000000000E+00 -0.58432609285E+03  0.58432609285E+03  0.25500000000E-02 0.  1.
    8880023    1    1    2    0    0  0.33144278390E+03 -0.48917090376E+03  0.18938732954E+04  0.20903848348E+04  0.65864270000E+03 0.  0.
    8880022    1    1    2    0    0 -0.33144278390E+03  0.48917090376E+03 -0.29446525733E+03  0.67767538901E+03  0.15294330000E+03 0.  0.
<mgrwt>
<rscale>  0 0.80639269E+03</rscale>
<asrwt>0</asrwt>
<pdfrwt beam="1">  1        2 0.33595910E+00 0.88484614E+03</pdfrwt>
<pdfrwt beam="2">  1       -2 0.89896322E-01 0.88484614E+03</pdfrwt>
<totfact> 0.56961684E+00</totfact>
</mgrwt>
</event>
<event>
 4    5  0.1905771E-007  0.7833896E+03  0.7818608E-02  0.9747934E-01
          2   -1    0    0  501    0  0.00000000000E+00  0.00000000000E+00  0.16197190907E+04  0.16197190907E+04  0.25500000000E-02 0. -1.
         -2   -1    0    0    0  501 -0.00000000000E+00 -0.00000000000E+00 -0.29638540364E+03  0.29638540365E+03  0.25500000000E-02 0.  1.
    8880023    1    1    2    0    0 -0.36214430455E+03  0.22077251361E+03  0.12259004837E+04  0.14548303002E+04  0.65864270000E+03 0. -1.
    8880022    1    1    2    0    0  0.36214430455E+03 -0.22077251361E+03  0.97433203344E+02  0.46127419418E+03  0.15294330000E+03 0.  0.
<mgrwt>
<rscale>  0 0.68233138E+03</rscale>
<asrwt>0</asrwt>
<pdfrwt beam="1">  1        2 0.24918755E+00 0.78338956E+03</pdfrwt>
<pdfrwt beam="2">  1       -2 0.45597756E-01 0.78338956E+03</pdfrwt>
<totfact> 0.50570359E+01</totfact>
</mgrwt>
</event>
<event>
 4    5  0.1905771E-007  0.1227361E+04  0.7818608E-02  0.9130974E-01
         -2   -1    0    0    0  501 -0.00000000000E+00  0.00000000000E+00  0.73273952368E+03  0.73273952368E+03  0.25500000000E-02 0.  1.
          2   -1    0    0  501    0  0.00000000000E+00 -0.00000000000E+00 -0.28777438974E+04  0.28777438974E+04  0.25500000000E-02 0. -1.
    8880023    1    1    2    0    0 -0.21716341861E+03 -0.10126419647E+04 -0.22452259171E+04  0.25587991958E+04  0.65864270000E+03 0. -1.
    8880022    1    1    2    0    0  0.21716341861E+03  0.10126419647E+04  0.10022154339E+03  0.10516842253E+04  0.15294330000E+03 0.  0.
<mgrwt>
<rscale>  0 0.11795197E+04</rscale>
<asrwt>0</asrwt>
<pdfrwt beam="1">  1        2 0.44272982E+00 0.12273605E+04</pdfrwt>
<pdfrwt beam="2">  1       -2 0.11272916E+00 0.12273605E+04</pdfrwt>
<totfact> 0.12621112E+00</totfact>
</mgrwt>
</event>
<event>
 4    5  0.1905771E-007  0.9209629E+03  0.7818608E-02  0.9493184E-01
          2   -1    0    0  501    0  0.00000000000E+00  0.00000000000E+00  0.75876575091E+03  0.75876575091E+03  0.25500000000E-02 0. -1.
         -2   -1    0    0    0  501 -0.00000000000E+00 -0.00000000000E+00 -0.21055149960E+04  0.21055149960E+04  0.25500000000E-02 0.  1.
    8880023    1    1    2    0    0 -0.55939895038E+03 -0.31848905465E+03  0.39424947673E+03  0.10018010380E+04  0.65864270000E+03 0.  0.
    8880022    1    1    2    0    0  0.55939895038E+03  0.31848905465E+03 -0.17409987218E+04  0.18624797089E+04  0.15294330000E+03 0.  0.
<mgrwt>
<rscale>  0 0.84788194E+03</rscale>
<asrwt>0</asrwt>
<pdfrwt beam="1">  1        2 0.11673319E+00 0.92096290E+03</pdfrwt>
<pdfrwt beam="2">  1       -2 0.32392538E+00 0.92096290E+03</pdfrwt>
<totfact> 0.85309387E-01</totfact>
</mgrwt>
</event>
<event>
 4    5  0.1905771E-007  0.7018115E+03  0.7818608E-02  0.9989768E-01
          2   -1    0    0  501    0  0.00000000000E+00  0.00000000000E+00  0.24879869187E+04  0.24879869187E+04  0.25500000000E-02 0. -1.
         -2   -1    0    0    0  501 -0.00000000000E+00 -0.00000000000E+00 -0.38655531533E+03  0.38655531534E+03  0.25500000000E-02 0.  1.
    8880023    1    1    2    0    0  0.24193116217E+03 -0.14087171417E+02  0.23761133037E+04  0.24775903160E+04  0.65864270000E+03 0. -1.
    8880022    1    1    2    0    0 -0.24193116217E+03  0.14087171417E+02 -0.27468170041E+03  0.39695191797E+03  0.15294330000E+03 0.  0.
<mgrwt>
<rscale>  0 0.56101179E+03</rscale>
<asrwt>0</asrwt>
<pdfrwt beam="1">  1        2 0.38276722E+00 0.70181147E+03</pdfrwt>
<pdfrwt beam="2">  1       -2 0.59470048E-01 0.70181147E+03</pdfrwt>
<totfact> 0.98671986E+00</totfact>
</mgrwt>
</event>
<event>
 4    5  0.1905771E-007  0.7182709E+03  0.7818608E-02  0.9928481E-01
          2   -1    0    0  501    0  0.00000000000E+00  0.00000000000E+00  0.21121968326E+04  0.21121968326E+04  0.25500000000E-02 0. -1.
         -2   -1    0    0    0  501 -0.00000000000E+00 -0.00000000000E+00 -0.14878521119E+03  0.14878521121E+03  0.25500000000E-02 0.  1.
    8880023    1    1    2    0    0  0.27692805697E+03  0.73578294030E+02  0.16904374998E+04  0.18367068523E+04  0.65864270000E+03 0. -1.
    8880022    1    1    2    0    0 -0.27692805697E+03 -0.73578294030E+02  0.27297412159E+03  0.42427519155E+03  0.15294330000E+03 0.  1.
<mgrwt>
<rscale>  0 0.58900635E+03</rscale>
<asrwt>0</asrwt>
<pdfrwt beam="1">  1        2 0.32495336E+00 0.71827092E+03</pdfrwt>
<pdfrwt beam="2">  1       -2 0.22890032E-01 0.71827092E+03</pdfrwt>
<totfact> 0.10030277E+02</totfact>
</mgrwt>
</event>
<event>
 4    5  0.1905771E-007  0.1801190E+04  0.7818608E-02  0.8721878E-01
         -2   -1    0    0    0  501 -0.00000000000E+00  0.00000000000E+00  0.20941304673E+04  0.20941304673E+04  0.25500000000E-02 0.  1.
          2   -1    0    0  501    0  0.00000000000E+00 -0.00000000000E+00 -0.32322124808E+04  0.32322124808E+04  0.25500000000E-02 0. -1.
    8880023    1    1    2    0    0  0.11297168343E+04  0.12386342921E+04 -0.25549502638E+04  0.31260288054E+04  0.65864270000E+03 0.  0.
    8880022    1    1    2    0    0 -0.11297168343E+04 -0.12386342921E+04  0.14168682503E+04  0.22003141428E+04  0.15294330000E+03 0.  0.
<mgrwt>
<rscale>  0 0.17709939E+04</rscale>
<asrwt>0</asrwt>
<pdfrwt beam="1">  1        2 0.49726346E+00 0.18011900E+04</pdfrwt>
<pdfrwt beam="2">  1       -2 0.32217392E+00 0.18011900E+04</pdfrwt>
<totfact> 0.25941430E-02</totfact>
</mgrwt>
</event>
<event>
 4    5  0.1905771E-007  0.8911348E+03  0.7818608E-02  0.9540416E-01
          2   -1    0    0  501    0  0.00000000000E+00  0.00000000000E+00  0.22742822932E+04  0.22742822932E+04  0.25500000000E-02 0. -1.
         -2   -1    0    0    0  501 -0.00000000000E+00 -0.00000000000E+00 -0.39155932819E+03  0.39155932820E+03  0.25500000000E-02 0.  1.
    8880023    1    1    2    0    0  0.25410261979E+03 -0.54382247649E+03  0.18405963804E+04  0.20449734152E+04  0.65864270000E+03 0. -1.
    8880022    1    1    2    0    0 -0.25410261979E+03  0.54382247649E+03  0.42126584668E+02  0.62086820620E+03  0.15294330000E+03 0.  0.
<mgrwt>
<rscale>  0 0.81368612E+03</rscale>
<asrwt>0</asrwt>
<pdfrwt beam="1">  1        2 0.34988958E+00 0.89113480E+03</pdfrwt>
<pdfrwt beam="2">  1       -2 0.60239897E-01 0.89113480E+03</pdfrwt>
<totfact> 0.12295574E+01</totfact>
</mgrwt>
</event>
<event>
 4    5  0.2665865E-007  0.6833158E+03  0.7818608E-02  0.1007507E+00
          2   -1    0    0  501    0  0.00000000000E+00  0.00000000000E+00  0.19841053963E+04  0.19841053963E+04  0.25500000000E-02 0. -1.
         -2   -1    0    0    0  501 -0.00000000000E+00 -0.00000000000E+00 -0.71499852269E+03  0.71499852270E+03  0.25500000000E-02 0.  1.
    8880023    1    1    2    0    0 -0.15759873882E+03 -0.90955793686E+02  0.19030782646E+04  0.20220354612E+04  0.65864270000E+03 0. -1.
    8880022    1    1    2    0    0  0.15759873882E+03  0.90955793686E+02 -0.63397139101E+03  0.67706845778E+03  0.15294330000E+03 0.  0.
<mgrwt>
<rscale>  0 0.52477612E+03</rscale>
<asrwt>0</asrwt>
<pdfrwt beam="1">  1        2 0.30524698E+00 0.68331583E+03</pdfrwt>
<pdfrwt beam="2">  1       -2 0.10999977E+00 0.68331583E+03</pdfrwt>
<totfact> 0.46948081E+00</totfact>
</mgrwt>
</event>
<event>
 4    5  0.1905771E-007  0.9835778E+03  0.7818608E-02  0.9403365E-01
         -2   -1    0    0    0  501 -0.00000000000E+00  0.00000000000E+00  0.25109273997E+04  0.25109273997E+04  0.25500000000E-02 0.  1.
          2   -1    0    0  501    0  0.00000000000E+00 -0.00000000000E+00 -0.49792419662E+03  0.49792419663E+03  0.25500000000E-02 0. -1.
    8880023    1    1    2    0    0 -0.50229901856E+03  0.53038736749E+03  0.14109337702E+03  0.99364611957E+03  0.65864270000E+03 0.  0.
    8880022    1    1    2    0    0  0.50229901856E+03 -0.53038736749E+03  0.18719098261E+04  0.20152054768E+04  0.15294330000E+03 0.  0.
<mgrwt>
<rscale>  0 0.91799241E+03</rscale>
<asrwt>0</asrwt>
<pdfrwt beam="1">  1        2 0.76603721E-01 0.98357779E+03</pdfrwt>
<pdfrwt beam="2">  1       -2 0.38629653E+00 0.98357779E+03</pdfrwt>
<totfact> 0.57618611E-01</totfact>
</mgrwt>
</event>
<event>
 4    5  0.1905771E-007  0.8714139E+03  0.7818608E-02  0.9573574E-01
          2   -1    0    0  501    0  0.00000000000E+00  0.00000000000E+00  0.27011718349E+04  0.27011718349E+04  0.25500000000E-02 0. -1.
         -2   -1    0    0    0  501 -0.00000000000E+00 -0.00000000000E+00 -0.50528784401E+03  0.50528784401E+03  0.25500000000E-02 0.  1.
    8880023    1    1    2    0    0  0.55124142004E+03  0.14725794946E+03  0.24219637466E+04  0.25739601013E+04  0.65864270000E+03 0.  0.
    8880022    1    1    2    0    0 -0.55124142004E+03 -0.14725794946E+03 -0.22607975566E+03  0.63249957769E+03  0.15294330000E+03 0.  0.
<mgrwt>
<rscale>  0 0.79070190E+03</rscale>
<asrwt>0</asrwt>
<pdfrwt beam="1">  1        2 0.41556490E+00 0.87141392E+03</pdfrwt>
<pdfrwt beam="2">  1       -2 0.77736591E-01 0.87141392E+03</pdfrwt>
<totfact> 0.40422400E+00</totfact>
</mgrwt>
</event>
<event>
 4    5  0.1905771E-007  0.8502665E+03  0.7818608E-02  0.9611118E-01
          2   -1    0    0  501    0  0.00000000000E+00  0.00000000000E+00  0.13958219310E+04  0.13958219310E+04  0.25500000000E-02 0. -1.
         -2   -1    0    0    0  501 -0.00000000000E+00 -0.00000000000E+00 -0.77157793159E+03  0.77157793160E+03  0.25500000000E-02 0.  1.
    8880023    1    1    2    0    0  0.76297576728E+02  0.53227960499E+03  0.11295684759E+04  0.14138168361E+04  0.65864270000E+03 0. -1.
    8880022    1    1    2    0    0 -0.76297576728E+02 -0.53227960499E+03 -0.50532447654E+03  0.75358302642E+03  0.15294330000E+03 0.  0.
<mgrwt>
<rscale>  0 0.76564694E+03</rscale>
<asrwt>0</asrwt>
<pdfrwt beam="1">  1        2 0.21474183E+00 0.85026649E+03</pdfrwt>
<pdfrwt beam="2">  1       -2 0.11870430E+00 0.85026649E+03</pdfrwt>
<totfact> 0.80170463E+00</totfact>
</mgrwt>
</event>
<event>
 4    5  0.1905771E-007  0.8721490E+03  0.7818608E-02  0.9572308E-01
         -2   -1    0    0    0  501 -0.00000000000E+00  0.00000000000E+00  0.54659942934E+03  0.54659942935E+03  0.25500000000E-02 0.  1.
          2   -1    0    0  501    0  0.00000000000E+00 -0.00000000000E+00 -0.16234394782E+04  0.16234394782E+04  0.25500000000E-02 0. -1.
    8880023    1    1    2    0    0  0.44547266539E+03  0.35831243942E+03 -0.12760405276E+04  0.15456142255E+04  0.65864270000E+03 0. -1.
    8880022    1    1    2    0    0 -0.44547266539E+03 -0.35831243942E+03  0.19920047868E+03  0.62442468207E+03  0.15294330000E+03 0.  0.
<mgrwt>
<rscale>  0 0.79156479E+03</rscale>
<asrwt>0</asrwt>
<pdfrwt beam="1">  1        2 0.24975992E+00 0.87214902E+03</pdfrwt>
<pdfrwt beam="2">  1       -2 0.84092220E-01 0.87214902E+03</pdfrwt>
<totfact> 0.13511521E+01</totfact>
</mgrwt>
</event>
<event>
 4    5  0.1905771E-007  0.7788379E+03  0.7818608E-02  0.9758574E-01
         -2   -1    0    0    0  501 -0.00000000000E+00  0.00000000000E+00  0.14018875433E+03  0.14018875435E+03  0.25500000000E-02 0.  1.
          2   -1    0    0  501    0  0.00000000000E+00 -0.00000000000E+00 -0.33326300925E+04  0.33326300925E+04  0.25500000000E-02 0. -1.
    8880023    1    1    2    0    0 -0.41562036324E+03  0.61670513764E+01 -0.27018874384E+04  0.28119004703E+04  0.65864270000E+03 0.  0.
    8880022    1    1    2    0    0  0.41562036324E+03 -0.61670513764E+01 -0.49055389981E+03  0.66091837658E+03  0.15294330000E+03 0.  0.
<mgrwt>
<rscale>  0 0.67633893E+03</rscale>
<asrwt>0</asrwt>
<pdfrwt beam="1">  1        2 0.51271226E+00 0.77883793E+03</pdfrwt>
<pdfrwt beam="2">  1       -2 0.21567503E-01 0.77883793E+03</pdfrwt>
<totfact> 0.21070152E+01</totfact>
</mgrwt>
</event>
<event>
 4    5  0.1905771E-007  0.7775261E+03  0.7818608E-02  0.9761681E-01
          2   -1    0    0  501    0  0.00000000000E+00  0.00000000000E+00  0.48708827913E+03  0.48708827914E+03  0.25500000000E-02 0. -1.
         -2   -1    0    0    0  501 -0.00000000000E+00 -0.00000000000E+00 -0.12143857004E+04  0.12143857004E+04  0.25500000000E-02 0.  1.
    8880023    1    1    2    0    0 -0.15782800092E+03  0.38187299183E+03  0.80140777852E+02  0.78164532257E+03  0.65864270000E+03 0. -1.
    8880022    1    1    2    0    0  0.15782800092E+03 -0.38187299183E+03 -0.80743819907E+03  0.91982865692E+03  0.15294330000E+03 0.  0.
<mgrwt>
<rscale>  0 0.67460157E+03</rscale>
<asrwt>0</asrwt>
<pdfrwt beam="1">  1        2 0.74936659E-01 0.77752612E+03</pdfrwt>
<pdfrwt beam="2">  1       -2 0.18682857E+00 0.77752612E+03</pdfrwt>
<totfact> 0.10486568E+01</totfact>
</mgrwt>
</event>
<event>
 4    5  0.1905771E-007  0.1409994E+04  0.7818608E-02  0.8975956E-01
          2   -1    0    0  501    0  0.00000000000E+00  0.00000000000E+00  0.19159259075E+04  0.19159259075E+04  0.25500000000E-02 0. -1.
         -2   -1    0    0    0  501 -0.00000000000E+00 -0.00000000000E+00 -0.10322360264E+04  0.10322360264E+04  0.25500000000E-02 0.  1.
    8880023    1    1    2    0    0  0.10422013459E+04  0.68417076915E+03  0.93369608498E+03  0.16911155703E+04  0.65864270000E+03 0.  0.
    8880022    1    1    2    0    0 -0.10422013459E+04 -0.68417076915E+03 -0.50006203890E+02  0.12570463636E+04  0.15294330000E+03 0.  0.
<mgrwt>
<rscale>  0 0.13698242E+04</rscale>
<asrwt>0</asrwt>
<pdfrwt beam="1">  1        2 0.29475783E+00 0.14099941E+04</pdfrwt>
<pdfrwt beam="2">  1       -2 0.15880555E+00 0.14099941E+04</pdfrwt>
<totfact> 0.18200605E+00</totfact>
</mgrwt>
</event>
<event>
 4    5  0.1905771E-007  0.1233495E+04  0.7818608E-02  0.9125231E-01
          2   -1    0    0  501    0  0.00000000000E+00  0.00000000000E+00  0.31179365068E+04  0.31179365068E+04  0.25500000000E-02 0. -1.
         -2   -1    0    0    0  501 -0.00000000000E+00 -0.00000000000E+00 -0.76978570463E+03  0.76978570464E+03  0.25500000000E-02 0.  1.
    8880023    1    1    2    0    0  0.92802733930E+03 -0.47588309736E+03  0.25331673807E+04  0.28175249156E+04  0.65864270000E+03 0. -1.
    8880022    1    1    2    0    0 -0.92802733930E+03  0.47588309736E+03 -0.18501657852E+03  0.10701972959E+04  0.15294330000E+03 0.  0.
<mgrwt>
<rscale>  0 0.11859646E+04</rscale>
<asrwt>0</asrwt>
<pdfrwt beam="1">  1        2 0.47968254E+00 0.12334949E+04</pdfrwt>
<pdfrwt beam="2">  1       -2 0.11842857E+00 0.12334949E+04</pdfrwt>
<totfact> 0.79251146E-01</totfact>
</mgrwt>
</event>
<event>
 4    5  0.1905771E-007  0.1890265E+04  0.7818608E-02  0.8674183E-01
          2   -1    0    0  501    0  0.00000000000E+00  0.00000000000E+00  0.21221922805E+04  0.21221922805E+04  0.25500000000E-02 0. -1.
         -2   -1    0    0    0  501 -0.00000000000E+00 -0.00000000000E+00 -0.16975252791E+04  0.16975252791E+04  0.25500000000E-02 0.  1.
    8880023    1    1    2    0    0  0.81036925139E+03  0.15756248952E+04  0.70876539614E+03  0.20187745607E+04  0.65864270000E+03 0.  0.
    8880022    1    1    2    0    0 -0.81036925139E+03 -0.15756248952E+04 -0.28409839474E+03  0.18009429988E+04  0.15294330000E+03 0.  0.
<mgrwt>
<rscale>  0 0.18616542E+04</rscale>
<asrwt>0</asrwt>
<pdfrwt beam="1">  1        2 0.32649112E+00 0.18902652E+04</pdfrwt>
<pdfrwt beam="2">  1       -2 0.26115774E+00 0.18902652E+04</pdfrwt>
<totfact> 0.28235123E-01</totfact>
</mgrwt>
</event>
<event>
 4    5  0.1905771E-007  0.1305509E+04  0.7818608E-02  0.9060817E-01
         -2   -1    0    0    0  501 -0.00000000000E+00  0.00000000000E+00  0.14809978153E+04  0.14809978153E+04  0.25500000000E-02 0.  1.
          2   -1    0    0  501    0  0.00000000000E+00 -0.00000000000E+00 -0.23796781522E+04  0.23796781522E+04  0.25500000000E-02 0. -1.
    8880023    1    1    2    0    0 -0.11225919263E+04  0.10164470856E+03 -0.19267758142E+04  0.23274061794E+04  0.65864270000E+03 0. -1.
    8880022    1    1    2    0    0  0.11225919263E+04 -0.10164470856E+03  0.10280954772E+04  0.15332697880E+04  0.15294330000E+03 0.  0.
<mgrwt>
<rscale>  0 0.12613165E+04</rscale>
<asrwt>0</asrwt>
<pdfrwt beam="1">  1        2 0.36610433E+00 0.13055093E+04</pdfrwt>
<pdfrwt beam="2">  1       -2 0.22784582E+00 0.13055093E+04</pdfrwt>
<totfact> 0.34602542E-01</totfact>
</mgrwt>
</event>
<event>
 4    5  0.1905771E-007  0.8370092E+03  0.7818608E-02  0.9635846E-01
         -2   -1    0    0    0  501 -0.00000000000E+00  0.00000000000E+00  0.42874114038E+03  0.42874114038E+03  0.25500000000E-02 0.  1.
          2   -1    0    0  501    0  0.00000000000E+00 -0.00000000000E+00 -0.15396133497E+04  0.15396133497E+04  0.25500000000E-02 0. -1.
    8880023    1    1    2    0    0  0.50382802623E+03  0.11371697436E+03 -0.11566596082E+04  0.14277415332E+04  0.65864270000E+03 0.  0.
    8880022    1    1    2    0    0 -0.50382802623E+03 -0.11371697436E+03  0.45787398793E+02  0.54061295691E+03  0.15294330000E+03 0.  0.
<mgrwt>
<rscale>  0 0.74968440E+03</rscale>
<asrwt>0</asrwt>
<pdfrwt beam="1">  1        2 0.23686359E+00 0.83700922E+03</pdfrwt>
<pdfrwt beam="2">  1       -2 0.65960177E-01 0.83700922E+03</pdfrwt>
<totfact> 0.25868593E+01</totfact>
</mgrwt>
</event>
<event>
 4    5  0.1905771E-007  0.9710807E+03  0.7818608E-02  0.9420411E-01
         -2   -1    0    0    0  501 -0.00000000000E+00  0.00000000000E+00  0.69089875409E+03  0.69089875409E+03  0.25500000000E-02 0.  1.
          2   -1    0    0  501    0  0.00000000000E+00 -0.00000000000E+00 -0.15600220902E+04  0.15600220902E+04  0.25500000000E-02 0. -1.
    8880023    1    1    2    0    0  0.41874909707E+03  0.57778598230E+03 -0.11170890187E+04  0.14801640212E+04  0.65864270000E+03 0.  0.
    8880022    1    1    2    0    0 -0.41874909707E+03 -0.57778598230E+03  0.24796568258E+03  0.77075682312E+03  0.15294330000E+03 0.  0.
<mgrwt>
<rscale>  0 0.90414793E+03</rscale>
<asrwt>0</asrwt>
<pdfrwt beam="1">  1        2 0.24000340E+00 0.97108066E+03</pdfrwt>
<pdfrwt beam="2">  1       -2 0.10629212E+00 0.97108066E+03</pdfrwt>
<totfact> 0.83690673E+00</totfact>
</mgrwt>
</event>
<event>
 4    5  0.1905771E-007  0.7139336E+03  0.7818608E-02  0.9943674E-01
         -2   -1    0    0    0  501 -0.00000000000E+00  0.00000000000E+00  0.46721039150E+03  0.46721039151E+03  0.25500000000E-02 0.  1.
          2   -1    0    0  501    0  0.00000000000E+00 -0.00000000000E+00 -0.91984209824E+03  0.91984209824E+03  0.25500000000E-02 0. -1.
    8880023    1    1    2    0    0 -0.15444413754E+03 -0.22811831868E+03 -0.68975491291E+03  0.99270489325E+03  0.65864270000E+03 0. -1.
    8880022    1    1    2    0    0  0.15444413754E+03  0.22811831868E+03  0.23712320618E+03  0.39434759649E+03  0.15294330000E+03 0.  0.
<mgrwt>
<rscale>  0 0.58190556E+03</rscale>
<asrwt>0</asrwt>
<pdfrwt beam="1">  1        2 0.14151417E+00 0.71393359E+03</pdfrwt>
<pdfrwt beam="2">  1       -2 0.71878522E-01 0.71393359E+03</pdfrwt>
<totfact> 0.50760018E+01</totfact>
</mgrwt>
</event>
<event>
 4    5  0.1905771E-007  0.6770685E+03  0.7818608E-02  0.1011033E+00
         -2   -1    0    0    0  501 -0.00000000000E+00  0.00000000000E+00  0.23628638751E+03  0.23628638752E+03  0.25500000000E-02 0.  1.
          2   -1    0    0  501    0  0.00000000000E+00 -0.00000000000E+00 -0.10670422520E+04  0.10670422520E+04  0.25500000000E-02 0. -1.
    8880023    1    1    2    0    0 -0.14803794140E+03 -0.51926093576E+02 -0.84614843552E+03  0.10836922683E+04  0.65864270000E+03 0. -1.
    8880022    1    1    2    0    0  0.14803794140E+03  0.51926093576E+02  0.15392571025E+02  0.21963637118E+03  0.15294330000E+03 0.  0.
<mgrwt>
<rscale>  0 0.51066164E+03</rscale>
<asrwt>0</asrwt>
<pdfrwt beam="1">  1        2 0.16416034E+00 0.67706850E+03</pdfrwt>
<pdfrwt beam="2">  1       -2 0.36351752E-01 0.67706850E+03</pdfrwt>
<totfact> 0.16537198E+02</totfact>
</mgrwt>
</event>
<event>
 4    5  0.1905771E-007  0.6849043E+03  0.7818608E-02  0.1006675E+00
         -2   -1    0    0    0  501 -0.00000000000E+00  0.00000000000E+00  0.10581039594E+03  0.10581039597E+03  0.25500000000E-02 0.  1.
          2   -1    0    0  501    0  0.00000000000E+00 -0.00000000000E+00 -0.32779486229E+04  0.32779486229E+04  0.25500000000E-02 0. -1.
    8880023    1    1    2    0    0  0.13858421162E+03  0.12679934923E+03 -0.30222943617E+04  0.30989283751E+04  0.65864270000E+03 0. -1.
    8880022    1    1    2    0    0 -0.13858421162E+03 -0.12679934923E+03 -0.14984386520E+03  0.28483064377E+03  0.15294330000E+03 0.  0.
<mgrwt>
<rscale>  0 0.52817681E+03</rscale>
<asrwt>0</asrwt>
<pdfrwt beam="1">  1        2 0.50429971E+00 0.68490427E+03</pdfrwt>
<pdfrwt beam="2">  1       -2 0.16278525E-01 0.68490427E+03</pdfrwt>
<totfact> 0.37858466E+01</totfact>
</mgrwt>
</event>
<event>
 4    5  0.1905771E-007  0.7078153E+03  0.7818608E-02  0.9966205E-01
          2   -1    0    0  501    0  0.00000000000E+00  0.00000000000E+00  0.34712039965E+03  0.34712039966E+03  0.25500000000E-02 0. -1.
         -2   -1    0    0    0  501 -0.00000000000E+00 -0.00000000000E+00 -0.14001945957E+04  0.14001945957E+04  0.25500000000E-02 0.  1.
    8880023    1    1    2    0    0  0.22674899799E+03 -0.12560711420E+03 -0.60824594524E+02  0.71042388247E+03  0.65864270000E+03 0. -1.
    8880022    1    1    2    0    0 -0.22674899799E+03  0.12560711420E+03 -0.99224960152E+03  0.10368911129E+04  0.15294330000E+03 0.  0.
<mgrwt>
<rscale>  0 0.57157250E+03</rscale>
<asrwt>0</asrwt>
<pdfrwt beam="1">  1        2 0.53403139E-01 0.70781527E+03</pdfrwt>
<pdfrwt beam="2">  1       -2 0.21541455E+00 0.70781527E+03</pdfrwt>
<totfact> 0.10107689E+01</totfact>
</mgrwt>
</event>
<event>
 4    5  0.1905771E-007  0.7802075E+03  0.7818608E-02  0.9755350E-01
         -2   -1    0    0    0  501 -0.00000000000E+00  0.00000000000E+00  0.14625391368E+04  0.14625391368E+04  0.25500000000E-02 0.  1.
          2   -1    0    0  501    0  0.00000000000E+00 -0.00000000000E+00 -0.35940283273E+03  0.35940283274E+03  0.25500000000E-02 0. -1.
    8880023    1    1    2    0    0 -0.27701072568E+02  0.41730821454E+03  0.18549327092E+03  0.80195477127E+03  0.65864270000E+03 0. -1.
    8880022    1    1    2    0    0  0.27701072568E+02 -0.41730821454E+03  0.91764303318E+03  0.10199871983E+04  0.15294330000E+03 0.  0.
<mgrwt>
<rscale>  0 0.67814775E+03</rscale>
<asrwt>0</asrwt>
<pdfrwt beam="1">  1        2 0.55292743E-01 0.78020747E+03</pdfrwt>
<pdfrwt beam="2">  1       -2 0.22500602E+00 0.78020747E+03</pdfrwt>
<totfact> 0.84027456E+00</totfact>
</mgrwt>
</event>
<event>
 4    5  0.1905771E-007  0.1099345E+04  0.7818608E-02  0.9261785E-01
         -2   -1    0    0    0  501 -0.00000000000E+00  0.00000000000E+00  0.99134434178E+03  0.99134434178E+03  0.25500000000E-02 0.  1.
          2   -1    0    0  501    0  0.00000000000E+00 -0.00000000000E+00 -0.24008437563E+04  0.24008437563E+04  0.25500000000E-02 0. -1.
    8880023    1    1    2    0    0  0.40681568811E+03 -0.78054524285E+03 -0.20271651911E+04  0.23060699900E+04  0.65864270000E+03 0. -1.
    8880022    1    1    2    0    0 -0.40681568811E+03  0.78054524285E+03  0.61766577659E+03  0.10861181081E+04  0.15294330000E+03 0.  0.
<mgrwt>
<rscale>  0 0.10437839E+04</rscale>
<asrwt>0</asrwt>
<pdfrwt beam="1">  1        2 0.36936058E+00 0.10993453E+04</pdfrwt>
<pdfrwt beam="2">  1       -2 0.15251451E+00 0.10993453E+04</pdfrwt>
<totfact> 0.11263970E+00</totfact>
</mgrwt>
</event>
<event>
 4    5  0.1905771E-007  0.1265623E+04  0.7818608E-02  0.9095830E-01
         -2   -1    0    0    0  501 -0.00000000000E+00  0.00000000000E+00  0.90658477733E+03  0.90658477733E+03  0.25500000000E-02 0.  1.
          2   -1    0    0  501    0  0.00000000000E+00 -0.00000000000E+00 -0.22700637430E+04  0.22700637430E+04  0.25500000000E-02 0. -1.
    8880023    1    1    2    0    0  0.93711849064E+03  0.53833195506E+03  0.18818096566E+03  0.12795368855E+04  0.65864270000E+03 0.  1.
    8880022    1    1    2    0    0 -0.93711849064E+03 -0.53833195506E+03 -0.15516599314E+04  0.18971116348E+04  0.15294330000E+03 0.  0.
<mgrwt>
<rscale>  0 0.12196489E+04</rscale>
<asrwt>0</asrwt>
<pdfrwt beam="1">  1        2 0.34924057E+00 0.12656234E+04</pdfrwt>
<pdfrwt beam="2">  1       -2 0.13947458E+00 0.12656234E+04</pdfrwt>
<totfact> 0.16565604E+00</totfact>
</mgrwt>
</event>
<event>
 4    5  0.2097435E-007  0.1499110E+04  0.7818608E-02  0.8910265E-01
          2   -1    0    0  501    0  0.00000000000E+00  0.00000000000E+00  0.17184692287E+04  0.17184692287E+04  0.25500000000E-02 0. -1.
         -2   -1    0    0    0  501 -0.00000000000E+00 -0.00000000000E+00 -0.28211500982E+04  0.28211500982E+04  0.25500000000E-02 0.  1.
    8880023    1    1    2    0    0  0.13091519846E+04 -0.31565986420E+03  0.11644690004E+04  0.18982408508E+04  0.65864270000E+03 0.  0.
    8880022    1    1    2    0    0 -0.13091519846E+04  0.31565986420E+03 -0.22671498698E+04  0.26413784761E+04  0.15294330000E+03 0.  0.
<mgrwt>
<rscale>  0 0.14617938E+04</rscale>
<asrwt>0</asrwt>
<pdfrwt beam="1">  1        2 0.26437988E+00 0.14991098E+04</pdfrwt>
<pdfrwt beam="2">  1       -2 0.43402309E+00 0.14991098E+04</pdfrwt>
<totfact> 0.39871585E-02</totfact>
</mgrwt>
</event>
<event>
 4    5  0.1905771E-007  0.1112946E+04  0.7818608E-02  0.9246777E-01
         -2   -1    0    0    0  501 -0.00000000000E+00  0.00000000000E+00  0.75125026196E+03  0.75125026196E+03  0.25500000000E-02 0.  1.
          2   -1    0    0  501    0  0.00000000000E+00 -0.00000000000E+00 -0.21196802181E+04  0.21196802181E+04  0.25500000000E-02 0. -1.
    8880023    1    1    2    0    0  0.50353260506E+03 -0.74249168160E+03 -0.15837872031E+04  0.19357249527E+04  0.65864270000E+03 0.  0.
    8880022    1    1    2    0    0 -0.50353260506E+03  0.74249168160E+03  0.21535724693E+03  0.93520552737E+03  0.15294330000E+03 0.  0.
<mgrwt>
<rscale>  0 0.10583383E+04</rscale>
<asrwt>0</asrwt>
<pdfrwt beam="1">  1        2 0.32610465E+00 0.11129462E+04</pdfrwt>
<pdfrwt beam="2">  1       -2 0.11557696E+00 0.11129462E+04</pdfrwt>
<totfact> 0.32941965E+00</totfact>
</mgrwt>
</event>
<event>
 4    5  0.1905771E-007  0.6768379E+03  0.7818608E-02  0.1011172E+00
          2   -1    0    0  501    0  0.00000000000E+00  0.00000000000E+00  0.26743789973E+04  0.26743789973E+04  0.25500000000E-02 0. -1.
         -2   -1    0    0    0  501 -0.00000000000E+00 -0.00000000000E+00 -0.74147463555E+03  0.74147463555E+03  0.25500000000E-02 0.  1.
    8880023    1    1    2    0    0  0.91579056849E+02 -0.12614544339E+03  0.26142078124E+04  0.27004059119E+04  0.65864270000E+03 0. -1.
    8880022    1    1    2    0    0 -0.91579056849E+02  0.12614544339E+03 -0.68130345063E+03  0.71544772094E+03  0.15294330000E+03 0.  0.
<mgrwt>
<rscale>  0 0.51011505E+03</rscale>
<asrwt>0</asrwt>
<pdfrwt beam="1">  1        2 0.41144292E+00 0.67683794E+03</pdfrwt>
<pdfrwt beam="2">  1       -2 0.11407302E+00 0.67683794E+03</pdfrwt>
<totfact> 0.17754304E+00</totfact>
</mgrwt>
</event>
<event>
 4    5  0.1905771E-007  0.1386677E+04  0.7818608E-02  0.8994105E-01
         -2   -1    0    0    0  501 -0.00000000000E+00  0.00000000000E+00  0.12777010522E+04  0.12777010522E+04  0.25500000000E-02 0.  1.
          2   -1    0    0  501    0  0.00000000000E+00 -0.00000000000E+00 -0.18882668950E+04  0.18882668951E+04  0.25500000000E-02 0. -1.
    8880023    1    1    2    0    0  0.10241114076E+04 -0.66351998401E+03 -0.11705306279E+04  0.18146666640E+04  0.65864270000E+03 0.  1.
    8880022    1    1    2    0    0 -0.10241114076E+04  0.66351998401E+03  0.55996478506E+03  0.13513012832E+04  0.15294330000E+03 0.  0.
<mgrwt>
<rscale>  0 0.13456799E+04</rscale>
<asrwt>0</asrwt>
<pdfrwt beam="1">  1        2 0.29050260E+00 0.13866770E+04</pdfrwt>
<pdfrwt beam="2">  1       -2 0.19656939E+00 0.13866770E+04</pdfrwt>
<totfact> 0.10268300E+00</totfact>
</mgrwt>
</event>
<event>
 4    5  0.1905771E-007  0.7639318E+03  0.7818608E-02  0.9795033E-01
          2   -1    0    0  501    0  0.00000000000E+00  0.00000000000E+00  0.15785816745E+04  0.15785816745E+04  0.25500000000E-02 0. -1.
         -2   -1    0    0    0  501 -0.00000000000E+00 -0.00000000000E+00 -0.50938004714E+03  0.50938004714E+03  0.25500000000E-02 0.  1.
    8880023    1    1    2    0    0  0.38294456854E+03 -0.55991184375E+02  0.13740318368E+04  0.15721180777E+04  0.65864270000E+03 0. -1.
    8880022    1    1    2    0    0 -0.38294456854E+03  0.55991184375E+02 -0.30483020953E+03  0.51584364390E+03  0.15294330000E+03 0.  0.
<mgrwt>
<rscale>  0 0.65629791E+03</rscale>
<asrwt>0</asrwt>
<pdfrwt beam="1">  1        2 0.24285872E+00 0.76393178E+03</pdfrwt>
<pdfrwt beam="2">  1       -2 0.78366161E-01 0.76393178E+03</pdfrwt>
<totfact> 0.16994389E+01</totfact>
</mgrwt>
</event>
<event>
 4    5  0.1905771E-007  0.1539505E+04  0.7818608E-02  0.8882232E-01
         -2   -1    0    0    0  501 -0.00000000000E+00  0.00000000000E+00  0.17398092247E+04  0.17398092247E+04  0.25500000000E-02 0.  1.
          2   -1    0    0  501    0  0.00000000000E+00 -0.00000000000E+00 -0.17218720538E+04  0.17218720538E+04  0.25500000000E-02 0. -1.
    8880023    1    1    2    0    0 -0.78909460404E+03 -0.11461223834E+04 -0.90417800500E+03  0.17853892805E+04  0.65864270000E+03 0. -1.
    8880022    1    1    2    0    0  0.78909460404E+03  0.11461223834E+04  0.92211517590E+03  0.16762919980E+04  0.15294330000E+03 0.  0.
<mgrwt>
<rscale>  0 0.15033444E+04</rscale>
<asrwt>0</asrwt>
<pdfrwt beam="1">  1        2 0.26490339E+00 0.15395054E+04</pdfrwt>
<pdfrwt beam="2">  1       -2 0.26766296E+00 0.15395054E+04</pdfrwt>
<totfact> 0.44648077E-01</totfact>
</mgrwt>
</event>
<event>
 4    5  0.1905771E-007  0.1506523E+04  0.7818608E-02  0.8905044E-01
          2   -1    0    0  501    0  0.00000000000E+00  0.00000000000E+00  0.20682724723E+04  0.20682724723E+04  0.25500000000E-02 0. -1.
         -2   -1    0    0    0  501 -0.00000000000E+00 -0.00000000000E+00 -0.14706371292E+04  0.14706371292E+04  0.25500000000E-02 0.  1.
    8880023    1    1    2    0    0 -0.74936449288E+03  0.11288284504E+04  0.13136505614E+04  0.19988218574E+04  0.65864270000E+03 0.  0.
    8880022    1    1    2    0    0  0.74936449288E+03 -0.11288284504E+04 -0.71601521838E+03  0.15400877441E+04  0.15294330000E+03 0.  0.
<mgrwt>
<rscale>  0 0.14694247E+04</rscale>
<asrwt>0</asrwt>
<pdfrwt beam="1">  1        2 0.31819576E+00 0.15065228E+04</pdfrwt>
<pdfrwt beam="2">  1       -2 0.22625187E+00 0.15065228E+04</pdfrwt>
<totfact> 0.51775929E-01</totfact>
</mgrwt>
</event>
<event>
 4    5  0.1905771E-007  0.8366007E+03  0.7818608E-02  0.9636624E-01
         -2   -1    0    0    0  501 -0.00000000000E+00  0.00000000000E+00  0.61926994013E+03  0.61926994014E+03  0.25500000000E-02 0.  1.
          2   -1    0    0  501    0  0.00000000000E+00 -0.00000000000E+00 -0.76528392913E+03  0.76528392914E+03  0.25500000000E-02 0. -1.
    8880023    1    1    2    0    0 -0.49637673028E+03  0.14035894257E+03 -0.12697534535E+03  0.84618168009E+03  0.65864270000E+03 0. -1.
    8880022    1    1    2    0    0  0.49637673028E+03 -0.14035894257E+03 -0.19038643656E+02  0.53837218919E+03  0.15294330000E+03 0.  1.
<mgrwt>
<rscale>  0 0.74918898E+03</rscale>
<asrwt>0</asrwt>
<pdfrwt beam="1">  1        2 0.11773599E+00 0.83660068E+03</pdfrwt>
<pdfrwt beam="2">  1       -2 0.95272298E-01 0.83660068E+03</pdfrwt>
<totfact> 0.34042206E+01</totfact>
</mgrwt>
</event>
<event>
 4    5  0.1905771E-007  0.1118681E+04  0.7818608E-02  0.9240536E-01
          2   -1    0    0  501    0  0.00000000000E+00  0.00000000000E+00  0.31046475767E+04  0.31046475767E+04  0.25500000000E-02 0. -1.
         -2   -1    0    0    0  501 -0.00000000000E+00 -0.00000000000E+00 -0.70653812375E+03  0.70653812376E+03  0.25500000000E-02 0.  1.
    8880023    1    1    2    0    0 -0.25953684254E+03  0.86618625936E+03  0.26361726531E+04  0.28637134060E+04  0.65864270000E+03 0. -1.
    8880022    1    1    2    0    0  0.25953684254E+03 -0.86618625936E+03 -0.23806320012E+03  0.94747229448E+03  0.15294330000E+03 0.  0.
<mgrwt>
<rscale>  0 0.10644647E+04</rscale>
<asrwt>0</asrwt>
<pdfrwt beam="1">  1        2 0.47763810E+00 0.11186815E+04</pdfrwt>
<pdfrwt beam="2">  1       -2 0.10869817E+00 0.11186815E+04</pdfrwt>
<totfact> 0.10134633E+00</totfact>
</mgrwt>
</event>
<event>
 4    5  0.1905771E-007  0.1093930E+04  0.7818608E-02  0.9267844E-01
          2   -1    0    0  501    0  0.00000000000E+00  0.00000000000E+00  0.72175142839E+03  0.72175142839E+03  0.25500000000E-02 0. -1.
         -2   -1    0    0    0  501 -0.00000000000E+00 -0.00000000000E+00 -0.16566321032E+04  0.16566321032E+04  0.25500000000E-02 0.  1.
    8880023    1    1    2    0    0 -0.85629449466E+03 -0.17214168169E+03 -0.56236486295E+01  0.10939446292E+04  0.65864270000E+03 0.  0.
    8880022    1    1    2    0    0  0.85629449466E+03  0.17214168169E+03 -0.92925702617E+03  0.12844389023E+04  0.15294330000E+03 0.  0.
<mgrwt>
<rscale>  0 0.10379784E+04</rscale>
<asrwt>0</asrwt>
<pdfrwt beam="1">  1        2 0.11103868E+00 0.10939302E+04</pdfrwt>
<pdfrwt beam="2">  1       -2 0.25486648E+00 0.10939302E+04</pdfrwt>
<totfact> 0.23364311E+00</totfact>
</mgrwt>
</event>
<event>
 4    5  0.1905771E-007  0.7753846E+03  0.7818608E-02  0.9766792E-01
         -2   -1    0    0    0  501 -0.00000000000E+00  0.00000000000E+00  0.15160472036E+04  0.15160472036E+04  0.25500000000E-02 0.  1.
          2   -1    0    0  501    0  0.00000000000E+00 -0.00000000000E+00 -0.52385043154E+03  0.52385043155E+03  0.25500000000E-02 0. -1.
    8880023    1    1    2    0    0  0.68972593051E+02  0.40330373322E+03 -0.17392320112E+03  0.79465124801E+03  0.65864270000E+03 0.  0.
    8880022    1    1    2    0    0 -0.68972593051E+02 -0.40330373322E+03  0.11661199732E+04  0.12452463872E+04  0.15294330000E+03 0.  0.
<mgrwt>
<rscale>  0 0.67175511E+03</rscale>
<asrwt>0</asrwt>
<pdfrwt beam="1">  1        2 0.80592373E-01 0.77538463E+03</pdfrwt>
<pdfrwt beam="2">  1       -2 0.23323804E+00 0.77538463E+03</pdfrwt>
<totfact> 0.48652722E+00</totfact>
</mgrwt>
</event>
<event>
 4    5  0.1905771E-007  0.1189002E+04  0.7818608E-02  0.9167888E-01
          2   -1    0    0  501    0  0.00000000000E+00  0.00000000000E+00  0.17500350198E+04  0.17500350198E+04  0.25500000000E-02 0. -1.
         -2   -1    0    0    0  501 -0.00000000000E+00 -0.00000000000E+00 -0.13138175308E+04  0.13138175309E+04  0.25500000000E-02 0.  1.
    8880023    1    1    2    0    0 -0.66219641502E+02  0.98768939601E+03  0.12851739834E+04  0.17508277350E+04  0.65864270000E+03 0.  0.
    8880022    1    1    2    0    0  0.66219641502E+02 -0.98768939601E+03 -0.84895649445E+03  0.13130248156E+04  0.15294330000E+03 0.  0.
<mgrwt>
<rscale>  0 0.11391113E+04</rscale>
<asrwt>0</asrwt>
<pdfrwt beam="1">  1        2 0.26923616E+00 0.11890019E+04</pdfrwt>
<pdfrwt beam="2">  1       -2 0.20212577E+00 0.11890019E+04</pdfrwt>
<totfact> 0.11510642E+00</totfact>
</mgrwt>
</event>
<event>
 4    5  0.1905771E-007  0.1033679E+04  0.7818608E-02  0.9338764E-01
         -2   -1    0    0    0  501 -0.00000000000E+00  0.00000000000E+00  0.40342584260E+04  0.40342584260E+04  0.25500000000E-02 0.  1.
          2   -1    0    0  501    0  0.00000000000E+00 -0.00000000000E+00 -0.55156414084E+03  0.55156414085E+03  0.25500000000E-02 0. -1.
    8880023    1    1    2    0    0  0.13920799231E+03 -0.78441222947E+03  0.24724827806E+02  0.10339743393E+04  0.65864270000E+03 0.  0.
    8880022    1    1    2    0    0 -0.13920799231E+03  0.78441222947E+03  0.34579694574E+04  0.35518482276E+04  0.15294330000E+03 0.  0.
<mgrwt>
<rscale>  0 0.97291172E+03</rscale>
<asrwt>0</asrwt>
<pdfrwt beam="1">  1        2 0.84856023E-01 0.10336787E+04</pdfrwt>
<pdfrwt beam="2">  1       -2 0.62065513E+00 0.10336787E+04</pdfrwt>
<totfact> 0.22770209E-02</totfact>
</mgrwt>
</event>
<event>
 4    5  0.1905771E-007  0.7387259E+03  0.7818608E-02  0.9863674E-01
          2   -1    0    0  501    0  0.00000000000E+00  0.00000000000E+00  0.29922644590E+03  0.29922644592E+03  0.25500000000E-02 0. -1.
         -2   -1    0    0    0  501 -0.00000000000E+00 -0.00000000000E+00 -0.14168254010E+04  0.14168254010E+04  0.25500000000E-02 0.  1.
    8880023    1    1    2    0    0  0.24994922476E+03 -0.22233107537E+03 -0.26041825403E+03  0.78328385361E+03  0.65864270000E+03 0.  0.
    8880022    1    1    2    0    0 -0.24994922476E+03  0.22233107537E+03 -0.85718070106E+03  0.93276799330E+03  0.15294330000E+03 0.  0.
<mgrwt>
<rscale>  0 0.62054554E+03</rscale>
<asrwt>0</asrwt>
<pdfrwt beam="1">  1        2 0.46034839E-01 0.73872588E+03</pdfrwt>
<pdfrwt beam="2">  1       -2 0.21797313E+00 0.73872588E+03</pdfrwt>
<totfact> 0.11453150E+01</totfact>
</mgrwt>
</event>
<event>
 4    5  0.1905771E-007  0.7549054E+03  0.7818608E-02  0.9818480E-01
         -2   -1    0    0    0  501 -0.00000000000E+00  0.00000000000E+00  0.13983917871E+04  0.13983917871E+04  0.25500000000E-02 0.  1.
          2   -1    0    0  501    0  0.00000000000E+00 -0.00000000000E+00 -0.35461891261E+03  0.35461891262E+03  0.25500000000E-02 0. -1.
    8880023    1    1    2    0    0  0.35078824075E+03  0.11410344392E+03  0.14387894105E+03  0.76849420408E+03  0.65864270000E+03 0. -1.
    8880022    1    1    2    0    0 -0.35078824075E+03 -0.11410344392E+03  0.89989393345E+03  0.98451649567E+03  0.15294330000E+03 0.  0.
<mgrwt>
<rscale>  0 0.64380170E+03</rscale>
<asrwt>0</asrwt>
<pdfrwt beam="1">  1        2 0.54556756E-01 0.75490542E+03</pdfrwt>
<pdfrwt beam="2">  1       -2 0.21513720E+00 0.75490542E+03</pdfrwt>
<totfact> 0.98599578E+00</totfact>
</mgrwt>
</event>
<event>
 4    5  0.1905771E-007  0.1411819E+04  0.7818608E-02  0.8974553E-01
         -2   -1    0    0    0  501 -0.00000000000E+00  0.00000000000E+00  0.11285008808E+04  0.11285008809E+04  0.25500000000E-02 0.  1.
          2   -1    0    0  501    0  0.00000000000E+00 -0.00000000000E+00 -0.23253375983E+04  0.23253375983E+04  0.25500000000E-02 0. -1.
    8880023    1    1    2    0    0 -0.94558482468E+03 -0.81565516228E+03 -0.15989457510E+04  0.21330404884E+04  0.65864270000E+03 0.  0.
    8880022    1    1    2    0    0  0.94558482468E+03  0.81565516228E+03  0.40210903354E+03  0.13207979907E+04  0.15294330000E+03 0.  0.
<mgrwt>
<rscale>  0 0.13717127E+04</rscale>
<asrwt>0</asrwt>
<pdfrwt beam="1">  1        2 0.35774425E+00 0.14118195E+04</pdfrwt>
<pdfrwt beam="2">  1       -2 0.17361552E+00 0.14118195E+04</pdfrwt>
<totfact> 0.83753008E-01</totfact>
</mgrwt>
</event>
<event>
 4    5  0.1905771E-007  0.1157973E+04  0.7818608E-02  0.9199099E-01
         -2   -1    0    0    0  501 -0.00000000000E+00  0.00000000000E+00  0.33086588461E+04  0.33086588461E+04  0.25500000000E-02 0.  1.
          2   -1    0    0  501    0  0.00000000000E+00 -0.00000000000E+00 -0.12818170528E+04  0.12818170528E+04  0.25500000000E-02 0. -1.
    8880023    1    1    2    0    0  0.40767694620E+03  0.86075013826E+03 -0.92687434208E+03  0.14832388699E+04  0.65864270000E+03 0.  0.
    8880022    1    1    2    0    0 -0.40767694620E+03 -0.86075013826E+03  0.29537161353E+04  0.31072370290E+04  0.15294330000E+03 0.  0.
<mgrwt>
<rscale>  0 0.11062732E+04</rscale>
<asrwt>0</asrwt>
<pdfrwt beam="1">  1        2 0.19720262E+00 0.11579730E+04</pdfrwt>
<pdfrwt beam="2">  1       -2 0.50902444E+00 0.11579730E+04</pdfrwt>
<totfact> 0.24107820E-02</totfact>
</mgrwt>
</event>
<event>
 4    5  0.1992727E-007  0.1503056E+04  0.7818608E-02  0.8907481E-01
          2   -1    0    0  501    0  0.00000000000E+00  0.00000000000E+00  0.19363504366E+04  0.19363504366E+04  0.25500000000E-02 0. -1.
         -2   -1    0    0    0  501 -0.00000000000E+00 -0.00000000000E+00 -0.25941736740E+04  0.25941736740E+04  0.25500000000E-02 0.  1.
    8880023    1    1    2    0    0 -0.81121791946E+03  0.10804132357E+04  0.14065954963E+04  0.20585646381E+04  0.65864270000E+03 0.  0.
    8880022    1    1    2    0    0  0.81121791946E+03 -0.10804132357E+04 -0.20644187337E+04  0.24719594725E+04  0.15294330000E+03 0.  0.
<mgrwt>
<rscale>  0 0.14658564E+04</rscale>
<asrwt>0</asrwt>
<pdfrwt beam="1">  1        2 0.29790007E+00 0.15030560E+04</pdfrwt>
<pdfrwt beam="2">  1       -2 0.39910364E+00 0.15030560E+04</pdfrwt>
<totfact> 0.51238284E-02</totfact>
</mgrwt>
</event>
<event>
 4    5  0.1905771E-007  0.7404877E+03  0.7818608E-02  0.9858529E-01
         -2   -1    0    0    0  501 -0.00000000000E+00  0.00000000000E+00  0.57994086872E+03  0.57994086873E+03  0.25500000000E-02 0.  1.
          2   -1    0    0  501    0  0.00000000000E+00 -0.00000000000E+00 -0.69065083975E+03  0.69065083975E+03  0.25500000000E-02 0. -1.
    8880023    1    1    2    0    0  0.15438727389E+03  0.30112511250E+03 -0.35996303319E+03  0.82334400784E+03  0.65864270000E+03 0.  0.
    8880022    1    1    2    0    0 -0.15438727389E+03 -0.30112511250E+03  0.24925306216E+03  0.44724770064E+03  0.15294330000E+03 0.  0.
<mgrwt>
<rscale>  0 0.62313945E+03</rscale>
<asrwt>0</asrwt>
<pdfrwt beam="1">  1        2 0.10625398E+00 0.74048766E+03</pdfrwt>
<pdfrwt beam="2">  1       -2 0.89221672E-01 0.74048766E+03</pdfrwt>
<totfact> 0.45550956E+01</totfact>
</mgrwt>
</event>
<event>
 4    5  0.1905771E-007  0.7235591E+03  0.7818608E-02  0.9910722E-01
          2   -1    0    0  501    0  0.00000000000E+00  0.00000000000E+00  0.18001184092E+04  0.18001184092E+04  0.25500000000E-02 0. -1.
         -2   -1    0    0    0  501 -0.00000000000E+00 -0.00000000000E+00 -0.16934135470E+03  0.16934135472E+03  0.25500000000E-02 0.  1.
    8880023    1    1    2    0    0 -0.10462658774E+03 -0.28067925591E+03  0.13485592676E+04  0.15304084004E+04  0.65864270000E+03 0.  0.
    8880022    1    1    2    0    0  0.10462658774E+03  0.28067925591E+03  0.28221778695E+03  0.43905136357E+03  0.15294330000E+03 0.  0.
<mgrwt>
<rscale>  0 0.59744449E+03</rscale>
<asrwt>0</asrwt>
<pdfrwt beam="1">  1        2 0.27694129E+00 0.72355910E+03</pdfrwt>
<pdfrwt beam="2">  1       -2 0.26052517E-01 0.72355910E+03</pdfrwt>
<totfact> 0.11753878E+02</totfact>
</mgrwt>
</event>
<event>
 4    5  0.1905771E-007  0.8238118E+03  0.7818608E-02  0.9661495E-01
         -2   -1    0    0    0  501 -0.00000000000E+00  0.00000000000E+00  0.11013500257E+04  0.11013500257E+04  0.25500000000E-02 0.  1.
          2   -1    0    0  501    0  0.00000000000E+00 -0.00000000000E+00 -0.50592741966E+03  0.50592741967E+03  0.25500000000E-02 0. -1.
    8880023    1    1    2    0    0 -0.16489669724E+03 -0.46654547305E+03  0.76164551646E+01  0.82384696142E+03  0.65864270000E+03 0. -1.
    8880022    1    1    2    0    0  0.16489669724E+03  0.46654547305E+03  0.58780615092E+03  0.78343048400E+03  0.15294330000E+03 0.  0.
<mgrwt>
<rscale>  0 0.73356381E+03</rscale>
<asrwt>0</asrwt>
<pdfrwt beam="1">  1        2 0.77834988E-01 0.82381175E+03</pdfrwt>
<pdfrwt beam="2">  1       -2 0.16943846E+00 0.82381175E+03</pdfrwt>
<totfact> 0.13176175E+01</totfact>
</mgrwt>
</event>
<event>
 4    5  0.1905771E-007  0.1384514E+04  0.7818608E-02  0.8995810E-01
          2   -1    0    0  501    0  0.00000000000E+00  0.00000000000E+00  0.27072039926E+04  0.27072039926E+04  0.25500000000E-02 0. -1.
         -2   -1    0    0    0  501 -0.00000000000E+00 -0.00000000000E+00 -0.83538293410E+03  0.83538293410E+03  0.25500000000E-02 0.  1.
    8880023    1    1    2    0    0 -0.12018863915E+04 -0.19630942803E+03  0.18554794984E+04  0.23150988456E+04  0.65864270000E+03 0.  0.
    8880022    1    1    2    0    0  0.12018863915E+04  0.19630942803E+03  0.16341560023E+02  0.12274880811E+04  0.15294330000E+03 0.  0.
<mgrwt>
<rscale>  0 0.13434381E+04</rscale>
<asrwt>0</asrwt>
<pdfrwt beam="1">  1        2 0.41649292E+00 0.13845138E+04</pdfrwt>
<pdfrwt beam="2">  1       -2 0.12852045E+00 0.13845138E+04</pdfrwt>
<totfact> 0.11296040E+00</totfact>
</mgrwt>
</event>
<event>
 4    5  0.1905771E-007  0.8889269E+03  0.7818608E-02  0.9544046E-01
         -2   -1    0    0    0  501 -0.00000000000E+00  0.00000000000E+00  0.19138468919E+03  0.19138468921E+03  0.25500000000E-02 0.  1.
          2   -1    0    0  501    0  0.00000000000E+00 -0.00000000000E+00 -0.35911923674E+04  0.35911923674E+04  0.25500000000E-02 0. -1.
    8880023    1    1    2    0    0 -0.47965056942E+03 -0.35540985147E+03 -0.27361205936E+04  0.28768988408E+04  0.65864270000E+03 0.  0.
    8880022    1    1    2    0    0  0.47965056942E+03  0.35540985147E+03 -0.66368708458E+03  0.90567821577E+03  0.15294330000E+03 0.  0.
<mgrwt>
<rscale>  0 0.81112908E+03</rscale>
<asrwt>0</asrwt>
<pdfrwt beam="1">  1        2 0.55249109E+00 0.88892690E+03</pdfrwt>
<pdfrwt beam="2">  1       -2 0.29443801E-01 0.88892690E+03</pdfrwt>
<totfact> 0.78637303E+00</totfact>
</mgrwt>
</event>
<event>
 4    5  0.1905771E-007  0.8093150E+03  0.7818608E-02  0.9691005E-01
         -2   -1    0    0    0  501 -0.00000000000E+00  0.00000000000E+00  0.18969036058E+04  0.18969036058E+04  0.25500000000E-02 0.  1.
          2   -1    0    0  501    0  0.00000000000E+00 -0.00000000000E+00 -0.98683243593E+03  0.98683243594E+03  0.25500000000E-02 0. -1.
    8880023    1    1    2    0    0 -0.10909878149E+03 -0.45746922077E+03 -0.77926734491E+03  0.11234983014E+04  0.65864270000E+03 0. -1.
    8880022    1    1    2    0    0  0.10909878149E+03  0.45746922077E+03  0.16893385148E+04  0.17602377404E+04  0.15294330000E+03 0.  0.
<mgrwt>
<rscale>  0 0.71554856E+03</rscale>
<asrwt>0</asrwt>
<pdfrwt beam="1">  1        2 0.15182038E+00 0.80931504E+03</pdfrwt>
<pdfrwt beam="2">  1       -2 0.29183132E+00 0.80931504E+03</pdfrwt>
<totfact> 0.94613298E-01</totfact>
</mgrwt>
</event>
<event>
 4    5  0.1905771E-007  0.9315483E+03  0.7818608E-02  0.9477174E-01
          2   -1    0    0  501    0  0.00000000000E+00  0.00000000000E+00  0.13805228638E+04  0.13805228638E+04  0.25500000000E-02 0. -1.
         -2   -1    0    0    0  501 -0.00000000000E+00 -0.00000000000E+00 -0.76608180591E+03  0.76608180592E+03  0.25500000000E-02 0.  1.
    8880023    1    1    2    0    0  0.65171037619E+03  0.96154468182E+02  0.10011922816E+04  0.13675409636E+04  0.65864270000E+03 0. -1.
    8880022    1    1    2    0    0 -0.65171037619E+03 -0.96154468182E+02 -0.38675122367E+03  0.77906370613E+03  0.15294330000E+03 0.  0.
<mgrwt>
<rscale>  0 0.85987785E+03</rscale>
<asrwt>0</asrwt>
<pdfrwt beam="1">  1        2 0.21238813E+00 0.93154834E+03</pdfrwt>
<pdfrwt beam="2">  1       -2 0.11785874E+00 0.93154834E+03</pdfrwt>
<totfact> 0.82487413E+00</totfact>
</mgrwt>
</event>
<event>
 4    5  0.1905771E-007  0.6919215E+03  0.7818608E-02  0.1003252E+00
         -2   -1    0    0    0  501 -0.00000000000E+00  0.00000000000E+00  0.25154550549E+03  0.25154550550E+03  0.25500000000E-02 0.  1.
          2   -1    0    0  501    0  0.00000000000E+00 -0.00000000000E+00 -0.41430500972E+04  0.41430500972E+04  0.25500000000E-02 0. -1.
    8880023    1    1    2    0    0 -0.21199526010E+03 -0.17917617274E+01 -0.40366967239E+04  0.40955678297E+04  0.65864270000E+03 0. -1.
    8880022    1    1    2    0    0  0.21199526010E+03  0.17917617274E+01  0.14519213224E+03  0.29902777295E+03  0.15294330000E+03 0.  0.
<mgrwt>
<rscale>  0 0.54246848E+03</rscale>
<asrwt>0</asrwt>
<pdfrwt beam="1">  1        2 0.63739228E+00 0.69192153E+03</pdfrwt>
<pdfrwt beam="2">  1       -2 0.38699311E-01 0.69192153E+03</pdfrwt>
<totfact> 0.18610857E+00</totfact>
</mgrwt>
</event>
<event>
 4    5  0.1905771E-007  0.7165117E+03  0.7818608E-02  0.9934571E-01
         -2   -1    0    0    0  501 -0.00000000000E+00  0.00000000000E+00  0.13008326041E+04  0.13008326041E+04  0.25500000000E-02 0.  1.
          2   -1    0    0  501    0  0.00000000000E+00 -0.00000000000E+00 -0.29288477524E+03  0.29288477525E+03  0.25500000000E-02 0. -1.
    8880023    1    1    2    0    0 -0.22739305026E+03 -0.16694672003E+03  0.23054122712E+03  0.75268736558E+03  0.65864270000E+03 0. -1.
    8880022    1    1    2    0    0  0.22739305026E+03  0.16694672003E+03  0.77740660176E+03  0.84103001380E+03  0.15294330000E+03 0.  0.
<mgrwt>
<rscale>  0 0.58614700E+03</rscale>
<asrwt>0</asrwt>
<pdfrwt beam="1">  1        2 0.45059196E-01 0.71651170E+03</pdfrwt>
<pdfrwt beam="2">  1       -2 0.20012809E+00 0.71651170E+03</pdfrwt>
<totfact> 0.15276733E+01</totfact>
</mgrwt>
</event>
<event>
 4    5  0.1905771E-007  0.8241489E+03  0.7818608E-02  0.9660826E-01
         -2   -1    0    0    0  501 -0.00000000000E+00  0.00000000000E+00  0.81667095401E+03  0.81667095401E+03  0.25500000000E-02 0.  1.
          2   -1    0    0  501    0  0.00000000000E+00 -0.00000000000E+00 -0.13418484196E+04  0.13418484196E+04  0.25500000000E-02 0. -1.
    8880023    1    1    2    0    0 -0.39746956164E+03  0.29568415937E+03 -0.11064277206E+04  0.13796389679E+04  0.65864270000E+03 0. -1.
    8880022    1    1    2    0    0  0.39746956164E+03 -0.29568415937E+03  0.58125025498E+03  0.77888040575E+03  0.15294330000E+03 0.  0.
<mgrwt>
<rscale>  0 0.73397875E+03</rscale>
<asrwt>0</asrwt>
<pdfrwt beam="1">  1        2 0.20643822E+00 0.82414888E+03</pdfrwt>
<pdfrwt beam="2">  1       -2 0.12564169E+00 0.82414888E+03</pdfrwt>
<totfact> 0.74916206E+00</totfact>
</mgrwt>
</event>
<event>
 4    5  0.1905771E-007  0.8036417E+03  0.7818608E-02  0.9702977E-01
         -2   -1    0    0    0  501 -0.00000000000E+00  0.00000000000E+00  0.23346995154E+03  0.23346995156E+03  0.25500000000E-02 0.  1.
          2   -1    0    0  501    0  0.00000000000E+00 -0.00000000000E+00 -0.20589255210E+04  0.20589255210E+04  0.25500000000E-02 0. -1.
    8880023    1    1    2    0    0 -0.28679065714E+03  0.36025112733E+03 -0.15190830922E+04  0.17185614341E+04  0.65864270000E+03 0.  0.
    8880022    1    1    2    0    0  0.28679065714E+03 -0.36025112733E+03 -0.30637247727E+03  0.57383403839E+03  0.15294330000E+03 0.  0.
<mgrwt>
<rscale>  0 0.70839843E+03</rscale>
<asrwt>0</asrwt>
<pdfrwt beam="1">  1        2 0.31675776E+00 0.80364169E+03</pdfrwt>
<pdfrwt beam="2">  1       -2 0.35918455E-01 0.80364169E+03</pdfrwt>
<totfact> 0.46275772E+01</totfact>
</mgrwt>
</event>
<event>
 4    5  0.1905771E-007  0.8379524E+03  0.7818608E-02  0.9634053E-01
         -2   -1    0    0    0  501 -0.00000000000E+00  0.00000000000E+00  0.37381714468E+03  0.37381714468E+03  0.25500000000E-02 0.  1.
          2   -1    0    0  501    0  0.00000000000E+00 -0.00000000000E+00 -0.17596383355E+04  0.17596383355E+04  0.25500000000E-02 0. -1.
    8880023    1    1    2    0    0 -0.41003553791E+03 -0.31658312409E+03 -0.13540820467E+04  0.15923889011E+04  0.65864270000E+03 0. -1.
    8880022    1    1    2    0    0  0.41003553791E+03  0.31658312409E+03 -0.31739144194E+02  0.54106657917E+03  0.15294330000E+03 0.  0.
<mgrwt>
<rscale>  0 0.75082732E+03</rscale>
<asrwt>0</asrwt>
<pdfrwt beam="1">  1        2 0.27071359E+00 0.83795240E+03</pdfrwt>
<pdfrwt beam="2">  1       -2 0.57510331E-01 0.83795240E+03</pdfrwt>
<totfact> 0.26183903E+01</totfact>
</mgrwt>
</event>
<event>
 4    5  0.1905771E-007  0.8277136E+03  0.7818608E-02  0.9653798E-01
         -2   -1    0    0    0  501 -0.00000000000E+00  0.00000000000E+00  0.86643201425E+03  0.86643201425E+03  0.25500000000E-02 0.  1.
          2   -1    0    0  501    0  0.00000000000E+00 -0.00000000000E+00 -0.19499563773E+04  0.19499563773E+04  0.25500000000E-02 0. -1.
    8880023    1    1    2    0    0 -0.11666051639E+03  0.48753445723E+03 -0.17692575153E+04  0.19533002546E+04  0.65864270000E+03 0. -1.
    8880022    1    1    2    0    0  0.11666051639E+03 -0.48753445723E+03  0.68573315222E+03  0.86308813695E+03  0.15294330000E+03 0.  0.
<mgrwt>
<rscale>  0 0.73835571E+03</rscale>
<asrwt>0</asrwt>
<pdfrwt beam="1">  1        2 0.29999329E+00 0.82771356E+03</pdfrwt>
<pdfrwt beam="2">  1       -2 0.13329723E+00 0.82771356E+03</pdfrwt>
<totfact> 0.29680141E+00</totfact>
</mgrwt>
</event>
<event>
 4    5  0.1905771E-007  0.9877822E+03  0.7818608E-02  0.9397720E-01
          2   -1    0    0  501    0  0.00000000000E+00  0.00000000000E+00  0.23675622267E+04  0.23675622267E+04  0.25500000000E-02 0. -1.
         -2   -1    0    0    0  501 -0.00000000000E+00 -0.00000000000E+00 -0.35994369204E+03  0.35994369205E+03  0.25500000000E-02 0.  1.
    8880023    1    1    2    0    0 -0.24317506973E+03 -0.69481603606E+03  0.15776923713E+04  0.18614045405E+04  0.65864270000E+03 0.  0.
    8880022    1    1    2    0    0  0.24317506973E+03  0.69481603606E+03  0.42992616332E+03  0.86610137826E+03  0.15294330000E+03 0.  0.
<mgrwt>
<rscale>  0 0.92263578E+03</rscale>
<asrwt>0</asrwt>
<pdfrwt beam="1">  1        2 0.36424034E+00 0.98778218E+03</pdfrwt>
<pdfrwt beam="2">  1       -2 0.55375954E-01 0.98778218E+03</pdfrwt>
<totfact> 0.12857868E+01</totfact>
</mgrwt>
</event>
<event>
 4    5  0.1905771E-007  0.1548178E+04  0.7818608E-02  0.8876344E-01
         -2   -1    0    0    0  501 -0.00000000000E+00  0.00000000000E+00  0.32602003835E+04  0.32602003835E+04  0.25500000000E-02 0.  1.
          2   -1    0    0  501    0  0.00000000000E+00 -0.00000000000E+00 -0.12163217184E+04  0.12163217184E+04  0.25500000000E-02 0. -1.
    8880023    1    1    2    0    0  0.11158568256E+04 -0.84729466247E+03 -0.44972349021E+03  0.16121743467E+04  0.65864270000E+03 0. -1.
    8880022    1    1    2    0    0 -0.11158568256E+04  0.84729466247E+03  0.24936021554E+04  0.28643477552E+04  0.15294330000E+03 0.  0.
<mgrwt>
<rscale>  0 0.15122549E+04</rscale>
<asrwt>0</asrwt>
<pdfrwt beam="1">  1        2 0.18712642E+00 0.15481779E+04</pdfrwt>
<pdfrwt beam="2">  1       -2 0.50156929E+00 0.15481779E+04</pdfrwt>
<totfact> 0.27822261E-02</totfact>
</mgrwt>
</event>
<event>
 4    5  0.1905771E-007  0.9141400E+03  0.7818608E-02  0.9503703E-01
          2   -1    0    0  501    0  0.00000000000E+00  0.00000000000E+00  0.13865525281E+04  0.13865525281E+04  0.25500000000E-02 0. -1.
         -2   -1    0    0    0  501 -0.00000000000E+00 -0.00000000000E+00 -0.72250193544E+03  0.72250193544E+03  0.25500000000E-02 0.  1.
    8880023    1    1    2    0    0  0.61596384979E+03  0.14976757907E+03  0.10170877782E+04  0.13675231430E+04  0.65864270000E+03 0. -1.
    8880022    1    1    2    0    0 -0.61596384979E+03 -0.14976757907E+03 -0.35303718548E+03  0.74153132053E+03  0.15294330000E+03 0.  0.
<mgrwt>
<rscale>  0 0.84011352E+03</rscale>
<asrwt>0</asrwt>
<pdfrwt beam="1">  1        2 0.21331577E+00 0.91414003E+03</pdfrwt>
<pdfrwt beam="2">  1       -2 0.11115414E+00 0.91414003E+03</pdfrwt>
<totfact> 0.94626057E+00</totfact>
</mgrwt>
</event>
<event>
 4    5  0.1905771E-007  0.7644764E+03  0.7818608E-02  0.9793654E-01
         -2   -1    0    0    0  501 -0.00000000000E+00  0.00000000000E+00  0.88039385209E+03  0.88039385209E+03  0.25500000000E-02 0.  1.
          2   -1    0    0  501    0  0.00000000000E+00 -0.00000000000E+00 -0.14961828660E+04  0.14961828660E+04  0.25500000000E-02 0. -1.
    8880023    1    1    2    0    0  0.25142579074E+03  0.29563317681E+03 -0.13388982639E+04  0.15417758173E+04  0.65864270000E+03 0. -1.
    8880022    1    1    2    0    0 -0.25142579074E+03 -0.29563317681E+03  0.72310925000E+03  0.83480090078E+03  0.15294330000E+03 0.  0.
<mgrwt>
<rscale>  0 0.65704246E+03</rscale>
<asrwt>0</asrwt>
<pdfrwt beam="1">  1        2 0.23018198E+00 0.76447636E+03</pdfrwt>
<pdfrwt beam="2">  1       -2 0.13544521E+00 0.76447636E+03</pdfrwt>
<totfact> 0.51075609E+00</totfact>
</mgrwt>
</event>
<event>
 4    5  0.1905771E-007  0.1222672E+04  0.7818608E-02  0.9135392E-01
         -2   -1    0    0    0  501 -0.00000000000E+00  0.00000000000E+00  0.62755804373E+03  0.62755804373E+03  0.25500000000E-02 0.  1.
          2   -1    0    0  501    0  0.00000000000E+00 -0.00000000000E+00 -0.24016642472E+04  0.24016642472E+04  0.25500000000E-02 0. -1.
    8880023    1    1    2    0    0 -0.77362205141E+03  0.68016658198E+03 -0.15319323055E+04  0.19600368498E+04  0.65864270000E+03 0.  1.
    8880022    1    1    2    0    0  0.77362205141E+03 -0.68016658198E+03 -0.24217389797E+03  0.10691854411E+04  0.15294330000E+03 0.  0.
<mgrwt>
<rscale>  0 0.11745912E+04</rscale>
<asrwt>0</asrwt>
<pdfrwt beam="1">  1        2 0.36948680E+00 0.12226724E+04</pdfrwt>
<pdfrwt beam="2">  1       -2 0.96547393E-01 0.12226724E+04</pdfrwt>
<totfact> 0.34895212E+00</totfact>
</mgrwt>
</event>
<event>
 4    5  0.1905771E-007  0.8372036E+03  0.7818608E-02  0.9635476E-01
         -2   -1    0    0    0  501 -0.00000000000E+00  0.00000000000E+00  0.18080800967E+03  0.18080800969E+03  0.25500000000E-02 0.  1.
          2   -1    0    0  501    0  0.00000000000E+00 -0.00000000000E+00 -0.30750792708E+04  0.30750792708E+04  0.25500000000E-02 0. -1.
    8880023    1    1    2    0    0 -0.40134975954E+03  0.32560415381E+03 -0.23287394462E+04  0.24746590288E+04  0.65864270000E+03 0. -1.
    8880022    1    1    2    0    0  0.40134975954E+03 -0.32560415381E+03 -0.56553181492E+03  0.78122825164E+03  0.15294330000E+03 0.  0.
<mgrwt>
<rscale>  0 0.74992006E+03</rscale>
<asrwt>0</asrwt>
<pdfrwt beam="1">  1        2 0.47308908E+00 0.83720362E+03</pdfrwt>
<pdfrwt beam="2">  1       -2 0.27816619E-01 0.83720362E+03</pdfrwt>
<totfact> 0.19278445E+01</totfact>
</mgrwt>
</event>
<event>
 4    5  0.1905771E-007  0.8324591E+03  0.7818608E-02  0.9644567E-01
          2   -1    0    0  501    0  0.00000000000E+00  0.00000000000E+00  0.16825098614E+04  0.16825098614E+04  0.25500000000E-02 0. -1.
         -2   -1    0    0    0  501 -0.00000000000E+00 -0.00000000000E+00 -0.37733637028E+03  0.37733637029E+03  0.25500000000E-02 0.  1.
    8880023    1    1    2    0    0 -0.50199731616E+03  0.84714693001E+02  0.12809967106E+04  0.15277240141E+04  0.65864270000E+03 0. -1.
    8880022    1    1    2    0    0  0.50199731616E+03 -0.84714693001E+02  0.24176780509E+02  0.53212221751E+03  0.15294330000E+03 0.  0.
<mgrwt>
<rscale>  0 0.74415402E+03</rscale>
<asrwt>0</asrwt>
<pdfrwt beam="1">  1        2 0.25884767E+00 0.83245906E+03</pdfrwt>
<pdfrwt beam="2">  1       -2 0.58051749E-01 0.83245906E+03</pdfrwt>
<totfact> 0.28319727E+01</totfact>
</mgrwt>
</event>
<event>
 4    5  0.1905771E-007  0.1483237E+04  0.7818608E-02  0.8921564E-01
          2   -1    0    0  501    0  0.00000000000E+00  0.00000000000E+00  0.18757535818E+04  0.18757535818E+04  0.25500000000E-02 0. -1.
         -2   -1    0    0    0  501 -0.00000000000E+00 -0.00000000000E+00 -0.13789066246E+04  0.13789066246E+04  0.25500000000E-02 0.  1.
    8880023    1    1    2    0    0 -0.81291982031E+03  0.10513534090E+04  0.10392975776E+04  0.18111135486E+04  0.65864270000E+03 0.  0.
    8880022    1    1    2    0    0  0.81291982031E+03 -0.10513534090E+04 -0.54245062037E+03  0.14435466578E+04  0.15294330000E+03 0.  0.
<mgrwt>
<rscale>  0 0.14454454E+04</rscale>
<asrwt>0</asrwt>
<pdfrwt beam="1">  1        2 0.28857748E+00 0.14832373E+04</pdfrwt>
<pdfrwt beam="2">  1       -2 0.21213948E+00 0.14832373E+04</pdfrwt>
<totfact> 0.81733634E-01</totfact>
</mgrwt>
</event>
<event>
 4    5  0.1905771E-007  0.1358187E+04  0.7818608E-02  0.9016873E-01
         -2   -1    0    0    0  501 -0.00000000000E+00  0.00000000000E+00  0.85816716083E+03  0.85816716083E+03  0.25500000000E-02 0.  1.
          2   -1    0    0  501    0  0.00000000000E+00 -0.00000000000E+00 -0.42638733311E+04  0.42638733311E+04  0.25500000000E-02 0. -1.
    8880023    1    1    2    0    0  0.29316700521E+03  0.11510488609E+04 -0.36546273220E+04  0.38988423207E+04  0.65864270000E+03 0.  0.
    8880022    1    1    2    0    0 -0.29316700521E+03 -0.11510488609E+04  0.24892115173E+03  0.12231981712E+04  0.15294330000E+03 0.  0.
<mgrwt>
<rscale>  0 0.13161268E+04</rscale>
<asrwt>0</asrwt>
<pdfrwt beam="1">  1        2 0.65598050E+00 0.13581865E+04</pdfrwt>
<pdfrwt beam="2">  1       -2 0.13202572E+00 0.13581865E+04</pdfrwt>
<totfact> 0.84504570E-02</totfact>
</mgrwt>
</event>
<event>
 4    5  0.1905771E-007  0.1048955E+04  0.7818608E-02  0.9320139E-01
         -2   -1    0    0    0  501 -0.00000000000E+00  0.00000000000E+00  0.16820760212E+04  0.16820760212E+04  0.25500000000E-02 0.  1.
          2   -1    0    0  501    0  0.00000000000E+00 -0.00000000000E+00 -0.90910231972E+03  0.90910231973E+03  0.25500000000E-02 0. -1.
    8880023    1    1    2    0    0 -0.56581115284E+03 -0.58851836773E+03 -0.42637574773E+03  0.11322997016E+04  0.65864270000E+03 0.  0.
    8880022    1    1    2    0    0  0.56581115284E+03  0.58851836773E+03  0.11993494492E+04  0.14588786393E+04  0.15294330000E+03 0.  0.
<mgrwt>
<rscale>  0 0.98949798E+03</rscale>
<asrwt>0</asrwt>
<pdfrwt beam="1">  1        2 0.13986190E+00 0.10489549E+04</pdfrwt>
<pdfrwt beam="2">  1       -2 0.25878092E+00 0.10489549E+04</pdfrwt>
<totfact> 0.16280362E+00</totfact>
</mgrwt>
</event>
<event>
 4    5  0.1905771E-007  0.1072056E+04  0.7818608E-02  0.9292825E-01
         -2   -1    0    0    0  501 -0.00000000000E+00  0.00000000000E+00  0.38767312024E+03  0.38767312025E+03  0.25500000000E-02 0.  1.
          2   -1    0    0  501    0  0.00000000000E+00 -0.00000000000E+00 -0.36815725867E+04  0.36815725867E+04  0.25500000000E-02 0. -1.
    8880023    1    1    2    0    0 -0.70336155563E+03 -0.46986942102E+03 -0.29581442580E+04  0.31464142143E+04  0.65864270000E+03 0. -1.
    8880022    1    1    2    0    0  0.70336155563E+03  0.46986942102E+03 -0.33575520845E+03  0.92283149261E+03  0.15294330000E+03 0.  0.
<mgrwt>
<rscale>  0 0.10144612E+04</rscale>
<asrwt>0</asrwt>
<pdfrwt beam="1">  1        2 0.56639576E+00 0.10720564E+04</pdfrwt>
<pdfrwt beam="2">  1       -2 0.59642021E-01 0.10720564E+04</pdfrwt>
<totfact> 0.16276656E+00</totfact>
</mgrwt>
</event>
<event>
 4    5  0.1905771E-007  0.7839641E+03  0.7818608E-02  0.9746606E-01
          2   -1    0    0  501    0  0.00000000000E+00  0.00000000000E+00  0.15712423797E+04  0.15712423797E+04  0.25500000000E-02 0. -1.
         -2   -1    0    0    0  501 -0.00000000000E+00 -0.00000000000E+00 -0.56492204350E+03  0.56492204350E+03  0.25500000000E-02 0.  1.
    8880023    1    1    2    0    0  0.37173907042E+03 -0.20639679323E+03  0.13549759529E+04  0.15654263355E+04  0.65864270000E+03 0. -1.
    8880022    1    1    2    0    0 -0.37173907042E+03  0.20639679323E+03 -0.34865561666E+03  0.57073808772E+03  0.15294330000E+03 0.  0.
<mgrwt>
<rscale>  0 0.68308402E+03</rscale>
<asrwt>0</asrwt>
<pdfrwt beam="1">  1        2 0.24172959E+00 0.78396414E+03</pdfrwt>
<pdfrwt beam="2">  1       -2 0.86911084E-01 0.78396414E+03</pdfrwt>
<totfact> 0.13536021E+01</totfact>
</mgrwt>
</event>
<event>
 4    5  0.1905771E-007  0.1166908E+04  0.7818608E-02  0.9189981E-01
         -2   -1    0    0    0  501 -0.00000000000E+00  0.00000000000E+00  0.27058441272E+04  0.27058441272E+04  0.25500000000E-02 0.  1.
          2   -1    0    0  501    0  0.00000000000E+00 -0.00000000000E+00 -0.58892143380E+03  0.58892143381E+03  0.25500000000E-02 0. -1.
    8880023    1    1    2    0    0 -0.78237474307E+03  0.56192059620E+03  0.25736407377E+03  0.11949524960E+04  0.65864270000E+03 0.  0.
    8880022    1    1    2    0    0  0.78237474307E+03 -0.56192059620E+03  0.18595586196E+04  0.20998130650E+04  0.15294330000E+03 0.  0.
<mgrwt>
<rscale>  0 0.11157446E+04</rscale>
<asrwt>0</asrwt>
<pdfrwt beam="1">  1        2 0.90603297E-01 0.11669084E+04</pdfrwt>
<pdfrwt beam="2">  1       -2 0.41628371E+00 0.11669084E+04</pdfrwt>
<totfact> 0.29330073E-01</totfact>
</mgrwt>
</event>
<event>
 4    5  0.1905771E-007  0.7437977E+03  0.7818608E-02  0.9849020E-01
          2   -1    0    0  501    0  0.00000000000E+00  0.00000000000E+00  0.19779266194E+04  0.19779266194E+04  0.25500000000E-02 0. -1.
         -2   -1    0    0    0  501 -0.00000000000E+00 -0.00000000000E+00 -0.30259561078E+03  0.30259561079E+03  0.25500000000E-02 0.  1.
    8880023    1    1    2    0    0 -0.38765121270E+02  0.34339774674E+03  0.17443961169E+04  0.18963524899E+04  0.65864270000E+03 0. -1.
    8880022    1    1    2    0    0  0.38765121270E+02 -0.34339774674E+03 -0.69065108337E+02  0.38416974021E+03  0.15294330000E+03 0.  0.
<mgrwt>
<rscale>  0 0.62796923E+03</rscale>
<asrwt>0</asrwt>
<pdfrwt beam="1">  1        2 0.30429641E+00 0.74379766E+03</pdfrwt>
<pdfrwt beam="2">  1       -2 0.46553170E-01 0.74379766E+03</pdfrwt>
<totfact> 0.31050775E+01</totfact>
</mgrwt>
</event>
<event>
 4    5  0.1905771E-007  0.6876607E+03  0.7818608E-02  0.1005285E+00
          2   -1    0    0  501    0  0.00000000000E+00  0.00000000000E+00  0.14430822229E+04  0.14430822229E+04  0.25500000000E-02 0. -1.
         -2   -1    0    0    0  501 -0.00000000000E+00 -0.00000000000E+00 -0.69404953149E+03  0.69404953149E+03  0.25500000000E-02 0.  1.
    8880023    1    1    2    0    0  0.19756199754E+03 -0.60216071862E+01  0.13341125020E+04  0.15009108491E+04  0.65864270000E+03 0. -1.
    8880022    1    1    2    0    0 -0.19756199754E+03  0.60216071862E+01 -0.58507981057E+03  0.63622090533E+03  0.15294330000E+03 0.  0.
<mgrwt>
<rscale>  0 0.53392434E+03</rscale>
<asrwt>0</asrwt>
<pdfrwt beam="1">  1        2 0.22201265E+00 0.68766068E+03</pdfrwt>
<pdfrwt beam="2">  1       -2 0.10677685E+00 0.68766068E+03</pdfrwt>
<totfact> 0.99687793E+00</totfact>
</mgrwt>
</event>
<event>
 4    5  0.1905771E-007  0.7862574E+03  0.7818608E-02  0.9741338E-01
          2   -1    0    0  501    0  0.00000000000E+00  0.00000000000E+00  0.16529441048E+04  0.16529441048E+04  0.25500000000E-02 0. -1.
         -2   -1    0    0    0  501 -0.00000000000E+00 -0.00000000000E+00 -0.39627725382E+03  0.39627725383E+03  0.25500000000E-02 0.  1.
    8880023    1    1    2    0    0  0.77612690724E+02  0.42233498048E+03  0.13699309702E+04  0.15795289282E+04  0.65864270000E+03 0. -1.
    8880022    1    1    2    0    0 -0.77612690724E+02 -0.42233498048E+03 -0.11326411925E+03  0.46969243045E+03  0.15294330000E+03 0.  0.
<mgrwt>
<rscale>  0 0.68607979E+03</rscale>
<asrwt>0</asrwt>
<pdfrwt beam="1">  1        2 0.25429909E+00 0.78625745E+03</pdfrwt>
<pdfrwt beam="2">  1       -2 0.60965732E-01 0.78625745E+03</pdfrwt>
<totfact> 0.26651151E+01</totfact>
</mgrwt>
</event>
<event>
 4    5  0.1905771E-007  0.6895762E+03  0.7818608E-02  0.1004355E+00
          2   -1    0    0  501    0  0.00000000000E+00  0.00000000000E+00  0.14041754583E+04  0.14041754583E+04  0.25500000000E-02 0. -1.
         -2   -1    0    0    0  501 -0.00000000000E+00 -0.00000000000E+00 -0.17196104825E+03  0.17196104827E+03  0.25500000000E-02 0.  1.
    8880023    1    1    2    0    0  0.14882554338E+03 -0.13984298405E+03  0.10727304868E+04  0.12752513501E+04  0.65864270000E+03 0.  0.
    8880022    1    1    2    0    0 -0.14882554338E+03  0.13984298405E+03  0.15948392326E+03  0.30088515640E+03  0.15294330000E+03 0.  0.
<mgrwt>
<rscale>  0 0.53781339E+03</rscale>
<asrwt>0</asrwt>
<pdfrwt beam="1">  1        2 0.21602700E+00 0.68957618E+03</pdfrwt>
<pdfrwt beam="2">  1       -2 0.26455545E-01 0.68957618E+03</pdfrwt>
<totfact> 0.18953098E+02</totfact>
</mgrwt>
</event>
<event>
 4    5  0.1905771E-007  0.7108922E+03  0.7818608E-02  0.9954703E-01
          2   -1    0    0  501    0  0.00000000000E+00  0.00000000000E+00  0.31208842022E+04  0.31208842022E+04  0.25500000000E-02 0. -1.
         -2   -1    0    0    0  501 -0.00000000000E+00 -0.00000000000E+00 -0.14944296281E+03  0.14944296283E+03  0.25500000000E-02 0.  1.
    8880023    1    1    2    0    0  0.18393769496E+03 -0.19422787620E+03  0.28529600877E+04  0.29401954037E+04  0.65864270000E+03 0. -1.
    8880022    1    1    2    0    0 -0.18393769496E+03  0.19422787620E+03  0.11848115166E+03  0.33013176132E+03  0.15294330000E+03 0.  0.
<mgrwt>
<rscale>  0 0.57681857E+03</rscale>
<asrwt>0</asrwt>
<pdfrwt beam="1">  1        2 0.48013598E+00 0.71089222E+03</pdfrwt>
<pdfrwt beam="2">  1       -2 0.22991228E-01 0.71089222E+03</pdfrwt>
<totfact> 0.25994575E+01</totfact>
</mgrwt>
</event>
<event>
 4    5  0.1905771E-007  0.8817026E+03  0.7818608E-02  0.9556067E-01
          2   -1    0    0  501    0  0.00000000000E+00  0.00000000000E+00  0.23224365086E+04  0.23224365086E+04  0.25500000000E-02 0. -1.
         -2   -1    0    0    0  501 -0.00000000000E+00 -0.00000000000E+00 -0.43222350975E+03  0.43222350976E+03  0.25500000000E-02 0.  1.
    8880023    1    1    2    0    0  0.89735621056E+02 -0.57925536367E+03  0.19557747296E+04  0.21453331343E+04  0.65864270000E+03 0. -1.
    8880022    1    1    2    0    0 -0.89735621056E+02  0.57925536367E+03 -0.65561730770E+02  0.60932688402E+03  0.15294330000E+03 0.  0.
<mgrwt>
<rscale>  0 0.80273467E+03</rscale>
<asrwt>0</asrwt>
<pdfrwt beam="1">  1        2 0.35729793E+00 0.88170259E+03</pdfrwt>
<pdfrwt beam="2">  1       -2 0.66495924E-01 0.88170259E+03</pdfrwt>
<totfact> 0.93653857E+00</totfact>
</mgrwt>
</event>
<event>
 4    5  0.1905771E-007  0.7543259E+03  0.7818608E-02  0.9820025E-01
          2   -1    0    0  501    0  0.00000000000E+00  0.00000000000E+00  0.68963192974E+03  0.68963192974E+03  0.25500000000E-02 0. -1.
         -2   -1    0    0    0  501 -0.00000000000E+00 -0.00000000000E+00 -0.25462974633E+04  0.25462974633E+04  0.25500000000E-02 0.  1.
    8880023    1    1    2    0    0 -0.81376653106E+02 -0.35857392775E+03  0.46117154812E+03  0.88413054714E+03  0.65864270000E+03 0. -1.
    8880022    1    1    2    0    0  0.81376653106E+02  0.35857392775E+03 -0.23178370817E+04  0.23517988459E+04  0.15294330000E+03 0.  0.
<mgrwt>
<rscale>  0 0.64298885E+03</rscale>
<asrwt>0</asrwt>
<pdfrwt beam="1">  1        2 0.10609722E+00 0.75432594E+03</pdfrwt>
<pdfrwt beam="2">  1       -2 0.39173807E+00 0.75432594E+03</pdfrwt>
<totfact> 0.37303356E-01</totfact>
</mgrwt>
</event>
<event>
 4    5  0.1905771E-007  0.1322549E+04  0.7818608E-02  0.9046328E-01
          2   -1    0    0  501    0  0.00000000000E+00  0.00000000000E+00  0.10873517301E+04  0.10873517301E+04  0.25500000000E-02 0. -1.
         -2   -1    0    0    0  501 -0.00000000000E+00 -0.00000000000E+00 -0.22013326546E+04  0.22013326546E+04  0.25500000000E-02 0.  1.
    8880023    1    1    2    0    0  0.71431137746E+03  0.89726594051E+03  0.40137225170E+03  0.13821131657E+04  0.65864270000E+03 0.  0.
    8880022    1    1    2    0    0 -0.71431137746E+03 -0.89726594051E+03 -0.15153531762E+04  0.19065712191E+04  0.15294330000E+03 0.  1.
<mgrwt>
<rscale>  0 0.12790723E+04</rscale>
<asrwt>0</asrwt>
<pdfrwt beam="1">  1        2 0.16728488E+00 0.13225495E+04</pdfrwt>
<pdfrwt beam="2">  1       -2 0.33866656E+00 0.13225495E+04</pdfrwt>
<totfact> 0.39284049E-01</totfact>
</mgrwt>
</event>
<event>
 4    5  0.1905771E-007  0.7415617E+03  0.7818608E-02  0.9855421E-01
         -2   -1    0    0    0  501 -0.00000000000E+00  0.00000000000E+00  0.18071551010E+03  0.18071551012E+03  0.25500000000E-02 0.  1.
          2   -1    0    0  501    0  0.00000000000E+00 -0.00000000000E+00 -0.22049212294E+04  0.22049212294E+04  0.25500000000E-02 0. -1.
    8880023    1    1    2    0    0 -0.23160665177E+03 -0.24992377455E+03 -0.18077924027E+04  0.19539772547E+04  0.65864270000E+03 0. -1.
    8880022    1    1    2    0    0  0.23160665177E+03  0.24992377455E+03 -0.21641331656E+03  0.43165948481E+03  0.15294330000E+03 0.  0.
<mgrwt>
<rscale>  0 0.62471275E+03</rscale>
<asrwt>0</asrwt>
<pdfrwt beam="1">  1        2 0.33921863E+00 0.74156169E+03</pdfrwt>
<pdfrwt beam="2">  1       -2 0.27802388E-01 0.74156169E+03</pdfrwt>
<totfact> 0.62616477E+01</totfact>
</mgrwt>
</event>
<event>
 4    5  0.1905771E-007  0.1130312E+04  0.7818608E-02  0.9228035E-01
         -2   -1    0    0    0  501 -0.00000000000E+00  0.00000000000E+00  0.74478433147E+03  0.74478433147E+03  0.25500000000E-02 0.  1.
          2   -1    0    0  501    0  0.00000000000E+00 -0.00000000000E+00 -0.17107373325E+04  0.17107373325E+04  0.25500000000E-02 0. -1.
    8880023    1    1    2    0    0  0.91468608221E+03  0.84523762735E+02 -0.10203110001E+04  0.15227079952E+04  0.65864270000E+03 0.  0.
    8880022    1    1    2    0    0 -0.91468608221E+03 -0.84523762735E+02  0.54357999133E+02  0.93281366871E+03  0.15294330000E+03 0.  0.
<mgrwt>
<rscale>  0 0.10768688E+04</rscale>
<asrwt>0</asrwt>
<pdfrwt beam="1">  1        2 0.26319036E+00 0.11303119E+04</pdfrwt>
<pdfrwt beam="2">  1       -2 0.11458221E+00 0.11303119E+04</pdfrwt>
<totfact> 0.56533812E+00</totfact>
</mgrwt>
</event>
<event>
 4    5  0.1905771E-007  0.1163719E+04  0.7818608E-02  0.9193223E-01
         -2   -1    0    0    0  501 -0.00000000000E+00  0.00000000000E+00  0.63374083308E+03  0.63374083308E+03  0.25500000000E-02 0.  1.
          2   -1    0    0  501    0  0.00000000000E+00 -0.00000000000E+00 -0.21180960630E+04  0.21180960630E+04  0.25500000000E-02 0. -1.
    8880023    1    1    2    0    0 -0.67050958751E+03  0.68618389048E+03 -0.13315157603E+04  0.17683822734E+04  0.65864270000E+03 0.  0.
    8880022    1    1    2    0    0  0.67050958751E+03 -0.68618389048E+03 -0.15283946962E+03  0.98345462274E+03  0.15294330000E+03 0.  0.
<mgrwt>
<rscale>  0 0.11123652E+04</rscale>
<asrwt>0</asrwt>
<pdfrwt beam="1">  1        2 0.32586093E+00 0.11637189E+04</pdfrwt>
<pdfrwt beam="2">  1       -2 0.97498591E-01 0.11637189E+04</pdfrwt>
<totfact> 0.49523062E+00</totfact>
</mgrwt>
</event>
<event>
 4    5  0.1905771E-007  0.1003628E+04  0.7818608E-02  0.9376826E-01
          2   -1    0    0  501    0  0.00000000000E+00  0.00000000000E+00  0.28701895023E+04  0.28701895023E+04  0.25500000000E-02 0. -1.
         -2   -1    0    0    0  501 -0.00000000000E+00 -0.00000000000E+00 -0.79577173922E+03  0.79577173923E+03  0.25500000000E-02 0.  1.
    8880023    1    1    2    0    0 -0.51096845049E+03  0.55890134592E+03  0.25625719371E+04  0.27520982198E+04  0.65864270000E+03 0. -1.
    8880022    1    1    2    0    0  0.51096845049E+03 -0.55890134592E+03 -0.48815417407E+03  0.91386302176E+03  0.15294330000E+03 0.  0.
<mgrwt>
<rscale>  0 0.94007589E+03</rscale>
<asrwt>0</asrwt>
<pdfrwt beam="1">  1        2 0.44156763E+00 0.10036283E+04</pdfrwt>
<pdfrwt beam="2">  1       -2 0.12242642E+00 0.10036283E+04</pdfrwt>
<totfact> 0.10736079E+00</totfact>
</mgrwt>
</event>
<event>
 4    5  0.1905771E-007  0.7782718E+03  0.7818608E-02  0.9759912E-01
          2   -1    0    0  501    0  0.00000000000E+00  0.00000000000E+00  0.24472587186E+04  0.24472587186E+04  0.25500000000E-02 0. -1.
         -2   -1    0    0    0  501 -0.00000000000E+00 -0.00000000000E+00 -0.28584577683E+03  0.28584577684E+03  0.25500000000E-02 0.  1.
    8880023    1    1    2    0    0  0.22446843795E+03 -0.34858390047E+03  0.21549071726E+04  0.22911420611E+04  0.65864270000E+03 0. -1.
    8880022    1    1    2    0    0 -0.22446843795E+03  0.34858390047E+03  0.65057691242E+01  0.44196243432E+03  0.15294330000E+03 0.  0.
<mgrwt>
<rscale>  0 0.67558975E+03</rscale>
<asrwt>0</asrwt>
<pdfrwt beam="1">  1        2 0.37650133E+00 0.77827182E+03</pdfrwt>
<pdfrwt beam="2">  1       -2 0.43976275E-01 0.77827182E+03</pdfrwt>
<totfact> 0.19049754E+01</totfact>
</mgrwt>
</event>
<event>
 4    5  0.1905771E-007  0.1651050E+04  0.7818608E-02  0.8809739E-01
          2   -1    0    0  501    0  0.00000000000E+00  0.00000000000E+00  0.37635280776E+04  0.37635280776E+04  0.25500000000E-02 0. -1.
         -2   -1    0    0    0  501 -0.00000000000E+00 -0.00000000000E+00 -0.89812664487E+03  0.89812664487E+03  0.25500000000E-02 0.  1.
    8880023    1    1    2    0    0 -0.89200078652E+03  0.12233113464E+04  0.26535767598E+04  0.31252897273E+04  0.65864270000E+03 0. -1.
    8880022    1    1    2    0    0  0.89200078652E+03 -0.12233113464E+04  0.21182467300E+03  0.15363649952E+04  0.15294330000E+03 0.  0.
<mgrwt>
<rscale>  0 0.16177146E+04</rscale>
<asrwt>0</asrwt>
<pdfrwt beam="1">  1        2 0.57900432E+00 0.16510500E+04</pdfrwt>
<pdfrwt beam="2">  1       -2 0.13817333E+00 0.16510500E+04</pdfrwt>
<totfact> 0.18300743E-01</totfact>
</mgrwt>
</event>
<event>
 4    5  0.1905771E-007  0.7959487E+03  0.7818608E-02  0.9719625E-01
          2   -1    0    0  501    0  0.00000000000E+00  0.00000000000E+00  0.63398721830E+03  0.63398721830E+03  0.25500000000E-02 0. -1.
         -2   -1    0    0    0  501 -0.00000000000E+00 -0.00000000000E+00 -0.18001666560E+04  0.18001666560E+04  0.25500000000E-02 0.  1.
    8880023    1    1    2    0    0 -0.27449606798E+03 -0.35266987487E+03  0.33264353861E+03  0.86266219462E+03  0.65864270000E+03 0.  0.
    8880022    1    1    2    0    0  0.27449606798E+03  0.35266987487E+03 -0.14988229763E+04  0.15714916796E+04  0.15294330000E+03 0.  0.
<mgrwt>
<rscale>  0 0.69860244E+03</rscale>
<asrwt>0</asrwt>
<pdfrwt beam="1">  1        2 0.97536496E-01 0.79594870E+03</pdfrwt>
<pdfrwt beam="2">  1       -2 0.27694871E+00 0.79594870E+03</pdfrwt>
<totfact> 0.20983128E+00</totfact>
</mgrwt>
</event>
<event>
 4    5  0.2124020E-007  0.9267940E+03  0.7818608E-02  0.9484319E-01
         -2   -1    0    0    0  501 -0.00000000000E+00  0.00000000000E+00  0.91181564981E+03  0.91181564982E+03  0.25500000000E-02 0.  1.
          2   -1    0    0  501    0  0.00000000000E+00 -0.00000000000E+00 -0.16118090263E+04  0.16118090263E+04  0.25500000000E-02 0. -1.
    8880023    1    1    2    0    0  0.46617261363E+02  0.65035668603E+03 -0.13187321425E+04  0.16118317710E+04  0.65864270000E+03 0.  0.
    8880022    1    1    2    0    0 -0.46617261363E+02 -0.65035668603E+03  0.61873876605E+03  0.91179290508E+03  0.15294330000E+03 0.  0.
<mgrwt>
<rscale>  0 0.85449829E+03</rscale>
<asrwt>0</asrwt>
<pdfrwt beam="1">  1        2 0.24797062E+00 0.92679404E+03</pdfrwt>
<pdfrwt beam="2">  1       -2 0.14027933E+00 0.92679404E+03</pdfrwt>
<totfact> 0.39353051E+00</totfact>
</mgrwt>
</event>
<event>
 4    5  0.1905771E-007  0.6979308E+03  0.7818608E-02  0.1000590E+00
         -2   -1    0    0    0  501 -0.00000000000E+00  0.00000000000E+00  0.35513072210E+03  0.35513072211E+03  0.25500000000E-02 0.  1.
          2   -1    0    0  501    0  0.00000000000E+00 -0.00000000000E+00 -0.19997035984E+04  0.19997035984E+04  0.25500000000E-02 0. -1.
    8880023    1    1    2    0    0  0.22179641892E+03  0.64058499968E+02 -0.18711193317E+04  0.19970465450E+04  0.65864270000E+03 0. -1.
    8880022    1    1    2    0    0 -0.22179641892E+03 -0.64058499968E+02  0.22654645542E+03  0.35778777557E+03  0.15294330000E+03 0.  0.
<mgrwt>
<rscale>  0 0.55392472E+03</rscale>
<asrwt>0</asrwt>
<pdfrwt beam="1">  1        2 0.30764670E+00 0.69793076E+03</pdfrwt>
<pdfrwt beam="2">  1       -2 0.54635497E-01 0.69793076E+03</pdfrwt>
<totfact> 0.21941484E+01</totfact>
</mgrwt>
</event>
<event>
 4    5  0.1905771E-007  0.1296441E+04  0.7818608E-02  0.9068639E-01
         -2   -1    0    0    0  501 -0.00000000000E+00  0.00000000000E+00  0.12292567883E+04  0.12292567883E+04  0.25500000000E-02 0.  1.
          2   -1    0    0  501    0  0.00000000000E+00 -0.00000000000E+00 -0.17529796907E+04  0.17529796907E+04  0.25500000000E-02 0. -1.
    8880023    1    1    2    0    0 -0.40761559954E+03 -0.10396145160E+04 -0.11145505105E+04  0.17096730289E+04  0.65864270000E+03 0.  0.
    8880022    1    1    2    0    0  0.40761559954E+03  0.10396145160E+04  0.59082760815E+03  0.12725634501E+04  0.15294330000E+03 0.  0.
<mgrwt>
<rscale>  0 0.12518565E+04</rscale>
<asrwt>0</asrwt>
<pdfrwt beam="1">  1        2 0.26968918E+00 0.12964409E+04</pdfrwt>
<pdfrwt beam="2">  1       -2 0.18911643E+00 0.12964409E+04</pdfrwt>
<totfact> 0.13825525E+00</totfact>
</mgrwt>
</event>
<event>
 4    5  0.1905771E-007  0.1242064E+04  0.7818608E-02  0.9117279E-01
         -2   -1    0    0    0  501 -0.00000000000E+00  0.00000000000E+00  0.62847695598E+03  0.62847695599E+03  0.25500000000E-02 0.  1.
          2   -1    0    0  501    0  0.00000000000E+00 -0.00000000000E+00 -0.24223303561E+04  0.24223303561E+04  0.25500000000E-02 0. -1.
    8880023    1    1    2    0    0 -0.82923304183E+03  0.64906524557E+03 -0.14987859637E+04  0.19465566269E+04  0.65864270000E+03 0. -1.
    8880022    1    1    2    0    0  0.82923304183E+03 -0.64906524557E+03 -0.29506743648E+03  0.11042506852E+04  0.15294330000E+03 0.  0.
<mgrwt>
<rscale>  0 0.11949602E+04</rscale>
<asrwt>0</asrwt>
<pdfrwt beam="1">  1        2 0.37266621E+00 0.12420641E+04</pdfrwt>
<pdfrwt beam="2">  1       -2 0.96688763E-01 0.12420641E+04</pdfrwt>
<totfact> 0.33772595E+00</totfact>
</mgrwt>
</event>
<event>
 4    5  0.1905771E-007  0.6599687E+03  0.7818608E-02  0.1024189E+00
          2   -1    0    0  501    0  0.00000000000E+00  0.00000000000E+00  0.24535756136E+03  0.24535756138E+03  0.25500000000E-02 0. -1.
         -2   -1    0    0    0  501 -0.00000000000E+00 -0.00000000000E+00 -0.13450829421E+04  0.13450829421E+04  0.25500000000E-02 0.  1.
    8880023    1    1    2    0    0  0.33664176419E+02 -0.24802852479E+02 -0.21870010717E+03  0.69526139070E+03  0.65864270000E+03 0. -1.
    8880022    1    1    2    0    0 -0.33664176419E+02  0.24802852479E+02 -0.88102527357E+03  0.89517911278E+03  0.15294330000E+03 0.  0.
<mgrwt>
<rscale>  0 0.46204938E+03</rscale>
<asrwt>0</asrwt>
<pdfrwt beam="1">  1        2 0.37747318E-01 0.65996868E+03</pdfrwt>
<pdfrwt beam="2">  1       -2 0.20693583E+00 0.65996868E+03</pdfrwt>
<totfact> 0.16904699E+01</totfact>
</mgrwt>
</event>
<event>
 4    5  0.1905771E-007  0.9068546E+03  0.7818608E-02  0.9515116E-01
         -2   -1    0    0    0  501 -0.00000000000E+00  0.00000000000E+00  0.82884813247E+03  0.82884813247E+03  0.25500000000E-02 0.  1.
          2   -1    0    0  501    0  0.00000000000E+00 -0.00000000000E+00 -0.12655486313E+04  0.12655486313E+04  0.25500000000E-02 0. -1.
    8880023    1    1    2    0    0 -0.61721296803E+03  0.87310597334E+02 -0.91933289992E+03  0.12913396824E+04  0.65864270000E+03 0. -1.
    8880022    1    1    2    0    0  0.61721296803E+03 -0.87310597334E+02  0.48263240108E+03  0.80305708134E+03  0.15294330000E+03 0.  0.
<mgrwt>
<rscale>  0 0.83178481E+03</rscale>
<asrwt>0</asrwt>
<pdfrwt beam="1">  1        2 0.19469979E+00 0.90685456E+03</pdfrwt>
<pdfrwt beam="2">  1       -2 0.12751510E+00 0.90685456E+03</pdfrwt>
<totfact> 0.79137923E+00</totfact>
</mgrwt>
</event>
<event>
 4    5  0.1905771E-007  0.1609561E+04  0.7818608E-02  0.8835911E-01
         -2   -1    0    0    0  501 -0.00000000000E+00  0.00000000000E+00  0.10250748461E+04  0.10250748461E+04  0.25500000000E-02 0.  1.
          2   -1    0    0  501    0  0.00000000000E+00 -0.00000000000E+00 -0.39347189089E+04  0.39347189089E+04  0.25500000000E-02 0. -1.
    8880023    1    1    2    0    0 -0.12403119284E+04  0.78644905314E+03 -0.30782163950E+04  0.34736295390E+04  0.65864270000E+03 0.  0.
    8880022    1    1    2    0    0  0.12403119284E+04 -0.78644905314E+03  0.16857233229E+03  0.14861642161E+04  0.15294330000E+03 0.  0.
<mgrwt>
<rscale>  0 0.15752310E+04</rscale>
<asrwt>0</asrwt>
<pdfrwt beam="1">  1        2 0.60534136E+00 0.16095608E+04</pdfrwt>
<pdfrwt beam="2">  1       -2 0.15770382E+00 0.16095608E+04</pdfrwt>
<totfact> 0.95536744E-02</totfact>
</mgrwt>
</event>
<event>
 4    5  0.1905771E-007  0.6998280E+03  0.7818608E-02  0.9997916E-01
          2   -1    0    0  501    0  0.00000000000E+00  0.00000000000E+00  0.30403716220E+04  0.30403716220E+04  0.25500000000E-02 0. -1.
         -2   -1    0    0    0  501 -0.00000000000E+00 -0.00000000000E+00 -0.83735224143E+02  0.83735224182E+02  0.25500000000E-02 0.  1.
    8880023    1    1    2    0    0  0.12460353342E+03 -0.20105454341E+03  0.24044967514E+04  0.25042691156E+04  0.65864270000E+03 0. -1.
    8880022    1    1    2    0    0 -0.12460353342E+03  0.20105454341E+03  0.55213964653E+03  0.61983773058E+03  0.15294330000E+03 0. -1.
<mgrwt>
<rscale>  0 0.55741727E+03</rscale>
<asrwt>0</asrwt>
<pdfrwt beam="1">  1        2 0.46774951E+00 0.69982796E+03</pdfrwt>
<pdfrwt beam="2">  1       -2 0.12882341E-01 0.69982796E+03</pdfrwt>
<totfact> 0.79041727E+01</totfact>
</mgrwt>
</event>
<event>
 4    5  0.1905771E-007  0.8369389E+03  0.7818608E-02  0.9635980E-01
         -2   -1    0    0    0  501 -0.00000000000E+00  0.00000000000E+00  0.47954594444E+03  0.47954594445E+03  0.25500000000E-02 0.  1.
          2   -1    0    0  501    0  0.00000000000E+00 -0.00000000000E+00 -0.19725149418E+04  0.19725149418E+04  0.25500000000E-02 0. -1.
    8880023    1    1    2    0    0 -0.70422502342E+00  0.51638739013E+03 -0.16840910796E+04  0.18805928329E+04  0.65864270000E+03 0. -1.
    8880022    1    1    2    0    0  0.70422502342E+00 -0.51638739013E+03  0.19112208224E+03  0.57146805331E+03  0.15294330000E+03 0.  0.
<mgrwt>
<rscale>  0 0.74959908E+03</rscale>
<asrwt>0</asrwt>
<pdfrwt beam="1">  1        2 0.30346383E+00 0.83693885E+03</pdfrwt>
<pdfrwt beam="2">  1       -2 0.73776300E-01 0.83693885E+03</pdfrwt>
<totfact> 0.11713996E+01</totfact>
</mgrwt>
</event>
<event>
 4    5  0.1905771E-007  0.1230595E+04  0.7818608E-02  0.9127940E-01
         -2   -1    0    0    0  501 -0.00000000000E+00  0.00000000000E+00  0.76087711254E+03  0.76087711255E+03  0.25500000000E-02 0.  1.
          2   -1    0    0  501    0  0.00000000000E+00 -0.00000000000E+00 -0.19766163164E+04  0.19766163164E+04  0.25500000000E-02 0. -1.
    8880023    1    1    2    0    0 -0.33226395637E+03 -0.98496459112E+03 -0.11507263464E+04  0.16847955107E+04  0.65864270000E+03 0.  0.
    8880022    1    1    2    0    0  0.33226395637E+03  0.98496459112E+03 -0.65012857518E+02  0.10526979183E+04  0.15294330000E+03 0.  0.
<mgrwt>
<rscale>  0 0.11829188E+04</rscale>
<asrwt>0</asrwt>
<pdfrwt beam="1">  1        2 0.30409482E+00 0.12305953E+04</pdfrwt>
<pdfrwt beam="2">  1       -2 0.11705802E+00 0.12305953E+04</pdfrwt>
<totfact> 0.37838183E+00</totfact>
</mgrwt>
</event>
<event>
 4    5  0.1905771E-007  0.9532980E+03  0.7818608E-02  0.9445385E-01
          2   -1    0    0  501    0  0.00000000000E+00  0.00000000000E+00  0.13559136757E+04  0.13559136757E+04  0.25500000000E-02 0. -1.
         -2   -1    0    0    0  501 -0.00000000000E+00 -0.00000000000E+00 -0.27917580137E+04  0.27917580137E+04  0.25500000000E-02 0.  1.
    8880023    1    1    2    0    0  0.67345948338E+03 -0.14635321444E+03  0.11346732997E+04  0.14819786242E+04  0.65864270000E+03 0.  0.
    8880022    1    1    2    0    0 -0.67345948338E+03  0.14635321444E+03 -0.25705176378E+04  0.26656930653E+04  0.15294330000E+03 0.  0.
<mgrwt>
<rscale>  0 0.88432982E+03</rscale>
<asrwt>0</asrwt>
<pdfrwt beam="1">  1        2 0.20860210E+00 0.95329804E+03</pdfrwt>
<pdfrwt beam="2">  1       -2 0.42950123E+00 0.95329804E+03</pdfrwt>
<totfact> 0.74837697E-02</totfact>
</mgrwt>
</event>
<event>
 4    5  0.1905771E-007  0.1523843E+04  0.7818608E-02  0.8892981E-01
         -2   -1    0    0    0  501 -0.00000000000E+00  0.00000000000E+00  0.15607817253E+04  0.15607817253E+04  0.25500000000E-02 0.  1.
          2   -1    0    0  501    0  0.00000000000E+00 -0.00000000000E+00 -0.15600892917E+04  0.15600892918E+04  0.25500000000E-02 0. -1.
    8880023    1    1    2    0    0 -0.10874248084E+04  0.84011557694E+03  0.56815884617E+03  0.16263153376E+04  0.65864270000E+03 0.  0.
    8880022    1    1    2    0    0  0.10874248084E+04 -0.84011557694E+03 -0.56746641260E+03  0.14945556795E+04  0.15294330000E+03 0.  0.
<mgrwt>
<rscale>  0 0.14872432E+04</rscale>
<asrwt>0</asrwt>
<pdfrwt beam="1">  1        2 0.24001374E+00 0.15238429E+04</pdfrwt>
<pdfrwt beam="2">  1       -2 0.24012027E+00 0.15238429E+04</pdfrwt>
<totfact> 0.81436606E-01</totfact>
</mgrwt>
</event>
<event>
 4    5  0.1905771E-007  0.1397915E+04  0.7818608E-02  0.8985304E-01
          2   -1    0    0  501    0  0.00000000000E+00  0.00000000000E+00  0.25374285060E+04  0.25374285060E+04  0.25500000000E-02 0. -1.
         -2   -1    0    0    0  501 -0.00000000000E+00 -0.00000000000E+00 -0.12295342753E+04  0.12295342753E+04  0.25500000000E-02 0.  1.
    8880023    1    1    2    0    0 -0.10634241162E+04 -0.62408777953E+03  0.19255129078E+04  0.23794466945E+04  0.65864270000E+03 0.  0.
    8880022    1    1    2    0    0  0.10634241162E+04  0.62408777953E+03 -0.61761867715E+03  0.13875160867E+04  0.15294330000E+03 0.  0.
<mgrwt>
<rscale>  0 0.13573213E+04</rscale>
<asrwt>0</asrwt>
<pdfrwt beam="1">  1        2 0.39037362E+00 0.13979151E+04</pdfrwt>
<pdfrwt beam="2">  1       -2 0.18915912E+00 0.13979151E+04</pdfrwt>
<totfact> 0.49484439E-01</totfact>
</mgrwt>
</event>
<event>
 4    5  0.1905771E-007  0.9649188E+03  0.7818608E-02  0.9428966E-01
          2   -1    0    0  501    0  0.00000000000E+00  0.00000000000E+00  0.33492714707E+04  0.33492714707E+04  0.25500000000E-02 0. -1.
         -2   -1    0    0    0  501 -0.00000000000E+00 -0.00000000000E+00 -0.54257833446E+03  0.54257833447E+03  0.25500000000E-02 0.  1.
    8880023    1    1    2    0    0  0.59032043871E+03 -0.38571995315E+03  0.29946031916E+04  0.31462225897E+04  0.65864270000E+03 0.  0.
    8880022    1    1    2    0    0 -0.59032043871E+03  0.38571995315E+03 -0.18791005530E+03  0.74562721552E+03  0.15294330000E+03 0.  0.
<mgrwt>
<rscale>  0 0.89729715E+03</rscale>
<asrwt>0</asrwt>
<pdfrwt beam="1">  1        2 0.51527254E+00 0.96491881E+03</pdfrwt>
<pdfrwt beam="2">  1       -2 0.83473589E-01 0.96491881E+03</pdfrwt>
<totfact> 0.13433692E+00</totfact>
</mgrwt>
</event>
<event>
 4    5  0.1905771E-007  0.7178021E+03  0.7818608E-02  0.9930094E-01
         -2   -1    0    0    0  501 -0.00000000000E+00  0.00000000000E+00  0.47357156436E+03  0.47357156437E+03  0.25500000000E-02 0.  1.
          2   -1    0    0  501    0  0.00000000000E+00 -0.00000000000E+00 -0.11812737560E+04  0.11812737560E+04  0.25500000000E-02 0. -1.
    8880023    1    1    2    0    0 -0.15255258094E+03 -0.24115838568E+03 -0.99167168358E+03  0.12241946705E+04  0.65864270000E+03 0. -1.
    8880022    1    1    2    0    0  0.15255258094E+03  0.24115838568E+03  0.28396949191E+03  0.43065064993E+03  0.15294330000E+03 0.  0.
<mgrwt>
<rscale>  0 0.58824703E+03</rscale>
<asrwt>0</asrwt>
<pdfrwt beam="1">  1        2 0.18173442E+00 0.71780211E+03</pdfrwt>
<pdfrwt beam="2">  1       -2 0.72857164E-01 0.71780211E+03</pdfrwt>
<totfact> 0.33809697E+01</totfact>
</mgrwt>
</event>
<event>
 4    5  0.1905771E-007  0.8713054E+03  0.7818608E-02  0.9573761E-01
          2   -1    0    0  501    0  0.00000000000E+00  0.00000000000E+00  0.14997902349E+04  0.14997902349E+04  0.25500000000E-02 0. -1.
         -2   -1    0    0    0  501 -0.00000000000E+00 -0.00000000000E+00 -0.42281820344E+03  0.42281820345E+03  0.25500000000E-02 0.  1.
    8880023    1    1    2    0    0  0.32161272578E+03 -0.47109246153E+03  0.10011516056E+04  0.13272066894E+04  0.65864270000E+03 0.  0.
    8880022    1    1    2    0    0 -0.32161272578E+03  0.47109246153E+03  0.75820425870E+02  0.59540174898E+03  0.15294330000E+03 0.  0.
<mgrwt>
<rscale>  0 0.79057445E+03</rscale>
<asrwt>0</asrwt>
<pdfrwt beam="1">  1        2 0.23073696E+00 0.87130538E+03</pdfrwt>
<pdfrwt beam="2">  1       -2 0.65048954E-01 0.87130538E+03</pdfrwt>
<totfact> 0.27956803E+01</totfact>
</mgrwt>
</event>
<event>
 4    5  0.1905771E-007  0.9578194E+03  0.7818608E-02  0.9438952E-01
         -2   -1    0    0    0  501 -0.00000000000E+00  0.00000000000E+00  0.10987807543E+04  0.10987807543E+04  0.25500000000E-02 0.  1.
          2   -1    0    0  501    0  0.00000000000E+00 -0.00000000000E+00 -0.16897435200E+04  0.16897435200E+04  0.25500000000E-02 0. -1.
    8880023    1    1    2    0    0 -0.68963056500E+03  0.89540411909E+02 -0.14091726534E+04  0.17038736969E+04  0.65864270000E+03 0. -1.
    8880022    1    1    2    0    0  0.68963056500E+03 -0.89540411909E+02  0.81820988781E+03  0.10846505774E+04  0.15294330000E+03 0.  0.
<mgrwt>
<rscale>  0 0.88938266E+03</rscale>
<asrwt>0</asrwt>
<pdfrwt beam="1">  1        2 0.25996054E+00 0.95781940E+03</pdfrwt>
<pdfrwt beam="2">  1       -2 0.16904319E+00 0.95781940E+03</pdfrwt>
<totfact> 0.21507626E+00</totfact>
</mgrwt>
</event>
<event>
 4    5  0.1905771E-007  0.1036675E+04  0.7818608E-02  0.9335074E-01
         -2   -1    0    0    0  501 -0.00000000000E+00  0.00000000000E+00  0.82104268703E+03  0.82104268704E+03  0.25500000000E-02 0.  1.
          2   -1    0    0  501    0  0.00000000000E+00 -0.00000000000E+00 -0.12614924108E+04  0.12614924109E+04  0.25500000000E-02 0. -1.
    8880023    1    1    2    0    0 -0.56503904447E+03 -0.56711159868E+03 -0.67178397143E+03  0.12353091102E+04  0.65864270000E+03 0.  0.
    8880022    1    1    2    0    0  0.56503904447E+03  0.56711159868E+03  0.23133424761E+03  0.84722598772E+03  0.15294330000E+03 0.  0.
<mgrwt>
<rscale>  0 0.97617019E+03</rscale>
<asrwt>0</asrwt>
<pdfrwt beam="1">  1        2 0.19407576E+00 0.10366749E+04</pdfrwt>
<pdfrwt beam="2">  1       -2 0.12631426E+00 0.10366749E+04</pdfrwt>
<totfact> 0.80430366E+00</totfact>
</mgrwt>
</event>
<event>
 4    5  0.1905771E-007  0.8681814E+03  0.7818608E-02  0.9579173E-01
          2   -1    0    0  501    0  0.00000000000E+00  0.00000000000E+00  0.24144336544E+04  0.24144336544E+04  0.25500000000E-02 0. -1.
         -2   -1    0    0    0  501 -0.00000000000E+00 -0.00000000000E+00 -0.46780076046E+03  0.46780076047E+03  0.25500000000E-02 0.  1.
    8880023    1    1    2    0    0 -0.49323854909E+03 -0.27684738097E+03  0.21035362913E+04  0.22756546033E+04  0.65864270000E+03 0. -1.
    8880022    1    1    2    0    0  0.49323854909E+03  0.27684738097E+03 -0.15690339734E+03  0.60657981154E+03  0.15294330000E+03 0.  0.
<mgrwt>
<rscale>  0 0.78690138E+03</rscale>
<asrwt>0</asrwt>
<pdfrwt beam="1">  1        2 0.37145133E+00 0.86818140E+03</pdfrwt>
<pdfrwt beam="2">  1       -2 0.71969349E-01 0.86818140E+03</pdfrwt>
<totfact> 0.70097857E+00</totfact>
</mgrwt>
</event>
<event>
 4    5  0.1905771E-007  0.9692521E+03  0.7818608E-02  0.9422939E-01
          2   -1    0    0  501    0  0.00000000000E+00  0.00000000000E+00  0.31392395818E+04  0.31392395818E+04  0.25500000000E-02 0. -1.
         -2   -1    0    0    0  501 -0.00000000000E+00 -0.00000000000E+00 -0.27386240917E+03  0.27386240918E+03  0.25500000000E-02 0.  1.
    8880023    1    1    2    0    0 -0.54032659655E+03  0.46226252271E+03  0.22867163999E+04  0.24836508553E+04  0.65864270000E+03 0. -1.
    8880022    1    1    2    0    0  0.54032659655E+03 -0.46226252271E+03  0.57866077273E+03  0.92945113575E+03  0.15294330000E+03 0.  0.
<mgrwt>
<rscale>  0 0.90211670E+03</rscale>
<asrwt>0</asrwt>
<pdfrwt beam="1">  1        2 0.48295995E+00 0.96925212E+03</pdfrwt>
<pdfrwt beam="2">  1       -2 0.42132677E-01 0.96925212E+03</pdfrwt>
<totfact> 0.78178359E+00</totfact>
</mgrwt>
</event>
<event>
 4    5  0.1905771E-007  0.1032664E+04  0.7818608E-02  0.9340018E-01
         -2   -1    0    0    0  501 -0.00000000000E+00  0.00000000000E+00  0.11648377893E+04  0.11648377893E+04  0.25500000000E-02 0.  1.
          2   -1    0    0  501    0  0.00000000000E+00 -0.00000000000E+00 -0.25275586775E+04  0.25275586775E+04  0.25500000000E-02 0. -1.
    8880023    1    1    2    0    0 -0.72500055038E+03  0.32704438076E+03 -0.22593283061E+04  0.24841413861E+04  0.65864270000E+03 0.  0.
    8880022    1    1    2    0    0  0.72500055038E+03 -0.32704438076E+03  0.89660741792E+03  0.12082550807E+04  0.15294330000E+03 0.  0.
<mgrwt>
<rscale>  0 0.97180715E+03</rscale>
<asrwt>0</asrwt>
<pdfrwt beam="1">  1        2 0.38885518E+00 0.10326636E+04</pdfrwt>
<pdfrwt beam="2">  1       -2 0.17920581E+00 0.10326636E+04</pdfrwt>
<totfact> 0.61671265E-01</totfact>
</mgrwt>
</event>
<event>
 4    5  0.1905771E-007  0.7057940E+03  0.7818608E-02  0.9973964E-01
          2   -1    0    0  501    0  0.00000000000E+00  0.00000000000E+00  0.19775543022E+04  0.19775543022E+04  0.25500000000E-02 0. -1.
         -2   -1    0    0    0  501 -0.00000000000E+00 -0.00000000000E+00 -0.64208071296E+03  0.64208071297E+03  0.25500000000E-02 0.  1.
    8880023    1    1    2    0    0 -0.24515145243E+03 -0.65082691172E+02  0.18753948075E+04  0.20038090931E+04  0.65864270000E+03 0. -1.
    8880022    1    1    2    0    0  0.24515145243E+03  0.65082691172E+02 -0.53992121828E+03  0.61582592206E+03  0.15294330000E+03 0.  0.
<mgrwt>
<rscale>  0 0.56806747E+03</rscale>
<asrwt>0</asrwt>
<pdfrwt beam="1">  1        2 0.30423912E+00 0.70579402E+03</pdfrwt>
<pdfrwt beam="2">  1       -2 0.98781648E-01 0.70579402E+03</pdfrwt>
<totfact> 0.60980372E+00</totfact>
</mgrwt>
</event>
<event>
 4    5  0.1905771E-007  0.8597669E+03  0.7818608E-02  0.9593978E-01
          2   -1    0    0  501    0  0.00000000000E+00  0.00000000000E+00  0.16025848540E+04  0.16025848540E+04  0.25500000000E-02 0. -1.
         -2   -1    0    0    0  501 -0.00000000000E+00 -0.00000000000E+00 -0.33973520028E+03  0.33973520029E+03  0.25500000000E-02 0.  1.
    8880023    1    1    2    0    0 -0.47551889967E+03 -0.28155037751E+03  0.97762822479E+03  0.13019047550E+04  0.65864270000E+03 0.  0.
    8880022    1    1    2    0    0  0.47551889967E+03  0.28155037751E+03  0.28522142896E+03  0.64041529930E+03  0.15294330000E+03 0.  0.
<mgrwt>
<rscale>  0 0.77696021E+03</rscale>
<asrwt>0</asrwt>
<pdfrwt beam="1">  1        2 0.24655152E+00 0.85976686E+03</pdfrwt>
<pdfrwt beam="2">  1       -2 0.52266954E-01 0.85976686E+03</pdfrwt>
<totfact> 0.38881011E+01</totfact>
</mgrwt>
</event>
<event>
 4    5  0.2238207E-007  0.1127950E+04  0.7818608E-02  0.9230557E-01
         -2   -1    0    0    0  501 -0.00000000000E+00  0.00000000000E+00  0.16491568442E+04  0.16491568442E+04  0.25500000000E-02 0.  1.
          2   -1    0    0  501    0  0.00000000000E+00 -0.00000000000E+00 -0.33297084252E+04  0.33297084252E+04  0.25500000000E-02 0. -1.
    8880023    1    1    2    0    0 -0.44634336282E+03 -0.79952381484E+03 -0.30909650151E+04  0.32903397482E+04  0.65864270000E+03 0. -1.
    8880022    1    1    2    0    0  0.44634336282E+03  0.79952381484E+03  0.14104134340E+04  0.16885255212E+04  0.15294330000E+03 0.  0.
<mgrwt>
<rscale>  0 0.10743517E+04</rscale>
<asrwt>0</asrwt>
<pdfrwt beam="1">  1        2 0.51226283E+00 0.11279499E+04</pdfrwt>
<pdfrwt beam="2">  1       -2 0.25371644E+00 0.11279499E+04</pdfrwt>
<totfact> 0.65165832E-02</totfact>
</mgrwt>
</event>
<event>
 4    5  0.1905771E-007  0.1264390E+04  0.7818608E-02  0.9096938E-01
          2   -1    0    0  501    0  0.00000000000E+00  0.00000000000E+00  0.11174671324E+04  0.11174671324E+04  0.25500000000E-02 0. -1.
         -2   -1    0    0    0  501 -0.00000000000E+00 -0.00000000000E+00 -0.21557640797E+04  0.21557640797E+04  0.25500000000E-02 0.  1.
    8880023    1    1    2    0    0 -0.10196451141E+04 -0.35382881635E+03  0.52363326079E+03  0.13685294984E+04  0.65864270000E+03 0. -1.
    8880022    1    1    2    0    0  0.10196451141E+04  0.35382881635E+03 -0.15619302081E+04  0.19047017137E+04  0.15294330000E+03 0.  0.
<mgrwt>
<rscale>  0 0.12183575E+04</rscale>
<asrwt>0</asrwt>
<pdfrwt beam="1">  1        2 0.17191802E+00 0.12643897E+04</pdfrwt>
<pdfrwt beam="2">  1       -2 0.33165601E+00 0.12643897E+04</pdfrwt>
<totfact> 0.41880347E-01</totfact>
</mgrwt>
</event>
<event>
 4    5  0.1905771E-007  0.7253544E+03  0.7818608E-02  0.9904868E-01
          2   -1    0    0  501    0  0.00000000000E+00  0.00000000000E+00  0.12458390810E+04  0.12458390810E+04  0.25500000000E-02 0. -1.
         -2   -1    0    0    0  501 -0.00000000000E+00 -0.00000000000E+00 -0.78411819322E+03  0.78411819322E+03  0.25500000000E-02 0.  1.
    8880023    1    1    2    0    0  0.24579595755E+03  0.17864259989E+03  0.10936233259E+04  0.13123075159E+04  0.65864270000E+03 0. -1.
    8880022    1    1    2    0    0 -0.24579595755E+03 -0.17864259989E+03 -0.63190243811E+03  0.71764975827E+03  0.15294330000E+03 0.  0.
<mgrwt>
<rscale>  0 0.60025941E+03</rscale>
<asrwt>0</asrwt>
<pdfrwt beam="1">  1        2 0.19166755E+00 0.72535442E+03</pdfrwt>
<pdfrwt beam="2">  1       -2 0.12063357E+00 0.72535442E+03</pdfrwt>
<totfact> 0.95445753E+00</totfact>
</mgrwt>
</event>
<event>
 4    5  0.1905771E-007  0.7060967E+03  0.7818608E-02  0.9972792E-01
         -2   -1    0    0    0  501 -0.00000000000E+00  0.00000000000E+00  0.74857164535E+03  0.74857164536E+03  0.25500000000E-02 0.  1.
          2   -1    0    0  501    0  0.00000000000E+00 -0.00000000000E+00 -0.18260084213E+04  0.18260084214E+04  0.25500000000E-02 0. -1.
    8880023    1    1    2    0    0  0.21809287936E+03  0.13114040668E+03 -0.17240597860E+04  0.18630498282E+04  0.65864270000E+03 0. -1.
    8880022    1    1    2    0    0 -0.21809287936E+03 -0.13114040668E+03  0.64662300999E+03  0.71153023854E+03  0.15294330000E+03 0.  0.
<mgrwt>
<rscale>  0 0.56859542E+03</rscale>
<asrwt>0</asrwt>
<pdfrwt beam="1">  1        2 0.28092437E+00 0.70609668E+03</pdfrwt>
<pdfrwt beam="2">  1       -2 0.11516487E+00 0.70609668E+03</pdfrwt>
<totfact> 0.50981225E+00</totfact>
</mgrwt>
</event>
<event>
 4    5  0.1905771E-007  0.7273377E+03  0.7818608E-02  0.9898497E-01
         -2   -1    0    0    0  501 -0.00000000000E+00  0.00000000000E+00  0.54990370982E+03  0.54990370982E+03  0.25500000000E-02 0.  1.
          2   -1    0    0  501    0  0.00000000000E+00 -0.00000000000E+00 -0.10360297372E+04  0.10360297372E+04  0.25500000000E-02 0. -1.
    8880023    1    1    2    0    0  0.69522038321E+02 -0.30062706821E+03 -0.82702442300E+03  0.11013580483E+04  0.65864270000E+03 0. -1.
    8880022    1    1    2    0    0 -0.69522038321E+02  0.30062706821E+03  0.34089839562E+03  0.48457539878E+03  0.15294330000E+03 0.  0.
<mgrwt>
<rscale>  0 0.60334178E+03</rscale>
<asrwt>0</asrwt>
<pdfrwt beam="1">  1        2 0.15938919E+00 0.72733772E+03</pdfrwt>
<pdfrwt beam="2">  1       -2 0.84600571E-01 0.72733772E+03</pdfrwt>
<totfact> 0.29643395E+01</totfact>
</mgrwt>
</event>
<event>
 4    5  0.1905771E-007  0.9891856E+03  0.7818608E-02  0.9395845E-01
          2   -1    0    0  501    0  0.00000000000E+00  0.00000000000E+00  0.15721348617E+04  0.15721348617E+04  0.25500000000E-02 0. -1.
         -2   -1    0    0    0  501 -0.00000000000E+00 -0.00000000000E+00 -0.11237302904E+04  0.11237302904E+04  0.25500000000E-02 0.  1.
    8880023    1    1    2    0    0  0.41330411106E+03  0.61143892968E+03  0.12510135357E+04  0.15948426022E+04  0.65864270000E+03 0.  0.
    8880022    1    1    2    0    0 -0.41330411106E+03 -0.61143892968E+03 -0.80260896438E+03  0.11010225500E+04  0.15294330000E+03 0.  0.
<mgrwt>
<rscale>  0 0.92418413E+03</rscale>
<asrwt>0</asrwt>
<pdfrwt beam="1">  1        2 0.24186690E+00 0.98918555E+03</pdfrwt>
<pdfrwt beam="2">  1       -2 0.17288158E+00 0.98918555E+03</pdfrwt>
<totfact> 0.23378484E+00</totfact>
</mgrwt>
</event>
<event>
 4    5  0.1905771E-007  0.6746323E+03  0.7818608E-02  0.1012539E+00
          2   -1    0    0  501    0  0.00000000000E+00  0.00000000000E+00  0.22389895522E+04  0.22389895522E+04  0.25500000000E-02 0. -1.
         -2   -1    0    0    0  501 -0.00000000000E+00 -0.00000000000E+00 -0.22337118622E+03  0.22337118623E+03  0.25500000000E-02 0.  1.
    8880023    1    1    2    0    0  0.60481021832E+02  0.13289295697E+03  0.21212867267E+04  0.22259798012E+04  0.65864270000E+03 0. -1.
    8880022    1    1    2    0    0 -0.60481021832E+02 -0.13289295697E+03 -0.10566836075E+03  0.23638093725E+03  0.15294330000E+03 0.  0.
<mgrwt>
<rscale>  0 0.50477878E+03</rscale>
<asrwt>0</asrwt>
<pdfrwt beam="1">  1        2 0.34445993E+00 0.67463227E+03</pdfrwt>
<pdfrwt beam="2">  1       -2 0.34364798E-01 0.67463227E+03</pdfrwt>
<totfact> 0.40764386E+01</totfact>
</mgrwt>
</event>
<event>
 4    5  0.1905771E-007  0.6959666E+03  0.7818608E-02  0.1001436E+00
         -2   -1    0    0    0  501 -0.00000000000E+00  0.00000000000E+00  0.80226521923E+03  0.80226521924E+03  0.25500000000E-02 0.  1.
          2   -1    0    0  501    0  0.00000000000E+00 -0.00000000000E+00 -0.68037551147E+03  0.68037551148E+03  0.25500000000E-02 0. -1.
    8880023    1    1    2    0    0  0.21632641785E+03  0.61336487924E+02 -0.46417562035E+03  0.83655752737E+03  0.65864270000E+03 0. -1.
    8880022    1    1    2    0    0 -0.21632641785E+03 -0.61336487924E+02  0.58606532811E+03  0.64608320334E+03  0.15294330000E+03 0.  0.
<mgrwt>
<rscale>  0 0.55024899E+03</rscale>
<asrwt>0</asrwt>
<pdfrwt beam="1">  1        2 0.10467316E+00 0.69596659E+03</pdfrwt>
<pdfrwt beam="2">  1       -2 0.12342542E+00 0.69596659E+03</pdfrwt>
<totfact> 0.21419794E+01</totfact>
</mgrwt>
</event>
<event>
 4    5  0.1905771E-007  0.8102798E+03  0.7818608E-02  0.9688994E-01
          2   -1    0    0  501    0  0.00000000000E+00  0.00000000000E+00  0.28746105629E+04  0.28746105629E+04  0.25500000000E-02 0. -1.
         -2   -1    0    0    0  501 -0.00000000000E+00 -0.00000000000E+00 -0.38390069847E+03  0.38390069847E+03  0.25500000000E-02 0.  1.
    8880023    1    1    2    0    0  0.25701801594E+03 -0.39583441696E+03  0.26227979535E+04  0.27451088243E+04  0.65864270000E+03 0. -1.
    8880022    1    1    2    0    0 -0.25701801594E+03  0.39583441696E+03 -0.13208808901E+03  0.51340243712E+03  0.15294330000E+03 0.  0.
<mgrwt>
<rscale>  0 0.71675856E+03</rscale>
<asrwt>0</asrwt>
<pdfrwt beam="1">  1        2 0.44224778E+00 0.81027980E+03</pdfrwt>
<pdfrwt beam="2">  1       -2 0.59061646E-01 0.81027980E+03</pdfrwt>
<totfact> 0.58551350E+00</totfact>
</mgrwt>
</event>
<event>
 4    5  0.1905771E-007  0.7009034E+03  0.7818608E-02  0.9993474E-01
         -2   -1    0    0    0  501 -0.00000000000E+00  0.00000000000E+00  0.29172020236E+03  0.29172020237E+03  0.25500000000E-02 0.  1.
          2   -1    0    0  501    0  0.00000000000E+00 -0.00000000000E+00 -0.17819543949E+04  0.17819543949E+04  0.25500000000E-02 0. -1.
    8880023    1    1    2    0    0  0.17347231862E+03 -0.16541676042E+03 -0.16169912998E+04  0.17623638727E+04  0.65864270000E+03 0. -1.
    8880022    1    1    2    0    0 -0.17347231862E+03  0.16541676042E+03  0.12675710728E+03  0.31131072454E+03  0.15294330000E+03 0.  0.
<mgrwt>
<rscale>  0 0.55937314E+03</rscale>
<asrwt>0</asrwt>
<pdfrwt beam="1">  1        2 0.27414682E+00 0.70090339E+03</pdfrwt>
<pdfrwt beam="2">  1       -2 0.44880032E-01 0.70090339E+03</pdfrwt>
<totfact> 0.42945696E+01</totfact>
</mgrwt>
</event>
<event>
 4    5  0.1905771E-007  0.9049296E+03  0.7818608E-02  0.9518164E-01
          2   -1    0    0  501    0  0.00000000000E+00  0.00000000000E+00  0.15199523796E+04  0.15199523796E+04  0.25500000000E-02 0. -1.
         -2   -1    0    0    0  501 -0.00000000000E+00 -0.00000000000E+00 -0.82841995702E+03  0.82841995703E+03  0.25500000000E-02 0.  1.
    8880023    1    1    2    0    0 -0.54249959522E+03  0.30129970345E+03  0.12200569941E+04  0.15190248837E+04  0.65864270000E+03 0. -1.
    8880022    1    1    2    0    0  0.54249959522E+03 -0.30129970345E+03 -0.52852457148E+03  0.82934745299E+03  0.15294330000E+03 0.  0.
<mgrwt>
<rscale>  0 0.82957814E+03</rscale>
<asrwt>0</asrwt>
<pdfrwt beam="1">  1        2 0.23383883E+00 0.90492957E+03</pdfrwt>
<pdfrwt beam="2">  1       -2 0.12744923E+00 0.90492957E+03</pdfrwt>
<totfact> 0.56742894E+00</totfact>
</mgrwt>
</event>
<event>
 4    5  0.1905771E-007  0.9223823E+03  0.7818608E-02  0.9491016E-01
          2   -1    0    0  501    0  0.00000000000E+00  0.00000000000E+00  0.77672436102E+03  0.77672436102E+03  0.25500000000E-02 0. -1.
         -2   -1    0    0    0  501 -0.00000000000E+00 -0.00000000000E+00 -0.12019027594E+04  0.12019027594E+04  0.25500000000E-02 0.  1.
    8880023    1    1    2    0    0  0.17481142276E+03  0.62162678605E+03  0.32416262576E+03  0.97768630392E+03  0.65864270000E+03 0.  0.
    8880022    1    1    2    0    0 -0.17481142276E+03 -0.62162678605E+03 -0.74934102414E+03  0.10009408165E+04  0.15294330000E+03 0.  0.
<mgrwt>
<rscale>  0 0.84949436E+03</rscale>
<asrwt>0</asrwt>
<pdfrwt beam="1">  1        2 0.11949605E+00 0.92238230E+03</pdfrwt>
<pdfrwt beam="2">  1       -2 0.18490812E+00 0.92238230E+03</pdfrwt>
<totfact> 0.60095926E+00</totfact>
</mgrwt>
</event>
<event>
 4    5  0.1905771E-007  0.1336323E+04  0.7818608E-02  0.9034811E-01
          2   -1    0    0  501    0  0.00000000000E+00  0.00000000000E+00  0.21420394450E+04  0.21420394450E+04  0.25500000000E-02 0. -1.
         -2   -1    0    0    0  501 -0.00000000000E+00 -0.00000000000E+00 -0.10386601694E+04  0.10386601694E+04  0.25500000000E-02 0.  1.
    8880023    1    1    2    0    0 -0.10973977710E+04 -0.38427316820E+03  0.14360982559E+04  0.19616666746E+04  0.65864270000E+03 0. -1.
    8880022    1    1    2    0    0  0.10973977710E+04  0.38427316820E+03 -0.33271898026E+03  0.12190329398E+04  0.15294330000E+03 0.  0.
<mgrwt>
<rscale>  0 0.12934055E+04</rscale>
<asrwt>0</asrwt>
<pdfrwt beam="1">  1        2 0.32954453E+00 0.13363225E+04</pdfrwt>
<pdfrwt beam="2">  1       -2 0.15979387E+00 0.13363225E+04</pdfrwt>
<totfact> 0.13488752E+00</totfact>
</mgrwt>
</event>
<event>
 4    5  0.1905771E-007  0.8989132E+03  0.7818608E-02  0.9527779E-01
         -2   -1    0    0    0  501 -0.00000000000E+00  0.00000000000E+00  0.12715271095E+04  0.12715271095E+04  0.25500000000E-02 0.  1.
          2   -1    0    0  501    0  0.00000000000E+00 -0.00000000000E+00 -0.12193754060E+04  0.12193754060E+04  0.25500000000E-02 0. -1.
    8880023    1    1    2    0    0  0.55217329304E+03 -0.26332375335E+03 -0.94935860094E+03  0.13074122166E+04  0.65864270000E+03 0.  0.
    8880022    1    1    2    0    0 -0.55217329304E+03  0.26332375335E+03  0.10015103044E+04  0.11834902989E+04  0.15294330000E+03 0.  0.
<mgrwt>
<rscale>  0 0.82266443E+03</rscale>
<asrwt>0</asrwt>
<pdfrwt beam="1">  1        2 0.18759622E+00 0.89891321E+03</pdfrwt>
<pdfrwt beam="2">  1       -2 0.19561955E+00 0.89891321E+03</pdfrwt>
<totfact> 0.26342620E+00</totfact>
</mgrwt>
</event>
<event>
 4    5  0.1905771E-007  0.9181569E+03  0.7818608E-02  0.9497491E-01
         -2   -1    0    0    0  501 -0.00000000000E+00  0.00000000000E+00  0.48252994382E+03  0.48252994383E+03  0.25500000000E-02 0.  1.
          2   -1    0    0  501    0  0.00000000000E+00 -0.00000000000E+00 -0.18100520470E+04  0.18100520470E+04  0.25500000000E-02 0. -1.
    8880023    1    1    2    0    0  0.11559207158E+03  0.62915844657E+03 -0.13521324052E+04  0.16344032933E+04  0.65864270000E+03 0.  0.
    8880022    1    1    2    0    0 -0.11559207158E+03 -0.62915844657E+03  0.24610301957E+02  0.65817869753E+03  0.15294330000E+03 0.  0.
<mgrwt>
<rscale>  0 0.84469063E+03</rscale>
<asrwt>0</asrwt>
<pdfrwt beam="1">  1        2 0.27846954E+00 0.91815690E+03</pdfrwt>
<pdfrwt beam="2">  1       -2 0.74235377E-01 0.91815690E+03</pdfrwt>
<totfact> 0.14042927E+01</totfact>
</mgrwt>
</event>
<event>
 4    5  0.1905771E-007  0.8481319E+03  0.7818608E-02  0.9615033E-01
          2   -1    0    0  501    0  0.00000000000E+00  0.00000000000E+00  0.12038353112E+04  0.12038353112E+04  0.25500000000E-02 0. -1.
         -2   -1    0    0    0  501 -0.00000000000E+00 -0.00000000000E+00 -0.14325808278E+04  0.14325808278E+04  0.25500000000E-02 0.  1.
    8880023    1    1    2    0    0  0.30280635373E+02 -0.53347965848E+03  0.98598353641E+03  0.13005734132E+04  0.65864270000E+03 0.  0.
    8880022    1    1    2    0    0 -0.30280635373E+02  0.53347965848E+03 -0.12147290530E+04  0.13358427258E+04  0.15294330000E+03 0.  0.
<mgrwt>
<rscale>  0 0.76309108E+03</rscale>
<asrwt>0</asrwt>
<pdfrwt beam="1">  1        2 0.18520543E+00 0.84813187E+03</pdfrwt>
<pdfrwt beam="2">  1       -2 0.22039705E+00 0.84813187E+03</pdfrwt>
<totfact> 0.18785703E+00</totfact>
</mgrwt>
</event>
<event>
 4    5  0.1905771E-007  0.1085296E+04  0.7818608E-02  0.9277606E-01
          2   -1    0    0  501    0  0.00000000000E+00  0.00000000000E+00  0.13416392100E+04  0.13416392100E+04  0.25500000000E-02 0. -1.
         -2   -1    0    0    0  501 -0.00000000000E+00 -0.00000000000E+00 -0.16320870161E+04  0.16320870161E+04  0.25500000000E-02 0.  1.
    8880023    1    1    2    0    0 -0.56733601052E+03  0.64975993080E+03  0.95864157471E+03  0.14480545541E+04  0.65864270000E+03 0. -1.
    8880022    1    1    2    0    0  0.56733601052E+03 -0.64975993080E+03 -0.12490893809E+04  0.15256716721E+04  0.15294330000E+03 0.  0.
<mgrwt>
<rscale>  0 0.10287090E+04</rscale>
<asrwt>0</asrwt>
<pdfrwt beam="1">  1        2 0.20640603E+00 0.10852964E+04</pdfrwt>
<pdfrwt beam="2">  1       -2 0.25109031E+00 0.10852964E+04</pdfrwt>
<totfact> 0.97545852E-01</totfact>
</mgrwt>
</event>
<event>
 4    5  0.1905771E-007  0.1133677E+04  0.7818608E-02  0.9224456E-01
         -2   -1    0    0    0  501 -0.00000000000E+00  0.00000000000E+00  0.16781859997E+04  0.16781859997E+04  0.25500000000E-02 0.  1.
          2   -1    0    0  501    0  0.00000000000E+00 -0.00000000000E+00 -0.69292410515E+03  0.69292410515E+03  0.25500000000E-02 0. -1.
    8880023    1    1    2    0    0 -0.19218369641E+03 -0.90248434615E+03  0.20282104560E+03  0.11516766695E+04  0.65864270000E+03 0.  1.
    8880022    1    1    2    0    0  0.19218369641E+03  0.90248434615E+03  0.78244084898E+03  0.12194334354E+04  0.15294330000E+03 0.  0.
<mgrwt>
<rscale>  0 0.10804527E+04</rscale>
<asrwt>0</asrwt>
<pdfrwt beam="1">  1        2 0.10660371E+00 0.11336767E+04</pdfrwt>
<pdfrwt beam="2">  1       -2 0.25818246E+00 0.11336767E+04</pdfrwt>
<totfact> 0.23404946E+00</totfact>
</mgrwt>
</event>
<event>
 4    5  0.1905771E-007  0.6812164E+03  0.7818608E-02  0.1008644E+00
         -2   -1    0    0    0  501 -0.00000000000E+00  0.00000000000E+00  0.39165940756E+03  0.39165940757E+03  0.25500000000E-02 0.  1.
          2   -1    0    0  501    0  0.00000000000E+00 -0.00000000000E+00 -0.18611253113E+04  0.18611253113E+04  0.25500000000E-02 0. -1.
    8880023    1    1    2    0    0 -0.11496333714E+02  0.17353234816E+03 -0.17564979586E+04  0.18839694601E+04  0.65864270000E+03 0. -1.
    8880022    1    1    2    0    0  0.11496333714E+02 -0.17353234816E+03  0.28703205491E+03  0.36881525878E+03  0.15294330000E+03 0.  0.
<mgrwt>
<rscale>  0 0.52017228E+03</rscale>
<asrwt>0</asrwt>
<pdfrwt beam="1">  1        2 0.28632696E+00 0.68121645E+03</pdfrwt>
<pdfrwt beam="2">  1       -2 0.60255295E-01 0.68121645E+03</pdfrwt>
<totfact> 0.21320595E+01</totfact>
</mgrwt>
</event>
<event>
 4    5  0.1905771E-007  0.7319096E+03  0.7818608E-02  0.9884173E-01
         -2   -1    0    0    0  501 -0.00000000000E+00  0.00000000000E+00  0.84573501795E+03  0.84573501796E+03  0.25500000000E-02 0.  1.
          2   -1    0    0  501    0  0.00000000000E+00 -0.00000000000E+00 -0.12406062357E+04  0.12406062357E+04  0.25500000000E-02 0. -1.
    8880023    1    1    2    0    0 -0.93571721431E+00 -0.31918734872E+03 -0.10861399881E+04  0.13097296359E+04  0.65864270000E+03 0. -1.
    8880022    1    1    2    0    0  0.93571721431E+00  0.31918734872E+03  0.69126877028E+03  0.77661161782E+03  0.15294330000E+03 0.  0.
<mgrwt>
<rscale>  0 0.61034487E+03</rscale>
<asrwt>0</asrwt>
<pdfrwt beam="1">  1        2 0.19086250E+00 0.73190959E+03</pdfrwt>
<pdfrwt beam="2">  1       -2 0.13011308E+00 0.73190959E+03</pdfrwt>
<totfact> 0.79443796E+00</totfact>
</mgrwt>
</event>
<event>
 4    5  0.1905771E-007  0.7413613E+03  0.7818608E-02  0.9855999E-01
          2   -1    0    0  501    0  0.00000000000E+00  0.00000000000E+00  0.61612501915E+03  0.61612501915E+03  0.25500000000E-02 0. -1.
         -2   -1    0    0    0  501 -0.00000000000E+00 -0.00000000000E+00 -0.21176405438E+04  0.21176405438E+04  0.25500000000E-02 0.  1.
    8880023    1    1    2    0    0  0.30804042353E+03 -0.14462863384E+03  0.36779888978E+03  0.82758236680E+03  0.65864270000E+03 0.  0.
    8880022    1    1    2    0    0 -0.30804042353E+03  0.14462863384E+03 -0.18693144145E+04  0.19061831962E+04  0.15294330000E+03 0.  1.
<mgrwt>
<rscale>  0 0.62441963E+03</rscale>
<asrwt>0</asrwt>
<pdfrwt beam="1">  1        2 0.94788466E-01 0.74136128E+03</pdfrwt>
<pdfrwt beam="2">  1       -2 0.32579085E+00 0.74136128E+03</pdfrwt>
<totfact> 0.11123423E+00</totfact>
</mgrwt>
</event>
<event>
 4    5  0.1905771E-007  0.1018295E+04  0.7818608E-02  0.9358004E-01
          2   -1    0    0  501    0  0.00000000000E+00  0.00000000000E+00  0.66970819201E+03  0.66970819201E+03  0.25500000000E-02 0. -1.
         -2   -1    0    0    0  501 -0.00000000000E+00 -0.00000000000E+00 -0.17559577570E+04  0.17559577570E+04  0.25500000000E-02 0.  1.
    8880023    1    1    2    0    0  0.66427377070E+03  0.40231119625E+03  0.74181413046E+02  0.10209931583E+04  0.65864270000E+03 0. -1.
    8880022    1    1    2    0    0 -0.66427377070E+03 -0.40231119625E+03 -0.11604309780E+04  0.14046727907E+04  0.15294330000E+03 0.  0.
<mgrwt>
<rscale>  0 0.95613835E+03</rscale>
<asrwt>0</asrwt>
<pdfrwt beam="1">  1        2 0.10303203E+00 0.10182947E+04</pdfrwt>
<pdfrwt beam="2">  1       -2 0.27014735E+00 0.10182947E+04</pdfrwt>
<totfact> 0.20930345E+00</totfact>
</mgrwt>
</event>
<event>
 4    5  0.1905771E-007  0.7978501E+03  0.7818608E-02  0.9715464E-01
          2   -1    0    0  501    0  0.00000000000E+00  0.00000000000E+00  0.29744247829E+04  0.29744247829E+04  0.25500000000E-02 0. -1.
         -2   -1    0    0    0  501 -0.00000000000E+00 -0.00000000000E+00 -0.26234347272E+03  0.26234347273E+03  0.25500000000E-02 0.  1.
    8880023    1    1    2    0    0 -0.36013332880E+03 -0.27029345594E+03  0.26373409759E+04  0.27553824047E+04  0.65864270000E+03 0.  0.
    8880022    1    1    2    0    0  0.36013332880E+03  0.27029345594E+03  0.74740334240E+02  0.48138585087E+03  0.15294330000E+03 0.  0.
<mgrwt>
<rscale>  0 0.70103490E+03</rscale>
<asrwt>0</asrwt>
<pdfrwt beam="1">  1        2 0.45760380E+00 0.79785009E+03</pdfrwt>
<pdfrwt beam="2">  1       -2 0.40360535E-01 0.79785009E+03</pdfrwt>
<totfact> 0.11056526E+01</totfact>
</mgrwt>
</event>
<event>
 4    5  0.2134787E-007  0.8832628E+03  0.7818608E-02  0.9553453E-01
          2   -1    0    0  501    0  0.00000000000E+00  0.00000000000E+00  0.15245217735E+04  0.15245217735E+04  0.25500000000E-02 0. -1.
         -2   -1    0    0    0  501 -0.00000000000E+00 -0.00000000000E+00 -0.27114047717E+04  0.27114047717E+04  0.25500000000E-02 0.  1.
    8880023    1    1    2    0    0  0.52681664490E+03 -0.26231114132E+03  0.13576877673E+04  0.16197126881E+04  0.65864270000E+03 0. -1.
    8880022    1    1    2    0    0 -0.52681664490E+03  0.26231114132E+03 -0.25445707656E+04  0.26162138571E+04  0.15294330000E+03 0.  0.
<mgrwt>
<rscale>  0 0.80455122E+03</rscale>
<asrwt>0</asrwt>
<pdfrwt beam="1">  1        2 0.23454181E+00 0.88326277E+03</pdfrwt>
<pdfrwt beam="2">  1       -2 0.41713919E+00 0.88326277E+03</pdfrwt>
<totfact> 0.73575047E-02</totfact>
</mgrwt>
</event>
<event>
 4    5  0.1905771E-007  0.8824504E+03  0.7818608E-02  0.9554813E-01
         -2   -1    0    0    0  501 -0.00000000000E+00  0.00000000000E+00  0.32170578177E+03  0.32170578178E+03  0.25500000000E-02 0.  1.
          2   -1    0    0  501    0  0.00000000000E+00 -0.00000000000E+00 -0.19220889036E+04  0.19220889036E+04  0.25500000000E-02 0. -1.
    8880023    1    1    2    0    0  0.30388358392E+03 -0.50255670626E+03 -0.12878273557E+04  0.15611591783E+04  0.65864270000E+03 0.  0.
    8880022    1    1    2    0    0 -0.30388358392E+03  0.50255670626E+03 -0.31255576612E+03  0.68263550709E+03  0.15294330000E+03 0.  0.
<mgrwt>
<rscale>  0 0.80360560E+03</rscale>
<asrwt>0</asrwt>
<pdfrwt beam="1">  1        2 0.29570598E+00 0.88245038E+03</pdfrwt>
<pdfrwt beam="2">  1       -2 0.49493198E-01 0.88245038E+03</pdfrwt>
<totfact> 0.28952090E+01</totfact>
</mgrwt>
</event>
<event>
 4    5  0.1905771E-007  0.9385071E+03  0.7818608E-02  0.9466846E-01
         -2   -1    0    0    0  501 -0.00000000000E+00  0.00000000000E+00  0.66594727231E+03  0.66594727232E+03  0.25500000000E-02 0.  1.
          2   -1    0    0  501    0  0.00000000000E+00 -0.00000000000E+00 -0.13974666917E+04  0.13974666917E+04  0.25500000000E-02 0. -1.
    8880023    1    1    2    0    0 -0.66838996332E+03  0.15500408727E+02 -0.95804131347E+03  0.13411333902E+04  0.65864270000E+03 0. -1.
    8880022    1    1    2    0    0  0.66838996332E+03 -0.15500408727E+02  0.22652189412E+03  0.72228057378E+03  0.15294330000E+03 0.  0.
<mgrwt>
<rscale>  0 0.86772867E+03</rscale>
<asrwt>0</asrwt>
<pdfrwt beam="1">  1        2 0.21499487E+00 0.93850712E+03</pdfrwt>
<pdfrwt beam="2">  1       -2 0.10245343E+00 0.93850712E+03</pdfrwt>
<totfact> 0.11328506E+01</totfact>
</mgrwt>
</event>
<event>
 4    5  0.1905771E-007  0.7990289E+03  0.7818608E-02  0.9712900E-01
          2   -1    0    0  501    0  0.00000000000E+00  0.00000000000E+00  0.44314845413E+03  0.44314845414E+03  0.25500000000E-02 0. -1.
         -2   -1    0    0    0  501 -0.00000000000E+00 -0.00000000000E+00 -0.19959476550E+04  0.19959476550E+04  0.25500000000E-02 0.  1.
    8880023    1    1    2    0    0  0.57556210060E+02 -0.44869167883E+03  0.16042336193E+02  0.79918990408E+03  0.65864270000E+03 0. -1.
    8880022    1    1    2    0    0 -0.57556210060E+02  0.44869167883E+03 -0.15688415370E+04  0.16399062050E+04  0.15294330000E+03 0.  0.
<mgrwt>
<rscale>  0 0.70253913E+03</rscale>
<asrwt>0</asrwt>
<pdfrwt beam="1">  1        2 0.68176686E-01 0.79902888E+03</pdfrwt>
<pdfrwt beam="2">  1       -2 0.30706887E+00 0.79902888E+03</pdfrwt>
<totfact> 0.21077420E+00</totfact>
</mgrwt>
</event>
<event>
 4    5  0.1905771E-007  0.8798499E+03  0.7818608E-02  0.9559185E-01
          2   -1    0    0  501    0  0.00000000000E+00  0.00000000000E+00  0.32519502669E+04  0.32519502669E+04  0.25500000000E-02 0. -1.
         -2   -1    0    0    0  501 -0.00000000000E+00 -0.00000000000E+00 -0.33181268847E+03  0.33181268848E+03  0.25500000000E-02 0.  1.
    8880023    1    1    2    0    0 -0.10348089618E+02 -0.58328256284E+03  0.28426679344E+04  0.29757178667E+04  0.65864270000E+03 0. -1.
    8880022    1    1    2    0    0  0.10348089618E+02  0.58328256284E+03  0.77469644067E+02  0.60804508865E+03  0.15294330000E+03 0.  0.
<mgrwt>
<rscale>  0 0.80057483E+03</rscale>
<asrwt>0</asrwt>
<pdfrwt beam="1">  1        2 0.50030004E+00 0.87984989E+03</pdfrwt>
<pdfrwt beam="2">  1       -2 0.51048106E-01 0.87984989E+03</pdfrwt>
<totfact> 0.45631722E+00</totfact>
</mgrwt>
</event>
<event>
 4    5  0.1905771E-007  0.8515573E+03  0.7818608E-02  0.9608761E-01
         -2   -1    0    0    0  501 -0.00000000000E+00  0.00000000000E+00  0.42685608337E+03  0.42685608338E+03  0.25500000000E-02 0.  1.
          2   -1    0    0  501    0  0.00000000000E+00 -0.00000000000E+00 -0.11779304441E+04  0.11779304441E+04  0.25500000000E-02 0. -1.
    8880023    1    1    2    0    0  0.49097417038E+03 -0.22424089337E+03 -0.52196401775E+03  0.99879740505E+03  0.65864270000E+03 0.  1.
    8880022    1    1    2    0    0 -0.49097417038E+03  0.22424089337E+03 -0.22911034299E+03  0.60598912245E+03  0.15294330000E+03 0. -1.
<mgrwt>
<rscale>  0 0.76718992E+03</rscale>
<asrwt>0</asrwt>
<pdfrwt beam="1">  1        2 0.18122007E+00 0.85155729E+03</pdfrwt>
<pdfrwt beam="2">  1       -2 0.65670167E-01 0.85155729E+03</pdfrwt>
<totfact> 0.42053975E+01</totfact>
</mgrwt>
</event>
<event>
 4    5  0.1905771E-007  0.1453260E+04  0.7818608E-02  0.8943366E-01
         -2   -1    0    0    0  501 -0.00000000000E+00  0.00000000000E+00  0.12929592931E+04  0.12929592931E+04  0.25500000000E-02 0.  1.
          2   -1    0    0  501    0  0.00000000000E+00 -0.00000000000E+00 -0.18473992385E+04  0.18473992385E+04  0.25500000000E-02 0. -1.
    8880023    1    1    2    0    0  0.40499164713E+03 -0.12305020708E+04 -0.99758422967E+03  0.17627075997E+04  0.65864270000E+03 0.  0.
    8880022    1    1    2    0    0 -0.40499164713E+03  0.12305020708E+04  0.44314428420E+03  0.13776509319E+04  0.15294330000E+03 0.  0.
<mgrwt>
<rscale>  0 0.14145323E+04</rscale>
<asrwt>0</asrwt>
<pdfrwt beam="1">  1        2 0.28421527E+00 0.14532597E+04</pdfrwt>
<pdfrwt beam="2">  1       -2 0.19891681E+00 0.14532597E+04</pdfrwt>
<totfact> 0.10368655E+00</totfact>
</mgrwt>
</event>
<event>
 4    5  0.1905771E-007  0.1466922E+04  0.7818608E-02  0.8933354E-01
         -2   -1    0    0    0  501 -0.00000000000E+00  0.00000000000E+00  0.16250786697E+04  0.16250786697E+04  0.25500000000E-02 0.  1.
          2   -1    0    0  501    0  0.00000000000E+00 -0.00000000000E+00 -0.14845704127E+04  0.14845704127E+04  0.25500000000E-02 0. -1.
    8880023    1    1    2    0    0  0.12324547234E+04 -0.44621087142E+03 -0.61321250158E+03  0.15899335097E+04  0.65864270000E+03 0.  0.
    8880022    1    1    2    0    0 -0.12324547234E+04  0.44621087142E+03  0.75372075851E+03  0.15197155727E+04  0.15294330000E+03 0.  0.
<mgrwt>
<rscale>  0 0.14286267E+04</rscale>
<asrwt>0</asrwt>
<pdfrwt beam="1">  1        2 0.22839545E+00 0.14669216E+04</pdfrwt>
<pdfrwt beam="2">  1       -2 0.25001210E+00 0.14669216E+04</pdfrwt>
<totfact> 0.78527786E-01</totfact>
</mgrwt>
</event>
<event>
 4    5  0.1905771E-007  0.9597471E+03  0.7818608E-02  0.9436227E-01
          2   -1    0    0  501    0  0.00000000000E+00  0.00000000000E+00  0.12119227905E+04  0.12119227905E+04  0.25500000000E-02 0. -1.
         -2   -1    0    0    0  501 -0.00000000000E+00 -0.00000000000E+00 -0.63274126292E+03  0.63274126292E+03  0.25500000000E-02 0.  1.
    8880023    1    1    2    0    0 -0.59375702102E+03 -0.36709256348E+03  0.60517772930E+02  0.96165324171E+03  0.65864270000E+03 0.  1.
    8880022    1    1    2    0    0  0.59375702102E+03  0.36709256348E+03  0.51866375462E+03  0.88301081168E+03  0.15294330000E+03 0.  0.
<mgrwt>
<rscale>  0 0.89153403E+03</rscale>
<asrwt>0</asrwt>
<pdfrwt beam="1">  1        2 0.18644966E+00 0.95974713E+03</pdfrwt>
<pdfrwt beam="2">  1       -2 0.97344811E-01 0.95974713E+03</pdfrwt>
<totfact> 0.16366161E+01</totfact>
</mgrwt>
</event>
<event>
 4    5  0.1905771E-007  0.7889837E+03  0.7818608E-02  0.9735142E-01
         -2   -1    0    0    0  501 -0.00000000000E+00  0.00000000000E+00  0.24671415605E+03  0.24671415607E+03  0.25500000000E-02 0.  1.
          2   -1    0    0  501    0  0.00000000000E+00 -0.00000000000E+00 -0.23205912198E+04  0.23205912198E+04  0.25500000000E-02 0. -1.
    8880023    1    1    2    0    0  0.83896655954E+02  0.42619989457E+03 -0.19296724674E+04  0.20847376422E+04  0.65864270000E+03 0. -1.
    8880022    1    1    2    0    0 -0.83896655954E+02 -0.42619989457E+03 -0.14420459640E+03  0.48256773374E+03  0.15294330000E+03 0.  0.
<mgrwt>
<rscale>  0 0.68962439E+03</rscale>
<asrwt>0</asrwt>
<pdfrwt beam="1">  1        2 0.35701402E+00 0.78898365E+03</pdfrwt>
<pdfrwt beam="2">  1       -2 0.37956026E-01 0.78898365E+03</pdfrwt>
<totfact> 0.29891254E+01</totfact>
</mgrwt>
</event>
<event>
 4    5  0.1905771E-007  0.6607539E+03  0.7818608E-02  0.1023397E+00
         -2   -1    0    0    0  501 -0.00000000000E+00  0.00000000000E+00  0.67867349988E+03  0.67867349988E+03  0.25500000000E-02 0.  1.
          2   -1    0    0  501    0  0.00000000000E+00 -0.00000000000E+00 -0.59645952980E+03  0.59645952980E+03  0.25500000000E-02 0. -1.
    8880023    1    1    2    0    0  0.40157687052E+02 -0.34246700526E+02 -0.39597163974E+03  0.77031761116E+03  0.65864270000E+03 0. -1.
    8880022    1    1    2    0    0 -0.40157687052E+02  0.34246700526E+02  0.47818560982E+03  0.50481541852E+03  0.15294330000E+03 0.  0.
<mgrwt>
<rscale>  0 0.46480420E+03</rscale>
<asrwt>0</asrwt>
<pdfrwt beam="1">  1        2 0.91763004E-01 0.66075387E+03</pdfrwt>
<pdfrwt beam="2">  1       -2 0.10441131E+00 0.66075387E+03</pdfrwt>
<totfact> 0.37959878E+01</totfact>
</mgrwt>
</event>
<event>
 4    5  0.1905771E-007  0.1447431E+04  0.7818608E-02  0.8947677E-01
          2   -1    0    0  501    0  0.00000000000E+00  0.00000000000E+00  0.32548053657E+04  0.32548053657E+04  0.25500000000E-02 0. -1.
         -2   -1    0    0    0  501 -0.00000000000E+00 -0.00000000000E+00 -0.17708355323E+04  0.17708355323E+04  0.25500000000E-02 0.  1.
    8880023    1    1    2    0    0  0.11016326482E+04  0.66906793522E+03  0.28157530086E+04  0.31659945681E+04  0.65864270000E+03 0. -1.
    8880022    1    1    2    0    0 -0.11016326482E+04 -0.66906793522E+03 -0.13317831752E+04  0.18596463299E+04  0.15294330000E+03 0.  0.
<mgrwt>
<rscale>  0 0.14085158E+04</rscale>
<asrwt>0</asrwt>
<pdfrwt beam="1">  1        2 0.50073929E+00 0.14474310E+04</pdfrwt>
<pdfrwt beam="2">  1       -2 0.27243624E+00 0.14474310E+04</pdfrwt>
<totfact> 0.53138100E-02</totfact>
</mgrwt>
</event>
<event>
 4    5  0.1905771E-007  0.1270382E+04  0.7818608E-02  0.9091568E-01
         -2   -1    0    0    0  501 -0.00000000000E+00  0.00000000000E+00  0.61534068942E+03  0.61534068943E+03  0.25500000000E-02 0.  1.
          2   -1    0    0  501    0  0.00000000000E+00 -0.00000000000E+00 -0.32045558245E+04  0.32045558245E+04  0.25500000000E-02 0. -1.
    8880023    1    1    2    0    0  0.70856376848E+03 -0.82340621019E+03 -0.23875570480E+04  0.27044961203E+04  0.65864270000E+03 0. -1.
    8880022    1    1    2    0    0 -0.70856376848E+03  0.82340621019E+03 -0.20165808704E+03  0.11154003936E+04  0.15294330000E+03 0.  0.
<mgrwt>
<rscale>  0 0.12246285E+04</rscale>
<asrwt>0</asrwt>
<pdfrwt beam="1">  1        2 0.49300858E+00 0.12703821E+04</pdfrwt>
<pdfrwt beam="2">  1       -2 0.94667800E-01 0.12703821E+04</pdfrwt>
<totfact> 0.11929516E+00</totfact>
</mgrwt>
</event>
<event>
 4    5  0.1905771E-007  0.8163002E+03  0.7818608E-02  0.9676600E-01
         -2   -1    0    0    0  501 -0.00000000000E+00  0.00000000000E+00  0.10439463444E+04  0.10439463444E+04  0.25500000000E-02 0.  1.
          2   -1    0    0  501    0  0.00000000000E+00 -0.00000000000E+00 -0.15504195927E+04  0.15504195927E+04  0.25500000000E-02 0. -1.
    8880023    1    1    2    0    0 -0.37409002324E+03  0.30429014876E+03 -0.13693073879E+04  0.15941608354E+04  0.65864270000E+03 0. -1.
    8880022    1    1    2    0    0  0.37409002324E+03 -0.30429014876E+03  0.86283413960E+03  0.10002051018E+04  0.15294330000E+03 0.  0.
<mgrwt>
<rscale>  0 0.72427259E+03</rscale>
<asrwt>0</asrwt>
<pdfrwt beam="1">  1        2 0.23852609E+00 0.81630022E+03</pdfrwt>
<pdfrwt beam="2">  1       -2 0.16060713E+00 0.81630022E+03</pdfrwt>
<totfact> 0.30169948E+00</totfact>
</mgrwt>
</event>
<event>
 4    5  0.1905771E-007  0.1520350E+04  0.7818608E-02  0.8895398E-01
         -2   -1    0    0    0  501 -0.00000000000E+00  0.00000000000E+00  0.11863326575E+04  0.11863326575E+04  0.25500000000E-02 0.  1.
          2   -1    0    0  501    0  0.00000000000E+00 -0.00000000000E+00 -0.21002545523E+04  0.21002545523E+04  0.25500000000E-02 0. -1.
    8880023    1    1    2    0    0  0.10292326349E+04 -0.90461771716E+03 -0.11255638102E+04  0.18916546006E+04  0.65864270000E+03 0.  0.
    8880022    1    1    2    0    0 -0.10292326349E+04  0.90461771716E+03  0.21164191544E+03  0.13949326092E+04  0.15294330000E+03 0.  0.
<mgrwt>
<rscale>  0 0.14836507E+04</rscale>
<asrwt>0</asrwt>
<pdfrwt beam="1">  1        2 0.32311609E+00 0.15203497E+04</pdfrwt>
<pdfrwt beam="2">  1       -2 0.18251272E+00 0.15203497E+04</pdfrwt>
<totfact> 0.96079636E-01</totfact>
</mgrwt>
</event>
<event>
 4    5  0.1905771E-007  0.7264049E+03  0.7818608E-02  0.9901481E-01
         -2   -1    0    0    0  501 -0.00000000000E+00  0.00000000000E+00  0.22542344516E+03  0.22542344518E+03  0.25500000000E-02 0.  1.
          2   -1    0    0  501    0  0.00000000000E+00 -0.00000000000E+00 -0.27655838195E+04  0.27655838195E+04  0.25500000000E-02 0. -1.
    8880023    1    1    2    0    0  0.11662729102E+03  0.28328777737E+03 -0.25469664067E+04  0.26485282655E+04  0.65864270000E+03 0. -1.
    8880022    1    1    2    0    0 -0.11662729102E+03 -0.28328777737E+03  0.68060323595E+01  0.34247899923E+03  0.15294330000E+03 0.  0.
<mgrwt>
<rscale>  0 0.60189554E+03</rscale>
<asrwt>0</asrwt>
<pdfrwt beam="1">  1        2 0.42547441E+00 0.72640491E+03</pdfrwt>
<pdfrwt beam="2">  1       -2 0.34680532E-01 0.72640491E+03</pdfrwt>
<totfact> 0.19981897E+01</totfact>
</mgrwt>
</event>
<event>
 4    5  0.1905771E-007  0.1188018E+04  0.7818608E-02  0.9168859E-01
         -2   -1    0    0    0  501 -0.00000000000E+00  0.00000000000E+00  0.70923812786E+03  0.70923812787E+03  0.25500000000E-02 0.  1.
          2   -1    0    0  501    0  0.00000000000E+00 -0.00000000000E+00 -0.19134665955E+04  0.19134665955E+04  0.25500000000E-02 0. -1.
    8880023    1    1    2    0    0  0.83381386942E+03  0.53134733175E+03 -0.10960524488E+04  0.16163900311E+04  0.65864270000E+03 0.  0.
    8880022    1    1    2    0    0 -0.83381386942E+03 -0.53134733175E+03 -0.10817601880E+03  0.10063146923E+04  0.15294330000E+03 0.  0.
<mgrwt>
<rscale>  0 0.11380717E+04</rscale>
<asrwt>0</asrwt>
<pdfrwt beam="1">  1        2 0.29437947E+00 0.11880176E+04</pdfrwt>
<pdfrwt beam="2">  1       -2 0.10911356E+00 0.11880176E+04</pdfrwt>
<totfact> 0.48929534E+00</totfact>
</mgrwt>
</event>
<event>
 4    5  0.1905771E-007  0.1588706E+04  0.7818608E-02  0.8849411E-01
         -2   -1    0    0    0  501 -0.00000000000E+00  0.00000000000E+00  0.11180430982E+04  0.11180430982E+04  0.25500000000E-02 0.  1.
          2   -1    0    0  501    0  0.00000000000E+00 -0.00000000000E+00 -0.34350523428E+04  0.34350523428E+04  0.25500000000E-02 0. -1.
    8880023    1    1    2    0    0 -0.57280902767E+03  0.13274286928E+04  0.24485931400E+03  0.16074649006E+04  0.65864270000E+03 0.  0.
    8880022    1    1    2    0    0  0.57280902767E+03 -0.13274286928E+04 -0.25618685585E+04  0.29456305404E+04  0.15294330000E+03 0.  0.
<mgrwt>
<rscale>  0 0.15538523E+04</rscale>
<asrwt>0</asrwt>
<pdfrwt beam="1">  1        2 0.52846959E+00 0.15887062E+04</pdfrwt>
<pdfrwt beam="2">  1       -2 0.17200663E+00 0.15887062E+04</pdfrwt>
<totfact> 0.17470958E-01</totfact>
</mgrwt>
</event>
<event>
 4    5  0.1905771E-007  0.8205678E+03  0.7818608E-02  0.9667971E-01
         -2   -1    0    0    0  501 -0.00000000000E+00  0.00000000000E+00  0.48578249418E+03  0.48578249418E+03  0.25500000000E-02 0.  1.
          2   -1    0    0  501    0  0.00000000000E+00 -0.00000000000E+00 -0.25052635111E+04  0.25052635111E+04  0.25500000000E-02 0. -1.
    8880023    1    1    2    0    0 -0.42709144856E+03  0.23898563825E+03 -0.22747796761E+04  0.24182543336E+04  0.65864270000E+03 0. -1.
    8880022    1    1    2    0    0  0.42709144856E+03 -0.23898563825E+03  0.25529865922E+03  0.57279167168E+03  0.15294330000E+03 0.  0.
<mgrwt>
<rscale>  0 0.72956220E+03</rscale>
<asrwt>0</asrwt>
<pdfrwt beam="1">  1        2 0.38542515E+00 0.82056776E+03</pdfrwt>
<pdfrwt beam="2">  1       -2 0.74735770E-01 0.82056776E+03</pdfrwt>
<totfact> 0.57711708E+00</totfact>
</mgrwt>
</event>
<event>
 4    5  0.5206161E-007  0.2355019E+04  0.7818608E-02  0.8465218E-01
         -2   -1    0    0    0  501 -0.00000000000E+00  0.00000000000E+00  0.20993293762E+04  0.20993293762E+04  0.25500000000E-02 0.  1.
          2   -1    0    0  501    0  0.00000000000E+00 -0.00000000000E+00 -0.47365307779E+04  0.47365307779E+04  0.25500000000E-02 0. -1.
    8880023    1    1    2    0    0  0.20748048234E+04  0.89860510184E+03 -0.36578643306E+04  0.43504123771E+04  0.65864270000E+03 0.  0.
    8880022    1    1    2    0    0 -0.20748048234E+04 -0.89860510184E+03  0.10206629289E+04  0.24854477769E+04  0.15294330000E+03 0.  0.
<mgrwt>
<rscale>  0 0.23324954E+04</rscale>
<asrwt>0</asrwt>
<pdfrwt beam="1">  1        2 0.72869704E+00 0.23550194E+04</pdfrwt>
<pdfrwt beam="2">  1       -2 0.32297375E+00 0.23550194E+04</pdfrwt>
<totfact> 0.13672936E-03</totfact>
</mgrwt>
</event>
<event>
 4    5  0.1905771E-007  0.9753502E+03  0.7818608E-02  0.9414542E-01
          2   -1    0    0  501    0  0.00000000000E+00  0.00000000000E+00  0.20420101793E+04  0.20420101793E+04  0.25500000000E-02 0. -1.
         -2   -1    0    0    0  501 -0.00000000000E+00 -0.00000000000E+00 -0.14073967892E+04  0.14073967892E+04  0.25500000000E-02 0.  1.
    8880023    1    1    2    0    0  0.54719152394E+03 -0.46698959922E+03  0.18139487392E+04  0.20595431737E+04  0.65864270000E+03 0. -1.
    8880022    1    1    2    0    0 -0.54719152394E+03  0.46698959922E+03 -0.11793353490E+04  0.13898637948E+04  0.15294330000E+03 0.  0.
<mgrwt>
<rscale>  0 0.90888515E+03</rscale>
<asrwt>0</asrwt>
<pdfrwt beam="1">  1        2 0.31415541E+00 0.97535022E+03</pdfrwt>
<pdfrwt beam="2">  1       -2 0.21652258E+00 0.97535022E+03</pdfrwt>
<totfact> 0.66125887E-01</totfact>
</mgrwt>
</event>
<event>
 4    5  0.1905771E-007  0.6874821E+03  0.7818608E-02  0.1005373E+00
          2   -1    0    0  501    0  0.00000000000E+00  0.00000000000E+00  0.31685226472E+04  0.31685226472E+04  0.25500000000E-02 0. -1.
         -2   -1    0    0    0  501 -0.00000000000E+00 -0.00000000000E+00 -0.37520197028E+03  0.37520197029E+03  0.25500000000E-02 0.  1.
    8880023    1    1    2    0    0 -0.11724384891E+03 -0.15835168750E+03  0.30845780534E+04  0.31602615953E+04  0.65864270000E+03 0.  0.
    8880022    1    1    2    0    0  0.11724384891E+03  0.15835168750E+03 -0.29125737646E+03  0.38346302220E+03  0.15294330000E+03 0.  1.
<mgrwt>
<rscale>  0 0.53355746E+03</rscale>
<asrwt>0</asrwt>
<pdfrwt beam="1">  1        2 0.48746503E+00 0.68748206E+03</pdfrwt>
<pdfrwt beam="2">  1       -2 0.57723379E-01 0.68748206E+03</pdfrwt>
<totfact> 0.41515854E+00</totfact>
</mgrwt>
</event>
<event>
 4    5  0.1905771E-007  0.1257665E+04  0.7818608E-02  0.9103009E-01
          2   -1    0    0  501    0  0.00000000000E+00  0.00000000000E+00  0.36388735643E+04  0.36388735643E+04  0.25500000000E-02 0. -1.
         -2   -1    0    0    0  501 -0.00000000000E+00 -0.00000000000E+00 -0.15605364435E+04  0.15605364435E+04  0.25500000000E-02 0.  1.
    8880023    1    1    2    0    0  0.92084037512E+03  0.54768930028E+03  0.33212161380E+04  0.35513655695E+04  0.65864270000E+03 0.  0.
    8880022    1    1    2    0    0 -0.92084037512E+03 -0.54768930028E+03 -0.12428790173E+04  0.16480444383E+04  0.15294330000E+03 0.  0.
<mgrwt>
<rscale>  0 0.12113156E+04</rscale>
<asrwt>0</asrwt>
<pdfrwt beam="1">  1        2 0.55982670E+00 0.12576648E+04</pdfrwt>
<pdfrwt beam="2">  1       -2 0.24008253E+00 0.12576648E+04</pdfrwt>
<totfact> 0.47230045E-02</totfact>
</mgrwt>
</event>
<event>
 4    5  0.1905771E-007  0.7649305E+03  0.7818608E-02  0.9792506E-01
         -2   -1    0    0    0  501 -0.00000000000E+00  0.00000000000E+00  0.20238313138E+03  0.20238313140E+03  0.25500000000E-02 0.  1.
          2   -1    0    0  501    0  0.00000000000E+00 -0.00000000000E+00 -0.23814031631E+04  0.23814031631E+04  0.25500000000E-02 0. -1.
    8880023    1    1    2    0    0 -0.22085176310E+03  0.32020761452E+03 -0.19764584590E+04  0.21193174996E+04  0.65864270000E+03 0. -1.
    8880022    1    1    2    0    0  0.22085176310E+03 -0.32020761452E+03 -0.20256157266E+03  0.46446879486E+03  0.15294330000E+03 0.  0.
<mgrwt>
<rscale>  0 0.65766254E+03</rscale>
<asrwt>0</asrwt>
<pdfrwt beam="1">  1        2 0.36636970E+00 0.76493047E+03</pdfrwt>
<pdfrwt beam="2">  1       -2 0.31135868E-01 0.76493047E+03</pdfrwt>
<totfact> 0.40399628E+01</totfact>
</mgrwt>
</event>
<event>
 4    5  0.1905771E-007  0.9801945E+03  0.7818608E-02  0.9407941E-01
         -2   -1    0    0    0  501 -0.00000000000E+00  0.00000000000E+00  0.78972222004E+03  0.78972222005E+03  0.25500000000E-02 0.  1.
          2   -1    0    0  501    0  0.00000000000E+00 -0.00000000000E+00 -0.17130833972E+04  0.17130833972E+04  0.25500000000E-02 0. -1.
    8880023    1    1    2    0    0 -0.52454972441E+03 -0.50181536878E+03 -0.13335954814E+04  0.16550704492E+04  0.65864270000E+03 0. -1.
    8880022    1    1    2    0    0  0.52454972441E+03  0.50181536878E+03  0.41023430421E+03  0.84773516802E+03  0.15294330000E+03 0.  0.
<mgrwt>
<rscale>  0 0.91425075E+03</rscale>
<asrwt>0</asrwt>
<pdfrwt beam="1">  1        2 0.26355129E+00 0.98019451E+03</pdfrwt>
<pdfrwt beam="2">  1       -2 0.12149573E+00 0.98019451E+03</pdfrwt>
<totfact> 0.49552475E+00</totfact>
</mgrwt>
</event>
<event>
 4    5  0.1905771E-007  0.8153898E+03  0.7818608E-02  0.9678458E-01
          2   -1    0    0  501    0  0.00000000000E+00  0.00000000000E+00  0.16532595073E+04  0.16532595073E+04  0.25500000000E-02 0. -1.
         -2   -1    0    0    0  501 -0.00000000000E+00 -0.00000000000E+00 -0.30268704656E+03  0.30268704657E+03  0.25500000000E-02 0.  1.
    8880023    1    1    2    0    0 -0.46624901215E+03  0.11688555574E+03  0.47004666682E+03  0.94117184920E+03  0.65864270000E+03 0.  1.
    8880022    1    1    2    0    0  0.46624901215E+03 -0.11688555574E+03  0.88052579387E+03  0.10147747046E+04  0.15294330000E+03 0.  0.
<mgrwt>
<rscale>  0 0.72314032E+03</rscale>
<asrwt>0</asrwt>
<pdfrwt beam="1">  1        2 0.25434761E+00 0.81538983E+03</pdfrwt>
<pdfrwt beam="2">  1       -2 0.46567239E-01 0.81538983E+03</pdfrwt>
<totfact> 0.46310395E+01</totfact>
</mgrwt>
</event>
<event>
 4    5  0.1905771E-007  0.7448847E+03  0.7818608E-02  0.9845940E-01
         -2   -1    0    0    0  501 -0.00000000000E+00  0.00000000000E+00  0.39550938393E+03  0.39550938394E+03  0.25500000000E-02 0.  1.
          2   -1    0    0  501    0  0.00000000000E+00 -0.00000000000E+00 -0.83037880014E+03  0.83037880014E+03  0.25500000000E-02 0. -1.
    8880023    1    1    2    0    0  0.15535530534E+03  0.31129999151E+03 -0.39669197909E+03  0.84392990713E+03  0.65864270000E+03 0.  0.
    8880022    1    1    2    0    0 -0.15535530534E+03 -0.31129999151E+03 -0.38177437120E+02  0.38195827695E+03  0.15294330000E+03 0.  0.
<mgrwt>
<rscale>  0 0.62954341E+03</rscale>
<asrwt>0</asrwt>
<pdfrwt beam="1">  1        2 0.12775058E+00 0.74488466E+03</pdfrwt>
<pdfrwt beam="2">  1       -2 0.60847598E-01 0.74488466E+03</pdfrwt>
<totfact> 0.83469394E+01</totfact>
</mgrwt>
</event>
<event>
 4    5  0.1905771E-007  0.9610805E+03  0.7818608E-02  0.9434348E-01
          2   -1    0    0  501    0  0.00000000000E+00  0.00000000000E+00  0.76708185314E+03  0.76708185314E+03  0.25500000000E-02 0. -1.
         -2   -1    0    0    0  501 -0.00000000000E+00 -0.00000000000E+00 -0.19825801475E+04  0.19825801475E+04  0.25500000000E-02 0.  1.
    8880023    1    1    2    0    0 -0.58819107163E+03  0.37933718899E+03  0.35414473568E+03  0.10242529667E+04  0.65864270000E+03 0. -1.
    8880022    1    1    2    0    0  0.58819107163E+03 -0.37933718899E+03 -0.15696430300E+04  0.17254090339E+04  0.15294330000E+03 0.  0.
<mgrwt>
<rscale>  0 0.89302102E+03</rscale>
<asrwt>0</asrwt>
<pdfrwt beam="1">  1        2 0.11801259E+00 0.96108046E+03</pdfrwt>
<pdfrwt beam="2">  1       -2 0.30501233E+00 0.96108046E+03</pdfrwt>
<totfact> 0.10900194E+00</totfact>
</mgrwt>
</event>
<event>
 4    5  0.1905771E-007  0.7077107E+03  0.7818608E-02  0.9966602E-01
         -2   -1    0    0    0  501 -0.00000000000E+00  0.00000000000E+00  0.50861900042E+03  0.50861900043E+03  0.25500000000E-02 0.  1.
          2   -1    0    0  501    0  0.00000000000E+00 -0.00000000000E+00 -0.10325368001E+04  0.10325368001E+04  0.25500000000E-02 0. -1.
    8880023    1    1    2    0    0 -0.15832097225E+03  0.20488705092E+03 -0.84434495815E+03  0.11017135964E+04  0.65864270000E+03 0. -1.
    8880022    1    1    2    0    0  0.15832097225E+03 -0.20488705092E+03  0.32042715846E+03  0.43944220414E+03  0.15294330000E+03 0.  0.
<mgrwt>
<rscale>  0 0.57139235E+03</rscale>
<asrwt>0</asrwt>
<pdfrwt beam="1">  1        2 0.15885182E+00 0.70771070E+03</pdfrwt>
<pdfrwt beam="2">  1       -2 0.78249077E-01 0.70771070E+03</pdfrwt>
<totfact> 0.35597388E+01</totfact>
</mgrwt>
</event>
<event>
 4    5  0.1905771E-007  0.1615895E+04  0.7818608E-02  0.8831857E-01
         -2   -1    0    0    0  501 -0.00000000000E+00  0.00000000000E+00  0.23046838599E+04  0.23046838599E+04  0.25500000000E-02 0.  1.
          2   -1    0    0  501    0  0.00000000000E+00 -0.00000000000E+00 -0.13180669765E+04  0.13180669765E+04  0.25500000000E-02 0. -1.
    8880023    1    1    2    0    0 -0.10316963150E+04  0.10549450849E+04  0.13383299893E+04  0.20981524694E+04  0.65864270000E+03 0.  1.
    8880022    1    1    2    0    0  0.10316963150E+04 -0.10549450849E+04 -0.35171310591E+03  0.15245983669E+04  0.15294330000E+03 0.  0.
<mgrwt>
<rscale>  0 0.15817211E+04</rscale>
<asrwt>0</asrwt>
<pdfrwt beam="1">  1        2 0.20277954E+00 0.16158950E+04</pdfrwt>
<pdfrwt beam="2">  1       -2 0.35456674E+00 0.16158950E+04</pdfrwt>
<totfact> 0.21906801E-01</totfact>
</mgrwt>
</event>
<event>
 4    5  0.1905771E-007  0.8406467E+03  0.7818608E-02  0.9628962E-01
          2   -1    0    0  501    0  0.00000000000E+00  0.00000000000E+00  0.30280050491E+04  0.30280050491E+04  0.25500000000E-02 0. -1.
         -2   -1    0    0    0  501 -0.00000000000E+00 -0.00000000000E+00 -0.23063976880E+03  0.23063976881E+03  0.25500000000E-02 0.  1.
    8880023    1    1    2    0    0 -0.36332145639E+03 -0.37533203250E+03  0.25018192422E+04  0.26392776175E+04  0.65864270000E+03 0.  0.
    8880022    1    1    2    0    0  0.36332145639E+03  0.37533203250E+03  0.29554603810E+03  0.61936720041E+03  0.15294330000E+03 0.  0.
<mgrwt>
<rscale>  0 0.75408580E+03</rscale>
<asrwt>0</asrwt>
<pdfrwt beam="1">  1        2 0.46584686E+00 0.84064667E+03</pdfrwt>
<pdfrwt beam="2">  1       -2 0.35483047E-01 0.84064667E+03</pdfrwt>
<totfact> 0.13058864E+01</totfact>
</mgrwt>
</event>
<event>
 4    5  0.1905771E-007  0.9647073E+03  0.7818608E-02  0.9429262E-01
         -2   -1    0    0    0  501 -0.00000000000E+00  0.00000000000E+00  0.85908933189E+03  0.85908933189E+03  0.25500000000E-02 0.  1.
          2   -1    0    0  501    0  0.00000000000E+00 -0.00000000000E+00 -0.10678345021E+04  0.10678345021E+04  0.25500000000E-02 0. -1.
    8880023    1    1    2    0    0 -0.23832141420E+03 -0.66336480399E+03 -0.56970439288E+03  0.11203674670E+04  0.65864270000E+03 0.  0.
    8880022    1    1    2    0    0  0.23832141420E+03  0.66336480399E+03  0.36095922267E+03  0.80655636696E+03  0.15294330000E+03 0.  0.
<mgrwt>
<rscale>  0 0.89706169E+03</rscale>
<asrwt>0</asrwt>
<pdfrwt beam="1">  1        2 0.16428223E+00 0.96470730E+03</pdfrwt>
<pdfrwt beam="2">  1       -2 0.13216759E+00 0.96470730E+03</pdfrwt>
<totfact> 0.94539521E+00</totfact>
</mgrwt>
</event>
<event>
 4    5  0.1905771E-007  0.1316250E+04  0.7818608E-02  0.9051653E-01
          2   -1    0    0  501    0  0.00000000000E+00  0.00000000000E+00  0.27555083430E+04  0.27555083430E+04  0.25500000000E-02 0. -1.
         -2   -1    0    0    0  501 -0.00000000000E+00 -0.00000000000E+00 -0.61406143830E+03  0.61406143830E+03  0.25500000000E-02 0.  1.
    8880023    1    1    2    0    0  0.10425201429E+02  0.11395587271E+04  0.16711976490E+04  0.21273021802E+04  0.65864270000E+03 0.  0.
    8880022    1    1    2    0    0 -0.10425201429E+02 -0.11395587271E+04  0.47024925567E+03  0.12422676011E+04  0.15294330000E+03 0.  0.
<mgrwt>
<rscale>  0 0.12725109E+04</rscale>
<asrwt>0</asrwt>
<pdfrwt beam="1">  1        2 0.42392436E+00 0.13162496E+04</pdfrwt>
<pdfrwt beam="2">  1       -2 0.94470990E-01 0.13162496E+04</pdfrwt>
<totfact> 0.22629977E+00</totfact>
</mgrwt>
</event>
<event>
 4    5  0.1905771E-007  0.1004692E+04  0.7818608E-02  0.9375445E-01
          2   -1    0    0  501    0  0.00000000000E+00  0.00000000000E+00  0.17738129819E+04  0.17738129819E+04  0.25500000000E-02 0. -1.
         -2   -1    0    0    0  501 -0.00000000000E+00 -0.00000000000E+00 -0.97068167019E+03  0.97068167019E+03  0.25500000000E-02 0.  1.
    8880023    1    1    2    0    0 -0.75784830763E+03 -0.35522562664E+02  0.14306005327E+04  0.17481487351E+04  0.65864270000E+03 0. -1.
    8880022    1    1    2    0    0  0.75784830763E+03  0.35522562664E+02 -0.62746922100E+03  0.99634591692E+03  0.15294330000E+03 0.  0.
<mgrwt>
<rscale>  0 0.94124341E+03</rscale>
<asrwt>0</asrwt>
<pdfrwt beam="1">  1        2 0.27289430E+00 0.10046921E+04</pdfrwt>
<pdfrwt beam="2">  1       -2 0.14933564E+00 0.10046921E+04</pdfrwt>
<totfact> 0.26901030E+00</totfact>
</mgrwt>
</event>
<event>
 4    5  0.1905771E-007  0.1085185E+04  0.7818608E-02  0.9277733E-01
          2   -1    0    0  501    0  0.00000000000E+00  0.00000000000E+00  0.12385916973E+04  0.12385916973E+04  0.25500000000E-02 0. -1.
         -2   -1    0    0    0  501 -0.00000000000E+00 -0.00000000000E+00 -0.21256189695E+04  0.21256189695E+04  0.25500000000E-02 0.  1.
    8880023    1    1    2    0    0 -0.58146213227E+03  0.63695932504E+03  0.87662710693E+03  0.13950271266E+04  0.65864270000E+03 0.  0.
    8880022    1    1    2    0    0  0.58146213227E+03 -0.63695932504E+03 -0.17636543791E+04  0.19691835402E+04  0.15294330000E+03 0.  0.
<mgrwt>
<rscale>  0 0.10285888E+04</rscale>
<asrwt>0</asrwt>
<pdfrwt beam="1">  1        2 0.19055257E+00 0.10851846E+04</pdfrwt>
<pdfrwt beam="2">  1       -2 0.32701830E+00 0.10851846E+04</pdfrwt>
<totfact> 0.38719014E-01</totfact>
</mgrwt>
</event>
<event>
 4    5  0.2515433E-007  0.1272204E+04  0.7818608E-02  0.9089943E-01
          2   -1    0    0  501    0  0.00000000000E+00  0.00000000000E+00  0.30823369272E+04  0.30823369272E+04  0.25500000000E-02 0. -1.
         -2   -1    0    0    0  501 -0.00000000000E+00 -0.00000000000E+00 -0.15854795722E+04  0.15854795722E+04  0.25500000000E-02 0.  1.
    8880023    1    1    2    0    0  0.92429196441E+03  0.57478370900E+03  0.27324523707E+04  0.30140998842E+04  0.65864270000E+03 0. -1.
    8880022    1    1    2    0    0 -0.92429196441E+03 -0.57478370900E+03 -0.12355950157E+04  0.16537166152E+04  0.15294330000E+03 0.  0.
<mgrwt>
<rscale>  0 0.12265340E+04</rscale>
<asrwt>0</asrwt>
<pdfrwt beam="1">  1        2 0.47420568E+00 0.12722037E+04</pdfrwt>
<pdfrwt beam="2">  1       -2 0.24391993E+00 0.12722037E+04</pdfrwt>
<totfact> 0.10534929E-01</totfact>
</mgrwt>
</event>
<event>
 4    5  0.1905771E-007  0.1042729E+04  0.7818608E-02  0.9327674E-01
         -2   -1    0    0    0  501 -0.00000000000E+00  0.00000000000E+00  0.13871553634E+04  0.13871553634E+04  0.25500000000E-02 0.  1.
          2   -1    0    0  501    0  0.00000000000E+00 -0.00000000000E+00 -0.86830557481E+03  0.86830557481E+03  0.25500000000E-02 0. -1.
    8880023    1    1    2    0    0 -0.41206715833E+03 -0.69546678580E+03 -0.30978250163E+03  0.10877724016E+04  0.65864270000E+03 0. -1.
    8880022    1    1    2    0    0  0.41206715833E+03  0.69546678580E+03  0.82863229026E+03  0.11676885366E+04  0.15294330000E+03 0.  0.
<mgrwt>
<rscale>  0 0.98274609E+03</rscale>
<asrwt>0</asrwt>
<pdfrwt beam="1">  1        2 0.13358547E+00 0.10427289E+04</pdfrwt>
<pdfrwt beam="2">  1       -2 0.21340852E+00 0.10427289E+04</pdfrwt>
<totfact> 0.33187917E+00</totfact>
</mgrwt>
</event>
<event>
 4    5  0.1905771E-007  0.7377519E+03  0.7818608E-02  0.9866545E-01
          2   -1    0    0  501    0  0.00000000000E+00  0.00000000000E+00  0.13859283871E+04  0.13859283871E+04  0.25500000000E-02 0. -1.
         -2   -1    0    0    0  501 -0.00000000000E+00 -0.00000000000E+00 -0.97826701496E+03  0.97826701497E+03  0.25500000000E-02 0.  1.
    8880023    1    1    2    0    0 -0.32242019859E+03  0.80702418148E+02  0.12468255750E+04  0.14487414833E+04  0.65864270000E+03 0. -1.
    8880022    1    1    2    0    0  0.32242019859E+03 -0.80702418148E+02 -0.83916420293E+03  0.91545391869E+03  0.15294330000E+03 0.  0.
<mgrwt>
<rscale>  0 0.61910431E+03</rscale>
<asrwt>0</asrwt>
<pdfrwt beam="1">  1        2 0.21321975E+00 0.73775190E+03</pdfrwt>
<pdfrwt beam="2">  1       -2 0.15050262E+00 0.73775190E+03</pdfrwt>
<totfact> 0.44934313E+00</totfact>
</mgrwt>
</event>
<event>
 4    5  0.1905771E-007  0.7643830E+03  0.7818608E-02  0.9793890E-01
          2   -1    0    0  501    0  0.00000000000E+00  0.00000000000E+00  0.16852418113E+04  0.16852418113E+04  0.25500000000E-02 0. -1.
         -2   -1    0    0    0  501 -0.00000000000E+00 -0.00000000000E+00 -0.44274700582E+03  0.44274700582E+03  0.25500000000E-02 0.  1.
    8880023    1    1    2    0    0  0.27186845838E+03  0.27669231308E+03  0.14671648941E+04  0.16543440172E+04  0.65864270000E+03 0. -1.
    8880022    1    1    2    0    0 -0.27186845838E+03 -0.27669231308E+03 -0.22467008855E+03  0.47364479991E+03  0.15294330000E+03 0.  0.
<mgrwt>
<rscale>  0 0.65691482E+03</rscale>
<asrwt>0</asrwt>
<pdfrwt beam="1">  1        2 0.25926797E+00 0.76438295E+03</pdfrwt>
<pdfrwt beam="2">  1       -2 0.68114924E-01 0.76438295E+03</pdfrwt>
<totfact> 0.20221940E+01</totfact>
</mgrwt>
</event>
<event>
 4    5  0.1905771E-007  0.1212078E+04  0.7818608E-02  0.9145471E-01
         -2   -1    0    0    0  501 -0.00000000000E+00  0.00000000000E+00  0.87069436231E+03  0.87069436232E+03  0.25500000000E-02 0.  1.
          2   -1    0    0  501    0  0.00000000000E+00 -0.00000000000E+00 -0.20246136476E+04  0.20246136476E+04  0.25500000000E-02 0. -1.
    8880023    1    1    2    0    0 -0.10120995211E+04 -0.10476762952E+03 -0.13852712597E+04  0.18406814950E+04  0.65864270000E+03 0. -1.
    8880022    1    1    2    0    0  0.10120995211E+04  0.10476762952E+03  0.23135197441E+03  0.10546265149E+04  0.15294330000E+03 0.  0.
<mgrwt>
<rscale>  0 0.11634430E+04</rscale>
<asrwt>0</asrwt>
<pdfrwt beam="1">  1        2 0.31147902E+00 0.12120775E+04</pdfrwt>
<pdfrwt beam="2">  1       -2 0.13395298E+00 0.12120775E+04</pdfrwt>
<totfact> 0.25365948E+00</totfact>
</mgrwt>
</event>
<event>
 4    5  0.1905771E-007  0.9034943E+03  0.7818608E-02  0.9520445E-01
         -2   -1    0    0    0  501 -0.00000000000E+00  0.00000000000E+00  0.84639772996E+03  0.84639772996E+03  0.25500000000E-02 0.  1.
          2   -1    0    0  501    0  0.00000000000E+00 -0.00000000000E+00 -0.12382037065E+04  0.12382037065E+04  0.25500000000E-02 0. -1.
    8880023    1    1    2    0    0 -0.65003554965E+02 -0.61503359946E+03 -0.89576854796E+03  0.12722827077E+04  0.65864270000E+03 0. -1.
    8880022    1    1    2    0    0  0.65003554965E+02  0.61503359946E+03  0.50396257142E+03  0.81231872872E+03  0.15294330000E+03 0.  0.
<mgrwt>
<rscale>  0 0.82793118E+03</rscale>
<asrwt>0</asrwt>
<pdfrwt beam="1">  1        2 0.19049288E+00 0.90349433E+03</pdfrwt>
<pdfrwt beam="2">  1       -2 0.13021504E+00 0.90349433E+03</pdfrwt>
<totfact> 0.77903779E+00</totfact>
</mgrwt>
</event>
<event>
 4    5  0.1905771E-007  0.9122695E+03  0.7818608E-02  0.9506615E-01
          2   -1    0    0  501    0  0.00000000000E+00  0.00000000000E+00  0.17610723665E+04  0.17610723665E+04  0.25500000000E-02 0. -1.
         -2   -1    0    0    0  501 -0.00000000000E+00 -0.00000000000E+00 -0.46623833650E+03  0.46623833651E+03  0.25500000000E-02 0.  1.
    8880023    1    1    2    0    0 -0.35170074622E+03  0.52414892887E+03  0.12873205203E+04  0.15777927122E+04  0.65864270000E+03 0.  1.
    8880022    1    1    2    0    0  0.35170074622E+03 -0.52414892887E+03  0.75135097169E+01  0.64951799080E+03  0.15294330000E+03 0.  0.
<mgrwt>
<rscale>  0 0.83797857E+03</rscale>
<asrwt>0</asrwt>
<pdfrwt beam="1">  1        2 0.27093421E+00 0.91226954E+03</pdfrwt>
<pdfrwt beam="2">  1       -2 0.71728975E-01 0.91226954E+03</pdfrwt>
<totfact> 0.16128502E+01</totfact>
</mgrwt>
</event>
<event>
 4    5  0.1905771E-007  0.1308730E+04  0.7818608E-02  0.9058058E-01
         -2   -1    0    0    0  501 -0.00000000000E+00  0.00000000000E+00  0.31683930522E+04  0.31683930522E+04  0.25500000000E-02 0.  1.
          2   -1    0    0  501    0  0.00000000000E+00 -0.00000000000E+00 -0.14616950653E+04  0.14616950653E+04  0.25500000000E-02 0. -1.
    8880023    1    1    2    0    0 -0.11309101444E+04  0.24064153874E+01 -0.10297042656E+04  0.16652521210E+04  0.65864270000E+03 0.  0.
    8880022    1    1    2    0    0  0.11309101444E+04 -0.24064153874E+01  0.27364022526E+04  0.29648359966E+04  0.15294330000E+03 0.  0.
<mgrwt>
<rscale>  0 0.12646743E+04</rscale>
<asrwt>0</asrwt>
<pdfrwt beam="1">  1        2 0.22487617E+00 0.13087298E+04</pdfrwt>
<pdfrwt beam="2">  1       -2 0.48744508E+00 0.13087298E+04</pdfrwt>
<totfact> 0.25382040E-02</totfact>
</mgrwt>
</event>
<event>
 4    5  0.1905771E-007  0.7709074E+03  0.7818608E-02  0.9777646E-01
          2   -1    0    0  501    0  0.00000000000E+00  0.00000000000E+00  0.11671567405E+04  0.11671567405E+04  0.25500000000E-02 0. -1.
         -2   -1    0    0    0  501 -0.00000000000E+00 -0.00000000000E+00 -0.15619442520E+04  0.15619442520E+04  0.25500000000E-02 0.  1.
    8880023    1    1    2    0    0  0.32353499254E+03 -0.23624791666E+03  0.10041346121E+04  0.12659322632E+04  0.65864270000E+03 0. -1.
    8880022    1    1    2    0    0 -0.32353499254E+03  0.23624791666E+03 -0.13989221236E+04  0.14631687294E+04  0.15294330000E+03 0.  0.
<mgrwt>
<rscale>  0 0.66576100E+03</rscale>
<asrwt>0</asrwt>
<pdfrwt beam="1">  1        2 0.17956257E+00 0.77090737E+03</pdfrwt>
<pdfrwt beam="2">  1       -2 0.24029912E+00 0.77090737E+03</pdfrwt>
<totfact> 0.15066593E+00</totfact>
</mgrwt>
</event>
<event>
 4    5  0.3041817E-007  0.8409401E+03  0.7818608E-02  0.9628410E-01
         -2   -1    0    0    0  501 -0.00000000000E+00  0.00000000000E+00  0.12524285769E+04  0.12524285769E+04  0.25500000000E-02 0.  1.
          2   -1    0    0  501    0  0.00000000000E+00 -0.00000000000E+00 -0.29878670312E+04  0.29878670312E+04  0.25500000000E-02 0. -1.
    8880023    1    1    2    0    0  0.41861472337E+02  0.52116956075E+03 -0.28651968534E+04  0.29860564812E+04  0.65864270000E+03 0. -1.
    8880022    1    1    2    0    0 -0.41861472337E+02 -0.52116956075E+03  0.11297583992E+04  0.12542391269E+04  0.15294330000E+03 0.  0.
<mgrwt>
<rscale>  0 0.75444016E+03</rscale>
<asrwt>0</asrwt>
<pdfrwt beam="1">  1        2 0.45967185E+00 0.84094013E+03</pdfrwt>
<pdfrwt beam="2">  1       -2 0.19268132E+00 0.84094013E+03</pdfrwt>
<totfact> 0.27693843E-01</totfact>
</mgrwt>
</event>
<event>
 4    5  0.1905771E-007  0.9099085E+03  0.7818608E-02  0.9510309E-01
          2   -1    0    0  501    0  0.00000000000E+00  0.00000000000E+00  0.17132867611E+04  0.17132867611E+04  0.25500000000E-02 0. -1.
         -2   -1    0    0    0  501 -0.00000000000E+00 -0.00000000000E+00 -0.55159951425E+03  0.55159951425E+03  0.25500000000E-02 0.  1.
    8880023    1    1    2    0    0 -0.61544452937E+03  0.12390070750E+03  0.13165943743E+04  0.16004231649E+04  0.65864270000E+03 0. -1.
    8880022    1    1    2    0    0  0.61544452937E+03 -0.12390070750E+03 -0.15490712741E+03  0.66446311048E+03  0.15294330000E+03 0.  0.
<mgrwt>
<rscale>  0 0.83528045E+03</rscale>
<asrwt>0</asrwt>
<pdfrwt beam="1">  1        2 0.26358258E+00 0.90990855E+03</pdfrwt>
<pdfrwt beam="2">  1       -2 0.84861463E-01 0.90990855E+03</pdfrwt>
<totfact> 0.11756396E+01</totfact>
</mgrwt>
</event>
<event>
 4    5  0.1905771E-007  0.1424452E+04  0.7818608E-02  0.8964912E-01
         -2   -1    0    0    0  501 -0.00000000000E+00  0.00000000000E+00  0.12087423233E+04  0.12087423233E+04  0.25500000000E-02 0.  1.
          2   -1    0    0  501    0  0.00000000000E+00 -0.00000000000E+00 -0.23042604505E+04  0.23042604505E+04  0.25500000000E-02 0. -1.
    8880023    1    1    2    0    0 -0.11807855480E+04  0.44832823652E+03 -0.16019381659E+04  0.21436578112E+04  0.65864270000E+03 0.  0.
    8880022    1    1    2    0    0  0.11807855480E+04 -0.44832823652E+03  0.50642003866E+03  0.13693449626E+04  0.15294330000E+03 0.  0.
<mgrwt>
<rscale>  0 0.13847767E+04</rscale>
<asrwt>0</asrwt>
<pdfrwt beam="1">  1        2 0.35450161E+00 0.14244518E+04</pdfrwt>
<pdfrwt beam="2">  1       -2 0.18596036E+00 0.14244518E+04</pdfrwt>
<totfact> 0.70541797E-01</totfact>
</mgrwt>
</event>
<event>
 4    5  0.1905771E-007  0.8596877E+03  0.7818608E-02  0.9594119E-01
          2   -1    0    0  501    0  0.00000000000E+00  0.00000000000E+00  0.11198631736E+04  0.11198631736E+04  0.25500000000E-02 0. -1.
         -2   -1    0    0    0  501 -0.00000000000E+00 -0.00000000000E+00 -0.13511257593E+04  0.13511257593E+04  0.25500000000E-02 0.  1.
    8880023    1    1    2    0    0 -0.36881127588E+03  0.41137692891E+03  0.87397161365E+03  0.12259238649E+04  0.65864270000E+03 0.  0.
    8880022    1    1    2    0    0  0.36881127588E+03 -0.41137692891E+03 -0.11052341994E+04  0.12450650679E+04  0.15294330000E+03 0.  0.
<mgrwt>
<rscale>  0 0.77686635E+03</rscale>
<asrwt>0</asrwt>
<pdfrwt beam="1">  1        2 0.17228664E+00 0.85968770E+03</pdfrwt>
<pdfrwt beam="2">  1       -2 0.20786550E+00 0.85968770E+03</pdfrwt>
<totfact> 0.25299359E+00</totfact>
</mgrwt>
</event>
<event>
 4    5  0.1905771E-007  0.7256797E+03  0.7818608E-02  0.9903816E-01
         -2   -1    0    0    0  501 -0.00000000000E+00  0.00000000000E+00  0.28670126383E+03  0.28670126384E+03  0.25500000000E-02 0.  1.
          2   -1    0    0  501    0  0.00000000000E+00 -0.00000000000E+00 -0.13211157343E+04  0.13211157343E+04  0.25500000000E-02 0. -1.
    8880023    1    1    2    0    0  0.64505197592E+02 -0.29772458492E+03 -0.10384994378E+04  0.12669223092E+04  0.65864270000E+03 0. -1.
    8880022    1    1    2    0    0 -0.64505197592E+02  0.29772458492E+03  0.40849673206E+01  0.34089468895E+03  0.15294330000E+03 0.  0.
<mgrwt>
<rscale>  0 0.60076691E+03</rscale>
<asrwt>0</asrwt>
<pdfrwt beam="1">  1        2 0.20324857E+00 0.72567972E+03</pdfrwt>
<pdfrwt beam="2">  1       -2 0.44107887E-01 0.72567972E+03</pdfrwt>
<totfact> 0.79870828E+01</totfact>
</mgrwt>
</event>
<event>
 4    5  0.1905771E-007  0.6891922E+03  0.7818608E-02  0.1004539E+00
         -2   -1    0    0    0  501 -0.00000000000E+00  0.00000000000E+00  0.18366630224E+04  0.18366630224E+04  0.25500000000E-02 0.  1.
          2   -1    0    0  501    0  0.00000000000E+00 -0.00000000000E+00 -0.14122891070E+04  0.14122891070E+04  0.25500000000E-02 0. -1.
    8880023    1    1    2    0    0  0.10543236484E+03 -0.17337752449E+03 -0.13184429028E+04  0.14877088572E+04  0.65864270000E+03 0. -1.
    8880022    1    1    2    0    0 -0.10543236484E+03  0.17337752449E+03  0.17428168182E+04  0.17612432723E+04  0.15294330000E+03 0.  0.
<mgrwt>
<rscale>  0 0.53704039E+03</rscale>
<asrwt>0</asrwt>
<pdfrwt beam="1">  1        2 0.21727525E+00 0.68919225E+03</pdfrwt>
<pdfrwt beam="2">  1       -2 0.28256354E+00 0.68919225E+03</pdfrwt>
<totfact> 0.61471872E-01</totfact>
</mgrwt>
</event>
<event>
 4    5  0.1905771E-007  0.7192976E+03  0.7818608E-02  0.9924970E-01
         -2   -1    0    0    0  501 -0.00000000000E+00  0.00000000000E+00  0.55618505079E+03  0.55618505080E+03  0.25500000000E-02 0.  1.
          2   -1    0    0  501    0  0.00000000000E+00 -0.00000000000E+00 -0.16249489111E+04  0.16249489111E+04  0.25500000000E-02 0. -1.
    8880023    1    1    2    0    0 -0.60323677480E+02  0.28273643610E+03 -0.14860306766E+04  0.16509622093E+04  0.65864270000E+03 0.  0.
    8880022    1    1    2    0    0  0.60323677480E+02 -0.28273643610E+03  0.41726681626E+03  0.53017175267E+03  0.15294330000E+03 0.  0.
<mgrwt>
<rscale>  0 0.59066258E+03</rscale>
<asrwt>0</asrwt>
<pdfrwt beam="1">  1        2 0.24999214E+00 0.71929761E+03</pdfrwt>
<pdfrwt beam="2">  1       -2 0.85566932E-01 0.71929761E+03</pdfrwt>
<totfact> 0.13215068E+01</totfact>
</mgrwt>
</event>
<event>
 4    5  0.1905771E-007  0.7083708E+03  0.7818608E-02  0.9964101E-01
         -2   -1    0    0    0  501 -0.00000000000E+00  0.00000000000E+00  0.10191186870E+04  0.10191186870E+04  0.25500000000E-02 0.  1.
          2   -1    0    0  501    0  0.00000000000E+00 -0.00000000000E+00 -0.93553687897E+03  0.93553687897E+03  0.25500000000E-02 0. -1.
    8880023    1    1    2    0    0 -0.19660541172E+03  0.17124635082E+03 -0.77170228575E+03  0.10475273861E+04  0.65864270000E+03 0.  0.
    8880022    1    1    2    0    0  0.19660541172E+03 -0.17124635082E+03  0.85528409380E+03  0.90712817987E+03  0.15294330000E+03 0.  0.
<mgrwt>
<rscale>  0 0.57252748E+03</rscale>
<asrwt>0</asrwt>
<pdfrwt beam="1">  1        2 0.14392875E+00 0.70837081E+03</pdfrwt>
<pdfrwt beam="2">  1       -2 0.15678749E+00 0.70837081E+03</pdfrwt>
<totfact> 0.75615880E+00</totfact>
</mgrwt>
</event>
<event>
 4    5  0.1905771E-007  0.8710292E+03  0.7818608E-02  0.9574238E-01
          2   -1    0    0  501    0  0.00000000000E+00  0.00000000000E+00  0.20064791720E+04  0.20064791720E+04  0.25500000000E-02 0. -1.
         -2   -1    0    0    0  501 -0.00000000000E+00 -0.00000000000E+00 -0.33436924824E+03  0.33436924825E+03  0.25500000000E-02 0.  1.
    8880023    1    1    2    0    0  0.36788940090E+03  0.43536085296E+03  0.14852613689E+04  0.17218284537E+04  0.65864270000E+03 0. -1.
    8880022    1    1    2    0    0 -0.36788940090E+03 -0.43536085296E+03  0.18684855485E+03  0.61901996660E+03  0.15294330000E+03 0.  0.
<mgrwt>
<rscale>  0 0.79025012E+03</rscale>
<asrwt>0</asrwt>
<pdfrwt beam="1">  1        2 0.30868910E+00 0.87102921E+03</pdfrwt>
<pdfrwt beam="2">  1       -2 0.51441423E-01 0.87102921E+03</pdfrwt>
<totfact> 0.24082141E+01</totfact>
</mgrwt>
</event>
<event>
 4    5  0.1905771E-007  0.1306738E+04  0.7818608E-02  0.9059763E-01
         -2   -1    0    0    0  501 -0.00000000000E+00  0.00000000000E+00  0.13988610102E+04  0.13988610102E+04  0.25500000000E-02 0.  1.
          2   -1    0    0  501    0  0.00000000000E+00 -0.00000000000E+00 -0.41829937020E+04  0.41829937020E+04  0.25500000000E-02 0. -1.
    8880023    1    1    2    0    0 -0.34571885962E+03 -0.10743522783E+04 -0.38230862839E+04  0.40402417364E+04  0.65864270000E+03 0. -1.
    8880022    1    1    2    0    0  0.34571885962E+03  0.10743522783E+04  0.10389535921E+04  0.15416129758E+04  0.15294330000E+03 0.  0.
<mgrwt>
<rscale>  0 0.12625978E+04</rscale>
<asrwt>0</asrwt>
<pdfrwt beam="1">  1        2 0.64353748E+00 0.13067381E+04</pdfrwt>
<pdfrwt beam="2">  1       -2 0.21520939E+00 0.13067381E+04</pdfrwt>
<totfact> 0.25267019E-02</totfact>
</mgrwt>
</event>
<event>
 4    5  0.1905771E-007  0.1206047E+04  0.7818608E-02  0.9151267E-01
         -2   -1    0    0    0  501 -0.00000000000E+00  0.00000000000E+00  0.76485957710E+03  0.76485957711E+03  0.25500000000E-02 0.  1.
          2   -1    0    0  501    0  0.00000000000E+00 -0.00000000000E+00 -0.21240532348E+04  0.21240532348E+04  0.25500000000E-02 0. -1.
    8880023    1    1    2    0    0 -0.50467131734E+03  0.87524052948E+03 -0.14227084288E+04  0.18651135629E+04  0.65864270000E+03 0.  0.
    8880022    1    1    2    0    0  0.50467131734E+03 -0.87524052948E+03  0.63514771124E+02  0.10237992490E+04  0.15294330000E+03 0.  0.
<mgrwt>
<rscale>  0 0.11570910E+04</rscale>
<asrwt>0</asrwt>
<pdfrwt beam="1">  1        2 0.32677742E+00 0.12060470E+04</pdfrwt>
<pdfrwt beam="2">  1       -2 0.11767071E+00 0.12060470E+04</pdfrwt>
<totfact> 0.31015548E+00</totfact>
</mgrwt>
</event>
<event>
 4    5  0.1905771E-007  0.1137994E+04  0.7818608E-02  0.9219889E-01
         -2   -1    0    0    0  501 -0.00000000000E+00  0.00000000000E+00  0.33790977969E+03  0.33790977970E+03  0.25500000000E-02 0.  1.
          2   -1    0    0  501    0  0.00000000000E+00 -0.00000000000E+00 -0.32675048114E+04  0.32675048114E+04  0.25500000000E-02 0. -1.
    8880023    1    1    2    0    0 -0.85363659394E+03 -0.36403850595E+03 -0.13360469462E+04  0.17550074407E+04  0.65864270000E+03 0.  0.
    8880022    1    1    2    0    0  0.85363659394E+03  0.36403850595E+03 -0.15935480856E+04  0.18504071504E+04  0.15294330000E+03 0.  0.
<mgrwt>
<rscale>  0 0.10850480E+04</rscale>
<asrwt>0</asrwt>
<pdfrwt beam="1">  1        2 0.50269303E+00 0.11379937E+04</pdfrwt>
<pdfrwt beam="2">  1       -2 0.51986122E-01 0.11379937E+04</pdfrwt>
<totfact> 0.41333094E+00</totfact>
</mgrwt>
</event>
<event>
 4    5  0.1905771E-007  0.9624228E+03  0.7818608E-02  0.9432461E-01
         -2   -1    0    0    0  501 -0.00000000000E+00  0.00000000000E+00  0.19898171062E+04  0.19898171062E+04  0.25500000000E-02 0.  1.
          2   -1    0    0  501    0  0.00000000000E+00 -0.00000000000E+00 -0.58949304537E+03  0.58949304537E+03  0.25500000000E-02 0. -1.
    8880023    1    1    2    0    0 -0.64427934822E+03 -0.27812162197E+03 -0.47010104608E+02  0.96357027318E+03  0.65864270000E+03 0.  0.
    8880022    1    1    2    0    0  0.64427934822E+03  0.27812162197E+03  0.14473341654E+04  0.16157398784E+04  0.15294330000E+03 0.  0.
<mgrwt>
<rscale>  0 0.89451727E+03</rscale>
<asrwt>0</asrwt>
<pdfrwt beam="1">  1        2 0.90691238E-01 0.96242284E+03</pdfrwt>
<pdfrwt beam="2">  1       -2 0.30612571E+00 0.96242284E+03</pdfrwt>
<totfact> 0.14945363E+00</totfact>
</mgrwt>
</event>
<event>
 4    5  0.1905771E-007  0.1267969E+04  0.7818608E-02  0.9093726E-01
          2   -1    0    0  501    0  0.00000000000E+00  0.00000000000E+00  0.23258897646E+04  0.23258897646E+04  0.25500000000E-02 0. -1.
         -2   -1    0    0    0  501 -0.00000000000E+00 -0.00000000000E+00 -0.93169437510E+03  0.93169437510E+03  0.25500000000E-02 0.  1.
    8880023    1    1    2    0    0  0.55462296784E+03 -0.93076728913E+03  0.17006003231E+04  0.21212699141E+04  0.65864270000E+03 0. -1.
    8880022    1    1    2    0    0 -0.55462296784E+03  0.93076728913E+03 -0.30640493366E+03  0.11363142256E+04  0.15294330000E+03 0.  0.
<mgrwt>
<rscale>  0 0.12221034E+04</rscale>
<asrwt>0</asrwt>
<pdfrwt beam="1">  1        2 0.35782919E+00 0.12679687E+04</pdfrwt>
<pdfrwt beam="2">  1       -2 0.14333760E+00 0.12679687E+04</pdfrwt>
<totfact> 0.14336845E+00</totfact>
</mgrwt>
</event>
<event>
 4    5  0.1905771E-007  0.1739461E+04  0.7818608E-02  0.8756785E-01
          2   -1    0    0  501    0  0.00000000000E+00  0.00000000000E+00  0.22008129779E+04  0.22008129779E+04  0.25500000000E-02 0. -1.
         -2   -1    0    0    0  501 -0.00000000000E+00 -0.00000000000E+00 -0.18746678729E+04  0.18746678729E+04  0.25500000000E-02 0.  1.
    8880023    1    1    2    0    0 -0.46951919883E+03  0.15399562680E+04 -0.98015578901E+03  0.19966044081E+04  0.65864270000E+03 0.  0.
    8880022    1    1    2    0    0  0.46951919883E+03 -0.15399562680E+04  0.13063008940E+04  0.20788764427E+04  0.15294330000E+03 0.  0.
<mgrwt>
<rscale>  0 0.17080527E+04</rscale>
<asrwt>0</asrwt>
<pdfrwt beam="1">  1        2 0.33858661E+00 0.17394608E+04</pdfrwt>
<pdfrwt beam="2">  1       -2 0.28841044E+00 0.17394608E+04</pdfrwt>
<totfact> 0.17610896E-01</totfact>
</mgrwt>
</event>
<event>
 4    5  0.1905771E-007  0.1400529E+04  0.7818608E-02  0.8983272E-01
         -2   -1    0    0    0  501 -0.00000000000E+00  0.00000000000E+00  0.14715859086E+04  0.14715859086E+04  0.25500000000E-02 0.  1.
          2   -1    0    0  501    0  0.00000000000E+00 -0.00000000000E+00 -0.16170185935E+04  0.16170185935E+04  0.25500000000E-02 0. -1.
    8880023    1    1    2    0    0  0.60937584179E+03 -0.10753284226E+04 -0.86902880374E+03  0.16482388786E+04  0.65864270000E+03 0.  0.
    8880022    1    1    2    0    0 -0.60937584179E+03  0.10753284226E+04  0.72359611884E+03  0.14403656234E+04  0.15294330000E+03 0.  0.
<mgrwt>
<rscale>  0 0.13600273E+04</rscale>
<asrwt>0</asrwt>
<pdfrwt beam="1">  1        2 0.24877209E+00 0.14005286E+04</pdfrwt>
<pdfrwt beam="2">  1       -2 0.22639783E+00 0.14005286E+04</pdfrwt>
<totfact> 0.93273259E-01</totfact>
</mgrwt>
</event>
<event>
 4    5  0.1905771E-007  0.9171471E+03  0.7818608E-02  0.9499047E-01
         -2   -1    0    0    0  501 -0.00000000000E+00  0.00000000000E+00  0.10685367165E+04  0.10685367165E+04  0.25500000000E-02 0.  1.
          2   -1    0    0  501    0  0.00000000000E+00 -0.00000000000E+00 -0.65935135813E+03  0.65935135813E+03  0.25500000000E-02 0. -1.
    8880023    1    1    2    0    0 -0.63617460594E+03  0.51287359223E+02 -0.63096726619E+02  0.91931492191E+03  0.65864270000E+03 0.  0.
    8880022    1    1    2    0    0  0.63617460594E+03 -0.51287359223E+02  0.47228208495E+03  0.80857315268E+03  0.15294330000E+03 0.  0.
<mgrwt>
<rscale>  0 0.84354092E+03</rscale>
<asrwt>0</asrwt>
<pdfrwt beam="1">  1        2 0.10143867E+00 0.91714706E+03</pdfrwt>
<pdfrwt beam="2">  1       -2 0.16439026E+00 0.91714706E+03</pdfrwt>
<totfact> 0.10328572E+01</totfact>
</mgrwt>
</event>
<event>
 4    5  0.1905771E-007  0.1798248E+04  0.7818608E-02  0.8723506E-01
         -2   -1    0    0    0  501 -0.00000000000E+00  0.00000000000E+00  0.13801915993E+04  0.13801915993E+04  0.25500000000E-02 0.  1.
          2   -1    0    0  501    0  0.00000000000E+00 -0.00000000000E+00 -0.26452480275E+04  0.26452480275E+04  0.25500000000E-02 0. -1.
    8880023    1    1    2    0    0 -0.14953538529E+04  0.75086671328E+03 -0.14832972760E+04  0.23310652033E+04  0.65864270000E+03 0.  0.
    8880022    1    1    2    0    0  0.14953538529E+04 -0.75086671328E+03  0.21824084785E+03  0.16943744235E+04  0.15294330000E+03 0.  0.
<mgrwt>
<rscale>  0 0.17679959E+04</rscale>
<asrwt>0</asrwt>
<pdfrwt beam="1">  1        2 0.40696123E+00 0.17982475E+04</pdfrwt>
<pdfrwt beam="2">  1       -2 0.21233717E+00 0.17982475E+04</pdfrwt>
<totfact> 0.28808493E-01</totfact>
</mgrwt>
</event>
<event>
 4    5  0.1905771E-007  0.6802330E+03  0.7818608E-02  0.1009192E+00
         -2   -1    0    0    0  501 -0.00000000000E+00  0.00000000000E+00  0.93093659168E+03  0.93093659168E+03  0.25500000000E-02 0.  1.
          2   -1    0    0  501    0  0.00000000000E+00 -0.00000000000E+00 -0.30986510170E+04  0.30986510170E+04  0.25500000000E-02 0. -1.
    8880023    1    1    2    0    0 -0.88403007523E+01  0.16978976864E+03 -0.30465075453E+04  0.31215260925E+04  0.65864270000E+03 0. -1.
    8880022    1    1    2    0    0  0.88403007523E+01 -0.16978976864E+03  0.87879311996E+03  0.90806151618E+03  0.15294330000E+03 0.  0.
<mgrwt>
<rscale>  0 0.51796962E+03</rscale>
<asrwt>0</asrwt>
<pdfrwt beam="1">  1        2 0.47671554E+00 0.68023299E+03</pdfrwt>
<pdfrwt beam="2">  1       -2 0.14322102E+00 0.68023299E+03</pdfrwt>
<totfact> 0.55752606E-01</totfact>
</mgrwt>
</event>
<event>
 4    5  0.1905771E-007  0.7153079E+03  0.7818608E-02  0.9938794E-01
         -2   -1    0    0    0  501 -0.00000000000E+00  0.00000000000E+00  0.46566917786E+03  0.46566917787E+03  0.25500000000E-02 0.  1.
          2   -1    0    0  501    0  0.00000000000E+00 -0.00000000000E+00 -0.75577469077E+03  0.75577469077E+03  0.25500000000E-02 0. -1.
    8880023    1    1    2    0    0  0.96585659790E+02  0.26177546095E+03 -0.47001735521E+03  0.85590986797E+03  0.65864270000E+03 0.  0.
    8880022    1    1    2    0    0 -0.96585659790E+02 -0.26177546095E+03  0.17991184230E+03  0.36553400067E+03  0.15294330000E+03 0.  0.
<mgrwt>
<rscale>  0 0.58417430E+03</rscale>
<asrwt>0</asrwt>
<pdfrwt beam="1">  1        2 0.11627303E+00 0.71530790E+03</pdfrwt>
<pdfrwt beam="2">  1       -2 0.71641412E-01 0.71530790E+03</pdfrwt>
<totfact> 0.66617364E+01</totfact>
</mgrwt>
</event>
<event>
 4    5  0.1905771E-007  0.6951624E+03  0.7818608E-02  0.1001789E+00
          2   -1    0    0  501    0  0.00000000000E+00  0.00000000000E+00  0.28449584173E+04  0.28449584173E+04  0.25500000000E-02 0. -1.
         -2   -1    0    0    0  501 -0.00000000000E+00 -0.00000000000E+00 -0.45701501586E+03  0.45701501587E+03  0.25500000000E-02 0.  1.
    8880023    1    1    2    0    0  0.60865199107E+02  0.21385962340E+03  0.27578326380E+04  0.28440976735E+04  0.65864270000E+03 0. -1.
    8880022    1    1    2    0    0 -0.60865199107E+02 -0.21385962340E+03 -0.36988923654E+03  0.45787575968E+03  0.15294330000E+03 0.  0.
<mgrwt>
<rscale>  0 0.54872544E+03</rscale>
<asrwt>0</asrwt>
<pdfrwt beam="1">  1        2 0.43768591E+00 0.69516237E+03</pdfrwt>
<pdfrwt beam="2">  1       -2 0.70310002E-01 0.69516237E+03</pdfrwt>
<totfact> 0.42887293E+00</totfact>
</mgrwt>
</event>
<event>
 4    5  0.1905771E-007  0.1416193E+04  0.7818608E-02  0.8971201E-01
          2   -1    0    0  501    0  0.00000000000E+00  0.00000000000E+00  0.12027668882E+04  0.12027668882E+04  0.25500000000E-02 0. -1.
         -2   -1    0    0    0  501 -0.00000000000E+00 -0.00000000000E+00 -0.17472788756E+04  0.17472788756E+04  0.25500000000E-02 0.  1.
    8880023    1    1    2    0    0 -0.89411336776E+03  0.87883685628E+03 -0.84856167363E+03  0.16509573146E+04  0.65864270000E+03 0.  0.
    8880022    1    1    2    0    0  0.89411336776E+03 -0.87883685628E+03  0.30404968621E+03  0.12990884493E+04  0.15294330000E+03 0.  0.
<mgrwt>
<rscale>  0 0.13762370E+04</rscale>
<asrwt>0</asrwt>
<pdfrwt beam="1">  1        2 0.18504106E+00 0.14161932E+04</pdfrwt>
<pdfrwt beam="2">  1       -2 0.26881214E+00 0.14161932E+04</pdfrwt>
<totfact> 0.88496619E-01</totfact>
</mgrwt>
</event>
<event>
 4    5  0.1905771E-007  0.8512440E+03  0.7818608E-02  0.9609333E-01
          2   -1    0    0  501    0  0.00000000000E+00  0.00000000000E+00  0.86636153406E+03  0.86636153406E+03  0.25500000000E-02 0. -1.
         -2   -1    0    0    0  501 -0.00000000000E+00 -0.00000000000E+00 -0.13735434111E+04  0.13735434112E+04  0.25500000000E-02 0.  1.
    8880023    1    1    2    0    0  0.10320766626E+03 -0.52929603241E+03  0.57079535972E+03  0.10249017813E+04  0.65864270000E+03 0. -1.
    8880022    1    1    2    0    0 -0.10320766626E+03  0.52929603241E+03 -0.10779772368E+04  0.12150031639E+04  0.15294330000E+03 0.  0.
<mgrwt>
<rscale>  0 0.76681558E+03</rscale>
<asrwt>0</asrwt>
<pdfrwt beam="1">  1        2 0.13328639E+00 0.85124398E+03</pdfrwt>
<pdfrwt beam="2">  1       -2 0.21131437E+00 0.85124398E+03</pdfrwt>
<totfact> 0.35088442E+00</totfact>
</mgrwt>
</event>
<event>
 4    5  0.1905771E-007  0.7952329E+03  0.7818608E-02  0.9721200E-01
          2   -1    0    0  501    0  0.00000000000E+00  0.00000000000E+00  0.23863232290E+04  0.23863232290E+04  0.25500000000E-02 0. -1.
         -2   -1    0    0    0  501 -0.00000000000E+00 -0.00000000000E+00 -0.26014741186E+03  0.26014741187E+03  0.25500000000E-02 0.  1.
    8880023    1    1    2    0    0  0.22854042410E+03  0.38256287921E+03  0.20094476382E+04  0.21610819278E+04  0.65864270000E+03 0. -1.
    8880022    1    1    2    0    0 -0.22854042410E+03 -0.38256287921E+03  0.11672817902E+03  0.48538871308E+03  0.15294330000E+03 0.  1.
<mgrwt>
<rscale>  0 0.69768465E+03</rscale>
<asrwt>0</asrwt>
<pdfrwt beam="1">  1        2 0.36712666E+00 0.79523285E+03</pdfrwt>
<pdfrwt beam="2">  1       -2 0.40022677E-01 0.79523285E+03</pdfrwt>
<totfact> 0.24756806E+01</totfact>
</mgrwt>
</event>
<event>
 4    5  0.1905771E-007  0.7583351E+03  0.7818608E-02  0.9809437E-01
         -2   -1    0    0    0  501 -0.00000000000E+00  0.00000000000E+00  0.81936735138E+03  0.81936735139E+03  0.25500000000E-02 0.  1.
          2   -1    0    0  501    0  0.00000000000E+00 -0.00000000000E+00 -0.12962971031E+04  0.12962971031E+04  0.25500000000E-02 0. -1.
    8880023    1    1    2    0    0  0.37207229639E+03  0.53143022822E+02 -0.11216094513E+04  0.13539128266E+04  0.65864270000E+03 0. -1.
    8880022    1    1    2    0    0 -0.37207229639E+03 -0.53143022822E+02  0.64467969953E+03  0.76175162790E+03  0.15294330000E+03 0.  0.
<mgrwt>
<rscale>  0 0.64858559E+03</rscale>
<asrwt>0</asrwt>
<pdfrwt beam="1">  1        2 0.19943032E+00 0.75833514E+03</pdfrwt>
<pdfrwt beam="2">  1       -2 0.12605652E+00 0.75833514E+03</pdfrwt>
<totfact> 0.79587899E+00</totfact>
</mgrwt>
</event>
<event>
 4    5  0.1905771E-007  0.7442579E+03  0.7818608E-02  0.9847713E-01
         -2   -1    0    0    0  501 -0.00000000000E+00  0.00000000000E+00  0.61017908073E+03  0.61017908074E+03  0.25500000000E-02 0.  1.
          2   -1    0    0  501    0  0.00000000000E+00 -0.00000000000E+00 -0.30689397351E+04  0.30689397351E+04  0.25500000000E-02 0. -1.
    8880023    1    1    2    0    0  0.31431836966E+03  0.14599156224E+03 -0.29592645162E+04  0.30514203671E+04  0.65864270000E+03 0.  0.
    8880022    1    1    2    0    0 -0.31431836966E+03 -0.14599156224E+03  0.50050386186E+03  0.62769844870E+03  0.15294330000E+03 0.  0.
<mgrwt>
<rscale>  0 0.62863641E+03</rscale>
<asrwt>0</asrwt>
<pdfrwt beam="1">  1        2 0.47214457E+00 0.74425787E+03</pdfrwt>
<pdfrwt beam="2">  1       -2 0.93873706E-01 0.74425787E+03</pdfrwt>
<totfact> 0.16176032E+00</totfact>
</mgrwt>
</event>
<event>
 4    5  0.1905771E-007  0.8577190E+03  0.7818608E-02  0.9597634E-01
          2   -1    0    0  501    0  0.00000000000E+00  0.00000000000E+00  0.46831699359E+04  0.46831699359E+04  0.25500000000E-02 0. -1.
         -2   -1    0    0    0  501 -0.00000000000E+00 -0.00000000000E+00 -0.36721784692E+03  0.36721784693E+03  0.25500000000E-02 0.  1.
    8880023    1    1    2    0    0  0.19615054445E+03  0.51322184245E+03  0.43920470929E+04  0.44750150355E+04  0.65864270000E+03 0.  0.
    8880022    1    1    2    0    0 -0.19615054445E+03 -0.51322184245E+03 -0.76095003963E+02  0.57537274727E+03  0.15294330000E+03 0.  0.
<mgrwt>
<rscale>  0 0.77452986E+03</rscale>
<asrwt>0</asrwt>
<pdfrwt beam="1">  1        2 0.72048770E+00 0.85771901E+03</pdfrwt>
<pdfrwt beam="2">  1       -2 0.56495052E-01 0.85771901E+03</pdfrwt>
<totfact> 0.26397459E-01</totfact>
</mgrwt>
</event>
<event>
 4    5  0.1905771E-007  0.1346381E+04  0.7818608E-02  0.9026507E-01
         -2   -1    0    0    0  501 -0.00000000000E+00  0.00000000000E+00  0.48260191307E+03  0.48260191308E+03  0.25500000000E-02 0.  1.
          2   -1    0    0  501    0  0.00000000000E+00 -0.00000000000E+00 -0.35243063808E+04  0.35243063808E+04  0.25500000000E-02 0. -1.
    8880023    1    1    2    0    0 -0.75892448144E+03  0.89608310873E+03 -0.11280391017E+04  0.17564776479E+04  0.65864270000E+03 0.  0.
    8880022    1    1    2    0    0  0.75892448144E+03 -0.89608310873E+03 -0.19136653661E+04  0.22504306460E+04  0.15294330000E+03 0.  0.
<mgrwt>
<rscale>  0 0.13038630E+04</rscale>
<asrwt>0</asrwt>
<pdfrwt beam="1">  1        2 0.54220097E+00 0.13463809E+04</pdfrwt>
<pdfrwt beam="2">  1       -2 0.74246450E-01 0.13463809E+04</pdfrwt>
<totfact> 0.12581111E+00</totfact>
</mgrwt>
</event>
<event>
 4    5  0.2319426E-007  0.9481680E+03  0.7818608E-02  0.9452755E-01
         -2   -1    0    0    0  501 -0.00000000000E+00  0.00000000000E+00  0.94896588607E+03  0.94896588607E+03  0.25500000000E-02 0.  1.
          2   -1    0    0  501    0  0.00000000000E+00 -0.00000000000E+00 -0.16245164196E+04  0.16245164196E+04  0.25500000000E-02 0. -1.
    8880023    1    1    2    0    0  0.68087670306E+03 -0.40240962133E+02 -0.13183148869E+04  0.16238770788E+04  0.65864270000E+03 0.  0.
    8880022    1    1    2    0    0 -0.68087670306E+03  0.40240962133E+02  0.64276435341E+03  0.94960522683E+03  0.15294330000E+03 0.  0.
<mgrwt>
<rscale>  0 0.87858466E+03</rscale>
<asrwt>0</asrwt>
<pdfrwt beam="1">  1        2 0.24992560E+00 0.94816804E+03</pdfrwt>
<pdfrwt beam="2">  1       -2 0.14599475E+00 0.94816804E+03</pdfrwt>
<totfact> 0.34780074E+00</totfact>
</mgrwt>
</event>
<event>
 4    5  0.1905771E-007  0.1309018E+04  0.7818608E-02  0.9057811E-01
         -2   -1    0    0    0  501 -0.00000000000E+00  0.00000000000E+00  0.57760192683E+03  0.57760192684E+03  0.25500000000E-02 0.  1.
          2   -1    0    0  501    0  0.00000000000E+00 -0.00000000000E+00 -0.37726555796E+04  0.37726555796E+04  0.25500000000E-02 0. -1.
    8880023    1    1    2    0    0  0.11308402706E+04  0.30297852771E+02 -0.46160955110E+03  0.13880242294E+04  0.65864270000E+03 0.  1.
    8880022    1    1    2    0    0 -0.11308402706E+04 -0.30297852771E+02 -0.27334441016E+04  0.29622332770E+04  0.15294330000E+03 0.  0.
<mgrwt>
<rscale>  0 0.12649746E+04</rscale>
<asrwt>0</asrwt>
<pdfrwt beam="1">  1        2 0.58040853E+00 0.13090179E+04</pdfrwt>
<pdfrwt beam="2">  1       -2 0.88861837E-01 0.13090179E+04</pdfrwt>
<totfact> 0.55658208E-01</totfact>
</mgrwt>
</event>
<event>
 4    5  0.1905771E-007  0.8114117E+03  0.7818608E-02  0.9686644E-01
          2   -1    0    0  501    0  0.00000000000E+00  0.00000000000E+00  0.15479527278E+04  0.15479527278E+04  0.25500000000E-02 0. -1.
         -2   -1    0    0    0  501 -0.00000000000E+00 -0.00000000000E+00 -0.37961011667E+03  0.37961011668E+03  0.25500000000E-02 0.  1.
    8880023    1    1    2    0    0 -0.35181307289E+03 -0.31750005660E+03  0.11769223463E+04  0.14295226964E+04  0.65864270000E+03 0.  0.
    8880022    1    1    2    0    0  0.35181307289E+03  0.31750005660E+03 -0.85797351470E+01  0.49804014805E+03  0.15294330000E+03 0.  0.
<mgrwt>
<rscale>  0 0.71817605E+03</rscale>
<asrwt>0</asrwt>
<pdfrwt beam="1">  1        2 0.23814658E+00 0.81141169E+03</pdfrwt>
<pdfrwt beam="2">  1       -2 0.58401556E-01 0.81141169E+03</pdfrwt>
<totfact> 0.33258474E+01</totfact>
</mgrwt>
</event>
<event>
 4    5  0.1905771E-007  0.9457451E+03  0.7818608E-02  0.9456263E-01
          2   -1    0    0  501    0  0.00000000000E+00  0.00000000000E+00  0.47039712484E+03  0.47039712484E+03  0.25500000000E-02 0. -1.
         -2   -1    0    0    0  501 -0.00000000000E+00 -0.00000000000E+00 -0.19191806434E+04  0.19191806434E+04  0.25500000000E-02 0.  1.
    8880023    1    1    2    0    0 -0.45660302790E+03  0.50213265916E+03 -0.20996352789E+03  0.96877160456E+03  0.65864270000E+03 0.  0.
    8880022    1    1    2    0    0  0.45660302790E+03 -0.50213265916E+03 -0.12388199907E+04  0.14208061637E+04  0.15294330000E+03 0.  0.
<mgrwt>
<rscale>  0 0.87586655E+03</rscale>
<asrwt>0</asrwt>
<pdfrwt beam="1">  1        2 0.72368789E-01 0.94574507E+03</pdfrwt>
<pdfrwt beam="2">  1       -2 0.29525856E+00 0.94574507E+03</pdfrwt>
<totfact> 0.22752186E+00</totfact>
</mgrwt>
</event>
<event>
 4    5  0.1905771E-007  0.7880755E+03  0.7818608E-02  0.9737198E-01
          2   -1    0    0  501    0  0.00000000000E+00  0.00000000000E+00  0.17289943476E+04  0.17289943476E+04  0.25500000000E-02 0. -1.
         -2   -1    0    0    0  501 -0.00000000000E+00 -0.00000000000E+00 -0.36202960835E+03  0.36202960836E+03  0.25500000000E-02 0.  1.
    8880023    1    1    2    0    0 -0.15030406371E+03  0.40578495544E+03  0.14250086894E+04  0.16284080301E+04  0.65864270000E+03 0. -1.
    8880022    1    1    2    0    0  0.15030406371E+03 -0.40578495544E+03 -0.58043950131E+02  0.46261592579E+03  0.15294330000E+03 0.  0.
<mgrwt>
<rscale>  0 0.68844555E+03</rscale>
<asrwt>0</asrwt>
<pdfrwt beam="1">  1        2 0.26599912E+00 0.78807547E+03</pdfrwt>
<pdfrwt beam="2">  1       -2 0.55696864E-01 0.78807547E+03</pdfrwt>
<totfact> 0.29266848E+01</totfact>
</mgrwt>
</event>
<event>
 4    5  0.1982621E-007  0.9253454E+03  0.7818608E-02  0.9486511E-01
         -2   -1    0    0    0  501 -0.00000000000E+00  0.00000000000E+00  0.24690597454E+04  0.24690597454E+04  0.25500000000E-02 0.  1.
          2   -1    0    0  501    0  0.00000000000E+00 -0.00000000000E+00 -0.22057258783E+04  0.22057258783E+04  0.25500000000E-02 0. -1.
    8880023    1    1    2    0    0  0.15290865658E+03 -0.63172209742E+03 -0.20595290688E+04  0.22578582898E+04  0.65864270000E+03 0.  0.
    8880022    1    1    2    0    0 -0.15290865658E+03  0.63172209742E+03  0.23228629359E+04  0.24169273339E+04  0.15294330000E+03 0.  0.
<mgrwt>
<rscale>  0 0.85285647E+03</rscale>
<asrwt>0</asrwt>
<pdfrwt beam="1">  1        2 0.33934244E+00 0.92534538E+03</pdfrwt>
<pdfrwt beam="2">  1       -2 0.37985534E+00 0.92534538E+03</pdfrwt>
<totfact> 0.53602199E-02</totfact>
</mgrwt>
</event>
<event>
 4    5  0.1905771E-007  0.1062485E+04  0.7818608E-02  0.9304022E-01
          2   -1    0    0  501    0  0.00000000000E+00  0.00000000000E+00  0.26508509037E+04  0.26508509037E+04  0.25500000000E-02 0. -1.
         -2   -1    0    0    0  501 -0.00000000000E+00 -0.00000000000E+00 -0.36225396272E+03  0.36225396273E+03  0.25500000000E-02 0.  1.
    8880023    1    1    2    0    0 -0.35281911581E+03 -0.75536890826E+03  0.93121606429E+03  0.14128117641E+04  0.65864270000E+03 0.  0.
    8880022    1    1    2    0    0  0.35281911581E+03  0.75536890826E+03  0.13573808767E+04  0.16002931024E+04  0.15294330000E+03 0.  0.
<mgrwt>
<rscale>  0 0.10041347E+04</rscale>
<asrwt>0</asrwt>
<pdfrwt beam="1">  1        2 0.40782323E+00 0.10624847E+04</pdfrwt>
<pdfrwt beam="2">  1       -2 0.55731377E-01 0.10624847E+04</pdfrwt>
<totfact> 0.86517046E+00</totfact>
</mgrwt>
</event>
<event>
 4    5  0.1905771E-007  0.7994975E+03  0.7818608E-02  0.9711884E-01
          2   -1    0    0  501    0  0.00000000000E+00  0.00000000000E+00  0.10955314769E+04  0.10955314769E+04  0.25500000000E-02 0. -1.
         -2   -1    0    0    0  501 -0.00000000000E+00 -0.00000000000E+00 -0.49241209280E+03  0.49241209280E+03  0.25500000000E-02 0.  1.
    8880023    1    1    2    0    0  0.30950048522E+03 -0.33105207554E+03  0.74108197740E+03  0.10901370238E+04  0.65864270000E+03 0. -1.
    8880022    1    1    2    0    0 -0.30950048522E+03  0.33105207554E+03 -0.13796259326E+03  0.49780654599E+03  0.15294330000E+03 0.  0.
<mgrwt>
<rscale>  0 0.70313632E+03</rscale>
<asrwt>0</asrwt>
<pdfrwt beam="1">  1        2 0.16854330E+00 0.79949749E+03</pdfrwt>
<pdfrwt beam="2">  1       -2 0.75755707E-01 0.79949749E+03</pdfrwt>
<totfact> 0.34662934E+01</totfact>
</mgrwt>
</event>
<event>
 4    5  0.1905771E-007  0.6704172E+03  0.7818608E-02  0.1015366E+00
         -2   -1    0    0    0  501 -0.00000000000E+00  0.00000000000E+00  0.20889834436E+03  0.20889834437E+03  0.25500000000E-02 0.  1.
          2   -1    0    0  501    0  0.00000000000E+00 -0.00000000000E+00 -0.16448987733E+04  0.16448987733E+04  0.25500000000E-02 0. -1.
    8880023    1    1    2    0    0 -0.98833336258E+02 -0.76688013802E+02 -0.15025272888E+04  0.16453107730E+04  0.65864270000E+03 0. -1.
    8880022    1    1    2    0    0  0.98833336258E+02  0.76688013802E+02  0.66526859881E+02  0.20848634468E+03  0.15294330000E+03 0.  0.
<mgrwt>
<rscale>  0 0.49396779E+03</rscale>
<asrwt>0</asrwt>
<pdfrwt beam="1">  1        2 0.25306134E+00 0.67041725E+03</pdfrwt>
<pdfrwt beam="2">  1       -2 0.32138208E-01 0.67041725E+03</pdfrwt>
<totfact> 0.97538483E+01</totfact>
</mgrwt>
</event>
<event>
 4    5  0.1905771E-007  0.7044638E+03  0.7818608E-02  0.9979164E-01
         -2   -1    0    0    0  501 -0.00000000000E+00  0.00000000000E+00  0.27425989730E+03  0.27425989731E+03  0.25500000000E-02 0.  1.
          2   -1    0    0  501    0  0.00000000000E+00 -0.00000000000E+00 -0.15514393731E+04  0.15514393731E+04  0.25500000000E-02 0. -1.
    8880023    1    1    2    0    0 -0.19100622055E+03  0.16116981299E+03 -0.13509140804E+04  0.15235610076E+04  0.65864270000E+03 0. -1.
    8880022    1    1    2    0    0  0.19100622055E+03 -0.16116981299E+03  0.73734604649E+02  0.30213826280E+03  0.15294330000E+03 0.  0.
<mgrwt>
<rscale>  0 0.56573367E+03</rscale>
<asrwt>0</asrwt>
<pdfrwt beam="1">  1        2 0.23868298E+00 0.70446383E+03</pdfrwt>
<pdfrwt beam="2">  1       -2 0.42193831E-01 0.70446383E+03</pdfrwt>
<totfact> 0.64867209E+01</totfact>
</mgrwt>
</event>
<event>
 4    5  0.1905771E-007  0.6768631E+03  0.7818608E-02  0.1011157E+00
          2   -1    0    0  501    0  0.00000000000E+00  0.00000000000E+00  0.13725408462E+04  0.13725408462E+04  0.25500000000E-02 0. -1.
         -2   -1    0    0    0  501 -0.00000000000E+00 -0.00000000000E+00 -0.50180161667E+03  0.50180161668E+03  0.25500000000E-02 0.  1.
    8880023    1    1    2    0    0 -0.15450516160E+03 -0.21485605739E+02  0.12586729181E+04  0.14291260257E+04  0.65864270000E+03 0. -1.
    8880022    1    1    2    0    0  0.15450516160E+03  0.21485605739E+02 -0.38793368858E+03  0.44521643721E+03  0.15294330000E+03 0.  0.
<mgrwt>
<rscale>  0 0.51017483E+03</rscale>
<asrwt>0</asrwt>
<pdfrwt beam="1">  1        2 0.21116013E+00 0.67686312E+03</pdfrwt>
<pdfrwt beam="2">  1       -2 0.77200249E-01 0.67686312E+03</pdfrwt>
<totfact> 0.23157925E+01</totfact>
</mgrwt>
</event>
<event>
 4    5  0.1905771E-007  0.1356314E+04  0.7818608E-02  0.9018393E-01
         -2   -1    0    0    0  501 -0.00000000000E+00  0.00000000000E+00  0.87557014959E+03  0.87557014960E+03  0.25500000000E-02 0.  1.
          2   -1    0    0  501    0  0.00000000000E+00 -0.00000000000E+00 -0.26429628850E+04  0.26429628850E+04  0.25500000000E-02 0. -1.
    8880023    1    1    2    0    0  0.11714080363E+04 -0.18325138335E+03 -0.18795313743E+04  0.23178063444E+04  0.65864270000E+03 0. -1.
    8880022    1    1    2    0    0 -0.11714080363E+04  0.18325138335E+03  0.11213863889E+03  0.12007266902E+04  0.15294330000E+03 0.  0.
<mgrwt>
<rscale>  0 0.13141825E+04</rscale>
<asrwt>0</asrwt>
<pdfrwt beam="1">  1        2 0.40660967E+00 0.13563141E+04</pdfrwt>
<pdfrwt beam="2">  1       -2 0.13470310E+00 0.13563141E+04</pdfrwt>
<totfact> 0.10963404E+00</totfact>
</mgrwt>
</event>
<event>
 4    5  0.3270040E-007  0.9650059E+03  0.7818608E-02  0.9428845E-01
         -2   -1    0    0    0  501 -0.00000000000E+00  0.00000000000E+00  0.13615362618E+04  0.13615362618E+04  0.25500000000E-02 0.  1.
          2   -1    0    0  501    0  0.00000000000E+00 -0.00000000000E+00 -0.32343778689E+04  0.32343778689E+04  0.25500000000E-02 0. -1.
    8880023    1    1    2    0    0  0.70527810871E+03  0.29974814530E+01 -0.30589239173E+04  0.32075305039E+04  0.65864270000E+03 0.  0.
    8880022    1    1    2    0    0 -0.70527810871E+03 -0.29974814530E+01  0.11860823102E+04  0.13883836268E+04  0.15294330000E+03 0.  0.
<mgrwt>
<rscale>  0 0.89739410E+03</rscale>
<asrwt>0</asrwt>
<pdfrwt beam="1">  1        2 0.49759659E+00 0.96500591E+03</pdfrwt>
<pdfrwt beam="2">  1       -2 0.20946712E+00 0.96500591E+03</pdfrwt>
<totfact> 0.14663683E-01</totfact>
</mgrwt>
</event>
<event>
 4    5  0.1905771E-007  0.7591432E+03  0.7818608E-02  0.9807331E-01
         -2   -1    0    0    0  501 -0.00000000000E+00  0.00000000000E+00  0.40205730588E+03  0.40205730589E+03  0.25500000000E-02 0.  1.
          2   -1    0    0  501    0  0.00000000000E+00 -0.00000000000E+00 -0.13437464652E+04  0.13437464652E+04  0.25500000000E-02 0. -1.
    8880023    1    1    2    0    0  0.29093963210E+03  0.24050437996E+03 -0.10760911700E+04  0.13169170963E+04  0.65864270000E+03 0.  0.
    8880022    1    1    2    0    0 -0.29093963210E+03 -0.24050437996E+03  0.13440201064E+03  0.42888667476E+03  0.15294330000E+03 0.  0.
<mgrwt>
<rscale>  0 0.64970619E+03</rscale>
<asrwt>0</asrwt>
<pdfrwt beam="1">  1        2 0.20673022E+00 0.75914322E+03</pdfrwt>
<pdfrwt beam="2">  1       -2 0.61854971E-01 0.75914322E+03</pdfrwt>
<totfact> 0.38582045E+01</totfact>
</mgrwt>
</event>
<event>
 4    5  0.1905771E-007  0.6806995E+03  0.7818608E-02  0.1008931E+00
          2   -1    0    0  501    0  0.00000000000E+00  0.00000000000E+00  0.20758845913E+04  0.20758845913E+04  0.25500000000E-02 0. -1.
         -2   -1    0    0    0  501 -0.00000000000E+00 -0.00000000000E+00 -0.16243876041E+03  0.16243876043E+03  0.25500000000E-02 0.  1.
    8880023    1    1    2    0    0  0.16635356660E+03  0.43221771362E+02  0.18878630909E+04  0.20068330490E+04  0.65864270000E+03 0.  0.
    8880022    1    1    2    0    0 -0.16635356660E+03 -0.43221771362E+02  0.25582740048E+02  0.23149030270E+03  0.15294330000E+03 0.  0.
<mgrwt>
<rscale>  0 0.51901832E+03</rscale>
<asrwt>0</asrwt>
<pdfrwt beam="1">  1        2 0.31936686E+00 0.68069952E+03</pdfrwt>
<pdfrwt beam="2">  1       -2 0.24990578E-01 0.68069952E+03</pdfrwt>
<totfact> 0.90114388E+01</totfact>
</mgrwt>
</event>
<event>
 4    5  0.3321813E-007  0.6868753E+03  0.7818608E-02  0.1005674E+00
         -2   -1    0    0    0  501 -0.00000000000E+00  0.00000000000E+00  0.15399426003E+04  0.15399426003E+04  0.25500000000E-02 0.  1.
          2   -1    0    0  501    0  0.00000000000E+00 -0.00000000000E+00 -0.26693592764E+04  0.26693592764E+04  0.25500000000E-02 0. -1.
    8880023    1    1    2    0    0 -0.19234372034E+03 -0.31486731359E+02 -0.26147423074E+04  0.27034561327E+04  0.65864270000E+03 0.  0.
    8880022    1    1    2    0    0  0.19234372034E+03  0.31486731359E+02  0.14853256313E+04  0.15058457441E+04  0.15294330000E+03 0.  0.
<mgrwt>
<rscale>  0 0.53230564E+03</rscale>
<asrwt>0</asrwt>
<pdfrwt beam="1">  1        2 0.41067066E+00 0.68687534E+03</pdfrwt>
<pdfrwt beam="2">  1       -2 0.23691425E+00 0.68687534E+03</pdfrwt>
<totfact> 0.23362363E-01</totfact>
</mgrwt>
</event>
<event>
 4    5  0.1905771E-007  0.7219555E+03  0.7818608E-02  0.9916024E-01
          2   -1    0    0  501    0  0.00000000000E+00  0.00000000000E+00  0.15460337811E+04  0.15460337811E+04  0.25500000000E-02 0. -1.
         -2   -1    0    0    0  501 -0.00000000000E+00 -0.00000000000E+00 -0.22474528578E+03  0.22474528580E+03  0.25500000000E-02 0.  1.
    8880023    1    1    2    0    0 -0.12180337554E+03 -0.26939461838E+03  0.12289845854E+04  0.14253500764E+04  0.65864270000E+03 0.  0.
    8880022    1    1    2    0    0  0.12180337554E+03  0.26939461838E+03  0.92303909883E+02  0.34542899053E+03  0.15294330000E+03 0.  0.
<mgrwt>
<rscale>  0 0.59490944E+03</rscale>
<asrwt>0</asrwt>
<pdfrwt beam="1">  1        2 0.23785136E+00 0.72195549E+03</pdfrwt>
<pdfrwt beam="2">  1       -2 0.34576197E-01 0.72195549E+03</pdfrwt>
<totfact> 0.95800732E+01</totfact>
</mgrwt>
</event>
<event>
 4    5  0.1905771E-007  0.1165804E+04  0.7818608E-02  0.9191101E-01
         -2   -1    0    0    0  501 -0.00000000000E+00  0.00000000000E+00  0.15625308175E+04  0.15625308175E+04  0.25500000000E-02 0.  1.
          2   -1    0    0  501    0  0.00000000000E+00 -0.00000000000E+00 -0.13442169872E+04  0.13442169873E+04  0.25500000000E-02 0. -1.
    8880023    1    1    2    0    0 -0.21153977527E+03  0.93837117157E+03 -0.86372340350E+03  0.14509024282E+04  0.65864270000E+03 0.  0.
    8880022    1    1    2    0    0  0.21153977527E+03 -0.93837117157E+03  0.10820372337E+04  0.14558453765E+04  0.15294330000E+03 0.  1.
<mgrwt>
<rscale>  0 0.11145750E+04</rscale>
<asrwt>0</asrwt>
<pdfrwt beam="1">  1        2 0.20680262E+00 0.11658043E+04</pdfrwt>
<pdfrwt beam="2">  1       -2 0.24038935E+00 0.11658043E+04</pdfrwt>
<totfact> 0.11195374E+00</totfact>
</mgrwt>
</event>
<event>
 4    5  0.1905771E-007  0.6669234E+03  0.7818608E-02  0.1017972E+00
          2   -1    0    0  501    0  0.00000000000E+00  0.00000000000E+00  0.29951491806E+04  0.29951491806E+04  0.25500000000E-02 0. -1.
         -2   -1    0    0    0  501 -0.00000000000E+00 -0.00000000000E+00 -0.92910234268E+02  0.92910234303E+02  0.25500000000E-02 0.  1.
    8880023    1    1    2    0    0  0.27090652959E+02 -0.10120598251E+03  0.27958942526E+04  0.28743366944E+04  0.65864270000E+03 0. -1.
    8880022    1    1    2    0    0 -0.27090652959E+02  0.10120598251E+03  0.10634469365E+03  0.21372272050E+03  0.15294330000E+03 0.  0.
<mgrwt>
<rscale>  0 0.48425772E+03</rscale>
<asrwt>0</asrwt>
<pdfrwt beam="1">  1        2 0.46079218E+00 0.66692335E+03</pdfrwt>
<pdfrwt beam="2">  1       -2 0.14293882E-01 0.66692335E+03</pdfrwt>
<totfact> 0.71155708E+01</totfact>
</mgrwt>
</event>
<event>
 4    5  0.1905771E-007  0.1092319E+04  0.7818608E-02  0.9269656E-01
         -2   -1    0    0    0  501 -0.00000000000E+00  0.00000000000E+00  0.67081505826E+03  0.67081505826E+03  0.25500000000E-02 0.  1.
          2   -1    0    0  501    0  0.00000000000E+00 -0.00000000000E+00 -0.22614679907E+04  0.22614679907E+04  0.25500000000E-02 0. -1.
    8880023    1    1    2    0    0  0.52954826977E+03 -0.69204734558E+03 -0.17206190727E+04  0.20380606218E+04  0.65864270000E+03 0.  0.
    8880022    1    1    2    0    0 -0.52954826977E+03  0.69204734558E+03  0.12996614030E+03  0.89422242713E+03  0.15294330000E+03 0.  0.
<mgrwt>
<rscale>  0 0.10362500E+04</rscale>
<asrwt>0</asrwt>
<pdfrwt beam="1">  1        2 0.34791815E+00 0.10923191E+04</pdfrwt>
<pdfrwt beam="2">  1       -2 0.10320232E+00 0.10923191E+04</pdfrwt>
<totfact> 0.36254294E+00</totfact>
</mgrwt>
</event>
<event>
 4    5  0.1905771E-007  0.7769111E+03  0.7818608E-02  0.9763144E-01
          2   -1    0    0  501    0  0.00000000000E+00  0.00000000000E+00  0.21667451411E+04  0.21667451411E+04  0.25500000000E-02 0. -1.
         -2   -1    0    0    0  501 -0.00000000000E+00 -0.00000000000E+00 -0.17456549483E+03  0.17456549485E+03  0.25500000000E-02 0.  1.
    8880023    1    1    2    0    0 -0.35542128825E+03 -0.20846176046E+03  0.10993683732E+04  0.13461803832E+04  0.65864270000E+03 0. -1.
    8880022    1    1    2    0    0  0.35542128825E+03  0.20846176046E+03  0.89281127300E+03  0.99513025275E+03  0.15294330000E+03 0.  1.
<mgrwt>
<rscale>  0 0.67378536E+03</rscale>
<asrwt>0</asrwt>
<pdfrwt beam="1">  1        2 0.33334540E+00 0.77691107E+03</pdfrwt>
<pdfrwt beam="2">  1       -2 0.26856230E-01 0.77691107E+03</pdfrwt>
<totfact> 0.69732447E+01</totfact>
</mgrwt>
</event>
<event>
 4    5  0.1905771E-007  0.6626275E+03  0.7818608E-02  0.1021613E+00
         -2   -1    0    0    0  501 -0.00000000000E+00  0.00000000000E+00  0.17299752076E+03  0.17299752078E+03  0.25500000000E-02 0.  1.
          2   -1    0    0  501    0  0.00000000000E+00 -0.00000000000E+00 -0.20419764836E+04  0.20419764836E+04  0.25500000000E-02 0. -1.
    8880023    1    1    2    0    0  0.52650365572E+02  0.49928708667E+02 -0.19256413430E+04  0.20364600966E+04  0.65864270000E+03 0. -1.
    8880022    1    1    2    0    0 -0.52650365572E+02 -0.49928708667E+02  0.56662380125E+02  0.17851390781E+03  0.15294330000E+03 0.  0.
<mgrwt>
<rscale>  0 0.47109135E+03</rscale>
<asrwt>0</asrwt>
<pdfrwt beam="1">  1        2 0.31415021E+00 0.66262745E+03</pdfrwt>
<pdfrwt beam="2">  1       -2 0.26615005E-01 0.66262745E+03</pdfrwt>
<totfact> 0.84092761E+01</totfact>
</mgrwt>
</event>
<event>
 4    5  0.1905771E-007  0.2530387E+04  0.7818608E-02  0.8399602E-01
          2   -1    0    0  501    0  0.00000000000E+00  0.00000000000E+00  0.40368092181E+04  0.40368092181E+04  0.25500000000E-02 0. -1.
         -2   -1    0    0    0  501 -0.00000000000E+00 -0.00000000000E+00 -0.18977715237E+04  0.18977715237E+04  0.25500000000E-02 0.  1.
    8880023    1    1    2    0    0 -0.24431272179E+04  0.13385190406E+02  0.23812856952E+04  0.34746771842E+04  0.65864270000E+03 0.  0.
    8880022    1    1    2    0    0  0.24431272179E+04 -0.13385190406E+02 -0.24224800080E+03  0.24599035577E+04  0.15294330000E+03 0.  0.
<mgrwt>
<rscale>  0 0.25095204E+04</rscale>
<asrwt>0</asrwt>
<pdfrwt beam="1">  1        2 0.62104757E+00 0.25303873E+04</pdfrwt>
<pdfrwt beam="2">  1       -2 0.29196485E+00 0.25303873E+04</pdfrwt>
<totfact> 0.95139153E-03</totfact>
</mgrwt>
</event>
<event>
 4    5  0.1905771E-007  0.8386296E+03  0.7818608E-02  0.9632770E-01
         -2   -1    0    0    0  501 -0.00000000000E+00  0.00000000000E+00  0.24577921989E+03  0.24577921990E+03  0.25500000000E-02 0.  1.
          2   -1    0    0  501    0  0.00000000000E+00 -0.00000000000E+00 -0.22327860267E+04  0.22327860267E+04  0.25500000000E-02 0. -1.
    8880023    1    1    2    0    0  0.48923917261E+03  0.17359248299E+03 -0.16214490131E+04  0.18254852578E+04  0.65864270000E+03 0.  0.
    8880022    1    1    2    0    0 -0.48923917261E+03 -0.17359248299E+03 -0.36555779366E+03  0.65307998874E+03  0.15294330000E+03 0.  0.
<mgrwt>
<rscale>  0 0.75164715E+03</rscale>
<asrwt>0</asrwt>
<pdfrwt beam="1">  1        2 0.34350553E+00 0.83862955E+03</pdfrwt>
<pdfrwt beam="2">  1       -2 0.37812189E-01 0.83862955E+03</pdfrwt>
<totfact> 0.33482506E+01</totfact>
</mgrwt>
</event>
<event>
 4    5  0.1905771E-007  0.7039386E+03  0.7818608E-02  0.9981238E-01
         -2   -1    0    0    0  501 -0.00000000000E+00  0.00000000000E+00  0.45398079112E+03  0.45398079113E+03  0.25500000000E-02 0.  1.
          2   -1    0    0  501    0  0.00000000000E+00 -0.00000000000E+00 -0.25201124970E+04  0.25201124970E+04  0.25500000000E-02 0. -1.
    8880023    1    1    2    0    0 -0.20669731146E+03 -0.13782455653E+03 -0.24172078636E+04  0.25176225787E+04  0.65864270000E+03 0. -1.
    8880022    1    1    2    0    0  0.20669731146E+03  0.13782455653E+03  0.35107615774E+03  0.45647070935E+03  0.15294330000E+03 0.  0.
<mgrwt>
<rscale>  0 0.56480604E+03</rscale>
<asrwt>0</asrwt>
<pdfrwt beam="1">  1        2 0.38770960E+00 0.70393863E+03</pdfrwt>
<pdfrwt beam="2">  1       -2 0.69843201E-01 0.70393863E+03</pdfrwt>
<totfact> 0.67025435E+00</totfact>
</mgrwt>
</event>
<event>
 4    5  0.1905771E-007  0.1666263E+04  0.7818608E-02  0.8800362E-01
         -2   -1    0    0    0  501 -0.00000000000E+00  0.00000000000E+00  0.79769690789E+03  0.79769690790E+03  0.25500000000E-02 0.  1.
          2   -1    0    0  501    0  0.00000000000E+00 -0.00000000000E+00 -0.35278668933E+04  0.35278668933E+04  0.25500000000E-02 0. -1.
    8880023    1    1    2    0    0  0.45026253634E+03  0.14628345974E+04 -0.77451557695E+03  0.18374727198E+04  0.65864270000E+03 0.  0.
    8880022    1    1    2    0    0 -0.45026253634E+03 -0.14628345974E+04 -0.19556544085E+04  0.24880910814E+04  0.15294330000E+03 0.  0.
<mgrwt>
<rscale>  0 0.16332767E+04</rscale>
<asrwt>0</asrwt>
<pdfrwt beam="1">  1        2 0.54274874E+00 0.16662628E+04</pdfrwt>
<pdfrwt beam="2">  1       -2 0.12272260E+00 0.16662628E+04</pdfrwt>
<totfact> 0.36671080E-01</totfact>
</mgrwt>
</event>
<event>
 4    5  0.1905771E-007  0.1145209E+04  0.7818608E-02  0.9212315E-01
          2   -1    0    0  501    0  0.00000000000E+00  0.00000000000E+00  0.51994038189E+03  0.51994038190E+03  0.25500000000E-02 0. -1.
         -2   -1    0    0    0  501 -0.00000000000E+00 -0.00000000000E+00 -0.23604637537E+04  0.23604637537E+04  0.25500000000E-02 0.  1.
    8880023    1    1    2    0    0 -0.90299813760E+03  0.24957695044E+03 -0.52922273934E+03  0.12615788540E+04  0.65864270000E+03 0.  0.
    8880022    1    1    2    0    0  0.90299813760E+03 -0.24957695044E+03 -0.13113006325E+04  0.16188252816E+04  0.15294330000E+03 0.  0.
<mgrwt>
<rscale>  0 0.10927214E+04</rscale>
<asrwt>0</asrwt>
<pdfrwt beam="1">  1        2 0.79990829E-01 0.11452094E+04</pdfrwt>
<pdfrwt beam="2">  1       -2 0.36314826E+00 0.11452094E+04</pdfrwt>
<totfact> 0.75366232E-01</totfact>
</mgrwt>
</event>
<event>
 4    5  0.1905771E-007  0.1108033E+04  0.7818608E-02  0.9252165E-01
          2   -1    0    0  501    0  0.00000000000E+00  0.00000000000E+00  0.12876007492E+04  0.12876007492E+04  0.25500000000E-02 0. -1.
         -2   -1    0    0    0  501 -0.00000000000E+00 -0.00000000000E+00 -0.12406055844E+04  0.12406055844E+04  0.25500000000E-02 0.  1.
    8880023    1    1    2    0    0 -0.37706463109E+03  0.80730976492E+03  0.78767879607E+03  0.13594759596E+04  0.65864270000E+03 0.  0.
    8880022    1    1    2    0    0  0.37706463109E+03 -0.80730976492E+03 -0.74068363131E+03  0.11687303741E+04  0.15294330000E+03 0.  0.
<mgrwt>
<rscale>  0 0.10530850E+04</rscale>
<asrwt>0</asrwt>
<pdfrwt beam="1">  1        2 0.19809242E+00 0.11080329E+04</pdfrwt>
<pdfrwt beam="2">  1       -2 0.19086240E+00 0.11080329E+04</pdfrwt>
<totfact> 0.25195286E+00</totfact>
</mgrwt>
</event>
<event>
 4    5  0.1905771E-007  0.8649665E+03  0.7818608E-02  0.9584789E-01
         -2   -1    0    0    0  501 -0.00000000000E+00  0.00000000000E+00  0.10501030436E+04  0.10501030436E+04  0.25500000000E-02 0.  1.
          2   -1    0    0  501    0  0.00000000000E+00 -0.00000000000E+00 -0.18738722122E+04  0.18738722122E+04  0.25500000000E-02 0. -1.
    8880023    1    1    2    0    0 -0.16838653220E+03 -0.53479234592E+03 -0.16797364451E+04  0.18893601056E+04  0.65864270000E+03 0.  0.
    8880022    1    1    2    0    0  0.16838653220E+03  0.53479234592E+03  0.85596727654E+03  0.10346151502E+04  0.15294330000E+03 0.  0.
<mgrwt>
<rscale>  0 0.78311160E+03</rscale>
<asrwt>0</asrwt>
<pdfrwt beam="1">  1        2 0.28828803E+00 0.86496652E+03</pdfrwt>
<pdfrwt beam="2">  1       -2 0.16155431E+00 0.86496652E+03</pdfrwt>
<totfact> 0.19564975E+00</totfact>
</mgrwt>
</event>
<event>
 4    5  0.1905771E-007  0.1043310E+04  0.7818608E-02  0.9326967E-01
          2   -1    0    0  501    0  0.00000000000E+00  0.00000000000E+00  0.11389793986E+04  0.11389793986E+04  0.25500000000E-02 0. -1.
         -2   -1    0    0    0  501 -0.00000000000E+00 -0.00000000000E+00 -0.15756897540E+04  0.15756897540E+04  0.25500000000E-02 0.  1.
    8880023    1    1    2    0    0 -0.17498368384E+02 -0.80893744861E+03  0.73953524957E+03  0.12788309428E+04  0.65864270000E+03 0.  0.
    8880022    1    1    2    0    0  0.17498368384E+02  0.80893744861E+03 -0.11762456050E+04  0.14358382099E+04  0.15294330000E+03 0.  0.
<mgrwt>
<rscale>  0 0.98337694E+03</rscale>
<asrwt>0</asrwt>
<pdfrwt beam="1">  1        2 0.17522760E+00 0.10433102E+04</pdfrwt>
<pdfrwt beam="2">  1       -2 0.24241381E+00 0.10433102E+04</pdfrwt>
<totfact> 0.14614947E+00</totfact>
</mgrwt>
</event>
<event>
 4    5  0.1905771E-007  0.9636564E+03  0.7818608E-02  0.9430732E-01
         -2   -1    0    0    0  501 -0.00000000000E+00  0.00000000000E+00  0.20569273598E+04  0.20569273598E+04  0.25500000000E-02 0.  1.
          2   -1    0    0  501    0  0.00000000000E+00 -0.00000000000E+00 -0.61913076058E+03  0.61913076059E+03  0.25500000000E-02 0. -1.
    8880023    1    1    2    0    0  0.36984068904E+03 -0.59836561717E+03 -0.10914869113E+03  0.96981812219E+03  0.65864270000E+03 0. -1.
    8880022    1    1    2    0    0 -0.36984068904E+03  0.59836561717E+03  0.15469452903E+04  0.17062399982E+04  0.15294330000E+03 0.  0.
<mgrwt>
<rscale>  0 0.89589156E+03</rscale>
<asrwt>0</asrwt>
<pdfrwt beam="1">  1        2 0.95250886E-01 0.96365645E+03</pdfrwt>
<pdfrwt beam="2">  1       -2 0.31645036E+00 0.96365645E+03</pdfrwt>
<totfact> 0.12180973E+00</totfact>
</mgrwt>
</event>
<event>
 4    5  0.1905771E-007  0.9984260E+03  0.7818608E-02  0.9383620E-01
          2   -1    0    0  501    0  0.00000000000E+00  0.00000000000E+00  0.11976589000E+04  0.11976589000E+04  0.25500000000E-02 0. -1.
         -2   -1    0    0    0  501 -0.00000000000E+00 -0.00000000000E+00 -0.83700219460E+03  0.83700219460E+03  0.25500000000E-02 0.  1.
    8880023    1    1    2    0    0  0.51050690221E+03 -0.54993356312E+03  0.67678034106E+03  0.12061865765E+04  0.65864270000E+03 0. -1.
    8880022    1    1    2    0    0 -0.51050690221E+03  0.54993356312E+03 -0.31612363568E+03  0.82847451807E+03  0.15294330000E+03 0.  0.
<mgrwt>
<rscale>  0 0.93436050E+03</rscale>
<asrwt>0</asrwt>
<pdfrwt beam="1">  1        2 0.18425521E+00 0.99842597E+03</pdfrwt>
<pdfrwt beam="2">  1       -2 0.12876957E+00 0.99842597E+03</pdfrwt>
<totfact> 0.83889192E+00</totfact>
</mgrwt>
</event>
<event>
 4    5  0.1905771E-007  0.7012116E+03  0.7818608E-02  0.9992212E-01
          2   -1    0    0  501    0  0.00000000000E+00  0.00000000000E+00  0.72199403419E+03  0.72199403419E+03  0.25500000000E-02 0. -1.
         -2   -1    0    0    0  501 -0.00000000000E+00 -0.00000000000E+00 -0.39116500195E+03  0.39116500196E+03  0.25500000000E-02 0.  1.
    8880023    1    1    2    0    0 -0.23968753052E+03 -0.20914605982E+02  0.41636289197E+03  0.81550953220E+03  0.65864270000E+03 0. -1.
    8880022    1    1    2    0    0  0.23968753052E+03  0.20914605982E+02 -0.85533859729E+02  0.29764950396E+03  0.15294330000E+03 0.  0.
<mgrwt>
<rscale>  0 0.55993066E+03</rscale>
<asrwt>0</asrwt>
<pdfrwt beam="1">  1        2 0.11107600E+00 0.70121162E+03</pdfrwt>
<pdfrwt beam="2">  1       -2 0.60179232E-01 0.70121162E+03</pdfrwt>
<totfact> 0.10289748E+02</totfact>
</mgrwt>
</event>
<event>
 4    5  0.1905771E-007  0.1110283E+04  0.7818608E-02  0.9249692E-01
         -2   -1    0    0    0  501 -0.00000000000E+00  0.00000000000E+00  0.42996112493E+03  0.42996112494E+03  0.25500000000E-02 0.  1.
          2   -1    0    0  501    0  0.00000000000E+00 -0.00000000000E+00 -0.27677069925E+04  0.27677069925E+04  0.25500000000E-02 0. -1.
    8880023    1    1    2    0    0 -0.19201207727E+03 -0.87295481956E+03 -0.18763217149E+04  0.21802091962E+04  0.65864270000E+03 0.  0.
    8880022    1    1    2    0    0  0.19201207727E+03  0.87295481956E+03 -0.46142415259E+03  0.10174589212E+04  0.15294330000E+03 0.  0.
<mgrwt>
<rscale>  0 0.10554917E+04</rscale>
<asrwt>0</asrwt>
<pdfrwt beam="1">  1        2 0.42580106E+00 0.11102833E+04</pdfrwt>
<pdfrwt beam="2">  1       -2 0.66147867E-01 0.11102833E+04</pdfrwt>
<totfact> 0.50972312E+00</totfact>
</mgrwt>
</event>
<event>
 4    5  0.1905771E-007  0.1083351E+04  0.7818608E-02  0.9279823E-01
          2   -1    0    0  501    0  0.00000000000E+00  0.00000000000E+00  0.16792376999E+04  0.16792376999E+04  0.25500000000E-02 0. -1.
         -2   -1    0    0    0  501 -0.00000000000E+00 -0.00000000000E+00 -0.12582505093E+04  0.12582505093E+04  0.25500000000E-02 0.  1.
    8880023    1    1    2    0    0  0.40702983248E+03 -0.75773727822E+03  0.13040196407E+04  0.16953219449E+04  0.65864270000E+03 0. -1.
    8880022    1    1    2    0    0 -0.40702983248E+03  0.75773727822E+03 -0.88303245011E+03  0.12421662643E+04  0.15294330000E+03 0.  0.
<mgrwt>
<rscale>  0 0.10266180E+04</rscale>
<asrwt>0</asrwt>
<pdfrwt beam="1">  1        2 0.25834426E+00 0.10833509E+04</pdfrwt>
<pdfrwt beam="2">  1       -2 0.19357700E+00 0.10833509E+04</pdfrwt>
<totfact> 0.14534365E+00</totfact>
</mgrwt>
</event>
<event>
 4    5  0.1905771E-007  0.7172661E+03  0.7818608E-02  0.9931947E-01
         -2   -1    0    0    0  501 -0.00000000000E+00  0.00000000000E+00  0.45514188413E+03  0.45514188414E+03  0.25500000000E-02 0.  1.
          2   -1    0    0  501    0  0.00000000000E+00 -0.00000000000E+00 -0.17900234240E+04  0.17900234240E+04  0.25500000000E-02 0. -1.
    8880023    1    1    2    0    0  0.15159347716E+02  0.28360300360E+03 -0.16469402749E+04  0.17963526783E+04  0.65864270000E+03 0. -1.
    8880022    1    1    2    0    0 -0.15159347716E+02 -0.28360300360E+03  0.31205873510E+03  0.44881262977E+03  0.15294330000E+03 0.  0.
<mgrwt>
<rscale>  0 0.58737655E+03</rscale>
<asrwt>0</asrwt>
<pdfrwt beam="1">  1        2 0.27538822E+00 0.71726611E+03</pdfrwt>
<pdfrwt beam="2">  1       -2 0.70021829E-01 0.71726611E+03</pdfrwt>
<totfact> 0.16795947E+01</totfact>
</mgrwt>
</event>
<event>
 4    5  0.1905771E-007  0.6691126E+03  0.7818608E-02  0.1016307E+00
          2   -1    0    0  501    0  0.00000000000E+00  0.00000000000E+00  0.21305106639E+04  0.21305106639E+04  0.25500000000E-02 0. -1.
         -2   -1    0    0    0  501 -0.00000000000E+00 -0.00000000000E+00 -0.48500951638E+03  0.48500951639E+03  0.25500000000E-02 0.  1.
    8880023    1    1    2    0    0  0.41417477259E+02 -0.11039029410E+03  0.20558524082E+04  0.21619992495E+04  0.65864270000E+03 0. -1.
    8880022    1    1    2    0    0 -0.41417477259E+02  0.11039029410E+03 -0.41035126069E+03  0.45352093074E+03  0.15294330000E+03 0.  0.
<mgrwt>
<rscale>  0 0.49043101E+03</rscale>
<asrwt>0</asrwt>
<pdfrwt beam="1">  1        2 0.32777088E+00 0.66911257E+03</pdfrwt>
<pdfrwt beam="2">  1       -2 0.74616848E-01 0.66911257E+03</pdfrwt>
<totfact> 0.96056066E+00</totfact>
</mgrwt>
</event>
<event>
 4    5  0.1905771E-007  0.1196319E+04  0.7818608E-02  0.9160709E-01
          2   -1    0    0  501    0  0.00000000000E+00  0.00000000000E+00  0.53126278866E+03  0.53126278867E+03  0.25500000000E-02 0. -1.
         -2   -1    0    0    0  501 -0.00000000000E+00 -0.00000000000E+00 -0.31336448744E+04  0.31336448744E+04  0.25500000000E-02 0.  1.
    8880023    1    1    2    0    0 -0.71238808893E+03  0.69990786676E+03 -0.43383296915E+03  0.12725521846E+04  0.65864270000E+03 0.  0.
    8880022    1    1    2    0    0  0.71238808893E+03 -0.69990786676E+03 -0.21685491166E+04  0.23923554785E+04  0.15294330000E+03 0.  0.
<mgrwt>
<rscale>  0 0.11468340E+04</rscale>
<asrwt>0</asrwt>
<pdfrwt beam="1">  1        2 0.81732738E-01 0.11963185E+04</pdfrwt>
<pdfrwt beam="2">  1       -2 0.48209920E+00 0.11963185E+04</pdfrwt>
<totfact> 0.12143564E-01</totfact>
</mgrwt>
</event>
<event>
 4    5  0.1905771E-007  0.1451911E+04  0.7818608E-02  0.8944362E-01
          2   -1    0    0  501    0  0.00000000000E+00  0.00000000000E+00  0.23846777062E+04  0.23846777062E+04  0.25500000000E-02 0. -1.
         -2   -1    0    0    0  501 -0.00000000000E+00 -0.00000000000E+00 -0.10601279110E+04  0.10601279110E+04  0.25500000000E-02 0.  1.
    8880023    1    1    2    0    0  0.15348244102E+03  0.12847869702E+04  0.15485663043E+04  0.21227581642E+04  0.65864270000E+03 0.  0.
    8880022    1    1    2    0    0 -0.15348244102E+03 -0.12847869702E+04 -0.22401650914E+03  0.13220474530E+04  0.15294330000E+03 0.  0.
<mgrwt>
<rscale>  0 0.14131400E+04</rscale>
<asrwt>0</asrwt>
<pdfrwt beam="1">  1        2 0.36687349E+00 0.14519107E+04</pdfrwt>
<pdfrwt beam="2">  1       -2 0.16309660E+00 0.14519107E+04</pdfrwt>
<totfact> 0.91880545E-01</totfact>
</mgrwt>
</event>
<event>
 4    5  0.1905771E-007  0.8736621E+03  0.7818608E-02  0.9569708E-01
         -2   -1    0    0    0  501 -0.00000000000E+00  0.00000000000E+00  0.10553860915E+04  0.10553860915E+04  0.25500000000E-02 0.  1.
          2   -1    0    0  501    0  0.00000000000E+00 -0.00000000000E+00 -0.62517513110E+03  0.62517513110E+03  0.25500000000E-02 0. -1.
    8880023    1    1    2    0    0 -0.51123405590E+03  0.26098863669E+03 -0.10631484201E+03  0.88010702774E+03  0.65864270000E+03 0. -1.
    8880022    1    1    2    0    0  0.51123405590E+03 -0.26098863669E+03  0.53652580239E+03  0.80045419484E+03  0.15294330000E+03 0.  0.
<mgrwt>
<rscale>  0 0.79333938E+03</rscale>
<asrwt>0</asrwt>
<pdfrwt beam="1">  1        2 0.96180791E-01 0.87366214E+03</pdfrwt>
<pdfrwt beam="2">  1       -2 0.16236709E+00 0.87366214E+03</pdfrwt>
<totfact> 0.11455941E+01</totfact>
</mgrwt>
</event>
<event>
 4    5  0.1905771E-007  0.1238451E+04  0.7818608E-02  0.9120622E-01
          2   -1    0    0  501    0  0.00000000000E+00  0.00000000000E+00  0.21020645225E+04  0.21020645225E+04  0.25500000000E-02 0. -1.
         -2   -1    0    0    0  501 -0.00000000000E+00 -0.00000000000E+00 -0.73344573719E+03  0.73344573719E+03  0.25500000000E-02 0.  1.
    8880023    1    1    2    0    0 -0.10313638633E+04  0.19036819498E+03  0.19426189132E+03  0.12535945743E+04  0.65864270000E+03 0.  0.
    8880022    1    1    2    0    0  0.10313638633E+04 -0.19036819498E+03  0.11743568939E+04  0.15819156853E+04  0.15294330000E+03 0.  0.
<mgrwt>
<rscale>  0 0.11911687E+04</rscale>
<asrwt>0</asrwt>
<pdfrwt beam="1">  1        2 0.32339454E+00 0.12384513E+04</pdfrwt>
<pdfrwt beam="2">  1       -2 0.11283781E+00 0.12384513E+04</pdfrwt>
<totfact> 0.35249377E+00</totfact>
</mgrwt>
</event>
<event>
 4    5  0.1905771E-007  0.1211616E+04  0.7818608E-02  0.9145913E-01
         -2   -1    0    0    0  501 -0.00000000000E+00  0.00000000000E+00  0.66238775925E+03  0.66238775926E+03  0.25500000000E-02 0.  1.
          2   -1    0    0  501    0  0.00000000000E+00 -0.00000000000E+00 -0.36497885262E+04  0.36497885262E+04  0.25500000000E-02 0. -1.
    8880023    1    1    2    0    0  0.64285481755E+03 -0.78799753604E+03 -0.30500332858E+04  0.32818768539E+04  0.65864270000E+03 0.  0.
    8880022    1    1    2    0    0 -0.64285481755E+03  0.78799753604E+03  0.62632518864E+02  0.10302994316E+04  0.15294330000E+03 0.  0.
<mgrwt>
<rscale>  0 0.11629567E+04</rscale>
<asrwt>0</asrwt>
<pdfrwt beam="1">  1        2 0.56150592E+00 0.12116157E+04</pdfrwt>
<pdfrwt beam="2">  1       -2 0.10190581E+00 0.12116157E+04</pdfrwt>
<totfact> 0.50277060E-01</totfact>
</mgrwt>
</event>
<event>
 4    5  0.1905771E-007  0.1882159E+04  0.7818608E-02  0.8678400E-01
          2   -1    0    0  501    0  0.00000000000E+00  0.00000000000E+00  0.52689626643E+04  0.52689626643E+04  0.25500000000E-02 0. -1.
         -2   -1    0    0    0  501 -0.00000000000E+00 -0.00000000000E+00 -0.14123761885E+04  0.14123761885E+04  0.25500000000E-02 0.  1.
    8880023    1    1    2    0    0 -0.13699926048E+04  0.11098801720E+04  0.44362851027E+04  0.48190403041E+04  0.65864270000E+03 0.  0.
    8880022    1    1    2    0    0  0.13699926048E+04 -0.11098801720E+04 -0.57969862691E+03  0.18622985487E+04  0.15294330000E+03 0.  0.
<mgrwt>
<rscale>  0 0.18534115E+04</rscale>
<asrwt>0</asrwt>
<pdfrwt beam="1">  1        2 0.81060963E+00 0.18821594E+04</pdfrwt>
<pdfrwt beam="2">  1       -2 0.21728865E+00 0.18821594E+04</pdfrwt>
<totfact> 0.13857035E-03</totfact>
</mgrwt>
</event>
<event>
 4    5  0.1905771E-007  0.7990967E+03  0.7818608E-02  0.9712753E-01
          2   -1    0    0  501    0  0.00000000000E+00  0.00000000000E+00  0.39862194857E+04  0.39862194857E+04  0.25500000000E-02 0. -1.
         -2   -1    0    0    0  501 -0.00000000000E+00 -0.00000000000E+00 -0.11332009819E+04  0.11332009819E+04  0.25500000000E-02 0.  1.
    8880023    1    1    2    0    0  0.40446441937E+03  0.20286408957E+03  0.38934409863E+04  0.39745991276E+04  0.65864270000E+03 0. -1.
    8880022    1    1    2    0    0 -0.40446441937E+03 -0.20286408957E+03 -0.10404224824E+04  0.11448213399E+04  0.15294330000E+03 0.  0.
<mgrwt>
<rscale>  0 0.70262557E+03</rscale>
<asrwt>0</asrwt>
<pdfrwt beam="1">  1        2 0.61326454E+00 0.79909668E+03</pdfrwt>
<pdfrwt beam="2">  1       -2 0.17433861E+00 0.79909668E+03</pdfrwt>
<totfact> 0.76830454E-02</totfact>
</mgrwt>
</event>
<event>
 4    5  0.1905771E-007  0.1014197E+04  0.7818608E-02  0.9363214E-01
         -2   -1    0    0    0  501 -0.00000000000E+00  0.00000000000E+00  0.62369040341E+03  0.62369040341E+03  0.25500000000E-02 0.  1.
          2   -1    0    0  501    0  0.00000000000E+00 -0.00000000000E+00 -0.27116127721E+04  0.27116127721E+04  0.25500000000E-02 0. -1.
    8880023    1    1    2    0    0 -0.49436089827E+03  0.59194053794E+03 -0.23061723493E+04  0.25193307463E+04  0.65864270000E+03 0. -1.
    8880022    1    1    2    0    0  0.49436089827E+03 -0.59194053794E+03  0.21824998062E+03  0.81597242922E+03  0.15294330000E+03 0.  0.
<mgrwt>
<rscale>  0 0.95165839E+03</rscale>
<asrwt>0</asrwt>
<pdfrwt beam="1">  1        2 0.41717119E+00 0.10141975E+04</pdfrwt>
<pdfrwt beam="2">  1       -2 0.95952371E-01 0.10141975E+04</pdfrwt>
<totfact> 0.24059967E+00</totfact>
</mgrwt>
</event>
<event>
 4    5  0.1905771E-007  0.1131363E+04  0.7818608E-02  0.9226915E-01
         -2   -1    0    0    0  501 -0.00000000000E+00  0.00000000000E+00  0.49545436809E+03  0.49545436809E+03  0.25500000000E-02 0.  1.
          2   -1    0    0  501    0  0.00000000000E+00 -0.00000000000E+00 -0.32173232115E+04  0.32173232115E+04  0.25500000000E-02 0. -1.
    8880023    1    1    2    0    0 -0.28587843454E+03 -0.87432639204E+03 -0.25147817460E+04  0.27575551772E+04  0.65864270000E+03 0.  0.
    8880022    1    1    2    0    0  0.28587843454E+03  0.87432639204E+03 -0.20708709747E+03  0.95522240243E+03  0.15294330000E+03 0.  0.
<mgrwt>
<rscale>  0 0.10779891E+04</rscale>
<asrwt>0</asrwt>
<pdfrwt beam="1">  1        2 0.49497279E+00 0.11313635E+04</pdfrwt>
<pdfrwt beam="2">  1       -2 0.76223751E-01 0.11313635E+04</pdfrwt>
<totfact> 0.19603954E+00</totfact>
</mgrwt>
</event>
<event>
 4    5  0.1905771E-007  0.1188899E+04  0.7818608E-02  0.9167990E-01
         -2   -1    0    0    0  501 -0.00000000000E+00  0.00000000000E+00  0.21988499629E+04  0.21988499629E+04  0.25500000000E-02 0.  1.
          2   -1    0    0  501    0  0.00000000000E+00 -0.00000000000E+00 -0.13124700958E+04  0.13124700958E+04  0.25500000000E-02 0. -1.
    8880023    1    1    2    0    0 -0.79775967983E+03  0.58587467740E+03 -0.88110251706E+03  0.14798045466E+04  0.65864270000E+03 0. -1.
    8880022    1    1    2    0    0  0.79775967983E+03 -0.58587467740E+03  0.17674823841E+04  0.20315155120E+04  0.15294330000E+03 0.  0.
<mgrwt>
<rscale>  0 0.11390021E+04</rscale>
<asrwt>0</asrwt>
<pdfrwt beam="1">  1        2 0.20191848E+00 0.11888986E+04</pdfrwt>
<pdfrwt beam="2">  1       -2 0.33828461E+00 0.11888986E+04</pdfrwt>
<totfact> 0.29398390E-01</totfact>
</mgrwt>
</event>
<event>
 4    5  0.2223043E-007  0.7774005E+03  0.7818608E-02  0.9761979E-01
          2   -1    0    0  501    0  0.00000000000E+00  0.00000000000E+00  0.14891122562E+04  0.14891122562E+04  0.25500000000E-02 0. -1.
         -2   -1    0    0    0  501 -0.00000000000E+00 -0.00000000000E+00 -0.99874428477E+03  0.99874428478E+03  0.25500000000E-02 0.  1.
    8880023    1    1    2    0    0 -0.37327554829E+03  0.17665395802E+03  0.13295478367E+04  0.15401457438E+04  0.65864270000E+03 0.  0.
    8880022    1    1    2    0    0  0.37327554829E+03 -0.17665395802E+03 -0.83917986526E+03  0.94771079719E+03  0.15294330000E+03 0.  0.
<mgrwt>
<rscale>  0 0.67443489E+03</rscale>
<asrwt>0</asrwt>
<pdfrwt beam="1">  1        2 0.22909419E+00 0.77740045E+03</pdfrwt>
<pdfrwt beam="2">  1       -2 0.15365297E+00 0.77740045E+03</pdfrwt>
<totfact> 0.36989312E+00</totfact>
</mgrwt>
</event>
<event>
 4    5  0.1905771E-007  0.9721526E+03  0.7818608E-02  0.9418933E-01
          2   -1    0    0  501    0  0.00000000000E+00  0.00000000000E+00  0.11395960173E+04  0.11395960173E+04  0.25500000000E-02 0. -1.
         -2   -1    0    0    0  501 -0.00000000000E+00 -0.00000000000E+00 -0.76180332034E+03  0.76180332034E+03  0.25500000000E-02 0.  1.
    8880023    1    1    2    0    0 -0.55667057652E+03  0.44876303722E+03  0.59354879559E+03  0.11390262391E+04  0.65864270000E+03 0. -1.
    8880022    1    1    2    0    0  0.55667057652E+03 -0.44876303722E+03 -0.21575609860E+03  0.76237309858E+03  0.15294330000E+03 0.  0.
<mgrwt>
<rscale>  0 0.90533798E+03</rscale>
<asrwt>0</asrwt>
<pdfrwt beam="1">  1        2 0.17532247E+00 0.97215256E+03</pdfrwt>
<pdfrwt beam="2">  1       -2 0.11720051E+00 0.97215256E+03</pdfrwt>
<totfact> 0.11541643E+01</totfact>
</mgrwt>
</event>
<event>
 4    5  0.1905771E-007  0.1445341E+04  0.7818608E-02  0.8949229E-01
          2   -1    0    0  501    0  0.00000000000E+00  0.00000000000E+00  0.23024089425E+04  0.23024089425E+04  0.25500000000E-02 0. -1.
         -2   -1    0    0    0  501 -0.00000000000E+00 -0.00000000000E+00 -0.10959929711E+04  0.10959929711E+04  0.25500000000E-02 0.  1.
    8880023    1    1    2    0    0  0.41203582840E+02  0.12858859841E+04 -0.23053377185E+03  0.14636107835E+04  0.65864270000E+03 0.  1.
    8880022    1    1    2    0    0 -0.41203582840E+02 -0.12858859841E+04  0.14369497433E+04  0.19347911301E+04  0.15294330000E+03 0.  0.
<mgrwt>
<rscale>  0 0.14063580E+04</rscale>
<asrwt>0</asrwt>
<pdfrwt beam="1">  1        2 0.35421676E+00 0.14453410E+04</pdfrwt>
<pdfrwt beam="2">  1       -2 0.16861430E+00 0.14453410E+04</pdfrwt>
<totfact> 0.93356734E-01</totfact>
</mgrwt>
</event>
<event>
 4    5  0.1905771E-007  0.8895706E+03  0.7818608E-02  0.9542986E-01
         -2   -1    0    0    0  501 -0.00000000000E+00  0.00000000000E+00  0.76016993472E+03  0.76016993473E+03  0.25500000000E-02 0.  1.
          2   -1    0    0  501    0  0.00000000000E+00 -0.00000000000E+00 -0.21102303203E+04  0.21102303203E+04  0.25500000000E-02 0. -1.
    8880023    1    1    2    0    0  0.33848490991E+03 -0.49290331488E+03 -0.18652057561E+04  0.20664772999E+04  0.65864270000E+03 0. -1.
    8880022    1    1    2    0    0 -0.33848490991E+03  0.49290331488E+03  0.51514537052E+03  0.80392295516E+03  0.15294330000E+03 0.  0.
<mgrwt>
<rscale>  0 0.81187501E+03</rscale>
<asrwt>0</asrwt>
<pdfrwt beam="1">  1        2 0.32465082E+00 0.88957064E+03</pdfrwt>
<pdfrwt beam="2">  1       -2 0.11694922E+00 0.88957064E+03</pdfrwt>
<totfact> 0.33345305E+00</totfact>
</mgrwt>
</event>
<event>
 4    5  0.1905771E-007  0.6637157E+03  0.7818608E-02  0.1020636E+00
          2   -1    0    0  501    0  0.00000000000E+00  0.00000000000E+00  0.31941530501E+04  0.31941530501E+04  0.25500000000E-02 0. -1.
         -2   -1    0    0    0  501 -0.00000000000E+00 -0.00000000000E+00 -0.11618578463E+03  0.11618578466E+03  0.25500000000E-02 0.  1.
    8880023    1    1    2    0    0  0.58220489637E+02  0.57608701613E+02  0.30653560394E+04  0.31363874509E+04  0.65864270000E+03 0. -1.
    8880022    1    1    2    0    0 -0.58220489637E+02 -0.57608701613E+02  0.12611226136E+02  0.17395138388E+03  0.15294330000E+03 0.  0.
<mgrwt>
<rscale>  0 0.47457786E+03</rscale>
<asrwt>0</asrwt>
<pdfrwt beam="1">  1        2 0.49140816E+00 0.66371575E+03</pdfrwt>
<pdfrwt beam="2">  1       -2 0.17874736E-01 0.66371575E+03</pdfrwt>
<totfact> 0.36626686E+01</totfact>
</mgrwt>
</event>
<event>
 4    5  0.1905771E-007  0.1123547E+04  0.7818608E-02  0.9235281E-01
         -2   -1    0    0    0  501 -0.00000000000E+00  0.00000000000E+00  0.87112716258E+03  0.87112716259E+03  0.25500000000E-02 0.  1.
          2   -1    0    0  501    0  0.00000000000E+00 -0.00000000000E+00 -0.14430433115E+04  0.14430433115E+04  0.25500000000E-02 0. -1.
    8880023    1    1    2    0    0 -0.22173713612E+03  0.88282564640E+03 -0.78030736621E+03  0.13679321151E+04  0.65864270000E+03 0. -1.
    8880022    1    1    2    0    0  0.22173713612E+03 -0.88282564640E+03  0.20839121734E+03  0.94623835895E+03  0.15294330000E+03 0.  0.
<mgrwt>
<rscale>  0 0.10696573E+04</rscale>
<asrwt>0</asrwt>
<pdfrwt beam="1">  1        2 0.22200666E+00 0.11235474E+04</pdfrwt>
<pdfrwt beam="2">  1       -2 0.13401956E+00 0.11235474E+04</pdfrwt>
<totfact> 0.53887781E+00</totfact>
</mgrwt>
</event>
<event>
 4    5  0.1905771E-007  0.8290479E+03  0.7818608E-02  0.9651188E-01
         -2   -1    0    0    0  501 -0.00000000000E+00  0.00000000000E+00  0.13234908522E+03  0.13234908525E+03  0.25500000000E-02 0.  1.
          2   -1    0    0  501    0  0.00000000000E+00 -0.00000000000E+00 -0.41400354488E+04  0.41400354488E+04  0.25500000000E-02 0. -1.
    8880023    1    1    2    0    0 -0.39745790455E+03  0.30909116340E+03 -0.32206113740E+04  0.33256064051E+04  0.65864270000E+03 0.  1.
    8880022    1    1    2    0    0  0.39745790455E+03 -0.30909116340E+03 -0.78707498958E+03  0.94677812893E+03  0.15294330000E+03 0.  0.
<mgrwt>
<rscale>  0 0.73998926E+03</rscale>
<asrwt>0</asrwt>
<pdfrwt beam="1">  1        2 0.63692843E+00 0.82904785E+03</pdfrwt>
<pdfrwt beam="2">  1       -2 0.20361401E-01 0.82904785E+03</pdfrwt>
<totfact> 0.59146868E+00</totfact>
</mgrwt>
</event>
<event>
 4    5  0.1905771E-007  0.7015287E+03  0.7818608E-02  0.9990918E-01
         -2   -1    0    0    0  501 -0.00000000000E+00  0.00000000000E+00  0.64424316326E+03  0.64424316326E+03  0.25500000000E-02 0.  1.
          2   -1    0    0  501    0  0.00000000000E+00 -0.00000000000E+00 -0.21248151476E+04  0.21248151476E+04  0.25500000000E-02 0. -1.
    8880023    1    1    2    0    0 -0.23907158230E+03  0.34307903391E+02 -0.20310414174E+04  0.21487837721E+04  0.65864270000E+03 0. -1.
    8880022    1    1    2    0    0  0.23907158230E+03 -0.34307903391E+02  0.55046943306E+03  0.62027453877E+03  0.15294330000E+03 0.  0.
<mgrwt>
<rscale>  0 0.56050269E+03</rscale>
<asrwt>0</asrwt>
<pdfrwt beam="1">  1        2 0.32689463E+00 0.70152866E+03</pdfrwt>
<pdfrwt beam="2">  1       -2 0.99114334E-01 0.70152866E+03</pdfrwt>
<totfact> 0.50316219E+00</totfact>
</mgrwt>
</event>
<event>
 4    5  0.1905771E-007  0.7685236E+03  0.7818608E-02  0.9783520E-01
          2   -1    0    0  501    0  0.00000000000E+00  0.00000000000E+00  0.10340268624E+04  0.10340268624E+04  0.25500000000E-02 0. -1.
         -2   -1    0    0    0  501 -0.00000000000E+00 -0.00000000000E+00 -0.66645389469E+03  0.66645389469E+03  0.25500000000E-02 0.  1.
    8880023    1    1    2    0    0 -0.27610515350E+03 -0.28387370936E+03  0.78961723050E+03  0.11018729126E+04  0.65864270000E+03 0. -1.
    8880022    1    1    2    0    0  0.27610515350E+03  0.28387370936E+03 -0.42204426279E+03  0.59860784444E+03  0.15294330000E+03 0.  0.
<mgrwt>
<rscale>  0 0.66254483E+03</rscale>
<asrwt>0</asrwt>
<pdfrwt beam="1">  1        2 0.15908106E+00 0.76852361E+03</pdfrwt>
<pdfrwt beam="2">  1       -2 0.10253137E+00 0.76852361E+03</pdfrwt>
<totfact> 0.18924707E+01</totfact>
</mgrwt>
</event>
<event>
 4    5  0.1905771E-007  0.7359636E+03  0.7818608E-02  0.9871865E-01
          2   -1    0    0  501    0  0.00000000000E+00  0.00000000000E+00  0.18386253818E+04  0.18386253818E+04  0.25500000000E-02 0. -1.
         -2   -1    0    0    0  501 -0.00000000000E+00 -0.00000000000E+00 -0.34439308663E+03  0.34439308664E+03  0.25500000000E-02 0.  1.
    8880023    1    1    2    0    0  0.32836122162E+03 -0.33386882592E+01  0.16360784560E+04  0.17939886173E+04  0.65864270000E+03 0. -1.
    8880022    1    1    2    0    0 -0.32836122162E+03  0.33386882592E+01 -0.14184616081E+03  0.38902985111E+03  0.15294330000E+03 0.  0.
<mgrwt>
<rscale>  0 0.61644434E+03</rscale>
<asrwt>0</asrwt>
<pdfrwt beam="1">  1        2 0.28286544E+00 0.73596362E+03</pdfrwt>
<pdfrwt beam="2">  1       -2 0.52983553E-01 0.73596362E+03</pdfrwt>
<totfact> 0.28457193E+01</totfact>
</mgrwt>
</event>
<event>
 4    5  0.1905771E-007  0.1246417E+04  0.7818608E-02  0.9113271E-01
         -2   -1    0    0    0  501 -0.00000000000E+00  0.00000000000E+00  0.23669766718E+04  0.23669766718E+04  0.25500000000E-02 0.  1.
          2   -1    0    0  501    0  0.00000000000E+00 -0.00000000000E+00 -0.10579572918E+04  0.10579572918E+04  0.25500000000E-02 0. -1.
    8880023    1    1    2    0    0 -0.74655265685E+03  0.74993668635E+03 -0.48420254035E+03  0.13371642417E+04  0.65864270000E+03 0. -1.
    8880022    1    1    2    0    0  0.74655265685E+03 -0.74993668635E+03  0.17932219204E+04  0.20877697219E+04  0.15294330000E+03 0.  0.
<mgrwt>
<rscale>  0 0.11995267E+04</rscale>
<asrwt>0</asrwt>
<pdfrwt beam="1">  1        2 0.16276266E+00 0.12464173E+04</pdfrwt>
<pdfrwt beam="2">  1       -2 0.36415025E+00 0.12464173E+04</pdfrwt>
<totfact> 0.28614923E-01</totfact>
</mgrwt>
</event>
<event>
 4    5  0.1905771E-007  0.7904516E+03  0.7818608E-02  0.9731835E-01
         -2   -1    0    0    0  501 -0.00000000000E+00  0.00000000000E+00  0.71540437871E+03  0.71540437872E+03  0.25500000000E-02 0.  1.
          2   -1    0    0  501    0  0.00000000000E+00 -0.00000000000E+00 -0.86942648105E+03  0.86942648105E+03  0.25500000000E-02 0. -1.
    8880023    1    1    2    0    0  0.28828925429E+03 -0.32847053183E+03 -0.56025073261E+03  0.96886256717E+03  0.65864270000E+03 0. -1.
    8880022    1    1    2    0    0 -0.28828925429E+03  0.32847053183E+03  0.40622863027E+03  0.61596829260E+03  0.15294330000E+03 0.  0.
<mgrwt>
<rscale>  0 0.69152577E+03</rscale>
<asrwt>0</asrwt>
<pdfrwt beam="1">  1        2 0.13375792E+00 0.79045164E+03</pdfrwt>
<pdfrwt beam="2">  1       -2 0.11006221E+00 0.79045164E+03</pdfrwt>
<totfact> 0.20413411E+01</totfact>
</mgrwt>
</event>
<event>
 4    5  0.1905771E-007  0.1988616E+04  0.7818608E-02  0.8624804E-01
         -2   -1    0    0    0  501 -0.00000000000E+00  0.00000000000E+00  0.11464201680E+04  0.11464201680E+04  0.25500000000E-02 0.  1.
          2   -1    0    0  501    0  0.00000000000E+00 -0.00000000000E+00 -0.33848531143E+04  0.33848531143E+04  0.25500000000E-02 0. -1.
    8880023    1    1    2    0    0 -0.16777333837E+04  0.84023534333E+03 -0.72812000966E+03  0.21177237057E+04  0.65864270000E+03 0.  0.
    8880022    1    1    2    0    0  0.16777333837E+04 -0.84023534333E+03 -0.15103129366E+04  0.24135495766E+04  0.15294330000E+03 0.  0.
<mgrwt>
<rscale>  0 0.19615648E+04</rscale>
<asrwt>0</asrwt>
<pdfrwt beam="1">  1        2 0.52074663E+00 0.19886163E+04</pdfrwt>
<pdfrwt beam="2">  1       -2 0.17637233E+00 0.19886163E+04</pdfrwt>
<totfact> 0.16861046E-01</totfact>
</mgrwt>
</event>
<event>
 4    5  0.1905771E-007  0.9332780E+03  0.7818608E-02  0.9474593E-01
         -2   -1    0    0    0  501 -0.00000000000E+00  0.00000000000E+00  0.55737032674E+03  0.55737032675E+03  0.25500000000E-02 0.  1.
          2   -1    0    0  501    0  0.00000000000E+00 -0.00000000000E+00 -0.26434566155E+04  0.26434566155E+04  0.25500000000E-02 0. -1.
    8880023    1    1    2    0    0  0.27522720345E+03  0.60120516028E+03 -0.23057734299E+04  0.24874884873E+04  0.65864270000E+03 0. -1.
    8880022    1    1    2    0    0 -0.27522720345E+03 -0.60120516028E+03  0.21968714114E+03  0.71333845492E+03  0.15294330000E+03 0.  0.
<mgrwt>
<rscale>  0 0.86183179E+03</rscale>
<asrwt>0</asrwt>
<pdfrwt beam="1">  1        2 0.40668563E+00 0.93327802E+03</pdfrwt>
<pdfrwt beam="2">  1       -2 0.85749282E-01 0.93327802E+03</pdfrwt>
<totfact> 0.34646054E+00</totfact>
</mgrwt>
</event>
<event>
 4    5  0.1905771E-007  0.7567554E+03  0.7818608E-02  0.9813581E-01
          2   -1    0    0  501    0  0.00000000000E+00  0.00000000000E+00  0.19945086341E+04  0.19945086341E+04  0.25500000000E-02 0. -1.
         -2   -1    0    0    0  501 -0.00000000000E+00 -0.00000000000E+00 -0.31669052013E+03  0.31669052014E+03  0.25500000000E-02 0.  1.
    8880023    1    1    2    0    0  0.31699135044E+03  0.19592105213E+03  0.17457329212E+04  0.19026986659E+04  0.65864270000E+03 0. -1.
    8880022    1    1    2    0    0 -0.31699135044E+03 -0.19592105213E+03 -0.67914807201E+02  0.40850048834E+03  0.15294330000E+03 0.  0.
<mgrwt>
<rscale>  0 0.64638783E+03</rscale>
<asrwt>0</asrwt>
<pdfrwt beam="1">  1        2 0.30684747E+00 0.75675543E+03</pdfrwt>
<pdfrwt beam="2">  1       -2 0.48721620E-01 0.75675543E+03</pdfrwt>
<totfact> 0.27697063E+01</totfact>
</mgrwt>
</event>
<event>
 4    5  0.1905771E-007  0.7747354E+03  0.7818608E-02  0.9768352E-01
          2   -1    0    0  501    0  0.00000000000E+00  0.00000000000E+00  0.15328264117E+04  0.15328264117E+04  0.25500000000E-02 0. -1.
         -2   -1    0    0    0  501 -0.00000000000E+00 -0.00000000000E+00 -0.62163390641E+03  0.62163390641E+03  0.25500000000E-02 0.  1.
    8880023    1    1    2    0    0  0.24329359734E+03 -0.32743380603E+03  0.13370179759E+04  0.15452611255E+04  0.65864270000E+03 0. -1.
    8880022    1    1    2    0    0 -0.24329359734E+03  0.32743380603E+03 -0.42582547061E+03  0.60919919261E+03  0.15294330000E+03 0.  0.
<mgrwt>
<rscale>  0 0.67088952E+03</rscale>
<asrwt>0</asrwt>
<pdfrwt beam="1">  1        2 0.23581945E+00 0.77473536E+03</pdfrwt>
<pdfrwt beam="2">  1       -2 0.95635986E-01 0.77473536E+03</pdfrwt>
<totfact> 0.11404696E+01</totfact>
</mgrwt>
</event>
<event>
 4    5  0.1905771E-007  0.7497453E+03  0.7818608E-02  0.9832418E-01
          2   -1    0    0  501    0  0.00000000000E+00  0.00000000000E+00  0.28089001647E+03  0.28089001648E+03  0.25500000000E-02 0. -1.
         -2   -1    0    0    0  501 -0.00000000000E+00 -0.00000000000E+00 -0.22200344999E+04  0.22200344999E+04  0.25500000000E-02 0.  1.
    8880023    1    1    2    0    0 -0.35329474388E+03  0.59081813142E+02 -0.28587841803E+03  0.80239922287E+03  0.65864270000E+03 0. -1.
    8880022    1    1    2    0    0  0.35329474388E+03 -0.59081813142E+02 -0.16532660654E+04  0.16985252935E+04  0.15294330000E+03 0.  1.
<mgrwt>
<rscale>  0 0.63651455E+03</rscale>
<asrwt>0</asrwt>
<pdfrwt beam="1">  1        2 0.43213850E-01 0.74974532E+03</pdfrwt>
<pdfrwt beam="2">  1       -2 0.34154376E+00 0.74974532E+03</pdfrwt>
<totfact> 0.21813626E+00</totfact>
</mgrwt>
</event>
<event>
 4    5  0.1905771E-007  0.9156691E+03  0.7818608E-02  0.9501332E-01
          2   -1    0    0  501    0  0.00000000000E+00  0.00000000000E+00  0.79568774912E+03  0.79568774913E+03  0.25500000000E-02 0. -1.
         -2   -1    0    0    0  501 -0.00000000000E+00 -0.00000000000E+00 -0.16319617796E+04  0.16319617796E+04  0.25500000000E-02 0.  1.
    8880023    1    1    2    0    0  0.61796174378E+03 -0.15087406432E+03  0.42293298810E+03  0.10086239233E+04  0.65864270000E+03 0.  0.
    8880022    1    1    2    0    0 -0.61796174378E+03  0.15087406432E+03 -0.12592070185E+04  0.14190256053E+04  0.15294330000E+03 0.  0.
<mgrwt>
<rscale>  0 0.84185708E+03</rscale>
<asrwt>0</asrwt>
<pdfrwt beam="1">  1        2 0.12241350E+00 0.91566910E+03</pdfrwt>
<pdfrwt beam="2">  1       -2 0.25107104E+00 0.91566910E+03</pdfrwt>
<totfact> 0.22135313E+00</totfact>
</mgrwt>
</event>
<event>
 4    5  0.1905771E-007  0.8534239E+03  0.7818608E-02  0.9605370E-01
          2   -1    0    0  501    0  0.00000000000E+00  0.00000000000E+00  0.10671067348E+04  0.10671067348E+04  0.25500000000E-02 0. -1.
         -2   -1    0    0    0  501 -0.00000000000E+00 -0.00000000000E+00 -0.82908184528E+03  0.82908184528E+03  0.25500000000E-02 0.  1.
    8880023    1    1    2    0    0 -0.35232997313E+03  0.41277814854E+03  0.74882998780E+03  0.11353760464E+04  0.65864270000E+03 0. -1.
    8880022    1    1    2    0    0  0.35232997313E+03 -0.41277814854E+03 -0.51080509831E+03  0.76081253365E+03  0.15294330000E+03 0.  0.
<mgrwt>
<rscale>  0 0.76941792E+03</rscale>
<asrwt>0</asrwt>
<pdfrwt beam="1">  1        2 0.16417027E+00 0.85342394E+03</pdfrwt>
<pdfrwt beam="2">  1       -2 0.12755105E+00 0.85342394E+03</pdfrwt>
<totfact> 0.10472447E+01</totfact>
</mgrwt>
</event>
<event>
 4    5  0.1905771E-007  0.6654710E+03  0.7818608E-02  0.1019142E+00
          2   -1    0    0  501    0  0.00000000000E+00  0.00000000000E+00  0.77123190344E+03  0.77123190344E+03  0.25500000000E-02 0. -1.
         -2   -1    0    0    0  501 -0.00000000000E+00 -0.00000000000E+00 -0.32748041186E+03  0.32748041187E+03  0.25500000000E-02 0.  1.
    8880023    1    1    2    0    0 -0.81393300147E+02 -0.49158117597E+02  0.57208582449E+03  0.87757266746E+03  0.65864270000E+03 0. -1.
    8880022    1    1    2    0    0  0.81393300147E+02  0.49158117597E+02 -0.12833433291E+03  0.22113964785E+03  0.15294330000E+03 0.  0.
<mgrwt>
<rscale>  0 0.47997685E+03</rscale>
<asrwt>0</asrwt>
<pdfrwt beam="1">  1        2 0.11865106E+00 0.66547096E+03</pdfrwt>
<pdfrwt beam="2">  1       -2 0.50381602E-01 0.66547096E+03</pdfrwt>
<totfact> 0.13693769E+02</totfact>
</mgrwt>
</event>
<event>
 4    5  0.1905771E-007  0.1181971E+04  0.7818608E-02  0.9174850E-01
         -2   -1    0    0    0  501 -0.00000000000E+00  0.00000000000E+00  0.10401202449E+04  0.10401202449E+04  0.25500000000E-02 0.  1.
          2   -1    0    0  501    0  0.00000000000E+00 -0.00000000000E+00 -0.23782473565E+04  0.23782473565E+04  0.25500000000E-02 0. -1.
    8880023    1    1    2    0    0 -0.56369739639E+03  0.80342368150E+03 -0.19292148021E+04  0.22625039946E+04  0.65864270000E+03 0.  0.
    8880022    1    1    2    0    0  0.56369739639E+03 -0.80342368150E+03  0.59108769050E+03  0.11558636068E+04  0.15294330000E+03 0.  0.
<mgrwt>
<rscale>  0 0.11316826E+04</rscale>
<asrwt>0</asrwt>
<pdfrwt beam="1">  1        2 0.36588421E+00 0.11819706E+04</pdfrwt>
<pdfrwt beam="2">  1       -2 0.16001850E+00 0.11819706E+04</pdfrwt>
<totfact> 0.10075458E+00</totfact>
</mgrwt>
</event>
<event>
 4    5  0.1905771E-007  0.7695429E+03  0.7818608E-02  0.9781000E-01
          2   -1    0    0  501    0  0.00000000000E+00  0.00000000000E+00  0.97456078690E+03  0.97456078690E+03  0.25500000000E-02 0. -1.
         -2   -1    0    0    0  501 -0.00000000000E+00 -0.00000000000E+00 -0.47891514239E+03  0.47891514240E+03  0.25500000000E-02 0.  1.
    8880023    1    1    2    0    0 -0.23098936135E+03  0.32408337725E+03  0.64254240160E+03  0.10025253436E+04  0.65864270000E+03 0.  0.
    8880022    1    1    2    0    0  0.23098936135E+03 -0.32408337725E+03 -0.14689675710E+03  0.45095058569E+03  0.15294330000E+03 0.  1.
<mgrwt>
<rscale>  0 0.66392227E+03</rscale>
<asrwt>0</asrwt>
<pdfrwt beam="1">  1        2 0.14993243E+00 0.76954293E+03</pdfrwt>
<pdfrwt beam="2">  1       -2 0.73679254E-01 0.76954293E+03</pdfrwt>
<totfact> 0.44047455E+01</totfact>
</mgrwt>
</event>
<event>
 4    5  0.1905771E-007  0.7749962E+03  0.7818608E-02  0.9767725E-01
         -2   -1    0    0    0  501 -0.00000000000E+00  0.00000000000E+00  0.83363656538E+03  0.83363656539E+03  0.25500000000E-02 0.  1.
          2   -1    0    0  501    0  0.00000000000E+00 -0.00000000000E+00 -0.19828381044E+04  0.19828381044E+04  0.25500000000E-02 0. -1.
    8880023    1    1    2    0    0 -0.13568009778E+03  0.38522689407E+03 -0.18416834235E+04  0.19981033225E+04  0.65864270000E+03 0. -1.
    8880022    1    1    2    0    0  0.13568009778E+03 -0.38522689407E+03  0.69248188442E+03  0.81837134732E+03  0.15294330000E+03 0.  0.
<mgrwt>
<rscale>  0 0.67123736E+03</rscale>
<asrwt>0</asrwt>
<pdfrwt beam="1">  1        2 0.30505202E+00 0.77499616E+03</pdfrwt>
<pdfrwt beam="2">  1       -2 0.12825178E+00 0.77499616E+03</pdfrwt>
<totfact> 0.31675098E+00</totfact>
</mgrwt>
</event>
<event>
 4    5  0.1905771E-007  0.1675879E+04  0.7818608E-02  0.8794493E-01
         -2   -1    0    0    0  501 -0.00000000000E+00  0.00000000000E+00  0.15425648454E+04  0.15425648454E+04  0.25500000000E-02 0.  1.
          2   -1    0    0  501    0  0.00000000000E+00 -0.00000000000E+00 -0.17291215109E+04  0.17291215109E+04  0.25500000000E-02 0. -1.
    8880023    1    1    2    0    0  0.13597350817E+04  0.72517703434E+03 -0.35780384293E+03  0.17136496199E+04  0.65864270000E+03 0.  0.
    8880022    1    1    2    0    0 -0.13597350817E+04 -0.72517703434E+03  0.17124717741E+03  0.15580367365E+04  0.15294330000E+03 0.  0.
<mgrwt>
<rscale>  0 0.16431101E+04</rscale>
<asrwt>0</asrwt>
<pdfrwt beam="1">  1        2 0.26601870E+00 0.16758793E+04</pdfrwt>
<pdfrwt beam="2">  1       -2 0.23731767E+00 0.16758793E+04</pdfrwt>
<totfact> 0.67154323E-01</totfact>
</mgrwt>
</event>
<event>
 4    5  0.1905771E-007  0.6997154E+03  0.7818608E-02  0.9998384E-01
          2   -1    0    0  501    0  0.00000000000E+00  0.00000000000E+00  0.79390436787E+03  0.79390436787E+03  0.25500000000E-02 0. -1.
         -2   -1    0    0    0  501 -0.00000000000E+00 -0.00000000000E+00 -0.19435887191E+04  0.19435887191E+04  0.25500000000E-02 0.  1.
    8880023    1    1    2    0    0 -0.70563632302E+02 -0.22541561638E+03  0.62647147418E+03  0.93918482767E+03  0.65864270000E+03 0. -1.
    8880022    1    1    2    0    0  0.70563632302E+02  0.22541561638E+03 -0.17761558254E+04  0.17983082593E+04  0.15294330000E+03 0.  0.
<mgrwt>
<rscale>  0 0.55721156E+03</rscale>
<asrwt>0</asrwt>
<pdfrwt beam="1">  1        2 0.12213913E+00 0.69971539E+03</pdfrwt>
<pdfrwt beam="2">  1       -2 0.29901365E+00 0.69971539E+03</pdfrwt>
<totfact> 0.11815964E+00</totfact>
</mgrwt>
</event>
<event>
 4    5  0.1905771E-007  0.1393315E+04  0.7818608E-02  0.8988894E-01
         -2   -1    0    0    0  501 -0.00000000000E+00  0.00000000000E+00  0.18464534986E+04  0.18464534986E+04  0.25500000000E-02 0.  1.
          2   -1    0    0  501    0  0.00000000000E+00 -0.00000000000E+00 -0.11766133065E+04  0.11766133065E+04  0.25500000000E-02 0. -1.
    8880023    1    1    2    0    0 -0.12080859033E+04 -0.21919416102E+03 -0.33049160252E+03  0.14319750471E+04  0.65864270000E+03 0. -1.
    8880022    1    1    2    0    0  0.12080859033E+04  0.21919416102E+03  0.10003317947E+04  0.15910917580E+04  0.15294330000E+03 0.  0.
<mgrwt>
<rscale>  0 0.13525576E+04</rscale>
<asrwt>0</asrwt>
<pdfrwt beam="1">  1        2 0.18101743E+00 0.13933154E+04</pdfrwt>
<pdfrwt beam="2">  1       -2 0.28406977E+00 0.13933154E+04</pdfrwt>
<totfact> 0.74280118E-01</totfact>
</mgrwt>
</event>
<event>
 4    5  0.1905771E-007  0.9616729E+03  0.7818608E-02  0.9433515E-01
         -2   -1    0    0    0  501 -0.00000000000E+00  0.00000000000E+00  0.99338449679E+03  0.99338449679E+03  0.25500000000E-02 0.  1.
          2   -1    0    0  501    0  0.00000000000E+00 -0.00000000000E+00 -0.12521124130E+04  0.12521124130E+04  0.25500000000E-02 0. -1.
    8880023    1    1    2    0    0 -0.70044054427E+03 -0.19687619936E+02 -0.87478325813E+03  0.13000232742E+04  0.65864270000E+03 0. -1.
    8880022    1    1    2    0    0  0.70044054427E+03  0.19687619936E+02  0.61605534189E+03  0.94547363565E+03  0.15294330000E+03 0.  0.
<mgrwt>
<rscale>  0 0.89368147E+03</rscale>
<asrwt>0</asrwt>
<pdfrwt beam="1">  1        2 0.19263268E+00 0.96167290E+03</pdfrwt>
<pdfrwt beam="2">  1       -2 0.15282838E+00 0.96167290E+03</pdfrwt>
<totfact> 0.50058626E+00</totfact>
</mgrwt>
</event>
<event>
 4    5  0.1905771E-007  0.7967415E+03  0.7818608E-02  0.9717886E-01
          2   -1    0    0  501    0  0.00000000000E+00  0.00000000000E+00  0.40373466030E+03  0.40373466031E+03  0.25500000000E-02 0. -1.
         -2   -1    0    0    0  501 -0.00000000000E+00 -0.00000000000E+00 -0.31848566635E+04  0.31848566635E+04  0.25500000000E-02 0.  1.
    8880023    1    1    2    0    0  0.41052329323E+03 -0.18015960202E+03 -0.30336014481E+02  0.79731884245E+03  0.65864270000E+03 0. -1.
    8880022    1    1    2    0    0 -0.41052329323E+03  0.18015960202E+03 -0.27507859888E+04  0.27912724814E+04  0.15294330000E+03 0.  0.
<mgrwt>
<rscale>  0 0.69961764E+03</rscale>
<asrwt>0</asrwt>
<pdfrwt beam="1">  1        2 0.62113027E-01 0.79674153E+03</pdfrwt>
<pdfrwt beam="2">  1       -2 0.48997793E+00 0.79674153E+03</pdfrwt>
<totfact> 0.15763238E-01</totfact>
</mgrwt>
</event>
<event>
 4    5  0.1905771E-007  0.7724656E+03  0.7818608E-02  0.9773843E-01
         -2   -1    0    0    0  501 -0.00000000000E+00  0.00000000000E+00  0.23124143521E+03  0.23124143523E+03  0.25500000000E-02 0.  1.
          2   -1    0    0  501    0  0.00000000000E+00 -0.00000000000E+00 -0.34644830464E+04  0.34644830464E+04  0.25500000000E-02 0. -1.
    8880023    1    1    2    0    0  0.40358867786E+03  0.30166360639E+01 -0.31660453832E+04  0.32589179947E+04  0.65864270000E+03 0.  0.
    8880022    1    1    2    0    0 -0.40358867786E+03 -0.30166360639E+01 -0.67196227956E+02  0.43680648697E+03  0.15294330000E+03 0.  0.
<mgrwt>
<rscale>  0 0.66785392E+03</rscale>
<asrwt>0</asrwt>
<pdfrwt beam="1">  1        2 0.53299735E+00 0.77246562E+03</pdfrwt>
<pdfrwt beam="2">  1       -2 0.35575608E-01 0.77246562E+03</pdfrwt>
<totfact> 0.68757308E+00</totfact>
</mgrwt>
</event>
<event>
 4    5  0.1905771E-007  0.7943348E+03  0.7818608E-02  0.9723182E-01
         -2   -1    0    0    0  501 -0.00000000000E+00  0.00000000000E+00  0.32872755780E+03  0.32872755781E+03  0.25500000000E-02 0.  1.
          2   -1    0    0  501    0  0.00000000000E+00 -0.00000000000E+00 -0.25432234909E+04  0.25432234909E+04  0.25500000000E-02 0. -1.
    8880023    1    1    2    0    0 -0.42587851650E+03  0.12563845453E+03 -0.22643981621E+04  0.23996805568E+04  0.65864270000E+03 0. -1.
    8880022    1    1    2    0    0  0.42587851650E+03 -0.12563845453E+03  0.49902228941E+02  0.47227049192E+03  0.15294330000E+03 0.  0.
<mgrwt>
<rscale>  0 0.69653167E+03</rscale>
<asrwt>0</asrwt>
<pdfrwt beam="1">  1        2 0.39126514E+00 0.79433478E+03</pdfrwt>
<pdfrwt beam="2">  1       -2 0.50573472E-01 0.79433478E+03</pdfrwt>
<totfact> 0.12651469E+01</totfact>
</mgrwt>
</event>
<event>
 4    5  0.1905771E-007  0.7954337E+03  0.7818608E-02  0.9720758E-01
          2   -1    0    0  501    0  0.00000000000E+00  0.00000000000E+00  0.26448387669E+04  0.26448387669E+04  0.25500000000E-02 0. -1.
         -2   -1    0    0    0  501 -0.00000000000E+00 -0.00000000000E+00 -0.22869742286E+03  0.22869742287E+03  0.25500000000E-02 0.  1.
    8880023    1    1    2    0    0 -0.41777393134E+03 -0.15610749968E+03  0.22282918206E+04  0.23660091406E+04  0.65864270000E+03 0.  0.
    8880022    1    1    2    0    0  0.41777393134E+03  0.15610749968E+03  0.18784952336E+03  0.50752704914E+03  0.15294330000E+03 0.  0.
<mgrwt>
<rscale>  0 0.69794230E+03</rscale>
<asrwt>0</asrwt>
<pdfrwt beam="1">  1        2 0.40689828E+00 0.79543373E+03</pdfrwt>
<pdfrwt beam="2">  1       -2 0.35184218E-01 0.79543373E+03</pdfrwt>
<totfact> 0.22620074E+01</totfact>
</mgrwt>
</event>
<event>
 4    5  0.1905771E-007  0.7871350E+03  0.7818608E-02  0.9739336E-01
          2   -1    0    0  501    0  0.00000000000E+00  0.00000000000E+00  0.11815807152E+04  0.11815807152E+04  0.25500000000E-02 0. -1.
         -2   -1    0    0    0  501 -0.00000000000E+00 -0.00000000000E+00 -0.13829666396E+04  0.13829666396E+04  0.25500000000E-02 0.  1.
    8880023    1    1    2    0    0  0.92280253289E+02  0.42101733255E+03  0.10037342918E+04  0.12755641788E+04  0.65864270000E+03 0. -1.
    8880022    1    1    2    0    0 -0.92280253289E+02 -0.42101733255E+03 -0.12051202162E+04  0.12889831760E+04  0.15294330000E+03 0.  0.
<mgrwt>
<rscale>  0 0.68722268E+03</rscale>
<asrwt>0</asrwt>
<pdfrwt beam="1">  1        2 0.18178165E+00 0.78713496E+03</pdfrwt>
<pdfrwt beam="2">  1       -2 0.21276410E+00 0.78713496E+03</pdfrwt>
<totfact> 0.21842860E+00</totfact>
</mgrwt>
</event>
<event>
 4    5  0.1991899E-007  0.1279876E+04  0.7818608E-02  0.9083136E-01
          2   -1    0    0  501    0  0.00000000000E+00  0.00000000000E+00  0.20065478304E+04  0.20065478304E+04  0.25500000000E-02 0. -1.
         -2   -1    0    0    0  501 -0.00000000000E+00 -0.00000000000E+00 -0.21034615285E+04  0.21034615285E+04  0.25500000000E-02 0.  1.
    8880023    1    1    2    0    0 -0.10088180981E+04 -0.43192263425E+03  0.16212543775E+04  0.20655621704E+04  0.65864270000E+03 0.  0.
    8880022    1    1    2    0    0  0.10088180981E+04  0.43192263425E+03 -0.17181680756E+04  0.20444471884E+04  0.15294330000E+03 0.  0.
<mgrwt>
<rscale>  0 0.12345557E+04</rscale>
<asrwt>0</asrwt>
<pdfrwt beam="1">  1        2 0.30869967E+00 0.12798755E+04</pdfrwt>
<pdfrwt beam="2">  1       -2 0.32360947E+00 0.12798755E+04</pdfrwt>
<totfact> 0.14573511E-01</totfact>
</mgrwt>
</event>
<event>
 4    5  0.1905771E-007  0.8890853E+03  0.7818608E-02  0.9543785E-01
         -2   -1    0    0    0  501 -0.00000000000E+00  0.00000000000E+00  0.96880150088E+03  0.96880150088E+03  0.25500000000E-02 0.  1.
          2   -1    0    0  501    0  0.00000000000E+00 -0.00000000000E+00 -0.68353414766E+03  0.68353414766E+03  0.25500000000E-02 0. -1.
    8880023    1    1    2    0    0  0.41786105827E+03  0.42667859632E+03 -0.14461343652E+03  0.90076952705E+03  0.65864270000E+03 0. -1.
    8880022    1    1    2    0    0 -0.41786105827E+03 -0.42667859632E+03  0.42988078974E+03  0.75156612149E+03  0.15294330000E+03 0.  0.
<mgrwt>
<rscale>  0 0.81131268E+03</rscale>
<asrwt>0</asrwt>
<pdfrwt beam="1">  1        2 0.10515910E+00 0.88908531E+03</pdfrwt>
<pdfrwt beam="2">  1       -2 0.14904639E+00 0.88908531E+03</pdfrwt>
<totfact> 0.12889956E+01</totfact>
</mgrwt>
</event>
<event>
 4    5  0.1905771E-007  0.8006960E+03  0.7818608E-02  0.9709293E-01
         -2   -1    0    0    0  501 -0.00000000000E+00  0.00000000000E+00  0.18711937094E+03  0.18711937096E+03  0.25500000000E-02 0.  1.
          2   -1    0    0  501    0  0.00000000000E+00 -0.00000000000E+00 -0.37623759502E+04  0.37623759502E+04  0.25500000000E-02 0. -1.
    8880023    1    1    2    0    0  0.30902494935E+03  0.33437620202E+03 -0.33003287176E+04  0.33960688618E+04  0.65864270000E+03 0. -1.
    8880022    1    1    2    0    0 -0.30902494935E+03 -0.33437620202E+03 -0.27492786173E+03  0.55342645941E+03  0.15294330000E+03 0.  0.
<mgrwt>
<rscale>  0 0.70466165E+03</rscale>
<asrwt>0</asrwt>
<pdfrwt beam="1">  1        2 0.57882701E+00 0.80069599E+03</pdfrwt>
<pdfrwt beam="2">  1       -2 0.28787598E-01 0.80069599E+03</pdfrwt>
<totfact> 0.62784390E+00</totfact>
</mgrwt>
</event>
<event>
 4    5  0.1905771E-007  0.9246019E+03  0.7818608E-02  0.9487639E-01
         -2   -1    0    0    0  501 -0.00000000000E+00  0.00000000000E+00  0.21982461358E+03  0.21982461359E+03  0.25500000000E-02 0.  1.
          2   -1    0    0  501    0  0.00000000000E+00 -0.00000000000E+00 -0.34687907570E+04  0.34687907570E+04  0.25500000000E-02 0. -1.
    8880023    1    1    2    0    0 -0.64848379024E+03 -0.23392702569E+02 -0.25947175294E+04  0.27545322122E+04  0.65864270000E+03 0.  0.
    8880022    1    1    2    0    0  0.64848379024E+03  0.23392702569E+02 -0.65424861406E+03  0.93408315837E+03  0.15294330000E+03 0.  0.
<mgrwt>
<rscale>  0 0.85201335E+03</rscale>
<asrwt>0</asrwt>
<pdfrwt beam="1">  1        2 0.53366008E+00 0.92460189E+03</pdfrwt>
<pdfrwt beam="2">  1       -2 0.33819174E-01 0.92460189E+03</pdfrwt>
<totfact> 0.73245824E+00</totfact>
</mgrwt>
</event>
<event>
 4    5  0.1905771E-007  0.7793052E+03  0.7818608E-02  0.9757472E-01
         -2   -1    0    0    0  501 -0.00000000000E+00  0.00000000000E+00  0.70953089624E+03  0.70953089624E+03  0.25500000000E-02 0.  1.
          2   -1    0    0  501    0  0.00000000000E+00 -0.00000000000E+00 -0.10076629005E+04  0.10076629005E+04  0.25500000000E-02 0. -1.
    8880023    1    1    2    0    0 -0.14805437004E+03  0.38934093720E+03 -0.75163512328E+03  0.10827151180E+04  0.65864270000E+03 0. -1.
    8880022    1    1    2    0    0  0.14805437004E+03 -0.38934093720E+03  0.45350311900E+03  0.63447867878E+03  0.15294330000E+03 0.  0.
<mgrwt>
<rscale>  0 0.67695671E+03</rscale>
<asrwt>0</asrwt>
<pdfrwt beam="1">  1        2 0.15502506E+00 0.77930525E+03</pdfrwt>
<pdfrwt beam="2">  1       -2 0.10915860E+00 0.77930525E+03</pdfrwt>
<totfact> 0.16897131E+01</totfact>
</mgrwt>
</event>
<event>
 4    5  0.1905771E-007  0.7718893E+03  0.7818608E-02  0.9775246E-01
          2   -1    0    0  501    0  0.00000000000E+00  0.00000000000E+00  0.29683824975E+04  0.29683824975E+04  0.25500000000E-02 0. -1.
         -2   -1    0    0    0  501 -0.00000000000E+00 -0.00000000000E+00 -0.61105643306E+03  0.61105643306E+03  0.25500000000E-02 0.  1.
    8880023    1    1    2    0    0  0.39796019292E+03  0.60254041635E+02  0.28339129065E+04  0.29371543086E+04  0.65864270000E+03 0. -1.
    8880022    1    1    2    0    0 -0.39796019292E+03 -0.60254041635E+02 -0.47658684200E+03  0.64228462201E+03  0.15294330000E+03 0.  0.
<mgrwt>
<rscale>  0 0.66708069E+03</rscale>
<asrwt>0</asrwt>
<pdfrwt beam="1">  1        2 0.45667423E+00 0.77188929E+03</pdfrwt>
<pdfrwt beam="2">  1       -2 0.94008682E-01 0.77188929E+03</pdfrwt>
<totfact> 0.18477809E+00</totfact>
</mgrwt>
</event>
<event>
 4    5  0.1905771E-007  0.1144815E+04  0.7818608E-02  0.9212728E-01
          2   -1    0    0  501    0  0.00000000000E+00  0.00000000000E+00  0.15233855672E+04  0.15233855672E+04  0.25500000000E-02 0. -1.
         -2   -1    0    0    0  501 -0.00000000000E+00 -0.00000000000E+00 -0.80887256833E+03  0.80887256833E+03  0.25500000000E-02 0.  1.
    8880023    1    1    2    0    0  0.23207870354E+03  0.90715479745E+03  0.48231870909E+00  0.11448147405E+04  0.65864270000E+03 0.  0.
    8880022    1    1    2    0    0 -0.23207870354E+03 -0.90715479745E+03  0.71403068014E+03  0.11874433950E+04  0.15294330000E+03 0.  0.
<mgrwt>
<rscale>  0 0.10923019E+04</rscale>
<asrwt>0</asrwt>
<pdfrwt beam="1">  1        2 0.23436701E+00 0.11448146E+04</pdfrwt>
<pdfrwt beam="2">  1       -2 0.12444193E+00 0.11448146E+04</pdfrwt>
<totfact> 0.58482573E+00</totfact>
</mgrwt>
</event>
<event>
 4    5  0.1905771E-007  0.1137779E+04  0.7818608E-02  0.9220116E-01
         -2   -1    0    0    0  501 -0.00000000000E+00  0.00000000000E+00  0.36920547137E+03  0.36920547138E+03  0.25500000000E-02 0.  1.
          2   -1    0    0  501    0  0.00000000000E+00 -0.00000000000E+00 -0.33770062394E+04  0.33770062394E+04  0.25500000000E-02 0. -1.
    8880023    1    1    2    0    0 -0.28741633174E+03 -0.88211210569E+03 -0.23109667015E+04  0.25758701863E+04  0.65864270000E+03 0.  0.
    8880022    1    1    2    0    0  0.28741633174E+03  0.88211210569E+03 -0.69683406655E+03  0.11703415245E+04  0.15294330000E+03 0.  0.
<mgrwt>
<rscale>  0 0.10848191E+04</rscale>
<asrwt>0</asrwt>
<pdfrwt beam="1">  1        2 0.51953940E+00 0.11377786E+04</pdfrwt>
<pdfrwt beam="2">  1       -2 0.56800844E-01 0.11377786E+04</pdfrwt>
<totfact> 0.29093116E+00</totfact>
</mgrwt>
</event>
<event>
 4    5  0.1905771E-007  0.7944138E+03  0.7818608E-02  0.9723007E-01
         -2   -1    0    0    0  501 -0.00000000000E+00  0.00000000000E+00  0.59083583212E+03  0.59083583213E+03  0.25500000000E-02 0.  1.
          2   -1    0    0  501    0  0.00000000000E+00 -0.00000000000E+00 -0.22750590383E+04  0.22750590383E+04  0.25500000000E-02 0. -1.
    8880023    1    1    2    0    0  0.27685446306E+03 -0.34732502904E+03 -0.20958180639E+04  0.22413269803E+04  0.65864270000E+03 0. -1.
    8880022    1    1    2    0    0 -0.27685446306E+03  0.34732502904E+03  0.41159485768E+03  0.62456789014E+03  0.15294330000E+03 0.  0.
<mgrwt>
<rscale>  0 0.69663318E+03</rscale>
<asrwt>0</asrwt>
<pdfrwt beam="1">  1        2 0.35000908E+00 0.79441379E+03</pdfrwt>
<pdfrwt beam="2">  1       -2 0.90897822E-01 0.79441379E+03</pdfrwt>
<totfact> 0.50094869E+00</totfact>
</mgrwt>
</event>
<event>
 4    5  0.1905771E-007  0.9296701E+03  0.7818608E-02  0.9479988E-01
          2   -1    0    0  501    0  0.00000000000E+00  0.00000000000E+00  0.94209147931E+03  0.94209147931E+03  0.25500000000E-02 0. -1.
         -2   -1    0    0    0  501 -0.00000000000E+00 -0.00000000000E+00 -0.79902694817E+03  0.79902694817E+03  0.25500000000E-02 0.  1.
    8880023    1    1    2    0    0 -0.57778049102E+03 -0.31087929002E+03  0.41051906054E+03  0.10162737496E+04  0.65864270000E+03 0.  0.
    8880022    1    1    2    0    0  0.57778049102E+03  0.31087929002E+03 -0.26745452940E+03  0.72484467790E+03  0.15294330000E+03 0.  0.
<mgrwt>
<rscale>  0 0.85775413E+03</rscale>
<asrwt>0</asrwt>
<pdfrwt beam="1">  1        2 0.14493715E+00 0.92967007E+03</pdfrwt>
<pdfrwt beam="2">  1       -2 0.12292722E+00 0.92967007E+03</pdfrwt>
<totfact> 0.13719051E+01</totfact>
</mgrwt>
</event>
<event>
 4    5  0.1905771E-007  0.7019490E+03  0.7818608E-02  0.9989210E-01
          2   -1    0    0  501    0  0.00000000000E+00  0.00000000000E+00  0.71523998623E+03  0.71523998623E+03  0.25500000000E-02 0. -1.
         -2   -1    0    0    0  501 -0.00000000000E+00 -0.00000000000E+00 -0.42208229190E+03  0.42208229191E+03  0.25500000000E-02 0.  1.
    8880023    1    1    2    0    0 -0.24944180749E+02 -0.24145387336E+03  0.42605790508E+03  0.82113198078E+03  0.65864270000E+03 0. -1.
    8880022    1    1    2    0    0  0.24944180749E+02  0.24145387336E+03 -0.13290021075E+03  0.31619029736E+03  0.15294330000E+03 0.  0.
<mgrwt>
<rscale>  0 0.56125894E+03</rscale>
<asrwt>0</asrwt>
<pdfrwt beam="1">  1        2 0.11003692E+00 0.70194899E+03</pdfrwt>
<pdfrwt beam="2">  1       -2 0.64935737E-01 0.70194899E+03</pdfrwt>
<totfact> 0.88564614E+01</totfact>
</mgrwt>
</event>
<event>
 4    5  0.1905771E-007  0.6895475E+03  0.7818608E-02  0.1004368E+00
         -2   -1    0    0    0  501 -0.00000000000E+00  0.00000000000E+00  0.94861531389E+02  0.94861531423E+02  0.25500000000E-02 0.  1.
          2   -1    0    0  501    0  0.00000000000E+00 -0.00000000000E+00 -0.24908906097E+04  0.24908906097E+04  0.25500000000E-02 0. -1.
    8880023    1    1    2    0    0  0.19119547755E+03  0.71483239526E+02 -0.19917739967E+04  0.21077569653E+04  0.65864270000E+03 0.  0.
    8880022    1    1    2    0    0 -0.19119547755E+03 -0.71483239526E+02 -0.40425508152E+03  0.47799517583E+03  0.15294330000E+03 0.  0.
<mgrwt>
<rscale>  0 0.53775577E+03</rscale>
<asrwt>0</asrwt>
<pdfrwt beam="1">  1        2 0.38321389E+00 0.68954751E+03</pdfrwt>
<pdfrwt beam="2">  1       -2 0.14594084E-01 0.68954751E+03</pdfrwt>
<totfact> 0.13511467E+02</totfact>
</mgrwt>
</event>
<event>
 4    5  0.1905771E-007  0.8101322E+03  0.7818608E-02  0.9689302E-01
          2   -1    0    0  501    0  0.00000000000E+00  0.00000000000E+00  0.32196501955E+04  0.32196501955E+04  0.25500000000E-02 0. -1.
         -2   -1    0    0    0  501 -0.00000000000E+00 -0.00000000000E+00 -0.15454283320E+03  0.15454283322E+03  0.25500000000E-02 0.  1.
    8880023    1    1    2    0    0  0.31526074818E+03 -0.35087686900E+03  0.24705543889E+04  0.25999909829E+04  0.65864270000E+03 0.  0.
    8880022    1    1    2    0    0 -0.31526074818E+03  0.35087686900E+03  0.59455297344E+03  0.77420204584E+03  0.15294330000E+03 0.  0.
<mgrwt>
<rscale>  0 0.71657350E+03</rscale>
<asrwt>0</asrwt>
<pdfrwt beam="1">  1        2 0.49533079E+00 0.81013216E+03</pdfrwt>
<pdfrwt beam="2">  1       -2 0.23775821E-01 0.81013216E+03</pdfrwt>
<totfact> 0.20860193E+01</totfact>
</mgrwt>
</event>
<event>
 4    5  0.1905771E-007  0.8771501E+03  0.7818608E-02  0.9563756E-01
          2   -1    0    0  501    0  0.00000000000E+00  0.00000000000E+00  0.17483857097E+04  0.17483857097E+04  0.25500000000E-02 0. -1.
         -2   -1    0    0    0  501 -0.00000000000E+00 -0.00000000000E+00 -0.52144005203E+03  0.52144005203E+03  0.25500000000E-02 0.  1.
    8880023    1    1    2    0    0  0.12959422203E+02  0.57914955762E+03  0.13947371312E+04  0.16476298213E+04  0.65864270000E+03 0.  0.
    8880022    1    1    2    0    0 -0.12959422203E+02 -0.57914955762E+03 -0.16779147349E+03  0.62219594044E+03  0.15294330000E+03 0.  0.
<mgrwt>
<rscale>  0 0.79742215E+03</rscale>
<asrwt>0</asrwt>
<pdfrwt beam="1">  1        2 0.26898242E+00 0.87715014E+03</pdfrwt>
<pdfrwt beam="2">  1       -2 0.80221545E-01 0.87715014E+03</pdfrwt>
<totfact> 0.12823958E+01</totfact>
</mgrwt>
</event>
<event>
 4    5  0.1905771E-007  0.6645424E+03  0.7818608E-02  0.1019921E+00
          2   -1    0    0  501    0  0.00000000000E+00  0.00000000000E+00  0.41429235794E+04  0.41429235794E+04  0.25500000000E-02 0. -1.
         -2   -1    0    0    0  501 -0.00000000000E+00 -0.00000000000E+00 -0.12402323603E+03  0.12402323606E+03  0.25500000000E-02 0.  1.
    8880023    1    1    2    0    0 -0.49469489050E+02 -0.73205882480E+02  0.40352114691E+04  0.40895657640E+04  0.65864270000E+03 0. -1.
    8880022    1    1    2    0    0  0.49469489050E+02  0.73205882480E+02 -0.16311125725E+02  0.17738105145E+03  0.15294330000E+03 0.  0.
<mgrwt>
<rscale>  0 0.47715317E+03</rscale>
<asrwt>0</asrwt>
<pdfrwt beam="1">  1        2 0.63737281E+00 0.66454235E+03</pdfrwt>
<pdfrwt beam="2">  1       -2 0.19080499E-01 0.66454235E+03</pdfrwt>
<totfact> 0.68296473E+00</totfact>
</mgrwt>
</event>
<event>
 4    5  0.1905771E-007  0.1370715E+04  0.7818608E-02  0.9006779E-01
          2   -1    0    0  501    0  0.00000000000E+00  0.00000000000E+00  0.35284248328E+04  0.35284248328E+04  0.25500000000E-02 0. -1.
         -2   -1    0    0    0  501 -0.00000000000E+00 -0.00000000000E+00 -0.12664497816E+04  0.12664497816E+04  0.25500000000E-02 0.  1.
    8880023    1    1    2    0    0  0.68112120384E+03  0.99051609561E+03  0.30537969222E+04  0.33473174451E+04  0.65864270000E+03 0.  0.
    8880022    1    1    2    0    0 -0.68112120384E+03 -0.99051609561E+03 -0.79182187094E+03  0.14475571693E+04  0.15294330000E+03 0.  0.
<mgrwt>
<rscale>  0 0.13291295E+04</rscale>
<asrwt>0</asrwt>
<pdfrwt beam="1">  1        2 0.54283459E+00 0.13707146E+04</pdfrwt>
<pdfrwt beam="2">  1       -2 0.19483843E+00 0.13707146E+04</pdfrwt>
<totfact> 0.10795890E-01</totfact>
</mgrwt>
</event>
<event>
 4    5  0.1905771E-007  0.1370080E+04  0.7818608E-02  0.9007287E-01
         -2   -1    0    0    0  501 -0.00000000000E+00  0.00000000000E+00  0.65628883712E+03  0.65628883712E+03  0.25500000000E-02 0.  1.
          2   -1    0    0  501    0  0.00000000000E+00 -0.00000000000E+00 -0.31355938237E+04  0.31355938237E+04  0.25500000000E-02 0. -1.
    8880023    1    1    2    0    0 -0.22434144663E+03 -0.11802458303E+04 -0.21279554641E+04  0.25308721754E+04  0.65864270000E+03 0.  0.
    8880022    1    1    2    0    0  0.22434144663E+03  0.11802458303E+04 -0.35134952246E+03  0.12610104855E+04  0.15294330000E+03 0.  0.
<mgrwt>
<rscale>  0 0.13284713E+04</rscale>
<asrwt>0</asrwt>
<pdfrwt beam="1">  1        2 0.48239904E+00 0.13700801E+04</pdfrwt>
<pdfrwt beam="2">  1       -2 0.10096751E+00 0.13700801E+04</pdfrwt>
<totfact> 0.11200190E+00</totfact>
</mgrwt>
</event>
<event>
 4    5  0.1905771E-007  0.1146963E+04  0.7818608E-02  0.9210486E-01
         -2   -1    0    0    0  501 -0.00000000000E+00  0.00000000000E+00  0.97560046206E+03  0.97560046206E+03  0.25500000000E-02 0.  1.
          2   -1    0    0  501    0  0.00000000000E+00 -0.00000000000E+00 -0.40536053376E+04  0.40536053376E+04  0.25500000000E-02 0. -1.
    8880023    1    1    2    0    0 -0.71062211404E+03 -0.61378262191E+03 -0.37125172763E+04  0.38856540799E+04  0.65864270000E+03 0. -1.
    8880022    1    1    2    0    0  0.71062211404E+03  0.61378262191E+03  0.63451240076E+03  0.11435517197E+04  0.15294330000E+03 0.  0.
<mgrwt>
<rscale>  0 0.10945844E+04</rscale>
<asrwt>0</asrwt>
<pdfrwt beam="1">  1        2 0.62363158E+00 0.11469626E+04</pdfrwt>
<pdfrwt beam="2">  1       -2 0.15009238E+00 0.11469626E+04</pdfrwt>
<totfact> 0.94308238E-02</totfact>
</mgrwt>
</event>
<event>
 4    5  0.1905771E-007  0.1371871E+04  0.7818608E-02  0.9005854E-01
         -2   -1    0    0    0  501 -0.00000000000E+00  0.00000000000E+00  0.21149603597E+04  0.21149603598E+04  0.25500000000E-02 0.  1.
          2   -1    0    0  501    0  0.00000000000E+00 -0.00000000000E+00 -0.20195718688E+04  0.20195718688E+04  0.25500000000E-02 0. -1.
    8880023    1    1    2    0    0 -0.49412975029E+03 -0.10972948633E+04 -0.15630971111E+04  0.20797362843E+04  0.65864270000E+03 0.  0.
    8880022    1    1    2    0    0  0.49412975029E+03  0.10972948633E+04  0.16584856021E+04  0.20547959442E+04  0.15294330000E+03 0.  0.
<mgrwt>
<rscale>  0 0.13303293E+04</rscale>
<asrwt>0</asrwt>
<pdfrwt beam="1">  1        2 0.31070337E+00 0.13718711E+04</pdfrwt>
<pdfrwt beam="2">  1       -2 0.32537851E+00 0.13718711E+04</pdfrwt>
<totfact> 0.13795048E-01</totfact>
</mgrwt>
</event>
<event>
 4    5  0.1905771E-007  0.7293238E+03  0.7818608E-02  0.9892214E-01
          2   -1    0    0  501    0  0.00000000000E+00  0.00000000000E+00  0.73675416592E+03  0.73675416593E+03  0.25500000000E-02 0. -1.
         -2   -1    0    0    0  501 -0.00000000000E+00 -0.00000000000E+00 -0.39501264360E+03  0.39501264360E+03  0.25500000000E-02 0.  1.
    8880023    1    1    2    0    0  0.17392020456E+02  0.31273065312E+03  0.25451354770E+03  0.77245731015E+03  0.65864270000E+03 0.  0.
    8880022    1    1    2    0    0 -0.17392020456E+02 -0.31273065312E+03  0.87227974626E+02  0.35930949938E+03  0.15294330000E+03 0. -1.
<mgrwt>
<rscale>  0 0.60640098E+03</rscale>
<asrwt>0</asrwt>
<pdfrwt beam="1">  1        2 0.11334679E+00 0.72932376E+03</pdfrwt>
<pdfrwt beam="2">  1       -2 0.60771176E-01 0.72932376E+03</pdfrwt>
<totfact> 0.98034823E+01</totfact>
</mgrwt>
</event>
<event>
 4    5  0.2100325E-007  0.7772318E+03  0.7818608E-02  0.9762380E-01
          2   -1    0    0  501    0  0.00000000000E+00  0.00000000000E+00  0.28001553696E+04  0.28001553696E+04  0.25500000000E-02 0. -1.
         -2   -1    0    0    0  501 -0.00000000000E+00 -0.00000000000E+00 -0.92055603128E+03  0.92055603128E+03  0.25500000000E-02 0.  1.
    8880023    1    1    2    0    0  0.10216252308E+03 -0.39980236826E+03  0.26891820048E+04  0.27992479661E+04  0.65864270000E+03 0.  0.
    8880022    1    1    2    0    0 -0.10216252308E+03  0.39980236826E+03 -0.80958266645E+03  0.92146343477E+03  0.15294330000E+03 0.  0.
<mgrwt>
<rscale>  0 0.67421117E+03</rscale>
<asrwt>0</asrwt>
<pdfrwt beam="1">  1        2 0.43079313E+00 0.77723183E+03</pdfrwt>
<pdfrwt beam="2">  1       -2 0.14162401E+00 0.77723183E+03</pdfrwt>
<totfact> 0.85059069E-01</totfact>
</mgrwt>
</event>
<event>
 4    5  0.1905771E-007  0.8489173E+03  0.7818608E-02  0.9613590E-01
          2   -1    0    0  501    0  0.00000000000E+00  0.00000000000E+00  0.90109079519E+03  0.90109079519E+03  0.25500000000E-02 0. -1.
         -2   -1    0    0    0  501 -0.00000000000E+00 -0.00000000000E+00 -0.80774690658E+03  0.80774690659E+03  0.25500000000E-02 0.  1.
    8880023    1    1    2    0    0 -0.15057654702E+03  0.51398163452E+03  0.53026796583E+03  0.10009219445E+04  0.65864270000E+03 0.  0.
    8880022    1    1    2    0    0  0.15057654702E+03 -0.51398163452E+03 -0.43692407723E+03  0.70791575728E+03  0.15294330000E+03 0.  0.
<mgrwt>
<rscale>  0 0.76403215E+03</rscale>
<asrwt>0</asrwt>
<pdfrwt beam="1">  1        2 0.13862935E+00 0.84891732E+03</pdfrwt>
<pdfrwt beam="2">  1       -2 0.12426876E+00 0.84891732E+03</pdfrwt>
<totfact> 0.14325645E+01</totfact>
</mgrwt>
</event>
<event>
 4    5  0.1905771E-007  0.6589965E+03  0.7818608E-02  0.1025209E+00
          2   -1    0    0  501    0  0.00000000000E+00  0.00000000000E+00  0.19278250847E+04  0.19278250847E+04  0.25500000000E-02 0. -1.
         -2   -1    0    0    0  501 -0.00000000000E+00 -0.00000000000E+00 -0.34712684970E+03  0.34712684971E+03  0.25500000000E-02 0.  1.
    8880023    1    1    2    0    0 -0.19053752497E+02  0.10154990540E+02  0.18503486420E+04  0.19641961390E+04  0.65864270000E+03 0. -1.
    8880022    1    1    2    0    0  0.19053752497E+02 -0.10154990540E+02 -0.26965040704E+03  0.31075579536E+03  0.15294330000E+03 0.  0.
<mgrwt>
<rscale>  0 0.45852833E+03</rscale>
<asrwt>0</asrwt>
<pdfrwt beam="1">  1        2 0.29658848E+00 0.65899649E+03</pdfrwt>
<pdfrwt beam="2">  1       -2 0.53404130E-01 0.65899649E+03</pdfrwt>
<totfact> 0.25310789E+01</totfact>
</mgrwt>
</event>
<event>
 4    5  0.1905771E-007  0.1606296E+04  0.7818608E-02  0.8838008E-01
         -2   -1    0    0    0  501 -0.00000000000E+00  0.00000000000E+00  0.96404051839E+03  0.96404051840E+03  0.25500000000E-02 0.  1.
          2   -1    0    0  501    0  0.00000000000E+00 -0.00000000000E+00 -0.27246159094E+04  0.27246159094E+04  0.25500000000E-02 0. -1.
    8880023    1    1    2    0    0  0.11477149729E+04  0.91056494072E+03 -0.14900839444E+04  0.21910131305E+04  0.65864270000E+03 0.  0.
    8880022    1    1    2    0    0 -0.11477149729E+04 -0.91056494072E+03 -0.27049144659E+03  0.14976432973E+04  0.15294330000E+03 0.  0.
<mgrwt>
<rscale>  0 0.15718858E+04</rscale>
<asrwt>0</asrwt>
<pdfrwt beam="1">  1        2 0.41917168E+00 0.16062965E+04</pdfrwt>
<pdfrwt beam="2">  1       -2 0.14831393E+00 0.16062965E+04</pdfrwt>
<totfact> 0.74171267E-01</totfact>
</mgrwt>
</event>
<event>
 4    5  0.1905771E-007  0.7326411E+03  0.7818608E-02  0.9881926E-01
          2   -1    0    0  501    0  0.00000000000E+00  0.00000000000E+00  0.17442737133E+04  0.17442737133E+04  0.25500000000E-02 0. -1.
         -2   -1    0    0    0  501 -0.00000000000E+00 -0.00000000000E+00 -0.32676090903E+03  0.32676090904E+03  0.25500000000E-02 0.  1.
    8880023    1    1    2    0    0  0.73887674125E+02  0.31223924546E+03  0.15315287302E+04  0.16977465042E+04  0.65864270000E+03 0. -1.
    8880022    1    1    2    0    0 -0.73887674125E+02 -0.31223924546E+03 -0.11401592591E+03  0.37328811817E+03  0.15294330000E+03 0.  0.
<mgrwt>
<rscale>  0 0.61145280E+03</rscale>
<asrwt>0</asrwt>
<pdfrwt beam="1">  1        2 0.26834980E+00 0.73264107E+03</pdfrwt>
<pdfrwt beam="2">  1       -2 0.50270909E-01 0.73264107E+03</pdfrwt>
<totfact> 0.35690366E+01</totfact>
</mgrwt>
</event>
