<event>
 4    2  0.3992997E+000  0.1894716E+03  0.7546771E-02  0.1158939E+00
         21   -1    0    0  503  502  0.00000000000E+00  0.00000000000E+00  0.13002580616E+04  0.13002580616E+04  0.00000000000E+00 0. -1.
         21   -1    0    0  501  503 -0.00000000000E+00 -0.00000000000E+00 -0.36523818022E+02  0.36523818022E+02  0.00000000000E+00 0. -1.
          6    1    1    2  501    0 -0.25174636006E+01  0.77227937980E+02  0.30166017080E+03  0.35622794763E+03  0.17300000000E+03 0. -1.
         -6    1    1    2    0  502  0.25174636006E+01 -0.77227937980E+02  0.96207407276E+03  0.98055393197E+03  0.17300000000E+03 0. -1.
<mgrwt>
<rscale>  2 0.18947161E+03</rscale>
<asrwt>0</asrwt>
<pdfrwt beam="1">  1       21 0.20003967E+00 0.18947161E+03</pdfrwt>
<pdfrwt beam="2">  1       21 0.56190499E-02 0.18947161E+03</pdfrwt>
<totfact> 0.29664922E+04</totfact>
</mgrwt>
</event>
<event>
 4    2  0.3992997E+000  0.2332717E+03  0.7546771E-02  0.1124358E+00
         21   -1    0    0  501  502  0.00000000000E+00  0.00000000000E+00  0.82633608171E+03  0.82633608171E+03  0.00000000000E+00 0. -1.
         21   -1    0    0  502  503 -0.00000000000E+00 -0.00000000000E+00 -0.15846261927E+03  0.15846261927E+03  0.00000000000E+00 0. -1.
          6    1    1    2  501    0  0.28332756535E+02  0.15389584081E+03 -0.42493975204E+02  0.23711054983E+03  0.17300000000E+03 0. -1.
         -6    1    1    2    0  503 -0.28332756535E+02 -0.15389584081E+03  0.71036743765E+03  0.74768815116E+03  0.17300000000E+03 0. -1.
<mgrwt>
<rscale>  2 0.23327168E+03</rscale>
<asrwt>0</asrwt>
<pdfrwt beam="1">  1       21 0.12712863E+00 0.23327168E+03</pdfrwt>
<pdfrwt beam="2">  1       21 0.24378865E-01 0.23327168E+03</pdfrwt>
<totfact> 0.70554033E+03</totfact>
</mgrwt>
</event>
<event>
 4    2  0.3992997E+000  0.1762469E+03  0.7546771E-02  0.1171486E+00
         21   -1    0    0  503  502  0.00000000000E+00  0.00000000000E+00  0.47262737562E+03  0.47262737562E+03  0.00000000000E+00 0.  1.
         21   -1    0    0  501  503 -0.00000000000E+00 -0.00000000000E+00 -0.10011254352E+03  0.10011254352E+03  0.00000000000E+00 0.  1.
          6    1    1    2  501    0 -0.32984242454E+02  0.67839388936E+01  0.18419596611E+02  0.17720683852E+03  0.17300000000E+03 0.  1.
         -6    1    1    2    0  502  0.32984242454E+02 -0.67839388936E+01  0.35409523549E+03  0.39553308063E+03  0.17300000000E+03 0.  1.
<mgrwt>
<rscale>  2 0.17624693E+03</rscale>
<asrwt>0</asrwt>
<pdfrwt beam="1">  1       21 0.72711903E-01 0.17624693E+03</pdfrwt>
<pdfrwt beam="2">  1       21 0.15401930E-01 0.17624693E+03</pdfrwt>
<totfact> 0.64152012E+04</totfact>
</mgrwt>
</event>
<event>
 4    2  0.3992997E+000  0.2114979E+03  0.7546771E-02  0.1140385E+00
         21   -1    0    0  501  502  0.00000000000E+00  0.00000000000E+00  0.22797501180E+03  0.22797501180E+03  0.00000000000E+00 0.  1.
         21   -1    0    0  502  503 -0.00000000000E+00 -0.00000000000E+00 -0.19635056377E+03  0.19635056377E+03  0.00000000000E+00 0.  1.
          6    1    1    2  501    0 -0.10512327244E+03  0.61249176906E+02  0.21454461241E+02  0.21258329659E+03  0.17300000000E+03 0.  1.
         -6    1    1    2    0  503  0.10512327244E+03 -0.61249176906E+02  0.10169986788E+02  0.21174227899E+03  0.17300000000E+03 0.  1.
<mgrwt>
<rscale>  2 0.21149791E+03</rscale>
<asrwt>0</asrwt>
<pdfrwt beam="1">  1       21 0.35073079E-01 0.21149791E+03</pdfrwt>
<pdfrwt beam="2">  1       21 0.30207779E-01 0.21149791E+03</pdfrwt>
<totfact> 0.81742041E+04</totfact>
</mgrwt>
</event>
<event>
 4    2  0.3992997E+000  0.2195468E+03  0.7546771E-02  0.1134221E+00
         21   -1    0    0  501  502  0.00000000000E+00  0.00000000000E+00  0.33159620141E+03  0.33159620141E+03  0.00000000000E+00 0. -1.
         21   -1    0    0  502  503 -0.00000000000E+00 -0.00000000000E+00 -0.16834142460E+03  0.16834142460E+03  0.00000000000E+00 0. -1.
          6    1    1    2  501    0 -0.13359672056E+03  0.20584815247E+02  0.17398633229E+03  0.28012865292E+03  0.17300000000E+03 0. -1.
         -6    1    1    2    0  503  0.13359672056E+03 -0.20584815247E+02 -0.10731555479E+02  0.21980897308E+03  0.17300000000E+03 0. -1.
<mgrwt>
<rscale>  2 0.21954685E+03</rscale>
<asrwt>0</asrwt>
<pdfrwt beam="1">  1       21 0.51014800E-01 0.21954685E+03</pdfrwt>
<pdfrwt beam="2">  1       21 0.25898681E-01 0.21954685E+03</pdfrwt>
<totfact> 0.51075750E+04</totfact>
</mgrwt>
</event>
<event>
 4    2  0.3992997E+000  0.1992408E+03  0.7546771E-02  0.1150381E+00
         21   -1    0    0  503  502  0.00000000000E+00  0.00000000000E+00  0.80555934446E+02  0.80555934446E+02  0.00000000000E+00 0.  1.
         21   -1    0    0  501  503 -0.00000000000E+00 -0.00000000000E+00 -0.50347826199E+03  0.50347826199E+03  0.00000000000E+00 0.  1.
          6    1    1    2  501    0  0.26663175660E+02 -0.95168033729E+02 -0.16890701505E+03  0.26120195121E+03  0.17300000000E+03 0.  1.
         -6    1    1    2    0  502 -0.26663175660E+02  0.95168033729E+02 -0.25401531250E+03  0.32283224523E+03  0.17300000000E+03 0.  1.
<mgrwt>
<rscale>  2 0.19924076E+03</rscale>
<asrwt>0</asrwt>
<pdfrwt beam="1">  1       21 0.12393221E-01 0.19924076E+03</pdfrwt>
<pdfrwt beam="2">  1       21 0.77458192E-01 0.19924076E+03</pdfrwt>
<totfact> 0.81691017E+04</totfact>
</mgrwt>
</event>
<event>
 4    2  0.3992997E+000  0.2345347E+03  0.7546771E-02  0.1123488E+00
         21   -1    0    0  503  502  0.00000000000E+00  0.00000000000E+00  0.10919421447E+04  0.10919421447E+04  0.00000000000E+00 0. -1.
         21   -1    0    0  501  503 -0.00000000000E+00 -0.00000000000E+00 -0.50532202233E+02  0.50532202233E+02  0.00000000000E+00 0.  1.
          6    1    1    2  501    0 -0.14138257030E+03  0.71333666904E+02  0.55257192328E+03  0.60028514359E+03  0.17300000000E+03 0. -1.
         -6    1    1    2    0  502  0.14138257030E+03 -0.71333666904E+02  0.48883801918E+03  0.54218920334E+03  0.17300000000E+03 0.  1.
<mgrwt>
<rscale>  2 0.23453470E+03</rscale>
<asrwt>0</asrwt>
<pdfrwt beam="1">  1       21 0.16799108E+00 0.23453470E+03</pdfrwt>
<pdfrwt beam="2">  1       21 0.77741858E-02 0.23453470E+03</pdfrwt>
<totfact> 0.27085685E+04</totfact>
</mgrwt>
</event>
<event>
 4    2  0.3992997E+000  0.2387563E+03  0.7546771E-02  0.1120624E+00
         21   -1    0    0  503  502  0.00000000000E+00  0.00000000000E+00  0.14372631524E+03  0.14372631524E+03  0.00000000000E+00 0.  1.
         21   -1    0    0  501  503 -0.00000000000E+00 -0.00000000000E+00 -0.97062165687E+03  0.97062165687E+03  0.00000000000E+00 0.  1.
          6    1    1    2  501    0 -0.30656975359E+02 -0.16166552765E+03 -0.84191999917E+03  0.87511935070E+03  0.17300000000E+03 0.  1.
         -6    1    1    2    0  502  0.30656975359E+02  0.16166552765E+03  0.15024657541E+02  0.23922862141E+03  0.17300000000E+03 0.  1.
<mgrwt>
<rscale>  2 0.23875635E+03</rscale>
<asrwt>0</asrwt>
<pdfrwt beam="1">  1       21 0.22111741E-01 0.23875635E+03</pdfrwt>
<pdfrwt beam="2">  1       21 0.14932641E+00 0.23875635E+03</pdfrwt>
<totfact> 0.55826412E+03</totfact>
</mgrwt>
</event>
<event>
 4    2  0.3992997E+000  0.4016698E+03  0.7546771E-02  0.1043203E+00
         21   -1    0    0  501  502  0.00000000000E+00  0.00000000000E+00  0.29261522877E+03  0.29261522877E+03  0.00000000000E+00 0. -1.
         21   -1    0    0  502  503 -0.00000000000E+00 -0.00000000000E+00 -0.10541295936E+04  0.10541295936E+04  0.00000000000E+00 0.  1.
          6    1    1    2  501    0 -0.28878268701E+03 -0.21912147556E+03  0.84281822728E+02  0.41041696725E+03  0.17300000000E+03 0. -1.
         -6    1    1    2    0  503  0.28878268701E+03  0.21912147556E+03 -0.84579618756E+03  0.93632785512E+03  0.17300000000E+03 0.  1.
<mgrwt>
<rscale>  2 0.40166984E+03</rscale>
<asrwt>0</asrwt>
<pdfrwt beam="1">  1       21 0.45017728E-01 0.40166984E+03</pdfrwt>
<pdfrwt beam="2">  1       21 0.16217378E+00 0.40166984E+03</pdfrwt>
<totfact> 0.98935243E+02</totfact>
</mgrwt>
</event>
<event>
 4    2  0.3992997E+000  0.3309930E+03  0.7546771E-02  0.1070698E+00
         21   -1    0    0  501  502  0.00000000000E+00  0.00000000000E+00  0.13455819196E+03  0.13455819196E+03  0.00000000000E+00 0. -1.
         21   -1    0    0  502  503 -0.00000000000E+00 -0.00000000000E+00 -0.13993975679E+04  0.13993975679E+04  0.00000000000E+00 0. -1.
          6    1    1    2  501    0  0.27709998032E+03  0.53319687820E+02 -0.13643759530E+03  0.35801062221E+03  0.17300000000E+03 0. -1.
         -6    1    1    2    0  503 -0.27709998032E+03 -0.53319687820E+02 -0.11284017806E+04  0.11759451376E+04  0.17300000000E+03 0. -1.
<mgrwt>
<rscale>  2 0.33099303E+03</rscale>
<asrwt>0</asrwt>
<pdfrwt beam="1">  1       21 0.20701260E-01 0.33099303E+03</pdfrwt>
<pdfrwt beam="2">  1       21 0.21529193E+00 0.33099303E+03</pdfrwt>
<totfact> 0.20822344E+03</totfact>
</mgrwt>
</event>
<event>
 4    2  0.3992997E+000  0.1858741E+03  0.7546771E-02  0.1162236E+00
         21   -1    0    0  501  502  0.00000000000E+00  0.00000000000E+00  0.43885750501E+02  0.43885750501E+02  0.00000000000E+00 0.  1.
         21   -1    0    0  502  503 -0.00000000000E+00 -0.00000000000E+00 -0.16371597051E+04  0.16371597051E+04  0.00000000000E+00 0.  1.
          6    1    1    2  501    0 -0.57946195087E+02  0.35530346448E+02 -0.19103164299E+03  0.26653753144E+03  0.17300000000E+03 0.  1.
         -6    1    1    2    0  503  0.57946195087E+02 -0.35530346448E+02 -0.14022423116E+04  0.14145079241E+04  0.17300000000E+03 0.  1.
<mgrwt>
<rscale>  2 0.18587406E+03</rscale>
<asrwt>0</asrwt>
<pdfrwt beam="1">  1       21 0.67516543E-02 0.18587406E+03</pdfrwt>
<pdfrwt beam="2">  1       21 0.25187071E+00 0.18587406E+03</pdfrwt>
<totfact> 0.10506099E+04</totfact>
</mgrwt>
</event>
<event>
 4    2  0.3992997E+000  0.2980603E+03  0.7546771E-02  0.1086214E+00
         21   -1    0    0  501  502  0.00000000000E+00  0.00000000000E+00  0.43168857607E+03  0.43168857607E+03  0.00000000000E+00 0.  1.
         21   -1    0    0  502  503 -0.00000000000E+00 -0.00000000000E+00 -0.20639844038E+03  0.20639844038E+03  0.00000000000E+00 0.  1.
          6    1    1    2  501    0 -0.27710838567E+02  0.24112867424E+03  0.95413219048E+02  0.31295943904E+03  0.17300000000E+03 0.  1.
         -6    1    1    2    0  503  0.27710838567E+02 -0.24112867424E+03  0.12987691664E+03  0.32512757741E+03  0.17300000000E+03 0.  1.
<mgrwt>
<rscale>  2 0.29806028E+03</rscale>
<asrwt>0</asrwt>
<pdfrwt beam="1">  1       21 0.66413627E-01 0.29806028E+03</pdfrwt>
<pdfrwt beam="2">  1       21 0.31753606E-01 0.29806028E+03</pdfrwt>
<totfact> 0.18806453E+04</totfact>
</mgrwt>
</event>
<event>
 4    2  0.3992997E+000  0.2479624E+03  0.7546771E-02  0.1114599E+00
         21   -1    0    0  501  502  0.00000000000E+00  0.00000000000E+00  0.58992045294E+03  0.58992045294E+03  0.00000000000E+00 0. -1.
         21   -1    0    0  502  503 -0.00000000000E+00 -0.00000000000E+00 -0.12296865624E+03  0.12296865624E+03  0.00000000000E+00 0. -1.
          6    1    1    2  501    0  0.12663414644E+03 -0.12457986276E+03  0.37263270253E+03  0.44759410211E+03  0.17300000000E+03 0. -1.
         -6    1    1    2    0  503 -0.12663414644E+03  0.12457986276E+03  0.94319094167E+02  0.26529500707E+03  0.17300000000E+03 0. -1.
<mgrwt>
<rscale>  2 0.24796239E+03</rscale>
<asrwt>0</asrwt>
<pdfrwt beam="1">  1       21 0.90756991E-01 0.24796239E+03</pdfrwt>
<pdfrwt beam="2">  1       21 0.18918255E-01 0.24796239E+03</pdfrwt>
<totfact> 0.25613037E+04</totfact>
</mgrwt>
</event>
<event>
 4    2  0.3992997E+000  0.2279076E+03  0.7546771E-02  0.1128121E+00
         21   -1    0    0  503  502  0.00000000000E+00  0.00000000000E+00  0.64678899117E+02  0.64678899117E+02  0.00000000000E+00 0.  1.
         21   -1    0    0  501  503 -0.00000000000E+00 -0.00000000000E+00 -0.86682560536E+03  0.86682560536E+03  0.00000000000E+00 0.  1.
          6    1    1    2  501    0  0.14638513797E+03 -0.24171628968E+02 -0.52738346924E+03  0.57452171403E+03  0.17300000000E+03 0.  1.
         -6    1    1    2    0  502 -0.14638513797E+03  0.24171628968E+02 -0.27476323700E+03  0.35698279044E+03  0.17300000000E+03 0.  1.
<mgrwt>
<rscale>  2 0.22790760E+03</rscale>
<asrwt>0</asrwt>
<pdfrwt beam="1">  1       21 0.99506006E-02 0.22790760E+03</pdfrwt>
<pdfrwt beam="2">  1       21 0.13335778E+00 0.22790760E+03</pdfrwt>
<totfact> 0.32513333E+04</totfact>
</mgrwt>
</event>
<event>
 4    2  0.3992997E+000  0.2246478E+03  0.7546771E-02  0.1130465E+00
         21   -1    0    0  501  502  0.00000000000E+00  0.00000000000E+00  0.43276346821E+03  0.43276346821E+03  0.00000000000E+00 0. -1.
         21   -1    0    0  502  503 -0.00000000000E+00 -0.00000000000E+00 -0.15695969909E+03  0.15695969909E+03  0.00000000000E+00 0.  1.
          6    1    1    2  501    0  0.14161664726E+03 -0.21962173327E+02  0.28739410723E+03  0.36477662303E+03  0.17300000000E+03 0. -1.
         -6    1    1    2    0  503 -0.14161664726E+03  0.21962173327E+02 -0.11590338116E+02  0.22494654427E+03  0.17300000000E+03 0.  1.
<mgrwt>
<rscale>  2 0.22464775E+03</rscale>
<asrwt>0</asrwt>
<pdfrwt beam="1">  1       21 0.66578995E-01 0.22464775E+03</pdfrwt>
<pdfrwt beam="2">  1       21 0.24147646E-01 0.22464775E+03</pdfrwt>
<totfact> 0.32914933E+04</totfact>
</mgrwt>
</event>
<event>
 4    2  0.3992997E+000  0.1852741E+03  0.7546771E-02  0.1162794E+00
         21   -1    0    0  503  502  0.00000000000E+00  0.00000000000E+00  0.43792052357E+03  0.43792052357E+03  0.00000000000E+00 0. -1.
         21   -1    0    0  501  503 -0.00000000000E+00 -0.00000000000E+00 -0.20420966150E+03  0.20420966150E+03  0.00000000000E+00 0. -1.
          6    1    1    2  501    0  0.61572593941E+02  0.24623352862E+02 -0.13516599447E+03  0.22933891927E+03  0.17300000000E+03 0. -1.
         -6    1    1    2    0  502 -0.61572593941E+02 -0.24623352862E+02  0.36887685654E+03  0.41279126580E+03  0.17300000000E+03 0. -1.
<mgrwt>
<rscale>  2 0.18527410E+03</rscale>
<asrwt>0</asrwt>
<pdfrwt beam="1">  1       21 0.67372388E-01 0.18527410E+03</pdfrwt>
<pdfrwt beam="2">  1       21 0.31416871E-01 0.18527410E+03</pdfrwt>
<totfact> 0.19711434E+04</totfact>
</mgrwt>
</event>
<event>
 4    2  0.3992997E+000  0.2051651E+03  0.7546771E-02  0.1145453E+00
         21   -1    0    0  501  502  0.00000000000E+00  0.00000000000E+00  0.17956548311E+03  0.17956548311E+03  0.00000000000E+00 0.  1.
         21   -1    0    0  502  503 -0.00000000000E+00 -0.00000000000E+00 -0.23540687878E+03  0.23540687878E+03  0.00000000000E+00 0.  1.
          6    1    1    2  501    0  0.62726034394E+02 -0.90714700832E+02 -0.41393806386E+02  0.20929921057E+03  0.17300000000E+03 0. -1.
         -6    1    1    2    0  503 -0.62726034394E+02  0.90714700832E+02 -0.14447589284E+02  0.20567315132E+03  0.17300000000E+03 0. -1.
<mgrwt>
<rscale>  2 0.20516509E+03</rscale>
<asrwt>0</asrwt>
<pdfrwt beam="1">  1       21 0.27625459E-01 0.20516509E+03</pdfrwt>
<pdfrwt beam="2">  1       21 0.36216443E-01 0.20516509E+03</pdfrwt>
<totfact> 0.91465908E+04</totfact>
</mgrwt>
</event>
<event>
 4    2  0.3992997E+000  0.2034927E+03  0.7546771E-02  0.1146825E+00
         21   -1    0    0  503  502  0.00000000000E+00  0.00000000000E+00  0.12924621132E+03  0.12924621132E+03  0.00000000000E+00 0.  1.
         21   -1    0    0  501  503 -0.00000000000E+00 -0.00000000000E+00 -0.32546153764E+03  0.32546153764E+03  0.00000000000E+00 0.  1.
          6    1    1    2  501    0 -0.44704931027E+02 -0.97374355387E+02 -0.69729227139E+02  0.21510802185E+03  0.17300000000E+03 0.  1.
         -6    1    1    2    0  502  0.44704931027E+02  0.97374355387E+02 -0.12648609919E+03  0.23959972711E+03  0.17300000000E+03 0.  1.
<mgrwt>
<rscale>  2 0.20349274E+03</rscale>
<asrwt>0</asrwt>
<pdfrwt beam="1">  1       21 0.19884033E-01 0.20349274E+03</pdfrwt>
<pdfrwt beam="2">  1       21 0.50071005E-01 0.20349274E+03</pdfrwt>
<totfact> 0.88250833E+04</totfact>
</mgrwt>
</event>
<event>
 4    2  0.3992997E+000  0.1952662E+03  0.7546771E-02  0.1153796E+00
         21   -1    0    0  503  502  0.00000000000E+00  0.00000000000E+00  0.45174416607E+03  0.45174416607E+03  0.00000000000E+00 0. -1.
         21   -1    0    0  501  503 -0.00000000000E+00 -0.00000000000E+00 -0.85188219840E+02  0.85188219840E+02  0.00000000000E+00 0. -1.
          6    1    1    2  501    0  0.70774646224E+02  0.56487402152E+02  0.15751458509E+03  0.25087790191E+03  0.17300000000E+03 0.  1.
         -6    1    1    2    0  502 -0.70774646224E+02 -0.56487402152E+02  0.20904136114E+03  0.28605448400E+03  0.17300000000E+03 0.  1.
<mgrwt>
<rscale>  2 0.19526617E+03</rscale>
<asrwt>0</asrwt>
<pdfrwt beam="1">  1       21 0.69499101E-01 0.19526617E+03</pdfrwt>
<pdfrwt beam="2">  1       21 0.13105880E-01 0.19526617E+03</pdfrwt>
<totfact> 0.94200134E+04</totfact>
</mgrwt>
</event>
<event>
 4    2  0.3992997E+000  0.3007145E+03  0.7546771E-02  0.1084884E+00
         21   -1    0    0  501  502  0.00000000000E+00  0.00000000000E+00  0.57356301581E+03  0.57356301581E+03  0.00000000000E+00 0. -1.
         21   -1    0    0  502  503 -0.00000000000E+00 -0.00000000000E+00 -0.33168401809E+03  0.33168401809E+03  0.00000000000E+00 0.  1.
          6    1    1    2  501    0 -0.12405854041E+03 -0.21239047613E+03  0.44879058731E+03  0.54022423775E+03  0.17300000000E+03 0. -1.
         -6    1    1    2    0  503  0.12405854041E+03  0.21239047613E+03 -0.20691158959E+03  0.36502279614E+03  0.17300000000E+03 0.  1.
<mgrwt>
<rscale>  2 0.30071454E+03</rscale>
<asrwt>0</asrwt>
<pdfrwt beam="1">  1       21 0.88240464E-01 0.30071454E+03</pdfrwt>
<pdfrwt beam="2">  1       21 0.51028311E-01 0.30071454E+03</pdfrwt>
<totfact> 0.37367408E+03</totfact>
</mgrwt>
</event>
<event>
 4    2  0.3992997E+000  0.1807361E+03  0.7546771E-02  0.1167093E+00
         21   -1    0    0  503  502  0.00000000000E+00  0.00000000000E+00  0.34840727161E+03  0.34840727161E+03  0.00000000000E+00 0. -1.
         21   -1    0    0  501  503 -0.00000000000E+00 -0.00000000000E+00 -0.16975802623E+03  0.16975802623E+03  0.00000000000E+00 0. -1.
          6    1    1    2  501    0  0.49802877770E+01 -0.52074162263E+02 -0.84029314481E+02  0.19931494508E+03  0.17300000000E+03 0. -1.
         -6    1    1    2    0  502 -0.49802877770E+01  0.52074162263E+02  0.26267855986E+03  0.31885035276E+03  0.17300000000E+03 0. -1.
<mgrwt>
<rscale>  2 0.18073606E+03</rscale>
<asrwt>0</asrwt>
<pdfrwt beam="1">  1       21 0.53601119E-01 0.18073606E+03</pdfrwt>
<pdfrwt beam="2">  1       21 0.26116619E-01 0.18073606E+03</pdfrwt>
<totfact> 0.46149619E+04</totfact>
</mgrwt>
</event>
<event>
 4    2  0.3992997E+000  0.1765935E+03  0.7546771E-02  0.1171141E+00
         21   -1    0    0  501  502  0.00000000000E+00  0.00000000000E+00  0.44972379967E+02  0.44972379967E+02  0.00000000000E+00 0. -1.
         21   -1    0    0  502  503 -0.00000000000E+00 -0.00000000000E+00 -0.70933027249E+03  0.70933027249E+03  0.00000000000E+00 0. -1.
          6    1    1    2  501    0  0.10913576287E+02  0.33721801610E+02 -0.38864310205E+03  0.42688256795E+03  0.17300000000E+03 0. -1.
         -6    1    1    2    0  503 -0.10913576287E+02 -0.33721801610E+02 -0.27571479048E+03  0.32742008451E+03  0.17300000000E+03 0. -1.
<mgrwt>
<rscale>  2 0.17659351E+03</rscale>
<asrwt>0</asrwt>
<pdfrwt beam="1">  1       21 0.69188285E-02 0.17659351E+03</pdfrwt>
<pdfrwt beam="2">  1       21 0.10912772E+00 0.17659351E+03</pdfrwt>
<totfact> 0.10345599E+05</totfact>
</mgrwt>
</event>
<event>
 4    2  0.3992997E+000  0.2080635E+03  0.7546771E-02  0.1143109E+00
         21   -1    0    0  503  502  0.00000000000E+00  0.00000000000E+00  0.11595616434E+03  0.11595616434E+03  0.00000000000E+00 0. -1.
         21   -1    0    0  501  503 -0.00000000000E+00 -0.00000000000E+00 -0.71385385338E+03  0.71385385338E+03  0.00000000000E+00 0. -1.
          6    1    1    2  501    0  0.85254897217E+02 -0.78057825821E+02 -0.58550847338E+03  0.62137798003E+03  0.17300000000E+03 0. -1.
         -6    1    1    2    0  502 -0.85254897217E+02  0.78057825821E+02 -0.12389215665E+02  0.20843203769E+03  0.17300000000E+03 0. -1.
<mgrwt>
<rscale>  2 0.20806350E+03</rscale>
<asrwt>0</asrwt>
<pdfrwt beam="1">  1       21 0.17839410E-01 0.20806350E+03</pdfrwt>
<pdfrwt beam="2">  1       21 0.10982367E+00 0.20806350E+03</pdfrwt>
<totfact> 0.18533317E+04</totfact>
</mgrwt>
</event>
<event>
 4    2  0.3992997E+000  0.2271910E+03  0.7546771E-02  0.1128633E+00
         21   -1    0    0  501  502  0.00000000000E+00  0.00000000000E+00  0.42712557920E+02  0.42712557920E+02  0.00000000000E+00 0. -1.
         21   -1    0    0  502  503 -0.00000000000E+00 -0.00000000000E+00 -0.15531607518E+04  0.15531607518E+04  0.00000000000E+00 0. -1.
          6    1    1    2  501    0 -0.12232553306E+03  0.81995105014E+02 -0.37930756791E+03  0.44214247066E+03  0.17300000000E+03 0. -1.
         -6    1    1    2    0  503  0.12232553306E+03 -0.81995105014E+02 -0.11311406260E+04  0.11537308391E+04  0.17300000000E+03 0. -1.
<mgrwt>
<rscale>  2 0.22719096E+03</rscale>
<asrwt>0</asrwt>
<pdfrwt beam="1">  1       21 0.65711625E-02 0.22719096E+03</pdfrwt>
<pdfrwt beam="2">  1       21 0.23894782E+00 0.22719096E+03</pdfrwt>
<totfact> 0.12661037E+04</totfact>
</mgrwt>
</event>
<event>
 4    2  0.3992997E+000  0.2011027E+03  0.7546771E-02  0.1148812E+00
         21   -1    0    0  503  502  0.00000000000E+00  0.00000000000E+00  0.15177735654E+03  0.15177735654E+03  0.00000000000E+00 0. -1.
         21   -1    0    0  501  503 -0.00000000000E+00 -0.00000000000E+00 -0.28328677430E+03  0.28328677430E+03  0.00000000000E+00 0.  1.
          6    1    1    2  501    0  0.57388109275E+02  0.84970110051E+02 -0.11877405309E+03  0.23355853737E+03  0.17300000000E+03 0.  1.
         -6    1    1    2    0  502 -0.57388109275E+02 -0.84970110051E+02 -0.12735364675E+02  0.20150559347E+03  0.17300000000E+03 0. -1.
<mgrwt>
<rscale>  2 0.20110275E+03</rscale>
<asrwt>0</asrwt>
<pdfrwt beam="1">  1       21 0.23350363E-01 0.20110275E+03</pdfrwt>
<pdfrwt beam="2">  1       21 0.43582580E-01 0.20110275E+03</pdfrwt>
<totfact> 0.86958593E+04</totfact>
</mgrwt>
</event>
<event>
 4    2  0.3992997E+000  0.2611090E+03  0.7546771E-02  0.1106479E+00
         21   -1    0    0  503  502  0.00000000000E+00  0.00000000000E+00  0.95976539500E+02  0.95976539500E+02  0.00000000000E+00 0.  1.
         21   -1    0    0  501  503 -0.00000000000E+00 -0.00000000000E+00 -0.71434987717E+03  0.71434987717E+03  0.00000000000E+00 0.  1.
          6    1    1    2  501    0 -0.13816663336E+02 -0.19508458821E+03 -0.33946647293E+03  0.42827022192E+03  0.17300000000E+03 0.  1.
         -6    1    1    2    0  502  0.13816663336E+02  0.19508458821E+03 -0.27890686474E+03  0.38205619475E+03  0.17300000000E+03 0.  1.
<mgrwt>
<rscale>  2 0.26110897E+03</rscale>
<asrwt>0</asrwt>
<pdfrwt beam="1">  1       21 0.14765621E-01 0.26110897E+03</pdfrwt>
<pdfrwt beam="2">  1       21 0.10989999E+00 0.26110897E+03</pdfrwt>
<totfact> 0.25476361E+04</totfact>
</mgrwt>
</event>
<event>
 4    2  0.3992997E+000  0.1785033E+03  0.7546771E-02  0.1169259E+00
         21   -1    0    0  501  502  0.00000000000E+00  0.00000000000E+00  0.38466768867E+03  0.38466768867E+03  0.00000000000E+00 0.  1.
         21   -1    0    0  502  503 -0.00000000000E+00 -0.00000000000E+00 -0.47999595904E+03  0.47999595904E+03  0.00000000000E+00 0.  1.
          6    1    1    2  501    0  0.13061563889E+02 -0.41997778227E+02  0.34559828118E+03  0.38897505033E+03  0.17300000000E+03 0.  1.
         -6    1    1    2    0  503 -0.13061563889E+02  0.41997778227E+02 -0.44092655155E+03  0.47568859739E+03  0.17300000000E+03 0.  1.
<mgrwt>
<rscale>  2 0.17850327E+03</rscale>
<asrwt>0</asrwt>
<pdfrwt beam="1">  1       21 0.59179645E-01 0.17850327E+03</pdfrwt>
<pdfrwt beam="2">  1       21 0.73845532E-01 0.17850327E+03</pdfrwt>
<totfact> 0.44434303E+03</totfact>
</mgrwt>
</event>
<event>
 4    2  0.3992997E+000  0.1962294E+03  0.7546771E-02  0.1152960E+00
         21   -1    0    0  501  502  0.00000000000E+00  0.00000000000E+00  0.26337813070E+02  0.26337813070E+02  0.00000000000E+00 0. -1.
         21   -1    0    0  502  503 -0.00000000000E+00 -0.00000000000E+00 -0.14698305027E+04  0.14698305027E+04  0.00000000000E+00 0. -1.
          6    1    1    2  501    0  0.43812200039E+02  0.81593298147E+02 -0.66715619667E+03  0.69541596612E+03  0.17300000000E+03 0. -1.
         -6    1    1    2    0  503 -0.43812200039E+02 -0.81593298147E+02 -0.77633649297E+03  0.80075234967E+03  0.17300000000E+03 0. -1.
<mgrwt>
<rscale>  2 0.19622939E+03</rscale>
<asrwt>0</asrwt>
<pdfrwt beam="1">  1       21 0.40519705E-02 0.19622939E+03</pdfrwt>
<pdfrwt beam="2">  1       21 0.22612781E+00 0.19622939E+03</pdfrwt>
<totfact> 0.35298532E+04</totfact>
</mgrwt>
</event>
<event>
 4    2  0.3992997E+000  0.2043618E+03  0.7546771E-02  0.1146110E+00
         21   -1    0    0  501  502  0.00000000000E+00  0.00000000000E+00  0.17541924321E+03  0.17541924321E+03  0.00000000000E+00 0. -1.
         21   -1    0    0  502  503 -0.00000000000E+00 -0.00000000000E+00 -0.33791740159E+03  0.33791740159E+03  0.00000000000E+00 0.  1.
          6    1    1    2  501    0  0.32392057358E+02  0.10385317230E+03  0.58263928811E+02  0.21250508741E+03  0.17300000000E+03 0. -1.
         -6    1    1    2    0  503 -0.32392057358E+02 -0.10385317230E+03 -0.22076208720E+03  0.30083155739E+03  0.17300000000E+03 0.  1.
<mgrwt>
<rscale>  2 0.20436175E+03</rscale>
<asrwt>0</asrwt>
<pdfrwt beam="1">  1       21 0.26987576E-01 0.20436175E+03</pdfrwt>
<pdfrwt beam="2">  1       21 0.51987292E-01 0.20436175E+03</pdfrwt>
<totfact> 0.45674211E+04</totfact>
</mgrwt>
</event>
<event>
 4    2  0.3992997E+000  0.1824673E+03  0.7546771E-02  0.1165436E+00
         21   -1    0    0  501  502  0.00000000000E+00  0.00000000000E+00  0.13505520809E+03  0.13505520809E+03  0.00000000000E+00 0.  1.
         21   -1    0    0  502  503 -0.00000000000E+00 -0.00000000000E+00 -0.28922755151E+03  0.28922755151E+03  0.00000000000E+00 0.  1.
          6    1    1    2  501    0  0.41633793360E+02 -0.40397266940E+02  0.44291026189E+01  0.18252103680E+03  0.17300000000E+03 0.  1.
         -6    1    1    2    0  503 -0.41633793360E+02  0.40397266940E+02 -0.15860144604E+03  0.24176172280E+03  0.17300000000E+03 0.  1.
<mgrwt>
<rscale>  2 0.18246729E+03</rscale>
<asrwt>0</asrwt>
<pdfrwt beam="1">  1       21 0.20777724E-01 0.18246729E+03</pdfrwt>
<pdfrwt beam="2">  1       21 0.44496546E-01 0.18246729E+03</pdfrwt>
<totfact> 0.10461861E+05</totfact>
</mgrwt>
</event>
<event>
 4    2  0.3992997E+000  0.2976786E+03  0.7546771E-02  0.1086407E+00
         21   -1    0    0  501  502  0.00000000000E+00  0.00000000000E+00  0.27690393669E+03  0.27690393669E+03  0.00000000000E+00 0.  1.
         21   -1    0    0  502  503 -0.00000000000E+00 -0.00000000000E+00 -0.34691615973E+03  0.34691615973E+03  0.00000000000E+00 0. -1.
          6    1    1    2  501    0 -0.23814647869E+03 -0.44382144714E+02 -0.12186787434E+03  0.32165866828E+03  0.17300000000E+03 0.  1.
         -6    1    1    2    0  503  0.23814647869E+03  0.44382144714E+02  0.51855651291E+02  0.30216142814E+03  0.17300000000E+03 0.  1.
<mgrwt>
<rscale>  2 0.29767855E+03</rscale>
<asrwt>0</asrwt>
<pdfrwt beam="1">  1       21 0.42600605E-01 0.29767855E+03</pdfrwt>
<pdfrwt beam="2">  1       21 0.53371717E-01 0.29767855E+03</pdfrwt>
<totfact> 0.16692793E+04</totfact>
</mgrwt>
</event>
<event>
 4    2  0.3992997E+000  0.1844166E+03  0.7546771E-02  0.1163596E+00
         21   -1    0    0  503  502  0.00000000000E+00  0.00000000000E+00  0.69745395313E+03  0.69745395313E+03  0.00000000000E+00 0.  1.
         21   -1    0    0  501  503 -0.00000000000E+00 -0.00000000000E+00 -0.48809979033E+02  0.48809979033E+02  0.00000000000E+00 0.  1.
          6    1    1    2  501    0  0.21441897689E+02 -0.60172361700E+02  0.33598234398E+03  0.38326701339E+03  0.17300000000E+03 0.  1.
         -6    1    1    2    0  502 -0.21441897689E+02  0.60172361700E+02  0.31266163012E+03  0.36299691877E+03  0.17300000000E+03 0.  1.
<mgrwt>
<rscale>  2 0.18441656E+03</rscale>
<asrwt>0</asrwt>
<pdfrwt beam="1">  1       21 0.10730060E+00 0.18441656E+03</pdfrwt>
<pdfrwt beam="2">  1       21 0.75092281E-02 0.18441656E+03</pdfrwt>
<totfact> 0.93223521E+04</totfact>
</mgrwt>
</event>
<event>
 4    2  0.3992997E+000  0.2791129E+03  0.7546771E-02  0.1096174E+00
         21   -1    0    0  503  502  0.00000000000E+00  0.00000000000E+00  0.52514731597E+03  0.52514731597E+03  0.00000000000E+00 0.  1.
         21   -1    0    0  501  503 -0.00000000000E+00 -0.00000000000E+00 -0.19635902744E+03  0.19635902744E+03  0.00000000000E+00 0. -1.
          6    1    1    2  501    0 -0.12402841316E+03  0.18053237730E+03 -0.13991585535E+02  0.27946332674E+03  0.17300000000E+03 0. -1.
         -6    1    1    2    0  502  0.12402841316E+03 -0.18053237730E+03  0.34277987407E+03  0.44204301668E+03  0.17300000000E+03 0.  1.
<mgrwt>
<rscale>  2 0.27911286E+03</rscale>
<asrwt>0</asrwt>
<pdfrwt beam="1">  1       21 0.80791894E-01 0.27911286E+03</pdfrwt>
<pdfrwt beam="2">  1       21 0.30209081E-01 0.27911286E+03</pdfrwt>
<totfact> 0.13470897E+04</totfact>
</mgrwt>
</event>
<event>
 4    2  0.3992997E+000  0.2484372E+03  0.7546771E-02  0.1114296E+00
         21   -1    0    0  503  502  0.00000000000E+00  0.00000000000E+00  0.46966334299E+03  0.46966334299E+03  0.00000000000E+00 0. -1.
         21   -1    0    0  501  503 -0.00000000000E+00 -0.00000000000E+00 -0.17336840300E+03  0.17336840300E+03  0.00000000000E+00 0.  1.
          6    1    1    2  501    0 -0.13384331760E+03 -0.11780505235E+03 -0.10013100210E+02  0.24863894747E+03  0.17300000000E+03 0.  1.
         -6    1    1    2    0  502  0.13384331760E+03  0.11780505235E+03  0.30630804020E+03  0.39439279851E+03  0.17300000000E+03 0. -1.
<mgrwt>
<rscale>  2 0.24843724E+03</rscale>
<asrwt>0</asrwt>
<pdfrwt beam="1">  1       21 0.72255898E-01 0.24843724E+03</pdfrwt>
<pdfrwt beam="2">  1       21 0.26672062E-01 0.24843724E+03</pdfrwt>
<totfact> 0.22428228E+04</totfact>
</mgrwt>
</event>
<event>
 4    2  0.3992997E+000  0.1957828E+03  0.7546771E-02  0.1153347E+00
         21   -1    0    0  503  502  0.00000000000E+00  0.00000000000E+00  0.14872803222E+03  0.14872803222E+03  0.00000000000E+00 0. -1.
         21   -1    0    0  501  503 -0.00000000000E+00 -0.00000000000E+00 -0.58260290277E+03  0.58260290277E+03  0.00000000000E+00 0.  1.
          6    1    1    2  501    0  0.31791315147E+02 -0.85972219208E+02 -0.48999726275E+03  0.52766298685E+03  0.17300000000E+03 0.  1.
         -6    1    1    2    0  502 -0.31791315147E+02  0.85972219208E+02  0.56122392190E+02  0.20366794814E+03  0.17300000000E+03 0. -1.
<mgrwt>
<rscale>  2 0.19578281E+03</rscale>
<asrwt>0</asrwt>
<pdfrwt beam="1">  1       21 0.22881236E-01 0.19578281E+03</pdfrwt>
<pdfrwt beam="2">  1       21 0.89631216E-01 0.19578281E+03</pdfrwt>
<totfact> 0.18973087E+04</totfact>
</mgrwt>
</event>
<event>
 4    2  0.3992997E+000  0.2040710E+03  0.7546771E-02  0.1146349E+00
         21   -1    0    0  503  502  0.00000000000E+00  0.00000000000E+00  0.82331444076E+03  0.82331444076E+03  0.00000000000E+00 0. -1.
         21   -1    0    0  501  503 -0.00000000000E+00 -0.00000000000E+00 -0.64075856807E+02  0.64075856807E+02  0.00000000000E+00 0.  1.
          6    1    1    2  501    0  0.90032262144E+02 -0.60084547445E+02  0.17600692662E+03  0.26948728966E+03  0.17300000000E+03 0.  1.
         -6    1    1    2    0  502 -0.90032262144E+02  0.60084547445E+02  0.58323165733E+03  0.61790300791E+03  0.17300000000E+03 0. -1.
<mgrwt>
<rscale>  2 0.20407097E+03</rscale>
<asrwt>0</asrwt>
<pdfrwt beam="1">  1       21 0.12666375E+00 0.20407097E+03</pdfrwt>
<pdfrwt beam="2">  1       21 0.98578247E-02 0.20407097E+03</pdfrwt>
<totfact> 0.38156692E+04</totfact>
</mgrwt>
</event>
<event>
 4    2  0.3992997E+000  0.1953096E+03  0.7546771E-02  0.1153758E+00
         21   -1    0    0  503  502  0.00000000000E+00  0.00000000000E+00  0.19968023922E+02  0.19968023922E+02  0.00000000000E+00 0.  1.
         21   -1    0    0  501  503 -0.00000000000E+00 -0.00000000000E+00 -0.20881397623E+04  0.20881397623E+04  0.00000000000E+00 0.  1.
          6    1    1    2  501    0  0.21305427034E+02 -0.88107453217E+02 -0.13416535438E+04  0.13557949978E+04  0.17300000000E+03 0.  1.
         -6    1    1    2    0  502 -0.21305427034E+02  0.88107453217E+02 -0.72651819455E+03  0.75231278837E+03  0.17300000000E+03 0.  1.
<mgrwt>
<rscale>  2 0.19530961E+03</rscale>
<asrwt>0</asrwt>
<pdfrwt beam="1">  1       21 0.30720027E-02 0.19530961E+03</pdfrwt>
<pdfrwt beam="2">  1       21 0.32125238E+00 0.19530961E+03</pdfrwt>
<totfact> 0.15614306E+04</totfact>
</mgrwt>
</event>
<event>
 4    2  0.3992997E+000  0.3078630E+03  0.7546771E-02  0.1081375E+00
         21   -1    0    0  503  502  0.00000000000E+00  0.00000000000E+00  0.85801234005E+03  0.85801234005E+03  0.00000000000E+00 0. -1.
         21   -1    0    0  501  503 -0.00000000000E+00 -0.00000000000E+00 -0.12241814241E+03  0.12241814241E+03  0.00000000000E+00 0. -1.
          6    1    1    2  501    0  0.20803782719E+03  0.14687041129E+03  0.21461101406E+03  0.37528328315E+03  0.17300000000E+03 0. -1.
         -6    1    1    2    0  502 -0.20803782719E+03 -0.14687041129E+03  0.52098318358E+03  0.60514719931E+03  0.17300000000E+03 0. -1.
<mgrwt>
<rscale>  2 0.30786305E+03</rscale>
<asrwt>0</asrwt>
<pdfrwt beam="1">  1       21 0.13200189E+00 0.30786305E+03</pdfrwt>
<pdfrwt beam="2">  1       21 0.18833561E-01 0.30786305E+03</pdfrwt>
<totfact> 0.10031109E+04</totfact>
</mgrwt>
</event>
<event>
 4    2  0.3992997E+000  0.2390889E+03  0.7546771E-02  0.1120401E+00
         21   -1    0    0  503  502  0.00000000000E+00  0.00000000000E+00  0.15873634733E+03  0.15873634733E+03  0.00000000000E+00 0. -1.
         21   -1    0    0  501  503 -0.00000000000E+00 -0.00000000000E+00 -0.16128209669E+04  0.16128209669E+04  0.00000000000E+00 0. -1.
          6    1    1    2  501    0  0.12435296284E+03  0.10849350174E+03 -0.15076926084E+04  0.15265321814E+04  0.17300000000E+03 0. -1.
         -6    1    1    2    0  502 -0.12435296284E+03 -0.10849350174E+03  0.53607988811E+02  0.24502513290E+03  0.17300000000E+03 0. -1.
<mgrwt>
<rscale>  2 0.23908889E+03</rscale>
<asrwt>0</asrwt>
<pdfrwt beam="1">  1       21 0.24420978E-01 0.23908889E+03</pdfrwt>
<pdfrwt beam="2">  1       21 0.24812628E+00 0.23908889E+03</pdfrwt>
<totfact> 0.10257971E+03</totfact>
</mgrwt>
</event>
<event>
 4    2  0.3992997E+000  0.2386492E+03  0.7546771E-02  0.1120696E+00
         21   -1    0    0  503  502  0.00000000000E+00  0.00000000000E+00  0.52084326852E+02  0.52084326852E+02  0.00000000000E+00 0.  1.
         21   -1    0    0  501  503 -0.00000000000E+00 -0.00000000000E+00 -0.12418928961E+04  0.12418928961E+04  0.00000000000E+00 0.  1.
          6    1    1    2  501    0  0.16413262858E+03  0.92156788308E+01 -0.81856131454E+03  0.85264064773E+03  0.17300000000E+03 0.  1.
         -6    1    1    2    0  502 -0.16413262858E+03 -0.92156788308E+01 -0.37124725472E+03  0.44133657523E+03  0.17300000000E+03 0.  1.
<mgrwt>
<rscale>  2 0.23864922E+03</rscale>
<asrwt>0</asrwt>
<pdfrwt beam="1">  1       21 0.80129739E-02 0.23864922E+03</pdfrwt>
<pdfrwt beam="2">  1       21 0.19106043E+00 0.23864922E+03</pdfrwt>
<totfact> 0.17783531E+04</totfact>
</mgrwt>
</event>
<event>
 4    2  0.3992997E+000  0.2361664E+03  0.7546771E-02  0.1122373E+00
         21   -1    0    0  503  502  0.00000000000E+00  0.00000000000E+00  0.19592004585E+03  0.19592004585E+03  0.00000000000E+00 0.  1.
         21   -1    0    0  501  503 -0.00000000000E+00 -0.00000000000E+00 -0.10488126712E+04  0.10488126712E+04  0.00000000000E+00 0.  1.
          6    1    1    2  501    0 -0.97602876437E+02 -0.12774688232E+03 -0.95767489146E+03  0.98636493509E+03  0.17300000000E+03 0.  1.
         -6    1    1    2    0  502  0.97602876437E+02  0.12774688232E+03  0.10478226616E+03  0.25836778192E+03  0.17300000000E+03 0.  1.
<mgrwt>
<rscale>  2 0.23616644E+03</rscale>
<asrwt>0</asrwt>
<pdfrwt beam="1">  1       21 0.30141546E-01 0.23616644E+03</pdfrwt>
<pdfrwt beam="2">  1       21 0.16135579E+00 0.23616644E+03</pdfrwt>
<totfact> 0.25007082E+03</totfact>
</mgrwt>
</event>
<event>
 4    2  0.3992997E+000  0.1965847E+03  0.7546771E-02  0.1152653E+00
         21   -1    0    0  501  502  0.00000000000E+00  0.00000000000E+00  0.15947628596E+04  0.15947628596E+04  0.00000000000E+00 0. -1.
         21   -1    0    0  502  503 -0.00000000000E+00 -0.00000000000E+00 -0.50237274186E+02  0.50237274186E+02  0.00000000000E+00 0. -1.
          6    1    1    2  501    0 -0.62953951635E+02  0.68944493180E+02  0.13640248073E+04  0.13781179987E+04  0.17300000000E+03 0. -1.
         -6    1    1    2    0  503  0.62953951635E+02 -0.68944493180E+02  0.18050077806E+03  0.26688213512E+03  0.17300000000E+03 0. -1.
<mgrwt>
<rscale>  2 0.19658470E+03</rscale>
<asrwt>0</asrwt>
<pdfrwt beam="1">  1       21 0.24534809E+00 0.19658470E+03</pdfrwt>
<pdfrwt beam="2">  1       21 0.77288126E-02 0.19658470E+03</pdfrwt>
<totfact> 0.89909690E+03</totfact>
</mgrwt>
</event>
<event>
 4    2  0.3992997E+000  0.1867537E+03  0.7546771E-02  0.1161422E+00
         21   -1    0    0  503  502  0.00000000000E+00  0.00000000000E+00  0.49960755255E+03  0.49960755255E+03  0.00000000000E+00 0. -1.
         21   -1    0    0  501  503 -0.00000000000E+00 -0.00000000000E+00 -0.10679766772E+03  0.10679766772E+03  0.00000000000E+00 0. -1.
          6    1    1    2  501    0  0.65358526984E+02  0.26003843657E+02  0.37484335646E+03  0.41878930122E+03  0.17300000000E+03 0. -1.
         -6    1    1    2    0  502 -0.65358526984E+02 -0.26003843657E+02  0.17966528367E+02  0.18761591904E+03  0.17300000000E+03 0. -1.
<mgrwt>
<rscale>  2 0.18675368E+03</rscale>
<asrwt>0</asrwt>
<pdfrwt beam="1">  1       21 0.76862699E-01 0.18675368E+03</pdfrwt>
<pdfrwt beam="2">  1       21 0.16430411E-01 0.18675368E+03</pdfrwt>
<totfact> 0.50126113E+04</totfact>
</mgrwt>
</event>
<event>
 4    2  0.3992997E+000  0.1774405E+03  0.7546771E-02  0.1170303E+00
         21   -1    0    0  503  502  0.00000000000E+00  0.00000000000E+00  0.62402605353E+03  0.62402605353E+03  0.00000000000E+00 0. -1.
         21   -1    0    0  501  503 -0.00000000000E+00 -0.00000000000E+00 -0.84507352030E+02  0.84507352030E+02  0.00000000000E+00 0. -1.
          6    1    1    2  501    0  0.36576310106E+02  0.14775496548E+02  0.44875849785E+02  0.18302727571E+03  0.17300000000E+03 0. -1.
         -6    1    1    2    0  502 -0.36576310106E+02 -0.14775496548E+02  0.49464285171E+03  0.52550612985E+03  0.17300000000E+03 0. -1.
<mgrwt>
<rscale>  2 0.17744053E+03</rscale>
<asrwt>0</asrwt>
<pdfrwt beam="1">  1       21 0.96004005E-01 0.17744053E+03</pdfrwt>
<pdfrwt beam="2">  1       21 0.13001131E-01 0.17744053E+03</pdfrwt>
<totfact> 0.46290579E+04</totfact>
</mgrwt>
</event>
<event>
 4    2  0.3992997E+000  0.1953548E+03  0.7546771E-02  0.1153718E+00
         21   -1    0    0  501  502  0.00000000000E+00  0.00000000000E+00  0.10949125085E+03  0.10949125085E+03  0.00000000000E+00 0.  1.
         21   -1    0    0  502  503 -0.00000000000E+00 -0.00000000000E+00 -0.35548332561E+03  0.35548332561E+03  0.00000000000E+00 0. -1.
          6    1    1    2  501    0  0.21662578610E+02 -0.88120581543E+02 -0.90534704816E+02  0.21531381047E+03  0.17300000000E+03 0. -1.
         -6    1    1    2    0  503 -0.21662578610E+02  0.88120581543E+02 -0.15545736995E+03  0.24966076599E+03  0.17300000000E+03 0. -1.
<mgrwt>
<rscale>  2 0.19535482E+03</rscale>
<asrwt>0</asrwt>
<pdfrwt beam="1">  1       21 0.16844808E-01 0.19535482E+03</pdfrwt>
<pdfrwt beam="2">  1       21 0.54689742E-01 0.19535482E+03</pdfrwt>
<totfact> 0.10004953E+05</totfact>
</mgrwt>
</event>
<event>
 4    2  0.3992997E+000  0.2863955E+03  0.7546771E-02  0.1092246E+00
         21   -1    0    0  501  502  0.00000000000E+00  0.00000000000E+00  0.33239204327E+03  0.33239204327E+03  0.00000000000E+00 0. -1.
         21   -1    0    0  502  503 -0.00000000000E+00 -0.00000000000E+00 -0.37587758583E+03  0.37587758583E+03  0.00000000000E+00 0. -1.
          6    1    1    2  501    0 -0.12977365895E+03  0.18775561793E+03  0.18581139689E+03  0.34139163703E+03  0.17300000000E+03 0. -1.
         -6    1    1    2    0  503  0.12977365895E+03 -0.18775561793E+03 -0.22929693945E+03  0.36687799207E+03  0.17300000000E+03 0. -1.
<mgrwt>
<rscale>  2 0.28639549E+03</rscale>
<asrwt>0</asrwt>
<pdfrwt beam="1">  1       21 0.51137238E-01 0.28639549E+03</pdfrwt>
<pdfrwt beam="2">  1       21 0.57827321E-01 0.28639549E+03</pdfrwt>
<totfact> 0.96540334E+03</totfact>
</mgrwt>
</event>
<event>
 4    2  0.3992997E+000  0.2318543E+03  0.7546771E-02  0.1125341E+00
         21   -1    0    0  501  502  0.00000000000E+00  0.00000000000E+00  0.17702493634E+03  0.17702493634E+03  0.00000000000E+00 0. -1.
         21   -1    0    0  502  503 -0.00000000000E+00 -0.00000000000E+00 -0.53701769264E+03  0.53701769264E+03  0.00000000000E+00 0.  1.
          6    1    1    2  501    0 -0.15436132571E+03  0.11635006170E+00  0.55348873524E+02  0.23836931475E+03  0.17300000000E+03 0. -1.
         -6    1    1    2    0  503  0.15436132571E+03 -0.11635006170E+00 -0.41534162982E+03  0.47567331424E+03  0.17300000000E+03 0.  1.
<mgrwt>
<rscale>  2 0.23185433E+03</rscale>
<asrwt>0</asrwt>
<pdfrwt beam="1">  1       21 0.27234606E-01 0.23185433E+03</pdfrwt>
<pdfrwt beam="2">  1       21 0.82618105E-01 0.23185433E+03</pdfrwt>
<totfact> 0.16049884E+04</totfact>
</mgrwt>
</event>
<event>
 4    2  0.3992997E+000  0.1797720E+03  0.7546771E-02  0.1168024E+00
         21   -1    0    0  501  502  0.00000000000E+00  0.00000000000E+00  0.69989709554E+03  0.69989709554E+03  0.00000000000E+00 0. -1.
         21   -1    0    0  502  503 -0.00000000000E+00 -0.00000000000E+00 -0.67346583652E+02  0.67346583652E+02  0.00000000000E+00 0. -1.
          6    1    1    2  501    0 -0.17498783161E+02  0.45637484043E+02  0.53136450784E+03  0.56095118108E+03  0.17300000000E+03 0. -1.
         -6    1    1    2    0  503  0.17498783161E+02 -0.45637484043E+02  0.10118600404E+03  0.20629249811E+03  0.17300000000E+03 0. -1.
<mgrwt>
<rscale>  2 0.17977204E+03</rscale>
<asrwt>0</asrwt>
<pdfrwt beam="1">  1       21 0.10767647E+00 0.17977204E+03</pdfrwt>
<pdfrwt beam="2">  1       21 0.10361013E-01 0.17977204E+03</pdfrwt>
<totfact> 0.52747385E+04</totfact>
</mgrwt>
</event>
<event>
 4    2  0.3992997E+000  0.1798957E+03  0.7546771E-02  0.1167904E+00
         21   -1    0    0  501  502  0.00000000000E+00  0.00000000000E+00  0.15149878856E+03  0.15149878856E+03  0.00000000000E+00 0.  1.
         21   -1    0    0  502  503 -0.00000000000E+00 -0.00000000000E+00 -0.33176247505E+03  0.33176247505E+03  0.00000000000E+00 0.  1.
          6    1    1    2  501    0 -0.20467703372E+02 -0.44883587738E+02  0.54063082856E+02  0.18784376555E+03  0.17300000000E+03 0.  1.
         -6    1    1    2    0  503  0.20467703372E+02  0.44883587738E+02 -0.23432676935E+03  0.29541749806E+03  0.17300000000E+03 0.  1.
<mgrwt>
<rscale>  2 0.17989570E+03</rscale>
<asrwt>0</asrwt>
<pdfrwt beam="1">  1       21 0.23307506E-01 0.17989570E+03</pdfrwt>
<pdfrwt beam="2">  1       21 0.51040381E-01 0.17989570E+03</pdfrwt>
<totfact> 0.63527981E+04</totfact>
</mgrwt>
</event>
<event>
 4    2  0.3992997E+000  0.1903981E+03  0.7546771E-02  0.1158103E+00
         21   -1    0    0  503  502  0.00000000000E+00  0.00000000000E+00  0.39238593193E+03  0.39238593193E+03  0.00000000000E+00 0.  1.
         21   -1    0    0  501  503 -0.00000000000E+00 -0.00000000000E+00 -0.18106388374E+03  0.18106388374E+03  0.00000000000E+00 0.  1.
          6    1    1    2  501    0 -0.79508842503E+02 -0.87661019528E+00 -0.94995973377E+02  0.21278077789E+03  0.17300000000E+03 0.  1.
         -6    1    1    2    0  502  0.79508842503E+02  0.87661019528E+00  0.30631802157E+03  0.36066903779E+03  0.17300000000E+03 0.  1.
<mgrwt>
<rscale>  2 0.19039807E+03</rscale>
<asrwt>0</asrwt>
<pdfrwt beam="1">  1       21 0.60367066E-01 0.19039807E+03</pdfrwt>
<pdfrwt beam="2">  1       21 0.27855982E-01 0.19039807E+03</pdfrwt>
<totfact> 0.31509901E+04</totfact>
</mgrwt>
</event>
<event>
 4    2  0.3992997E+000  0.1987713E+03  0.7546771E-02  0.1150780E+00
         21   -1    0    0  503  502  0.00000000000E+00  0.00000000000E+00  0.60076241020E+03  0.60076241020E+03  0.00000000000E+00 0. -1.
         21   -1    0    0  501  503 -0.00000000000E+00 -0.00000000000E+00 -0.82050679625E+02  0.82050679625E+02  0.00000000000E+00 0. -1.
          6    1    1    2  501    0 -0.92173403728E+02 -0.32941018561E+02  0.41145038294E+03  0.45694798903E+03  0.17300000000E+03 0. -1.
         -6    1    1    2    0  502  0.92173403728E+02  0.32941018561E+02  0.10726134763E+03  0.22586510079E+03  0.17300000000E+03 0. -1.
<mgrwt>
<rscale>  2 0.19877134E+03</rscale>
<asrwt>0</asrwt>
<pdfrwt beam="1">  1       21 0.92424984E-01 0.19877134E+03</pdfrwt>
<pdfrwt beam="2">  1       21 0.12623182E-01 0.19877134E+03</pdfrwt>
<totfact> 0.52770976E+04</totfact>
</mgrwt>
</event>
<event>
 4    2  0.3992997E+000  0.1894829E+03  0.7546771E-02  0.1158929E+00
         21   -1    0    0  503  502  0.00000000000E+00  0.00000000000E+00  0.41878013298E+03  0.41878013298E+03  0.00000000000E+00 0. -1.
         21   -1    0    0  501  503 -0.00000000000E+00 -0.00000000000E+00 -0.20553162220E+03  0.20553162220E+03  0.00000000000E+00 0.  1.
          6    1    1    2  501    0 -0.68267338849E+01  0.76994642789E+02 -0.13169324207E+03  0.23075287500E+03  0.17300000000E+03 0.  1.
         -6    1    1    2    0  502  0.68267338849E+01 -0.76994642789E+02  0.34494175285E+03  0.39355888018E+03  0.17300000000E+03 0. -1.
<mgrwt>
<rscale>  2 0.18948293E+03</rscale>
<asrwt>0</asrwt>
<pdfrwt beam="1">  1       21 0.64427712E-01 0.18948293E+03</pdfrwt>
<pdfrwt beam="2">  1       21 0.31620250E-01 0.18948293E+03</pdfrwt>
<totfact> 0.21402560E+04</totfact>
</mgrwt>
</event>
<event>
 4    2  0.3992997E+000  0.1839661E+03  0.7546771E-02  0.1164019E+00
         21   -1    0    0  503  502  0.00000000000E+00  0.00000000000E+00  0.76460115936E+02  0.76460115936E+02  0.00000000000E+00 0.  1.
         21   -1    0    0  501  503 -0.00000000000E+00 -0.00000000000E+00 -0.56886955133E+03  0.56886955133E+03  0.00000000000E+00 0.  1.
          6    1    1    2  501    0 -0.49938274875E+02 -0.37692064297E+02 -0.39820465875E+03  0.43864618232E+03  0.17300000000E+03 0.  1.
         -6    1    1    2    0  502  0.49938274875E+02  0.37692064297E+02 -0.94204776641E+02  0.20668348495E+03  0.17300000000E+03 0.  1.
<mgrwt>
<rscale>  2 0.18396609E+03</rscale>
<asrwt>0</asrwt>
<pdfrwt beam="1">  1       21 0.11763095E-01 0.18396609E+03</pdfrwt>
<pdfrwt beam="2">  1       21 0.87518392E-01 0.18396609E+03</pdfrwt>
<totfact> 0.68410780E+04</totfact>
</mgrwt>
</event>
<event>
 4    2  0.3992997E+000  0.2035429E+03  0.7546771E-02  0.1146784E+00
         21   -1    0    0  503  502  0.00000000000E+00  0.00000000000E+00  0.15928304107E+03  0.15928304107E+03  0.00000000000E+00 0.  1.
         21   -1    0    0  501  503 -0.00000000000E+00 -0.00000000000E+00 -0.29678122118E+03  0.29678122118E+03  0.00000000000E+00 0. -1.
          6    1    1    2  501    0 -0.64752917725E+02 -0.85485535345E+02  0.11417307217E+02  0.20386287551E+03  0.17300000000E+03 0.  1.
         -6    1    1    2    0  502  0.64752917725E+02  0.85485535345E+02 -0.14891548733E+03  0.25220138674E+03  0.17300000000E+03 0. -1.
<mgrwt>
<rscale>  2 0.20354291E+03</rscale>
<asrwt>0</asrwt>
<pdfrwt beam="1">  1       21 0.24505084E-01 0.20354291E+03</pdfrwt>
<pdfrwt beam="2">  1       21 0.45658649E-01 0.20354291E+03</pdfrwt>
<totfact> 0.72021873E+04</totfact>
</mgrwt>
</event>
<event>
 4    2  0.3992997E+000  0.1764032E+03  0.7546771E-02  0.1171330E+00
         21   -1    0    0  503  502  0.00000000000E+00  0.00000000000E+00  0.62396190952E+02  0.62396190952E+02  0.00000000000E+00 0.  1.
         21   -1    0    0  501  503 -0.00000000000E+00 -0.00000000000E+00 -0.61970575463E+03  0.61970575463E+03  0.00000000000E+00 0.  1.
          6    1    1    2  501    0  0.28541968714E+02 -0.19350347386E+02 -0.42934946039E+03  0.46417565539E+03  0.17300000000E+03 0.  1.
         -6    1    1    2    0  502 -0.28541968714E+02  0.19350347386E+02 -0.12796010329E+03  0.21792629019E+03  0.17300000000E+03 0.  1.
<mgrwt>
<rscale>  2 0.17640317E+03</rscale>
<asrwt>0</asrwt>
<pdfrwt beam="1">  1       21 0.95994139E-02 0.17640317E+03</pdfrwt>
<pdfrwt beam="2">  1       21 0.95339348E-01 0.17640317E+03</pdfrwt>
<totfact> 0.80689479E+04</totfact>
</mgrwt>
</event>
<event>
 4    2  0.3992997E+000  0.2104733E+03  0.7546771E-02  0.1141192E+00
         21   -1    0    0  501  502  0.00000000000E+00  0.00000000000E+00  0.25581639088E+03  0.25581639088E+03  0.00000000000E+00 0.  1.
         21   -1    0    0  502  503 -0.00000000000E+00 -0.00000000000E+00 -0.17338977449E+03  0.17338977449E+03  0.00000000000E+00 0. -1.
          6    1    1    2  501    0  0.26427096038E+02  0.11692573186E+03  0.33525127883E+02  0.21312661114E+03  0.17300000000E+03 0. -1.
         -6    1    1    2    0  503 -0.26427096038E+02 -0.11692573186E+03  0.48901488506E+02  0.21607955422E+03  0.17300000000E+03 0. -1.
<mgrwt>
<rscale>  2 0.21047332E+03</rscale>
<asrwt>0</asrwt>
<pdfrwt beam="1">  1       21 0.39356368E-01 0.21047332E+03</pdfrwt>
<pdfrwt beam="2">  1       21 0.26675350E-01 0.21047332E+03</pdfrwt>
<totfact> 0.82634334E+04</totfact>
</mgrwt>
</event>
<event>
 4    2  0.3992997E+000  0.2137494E+03  0.7546771E-02  0.1138631E+00
         21   -1    0    0  503  502  0.00000000000E+00  0.00000000000E+00  0.51925250695E+02  0.51925250695E+02  0.00000000000E+00 0. -1.
         21   -1    0    0  501  503 -0.00000000000E+00 -0.00000000000E+00 -0.90723256811E+03  0.90723256811E+03  0.00000000000E+00 0. -1.
          6    1    1    2  501    0  0.88406958114E+02  0.89129144955E+02 -0.51090220932E+03  0.55381392381E+03  0.17300000000E+03 0. -1.
         -6    1    1    2    0  502 -0.88406958114E+02 -0.89129144955E+02 -0.34440510810E+03  0.40534389499E+03  0.17300000000E+03 0. -1.
<mgrwt>
<rscale>  2 0.21374937E+03</rscale>
<asrwt>0</asrwt>
<pdfrwt beam="1">  1       21 0.79884997E-02 0.21374937E+03</pdfrwt>
<pdfrwt beam="2">  1       21 0.13957425E+00 0.21374937E+03</pdfrwt>
<totfact> 0.42876949E+04</totfact>
</mgrwt>
</event>
<event>
 4    2  0.3992997E+000  0.2151895E+03  0.7546771E-02  0.1137521E+00
         21   -1    0    0  503  502  0.00000000000E+00  0.00000000000E+00  0.28263217067E+03  0.28263217067E+03  0.00000000000E+00 0. -1.
         21   -1    0    0  501  503 -0.00000000000E+00 -0.00000000000E+00 -0.18169136763E+03  0.18169136763E+03  0.00000000000E+00 0.  1.
          6    1    1    2  501    0 -0.12486454347E+03 -0.28042491845E+02  0.12324098051E+03  0.24798160182E+03  0.17300000000E+03 0. -1.
         -6    1    1    2    0  502  0.12486454347E+03  0.28042491845E+02 -0.22300177469E+02  0.21634193648E+03  0.17300000000E+03 0. -1.
<mgrwt>
<rscale>  2 0.21518953E+03</rscale>
<asrwt>0</asrwt>
<pdfrwt beam="1">  1       21 0.43481872E-01 0.21518953E+03</pdfrwt>
<pdfrwt beam="2">  1       21 0.27952518E-01 0.21518953E+03</pdfrwt>
<totfact> 0.61510282E+04</totfact>
</mgrwt>
</event>
<event>
 4    2  0.3992997E+000  0.1758234E+03  0.7546771E-02  0.1171908E+00
         21   -1    0    0  503  502  0.00000000000E+00  0.00000000000E+00  0.64422178382E+02  0.64422178382E+02  0.00000000000E+00 0. -1.
         21   -1    0    0  501  503 -0.00000000000E+00 -0.00000000000E+00 -0.52319603549E+03  0.52319603549E+03  0.00000000000E+00 0. -1.
          6    1    1    2  501    0 -0.89635543267E+01  0.30075215574E+02 -0.31394190166E+03  0.35982409802E+03  0.17300000000E+03 0. -1.
         -6    1    1    2    0  502  0.89635543267E+01 -0.30075215574E+02 -0.14483195545E+03  0.22779411585E+03  0.17300000000E+03 0. -1.
<mgrwt>
<rscale>  2 0.17582339E+03</rscale>
<asrwt>0</asrwt>
<pdfrwt beam="1">  1       21 0.99111043E-02 0.17582339E+03</pdfrwt>
<pdfrwt beam="2">  1       21 0.80491698E-01 0.17582339E+03</pdfrwt>
<totfact> 0.11253882E+05</totfact>
</mgrwt>
</event>
<event>
 4    2  0.3992997E+000  0.2287518E+03  0.7546771E-02  0.1127521E+00
         21   -1    0    0  503  502  0.00000000000E+00  0.00000000000E+00  0.10689536933E+03  0.10689536933E+03  0.00000000000E+00 0.  1.
         21   -1    0    0  501  503 -0.00000000000E+00 -0.00000000000E+00 -0.50166072343E+03  0.50166072343E+03  0.00000000000E+00 0.  1.
          6    1    1    2  501    0  0.14936576946E+03 -0.93933399714E+01 -0.15004610932E+03  0.27357120251E+03  0.17300000000E+03 0.  1.
         -6    1    1    2    0  502 -0.14936576946E+03  0.93933399714E+01 -0.24471924479E+03  0.33498489025E+03  0.17300000000E+03 0.  1.
<mgrwt>
<rscale>  2 0.22875176E+03</rscale>
<asrwt>0</asrwt>
<pdfrwt beam="1">  1       21 0.16445441E-01 0.22875176E+03</pdfrwt>
<pdfrwt beam="2">  1       21 0.77178574E-01 0.22875176E+03</pdfrwt>
<totfact> 0.48597099E+04</totfact>
</mgrwt>
</event>
<event>
 4    2  0.3992997E+000  0.2740683E+03  0.7546771E-02  0.1098974E+00
         21   -1    0    0  501  502  0.00000000000E+00  0.00000000000E+00  0.84858497347E+03  0.84858497347E+03  0.00000000000E+00 0.  1.
         21   -1    0    0  502  503 -0.00000000000E+00 -0.00000000000E+00 -0.88516397445E+02  0.88516397445E+02  0.00000000000E+00 0. -1.
          6    1    1    2  501    0 -0.20673875791E+03 -0.49432236562E+02  0.38084476935E+03  0.46920805446E+03  0.17300000000E+03 0. -1.
         -6    1    1    2    0  503  0.20673875791E+03  0.49432236562E+02  0.37922380668E+03  0.46789331646E+03  0.17300000000E+03 0.  1.
<mgrwt>
<rscale>  2 0.27406835E+03</rscale>
<asrwt>0</asrwt>
<pdfrwt beam="1">  1       21 0.13055153E+00 0.27406835E+03</pdfrwt>
<pdfrwt beam="2">  1       21 0.13617908E-01 0.27406835E+03</pdfrwt>
<totfact> 0.19092020E+04</totfact>
</mgrwt>
</event>
<event>
 4    2  0.3992997E+000  0.3308894E+03  0.7546771E-02  0.1070744E+00
         21   -1    0    0  501  502  0.00000000000E+00  0.00000000000E+00  0.17809405779E+03  0.17809405779E+03  0.00000000000E+00 0. -1.
         21   -1    0    0  502  503 -0.00000000000E+00 -0.00000000000E+00 -0.62164782543E+03  0.62164782543E+03  0.00000000000E+00 0. -1.
          6    1    1    2  501    0  0.26782059348E+03  0.88492591568E+02 -0.17973238881E+03  0.37655217519E+03  0.17300000000E+03 0. -1.
         -6    1    1    2    0  503 -0.26782059348E+03 -0.88492591568E+02 -0.26382137883E+03  0.42318970803E+03  0.17300000000E+03 0. -1.
<mgrwt>
<rscale>  2 0.33088942E+03</rscale>
<asrwt>0</asrwt>
<pdfrwt beam="1">  1       21 0.27399086E-01 0.33088942E+03</pdfrwt>
<pdfrwt beam="2">  1       21 0.95638126E-01 0.33088942E+03</pdfrwt>
<totfact> 0.10759095E+04</totfact>
</mgrwt>
</event>
<event>
 4    2  0.3992997E+000  0.1937400E+03  0.7546771E-02  0.1155131E+00
         21   -1    0    0  503  502  0.00000000000E+00  0.00000000000E+00  0.28901286857E+02  0.28901286857E+02  0.00000000000E+00 0. -1.
         21   -1    0    0  501  503 -0.00000000000E+00 -0.00000000000E+00 -0.17023126299E+04  0.17023126299E+04  0.00000000000E+00 0.  1.
          6    1    1    2  501    0 -0.59348098298E+02 -0.63906001500E+02 -0.12581725834E+04  0.12730017374E+04  0.17300000000E+03 0.  1.
         -6    1    1    2    0  502  0.59348098298E+02  0.63906001500E+02 -0.41523875960E+03  0.45821217931E+03  0.17300000000E+03 0.  1.
<mgrwt>
<rscale>  2 0.19373996E+03</rscale>
<asrwt>0</asrwt>
<pdfrwt beam="1">  1       21 0.44463504E-02 0.19373996E+03</pdfrwt>
<pdfrwt beam="2">  1       21 0.26189433E+00 0.19373996E+03</pdfrwt>
<totfact> 0.18563983E+04</totfact>
</mgrwt>
</event>
<event>
 4    2  0.3992997E+000  0.2948237E+03  0.7546771E-02  0.1087857E+00
         21   -1    0    0  501  502  0.00000000000E+00  0.00000000000E+00  0.66211375393E+03  0.66211375393E+03  0.00000000000E+00 0.  1.
         21   -1    0    0  502  503 -0.00000000000E+00 -0.00000000000E+00 -0.40676514653E+03  0.40676514653E+03  0.00000000000E+00 0. -1.
          6    1    1    2  501    0 -0.23749361953E+03  0.24265349662E+02  0.56749660251E+03  0.63951029731E+03  0.17300000000E+03 0.  1.
         -6    1    1    2    0  503  0.23749361953E+03 -0.24265349662E+02 -0.31214799512E+03  0.42936860315E+03  0.17300000000E+03 0. -1.
<mgrwt>
<rscale>  2 0.29482372E+03</rscale>
<asrwt>0</asrwt>
<pdfrwt beam="1">  1       21 0.10186365E+00 0.29482372E+03</pdfrwt>
<pdfrwt beam="2">  1       21 0.62579253E-01 0.29482372E+03</pdfrwt>
<totfact> 0.17204980E+03</totfact>
</mgrwt>
</event>
<event>
 4    2  0.3992997E+000  0.2089860E+03  0.7546771E-02  0.1142371E+00
         21   -1    0    0  503  502  0.00000000000E+00  0.00000000000E+00  0.16240929529E+03  0.16240929529E+03  0.00000000000E+00 0.  1.
         21   -1    0    0  501  503 -0.00000000000E+00 -0.00000000000E+00 -0.47135527974E+03  0.47135527974E+03  0.00000000000E+00 0.  1.
          6    1    1    2  501    0  0.41727333292E+02  0.10956732483E+03 -0.36213950615E+03  0.41811504508E+03  0.17300000000E+03 0.  1.
         -6    1    1    2    0  502 -0.41727333292E+02 -0.10956732483E+03  0.53193521696E+02  0.21564952994E+03  0.17300000000E+03 0.  1.
<mgrwt>
<rscale>  2 0.20898605E+03</rscale>
<asrwt>0</asrwt>
<pdfrwt beam="1">  1       21 0.24986046E-01 0.20898605E+03</pdfrwt>
<pdfrwt beam="2">  1       21 0.72516197E-01 0.20898605E+03</pdfrwt>
<totfact> 0.25743469E+04</totfact>
</mgrwt>
</event>
<event>
 4    2  0.3992997E+000  0.1750356E+03  0.7546771E-02  0.1172696E+00
         21   -1    0    0  503  502  0.00000000000E+00  0.00000000000E+00  0.15326179263E+03  0.15326179263E+03  0.00000000000E+00 0.  1.
         21   -1    0    0  501  503 -0.00000000000E+00 -0.00000000000E+00 -0.25007392307E+03  0.25007392307E+03  0.00000000000E+00 0. -1.
          6    1    1    2  501    0 -0.14886373659E+01  0.26575302215E+02  0.41923383063E+02  0.17998620163E+03  0.17300000000E+03 0.  1.
         -6    1    1    2    0  502  0.14886373659E+01 -0.26575302215E+02 -0.13873551350E+03  0.22334951407E+03  0.17300000000E+03 0. -1.
<mgrwt>
<rscale>  2 0.17503560E+03</rscale>
<asrwt>0</asrwt>
<pdfrwt beam="1">  1       21 0.23578738E-01 0.17503560E+03</pdfrwt>
<pdfrwt beam="2">  1       21 0.38472911E-01 0.17503560E+03</pdfrwt>
<totfact> 0.11102074E+05</totfact>
</mgrwt>
</event>
<event>
 4    2  0.3992997E+000  0.2124964E+03  0.7546771E-02  0.1139604E+00
         21   -1    0    0  501  502  0.00000000000E+00  0.00000000000E+00  0.25380331486E+03  0.25380331486E+03  0.00000000000E+00 0. -1.
         21   -1    0    0  502  503 -0.00000000000E+00 -0.00000000000E+00 -0.32493560818E+03  0.32493560818E+03  0.00000000000E+00 0. -1.
          6    1    1    2  501    0  0.89453072519E+02 -0.84993340086E+02  0.15908062495E+03  0.26544559758E+03  0.17300000000E+03 0. -1.
         -6    1    1    2    0  503 -0.89453072519E+02  0.84993340086E+02 -0.23021291827E+03  0.31329332546E+03  0.17300000000E+03 0. -1.
<mgrwt>
<rscale>  2 0.21249640E+03</rscale>
<asrwt>0</asrwt>
<pdfrwt beam="1">  1       21 0.39046664E-01 0.21249640E+03</pdfrwt>
<pdfrwt beam="2">  1       21 0.49990094E-01 0.21249640E+03</pdfrwt>
<totfact> 0.23835116E+04</totfact>
</mgrwt>
</event>
<event>
 4    2  0.3992997E+000  0.1964610E+03  0.7546771E-02  0.1152760E+00
         21   -1    0    0  503  502  0.00000000000E+00  0.00000000000E+00  0.63234076985E+03  0.63234076985E+03  0.00000000000E+00 0. -1.
         21   -1    0    0  501  503 -0.00000000000E+00 -0.00000000000E+00 -0.63893895870E+02  0.63893895870E+02  0.00000000000E+00 0. -1.
          6    1    1    2  501    0 -0.48873159091E+02 -0.79242243865E+02  0.21062734331E+03  0.28802915936E+03  0.17300000000E+03 0. -1.
         -6    1    1    2    0  502  0.48873159091E+02  0.79242243865E+02  0.35781953067E+03  0.40820550636E+03  0.17300000000E+03 0. -1.
<mgrwt>
<rscale>  2 0.19646099E+03</rscale>
<asrwt>0</asrwt>
<pdfrwt beam="1">  1       21 0.97283191E-01 0.19646099E+03</pdfrwt>
<pdfrwt beam="2">  1       21 0.98298305E-02 0.19646099E+03</pdfrwt>
<totfact> 0.73151685E+04</totfact>
</mgrwt>
</event>
<event>
 4    2  0.3992997E+000  0.3149943E+03  0.7546771E-02  0.1077976E+00
         21   -1    0    0  503  502  0.00000000000E+00  0.00000000000E+00  0.27246263336E+03  0.27246263336E+03  0.00000000000E+00 0. -1.
         21   -1    0    0  501  503 -0.00000000000E+00 -0.00000000000E+00 -0.76040737220E+03  0.76040737220E+03  0.00000000000E+00 0.  1.
          6    1    1    2  501    0 -0.10891096739E+03  0.23964724158E+03 -0.61676977305E+03  0.69255061343E+03  0.17300000000E+03 0.  1.
         -6    1    1    2    0  502  0.10891096739E+03 -0.23964724158E+03  0.12882503422E+03  0.34031939213E+03  0.17300000000E+03 0. -1.
<mgrwt>
<rscale>  2 0.31499428E+03</rscale>
<asrwt>0</asrwt>
<pdfrwt beam="1">  1       21 0.41917328E-01 0.31499428E+03</pdfrwt>
<pdfrwt beam="2">  1       21 0.11698575E+00 0.31499428E+03</pdfrwt>
<totfact> 0.28311158E+03</totfact>
</mgrwt>
</event>
<event>
 4    2  0.3992997E+000  0.2094744E+03  0.7546771E-02  0.1141983E+00
         21   -1    0    0  503  502  0.00000000000E+00  0.00000000000E+00  0.24963465315E+03  0.24963465315E+03  0.00000000000E+00 0. -1.
         21   -1    0    0  501  503 -0.00000000000E+00 -0.00000000000E+00 -0.19059959584E+03  0.19059959584E+03  0.00000000000E+00 0.  1.
          6    1    1    2  501    0 -0.32803749636E+02 -0.11346550708E+03 -0.31870780937E+02  0.21188500175E+03  0.17300000000E+03 0.  1.
         -6    1    1    2    0  502  0.32803749636E+02  0.11346550708E+03  0.90905838246E+02  0.22834924724E+03  0.17300000000E+03 0. -1.
<mgrwt>
<rscale>  2 0.20947436E+03</rscale>
<asrwt>0</asrwt>
<pdfrwt beam="1">  1       21 0.38405331E-01 0.20947436E+03</pdfrwt>
<pdfrwt beam="2">  1       21 0.29323015E-01 0.20947436E+03</pdfrwt>
<totfact> 0.72298766E+04</totfact>
</mgrwt>
</event>
<event>
 4    2  0.3992997E+000  0.1842949E+03  0.7546771E-02  0.1163710E+00
         21   -1    0    0  501  502  0.00000000000E+00  0.00000000000E+00  0.41809537709E+03  0.41809537709E+03  0.00000000000E+00 0.  1.
         21   -1    0    0  502  503 -0.00000000000E+00 -0.00000000000E+00 -0.22291425119E+03  0.22291425119E+03  0.00000000000E+00 0.  1.
          6    1    1    2  501    0  0.48623532927E+02 -0.40882216363E+02  0.35310560566E+03  0.39830663102E+03  0.17300000000E+03 0.  1.
         -6    1    1    2    0  503 -0.48623532927E+02  0.40882216363E+02 -0.15792447976E+03  0.24270299725E+03  0.17300000000E+03 0.  1.
<mgrwt>
<rscale>  2 0.18429488E+03</rscale>
<asrwt>0</asrwt>
<pdfrwt beam="1">  1       21 0.64322366E-01 0.18429488E+03</pdfrwt>
<pdfrwt beam="2">  1       21 0.34294500E-01 0.18429488E+03</pdfrwt>
<totfact> 0.18362245E+04</totfact>
</mgrwt>
</event>
<event>
 4    2  0.3992997E+000  0.2080475E+03  0.7546771E-02  0.1143122E+00
         21   -1    0    0  503  502  0.00000000000E+00  0.00000000000E+00  0.18540164708E+03  0.18540164708E+03  0.00000000000E+00 0. -1.
         21   -1    0    0  501  503 -0.00000000000E+00 -0.00000000000E+00 -0.23363820558E+03  0.23363820558E+03  0.00000000000E+00 0. -1.
          6    1    1    2  501    0  0.11494425160E+03 -0.11940013400E+02 -0.18320988460E+02  0.20885258800E+03  0.17300000000E+03 0. -1.
         -6    1    1    2    0  502 -0.11494425160E+03  0.11940013400E+02 -0.29915570034E+02  0.21018726466E+03  0.17300000000E+03 0. -1.
<mgrwt>
<rscale>  2 0.20804746E+03</rscale>
<asrwt>0</asrwt>
<pdfrwt beam="1">  1       21 0.28523330E-01 0.20804746E+03</pdfrwt>
<pdfrwt beam="2">  1       21 0.35944339E-01 0.20804746E+03</pdfrwt>
<totfact> 0.87170480E+04</totfact>
</mgrwt>
</event>
<event>
 4    2  0.3992997E+000  0.1883361E+03  0.7546771E-02  0.1159971E+00
         21   -1    0    0  501  502  0.00000000000E+00  0.00000000000E+00  0.55241204101E+02  0.55241204101E+02  0.00000000000E+00 0. -1.
         21   -1    0    0  502  503 -0.00000000000E+00 -0.00000000000E+00 -0.66160660697E+03  0.66160660697E+03  0.00000000000E+00 0. -1.
          6    1    1    2  501    0  0.24332765127E+02  0.70352072806E+02 -0.24164182979E+03  0.30636786958E+03  0.17300000000E+03 0. -1.
         -6    1    1    2    0  503 -0.24332765127E+02 -0.70352072806E+02 -0.36472357308E+03  0.41047994149E+03  0.17300000000E+03 0. -1.
<mgrwt>
<rscale>  2 0.18833613E+03</rscale>
<asrwt>0</asrwt>
<pdfrwt beam="1">  1       21 0.84986470E-02 0.18833613E+03</pdfrwt>
<pdfrwt beam="2">  1       21 0.10178563E+00 0.18833613E+03</pdfrwt>
<totfact> 0.85156637E+04</totfact>
</mgrwt>
</event>
<event>
 4    2  0.3992997E+000  0.1855781E+03  0.7546771E-02  0.1162511E+00
         21   -1    0    0  501  502  0.00000000000E+00  0.00000000000E+00  0.34999299273E+03  0.34999299273E+03  0.00000000000E+00 0.  1.
         21   -1    0    0  502  503 -0.00000000000E+00 -0.00000000000E+00 -0.10002395658E+03  0.10002395658E+03  0.00000000000E+00 0.  1.
          6    1    1    2  501    0  0.41915936896E+02  0.52471860342E+02  0.96312367329E+02  0.20908207478E+03  0.17300000000E+03 0. -1.
         -6    1    1    2    0  503 -0.41915936896E+02 -0.52471860342E+02  0.15365666882E+03  0.24093487453E+03  0.17300000000E+03 0. -1.
<mgrwt>
<rscale>  2 0.18557813E+03</rscale>
<asrwt>0</asrwt>
<pdfrwt beam="1">  1       21 0.53845075E-01 0.18557813E+03</pdfrwt>
<pdfrwt beam="2">  1       21 0.15388301E-01 0.18557813E+03</pdfrwt>
<totfact> 0.12244974E+05</totfact>
</mgrwt>
</event>
<event>
 4    2  0.3992997E+000  0.2143934E+03  0.7546771E-02  0.1138133E+00
         21   -1    0    0  503  502  0.00000000000E+00  0.00000000000E+00  0.11014147441E+04  0.11014147441E+04  0.00000000000E+00 0. -1.
         21   -1    0    0  501  503 -0.00000000000E+00 -0.00000000000E+00 -0.68142423817E+02  0.68142423817E+02  0.00000000000E+00 0. -1.
          6    1    1    2  501    0 -0.13184605363E+01 -0.12662460025E+03  0.15258014695E+03  0.26314488209E+03  0.17300000000E+03 0. -1.
         -6    1    1    2    0  502  0.13184605363E+01  0.12662460025E+03  0.88069217332E+03  0.90641228581E+03  0.17300000000E+03 0. -1.
<mgrwt>
<rscale>  2 0.21439339E+03</rscale>
<asrwt>0</asrwt>
<pdfrwt beam="1">  1       21 0.16944841E+00 0.21439339E+03</pdfrwt>
<pdfrwt beam="2">  1       21 0.10483451E-01 0.21439339E+03</pdfrwt>
<totfact> 0.15822210E+04</totfact>
</mgrwt>
</event>
<event>
 4    2  0.3992997E+000  0.2007510E+03  0.7546771E-02  0.1149107E+00
         21   -1    0    0  503  502  0.00000000000E+00  0.00000000000E+00  0.26860393153E+03  0.26860393153E+03  0.00000000000E+00 0.  1.
         21   -1    0    0  501  503 -0.00000000000E+00 -0.00000000000E+00 -0.21699287777E+03  0.21699287777E+03  0.00000000000E+00 0. -1.
          6    1    1    2  501    0 -0.20693363959E+02 -0.99718376861E+02 -0.10906346373E+03  0.22846402149E+03  0.17300000000E+03 0. -1.
         -6    1    1    2    0  502  0.20693363959E+02  0.99718376861E+02  0.16067451749E+03  0.25713278781E+03  0.17300000000E+03 0.  1.
<mgrwt>
<rscale>  2 0.20075101E+03</rscale>
<asrwt>0</asrwt>
<pdfrwt beam="1">  1       21 0.41323681E-01 0.20075101E+03</pdfrwt>
<pdfrwt beam="2">  1       21 0.33383520E-01 0.20075101E+03</pdfrwt>
<totfact> 0.48537098E+04</totfact>
</mgrwt>
</event>
<event>
 4    2  0.3992997E+000  0.2468884E+03  0.7546771E-02  0.1115287E+00
         21   -1    0    0  501  502  0.00000000000E+00  0.00000000000E+00  0.56216433399E+02  0.56216433399E+02  0.00000000000E+00 0.  1.
         21   -1    0    0  502  503 -0.00000000000E+00 -0.00000000000E+00 -0.10843470236E+04  0.10843470236E+04  0.00000000000E+00 0. -1.
          6    1    1    2  501    0  0.61632776903E+02 -0.16500384846E+03 -0.51882876360E+03  0.57457563047E+03  0.17300000000E+03 0. -1.
         -6    1    1    2    0  503 -0.61632776903E+02  0.16500384846E+03 -0.50930182658E+03  0.56598782650E+03  0.17300000000E+03 0.  1.
<mgrwt>
<rscale>  2 0.24688837E+03</rscale>
<asrwt>0</asrwt>
<pdfrwt beam="1">  1       21 0.86486829E-02 0.24688837E+03</pdfrwt>
<pdfrwt beam="2">  1       21 0.16682260E+00 0.24688837E+03</pdfrwt>
<totfact> 0.22751805E+04</totfact>
</mgrwt>
</event>
<event>
 4    2  0.3992997E+000  0.2256278E+03  0.7546771E-02  0.1129756E+00
         21   -1    0    0  503  502  0.00000000000E+00  0.00000000000E+00  0.14907883627E+03  0.14907883627E+03  0.00000000000E+00 0.  1.
         21   -1    0    0  501  503 -0.00000000000E+00 -0.00000000000E+00 -0.48603122109E+03  0.48603122109E+03  0.00000000000E+00 0. -1.
          6    1    1    2  501    0  0.87422777984E+02 -0.11548224793E+03 -0.34165440442E+03  0.40943329586E+03  0.17300000000E+03 0. -1.
         -6    1    1    2    0  502 -0.87422777984E+02  0.11548224793E+03  0.47020196004E+01  0.22567676151E+03  0.17300000000E+03 0.  1.
<mgrwt>
<rscale>  2 0.22562777E+03</rscale>
<asrwt>0</asrwt>
<pdfrwt beam="1">  1       21 0.22935205E-01 0.22562777E+03</pdfrwt>
<pdfrwt beam="2">  1       21 0.74774034E-01 0.22562777E+03</pdfrwt>
<totfact> 0.28054961E+04</totfact>
</mgrwt>
</event>
<event>
 4    2  0.3992997E+000  0.2018045E+03  0.7546771E-02  0.1148225E+00
         21   -1    0    0  503  502  0.00000000000E+00  0.00000000000E+00  0.88086367608E+03  0.88086367608E+03  0.00000000000E+00 0.  1.
         21   -1    0    0  501  503 -0.00000000000E+00 -0.00000000000E+00 -0.68703678122E+02  0.68703678122E+02  0.00000000000E+00 0.  1.
          6    1    1    2  501    0  0.99738379796E+02 -0.29125450522E+02  0.13455291748E+03  0.24254798262E+03  0.17300000000E+03 0.  1.
         -6    1    1    2    0  502 -0.99738379796E+02  0.29125450522E+02  0.67760708048E+03  0.70701937158E+03  0.17300000000E+03 0.  1.
<mgrwt>
<rscale>  2 0.20180445E+03</rscale>
<asrwt>0</asrwt>
<pdfrwt beam="1">  1       21 0.13551748E+00 0.20180445E+03</pdfrwt>
<pdfrwt beam="2">  1       21 0.10569797E-01 0.20180445E+03</pdfrwt>
<totfact> 0.28458065E+04</totfact>
</mgrwt>
</event>
<event>
 4    2  0.3992997E+000  0.1804422E+03  0.7546771E-02  0.1167376E+00
         21   -1    0    0  503  502  0.00000000000E+00  0.00000000000E+00  0.52795116187E+03  0.52795116187E+03  0.00000000000E+00 0. -1.
         21   -1    0    0  501  503 -0.00000000000E+00 -0.00000000000E+00 -0.13843882625E+03  0.13843882625E+03  0.00000000000E+00 0. -1.
          6    1    1    2  501    0  0.89917154358E+01 -0.50492975267E+02 -0.53361972325E+02  0.18816719052E+03  0.17300000000E+03 0. -1.
         -6    1    1    2    0  502 -0.89917154358E+01  0.50492975267E+02  0.44287430795E+03  0.47822279759E+03  0.17300000000E+03 0. -1.
<mgrwt>
<rscale>  2 0.18044221E+03</rscale>
<asrwt>0</asrwt>
<pdfrwt beam="1">  1       21 0.81223254E-01 0.18044221E+03</pdfrwt>
<pdfrwt beam="2">  1       21 0.21298281E-01 0.18044221E+03</pdfrwt>
<totfact> 0.27454092E+04</totfact>
</mgrwt>
</event>
<event>
 4    2  0.3992997E+000  0.1750972E+03  0.7546771E-02  0.1172634E+00
         21   -1    0    0  503  502  0.00000000000E+00  0.00000000000E+00  0.89523266498E+02  0.89523266498E+02  0.00000000000E+00 0. -1.
         21   -1    0    0  501  503 -0.00000000000E+00 -0.00000000000E+00 -0.34300773063E+03  0.34300773063E+03  0.00000000000E+00 0. -1.
          6    1    1    2  501    0 -0.26624589591E+02 -0.45994696886E+01 -0.11817857824E+03  0.21124677571E+03  0.17300000000E+03 0.  1.
         -6    1    1    2    0  502  0.26624589591E+02  0.45994696886E+01 -0.13530588589E+03  0.22128422142E+03  0.17300000000E+03 0.  1.
<mgrwt>
<rscale>  2 0.17509718E+03</rscale>
<asrwt>0</asrwt>
<pdfrwt beam="1">  1       21 0.13772810E-01 0.17509718E+03</pdfrwt>
<pdfrwt beam="2">  1       21 0.52770420E-01 0.17509718E+03</pdfrwt>
<totfact> 0.15677594E+05</totfact>
</mgrwt>
</event>
<event>
 4    2  0.3992997E+000  0.1941671E+03  0.7546771E-02  0.1154756E+00
         21   -1    0    0  501  502  0.00000000000E+00  0.00000000000E+00  0.78673296937E+03  0.78673296937E+03  0.00000000000E+00 0.  1.
         21   -1    0    0  502  503 -0.00000000000E+00 -0.00000000000E+00 -0.10154378238E+03  0.10154378238E+03  0.00000000000E+00 0. -1.
          6    1    1    2  501    0 -0.85561077078E+02 -0.21240962255E+02  0.66534522323E+03  0.69309821992E+03  0.17300000000E+03 0.  1.
         -6    1    1    2    0  503  0.85561077078E+02  0.21240962255E+02  0.19843963763E+02  0.19517853183E+03  0.17300000000E+03 0. -1.
<mgrwt>
<rscale>  2 0.19416714E+03</rscale>
<asrwt>0</asrwt>
<pdfrwt beam="1">  1       21 0.12103584E+00 0.19416714E+03</pdfrwt>
<pdfrwt beam="2">  1       21 0.15622121E-01 0.19416714E+03</pdfrwt>
<totfact> 0.18812715E+04</totfact>
</mgrwt>
</event>
<event>
 4    2  0.3992997E+000  0.1897731E+03  0.7546771E-02  0.1158666E+00
         21   -1    0    0  501  502  0.00000000000E+00  0.00000000000E+00  0.23573182305E+03  0.23573182305E+03  0.00000000000E+00 0.  1.
         21   -1    0    0  502  503 -0.00000000000E+00 -0.00000000000E+00 -0.15319122803E+03  0.15319122803E+03  0.00000000000E+00 0.  1.
          6    1    1    2  501    0  0.57295713549E+02  0.52934247401E+02  0.31128974943E+02  0.19230924684E+03  0.17300000000E+03 0.  1.
         -6    1    1    2    0  503 -0.57295713549E+02 -0.52934247401E+02  0.51411620076E+02  0.19661380424E+03  0.17300000000E+03 0.  1.
<mgrwt>
<rscale>  2 0.18977311E+03</rscale>
<asrwt>0</asrwt>
<pdfrwt beam="1">  1       21 0.36266435E-01 0.18977311E+03</pdfrwt>
<pdfrwt beam="2">  1       21 0.23567881E-01 0.18977311E+03</pdfrwt>
<totfact> 0.12438278E+05</totfact>
</mgrwt>
</event>
<event>
 4    2  0.3992997E+000  0.1829540E+03  0.7546771E-02  0.1164974E+00
         21   -1    0    0  503  502  0.00000000000E+00  0.00000000000E+00  0.20075494094E+03  0.20075494094E+03  0.00000000000E+00 0.  1.
         21   -1    0    0  501  503 -0.00000000000E+00 -0.00000000000E+00 -0.26897802677E+03  0.26897802677E+03  0.00000000000E+00 0.  1.
          6    1    1    2  501    0  0.30833716261E+02 -0.50916156464E+02  0.11069457813E+03  0.21383512965E+03  0.17300000000E+03 0.  1.
         -6    1    1    2    0  502 -0.30833716261E+02  0.50916156464E+02 -0.17891766396E+03  0.25589783806E+03  0.17300000000E+03 0.  1.
<mgrwt>
<rscale>  2 0.18295402E+03</rscale>
<asrwt>0</asrwt>
<pdfrwt beam="1">  1       21 0.30885375E-01 0.18295402E+03</pdfrwt>
<pdfrwt beam="2">  1       21 0.41381235E-01 0.18295402E+03</pdfrwt>
<totfact> 0.56863026E+04</totfact>
</mgrwt>
</event>
<event>
 4    2  0.3992997E+000  0.2290291E+03  0.7546771E-02  0.1127325E+00
         21   -1    0    0  503  502  0.00000000000E+00  0.00000000000E+00  0.23220138330E+03  0.23220138330E+03  0.00000000000E+00 0. -1.
         21   -1    0    0  501  503 -0.00000000000E+00 -0.00000000000E+00 -0.50763441439E+03  0.50763441439E+03  0.00000000000E+00 0.  1.
          6    1    1    2  501    0 -0.13418091645E+03 -0.67237132630E+02 -0.41329770811E+03  0.47251385786E+03  0.17300000000E+03 0.  1.
         -6    1    1    2    0  502  0.13418091645E+03  0.67237132630E+02  0.13786467702E+03  0.26732193983E+03  0.17300000000E+03 0. -1.
<mgrwt>
<rscale>  2 0.22902915E+03</rscale>
<asrwt>0</asrwt>
<pdfrwt beam="1">  1       21 0.35723290E-01 0.22902915E+03</pdfrwt>
<pdfrwt beam="2">  1       21 0.78097602E-01 0.22902915E+03</pdfrwt>
<totfact> 0.10715158E+04</totfact>
</mgrwt>
</event>
<event>
 4    2  0.3992997E+000  0.1918260E+03  0.7546771E-02  0.1156825E+00
         21   -1    0    0  501  502  0.00000000000E+00  0.00000000000E+00  0.14101629979E+04  0.14101629979E+04  0.00000000000E+00 0. -1.
         21   -1    0    0  502  503 -0.00000000000E+00 -0.00000000000E+00 -0.38327121513E+02  0.38327121513E+02  0.00000000000E+00 0. -1.
          6    1    1    2  501    0 -0.45602744599E+02  0.69199719594E+02  0.10950804346E+04  0.11117546356E+04  0.17300000000E+03 0. -1.
         -6    1    1    2    0  503  0.45602744599E+02 -0.69199719594E+02  0.27675544177E+03  0.33673548381E+03  0.17300000000E+03 0. -1.
<mgrwt>
<rscale>  2 0.19182599E+03</rscale>
<asrwt>0</asrwt>
<pdfrwt beam="1">  1       21 0.21694811E+00 0.19182599E+03</pdfrwt>
<pdfrwt beam="2">  1       21 0.58964813E-02 0.19182599E+03</pdfrwt>
<totfact> 0.21352842E+04</totfact>
</mgrwt>
</event>
<event>
 4    2  0.3992997E+000  0.3043545E+03  0.7546771E-02  0.1083084E+00
         21   -1    0    0  503  502  0.00000000000E+00  0.00000000000E+00  0.23820876906E+03  0.23820876906E+03  0.00000000000E+00 0. -1.
         21   -1    0    0  501  503 -0.00000000000E+00 -0.00000000000E+00 -0.45549845940E+03  0.45549845940E+03  0.00000000000E+00 0.  1.
          6    1    1    2  501    0  0.24871501258E+03 -0.29043330182E+02 -0.24130499175E+03  0.38840670894E+03  0.17300000000E+03 0.  1.
         -6    1    1    2    0  502 -0.24871501258E+03  0.29043330182E+02  0.24015301410E+02  0.30530051951E+03  0.17300000000E+03 0.  1.
<mgrwt>
<rscale>  2 0.30435452E+03</rscale>
<asrwt>0</asrwt>
<pdfrwt beam="1">  1       21 0.36647503E-01 0.30435452E+03</pdfrwt>
<pdfrwt beam="2">  1       21 0.70076686E-01 0.30435452E+03</pdfrwt>
<totfact> 0.12499992E+04</totfact>
</mgrwt>
</event>
<event>
 4    2  0.3992997E+000  0.1928341E+03  0.7546771E-02  0.1155930E+00
         21   -1    0    0  501  502  0.00000000000E+00  0.00000000000E+00  0.16767922928E+03  0.16767922928E+03  0.00000000000E+00 0. -1.
         21   -1    0    0  502  503 -0.00000000000E+00 -0.00000000000E+00 -0.30032967950E+03  0.30032967950E+03  0.00000000000E+00 0. -1.
          6    1    1    2  501    0  0.12423837779E+02  0.84271314048E+02  0.53361202159E+02  0.20008104361E+03  0.17300000000E+03 0. -1.
         -6    1    1    2    0  503 -0.12423837779E+02 -0.84271314048E+02 -0.18601165237E+03  0.26792786517E+03  0.17300000000E+03 0. -1.
<mgrwt>
<rscale>  2 0.19283414E+03</rscale>
<asrwt>0</asrwt>
<pdfrwt beam="1">  1       21 0.25796805E-01 0.19283414E+03</pdfrwt>
<pdfrwt beam="2">  1       21 0.46204566E-01 0.19283414E+03</pdfrwt>
<totfact> 0.64019109E+04</totfact>
</mgrwt>
</event>
<event>
 4    2  0.3992997E+000  0.2613995E+03  0.7546771E-02  0.1106305E+00
         21   -1    0    0  503  502  0.00000000000E+00  0.00000000000E+00  0.64071414039E+03  0.64071414039E+03  0.00000000000E+00 0.  1.
         21   -1    0    0  501  503 -0.00000000000E+00 -0.00000000000E+00 -0.42999990816E+03  0.42999990816E+03  0.00000000000E+00 0. -1.
          6    1    1    2  501    0 -0.10878567425E+03  0.16299196400E+03 -0.35888899354E+03  0.44399438390E+03  0.17300000000E+03 0. -1.
         -6    1    1    2    0  502  0.10878567425E+03 -0.16299196400E+03  0.56960322577E+03  0.62671966465E+03  0.17300000000E+03 0.  1.
<mgrwt>
<rscale>  2 0.26139951E+03</rscale>
<asrwt>0</asrwt>
<pdfrwt beam="1">  1       21 0.98571407E-01 0.26139951E+03</pdfrwt>
<pdfrwt beam="2">  1       21 0.66153832E-01 0.26139951E+03</pdfrwt>
<totfact> 0.16845440E+03</totfact>
</mgrwt>
</event>
<event>
 4    2  0.3992997E+000  0.2163161E+03  0.7546771E-02  0.1136660E+00
         21   -1    0    0  501  502  0.00000000000E+00  0.00000000000E+00  0.11220824025E+04  0.11220824025E+04  0.00000000000E+00 0.  1.
         21   -1    0    0  502  503 -0.00000000000E+00 -0.00000000000E+00 -0.21882198512E+03  0.21882198512E+03  0.00000000000E+00 0. -1.
          6    1    1    2  501    0 -0.86275098100E+02  0.97057932869E+02  0.10548236486E+04  0.10767755404E+04  0.17300000000E+03 0.  1.
         -6    1    1    2    0  503  0.86275098100E+02 -0.97057932869E+02 -0.15156323117E+03  0.26412884721E+03  0.17300000000E+03 0. -1.
<mgrwt>
<rscale>  2 0.21631605E+03</rscale>
<asrwt>0</asrwt>
<pdfrwt beam="1">  1       21 0.17262806E+00 0.21631605E+03</pdfrwt>
<pdfrwt beam="2">  1       21 0.33664921E-01 0.21631605E+03</pdfrwt>
<totfact> 0.16988023E+03</totfact>
</mgrwt>
</event>
<event>
 4    2  0.3992997E+000  0.1943861E+03  0.7546771E-02  0.1154564E+00
         21   -1    0    0  501  502  0.00000000000E+00  0.00000000000E+00  0.58998823038E+03  0.58998823038E+03  0.00000000000E+00 0. -1.
         21   -1    0    0  502  503 -0.00000000000E+00 -0.00000000000E+00 -0.13175130424E+03  0.13175130424E+03  0.00000000000E+00 0. -1.
          6    1    1    2  501    0  0.84675207583E+02 -0.26211826045E+02  0.48781269950E+03  0.52511634939E+03  0.17300000000E+03 0. -1.
         -6    1    1    2    0  503 -0.84675207583E+02  0.26211826045E+02 -0.29575773358E+02  0.19662318524E+03  0.17300000000E+03 0. -1.
<mgrwt>
<rscale>  2 0.19438609E+03</rscale>
<asrwt>0</asrwt>
<pdfrwt beam="1">  1       21 0.90767419E-01 0.19438609E+03</pdfrwt>
<pdfrwt beam="2">  1       21 0.20269432E-01 0.19438609E+03</pdfrwt>
<totfact> 0.23168097E+04</totfact>
</mgrwt>
</event>
<event>
 4    2  0.3992997E+000  0.1757923E+03  0.7546771E-02  0.1171939E+00
         21   -1    0    0  501  502  0.00000000000E+00  0.00000000000E+00  0.18290600545E+03  0.18290600545E+03  0.00000000000E+00 0.  1.
         21   -1    0    0  502  503 -0.00000000000E+00 -0.00000000000E+00 -0.25328171709E+03  0.25328171709E+03  0.00000000000E+00 0.  1.
          6    1    1    2  501    0  0.31204578956E+02  0.44240234314E+00 -0.16102927051E+03  0.23839745684E+03  0.17300000000E+03 0.  1.
         -6    1    1    2    0  503 -0.31204578956E+02 -0.44240234314E+00  0.90653558867E+02  0.19779026569E+03  0.17300000000E+03 0.  1.
<mgrwt>
<rscale>  2 0.17579227E+03</rscale>
<asrwt>0</asrwt>
<pdfrwt beam="1">  1       21 0.28139386E-01 0.17579227E+03</pdfrwt>
<pdfrwt beam="2">  1       21 0.38966418E-01 0.17579227E+03</pdfrwt>
<totfact> 0.77163208E+04</totfact>
</mgrwt>
</event>
<event>
 4    2  0.3992997E+000  0.1732617E+03  0.7546771E-02  0.1174488E+00
         21   -1    0    0  501  502  0.00000000000E+00  0.00000000000E+00  0.66704221816E+02  0.66704221816E+02  0.00000000000E+00 0.  1.
         21   -1    0    0  502  503 -0.00000000000E+00 -0.00000000000E+00 -0.25573798116E+04  0.25573798116E+04  0.00000000000E+00 0.  1.
          6    1    1    2  501    0 -0.88323529366E+01 -0.35513514496E+01 -0.54322527991E+02  0.18157797114E+03  0.17300000000E+03 0.  1.
         -6    1    1    2    0  503  0.88323529366E+01  0.35513514496E+01 -0.24363530618E+04  0.24425060623E+04  0.17300000000E+03 0.  1.
<mgrwt>
<rscale>  2 0.17326172E+03</rscale>
<asrwt>0</asrwt>
<pdfrwt beam="1">  1       21 0.10262190E-01 0.17326172E+03</pdfrwt>
<pdfrwt beam="2">  1       21 0.39344296E+00 0.17326172E+03</pdfrwt>
<totfact> 0.76596171E+02</totfact>
</mgrwt>
</event>
<event>
 4    2  0.3992997E+000  0.1939502E+03  0.7546771E-02  0.1154946E+00
         21   -1    0    0  503  502  0.00000000000E+00  0.00000000000E+00  0.57775185403E+02  0.57775185403E+02  0.00000000000E+00 0.  1.
         21   -1    0    0  501  503 -0.00000000000E+00 -0.00000000000E+00 -0.74398473733E+03  0.74398473733E+03  0.00000000000E+00 0.  1.
          6    1    1    2  501    0 -0.33094889165E+02 -0.81193609307E+02 -0.20144882224E+03  0.27963959280E+03  0.17300000000E+03 0.  1.
         -6    1    1    2    0  502  0.33094889165E+02  0.81193609307E+02 -0.48476072969E+03  0.52212032993E+03  0.17300000000E+03 0.  1.
<mgrwt>
<rscale>  2 0.19395018E+03</rscale>
<asrwt>0</asrwt>
<pdfrwt beam="1">  1       21 0.88884910E-02 0.19395018E+03</pdfrwt>
<pdfrwt beam="2">  1       21 0.11445918E+00 0.19395018E+03</pdfrwt>
<totfact> 0.59173640E+04</totfact>
</mgrwt>
</event>
<event>
 4    2  0.3992997E+000  0.2294126E+03  0.7546771E-02  0.1127054E+00
         21   -1    0    0  501  502  0.00000000000E+00  0.00000000000E+00  0.28716771113E+03  0.28716771113E+03  0.00000000000E+00 0.  1.
         21   -1    0    0  502  503 -0.00000000000E+00 -0.00000000000E+00 -0.21752930573E+03  0.21752930573E+03  0.00000000000E+00 0.  1.
          6    1    1    2  501    0  0.13271921657E+03  0.71321461808E+02  0.13495997550E+03  0.26616599397E+03  0.17300000000E+03 0.  1.
         -6    1    1    2    0  503 -0.13271921657E+03 -0.71321461808E+02 -0.65321570091E+02  0.23853102289E+03  0.17300000000E+03 0.  1.
<mgrwt>
<rscale>  2 0.22941260E+03</rscale>
<asrwt>0</asrwt>
<pdfrwt beam="1">  1       21 0.44179648E-01 0.22941260E+03</pdfrwt>
<pdfrwt beam="2">  1       21 0.33466047E-01 0.22941260E+03</pdfrwt>
<totfact> 0.41568142E+04</totfact>
</mgrwt>
</event>
<event>
 4    2  0.3992997E+000  0.2125775E+03  0.7546771E-02  0.1139541E+00
         21   -1    0    0  501  502  0.00000000000E+00  0.00000000000E+00  0.17722241262E+03  0.17722241262E+03  0.00000000000E+00 0.  1.
         21   -1    0    0  502  503 -0.00000000000E+00 -0.00000000000E+00 -0.74529054765E+03  0.74529054765E+03  0.00000000000E+00 0. -1.
          6    1    1    2  501    0  0.12098127033E+03 -0.24974879663E+02  0.90087451442E+02  0.23087867223E+03  0.17300000000E+03 0.  1.
         -6    1    1    2    0  503 -0.12098127033E+03  0.24974879663E+02 -0.65815558647E+03  0.69163428804E+03  0.17300000000E+03 0.  1.
<mgrwt>
<rscale>  2 0.21257754E+03</rscale>
<asrwt>0</asrwt>
<pdfrwt beam="1">  1       21 0.27264987E-01 0.21257754E+03</pdfrwt>
<pdfrwt beam="2">  1       21 0.11466008E+00 0.21257754E+03</pdfrwt>
<totfact> 0.74630319E+03</totfact>
</mgrwt>
</event>
<event>
 4    2  0.3992997E+000  0.1883916E+03  0.7546771E-02  0.1159920E+00
         21   -1    0    0  503  502  0.00000000000E+00  0.00000000000E+00  0.19075831946E+03  0.19075831946E+03  0.00000000000E+00 0.  1.
         21   -1    0    0  501  503 -0.00000000000E+00 -0.00000000000E+00 -0.29672021132E+03  0.29672021132E+03  0.00000000000E+00 0.  1.
          6    1    1    2  501    0 -0.69424855537E+02 -0.27250187310E+02 -0.20183446113E+03  0.27609515203E+03  0.17300000000E+03 0.  1.
         -6    1    1    2    0  502  0.69424855537E+02  0.27250187310E+02  0.95872569272E+02  0.21138337875E+03  0.17300000000E+03 0.  1.
<mgrwt>
<rscale>  2 0.18839157E+03</rscale>
<asrwt>0</asrwt>
<pdfrwt beam="1">  1       21 0.29347434E-01 0.18839157E+03</pdfrwt>
<pdfrwt beam="2">  1       21 0.45649263E-01 0.18839157E+03</pdfrwt>
<totfact> 0.51277119E+04</totfact>
</mgrwt>
</event>
<event>
 4    2  0.3992997E+000  0.1933574E+03  0.7546771E-02  0.1155468E+00
         21   -1    0    0  501  502  0.00000000000E+00  0.00000000000E+00  0.11263783844E+04  0.11263783844E+04  0.00000000000E+00 0.  1.
         21   -1    0    0  502  503 -0.00000000000E+00 -0.00000000000E+00 -0.43769979926E+02  0.43769979926E+02  0.00000000000E+00 0. -1.
          6    1    1    2  501    0 -0.41992957756E+02 -0.75463133942E+02  0.25368498415E+03  0.31897204308E+03  0.17300000000E+03 0. -1.
         -6    1    1    2    0  503  0.41992957756E+02  0.75463133942E+02  0.82892342035E+03  0.85117632127E+03  0.17300000000E+03 0.  1.
<mgrwt>
<rscale>  2 0.19335742E+03</rscale>
<asrwt>0</asrwt>
<pdfrwt beam="1">  1       21 0.17328896E+00 0.19335742E+03</pdfrwt>
<pdfrwt beam="2">  1       21 0.67338439E-02 0.19335742E+03</pdfrwt>
<totfact> 0.32717622E+04</totfact>
</mgrwt>
</event>
<event>
 4    2  0.3992997E+000  0.2241873E+03  0.7546771E-02  0.1130799E+00
         21   -1    0    0  501  502  0.00000000000E+00  0.00000000000E+00  0.65399867106E+03  0.65399867106E+03  0.00000000000E+00 0. -1.
         21   -1    0    0  502  503 -0.00000000000E+00 -0.00000000000E+00 -0.93885819102E+02  0.93885819102E+02  0.00000000000E+00 0. -1.
          6    1    1    2  501    0 -0.52169845625E+02  0.13269984993E+03  0.12076836950E+03  0.25464670042E+03  0.17300000000E+03 0. -1.
         -6    1    1    2    0  503  0.52169845625E+02 -0.13269984993E+03  0.43934448246E+03  0.49323778974E+03  0.17300000000E+03 0. -1.
<mgrwt>
<rscale>  2 0.22418729E+03</rscale>
<asrwt>0</asrwt>
<pdfrwt beam="1">  1       21 0.10061518E+00 0.22418729E+03</pdfrwt>
<pdfrwt beam="2">  1       21 0.14443973E-01 0.22418729E+03</pdfrwt>
<totfact> 0.33421285E+04</totfact>
</mgrwt>
</event>
<event>
 4    2  0.3992997E+000  0.2114452E+03  0.7546771E-02  0.1140427E+00
         21   -1    0    0  503  502  0.00000000000E+00  0.00000000000E+00  0.13332018112E+04  0.13332018112E+04  0.00000000000E+00 0.  1.
         21   -1    0    0  501  503 -0.00000000000E+00 -0.00000000000E+00 -0.61590183816E+02  0.61590183816E+02  0.00000000000E+00 0. -1.
          6    1    1    2  501    0  0.89913826367E+02 -0.81826484835E+02  0.16512184577E+03  0.26828025224E+03  0.17300000000E+03 0. -1.
         -6    1    1    2    0  502 -0.89913826367E+02  0.81826484835E+02  0.11064897817E+04  0.11265117428E+04  0.17300000000E+03 0.  1.
<mgrwt>
<rscale>  2 0.21144519E+03</rscale>
<asrwt>0</asrwt>
<pdfrwt beam="1">  1       21 0.20510795E+00 0.21144519E+03</pdfrwt>
<pdfrwt beam="2">  1       21 0.94754139E-02 0.21144519E+03</pdfrwt>
<totfact> 0.10945266E+04</totfact>
</mgrwt>
</event>
<event>
 4    2  0.3992997E+000  0.1849892E+03  0.7546771E-02  0.1163060E+00
         21   -1    0    0  501  502  0.00000000000E+00  0.00000000000E+00  0.25808325834E+03  0.25808325834E+03  0.00000000000E+00 0.  1.
         21   -1    0    0  502  503 -0.00000000000E+00 -0.00000000000E+00 -0.27439477610E+03  0.27439477610E+03  0.00000000000E+00 0.  1.
          6    1    1    2  501    0  0.24945027367E+02 -0.60578590779E+02  0.18323402994E+03  0.26037613136E+03  0.17300000000E+03 0.  1.
         -6    1    1    2    0  503 -0.24945027367E+02  0.60578590779E+02 -0.19954554771E+03  0.27210190308E+03  0.17300000000E+03 0.  1.
<mgrwt>
<rscale>  2 0.18498924E+03</rscale>
<asrwt>0</asrwt>
<pdfrwt beam="1">  1       21 0.39705117E-01 0.18498924E+03</pdfrwt>
<pdfrwt beam="2">  1       21 0.42214581E-01 0.18498924E+03</pdfrwt>
<totfact> 0.33148878E+04</totfact>
</mgrwt>
</event>
<event>
 4    2  0.3992997E+000  0.2276490E+03  0.7546771E-02  0.1128306E+00
         21   -1    0    0  501  502  0.00000000000E+00  0.00000000000E+00  0.18337118913E+03  0.18337118913E+03  0.00000000000E+00 0. -1.
         21   -1    0    0  502  503 -0.00000000000E+00 -0.00000000000E+00 -0.40472969372E+03  0.40472969372E+03  0.00000000000E+00 0.  1.
          6    1    1    2  501    0 -0.11905661231E+03 -0.87866872155E+02 -0.27219590087E+03  0.35484457528E+03  0.17300000000E+03 0.  1.
         -6    1    1    2    0  503  0.11905661231E+03  0.87866872155E+02  0.50837396280E+02  0.23325630756E+03  0.17300000000E+03 0. -1.
<mgrwt>
<rscale>  2 0.22764899E+03</rscale>
<asrwt>0</asrwt>
<pdfrwt beam="1">  1       21 0.28210953E-01 0.22764899E+03</pdfrwt>
<pdfrwt beam="2">  1       21 0.62266105E-01 0.22764899E+03</pdfrwt>
<totfact> 0.28193674E+04</totfact>
</mgrwt>
</event>
<event>
 4    2  0.3992997E+000  0.2045380E+03  0.7546771E-02  0.1145966E+00
         21   -1    0    0  503  502  0.00000000000E+00  0.00000000000E+00  0.83364381646E+02  0.83364381646E+02  0.00000000000E+00 0. -1.
         21   -1    0    0  501  503 -0.00000000000E+00 -0.00000000000E+00 -0.61595284047E+03  0.61595284047E+03  0.00000000000E+00 0. -1.
          6    1    1    2  501    0 -0.82128382917E+02 -0.71845085265E+02 -0.41679303262E+03  0.46427601661E+03  0.17300000000E+03 0. -1.
         -6    1    1    2    0  502  0.82128382917E+02  0.71845085265E+02 -0.11579542621E+03  0.23504120551E+03  0.17300000000E+03 0. -1.
<mgrwt>
<rscale>  2 0.20453799E+03</rscale>
<asrwt>0</asrwt>
<pdfrwt beam="1">  1       21 0.12825289E-01 0.20453799E+03</pdfrwt>
<pdfrwt beam="2">  1       21 0.94761977E-01 0.20453799E+03</pdfrwt>
<totfact> 0.48236767E+04</totfact>
</mgrwt>
</event>
<event>
 4    2  0.3992997E+000  0.1932693E+03  0.7546771E-02  0.1155545E+00
         21   -1    0    0  503  502  0.00000000000E+00  0.00000000000E+00  0.29717966873E+03  0.29717966873E+03  0.00000000000E+00 0.  1.
         21   -1    0    0  501  503 -0.00000000000E+00 -0.00000000000E+00 -0.18650617245E+03  0.18650617245E+03  0.00000000000E+00 0. -1.
          6    1    1    2  501    0  0.86103743849E+02  0.31892437012E+01 -0.82762128990E+02  0.21024413422E+03  0.17300000000E+03 0. -1.
         -6    1    1    2    0  502 -0.86103743849E+02 -0.31892437012E+01  0.19343562527E+03  0.27344170695E+03  0.17300000000E+03 0.  1.
<mgrwt>
<rscale>  2 0.19326931E+03</rscale>
<asrwt>0</asrwt>
<pdfrwt beam="1">  1       21 0.45719949E-01 0.19326931E+03</pdfrwt>
<pdfrwt beam="2">  1       21 0.28693257E-01 0.19326931E+03</pdfrwt>
<totfact> 0.53283297E+04</totfact>
</mgrwt>
</event>
<event>
 4    2  0.3992997E+000  0.1976228E+03  0.7546771E-02  0.1151760E+00
         21   -1    0    0  503  502  0.00000000000E+00  0.00000000000E+00  0.49487400949E+03  0.49487400949E+03  0.00000000000E+00 0.  1.
         21   -1    0    0  501  503 -0.00000000000E+00 -0.00000000000E+00 -0.80866355892E+02  0.80866355892E+02  0.00000000000E+00 0.  1.
          6    1    1    2  501    0 -0.65270507871E+02  0.69753340749E+02  0.16232732416E+03  0.25574387170E+03  0.17300000000E+03 0.  1.
         -6    1    1    2    0  502  0.65270507871E+02 -0.69753340749E+02  0.25168032944E+03  0.31999649368E+03  0.17300000000E+03 0.  1.
<mgrwt>
<rscale>  2 0.19762279E+03</rscale>
<asrwt>0</asrwt>
<pdfrwt beam="1">  1       21 0.76134461E-01 0.19762279E+03</pdfrwt>
<pdfrwt beam="2">  1       21 0.12440978E-01 0.19762279E+03</pdfrwt>
<totfact> 0.84390036E+04</totfact>
</mgrwt>
</event>
<event>
 4    2  0.3992997E+000  0.2324913E+03  0.7546771E-02  0.1124898E+00
         21   -1    0    0  501  502  0.00000000000E+00  0.00000000000E+00  0.40907936145E+03  0.40907936145E+03  0.00000000000E+00 0. -1.
         21   -1    0    0  502  503 -0.00000000000E+00 -0.00000000000E+00 -0.30969244417E+03  0.30969244417E+03  0.00000000000E+00 0.  1.
          6    1    1    2  501    0  0.14554702841E+03 -0.54215011381E+02 -0.22243229766E+03  0.32175818868E+03  0.17300000000E+03 0.  1.
         -6    1    1    2    0  503 -0.14554702841E+03  0.54215011381E+02  0.32181921494E+03  0.39701361695E+03  0.17300000000E+03 0. -1.
<mgrwt>
<rscale>  2 0.23249130E+03</rscale>
<asrwt>0</asrwt>
<pdfrwt beam="1">  1       21 0.62935287E-01 0.23249130E+03</pdfrwt>
<pdfrwt beam="2">  1       21 0.47644991E-01 0.23249130E+03</pdfrwt>
<totfact> 0.95933286E+03</totfact>
</mgrwt>
</event>
<event>
 4    2  0.3992997E+000  0.2622976E+03  0.7546771E-02  0.1105771E+00
         21   -1    0    0  503  502  0.00000000000E+00  0.00000000000E+00  0.30418806513E+03  0.30418806513E+03  0.00000000000E+00 0. -1.
         21   -1    0    0  501  503 -0.00000000000E+00 -0.00000000000E+00 -0.31216583375E+03  0.31216583375E+03  0.00000000000E+00 0.  1.
          6    1    1    2  501    0  0.18544862545E+03  0.66931440609E+02 -0.16573403409E+03  0.31027049567E+03  0.17300000000E+03 0.  1.
         -6    1    1    2    0  502 -0.18544862545E+03 -0.66931440609E+02  0.15775626547E+03  0.30608340321E+03  0.17300000000E+03 0. -1.
<mgrwt>
<rscale>  2 0.26229756E+03</rscale>
<asrwt>0</asrwt>
<pdfrwt beam="1">  1       21 0.46798164E-01 0.26229756E+03</pdfrwt>
<pdfrwt beam="2">  1       21 0.48025513E-01 0.26229756E+03</pdfrwt>
<totfact> 0.17436577E+04</totfact>
</mgrwt>
</event>
<event>
 4    2  0.3992997E+000  0.1853812E+03  0.7546771E-02  0.1162694E+00
         21   -1    0    0  501  502  0.00000000000E+00  0.00000000000E+00  0.83809987580E+02  0.83809987580E+02  0.00000000000E+00 0.  1.
         21   -1    0    0  502  503 -0.00000000000E+00 -0.00000000000E+00 -0.78701275283E+03  0.78701275283E+03  0.00000000000E+00 0.  1.
          6    1    1    2  501    0 -0.56356837362E+02 -0.35511988648E+02 -0.50260034901E+02  0.19207359413E+03  0.17300000000E+03 0.  1.
         -6    1    1    2    0  503  0.56356837362E+02  0.35511988648E+02 -0.65294273035E+03  0.67874914627E+03  0.17300000000E+03 0.  1.
<mgrwt>
<rscale>  2 0.18538121E+03</rscale>
<asrwt>0</asrwt>
<pdfrwt beam="1">  1       21 0.12893844E-01 0.18538121E+03</pdfrwt>
<pdfrwt beam="2">  1       21 0.12107888E+00 0.18538121E+03</pdfrwt>
<totfact> 0.26759950E+04</totfact>
</mgrwt>
</event>
<event>
 4    2  0.3992997E+000  0.2292519E+03  0.7546771E-02  0.1127167E+00
         21   -1    0    0  501  502  0.00000000000E+00  0.00000000000E+00  0.21946371129E+03  0.21946371129E+03  0.00000000000E+00 0.  1.
         21   -1    0    0  502  503 -0.00000000000E+00 -0.00000000000E+00 -0.27724327118E+03  0.27724327118E+03  0.00000000000E+00 0.  1.
          6    1    1    2  501    0  0.23114626535E+02  0.14863770043E+03 -0.12055263241E+03  0.25901619472E+03  0.17300000000E+03 0.  1.
         -6    1    1    2    0  503 -0.23114626535E+02 -0.14863770043E+03  0.62773072514E+02  0.23769078775E+03  0.17300000000E+03 0.  1.
<mgrwt>
<rscale>  2 0.22925194E+03</rscale>
<asrwt>0</asrwt>
<pdfrwt beam="1">  1       21 0.33763648E-01 0.22925194E+03</pdfrwt>
<pdfrwt beam="2">  1       21 0.42652811E-01 0.22925194E+03</pdfrwt>
<totfact> 0.43904743E+04</totfact>
</mgrwt>
</event>
<event>
 4    2  0.3992997E+000  0.2228666E+03  0.7546771E-02  0.1131764E+00
         21   -1    0    0  501  502  0.00000000000E+00  0.00000000000E+00  0.19065757223E+03  0.19065757223E+03  0.00000000000E+00 0.  1.
         21   -1    0    0  502  503 -0.00000000000E+00 -0.00000000000E+00 -0.40703352711E+03  0.40703352711E+03  0.00000000000E+00 0. -1.
          6    1    1    2  501    0 -0.13275852690E+03  0.45996535452E+02  0.71109942057E+02  0.23393616992E+03  0.17300000000E+03 0.  1.
         -6    1    1    2    0  503  0.13275852690E+03 -0.45996535452E+02 -0.28748589694E+03  0.36375492942E+03  0.17300000000E+03 0. -1.
<mgrwt>
<rscale>  2 0.22286657E+03</rscale>
<asrwt>0</asrwt>
<pdfrwt beam="1">  1       21 0.29331934E-01 0.22286657E+03</pdfrwt>
<pdfrwt beam="2">  1       21 0.62620542E-01 0.22286657E+03</pdfrwt>
<totfact> 0.25876523E+04</totfact>
</mgrwt>
</event>
<event>
 4    2  0.3992997E+000  0.2282397E+03  0.7546771E-02  0.1127885E+00
         21   -1    0    0  501  502  0.00000000000E+00  0.00000000000E+00  0.77018680568E+02  0.77018680568E+02  0.00000000000E+00 0.  1.
         21   -1    0    0  502  503 -0.00000000000E+00 -0.00000000000E+00 -0.80911745841E+03  0.80911745841E+03  0.00000000000E+00 0.  1.
          6    1    1    2  501    0  0.19924033680E+02  0.14753772689E+03 -0.18658716802E+03  0.29480183046E+03  0.17300000000E+03 0.  1.
         -6    1    1    2    0  503 -0.19924033680E+02 -0.14753772689E+03 -0.54551160982E+03  0.59133430852E+03  0.17300000000E+03 0.  1.
<mgrwt>
<rscale>  2 0.22823967E+03</rscale>
<asrwt>0</asrwt>
<pdfrwt beam="1">  1       21 0.11849028E-01 0.22823967E+03</pdfrwt>
<pdfrwt beam="2">  1       21 0.12447961E+00 0.22823967E+03</pdfrwt>
<totfact> 0.28348779E+04</totfact>
</mgrwt>
</event>
<event>
 4    2  0.3992997E+000  0.1864339E+03  0.7546771E-02  0.1161718E+00
         21   -1    0    0  501  502  0.00000000000E+00  0.00000000000E+00  0.51996790178E+02  0.51996790178E+02  0.00000000000E+00 0.  1.
         21   -1    0    0  502  503 -0.00000000000E+00 -0.00000000000E+00 -0.67510930405E+03  0.67510930405E+03  0.00000000000E+00 0.  1.
          6    1    1    2  501    0  0.74144213050E+01  0.69091408339E+02 -0.27546677793E+03  0.33262522768E+03  0.17300000000E+03 0.  1.
         -6    1    1    2    0  503 -0.74144213050E+01 -0.69091408339E+02 -0.34764573594E+03  0.39448086654E+03  0.17300000000E+03 0.  1.
<mgrwt>
<rscale>  2 0.18643389E+03</rscale>
<asrwt>0</asrwt>
<pdfrwt beam="1">  1       21 0.79995063E-02 0.18643389E+03</pdfrwt>
<pdfrwt beam="2">  1       21 0.10386297E+00 0.18643389E+03</pdfrwt>
<totfact> 0.90243393E+04</totfact>
</mgrwt>
</event>
<event>
 4    2  0.3992997E+000  0.1876977E+03  0.7546771E-02  0.1160554E+00
         21   -1    0    0  501  502  0.00000000000E+00  0.00000000000E+00  0.80837462677E+02  0.80837462677E+02  0.00000000000E+00 0. -1.
         21   -1    0    0  502  503 -0.00000000000E+00 -0.00000000000E+00 -0.46671191435E+03  0.46671191435E+03  0.00000000000E+00 0. -1.
          6    1    1    2  501    0  0.64212543687E+02 -0.34324374688E+02 -0.26337506115E+03  0.32341434152E+03  0.17300000000E+03 0. -1.
         -6    1    1    2    0  503 -0.64212543687E+02  0.34324374688E+02 -0.12249939053E+03  0.22413503551E+03  0.17300000000E+03 0. -1.
<mgrwt>
<rscale>  2 0.18769767E+03</rscale>
<asrwt>0</asrwt>
<pdfrwt beam="1">  1       21 0.12436533E-01 0.18769767E+03</pdfrwt>
<pdfrwt beam="2">  1       21 0.71801833E-01 0.18769767E+03</pdfrwt>
<totfact> 0.96608415E+04</totfact>
</mgrwt>
</event>
<event>
 4    2  0.3992997E+000  0.2414293E+03  0.7546771E-02  0.1118844E+00
         21   -1    0    0  501  502  0.00000000000E+00  0.00000000000E+00  0.29629010779E+03  0.29629010779E+03  0.00000000000E+00 0.  1.
         21   -1    0    0  502  503 -0.00000000000E+00 -0.00000000000E+00 -0.59752019086E+03  0.59752019086E+03  0.00000000000E+00 0. -1.
          6    1    1    2  501    0 -0.16692067507E+03  0.22284919850E+02  0.21540046044E+03  0.32355136807E+03  0.17300000000E+03 0.  1.
         -6    1    1    2    0  503  0.16692067507E+03 -0.22284919850E+02 -0.51663054351E+03  0.57025893058E+03  0.17300000000E+03 0. -1.
<mgrwt>
<rscale>  2 0.24142935E+03</rscale>
<asrwt>0</asrwt>
<pdfrwt beam="1">  1       21 0.45583094E-01 0.24142935E+03</pdfrwt>
<pdfrwt beam="2">  1       21 0.91926183E-01 0.24142935E+03</pdfrwt>
<totfact> 0.44530341E+03</totfact>
</mgrwt>
</event>
<event>
 4    2  0.3992997E+000  0.1865463E+03  0.7546771E-02  0.1161614E+00
         21   -1    0    0  501  502  0.00000000000E+00  0.00000000000E+00  0.17206092559E+04  0.17206092559E+04  0.00000000000E+00 0. -1.
         21   -1    0    0  502  503 -0.00000000000E+00 -0.00000000000E+00 -0.66016014454E+02  0.66016014454E+02  0.00000000000E+00 0.  1.
          6    1    1    2  501    0  0.31705865086E+02  0.62171338873E+02  0.15712887923E+04  0.15823236098E+04  0.17300000000E+03 0. -1.
         -6    1    1    2    0  503 -0.31705865086E+02 -0.62171338873E+02  0.83304449113E+02  0.20430166054E+03  0.17300000000E+03 0.  1.
<mgrwt>
<rscale>  2 0.18654634E+03</rscale>
<asrwt>0</asrwt>
<pdfrwt beam="1">  1       21 0.26470908E+00 0.18654634E+03</pdfrwt>
<pdfrwt beam="2">  1       21 0.10156311E-01 0.18654634E+03</pdfrwt>
<totfact> 0.43365858E+03</totfact>
</mgrwt>
</event>
<event>
 4    2  0.3992997E+000  0.2205891E+03  0.7546771E-02  0.1133445E+00
         21   -1    0    0  501  502  0.00000000000E+00  0.00000000000E+00  0.31084331231E+03  0.31084331231E+03  0.00000000000E+00 0. -1.
         21   -1    0    0  502  503 -0.00000000000E+00 -0.00000000000E+00 -0.33173523690E+03  0.33173523690E+03  0.00000000000E+00 0. -1.
          6    1    1    2  501    0  0.13196405952E+03 -0.36277423647E+02  0.22304010244E+03  0.31369802640E+03  0.17300000000E+03 0. -1.
         -6    1    1    2    0  503 -0.13196405952E+03  0.36277423647E+02 -0.24393202703E+03  0.32888052281E+03  0.17300000000E+03 0. -1.
<mgrwt>
<rscale>  2 0.22058913E+03</rscale>
<asrwt>0</asrwt>
<pdfrwt beam="1">  1       21 0.47822048E-01 0.22058913E+03</pdfrwt>
<pdfrwt beam="2">  1       21 0.51036190E-01 0.22058913E+03</pdfrwt>
<totfact> 0.14999110E+04</totfact>
</mgrwt>
</event>
<event>
 4    2  0.3992997E+000  0.1879293E+03  0.7546771E-02  0.1160342E+00
         21   -1    0    0  503  502  0.00000000000E+00  0.00000000000E+00  0.68591451832E+02  0.68591451832E+02  0.00000000000E+00 0.  1.
         21   -1    0    0  501  503 -0.00000000000E+00 -0.00000000000E+00 -0.51499476382E+03  0.51499476382E+03  0.00000000000E+00 0.  1.
          6    1    1    2  501    0 -0.71265985181E+02 -0.17594703680E+02 -0.22725737187E+03  0.29489545149E+03  0.17300000000E+03 0.  1.
         -6    1    1    2    0  502  0.71265985181E+02  0.17594703680E+02 -0.21914594012E+03  0.28869076417E+03  0.17300000000E+03 0.  1.
<mgrwt>
<rscale>  2 0.18792928E+03</rscale>
<asrwt>0</asrwt>
<pdfrwt beam="1">  1       21 0.10552531E-01 0.18792928E+03</pdfrwt>
<pdfrwt beam="2">  1       21 0.79229964E-01 0.18792928E+03</pdfrwt>
<totfact> 0.10390171E+05</totfact>
</mgrwt>
</event>
<event>
 4    2  0.3992997E+000  0.1926055E+03  0.7546771E-02  0.1156132E+00
         21   -1    0    0  503  502  0.00000000000E+00  0.00000000000E+00  0.44319085901E+03  0.44319085901E+03  0.00000000000E+00 0. -1.
         21   -1    0    0  501  503 -0.00000000000E+00 -0.00000000000E+00 -0.10626403082E+03  0.10626403082E+03  0.00000000000E+00 0. -1.
          6    1    1    2  501    0  0.69367118545E+01  0.84378598664E+02  0.41879548818E+02  0.19710596767E+03  0.17300000000E+03 0. -1.
         -6    1    1    2    0  502 -0.69367118545E+01 -0.84378598664E+02  0.29504727937E+03  0.35234892216E+03  0.17300000000E+03 0. -1.
<mgrwt>
<rscale>  2 0.19260547E+03</rscale>
<asrwt>0</asrwt>
<pdfrwt beam="1">  1       21 0.68183208E-01 0.19260547E+03</pdfrwt>
<pdfrwt beam="2">  1       21 0.16348313E-01 0.19260547E+03</pdfrwt>
<totfact> 0.65812044E+04</totfact>
</mgrwt>
</event>
<event>
 4    2  0.3992997E+000  0.2010720E+03  0.7546771E-02  0.1148838E+00
         21   -1    0    0  503  502  0.00000000000E+00  0.00000000000E+00  0.14662819726E+03  0.14662819726E+03  0.00000000000E+00 0. -1.
         21   -1    0    0  501  503 -0.00000000000E+00 -0.00000000000E+00 -0.31665847963E+03  0.31665847963E+03  0.00000000000E+00 0. -1.
          6    1    1    2  501    0 -0.10101267491E+03 -0.17245027040E+02 -0.16829333950E+03  0.26220716918E+03  0.17300000000E+03 0. -1.
         -6    1    1    2    0  502  0.10101267491E+03  0.17245027040E+02 -0.17369428706E+01  0.20107950771E+03  0.17300000000E+03 0. -1.
<mgrwt>
<rscale>  2 0.20107201E+03</rscale>
<asrwt>0</asrwt>
<pdfrwt beam="1">  1       21 0.22558184E-01 0.20107201E+03</pdfrwt>
<pdfrwt beam="2">  1       21 0.48716689E-01 0.20107201E+03</pdfrwt>
<totfact> 0.73782039E+04</totfact>
</mgrwt>
</event>
<event>
 4    2  0.3992997E+000  0.1761883E+03  0.7546771E-02  0.1171544E+00
         21   -1    0    0  503  502  0.00000000000E+00  0.00000000000E+00  0.46825065159E+02  0.46825065159E+02  0.00000000000E+00 0. -1.
         21   -1    0    0  501  503 -0.00000000000E+00 -0.00000000000E+00 -0.68346422979E+03  0.68346422979E+03  0.00000000000E+00 0. -1.
          6    1    1    2  501    0 -0.22407730901E+02  0.24722654435E+02 -0.25504690360E+03  0.30998586917E+03  0.17300000000E+03 0. -1.
         -6    1    1    2    0  502  0.22407730901E+02 -0.24722654435E+02 -0.38159226103E+03  0.42030342578E+03  0.17300000000E+03 0. -1.
<mgrwt>
<rscale>  2 0.17618830E+03</rscale>
<asrwt>0</asrwt>
<pdfrwt beam="1">  1       21 0.72038561E-02 0.17618830E+03</pdfrwt>
<pdfrwt beam="2">  1       21 0.10514834E+00 0.17618830E+03</pdfrwt>
<totfact> 0.10552533E+05</totfact>
</mgrwt>
</event>
<event>
 4    2  0.3992997E+000  0.1923084E+03  0.7546771E-02  0.1156396E+00
         21   -1    0    0  501  502  0.00000000000E+00  0.00000000000E+00  0.85602814776E+02  0.85602814776E+02  0.00000000000E+00 0. -1.
         21   -1    0    0  502  503 -0.00000000000E+00 -0.00000000000E+00 -0.70328415753E+03  0.70328415753E+03  0.00000000000E+00 0. -1.
          6    1    1    2  501    0  0.10643506608E+02  0.83307982725E+02 -0.63871146243E+02  0.20263767552E+03  0.17300000000E+03 0. -1.
         -6    1    1    2    0  503 -0.10643506608E+02 -0.83307982725E+02 -0.55381019651E+03  0.58624929678E+03  0.17300000000E+03 0. -1.
<mgrwt>
<rscale>  2 0.19230836E+03</rscale>
<asrwt>0</asrwt>
<pdfrwt beam="1">  1       21 0.13169663E-01 0.19230836E+03</pdfrwt>
<pdfrwt beam="2">  1       21 0.10819757E+00 0.19230836E+03</pdfrwt>
<totfact> 0.33760716E+04</totfact>
</mgrwt>
</event>
<event>
 4    2  0.3992997E+000  0.2671403E+03  0.7546771E-02  0.1102928E+00
         21   -1    0    0  503  502  0.00000000000E+00  0.00000000000E+00  0.13876499399E+04  0.13876499399E+04  0.00000000000E+00 0. -1.
         21   -1    0    0  501  503 -0.00000000000E+00 -0.00000000000E+00 -0.89827376460E+02  0.89827376460E+02  0.00000000000E+00 0. -1.
          6    1    1    2  501    0 -0.13818991312E+03  0.14946067252E+03  0.16590917076E+03  0.31446748268E+03  0.17300000000E+03 0. -1.
         -6    1    1    2    0  502  0.13818991312E+03 -0.14946067252E+03  0.11319133927E+04  0.11630098337E+04  0.17300000000E+03 0. -1.
<mgrwt>
<rscale>  2 0.26714031E+03</rscale>
<asrwt>0</asrwt>
<pdfrwt beam="1">  1       21 0.21348459E+00 0.26714031E+03</pdfrwt>
<pdfrwt beam="2">  1       21 0.13819597E-01 0.26714031E+03</pdfrwt>
<totfact> 0.47239911E+03</totfact>
</mgrwt>
</event>
<event>
 4    2  0.3992997E+000  0.2272705E+03  0.7546771E-02  0.1128576E+00
         21   -1    0    0  503  502  0.00000000000E+00  0.00000000000E+00  0.14122819374E+03  0.14122819374E+03  0.00000000000E+00 0.  1.
         21   -1    0    0  501  503 -0.00000000000E+00 -0.00000000000E+00 -0.43270788880E+03  0.43270788880E+03  0.00000000000E+00 0. -1.
          6    1    1    2  501    0 -0.11869433629E+03 -0.87375942614E+02 -0.25863883972E+03  0.34430502498E+03  0.17300000000E+03 0. -1.
         -6    1    1    2    0  502  0.11869433629E+03  0.87375942614E+02 -0.32840855335E+02  0.22963105755E+03  0.17300000000E+03 0.  1.
<mgrwt>
<rscale>  2 0.22727055E+03</rscale>
<asrwt>0</asrwt>
<pdfrwt beam="1">  1       21 0.21727414E-01 0.22727055E+03</pdfrwt>
<pdfrwt beam="2">  1       21 0.66570444E-01 0.22727055E+03</pdfrwt>
<totfact> 0.40188462E+04</totfact>
</mgrwt>
</event>
<event>
 4    2  0.3992997E+000  0.2282329E+03  0.7546771E-02  0.1127890E+00
         21   -1    0    0  501  502  0.00000000000E+00  0.00000000000E+00  0.51461118951E+02  0.51461118951E+02  0.00000000000E+00 0. -1.
         21   -1    0    0  502  503 -0.00000000000E+00 -0.00000000000E+00 -0.11253149865E+04  0.11253149865E+04  0.00000000000E+00 0. -1.
          6    1    1    2  501    0 -0.11480054391E+03 -0.94773833639E+02 -0.35040136433E+03  0.41817623145E+03  0.17300000000E+03 0. -1.
         -6    1    1    2    0  503  0.11480054391E+03  0.94773833639E+02 -0.72345250326E+03  0.75859987404E+03  0.17300000000E+03 0. -1.
<mgrwt>
<rscale>  2 0.22823287E+03</rscale>
<asrwt>0</asrwt>
<pdfrwt beam="1">  1       21 0.79170950E-02 0.22823287E+03</pdfrwt>
<pdfrwt beam="2">  1       21 0.17312539E+00 0.22823287E+03</pdfrwt>
<totfact> 0.24224197E+04</totfact>
</mgrwt>
</event>
<event>
 4    2  0.3992997E+000  0.1733965E+03  0.7546771E-02  0.1174351E+00
         21   -1    0    0  501  502  0.00000000000E+00  0.00000000000E+00  0.45817361789E+03  0.45817361789E+03  0.00000000000E+00 0. -1.
         21   -1    0    0  502  503 -0.00000000000E+00 -0.00000000000E+00 -0.13491866402E+03  0.13491866402E+03  0.00000000000E+00 0. -1.
          6    1    1    2  501    0  0.61083312199E+01  0.10000870396E+02  0.37415345063E+03  0.41237984158E+03  0.17300000000E+03 0. -1.
         -6    1    1    2    0  503 -0.61083312199E+01 -0.10000870396E+02 -0.50898496768E+02  0.18071244034E+03  0.17300000000E+03 0. -1.
<mgrwt>
<rscale>  2 0.17339645E+03</rscale>
<asrwt>0</asrwt>
<pdfrwt beam="1">  1       21 0.70488248E-01 0.17339645E+03</pdfrwt>
<pdfrwt beam="2">  1       21 0.20756718E-01 0.17339645E+03</pdfrwt>
<totfact> 0.39685504E+04</totfact>
</mgrwt>
</event>
<event>
 4    2  0.3992997E+000  0.2249440E+03  0.7546771E-02  0.1130250E+00
         21   -1    0    0  501  502  0.00000000000E+00  0.00000000000E+00  0.59625033321E+02  0.59625033321E+02  0.00000000000E+00 0. -1.
         21   -1    0    0  502  503 -0.00000000000E+00 -0.00000000000E+00 -0.10103656206E+04  0.10103656206E+04  0.00000000000E+00 0. -1.
          6    1    1    2  501    0  0.12959440425E+03  0.62258350997E+02 -0.26132356362E+03  0.34480402663E+03  0.17300000000E+03 0. -1.
         -6    1    1    2    0  503 -0.12959440425E+03 -0.62258350997E+02 -0.68941702364E+03  0.72518662726E+03  0.17300000000E+03 0. -1.
<mgrwt>
<rscale>  2 0.22494402E+03</rscale>
<asrwt>0</asrwt>
<pdfrwt beam="1">  1       21 0.91730825E-02 0.22494402E+03</pdfrwt>
<pdfrwt beam="2">  1       21 0.15544086E+00 0.22494402E+03</pdfrwt>
<totfact> 0.25180081E+04</totfact>
</mgrwt>
</event>
<event>
 4    2  0.3992997E+000  0.3691372E+03  0.7546771E-02  0.1055023E+00
         21   -1    0    0  501  502  0.00000000000E+00  0.00000000000E+00  0.23433053955E+03  0.23433053955E+03  0.00000000000E+00 0.  1.
         21   -1    0    0  502  503 -0.00000000000E+00 -0.00000000000E+00 -0.10675129706E+04  0.10675129706E+04  0.00000000000E+00 0.  1.
          6    1    1    2  501    0 -0.31652063380E+03  0.78408807011E+02  0.22614476001E+02  0.36982924054E+03  0.17300000000E+03 0.  1.
         -6    1    1    2    0  503  0.31652063380E+03 -0.78408807011E+02 -0.85579690706E+03  0.93201426962E+03  0.17300000000E+03 0.  1.
<mgrwt>
<rscale>  2 0.36913717E+03</rscale>
<asrwt>0</asrwt>
<pdfrwt beam="1">  1       21 0.36050852E-01 0.36913717E+03</pdfrwt>
<pdfrwt beam="2">  1       21 0.16423277E+00 0.36913717E+03</pdfrwt>
<totfact> 0.15329902E+03</totfact>
</mgrwt>
</event>
<event>
 4    2  0.3992997E+000  0.1756509E+03  0.7546771E-02  0.1172080E+00
         21   -1    0    0  503  502  0.00000000000E+00  0.00000000000E+00  0.61428054069E+03  0.61428054069E+03  0.00000000000E+00 0. -1.
         21   -1    0    0  501  503 -0.00000000000E+00 -0.00000000000E+00 -0.94529541807E+02  0.94529541807E+02  0.00000000000E+00 0. -1.
          6    1    1    2  501    0  0.75061084603E+01 -0.29459984901E+02  0.17252301721E+02  0.17649610276E+03  0.17300000000E+03 0. -1.
         -6    1    1    2    0  502 -0.75061084603E+01  0.29459984901E+02  0.50249869716E+03  0.53231397974E+03  0.17300000000E+03 0. -1.
<mgrwt>
<rscale>  2 0.17565088E+03</rscale>
<asrwt>0</asrwt>
<pdfrwt beam="1">  1       21 0.94504696E-01 0.17565088E+03</pdfrwt>
<pdfrwt beam="2">  1       21 0.14543007E-01 0.17565088E+03</pdfrwt>
<totfact> 0.39268374E+04</totfact>
</mgrwt>
</event>
<event>
 4    2  0.3992997E+000  0.5477962E+03  0.7546771E-02  0.1002005E+00
         21   -1    0    0  501  502  0.00000000000E+00  0.00000000000E+00  0.56274507257E+03  0.56274507257E+03  0.00000000000E+00 0.  1.
         21   -1    0    0  502  503 -0.00000000000E+00 -0.00000000000E+00 -0.22359242336E+04  0.22359242336E+04  0.00000000000E+00 0. -1.
          6    1    1    2  501    0 -0.42927840519E+03  0.29303879523E+03  0.38453377534E+03  0.66928836016E+03  0.17300000000E+03 0.  1.
         -6    1    1    2    0  503  0.42927840519E+03 -0.29303879523E+03 -0.20577129363E+04  0.21293809460E+04  0.17300000000E+03 0. -1.
<mgrwt>
<rscale>  2 0.54779621E+03</rscale>
<asrwt>0</asrwt>
<pdfrwt beam="1">  1       21 0.86576165E-01 0.54779621E+03</pdfrwt>
<pdfrwt beam="2">  1       21 0.34398835E+00 0.54779621E+03</pdfrwt>
<totfact> 0.14973578E+01</totfact>
</mgrwt>
</event>
<event>
 4    2  0.3992997E+000  0.2191752E+03  0.7546771E-02  0.1134499E+00
         21   -1    0    0  501  502  0.00000000000E+00  0.00000000000E+00  0.17822424011E+03  0.17822424011E+03  0.00000000000E+00 0.  1.
         21   -1    0    0  502  503 -0.00000000000E+00 -0.00000000000E+00 -0.40790103400E+03  0.40790103400E+03  0.00000000000E+00 0. -1.
          6    1    1    2  501    0 -0.75478935167E+02  0.11140775463E+03  0.55847261336E+02  0.22617841198E+03  0.17300000000E+03 0.  1.
         -6    1    1    2    0  503  0.75478935167E+02 -0.11140775463E+03 -0.28552405523E+03  0.35994686213E+03  0.17300000000E+03 0. -1.
<mgrwt>
<rscale>  2 0.21917518E+03</rscale>
<asrwt>0</asrwt>
<pdfrwt beam="1">  1       21 0.27419114E-01 0.21917518E+03</pdfrwt>
<pdfrwt beam="2">  1       21 0.62754005E-01 0.21917518E+03</pdfrwt>
<totfact> 0.29419281E+04</totfact>
</mgrwt>
</event>
<event>
 4    2  0.3992997E+000  0.1896754E+03  0.7546771E-02  0.1158754E+00
         21   -1    0    0  501  502  0.00000000000E+00  0.00000000000E+00  0.17660146894E+03  0.17660146894E+03  0.00000000000E+00 0.  1.
         21   -1    0    0  502  503 -0.00000000000E+00 -0.00000000000E+00 -0.42382562733E+03  0.42382562733E+03  0.00000000000E+00 0.  1.
          6    1    1    2  501    0 -0.16650205111E+02  0.75963906587E+02  0.92737016798E+02  0.21113241987E+03  0.17300000000E+03 0.  1.
         -6    1    1    2    0  503  0.16650205111E+02 -0.75963906587E+02 -0.33996117519E+03  0.38929467639E+03  0.17300000000E+03 0.  1.
<mgrwt>
<rscale>  2 0.18967537E+03</rscale>
<asrwt>0</asrwt>
<pdfrwt beam="1">  1       21 0.27169457E-01 0.18967537E+03</pdfrwt>
<pdfrwt beam="2">  1       21 0.65203942E-01 0.18967537E+03</pdfrwt>
<totfact> 0.27998382E+04</totfact>
</mgrwt>
</event>
<event>
 4    2  0.3992997E+000  0.2243556E+03  0.7546771E-02  0.1130677E+00
         21   -1    0    0  503  502  0.00000000000E+00  0.00000000000E+00  0.52436801667E+03  0.52436801667E+03  0.00000000000E+00 0.  1.
         21   -1    0    0  501  503 -0.00000000000E+00 -0.00000000000E+00 -0.98124299806E+02  0.98124299806E+02  0.00000000000E+00 0. -1.
          6    1    1    2  501    0  0.10059892444E+03 -0.10142142971E+03  0.25899712445E+03  0.34265866468E+03  0.17300000000E+03 0.  1.
         -6    1    1    2    0  502 -0.10059892444E+03  0.10142142971E+03  0.16724659241E+03  0.27983365179E+03  0.17300000000E+03 0. -1.
<mgrwt>
<rscale>  2 0.22435563E+03</rscale>
<asrwt>0</asrwt>
<pdfrwt beam="1">  1       21 0.80672001E-01 0.22435563E+03</pdfrwt>
<pdfrwt beam="2">  1       21 0.15096046E-01 0.22435563E+03</pdfrwt>
<totfact> 0.51542704E+04</totfact>
</mgrwt>
</event>
<event>
 4    2  0.3992997E+000  0.1811386E+03  0.7546771E-02  0.1166706E+00
         21   -1    0    0  503  502  0.00000000000E+00  0.00000000000E+00  0.23605786816E+04  0.23605786816E+04  0.00000000000E+00 0. -1.
         21   -1    0    0  501  503 -0.00000000000E+00 -0.00000000000E+00 -0.13909603170E+02  0.13909603170E+02  0.00000000000E+00 0. -1.
          6    1    1    2  501    0  0.50706754335E+02  0.17635273207E+02  0.12051200910E+04  0.12186572986E+04  0.17300000000E+03 0. -1.
         -6    1    1    2    0  502 -0.50706754335E+02 -0.17635273207E+02  0.11415489874E+04  0.11558309861E+04  0.17300000000E+03 0. -1.
<mgrwt>
<rscale>  2 0.18113856E+03</rscale>
<asrwt>0</asrwt>
<pdfrwt beam="1">  1       21 0.36316563E+00 0.18113856E+03</pdfrwt>
<pdfrwt beam="2">  1       21 0.21399408E-02 0.18113856E+03</pdfrwt>
<totfact> 0.16327903E+04</totfact>
</mgrwt>
</event>
<event>
 4    2  0.3992997E+000  0.1965845E+03  0.7546771E-02  0.1152653E+00
         21   -1    0    0  503  502  0.00000000000E+00  0.00000000000E+00  0.25477246659E+03  0.25477246659E+03  0.00000000000E+00 0.  1.
         21   -1    0    0  501  503 -0.00000000000E+00 -0.00000000000E+00 -0.19763137336E+03  0.19763137336E+03  0.00000000000E+00 0.  1.
          6    1    1    2  501    0 -0.79967936441E+02 -0.48182922839E+02  0.13763628263E+03  0.23997752230E+03  0.17300000000E+03 0.  1.
         -6    1    1    2    0  502  0.79967936441E+02  0.48182922839E+02 -0.80495189400E+02  0.21242631765E+03  0.17300000000E+03 0.  1.
<mgrwt>
<rscale>  2 0.19658450E+03</rscale>
<asrwt>0</asrwt>
<pdfrwt beam="1">  1       21 0.39195764E-01 0.19658450E+03</pdfrwt>
<pdfrwt beam="2">  1       21 0.30404827E-01 0.19658450E+03</pdfrwt>
<totfact> 0.65032206E+04</totfact>
</mgrwt>
</event>
<event>
 4    2  0.3992997E+000  0.1892518E+03  0.7546771E-02  0.1159138E+00
         21   -1    0    0  501  502  0.00000000000E+00  0.00000000000E+00  0.31663628982E+03  0.31663628982E+03  0.00000000000E+00 0. -1.
         21   -1    0    0  502  503 -0.00000000000E+00 -0.00000000000E+00 -0.12286857366E+03  0.12286857366E+03  0.00000000000E+00 0.  1.
          6    1    1    2  501    0 -0.53931115570E+02 -0.54577250289E+02  0.15879948278E+03  0.24704962499E+03  0.17300000000E+03 0. -1.
         -6    1    1    2    0  503  0.53931115570E+02  0.54577250289E+02  0.34968233384E+02  0.19245523849E+03  0.17300000000E+03 0.  1.
<mgrwt>
<rscale>  2 0.18925179E+03</rscale>
<asrwt>0</asrwt>
<pdfrwt beam="1">  1       21 0.48713275E-01 0.18925179E+03</pdfrwt>
<pdfrwt beam="2">  1       21 0.18902858E-01 0.18925179E+03</pdfrwt>
<totfact> 0.10328543E+05</totfact>
</mgrwt>
</event>
<event>
 4    2  0.3992997E+000  0.1790884E+03  0.7546771E-02  0.1168688E+00
         21   -1    0    0  503  502  0.00000000000E+00  0.00000000000E+00  0.12150639958E+03  0.12150639958E+03  0.00000000000E+00 0.  1.
         21   -1    0    0  501  503 -0.00000000000E+00 -0.00000000000E+00 -0.38769372389E+03  0.38769372389E+03  0.00000000000E+00 0.  1.
          6    1    1    2  501    0 -0.12339626792E+02  0.44624992528E+02 -0.27692736405E+03  0.32978996544E+03  0.17300000000E+03 0.  1.
         -6    1    1    2    0  502  0.12339626792E+02 -0.44624992528E+02  0.10740039745E+02  0.17941015802E+03  0.17300000000E+03 0.  1.
<mgrwt>
<rscale>  2 0.17908840E+03</rscale>
<asrwt>0</asrwt>
<pdfrwt beam="1">  1       21 0.18693292E-01 0.17908840E+03</pdfrwt>
<pdfrwt beam="2">  1       21 0.59645188E-01 0.17908840E+03</pdfrwt>
<totfact> 0.69104604E+04</totfact>
</mgrwt>
</event>
<event>
 4    2  0.3992997E+000  0.1974184E+03  0.7546771E-02  0.1151936E+00
         21   -1    0    0  503  502  0.00000000000E+00  0.00000000000E+00  0.90326323854E+02  0.90326323854E+02  0.00000000000E+00 0.  1.
         21   -1    0    0  501  503 -0.00000000000E+00 -0.00000000000E+00 -0.60033425229E+03  0.60033425229E+03  0.00000000000E+00 0. -1.
          6    1    1    2  501    0  0.77029664473E+02 -0.55780564259E+02 -0.43814833083E+03  0.48057049469E+03  0.17300000000E+03 0. -1.
         -6    1    1    2    0  502 -0.77029664473E+02  0.55780564259E+02 -0.71859597608E+02  0.21009008146E+03  0.17300000000E+03 0. -1.
<mgrwt>
<rscale>  2 0.19741844E+03</rscale>
<asrwt>0</asrwt>
<pdfrwt beam="1">  1       21 0.13896358E-01 0.19741844E+03</pdfrwt>
<pdfrwt beam="2">  1       21 0.92359115E-01 0.19741844E+03</pdfrwt>
<totfact> 0.44476358E+04</totfact>
</mgrwt>
</event>
<event>
 4    2  0.3992997E+000  0.1968605E+03  0.7546771E-02  0.1152415E+00
         21   -1    0    0  503  502  0.00000000000E+00  0.00000000000E+00  0.69979147252E+03  0.69979147252E+03  0.00000000000E+00 0.  1.
         21   -1    0    0  501  503 -0.00000000000E+00 -0.00000000000E+00 -0.99187056918E+02  0.99187056918E+02  0.00000000000E+00 0.  1.
          6    1    1    2  501    0 -0.91373141266E+02 -0.21817384184E+02  0.56579485701E+03  0.59906416135E+03  0.17300000000E+03 0.  1.
         -6    1    1    2    0  502  0.91373141266E+02  0.21817384184E+02  0.34809558591E+02  0.19991436808E+03  0.17300000000E+03 0.  1.
<mgrwt>
<rscale>  2 0.19686048E+03</rscale>
<asrwt>0</asrwt>
<pdfrwt beam="1">  1       21 0.10766022E+00 0.19686048E+03</pdfrwt>
<pdfrwt beam="2">  1       21 0.15259548E-01 0.19686048E+03</pdfrwt>
<totfact> 0.26090256E+04</totfact>
</mgrwt>
</event>
<event>
 4    2  0.3992997E+000  0.2066091E+03  0.7546771E-02  0.1144280E+00
         21   -1    0    0  501  502  0.00000000000E+00  0.00000000000E+00  0.12604587036E+03  0.12604587036E+03  0.00000000000E+00 0.  1.
         21   -1    0    0  502  503 -0.00000000000E+00 -0.00000000000E+00 -0.35627378502E+03  0.35627378502E+03  0.00000000000E+00 0.  1.
          6    1    1    2  501    0 -0.11220848874E+03  0.12945464356E+02 -0.61500081111E+02  0.21556806343E+03  0.17300000000E+03 0.  1.
         -6    1    1    2    0  503  0.11220848874E+03 -0.12945464356E+02 -0.16872783355E+03  0.26675159195E+03  0.17300000000E+03 0.  1.
<mgrwt>
<rscale>  2 0.20660912E+03</rscale>
<asrwt>0</asrwt>
<pdfrwt beam="1">  1       21 0.19391673E-01 0.20660912E+03</pdfrwt>
<pdfrwt beam="2">  1       21 0.54811350E-01 0.20660912E+03</pdfrwt>
<totfact> 0.76359055E+04</totfact>
</mgrwt>
</event>
<event>
 4    2  0.3992997E+000  0.2160811E+03  0.7546771E-02  0.1136839E+00
         21   -1    0    0  501  502  0.00000000000E+00  0.00000000000E+00  0.71594253870E+03  0.71594253870E+03  0.00000000000E+00 0. -1.
         21   -1    0    0  502  503 -0.00000000000E+00 -0.00000000000E+00 -0.25606422234E+03  0.25606422234E+03  0.00000000000E+00 0. -1.
          6    1    1    2  501    0  0.47791996804E+02 -0.12032446301E+03  0.64951325806E+03  0.68451334812E+03  0.17300000000E+03 0. -1.
         -6    1    1    2    0  503 -0.47791996804E+02  0.12032446301E+03 -0.18963494170E+03  0.28749341292E+03  0.17300000000E+03 0. -1.
<mgrwt>
<rscale>  2 0.21608112E+03</rscale>
<asrwt>0</asrwt>
<pdfrwt beam="1">  1       21 0.11014501E+00 0.21608112E+03</pdfrwt>
<pdfrwt beam="2">  1       21 0.39394496E-01 0.21608112E+03</pdfrwt>
<totfact> 0.39685514E+03</totfact>
</mgrwt>
</event>
<event>
 4    2  0.3992997E+000  0.2800174E+03  0.7546771E-02  0.1095679E+00
         21   -1    0    0  501  502  0.00000000000E+00  0.00000000000E+00  0.72790197376E+03  0.72790197376E+03  0.00000000000E+00 0. -1.
         21   -1    0    0  502  503 -0.00000000000E+00 -0.00000000000E+00 -0.33899648046E+03  0.33899648046E+03  0.00000000000E+00 0. -1.
          6    1    1    2  501    0  0.21689052522E+03 -0.37937704065E+02  0.63506950683E+03  0.69406271174E+03  0.17300000000E+03 0. -1.
         -6    1    1    2    0  503 -0.21689052522E+03  0.37937704065E+02 -0.24616401353E+03  0.37283574249E+03  0.17300000000E+03 0. -1.
<mgrwt>
<rscale>  2 0.28001744E+03</rscale>
<asrwt>0</asrwt>
<pdfrwt beam="1">  1       21 0.11198492E+00 0.28001744E+03</pdfrwt>
<pdfrwt beam="2">  1       21 0.52153305E-01 0.28001744E+03</pdfrwt>
<totfact> 0.20398761E+03</totfact>
</mgrwt>
</event>
<event>
 4    2  0.3992997E+000  0.2163805E+03  0.7546771E-02  0.1136611E+00
         21   -1    0    0  501  502  0.00000000000E+00  0.00000000000E+00  0.30184114342E+04  0.30184114342E+04  0.00000000000E+00 0.  1.
         21   -1    0    0  502  503 -0.00000000000E+00 -0.00000000000E+00 -0.25483480200E+02  0.25483480200E+02  0.00000000000E+00 0.  1.
          6    1    1    2  501    0 -0.11842899160E+03 -0.53535780257E+02  0.24485100956E+04  0.24580525206E+04  0.17300000000E+03 0.  1.
         -6    1    1    2    0  503  0.11842899160E+03  0.53535780257E+02  0.54441785842E+03  0.58584239381E+03  0.17300000000E+03 0.  1.
<mgrwt>
<rscale>  2 0.21638047E+03</rscale>
<asrwt>0</asrwt>
<pdfrwt beam="1">  1       21 0.46437071E+00 0.21638047E+03</pdfrwt>
<pdfrwt beam="2">  1       21 0.39205378E-02 0.21638047E+03</pdfrwt>
<totfact> 0.13047702E+03</totfact>
</mgrwt>
</event>
<event>
 4    2  0.3992997E+000  0.1783129E+03  0.7546771E-02  0.1169446E+00
         21   -1    0    0  501  502  0.00000000000E+00  0.00000000000E+00  0.13983379219E+04  0.13983379219E+04  0.00000000000E+00 0. -1.
         21   -1    0    0  502  503 -0.00000000000E+00 -0.00000000000E+00 -0.46164300895E+02  0.46164300895E+02  0.00000000000E+00 0. -1.
          6    1    1    2  501    0 -0.76683296305E+01 -0.42516849671E+02  0.11905880532E+04  0.12038668524E+04  0.17300000000E+03 0. -1.
         -6    1    1    2    0  503  0.76683296305E+01  0.42516849671E+02  0.16158556782E+03  0.24063537046E+03  0.17300000000E+03 0. -1.
<mgrwt>
<rscale>  2 0.17831289E+03</rscale>
<asrwt>0</asrwt>
<pdfrwt beam="1">  1       21 0.21512888E+00 0.17831289E+03</pdfrwt>
<pdfrwt beam="2">  1       21 0.71022012E-02 0.17831289E+03</pdfrwt>
<totfact> 0.16095716E+04</totfact>
</mgrwt>
</event>
<event>
 4    2  0.3992997E+000  0.2432300E+03  0.7546771E-02  0.1117660E+00
         21   -1    0    0  503  502  0.00000000000E+00  0.00000000000E+00  0.45869453801E+03  0.45869453801E+03  0.00000000000E+00 0.  1.
         21   -1    0    0  501  503 -0.00000000000E+00 -0.00000000000E+00 -0.22360606307E+03  0.22360606307E+03  0.00000000000E+00 0.  1.
          6    1    1    2  501    0  0.12902034176E+03  0.11218553516E+03 -0.10438639657E+03  0.26468351417E+03  0.17300000000E+03 0.  1.
         -6    1    1    2    0  502 -0.12902034176E+03 -0.11218553516E+03  0.33947487151E+03  0.41761708690E+03  0.17300000000E+03 0.  1.
<mgrwt>
<rscale>  2 0.24323002E+03</rscale>
<asrwt>0</asrwt>
<pdfrwt beam="1">  1       21 0.70568390E-01 0.24323002E+03</pdfrwt>
<pdfrwt beam="2">  1       21 0.34400933E-01 0.24323002E+03</pdfrwt>
<totfact> 0.14383619E+04</totfact>
</mgrwt>
</event>
<event>
 4    2  0.3992997E+000  0.2310190E+03  0.7546771E-02  0.1125925E+00
         21   -1    0    0  501  502  0.00000000000E+00  0.00000000000E+00  0.29373858781E+03  0.29373858781E+03  0.00000000000E+00 0.  1.
         21   -1    0    0  502  503 -0.00000000000E+00 -0.00000000000E+00 -0.40961542121E+03  0.40961542121E+03  0.00000000000E+00 0.  1.
          6    1    1    2  501    0  0.82334233548E+02 -0.12908078957E+03  0.20439334044E+03  0.30845812336E+03  0.17300000000E+03 0.  1.
         -6    1    1    2    0  503 -0.82334233548E+02  0.12908078957E+03 -0.32027017384E+03  0.39489588565E+03  0.17300000000E+03 0.  1.
<mgrwt>
<rscale>  2 0.23101900E+03</rscale>
<asrwt>0</asrwt>
<pdfrwt beam="1">  1       21 0.45190552E-01 0.23101900E+03</pdfrwt>
<pdfrwt beam="2">  1       21 0.63017757E-01 0.23101900E+03</pdfrwt>
<totfact> 0.10683430E+04</totfact>
</mgrwt>
</event>
<event>
 4    2  0.3992997E+000  0.1841432E+03  0.7546771E-02  0.1163852E+00
         21   -1    0    0  501  502  0.00000000000E+00  0.00000000000E+00  0.46257263513E+03  0.46257263513E+03  0.00000000000E+00 0. -1.
         21   -1    0    0  502  503 -0.00000000000E+00 -0.00000000000E+00 -0.88992442038E+02  0.88992442038E+02  0.00000000000E+00 0. -1.
          6    1    1    2  501    0 -0.19877460057E+02  0.59871523158E+02  0.70999981342E+02  0.19735680899E+03  0.17300000000E+03 0.  1.
         -6    1    1    2    0  503  0.19877460057E+02 -0.59871523158E+02  0.30258021175E+03  0.35420826818E+03  0.17300000000E+03 0.  1.
<mgrwt>
<rscale>  2 0.18414319E+03</rscale>
<asrwt>0</asrwt>
<pdfrwt beam="1">  1       21 0.71165019E-01 0.18414319E+03</pdfrwt>
<pdfrwt beam="2">  1       21 0.13691145E-01 0.18414319E+03</pdfrwt>
<totfact> 0.83000909E+04</totfact>
</mgrwt>
</event>
<event>
 4    2  0.3992997E+000  0.1784960E+03  0.7546771E-02  0.1169267E+00
         21   -1    0    0  503  502  0.00000000000E+00  0.00000000000E+00  0.63779900428E+03  0.63779900428E+03  0.00000000000E+00 0. -1.
         21   -1    0    0  501  503 -0.00000000000E+00 -0.00000000000E+00 -0.65185431113E+02  0.65185431113E+02  0.00000000000E+00 0. -1.
          6    1    1    2  501    0 -0.28148110631E+02 -0.33756817849E+02  0.11640196070E+03  0.21309682151E+03  0.17300000000E+03 0. -1.
         -6    1    1    2    0  502  0.28148110631E+02  0.33756817849E+02  0.45621161247E+03  0.48988761389E+03  0.17300000000E+03 0. -1.
<mgrwt>
<rscale>  2 0.17849605E+03</rscale>
<asrwt>0</asrwt>
<pdfrwt beam="1">  1       21 0.98122920E-01 0.17849605E+03</pdfrwt>
<pdfrwt beam="2">  1       21 0.10028528E-01 0.17849605E+03</pdfrwt>
<totfact> 0.69767653E+04</totfact>
</mgrwt>
</event>
<event>
 4    2  0.3992997E+000  0.2661189E+03  0.7546771E-02  0.1103522E+00
         21   -1    0    0  503  502  0.00000000000E+00  0.00000000000E+00  0.83973376548E+03  0.83973376548E+03  0.00000000000E+00 0.  1.
         21   -1    0    0  501  503 -0.00000000000E+00 -0.00000000000E+00 -0.16428826632E+03  0.16428826632E+03  0.00000000000E+00 0.  1.
          6    1    1    2  501    0  0.18239658415E+03  0.87302658324E+02 -0.12486039434E+02  0.26641165372E+03  0.17300000000E+03 0.  1.
         -6    1    1    2    0  502 -0.18239658415E+03 -0.87302658324E+02  0.68793153859E+03  0.73761037808E+03  0.17300000000E+03 0.  1.
<mgrwt>
<rscale>  2 0.26611890E+03</rscale>
<asrwt>0</asrwt>
<pdfrwt beam="1">  1       21 0.12918981E+00 0.26611890E+03</pdfrwt>
<pdfrwt beam="2">  1       21 0.25275118E-01 0.26611890E+03</pdfrwt>
<totfact> 0.61926735E+03</totfact>
</mgrwt>
</event>
<event>
 4    2  0.3992997E+000  0.1875605E+03  0.7546771E-02  0.1160680E+00
         21   -1    0    0  501  502  0.00000000000E+00  0.00000000000E+00  0.31198639076E+02  0.31198639076E+02  0.00000000000E+00 0.  1.
         21   -1    0    0  502  503 -0.00000000000E+00 -0.00000000000E+00 -0.23497766942E+04  0.23497766942E+04  0.00000000000E+00 0.  1.
          6    1    1    2  501    0 -0.10505681419E+02 -0.71690843445E+02 -0.30070611154E+03  0.35440529327E+03  0.17300000000E+03 0.  1.
         -6    1    1    2    0  503  0.10505681419E+02  0.71690843445E+02 -0.20178719436E+04  0.20265700400E+04  0.17300000000E+03 0.  1.
<mgrwt>
<rscale>  2 0.18756051E+03</rscale>
<asrwt>0</asrwt>
<pdfrwt beam="1">  1       21 0.47997912E-02 0.18756051E+03</pdfrwt>
<pdfrwt beam="2">  1       21 0.36150407E+00 0.18756051E+03</pdfrwt>
<totfact> 0.43373120E+03</totfact>
</mgrwt>
</event>
<event>
 4    2  0.3992997E+000  0.1788109E+03  0.7546771E-02  0.1168959E+00
         21   -1    0    0  503  502  0.00000000000E+00  0.00000000000E+00  0.61746234857E+02  0.61746234857E+02  0.00000000000E+00 0.  1.
         21   -1    0    0  501  503 -0.00000000000E+00 -0.00000000000E+00 -0.52131284040E+03  0.52131284040E+03  0.00000000000E+00 0.  1.
          6    1    1    2  501    0 -0.44339750862E+02  0.88496458829E+01 -0.25365201649E+03  0.31034283496E+03  0.17300000000E+03 0.  1.
         -6    1    1    2    0  502  0.44339750862E+02 -0.88496458829E+01 -0.20591458904E+03  0.27271624029E+03  0.17300000000E+03 0.  1.
<mgrwt>
<rscale>  2 0.17881088E+03</rscale>
<asrwt>0</asrwt>
<pdfrwt beam="1">  1       21 0.94994204E-02 0.17881088E+03</pdfrwt>
<pdfrwt beam="2">  1       21 0.80201979E-01 0.17881088E+03</pdfrwt>
<totfact> 0.12211132E+05</totfact>
</mgrwt>
</event>
<event>
 4    2  0.3992997E+000  0.1904737E+03  0.7546771E-02  0.1158035E+00
         21   -1    0    0  503  502  0.00000000000E+00  0.00000000000E+00  0.29774249084E+03  0.29774249084E+03  0.00000000000E+00 0.  1.
         21   -1    0    0  501  503 -0.00000000000E+00 -0.00000000000E+00 -0.13081180222E+03  0.13081180222E+03  0.00000000000E+00 0.  1.
          6    1    1    2  501    0 -0.18562780593E+02  0.77502494677E+02  0.13954771773E+03  0.23612238147E+03  0.17300000000E+03 0.  1.
         -6    1    1    2    0  502  0.18562780593E+02 -0.77502494677E+02  0.27382970892E+02  0.19243191159E+03  0.17300000000E+03 0.  1.
<mgrwt>
<rscale>  2 0.19047366E+03</rscale>
<asrwt>0</asrwt>
<pdfrwt beam="1">  1       21 0.45806537E-01 0.19047366E+03</pdfrwt>
<pdfrwt beam="2">  1       21 0.20124893E-01 0.19047366E+03</pdfrwt>
<totfact> 0.10432750E+05</totfact>
</mgrwt>
</event>
<event>
 4    2  0.3992997E+000  0.2291914E+03  0.7546771E-02  0.1127210E+00
         21   -1    0    0  501  502  0.00000000000E+00  0.00000000000E+00  0.18036699321E+03  0.18036699321E+03  0.00000000000E+00 0.  1.
         21   -1    0    0  502  503 -0.00000000000E+00 -0.00000000000E+00 -0.51651980202E+03  0.51651980202E+03  0.00000000000E+00 0. -1.
          6    1    1    2  501    0 -0.12728260769E+03  0.79992747798E+02  0.62045129826E+02  0.23744115072E+03  0.17300000000E+03 0.  1.
         -6    1    1    2    0  503  0.12728260769E+03 -0.79992747798E+02 -0.39819793864E+03  0.45944564451E+03  0.17300000000E+03 0. -1.
<mgrwt>
<rscale>  2 0.22919141E+03</rscale>
<asrwt>0</asrwt>
<pdfrwt beam="1">  1       21 0.27748768E-01 0.22919141E+03</pdfrwt>
<pdfrwt beam="2">  1       21 0.79464585E-01 0.22919141E+03</pdfrwt>
<totfact> 0.16937660E+04</totfact>
</mgrwt>
</event>
<event>
 4    2  0.3992997E+000  0.3435044E+03  0.7546771E-02  0.1065313E+00
         21   -1    0    0  503  502  0.00000000000E+00  0.00000000000E+00  0.11501501459E+04  0.11501501459E+04  0.00000000000E+00 0.  1.
         21   -1    0    0  501  503 -0.00000000000E+00 -0.00000000000E+00 -0.10287584657E+03  0.10287584657E+03  0.00000000000E+00 0. -1.
          6    1    1    2  501    0  0.27730272721E+03 -0.10568582441E+03  0.55659191047E+03  0.65405645842E+03  0.17300000000E+03 0.  1.
         -6    1    1    2    0  502 -0.27730272721E+03  0.10568582441E+03  0.49068238888E+03  0.59896953408E+03  0.17300000000E+03 0. -1.
<mgrwt>
<rscale>  2 0.34350443E+03</rscale>
<asrwt>0</asrwt>
<pdfrwt beam="1">  1       21 0.17694617E+00 0.34350443E+03</pdfrwt>
<pdfrwt beam="2">  1       21 0.15827054E-01 0.34350443E+03</pdfrwt>
<totfact> 0.61634261E+03</totfact>
</mgrwt>
</event>
<event>
 4    2  0.3992997E+000  0.2420004E+03  0.7546771E-02  0.1118467E+00
         21   -1    0    0  501  502  0.00000000000E+00  0.00000000000E+00  0.84020127514E+03  0.84020127514E+03  0.00000000000E+00 0. -1.
         21   -1    0    0  502  503 -0.00000000000E+00 -0.00000000000E+00 -0.75996568454E+02  0.75996568454E+02  0.00000000000E+00 0.  1.
          6    1    1    2  501    0 -0.13079725585E+03 -0.10736522231E+03  0.51393548588E+03  0.56806152549E+03  0.17300000000E+03 0. -1.
         -6    1    1    2    0  503  0.13079725585E+03  0.10736522231E+03  0.25026922081E+03  0.34813631810E+03  0.17300000000E+03 0. -1.
<mgrwt>
<rscale>  2 0.24200044E+03</rscale>
<asrwt>0</asrwt>
<pdfrwt beam="1">  1       21 0.12926173E+00 0.24200044E+03</pdfrwt>
<pdfrwt beam="2">  1       21 0.11691780E-01 0.24200044E+03</pdfrwt>
<totfact> 0.26209787E+04</totfact>
</mgrwt>
</event>
<event>
 4    2  0.3992997E+000  0.2099537E+03  0.7546771E-02  0.1141603E+00
         21   -1    0    0  501  502  0.00000000000E+00  0.00000000000E+00  0.17679338681E+03  0.17679338681E+03  0.00000000000E+00 0.  1.
         21   -1    0    0  502  503 -0.00000000000E+00 -0.00000000000E+00 -0.24965846832E+03  0.24965846832E+03  0.00000000000E+00 0. -1.
          6    1    1    2  501    0  0.11838100040E+03 -0.11725847502E+02 -0.28742557833E+02  0.21191198972E+03  0.17300000000E+03 0. -1.
         -6    1    1    2    0  503 -0.11838100040E+03  0.11725847502E+02 -0.44122523672E+02  0.21453986541E+03  0.17300000000E+03 0.  1.
<mgrwt>
<rscale>  2 0.20995370E+03</rscale>
<asrwt>0</asrwt>
<pdfrwt beam="1">  1       21 0.27198982E-01 0.20995370E+03</pdfrwt>
<pdfrwt beam="2">  1       21 0.38408995E-01 0.20995370E+03</pdfrwt>
<totfact> 0.83618824E+04</totfact>
</mgrwt>
</event>
<event>
 4    2  0.3992997E+000  0.2302478E+03  0.7546771E-02  0.1126465E+00
         21   -1    0    0  503  502  0.00000000000E+00  0.00000000000E+00  0.76481138477E+03  0.76481138477E+03  0.00000000000E+00 0. -1.
         21   -1    0    0  501  503 -0.00000000000E+00 -0.00000000000E+00 -0.10231652613E+04  0.10231652613E+04  0.00000000000E+00 0.  1.
          6    1    1    2  501    0  0.14858901082E+03  0.31723368020E+02 -0.99235164861E+03  0.10187128451E+04  0.17300000000E+03 0.  1.
         -6    1    1    2    0  502 -0.14858901082E+03 -0.31723368020E+02  0.73399777205E+03  0.76926380104E+03  0.17300000000E+03 0. -1.
<mgrwt>
<rscale>  2 0.23024784E+03</rscale>
<asrwt>0</asrwt>
<pdfrwt beam="1">  1       21 0.11766329E+00 0.23024784E+03</pdfrwt>
<pdfrwt beam="2">  1       21 0.15741004E+00 0.23024784E+03</pdfrwt>
<totfact> 0.13911841E+02</totfact>
</mgrwt>
</event>
<event>
 4    2  0.3992997E+000  0.1967887E+03  0.7546771E-02  0.1152477E+00
         21   -1    0    0  501  502  0.00000000000E+00  0.00000000000E+00  0.39700051910E+03  0.39700051910E+03  0.00000000000E+00 0. -1.
         21   -1    0    0  502  503 -0.00000000000E+00 -0.00000000000E+00 -0.27122444135E+03  0.27122444135E+03  0.00000000000E+00 0. -1.
          6    1    1    2  501    0  0.31301312553E+02 -0.88413860237E+02  0.33025105811E+03  0.38443665829E+03  0.17300000000E+03 0. -1.
         -6    1    1    2    0  503 -0.31301312553E+02  0.88413860237E+02 -0.20447498036E+03  0.28378830216E+03  0.17300000000E+03 0. -1.
<mgrwt>
<rscale>  2 0.19678868E+03</rscale>
<asrwt>0</asrwt>
<pdfrwt beam="1">  1       21 0.61077003E-01 0.19678868E+03</pdfrwt>
<pdfrwt beam="2">  1       21 0.41726837E-01 0.19678868E+03</pdfrwt>
<totfact> 0.13752417E+04</totfact>
</mgrwt>
</event>
<event>
 4    2  0.3992997E+000  0.2038331E+03  0.7546771E-02  0.1146545E+00
         21   -1    0    0  501  502  0.00000000000E+00  0.00000000000E+00  0.27126297996E+03  0.27126297996E+03  0.00000000000E+00 0.  1.
         21   -1    0    0  502  503 -0.00000000000E+00 -0.00000000000E+00 -0.43719287247E+03  0.43719287247E+03  0.00000000000E+00 0. -1.
          6    1    1    2  501    0  0.10517138346E+03 -0.23620591823E+02  0.20254869252E+03  0.28735679059E+03  0.17300000000E+03 0.  1.
         -6    1    1    2    0  503 -0.10517138346E+03  0.23620591823E+02 -0.36847858503E+03  0.42109906184E+03  0.17300000000E+03 0. -1.
<mgrwt>
<rscale>  2 0.20383315E+03</rscale>
<asrwt>0</asrwt>
<pdfrwt beam="1">  1       21 0.41732767E-01 0.20383315E+03</pdfrwt>
<pdfrwt beam="2">  1       21 0.67260441E-01 0.20383315E+03</pdfrwt>
<totfact> 0.11096701E+04</totfact>
</mgrwt>
</event>
<event>
 4    2  0.3992997E+000  0.1863182E+03  0.7546771E-02  0.1161825E+00
         21   -1    0    0  503  502  0.00000000000E+00  0.00000000000E+00  0.38084783862E+03  0.38084783862E+03  0.00000000000E+00 0.  1.
         21   -1    0    0  501  503 -0.00000000000E+00 -0.00000000000E+00 -0.94139852379E+02  0.94139852379E+02  0.00000000000E+00 0.  1.
          6    1    1    2  501    0  0.26441486658E+02  0.63924200846E+02  0.10103288150E+03  0.21194833997E+03  0.17300000000E+03 0.  1.
         -6    1    1    2    0  502 -0.26441486658E+02 -0.63924200846E+02  0.18567510474E+03  0.26303935103E+03  0.17300000000E+03 0.  1.
<mgrwt>
<rscale>  2 0.18631816E+03</rscale>
<asrwt>0</asrwt>
<pdfrwt beam="1">  1       21 0.58591974E-01 0.18631816E+03</pdfrwt>
<pdfrwt beam="2">  1       21 0.14483054E-01 0.18631816E+03</pdfrwt>
<totfact> 0.11426092E+05</totfact>
</mgrwt>
</event>
<event>
 4    2  0.3992997E+000  0.2793255E+03  0.7546771E-02  0.1096058E+00
         21   -1    0    0  503  502  0.00000000000E+00  0.00000000000E+00  0.20481314774E+03  0.20481314774E+03  0.00000000000E+00 0.  1.
         21   -1    0    0  501  503 -0.00000000000E+00 -0.00000000000E+00 -0.39239636618E+03  0.39239636618E+03  0.00000000000E+00 0. -1.
          6    1    1    2  501    0 -0.10991671735E+03  0.18976843267E+03 -0.14480034166E+03  0.31462657506E+03  0.17300000000E+03 0.  1.
         -6    1    1    2    0  502  0.10991671735E+03 -0.18976843267E+03 -0.42782876782E+02  0.28258293886E+03  0.17300000000E+03 0.  1.
<mgrwt>
<rscale>  2 0.27932551E+03</rscale>
<asrwt>0</asrwt>
<pdfrwt beam="1">  1       21 0.31509715E-01 0.27932551E+03</pdfrwt>
<pdfrwt beam="2">  1       21 0.60368671E-01 0.27932551E+03</pdfrwt>
<totfact> 0.23713593E+04</totfact>
</mgrwt>
</event>
<event>
 4    2  0.3992997E+000  0.2789406E+03  0.7546771E-02  0.1096269E+00
         21   -1    0    0  503  502  0.00000000000E+00  0.00000000000E+00  0.98173407903E+02  0.98173407903E+02  0.00000000000E+00 0. -1.
         21   -1    0    0  501  503 -0.00000000000E+00 -0.00000000000E+00 -0.21975071850E+04  0.21975071850E+04  0.00000000000E+00 0.  1.
          6    1    1    2  501    0  0.21753822845E+03 -0.23579397569E+02 -0.19674647023E+04  0.19871399607E+04  0.17300000000E+03 0.  1.
         -6    1    1    2    0  502 -0.21753822845E+03  0.23579397569E+02 -0.13186907487E+03  0.30854063222E+03  0.17300000000E+03 0. -1.
<mgrwt>
<rscale>  2 0.27894062E+03</rscale>
<asrwt>0</asrwt>
<pdfrwt beam="1">  1       21 0.15103601E-01 0.27894062E+03</pdfrwt>
<pdfrwt beam="2">  1       21 0.33807804E+00 0.27894062E+03</pdfrwt>
<totfact> 0.71662693E+02</totfact>
</mgrwt>
</event>
<event>
 4    2  0.3992997E+000  0.3486578E+03  0.7546771E-02  0.1063167E+00
         21   -1    0    0  501  502  0.00000000000E+00  0.00000000000E+00  0.16900492529E+03  0.16900492529E+03  0.00000000000E+00 0.  1.
         21   -1    0    0  502  503 -0.00000000000E+00 -0.00000000000E+00 -0.93024608223E+03  0.93024608223E+03  0.00000000000E+00 0. -1.
          6    1    1    2  501    0  0.25808980695E+03  0.15818621576E+03 -0.11887940211E+03  0.36836739751E+03  0.17300000000E+03 0.  1.
         -6    1    1    2    0  503 -0.25808980695E+03 -0.15818621576E+03 -0.64236175483E+03  0.73088361001E+03  0.17300000000E+03 0. -1.
<mgrwt>
<rscale>  2 0.34865775E+03</rscale>
<asrwt>0</asrwt>
<pdfrwt beam="1">  1       21 0.26000757E-01 0.34865775E+03</pdfrwt>
<pdfrwt beam="2">  1       21 0.14311478E+00 0.34865775E+03</pdfrwt>
<totfact> 0.43032293E+03</totfact>
</mgrwt>
</event>
<event>
 4    2  0.3992997E+000  0.1865056E+03  0.7546771E-02  0.1161651E+00
         21   -1    0    0  503  502  0.00000000000E+00  0.00000000000E+00  0.44689857436E+03  0.44689857436E+03  0.00000000000E+00 0. -1.
         21   -1    0    0  501  503 -0.00000000000E+00 -0.00000000000E+00 -0.14667632209E+03  0.14667632209E+03  0.00000000000E+00 0. -1.
          6    1    1    2  501    0 -0.44227464832E+02  0.53845023858E+02 -0.53213551282E+02  0.19394854287E+03  0.17300000000E+03 0. -1.
         -6    1    1    2    0  502  0.44227464832E+02 -0.53845023858E+02  0.35343580355E+03  0.39962635358E+03  0.17300000000E+03 0. -1.
<mgrwt>
<rscale>  2 0.18650564E+03</rscale>
<asrwt>0</asrwt>
<pdfrwt beam="1">  1       21 0.68753626E-01 0.18650564E+03</pdfrwt>
<pdfrwt beam="2">  1       21 0.22565588E-01 0.18650564E+03</pdfrwt>
<totfact> 0.35582816E+04</totfact>
</mgrwt>
</event>
<event>
 4    2  0.3992997E+000  0.2404175E+03  0.7546771E-02  0.1119515E+00
         21   -1    0    0  501  502  0.00000000000E+00  0.00000000000E+00  0.15014228168E+03  0.15014228168E+03  0.00000000000E+00 0.  1.
         21   -1    0    0  502  503 -0.00000000000E+00 -0.00000000000E+00 -0.39825227536E+03  0.39825227536E+03  0.00000000000E+00 0.  1.
          6    1    1    2  501    0 -0.14631046752E+03  0.80404170114E+02 -0.73983962204E+02  0.25154365455E+03  0.17300000000E+03 0.  1.
         -6    1    1    2    0  503  0.14631046752E+03 -0.80404170114E+02 -0.17412603147E+03  0.29685090250E+03  0.17300000000E+03 0.  1.
<mgrwt>
<rscale>  2 0.24041752E+03</rscale>
<asrwt>0</asrwt>
<pdfrwt beam="1">  1       21 0.23098813E-01 0.24041752E+03</pdfrwt>
<pdfrwt beam="2">  1       21 0.61269581E-01 0.24041752E+03</pdfrwt>
<totfact> 0.42631656E+04</totfact>
</mgrwt>
</event>
<event>
 4    2  0.3992997E+000  0.2640542E+03  0.7546771E-02  0.1104732E+00
         21   -1    0    0  501  502  0.00000000000E+00  0.00000000000E+00  0.30960604946E+03  0.30960604946E+03  0.00000000000E+00 0.  1.
         21   -1    0    0  502  503 -0.00000000000E+00 -0.00000000000E+00 -0.52297975766E+03  0.52297975766E+03  0.00000000000E+00 0.  1.
          6    1    1    2  501    0 -0.12342359270E+03 -0.15672339143E+03  0.20743708834E+03  0.33578974117E+03  0.17300000000E+03 0.  1.
         -6    1    1    2    0  503  0.12342359270E+03  0.15672339143E+03 -0.42081079655E+03  0.49679606595E+03  0.17300000000E+03 0.  1.
<mgrwt>
<rscale>  2 0.26405417E+03</rscale>
<asrwt>0</asrwt>
<pdfrwt beam="1">  1       21 0.47631700E-01 0.26405417E+03</pdfrwt>
<pdfrwt beam="2">  1       21 0.80458423E-01 0.26405417E+03</pdfrwt>
<totfact> 0.54533409E+03</totfact>
</mgrwt>
</event>
<event>
 4    2  0.3992997E+000  0.1874689E+03  0.7546771E-02  0.1160764E+00
         21   -1    0    0  501  502  0.00000000000E+00  0.00000000000E+00  0.18809686454E+03  0.18809686454E+03  0.00000000000E+00 0.  1.
         21   -1    0    0  502  503 -0.00000000000E+00 -0.00000000000E+00 -0.17130809452E+04  0.17130809452E+04  0.00000000000E+00 0.  1.
          6    1    1    2  501    0 -0.26473660502E+02  0.67191811714E+02  0.13476094753E+03  0.23087898831E+03  0.17300000000E+03 0.  1.
         -6    1    1    2    0  503  0.26473660502E+02 -0.67191811714E+02 -0.16597450282E+04  0.16702988214E+04  0.17300000000E+03 0.  1.
<mgrwt>
<rscale>  2 0.18746892E+03</rscale>
<asrwt>0</asrwt>
<pdfrwt beam="1">  1       21 0.28937980E-01 0.18746892E+03</pdfrwt>
<pdfrwt beam="2">  1       21 0.26355091E+00 0.18746892E+03</pdfrwt>
<totfact> 0.63777612E+02</totfact>
</mgrwt>
</event>
<event>
 4    2  0.3992997E+000  0.2269159E+03  0.7546771E-02  0.1128830E+00
         21   -1    0    0  503  502  0.00000000000E+00  0.00000000000E+00  0.64580081013E+03  0.64580081013E+03  0.00000000000E+00 0.  1.
         21   -1    0    0  501  503 -0.00000000000E+00 -0.00000000000E+00 -0.85328269754E+02  0.85328269754E+02  0.00000000000E+00 0.  1.
          6    1    1    2  501    0 -0.14526101037E+03  0.21472154887E+02  0.18661436716E+03  0.29379539921E+03  0.17300000000E+03 0.  1.
         -6    1    1    2    0  502  0.14526101037E+03 -0.21472154887E+02  0.37385817322E+03  0.43733368067E+03  0.17300000000E+03 0.  1.
<mgrwt>
<rscale>  2 0.22691588E+03</rscale>
<asrwt>0</asrwt>
<pdfrwt beam="1">  1       21 0.99353968E-01 0.22691588E+03</pdfrwt>
<pdfrwt beam="2">  1       21 0.13127427E-01 0.22691588E+03</pdfrwt>
<totfact> 0.40911661E+04</totfact>
</mgrwt>
</event>
<event>
 4    2  0.3992997E+000  0.1923936E+03  0.7546771E-02  0.1156320E+00
         21   -1    0    0  503  502  0.00000000000E+00  0.00000000000E+00  0.56284121275E+03  0.56284121275E+03  0.00000000000E+00 0.  1.
         21   -1    0    0  501  503 -0.00000000000E+00 -0.00000000000E+00 -0.65987460907E+02  0.65987460907E+02  0.00000000000E+00 0.  1.
          6    1    1    2  501    0 -0.19068006676E+02 -0.81992129396E+02  0.26667923615E+03  0.32883599735E+03  0.17300000000E+03 0.  1.
         -6    1    1    2    0  502  0.19068006676E+02  0.81992129396E+02  0.23017451569E+03  0.29999267630E+03  0.17300000000E+03 0.  1.
<mgrwt>
<rscale>  2 0.19239360E+03</rscale>
<asrwt>0</asrwt>
<pdfrwt beam="1">  1       21 0.86590952E-01 0.19239360E+03</pdfrwt>
<pdfrwt beam="2">  1       21 0.10151917E-01 0.19239360E+03</pdfrwt>
<totfact> 0.90750322E+04</totfact>
</mgrwt>
</event>
<event>
 4    2  0.3992997E+000  0.2685248E+03  0.7546771E-02  0.1102127E+00
         21   -1    0    0  501  502  0.00000000000E+00  0.00000000000E+00  0.14435949091E+03  0.14435949091E+03  0.00000000000E+00 0.  1.
         21   -1    0    0  502  503 -0.00000000000E+00 -0.00000000000E+00 -0.50162635735E+03  0.50162635735E+03  0.00000000000E+00 0.  1.
          6    1    1    2  501    0 -0.57015802822E+02 -0.19729617947E+03 -0.15753655494E+03  0.31132515213E+03  0.17300000000E+03 0.  1.
         -6    1    1    2    0  503  0.57015802822E+02  0.19729617947E+03 -0.19973031150E+03  0.33466069613E+03  0.17300000000E+03 0.  1.
<mgrwt>
<rscale>  2 0.26852483E+03</rscale>
<asrwt>0</asrwt>
<pdfrwt beam="1">  1       21 0.22209152E-01 0.26852483E+03</pdfrwt>
<pdfrwt beam="2">  1       21 0.77173286E-01 0.26852483E+03</pdfrwt>
<totfact> 0.27229746E+04</totfact>
</mgrwt>
</event>
<event>
 4    2  0.3992997E+000  0.1864819E+03  0.7546771E-02  0.1161673E+00
         21   -1    0    0  503  502  0.00000000000E+00  0.00000000000E+00  0.40287380260E+02  0.40287380260E+02  0.00000000000E+00 0. -1.
         21   -1    0    0  501  503 -0.00000000000E+00 -0.00000000000E+00 -0.16364812256E+04  0.16364812256E+04  0.00000000000E+00 0. -1.
          6    1    1    2  501    0  0.40621975379E+02  0.56536463784E+02 -0.13744122786E+04  0.13870056338E+04  0.17300000000E+03 0. -1.
         -6    1    1    2    0  502 -0.40621975379E+02 -0.56536463784E+02 -0.22178156665E+03  0.28976297197E+03  0.17300000000E+03 0. -1.
<mgrwt>
<rscale>  2 0.18648195E+03</rscale>
<asrwt>0</asrwt>
<pdfrwt beam="1">  1       21 0.61980570E-02 0.18648195E+03</pdfrwt>
<pdfrwt beam="2">  1       21 0.25176640E+00 0.18648195E+03</pdfrwt>
<totfact> 0.12179579E+04</totfact>
</mgrwt>
</event>
<event>
 4    2  0.3992997E+000  0.2018585E+03  0.7546771E-02  0.1148180E+00
         21   -1    0    0  503  502  0.00000000000E+00  0.00000000000E+00  0.12023420167E+03  0.12023420167E+03  0.00000000000E+00 0.  1.
         21   -1    0    0  501  503 -0.00000000000E+00 -0.00000000000E+00 -0.34798534525E+03  0.34798534525E+03  0.00000000000E+00 0.  1.
          6    1    1    2  501    0  0.22701973041E+02 -0.10150119872E+03 -0.15171188069E+03  0.25251409399E+03  0.17300000000E+03 0.  1.
         -6    1    1    2    0  502 -0.22701973041E+02  0.10150119872E+03 -0.76039262883E+02  0.21570545292E+03  0.17300000000E+03 0.  1.
<mgrwt>
<rscale>  2 0.20185855E+03</rscale>
<asrwt>0</asrwt>
<pdfrwt beam="1">  1       21 0.18497569E-01 0.20185855E+03</pdfrwt>
<pdfrwt beam="2">  1       21 0.53536207E-01 0.20185855E+03</pdfrwt>
<totfact> 0.87800008E+04</totfact>
</mgrwt>
</event>
<event>
 4    2  0.3992997E+000  0.2348222E+03  0.7546771E-02  0.1123291E+00
         21   -1    0    0  503  502  0.00000000000E+00  0.00000000000E+00  0.64430290830E+03  0.64430290830E+03  0.00000000000E+00 0.  1.
         21   -1    0    0  501  503 -0.00000000000E+00 -0.00000000000E+00 -0.85600664810E+02  0.85600664810E+02  0.00000000000E+00 0.  1.
          6    1    1    2  501    0  0.15873203190E+03  0.40753628638E+01  0.28457283919E+03  0.36894873267E+03  0.17300000000E+03 0.  1.
         -6    1    1    2    0  502 -0.15873203190E+03 -0.40753628638E+01  0.27412940430E+03  0.36095484044E+03  0.17300000000E+03 0.  1.
<mgrwt>
<rscale>  2 0.23482220E+03</rscale>
<asrwt>0</asrwt>
<pdfrwt beam="1">  1       21 0.99123521E-01 0.23482220E+03</pdfrwt>
<pdfrwt beam="2">  1       21 0.13169333E-01 0.23482220E+03</pdfrwt>
<totfact> 0.40749588E+04</totfact>
</mgrwt>
</event>
<event>
 4    2  0.3992997E+000  0.1890681E+03  0.7546771E-02  0.1159305E+00
         21   -1    0    0  503  502  0.00000000000E+00  0.00000000000E+00  0.12744259600E+04  0.12744259600E+04  0.00000000000E+00 0. -1.
         21   -1    0    0  501  503 -0.00000000000E+00 -0.00000000000E+00 -0.54752556054E+02  0.54752556054E+02  0.00000000000E+00 0. -1.
          6    1    1    2  501    0  0.76203519490E+02  0.32801484239E+01  0.14571341652E+03  0.23870302786E+03  0.17300000000E+03 0. -1.
         -6    1    1    2    0  502 -0.76203519490E+02 -0.32801484239E+01  0.10739599874E+04  0.10904754882E+04  0.17300000000E+03 0. -1.
<mgrwt>
<rscale>  2 0.18906807E+03</rscale>
<asrwt>0</asrwt>
<pdfrwt beam="1">  1       21 0.19606551E+00 0.18906807E+03</pdfrwt>
<pdfrwt beam="2">  1       21 0.84234711E-02 0.18906807E+03</pdfrwt>
<totfact> 0.15657497E+04</totfact>
</mgrwt>
</event>
<event>
 4    2  0.3992997E+000  0.1852095E+03  0.7546771E-02  0.1162854E+00
         21   -1    0    0  503  502  0.00000000000E+00  0.00000000000E+00  0.80794475830E+02  0.80794475830E+02  0.00000000000E+00 0. -1.
         21   -1    0    0  501  503 -0.00000000000E+00 -0.00000000000E+00 -0.47263873059E+03  0.47263873059E+03  0.00000000000E+00 0. -1.
          6    1    1    2  501    0  0.62759481916E+02 -0.20851641024E+02 -0.28417369236E+03  0.33920087107E+03  0.17300000000E+03 0. -1.
         -6    1    1    2    0  502 -0.62759481916E+02  0.20851641024E+02 -0.10767056240E+03  0.21423233536E+03  0.17300000000E+03 0. -1.
<mgrwt>
<rscale>  2 0.18520946E+03</rscale>
<asrwt>0</asrwt>
<pdfrwt beam="1">  1       21 0.12429919E-01 0.18520946E+03</pdfrwt>
<pdfrwt beam="2">  1       21 0.72713652E-01 0.18520946E+03</pdfrwt>
<totfact> 0.94125783E+04</totfact>
</mgrwt>
</event>
<event>
 4    2  0.3992997E+000  0.2332617E+03  0.7546771E-02  0.1124365E+00
         21   -1    0    0  501  502  0.00000000000E+00  0.00000000000E+00  0.37183251272E+03  0.37183251272E+03  0.00000000000E+00 0. -1.
         21   -1    0    0  502  503 -0.00000000000E+00 -0.00000000000E+00 -0.14880467745E+03  0.14880467745E+03  0.00000000000E+00 0. -1.
          6    1    1    2  501    0  0.39948817163E+02 -0.15128163648E+03  0.14506988044E+03  0.27469312285E+03  0.17300000000E+03 0. -1.
         -6    1    1    2    0  503 -0.39948817163E+02  0.15128163648E+03  0.77957954829E+02  0.24594406732E+03  0.17300000000E+03 0. -1.
<mgrwt>
<rscale>  2 0.23326174E+03</rscale>
<asrwt>0</asrwt>
<pdfrwt beam="1">  1       21 0.57205002E-01 0.23326174E+03</pdfrwt>
<pdfrwt beam="2">  1       21 0.22893027E-01 0.23326174E+03</pdfrwt>
<totfact> 0.50425858E+04</totfact>
</mgrwt>
</event>
<event>
 4    2  0.3992997E+000  0.2017689E+03  0.7546771E-02  0.1148255E+00
         21   -1    0    0  501  502  0.00000000000E+00  0.00000000000E+00  0.24642754343E+02  0.24642754343E+02  0.00000000000E+00 0.  1.
         21   -1    0    0  502  503 -0.00000000000E+00 -0.00000000000E+00 -0.16521711534E+04  0.16521711534E+04  0.00000000000E+00 0. -1.
          6    1    1    2  501    0  0.85961452856E+02  0.58243616576E+02 -0.82137794503E+03  0.84579691346E+03  0.17300000000E+03 0. -1.
         -6    1    1    2    0  503 -0.85961452856E+02 -0.58243616576E+02 -0.80615045407E+03  0.83101699432E+03  0.17300000000E+03 0. -1.
<mgrwt>
<rscale>  2 0.20176890E+03</rscale>
<asrwt>0</asrwt>
<pdfrwt beam="1">  1       21 0.37911926E-02 0.20176890E+03</pdfrwt>
<pdfrwt beam="2">  1       21 0.25418020E+00 0.20176890E+03</pdfrwt>
<totfact> 0.26730858E+04</totfact>
</mgrwt>
</event>
<event>
 4    2  0.3992997E+000  0.1775049E+03  0.7546771E-02  0.1170240E+00
         21   -1    0    0  503  502  0.00000000000E+00  0.00000000000E+00  0.43911324783E+03  0.43911324783E+03  0.00000000000E+00 0.  1.
         21   -1    0    0  501  503 -0.00000000000E+00 -0.00000000000E+00 -0.13654961059E+03  0.13654961059E+03  0.00000000000E+00 0.  1.
          6    1    1    2  501    0  0.27933672594E+02  0.28261445465E+02 -0.46992646367E+02  0.18362001028E+03  0.17300000000E+03 0.  1.
         -6    1    1    2    0  502 -0.27933672594E+02 -0.28261445465E+02  0.34955628360E+03  0.39204284813E+03  0.17300000000E+03 0.  1.
<mgrwt>
<rscale>  2 0.17750493E+03</rscale>
<asrwt>0</asrwt>
<pdfrwt beam="1">  1       21 0.67555883E-01 0.17750493E+03</pdfrwt>
<pdfrwt beam="2">  1       21 0.21007633E-01 0.17750493E+03</pdfrwt>
<totfact> 0.42501642E+04</totfact>
</mgrwt>
</event>
<event>
 4    2  0.3992997E+000  0.1758953E+03  0.7546771E-02  0.1171836E+00
         21   -1    0    0  501  502  0.00000000000E+00  0.00000000000E+00  0.73828468502E+02  0.73828468502E+02  0.00000000000E+00 0.  1.
         21   -1    0    0  502  503 -0.00000000000E+00 -0.00000000000E+00 -0.46224952135E+03  0.46224952135E+03  0.00000000000E+00 0.  1.
          6    1    1    2  501    0 -0.31055851795E+02 -0.67590537636E+01 -0.11228701248E+03  0.20868043490E+03  0.17300000000E+03 0.  1.
         -6    1    1    2    0  503  0.31055851795E+02  0.67590537636E+01 -0.27613404036E+03  0.32739755495E+03  0.17300000000E+03 0.  1.
<mgrwt>
<rscale>  2 0.17589528E+03</rscale>
<asrwt>0</asrwt>
<pdfrwt beam="1">  1       21 0.11358226E-01 0.17589528E+03</pdfrwt>
<pdfrwt beam="2">  1       21 0.71115310E-01 0.17589528E+03</pdfrwt>
<totfact> 0.11655431E+05</totfact>
</mgrwt>
</event>
<event>
 4    2  0.3992997E+000  0.1831377E+03  0.7546771E-02  0.1164800E+00
         21   -1    0    0  501  502  0.00000000000E+00  0.00000000000E+00  0.43606192984E+03  0.43606192984E+03  0.00000000000E+00 0. -1.
         21   -1    0    0  502  503 -0.00000000000E+00 -0.00000000000E+00 -0.12325846899E+03  0.12325846899E+03  0.00000000000E+00 0. -1.
          6    1    1    2  501    0  0.59417287732E+02 -0.89444952106E+01  0.32788415420E+03  0.37556282650E+03  0.17300000000E+03 0. -1.
         -6    1    1    2    0  503 -0.59417287732E+02  0.89444952106E+01 -0.15080693341E+02  0.18375757233E+03  0.17300000000E+03 0. -1.
<mgrwt>
<rscale>  2 0.18313770E+03</rscale>
<asrwt>0</asrwt>
<pdfrwt beam="1">  1       21 0.67086450E-01 0.18313770E+03</pdfrwt>
<pdfrwt beam="2">  1       21 0.18962842E-01 0.18313770E+03</pdfrwt>
<totfact> 0.52087756E+04</totfact>
</mgrwt>
</event>
<event>
 4    2  0.3992997E+000  0.1780725E+03  0.7546771E-02  0.1169682E+00
         21   -1    0    0  503  502  0.00000000000E+00  0.00000000000E+00  0.66120414590E+02  0.66120414590E+02  0.00000000000E+00 0. -1.
         21   -1    0    0  501  503 -0.00000000000E+00 -0.00000000000E+00 -0.51206413907E+03  0.51206413907E+03  0.00000000000E+00 0. -1.
          6    1    1    2  501    0 -0.41266644099E+02  0.88246627073E+01 -0.29578873298E+03  0.34525466709E+03  0.17300000000E+03 0. -1.
         -6    1    1    2    0  502  0.41266644099E+02 -0.88246627073E+01 -0.15015499150E+03  0.23292988658E+03  0.17300000000E+03 0. -1.
<mgrwt>
<rscale>  2 0.17807249E+03</rscale>
<asrwt>0</asrwt>
<pdfrwt beam="1">  1       21 0.10172371E-01 0.17807249E+03</pdfrwt>
<pdfrwt beam="2">  1       21 0.78779100E-01 0.17807249E+03</pdfrwt>
<totfact> 0.11272809E+05</totfact>
</mgrwt>
</event>
<event>
 4    2  0.3992997E+000  0.2128869E+03  0.7546771E-02  0.1139300E+00
         21   -1    0    0  501  502  0.00000000000E+00  0.00000000000E+00  0.17577519764E+03  0.17577519764E+03  0.00000000000E+00 0. -1.
         21   -1    0    0  502  503 -0.00000000000E+00 -0.00000000000E+00 -0.25947606437E+03  0.25947606437E+03  0.00000000000E+00 0. -1.
          6    1    1    2  501    0  0.79945176116E+02  0.94871482069E+02 -0.59162592048E+02  0.22095484062E+03  0.17300000000E+03 0. -1.
         -6    1    1    2    0  503 -0.79945176116E+02 -0.94871482069E+02 -0.24538274682E+02  0.21429642139E+03  0.17300000000E+03 0. -1.
<mgrwt>
<rscale>  2 0.21288689E+03</rscale>
<asrwt>0</asrwt>
<pdfrwt beam="1">  1       21 0.27042338E-01 0.21288689E+03</pdfrwt>
<pdfrwt beam="2">  1       21 0.39919394E-01 0.21288689E+03</pdfrwt>
<totfact> 0.78128982E+04</totfact>
</mgrwt>
</event>
<event>
 4    2  0.3992997E+000  0.2072965E+03  0.7546771E-02  0.1143725E+00
         21   -1    0    0  503  502  0.00000000000E+00  0.00000000000E+00  0.66716709726E+03  0.66716709726E+03  0.00000000000E+00 0. -1.
         21   -1    0    0  501  503 -0.00000000000E+00 -0.00000000000E+00 -0.64888341124E+02  0.64888341124E+02  0.00000000000E+00 0.  1.
          6    1    1    2  501    0 -0.11380926604E+03  0.95017284180E+01  0.26969289501E+03  0.34015597819E+03  0.17300000000E+03 0.  1.
         -6    1    1    2    0  502  0.11380926604E+03 -0.95017284180E+01  0.33258586113E+03  0.39189946019E+03  0.17300000000E+03 0. -1.
<mgrwt>
<rscale>  2 0.20729648E+03</rscale>
<asrwt>0</asrwt>
<pdfrwt beam="1">  1       21 0.10264109E+00 0.20729648E+03</pdfrwt>
<pdfrwt beam="2">  1       21 0.99828222E-02 0.20729648E+03</pdfrwt>
<totfact> 0.62346549E+04</totfact>
</mgrwt>
</event>
<event>
 4    2  0.3992997E+000  0.1871805E+03  0.7546771E-02  0.1161029E+00
         21   -1    0    0  501  502  0.00000000000E+00  0.00000000000E+00  0.28175013061E+03  0.28175013061E+03  0.00000000000E+00 0. -1.
         21   -1    0    0  502  503 -0.00000000000E+00 -0.00000000000E+00 -0.12818708112E+03  0.12818708112E+03  0.00000000000E+00 0. -1.
          6    1    1    2  501    0 -0.53413931776E+02 -0.47481559164E+02  0.11222867098E+03  0.21824715613E+03  0.17300000000E+03 0. -1.
         -6    1    1    2    0  503  0.53413931776E+02  0.47481559164E+02  0.41334378511E+02  0.19169005560E+03  0.17300000000E+03 0. -1.
<mgrwt>
<rscale>  2 0.18718052E+03</rscale>
<asrwt>0</asrwt>
<pdfrwt beam="1">  1       21 0.43346174E-01 0.18718052E+03</pdfrwt>
<pdfrwt beam="2">  1       21 0.19721089E-01 0.18718052E+03</pdfrwt>
<totfact> 0.12147186E+05</totfact>
</mgrwt>
</event>
<event>
 4    2  0.3992997E+000  0.1960759E+03  0.7546771E-02  0.1153093E+00
         21   -1    0    0  501  502  0.00000000000E+00  0.00000000000E+00  0.10781567478E+03  0.10781567478E+03  0.00000000000E+00 0.  1.
         21   -1    0    0  502  503 -0.00000000000E+00 -0.00000000000E+00 -0.38163551286E+03  0.38163551286E+03  0.00000000000E+00 0.  1.
          6    1    1    2  501    0  0.84489510143E+02 -0.37125285199E+02 -0.19960568989E+03  0.27980027799E+03  0.17300000000E+03 0.  1.
         -6    1    1    2    0  503 -0.84489510143E+02  0.37125285199E+02 -0.74214148191E+02  0.20965090965E+03  0.17300000000E+03 0.  1.
<mgrwt>
<rscale>  2 0.19607591E+03</rscale>
<asrwt>0</asrwt>
<pdfrwt beam="1">  1       21 0.16587027E-01 0.19607591E+03</pdfrwt>
<pdfrwt beam="2">  1       21 0.58713156E-01 0.19607591E+03</pdfrwt>
<totfact> 0.88473050E+04</totfact>
</mgrwt>
</event>
<event>
 4    2  0.3992997E+000  0.2051236E+03  0.7546771E-02  0.1145487E+00
         21   -1    0    0  503  502  0.00000000000E+00  0.00000000000E+00  0.32406859923E+03  0.32406859923E+03  0.00000000000E+00 0.  1.
         21   -1    0    0  501  503 -0.00000000000E+00 -0.00000000000E+00 -0.23464408690E+03  0.23464408690E+03  0.00000000000E+00 0.  1.
          6    1    1    2  501    0  0.19803706011E+02  0.10841817581E+03 -0.14199089905E+03  0.24947365198E+03  0.17300000000E+03 0.  1.
         -6    1    1    2    0  502 -0.19803706011E+02 -0.10841817581E+03  0.23141541138E+03  0.30923903415E+03  0.17300000000E+03 0.  1.
<mgrwt>
<rscale>  2 0.20512359E+03</rscale>
<asrwt>0</asrwt>
<pdfrwt beam="1">  1       21 0.49856707E-01 0.20512359E+03</pdfrwt>
<pdfrwt beam="2">  1       21 0.36099090E-01 0.20512359E+03</pdfrwt>
<totfact> 0.28170185E+04</totfact>
</mgrwt>
</event>
<event>
 4    2  0.3992997E+000  0.1825670E+03  0.7546771E-02  0.1165342E+00
         21   -1    0    0  503  502  0.00000000000E+00  0.00000000000E+00  0.26234357123E+02  0.26234357123E+02  0.00000000000E+00 0.  1.
         21   -1    0    0  501  503 -0.00000000000E+00 -0.00000000000E+00 -0.17584081947E+04  0.17584081947E+04  0.00000000000E+00 0.  1.
          6    1    1    2  501    0  0.39161291230E+02 -0.43221493565E+02 -0.13361230505E+04  0.13485382865E+04  0.17300000000E+03 0.  1.
         -6    1    1    2    0  502 -0.39161291230E+02  0.43221493565E+02 -0.39605078707E+03  0.43610426526E+03  0.17300000000E+03 0.  1.
<mgrwt>
<rscale>  2 0.18256699E+03</rscale>
<asrwt>0</asrwt>
<pdfrwt beam="1">  1       21 0.40360541E-02 0.18256699E+03</pdfrwt>
<pdfrwt beam="2">  1       21 0.27052439E+00 0.18256699E+03</pdfrwt>
<totfact> 0.19672267E+04</totfact>
</mgrwt>
</event>
<event>
 4    2  0.3992997E+000  0.2142870E+03  0.7546771E-02  0.1138215E+00
         21   -1    0    0  503  502  0.00000000000E+00  0.00000000000E+00  0.20166011583E+03  0.20166011583E+03  0.00000000000E+00 0.  1.
         21   -1    0    0  501  503 -0.00000000000E+00 -0.00000000000E+00 -0.42095720366E+03  0.42095720366E+03  0.00000000000E+00 0.  1.
          6    1    1    2  501    0  0.65567487207E+02  0.10812419737E+03  0.10127977812E+03  0.23701588742E+03  0.17300000000E+03 0.  1.
         -6    1    1    2    0  502 -0.65567487207E+02 -0.10812419737E+03 -0.32057686594E+03  0.38560143207E+03  0.17300000000E+03 0.  1.
<mgrwt>
<rscale>  2 0.21428704E+03</rscale>
<asrwt>0</asrwt>
<pdfrwt beam="1">  1       21 0.31024633E-01 0.21428704E+03</pdfrwt>
<pdfrwt beam="2">  1       21 0.64762647E-01 0.21428704E+03</pdfrwt>
<totfact> 0.21650104E+04</totfact>
</mgrwt>
</event>
<event>
 4    2  0.3992997E+000  0.1817847E+03  0.7546771E-02  0.1166087E+00
         21   -1    0    0  501  502  0.00000000000E+00  0.00000000000E+00  0.15677085216E+03  0.15677085216E+03  0.00000000000E+00 0. -1.
         21   -1    0    0  502  503 -0.00000000000E+00 -0.00000000000E+00 -0.87641209532E+03  0.87641209532E+03  0.00000000000E+00 0.  1.
          6    1    1    2  501    0 -0.36138478588E+02  0.42552158660E+02  0.90380969974E+02  0.20301328916E+03  0.17300000000E+03 0. -1.
         -6    1    1    2    0  503  0.36138478588E+02 -0.42552158660E+02 -0.81002221313E+03  0.83016965833E+03  0.17300000000E+03 0.  1.
<mgrwt>
<rscale>  2 0.18178470E+03</rscale>
<asrwt>0</asrwt>
<pdfrwt beam="1">  1       21 0.24118593E-01 0.18178470E+03</pdfrwt>
<pdfrwt beam="2">  1       21 0.13483263E+00 0.18178470E+03</pdfrwt>
<totfact> 0.64475319E+03</totfact>
</mgrwt>
</event>
<event>
 4    2  0.3992997E+000  0.2403304E+03  0.7546771E-02  0.1119573E+00
         21   -1    0    0  501  502  0.00000000000E+00  0.00000000000E+00  0.38981606140E+03  0.38981606140E+03  0.00000000000E+00 0. -1.
         21   -1    0    0  502  503 -0.00000000000E+00 -0.00000000000E+00 -0.16230989282E+03  0.16230989282E+03  0.00000000000E+00 0.  1.
          6    1    1    2  501    0  0.10535844030E+03 -0.12934176116E+03  0.19523714508E+03  0.30963887828E+03  0.17300000000E+03 0. -1.
         -6    1    1    2    0  503 -0.10535844030E+03  0.12934176116E+03  0.32269023493E+02  0.24248707594E+03  0.17300000000E+03 0.  1.
<mgrwt>
<rscale>  2 0.24033038E+03</rscale>
<asrwt>0</asrwt>
<pdfrwt beam="1">  1       21 0.59971701E-01 0.24033038E+03</pdfrwt>
<pdfrwt beam="2">  1       21 0.24970753E-01 0.24033038E+03</pdfrwt>
<totfact> 0.38474960E+04</totfact>
</mgrwt>
</event>
<event>
 4    2  0.3992997E+000  0.1901303E+03  0.7546771E-02  0.1158344E+00
         21   -1    0    0  503  502  0.00000000000E+00  0.00000000000E+00  0.61370698259E+02  0.61370698259E+02  0.00000000000E+00 0. -1.
         21   -1    0    0  501  503 -0.00000000000E+00 -0.00000000000E+00 -0.58973535038E+03  0.58973535038E+03  0.00000000000E+00 0. -1.
          6    1    1    2  501    0 -0.78609790169E+02  0.64059904228E+01 -0.25296949164E+03  0.31645394534E+03  0.17300000000E+03 0. -1.
         -6    1    1    2    0  502  0.78609790169E+02 -0.64059904228E+01 -0.27539516049E+03  0.33465210330E+03  0.17300000000E+03 0. -1.
<mgrwt>
<rscale>  2 0.19013031E+03</rscale>
<asrwt>0</asrwt>
<pdfrwt beam="1">  1       21 0.94416462E-02 0.19013031E+03</pdfrwt>
<pdfrwt beam="2">  1       21 0.90728512E-01 0.19013031E+03</pdfrwt>
<totfact> 0.92691379E+04</totfact>
</mgrwt>
</event>
<event>
 4    2  0.3992997E+000  0.3183685E+03  0.7546771E-02  0.1076403E+00
         21   -1    0    0  501  502  0.00000000000E+00  0.00000000000E+00  0.29039763758E+03  0.29039763758E+03  0.00000000000E+00 0. -1.
         21   -1    0    0  502  503 -0.00000000000E+00 -0.00000000000E+00 -0.10475752828E+04  0.10475752828E+04  0.00000000000E+00 0.  1.
          6    1    1    2  501    0  0.26572827495E+03 -0.28600053543E+02  0.16769825466E+03  0.35983493965E+03  0.17300000000E+03 0. -1.
         -6    1    1    2    0  503 -0.26572827495E+03  0.28600053543E+02 -0.92487589991E+03  0.97813798076E+03  0.17300000000E+03 0.  1.
<mgrwt>
<rscale>  2 0.31836846E+03</rscale>
<asrwt>0</asrwt>
<pdfrwt beam="1">  1       21 0.44676559E-01 0.31836846E+03</pdfrwt>
<pdfrwt beam="2">  1       21 0.16116543E+00 0.31836846E+03</pdfrwt>
<totfact> 0.10713812E+03</totfact>
</mgrwt>
</event>
<event>
 4    2  0.3992997E+000  0.2204422E+03  0.7546771E-02  0.1133554E+00
         21   -1    0    0  503  502  0.00000000000E+00  0.00000000000E+00  0.42694308274E+03  0.42694308274E+03  0.00000000000E+00 0.  1.
         21   -1    0    0  501  503 -0.00000000000E+00 -0.00000000000E+00 -0.11663639247E+03  0.11663639247E+03  0.00000000000E+00 0. -1.
          6    1    1    2  501    0 -0.22950025239E+02 -0.13468129907E+03  0.11292096365E+03  0.24768104491E+03  0.17300000000E+03 0. -1.
         -6    1    1    2    0  502  0.22950025239E+02  0.13468129907E+03  0.19738572663E+03  0.29589843030E+03  0.17300000000E+03 0.  1.
<mgrwt>
<rscale>  2 0.22044218E+03</rscale>
<asrwt>0</asrwt>
<pdfrwt beam="1">  1       21 0.65683550E-01 0.22044218E+03</pdfrwt>
<pdfrwt beam="2">  1       21 0.17944061E-01 0.22044218E+03</pdfrwt>
<totfact> 0.59395147E+04</totfact>
</mgrwt>
</event>
<event>
 4    2  0.3992997E+000  0.2897900E+03  0.7546771E-02  0.1090459E+00
         21   -1    0    0  501  502  0.00000000000E+00  0.00000000000E+00  0.31513271157E+03  0.31513271157E+03  0.00000000000E+00 0.  1.
         21   -1    0    0  502  503 -0.00000000000E+00 -0.00000000000E+00 -0.43935986413E+03  0.43935986413E+03  0.00000000000E+00 0.  1.
          6    1    1    2  501    0 -0.23213509949E+03  0.12749229308E+02  0.17452213476E+03  0.33828423372E+03  0.17300000000E+03 0.  1.
         -6    1    1    2    0  503  0.23213509949E+03 -0.12749229308E+02 -0.29874928731E+03  0.41620834198E+03  0.17300000000E+03 0.  1.
<mgrwt>
<rscale>  2 0.28979001E+03</rscale>
<asrwt>0</asrwt>
<pdfrwt beam="1">  1       21 0.48481955E-01 0.28979001E+03</pdfrwt>
<pdfrwt beam="2">  1       21 0.67593825E-01 0.28979001E+03</pdfrwt>
<totfact> 0.76680583E+03</totfact>
</mgrwt>
</event>
<event>
 4    2  0.3992997E+000  0.2073086E+03  0.7546771E-02  0.1143715E+00
         21   -1    0    0  501  502  0.00000000000E+00  0.00000000000E+00  0.62683088126E+03  0.62683088126E+03  0.00000000000E+00 0. -1.
         21   -1    0    0  502  503 -0.00000000000E+00 -0.00000000000E+00 -0.12714636100E+03  0.12714636100E+03  0.00000000000E+00 0.  1.
          6    1    1    2  501    0  0.68763319897E+02 -0.91211089415E+02  0.50574012430E+03  0.54658021399E+03  0.17300000000E+03 0. -1.
         -6    1    1    2    0  503 -0.68763319897E+02  0.91211089415E+02 -0.60556040429E+01  0.20739702827E+03  0.17300000000E+03 0.  1.
<mgrwt>
<rscale>  2 0.20730860E+03</rscale>
<asrwt>0</asrwt>
<pdfrwt beam="1">  1       21 0.96435518E-01 0.20730860E+03</pdfrwt>
<pdfrwt beam="2">  1       21 0.19560979E-01 0.20730860E+03</pdfrwt>
<totfact> 0.21326264E+04</totfact>
</mgrwt>
</event>
<event>
 4    2  0.3992997E+000  0.2130434E+03  0.7546771E-02  0.1139178E+00
         21   -1    0    0  501  502  0.00000000000E+00  0.00000000000E+00  0.45112992154E+03  0.45112992154E+03  0.00000000000E+00 0. -1.
         21   -1    0    0  502  503 -0.00000000000E+00 -0.00000000000E+00 -0.11534198054E+03  0.11534198054E+03  0.00000000000E+00 0.  1.
          6    1    1    2  501    0  0.12427752518E+03 -0.36857404288E+01  0.26912365884E+03  0.34324194338E+03  0.17300000000E+03 0. -1.
         -6    1    1    2    0  503 -0.12427752518E+03  0.36857404288E+01  0.66664282155E+02  0.22322995870E+03  0.17300000000E+03 0.  1.
<mgrwt>
<rscale>  2 0.21304339E+03</rscale>
<asrwt>0</asrwt>
<pdfrwt beam="1">  1       21 0.69404602E-01 0.21304339E+03</pdfrwt>
<pdfrwt beam="2">  1       21 0.17744920E-01 0.21304339E+03</pdfrwt>
<totfact> 0.53898306E+04</totfact>
</mgrwt>
</event>
<event>
 4    2  0.3992997E+000  0.2297429E+03  0.7546771E-02  0.1126821E+00
         21   -1    0    0  503  502  0.00000000000E+00  0.00000000000E+00  0.26674375776E+03  0.26674375776E+03  0.00000000000E+00 0. -1.
         21   -1    0    0  501  503 -0.00000000000E+00 -0.00000000000E+00 -0.27802280629E+03  0.27802280629E+03  0.00000000000E+00 0.  1.
          6    1    1    2  501    0 -0.13712358935E+02 -0.15054825756E+03 -0.15188660956E+03  0.27541123580E+03  0.17300000000E+03 0.  1.
         -6    1    1    2    0  502  0.13712358935E+02  0.15054825756E+03  0.14060756103E+03  0.26935532825E+03  0.17300000000E+03 0. -1.
<mgrwt>
<rscale>  2 0.22974291E+03</rscale>
<asrwt>0</asrwt>
<pdfrwt beam="1">  1       21 0.41037501E-01 0.22974291E+03</pdfrwt>
<pdfrwt beam="2">  1       21 0.42772739E-01 0.22974291E+03</pdfrwt>
<totfact> 0.29488695E+04</totfact>
</mgrwt>
</event>
<event>
 4    2  0.3992997E+000  0.1871344E+03  0.7546771E-02  0.1161072E+00
         21   -1    0    0  503  502  0.00000000000E+00  0.00000000000E+00  0.74824537761E+03  0.74824537761E+03  0.00000000000E+00 0.  1.
         21   -1    0    0  501  503 -0.00000000000E+00 -0.00000000000E+00 -0.58698207232E+02  0.58698207232E+02  0.00000000000E+00 0. -1.
          6    1    1    2  501    0  0.26349830919E+02 -0.66302132768E+02  0.16313533607E+03  0.24825878488E+03  0.17300000000E+03 0. -1.
         -6    1    1    2    0  502 -0.26349830919E+02  0.66302132768E+02  0.52641183431E+03  0.55868479995E+03  0.17300000000E+03 0.  1.
<mgrwt>
<rscale>  2 0.18713441E+03</rscale>
<asrwt>0</asrwt>
<pdfrwt beam="1">  1       21 0.11511467E+00 0.18713441E+03</pdfrwt>
<pdfrwt beam="2">  1       21 0.90304939E-02 0.18713441E+03</pdfrwt>
<totfact> 0.56945635E+04</totfact>
</mgrwt>
</event>
<event>
 4    2  0.3992997E+000  0.2382001E+03  0.7546771E-02  0.1120998E+00
         21   -1    0    0  501  502  0.00000000000E+00  0.00000000000E+00  0.59165230436E+03  0.59165230436E+03  0.00000000000E+00 0.  1.
         21   -1    0    0  502  503 -0.00000000000E+00 -0.00000000000E+00 -0.10596194247E+03  0.10596194247E+03  0.00000000000E+00 0. -1.
          6    1    1    2  501    0  0.15037631311E+03 -0.64786243728E+02  0.13535785644E+03  0.27397270343E+03  0.17300000000E+03 0. -1.
         -6    1    1    2    0  503 -0.15037631311E+03  0.64786243728E+02  0.35033250545E+03  0.42364154340E+03  0.17300000000E+03 0.  1.
<mgrwt>
<rscale>  2 0.23820011E+03</rscale>
<asrwt>0</asrwt>
<pdfrwt beam="1">  1       21 0.91023429E-01 0.23820011E+03</pdfrwt>
<pdfrwt beam="2">  1       21 0.16301838E-01 0.23820011E+03</pdfrwt>
<totfact> 0.33682037E+04</totfact>
</mgrwt>
</event>
<event>
 4    2  0.3992997E+000  0.1732130E+03  0.7546771E-02  0.1174538E+00
         21   -1    0    0  501  502  0.00000000000E+00  0.00000000000E+00  0.40702471429E+03  0.40702471429E+03  0.00000000000E+00 0.  1.
         21   -1    0    0  502  503 -0.00000000000E+00 -0.00000000000E+00 -0.19719573879E+03  0.19719573879E+03  0.00000000000E+00 0.  1.
          6    1    1    2  501    0 -0.85218993225E+01 -0.10520303048E+01  0.34398224860E+03  0.38513181755E+03  0.17300000000E+03 0.  1.
         -6    1    1    2    0  503  0.85218993225E+01  0.10520303048E+01 -0.13415327310E+03  0.21908863553E+03  0.17300000000E+03 0.  1.
<mgrwt>
<rscale>  2 0.17321296E+03</rscale>
<asrwt>0</asrwt>
<pdfrwt beam="1">  1       21 0.62619186E-01 0.17321296E+03</pdfrwt>
<pdfrwt beam="2">  1       21 0.30337806E-01 0.17321296E+03</pdfrwt>
<totfact> 0.24917774E+04</totfact>
</mgrwt>
</event>
<event>
 4    2  0.3992997E+000  0.2065756E+03  0.7546771E-02  0.1144307E+00
         21   -1    0    0  501  502  0.00000000000E+00  0.00000000000E+00  0.15537759406E+04  0.15537759406E+04  0.00000000000E+00 0.  1.
         21   -1    0    0  502  503 -0.00000000000E+00 -0.00000000000E+00 -0.11013218140E+03  0.11013218140E+03  0.00000000000E+00 0.  1.
          6    1    1    2  501    0  0.80846648270E+02  0.78792747334E+02  0.14426146879E+04  0.14573299611E+04  0.17300000000E+03 0.  1.
         -6    1    1    2    0  503 -0.80846648270E+02 -0.78792747334E+02  0.10290712122E+01  0.20657816089E+03  0.17300000000E+03 0.  1.
<mgrwt>
<rscale>  2 0.20657560E+03</rscale>
<asrwt>0</asrwt>
<pdfrwt beam="1">  1       21 0.23904244E+00 0.20657560E+03</pdfrwt>
<pdfrwt beam="2">  1       21 0.16943414E-01 0.20657560E+03</pdfrwt>
<totfact> 0.23870022E+03</totfact>
</mgrwt>
</event>
<event>
 4    2  0.3992997E+000  0.2562661E+03  0.7546771E-02  0.1109408E+00
         21   -1    0    0  503  502  0.00000000000E+00  0.00000000000E+00  0.42638143035E+03  0.42638143035E+03  0.00000000000E+00 0.  1.
         21   -1    0    0  501  503 -0.00000000000E+00 -0.00000000000E+00 -0.16322229584E+03  0.16322229584E+03  0.00000000000E+00 0. -1.
          6    1    1    2  501    0  0.12246141766E+02 -0.18866205127E+03  0.20156850006E+03  0.32604017819E+03  0.17300000000E+03 0.  1.
         -6    1    1    2    0  502 -0.12246141766E+02  0.18866205127E+03  0.61590634449E+02  0.26356354799E+03  0.17300000000E+03 0.  1.
<mgrwt>
<rscale>  2 0.25626615E+03</rscale>
<asrwt>0</asrwt>
<pdfrwt beam="1">  1       21 0.65597143E-01 0.25626615E+03</pdfrwt>
<pdfrwt beam="2">  1       21 0.25111123E-01 0.25626615E+03</pdfrwt>
<totfact> 0.31096888E+04</totfact>
</mgrwt>
</event>
<event>
 4    2  0.3992997E+000  0.2049585E+03  0.7546771E-02  0.1145622E+00
         21   -1    0    0  501  502  0.00000000000E+00  0.00000000000E+00  0.17958324408E+03  0.17958324408E+03  0.00000000000E+00 0. -1.
         21   -1    0    0  502  503 -0.00000000000E+00 -0.00000000000E+00 -0.26866834407E+03  0.26866834407E+03  0.00000000000E+00 0. -1.
          6    1    1    2  501    0 -0.60250431517E+01 -0.10973917957E+03 -0.12514624587E+03  0.24014489696E+03  0.17300000000E+03 0. -1.
         -6    1    1    2    0  503  0.60250431517E+01  0.10973917957E+03  0.36061145881E+02  0.20810669120E+03  0.17300000000E+03 0. -1.
<mgrwt>
<rscale>  2 0.20495850E+03</rscale>
<asrwt>0</asrwt>
<pdfrwt beam="1">  1       21 0.27628192E-01 0.20495850E+03</pdfrwt>
<pdfrwt beam="2">  1       21 0.41333591E-01 0.20495850E+03</pdfrwt>
<totfact> 0.70083677E+04</totfact>
</mgrwt>
</event>
<event>
 4    2  0.3992997E+000  0.4054199E+03  0.7546771E-02  0.1041919E+00
         21   -1    0    0  501  502  0.00000000000E+00  0.00000000000E+00  0.10125201320E+04  0.10125201320E+04  0.00000000000E+00 0.  1.
         21   -1    0    0  502  503 -0.00000000000E+00 -0.00000000000E+00 -0.19008877363E+03  0.19008877363E+03  0.00000000000E+00 0. -1.
          6    1    1    2  501    0 -0.30417856351E+03 -0.20472349484E+03  0.18144542619E+03  0.44417085736E+03  0.17300000000E+03 0. -1.
         -6    1    1    2    0  503  0.30417856351E+03  0.20472349484E+03  0.64098593222E+03  0.75843804832E+03  0.17300000000E+03 0.  1.
<mgrwt>
<rscale>  2 0.40541992E+03</rscale>
<asrwt>0</asrwt>
<pdfrwt beam="1">  1       21 0.15577232E+00 0.40541992E+03</pdfrwt>
<pdfrwt beam="2">  1       21 0.29244427E-01 0.40541992E+03</pdfrwt>
<totfact> 0.26507022E+03</totfact>
</mgrwt>
</event>
<event>
 4    2  0.3992997E+000  0.2114712E+03  0.7546771E-02  0.1140406E+00
         21   -1    0    0  503  502  0.00000000000E+00  0.00000000000E+00  0.19861316459E+03  0.19861316459E+03  0.00000000000E+00 0.  1.
         21   -1    0    0  501  503 -0.00000000000E+00 -0.00000000000E+00 -0.22686472393E+03  0.22686472393E+03  0.00000000000E+00 0. -1.
          6    1    1    2  501    0  0.72940250992E+02  0.97317967925E+02  0.43065720854E+01  0.21151504358E+03  0.17300000000E+03 0. -1.
         -6    1    1    2    0  502 -0.72940250992E+02 -0.97317967925E+02 -0.32558131420E+02  0.21396284495E+03  0.17300000000E+03 0. -1.
<mgrwt>
<rscale>  2 0.21147120E+03</rscale>
<asrwt>0</asrwt>
<pdfrwt beam="1">  1       21 0.30555871E-01 0.21147120E+03</pdfrwt>
<pdfrwt beam="2">  1       21 0.34902265E-01 0.21147120E+03</pdfrwt>
<totfact> 0.80711268E+04</totfact>
</mgrwt>
</event>
<event>
 4    2  0.3992997E+000  0.2374081E+03  0.7546771E-02  0.1121532E+00
         21   -1    0    0  501  502  0.00000000000E+00  0.00000000000E+00  0.60099461452E+02  0.60099461452E+02  0.00000000000E+00 0. -1.
         21   -1    0    0  502  503 -0.00000000000E+00 -0.00000000000E+00 -0.20971805424E+04  0.20971805424E+04  0.00000000000E+00 0.  1.
          6    1    1    2  501    0 -0.12518817458E+03  0.10373778319E+03 -0.21655328708E+03  0.32133772399E+03  0.17300000000E+03 0. -1.
         -6    1    1    2    0  503  0.12518817458E+03 -0.10373778319E+03 -0.18205277939E+04  0.18359422799E+04  0.17300000000E+03 0.  1.
<mgrwt>
<rscale>  2 0.23740810E+03</rscale>
<asrwt>0</asrwt>
<pdfrwt beam="1">  1       21 0.92460707E-02 0.23740810E+03</pdfrwt>
<pdfrwt beam="2">  1       21 0.32264317E+00 0.23740810E+03</pdfrwt>
<totfact> 0.22321290E+03</totfact>
</mgrwt>
</event>
<event>
 4    2  0.3992997E+000  0.3424875E+03  0.7546771E-02  0.1065741E+00
         21   -1    0    0  503  502  0.00000000000E+00  0.00000000000E+00  0.41454121007E+03  0.41454121007E+03  0.00000000000E+00 0.  1.
         21   -1    0    0  501  503 -0.00000000000E+00 -0.00000000000E+00 -0.31444341529E+03  0.31444341529E+03  0.00000000000E+00 0. -1.
          6    1    1    2  501    0  0.28150826918E+03 -0.90120949417E+02  0.16538701038E+03  0.38032953388E+03  0.17300000000E+03 0.  1.
         -6    1    1    2    0  502 -0.28150826918E+03  0.90120949417E+02 -0.65289215592E+02  0.34865509148E+03  0.17300000000E+03 0. -1.
<mgrwt>
<rscale>  2 0.34248751E+03</rscale>
<asrwt>0</asrwt>
<pdfrwt beam="1">  1       21 0.63775570E-01 0.34248751E+03</pdfrwt>
<pdfrwt beam="2">  1       21 0.48375910E-01 0.34248751E+03</pdfrwt>
<totfact> 0.85555685E+03</totfact>
</mgrwt>
</event>
<event>
 4    2  0.3992997E+000  0.2152839E+03  0.7546771E-02  0.1137449E+00
         21   -1    0    0  503  502  0.00000000000E+00  0.00000000000E+00  0.97160885039E+03  0.97160885039E+03  0.00000000000E+00 0. -1.
         21   -1    0    0  501  503 -0.00000000000E+00 -0.00000000000E+00 -0.16358626221E+03  0.16358626221E+03  0.00000000000E+00 0.  1.
          6    1    1    2  501    0 -0.95906059460E+02  0.84971581184E+02 -0.73716358640E+02  0.22755492388E+03  0.17300000000E+03 0.  1.
         -6    1    1    2    0  502  0.95906059460E+02 -0.84971581184E+02  0.88173894682E+03  0.90764018872E+03  0.17300000000E+03 0. -1.
<mgrwt>
<rscale>  2 0.21528386E+03</rscale>
<asrwt>0</asrwt>
<pdfrwt beam="1">  1       21 0.14947828E+00 0.21528386E+03</pdfrwt>
<pdfrwt beam="2">  1       21 0.25167118E-01 0.21528386E+03</pdfrwt>
<totfact> 0.44271642E+03</totfact>
</mgrwt>
</event>
<event>
 4    2  0.3992997E+000  0.1813779E+03  0.7546771E-02  0.1166476E+00
         21   -1    0    0  503  502  0.00000000000E+00  0.00000000000E+00  0.30058818936E+03  0.30058818936E+03  0.00000000000E+00 0.  1.
         21   -1    0    0  501  503 -0.00000000000E+00 -0.00000000000E+00 -0.10951199903E+03  0.10951199903E+03  0.00000000000E+00 0.  1.
          6    1    1    2  501    0  0.53202891135E+02  0.11763951390E+02  0.10060187049E+03  0.20740943692E+03  0.17300000000E+03 0.  1.
         -6    1    1    2    0  502 -0.53202891135E+02 -0.11763951390E+02  0.90474319837E+02  0.20269075146E+03  0.17300000000E+03 0.  1.
<mgrwt>
<rscale>  2 0.18137789E+03</rscale>
<asrwt>0</asrwt>
<pdfrwt beam="1">  1       21 0.46244337E-01 0.18137789E+03</pdfrwt>
<pdfrwt beam="2">  1       21 0.16848000E-01 0.18137789E+03</pdfrwt>
<totfact> 0.14262108E+05</totfact>
</mgrwt>
</event>
<event>
 4    2  0.3992997E+000  0.2736560E+03  0.7546771E-02  0.1099205E+00
         21   -1    0    0  501  502  0.00000000000E+00  0.00000000000E+00  0.11359632165E+03  0.11359632165E+03  0.00000000000E+00 0.  1.
         21   -1    0    0  502  503 -0.00000000000E+00 -0.00000000000E+00 -0.67618651938E+03  0.67618651938E+03  0.00000000000E+00 0.  1.
          6    1    1    2  501    0  0.20239056318E+03 -0.63219179614E+02 -0.34380422840E+03  0.43941888011E+03  0.17300000000E+03 0.  1.
         -6    1    1    2    0  503 -0.20239056318E+03  0.63219179614E+02 -0.21878596933E+03  0.35036396092E+03  0.17300000000E+03 0.  1.
<mgrwt>
<rscale>  2 0.27365600E+03</rscale>
<asrwt>0</asrwt>
<pdfrwt beam="1">  1       21 0.17476357E-01 0.27365600E+03</pdfrwt>
<pdfrwt beam="2">  1       21 0.10402870E+00 0.27365600E+03</pdfrwt>
<totfact> 0.21212553E+04</totfact>
</mgrwt>
</event>
<event>
 4    2  0.3992997E+000  0.4740760E+03  0.7546771E-02  0.1020776E+00
         21   -1    0    0  501  502  0.00000000000E+00  0.00000000000E+00  0.37289890509E+03  0.37289890509E+03  0.00000000000E+00 0. -1.
         21   -1    0    0  502  503 -0.00000000000E+00 -0.00000000000E+00 -0.82955227298E+03  0.82955227298E+03  0.00000000000E+00 0. -1.
          6    1    1    2  501    0  0.31099747664E+02 -0.44028611490E+03  0.86073144852E+02  0.48182636244E+03  0.17300000000E+03 0. -1.
         -6    1    1    2    0  503 -0.31099747664E+02  0.44028611490E+03 -0.54272651274E+03  0.72062481563E+03  0.17300000000E+03 0. -1.
<mgrwt>
<rscale>  2 0.47407600E+03</rscale>
<asrwt>0</asrwt>
<pdfrwt beam="1">  1       21 0.57369063E-01 0.47407600E+03</pdfrwt>
<pdfrwt beam="2">  1       21 0.12762342E+00 0.47407600E+03</pdfrwt>
<totfact> 0.10863606E+03</totfact>
</mgrwt>
</event>
<event>
 4    2  0.3992997E+000  0.1767886E+03  0.7546771E-02  0.1170948E+00
         21   -1    0    0  501  502  0.00000000000E+00  0.00000000000E+00  0.24815337664E+02  0.24815337664E+02  0.00000000000E+00 0.  1.
         21   -1    0    0  502  503 -0.00000000000E+00 -0.00000000000E+00 -0.18638595882E+04  0.18638595882E+04  0.00000000000E+00 0. -1.
          6    1    1    2  501    0 -0.26435850630E+02  0.25026758667E+02 -0.38177409612E+03  0.42072039803E+03  0.17300000000E+03 0.  1.
         -6    1    1    2    0  503  0.26435850630E+02 -0.25026758667E+02 -0.14572701544E+04  0.14679545278E+04  0.17300000000E+03 0. -1.
<mgrwt>
<rscale>  2 0.17678855E+03</rscale>
<asrwt>0</asrwt>
<pdfrwt beam="1">  1       21 0.38177435E-02 0.17678855E+03</pdfrwt>
<pdfrwt beam="2">  1       21 0.28674769E+00 0.17678855E+03</pdfrwt>
<totfact> 0.17519978E+04</totfact>
</mgrwt>
</event>
<event>
 4    2  0.3992997E+000  0.1855020E+03  0.7546771E-02  0.1162582E+00
         21   -1    0    0  501  502  0.00000000000E+00  0.00000000000E+00  0.97520803840E+02  0.97520803840E+02  0.00000000000E+00 0. -1.
         21   -1    0    0  502  503 -0.00000000000E+00 -0.00000000000E+00 -0.35829127292E+03  0.35829127292E+03  0.00000000000E+00 0. -1.
          6    1    1    2  501    0 -0.57246201177E+02 -0.34711359349E+02 -0.15845018568E+03  0.24396202032E+03  0.17300000000E+03 0. -1.
         -6    1    1    2    0  503  0.57246201177E+02  0.34711359349E+02 -0.10232028339E+03  0.21185005643E+03  0.17300000000E+03 0. -1.
<mgrwt>
<rscale>  2 0.18550204E+03</rscale>
<asrwt>0</asrwt>
<pdfrwt beam="1">  1       21 0.15003201E-01 0.18550204E+03</pdfrwt>
<pdfrwt beam="2">  1       21 0.55121733E-01 0.18550204E+03</pdfrwt>
<totfact> 0.12204969E+05</totfact>
</mgrwt>
</event>
<event>
 4    2  0.3992997E+000  0.1912533E+03  0.7546771E-02  0.1157336E+00
         21   -1    0    0  501  502  0.00000000000E+00  0.00000000000E+00  0.29770830169E+03  0.29770830169E+03  0.00000000000E+00 0. -1.
         21   -1    0    0  502  503 -0.00000000000E+00 -0.00000000000E+00 -0.12656033305E+03  0.12656033305E+03  0.00000000000E+00 0. -1.
          6    1    1    2  501    0 -0.81526184289E+02 -0.15194956779E+01  0.12182408594E+03  0.22675743760E+03  0.17300000000E+03 0. -1.
         -6    1    1    2    0  503  0.81526184289E+02  0.15194956779E+01  0.49323882699E+02  0.19751119714E+03  0.17300000000E+03 0. -1.
<mgrwt>
<rscale>  2 0.19125331E+03</rscale>
<asrwt>0</asrwt>
<pdfrwt beam="1">  1       21 0.45801277E-01 0.19125331E+03</pdfrwt>
<pdfrwt beam="2">  1       21 0.19470821E-01 0.19125331E+03</pdfrwt>
<totfact> 0.11095651E+05</totfact>
</mgrwt>
</event>
<event>
 4    2  0.3992997E+000  0.2541140E+03  0.7546771E-02  0.1110732E+00
         21   -1    0    0  501  502  0.00000000000E+00  0.00000000000E+00  0.14262595756E+04  0.14262595756E+04  0.00000000000E+00 0.  1.
         21   -1    0    0  502  503 -0.00000000000E+00 -0.00000000000E+00 -0.47307935706E+02  0.47307935706E+02  0.00000000000E+00 0. -1.
          6    1    1    2  501    0 -0.18408568492E+03  0.27520356569E+02  0.84220932929E+03  0.87971044314E+03  0.17300000000E+03 0. -1.
         -6    1    1    2    0  503  0.18408568492E+03 -0.27520356569E+02  0.53674231056E+03  0.59385706813E+03  0.17300000000E+03 0. -1.
<mgrwt>
<rscale>  2 0.25411397E+03</rscale>
<asrwt>0</asrwt>
<pdfrwt beam="1">  1       21 0.21942452E+00 0.25411397E+03</pdfrwt>
<pdfrwt beam="2">  1       21 0.72781450E-02 0.25411397E+03</pdfrwt>
<totfact> 0.13693611E+04</totfact>
</mgrwt>
</event>
<event>
 4    2  0.3992997E+000  0.2202071E+03  0.7546771E-02  0.1133729E+00
         21   -1    0    0  503  502  0.00000000000E+00  0.00000000000E+00  0.61218422017E+03  0.61218422017E+03  0.00000000000E+00 0. -1.
         21   -1    0    0  501  503 -0.00000000000E+00 -0.00000000000E+00 -0.14634855327E+03  0.14634855327E+03  0.00000000000E+00 0. -1.
          6    1    1    2  501    0  0.12843699873E+03 -0.45454393817E+02 -0.23965453389E+02  0.22150735319E+03  0.17300000000E+03 0. -1.
         -6    1    1    2    0  502 -0.12843699873E+03  0.45454393817E+02  0.48980112029E+03  0.53702542025E+03  0.17300000000E+03 0. -1.
<mgrwt>
<rscale>  2 0.22020709E+03</rscale>
<asrwt>0</asrwt>
<pdfrwt beam="1">  1       21 0.94182186E-01 0.22020709E+03</pdfrwt>
<pdfrwt beam="2">  1       21 0.22515162E-01 0.22020709E+03</pdfrwt>
<totfact> 0.17173030E+04</totfact>
</mgrwt>
</event>
<event>
 4    2  0.3992997E+000  0.2380763E+03  0.7546771E-02  0.1121081E+00
         21   -1    0    0  501  502  0.00000000000E+00  0.00000000000E+00  0.16632586085E+04  0.16632586085E+04  0.00000000000E+00 0. -1.
         21   -1    0    0  502  503 -0.00000000000E+00 -0.00000000000E+00 -0.44507825047E+02  0.44507825047E+02  0.00000000000E+00 0. -1.
          6    1    1    2  501    0 -0.15186083275E+02 -0.16285180206E+03  0.12227285977E+04  0.12456907923E+04  0.17300000000E+03 0. -1.
         -6    1    1    2    0  503  0.15186083275E+02  0.16285180206E+03  0.39602218575E+03  0.46207564118E+03  0.17300000000E+03 0. -1.
<mgrwt>
<rscale>  2 0.23807630E+03</rscale>
<asrwt>0</asrwt>
<pdfrwt beam="1">  1       21 0.25588589E+00 0.23807630E+03</pdfrwt>
<pdfrwt beam="2">  1       21 0.68473590E-02 0.23807630E+03</pdfrwt>
<totfact> 0.92646019E+03</totfact>
</mgrwt>
</event>
<event>
 4    2  0.3992997E+000  0.2114176E+03  0.7546771E-02  0.1140448E+00
         21   -1    0    0  503  502  0.00000000000E+00  0.00000000000E+00  0.49970174419E+02  0.49970174419E+02  0.00000000000E+00 0.  1.
         21   -1    0    0  501  503 -0.00000000000E+00 -0.00000000000E+00 -0.10067583142E+04  0.10067583142E+04  0.00000000000E+00 0. -1.
          6    1    1    2  501    0 -0.11617843627E+03 -0.35650873172E+02 -0.65484143644E+03  0.68812405909E+03  0.17300000000E+03 0. -1.
         -6    1    1    2    0  502  0.11617843627E+03  0.35650873172E+02 -0.30194670331E+03  0.36860442951E+03  0.17300000000E+03 0.  1.
<mgrwt>
<rscale>  2 0.21141763E+03</rscale>
<asrwt>0</asrwt>
<pdfrwt beam="1">  1       21 0.76877194E-02 0.21141763E+03</pdfrwt>
<pdfrwt beam="2">  1       21 0.15488589E+00 0.21141763E+03</pdfrwt>
<totfact> 0.34915835E+04</totfact>
</mgrwt>
</event>
<event>
 4    2  0.3992997E+000  0.1943729E+03  0.7546771E-02  0.1154575E+00
         21   -1    0    0  501  502  0.00000000000E+00  0.00000000000E+00  0.15489617534E+03  0.15489617534E+03  0.00000000000E+00 0. -1.
         21   -1    0    0  502  503 -0.00000000000E+00 -0.00000000000E+00 -0.24950798068E+03  0.24950798068E+03  0.00000000000E+00 0. -1.
          6    1    1    2  501    0 -0.59430536907E+02  0.65725597929E+02 -0.77591060134E+02  0.20928739941E+03  0.17300000000E+03 0. -1.
         -6    1    1    2    0  503  0.59430536907E+02 -0.65725597929E+02 -0.17020745201E+02  0.19511675660E+03  0.17300000000E+03 0. -1.
<mgrwt>
<rscale>  2 0.19437295E+03</rscale>
<asrwt>0</asrwt>
<pdfrwt beam="1">  1       21 0.23830181E-01 0.19437295E+03</pdfrwt>
<pdfrwt beam="2">  1       21 0.38385843E-01 0.19437295E+03</pdfrwt>
<totfact> 0.10853496E+05</totfact>
</mgrwt>
</event>
<event>
 4    2  0.3992997E+000  0.1758747E+03  0.7546771E-02  0.1171856E+00
         21   -1    0    0  501  502  0.00000000000E+00  0.00000000000E+00  0.28908652647E+03  0.28908652647E+03  0.00000000000E+00 0.  1.
         21   -1    0    0  502  503 -0.00000000000E+00 -0.00000000000E+00 -0.24327058347E+03  0.24327058347E+03  0.00000000000E+00 0.  1.
          6    1    1    2  501    0 -0.15591282864E+02  0.27564963636E+02  0.22212718129E+03  0.28332384296E+03  0.17300000000E+03 0.  1.
         -6    1    1    2    0  503  0.15591282864E+02 -0.27564963636E+02 -0.17631123829E+03  0.24903326699E+03  0.17300000000E+03 0.  1.
<mgrwt>
<rscale>  2 0.17587471E+03</rscale>
<asrwt>0</asrwt>
<pdfrwt beam="1">  1       21 0.44474850E-01 0.17587471E+03</pdfrwt>
<pdfrwt beam="2">  1       21 0.37426243E-01 0.17587471E+03</pdfrwt>
<totfact> 0.33720212E+04</totfact>
</mgrwt>
</event>
<event>
 4    2  0.3992997E+000  0.1771719E+03  0.7546771E-02  0.1170569E+00
         21   -1    0    0  503  502  0.00000000000E+00  0.00000000000E+00  0.22421909112E+03  0.22421909112E+03  0.00000000000E+00 0. -1.
         21   -1    0    0  501  503 -0.00000000000E+00 -0.00000000000E+00 -0.14634269332E+03  0.14634269332E+03  0.00000000000E+00 0. -1.
          6    1    1    2  501    0  0.36190345842E+01 -0.38049637152E+02  0.77521924019E+02  0.19338955764E+03  0.17300000000E+03 0. -1.
         -6    1    1    2    0  502 -0.36190345842E+01  0.38049637152E+02  0.35447378465E+00  0.17717222680E+03  0.17300000000E+03 0. -1.
<mgrwt>
<rscale>  2 0.17717187E+03</rscale>
<asrwt>0</asrwt>
<pdfrwt beam="1">  1       21 0.34495245E-01 0.17717187E+03</pdfrwt>
<pdfrwt beam="2">  1       21 0.22514260E-01 0.17717187E+03</pdfrwt>
<totfact> 0.15042171E+05</totfact>
</mgrwt>
</event>
<event>
 4    2  0.3992997E+000  0.1806140E+03  0.7546771E-02  0.1167210E+00
         21   -1    0    0  503  502  0.00000000000E+00  0.00000000000E+00  0.12764683655E+04  0.12764683655E+04  0.00000000000E+00 0. -1.
         21   -1    0    0  501  503 -0.00000000000E+00 -0.00000000000E+00 -0.26386867749E+02  0.26386867749E+02  0.00000000000E+00 0. -1.
          6    1    1    2  501    0 -0.51827830879E+02  0.25102363324E+01  0.74063553331E+03  0.76234009375E+03  0.17300000000E+03 0. -1.
         -6    1    1    2    0  502  0.51827830879E+02 -0.25102363324E+01  0.50944596443E+03  0.54051513949E+03  0.17300000000E+03 0. -1.
<mgrwt>
<rscale>  2 0.18061402E+03</rscale>
<asrwt>0</asrwt>
<pdfrwt beam="1">  1       21 0.19637970E+00 0.18061402E+03</pdfrwt>
<pdfrwt beam="2">  1       21 0.40595191E-02 0.18061402E+03</pdfrwt>
<totfact> 0.54581298E+04</totfact>
</mgrwt>
</event>
<event>
 4    2  0.3992997E+000  0.1904134E+03  0.7546771E-02  0.1158089E+00
         21   -1    0    0  501  502  0.00000000000E+00  0.00000000000E+00  0.23440291616E+03  0.23440291616E+03  0.00000000000E+00 0.  1.
         21   -1    0    0  502  503 -0.00000000000E+00 -0.00000000000E+00 -0.16058666591E+03  0.16058666591E+03  0.00000000000E+00 0. -1.
          6    1    1    2  501    0 -0.18834423480E+02  0.77288668530E+02  0.74787138306E+02  0.20457367828E+03  0.17300000000E+03 0.  1.
         -6    1    1    2    0  503  0.18834423480E+02 -0.77288668530E+02 -0.97088805789E+00  0.19041590379E+03  0.17300000000E+03 0. -1.
<mgrwt>
<rscale>  2 0.19041343E+03</rscale>
<asrwt>0</asrwt>
<pdfrwt beam="1">  1       21 0.36061987E-01 0.19041343E+03</pdfrwt>
<pdfrwt beam="2">  1       21 0.24705641E-01 0.19041343E+03</pdfrwt>
<totfact> 0.11497968E+05</totfact>
</mgrwt>
</event>
<event>
 4    2  0.3992997E+000  0.1888925E+03  0.7546771E-02  0.1159464E+00
         21   -1    0    0  503  502  0.00000000000E+00  0.00000000000E+00  0.34377688016E+03  0.34377688016E+03  0.00000000000E+00 0.  1.
         21   -1    0    0  501  503 -0.00000000000E+00 -0.00000000000E+00 -0.12662757894E+03  0.12662757894E+03  0.00000000000E+00 0.  1.
          6    1    1    2  501    0  0.68172196130E+02 -0.33225314300E+02  0.86877022218E+01  0.18909216273E+03  0.17300000000E+03 0.  1.
         -6    1    1    2    0  502 -0.68172196130E+02  0.33225314300E+02  0.20846159900E+03  0.28131229637E+03  0.17300000000E+03 0.  1.
<mgrwt>
<rscale>  2 0.18889248E+03</rscale>
<asrwt>0</asrwt>
<pdfrwt beam="1">  1       21 0.52888751E-01 0.18889248E+03</pdfrwt>
<pdfrwt beam="2">  1       21 0.19481166E-01 0.18889248E+03</pdfrwt>
<totfact> 0.82252988E+04</totfact>
</mgrwt>
</event>
<event>
 4    2  0.3992997E+000  0.1734016E+03  0.7546771E-02  0.1174346E+00
         21   -1    0    0  501  502  0.00000000000E+00  0.00000000000E+00  0.21959464078E+03  0.21959464078E+03  0.00000000000E+00 0.  1.
         21   -1    0    0  502  503 -0.00000000000E+00 -0.00000000000E+00 -0.16282564100E+03  0.16282564100E+03  0.00000000000E+00 0.  1.
          6    1    1    2  501    0  0.10766593727E+02 -0.48162939339E+01 -0.47876096326E+02  0.17988951283E+03  0.17300000000E+03 0.  1.
         -6    1    1    2    0  503 -0.10766593727E+02  0.48162939339E+01  0.10464509611E+03  0.20253076894E+03  0.17300000000E+03 0.  1.
<mgrwt>
<rscale>  2 0.17340160E+03</rscale>
<asrwt>0</asrwt>
<pdfrwt beam="1">  1       21 0.33783791E-01 0.17340160E+03</pdfrwt>
<pdfrwt beam="2">  1       21 0.25050099E-01 0.17340160E+03</pdfrwt>
<totfact> 0.12820924E+05</totfact>
</mgrwt>
</event>
<event>
 4    2  0.3992997E+000  0.1837533E+03  0.7546771E-02  0.1164219E+00
         21   -1    0    0  503  502  0.00000000000E+00  0.00000000000E+00  0.71694940017E+03  0.71694940017E+03  0.00000000000E+00 0. -1.
         21   -1    0    0  501  503 -0.00000000000E+00 -0.00000000000E+00 -0.47947847113E+02  0.47947847113E+02  0.00000000000E+00 0. -1.
          6    1    1    2  501    0 -0.59403758017E+02  0.17535113329E+02  0.38548397379E+03  0.42704002238E+03  0.17300000000E+03 0. -1.
         -6    1    1    2    0  502  0.59403758017E+02 -0.17535113329E+02  0.28351757927E+03  0.33785722491E+03  0.17300000000E+03 0. -1.
<mgrwt>
<rscale>  2 0.18375333E+03</rscale>
<asrwt>0</asrwt>
<pdfrwt beam="1">  1       21 0.11029990E+00 0.18375333E+03</pdfrwt>
<pdfrwt beam="2">  1       21 0.73765924E-02 0.18375333E+03</pdfrwt>
<totfact> 0.89985002E+04</totfact>
</mgrwt>
</event>
<event>
 4    2  0.3992997E+000  0.2148106E+03  0.7546771E-02  0.1137812E+00
         21   -1    0    0  503  502  0.00000000000E+00  0.00000000000E+00  0.33434649822E+02  0.33434649822E+02  0.00000000000E+00 0. -1.
         21   -1    0    0  501  503 -0.00000000000E+00 -0.00000000000E+00 -0.14155350563E+04  0.14155350563E+04  0.00000000000E+00 0.  1.
          6    1    1    2  501    0 -0.75477355774E+02 -0.10255622800E+03 -0.57644537958E+03  0.61516899042E+03  0.17300000000E+03 0.  1.
         -6    1    1    2    0  502  0.75477355774E+02  0.10255622800E+03 -0.80565502689E+03  0.83380071569E+03  0.17300000000E+03 0.  1.
<mgrwt>
<rscale>  2 0.21481064E+03</rscale>
<asrwt>0</asrwt>
<pdfrwt beam="1">  1       21 0.51437920E-02 0.21481064E+03</pdfrwt>
<pdfrwt beam="2">  1       21 0.21777463E+00 0.21481064E+03</pdfrwt>
<totfact> 0.26178294E+04</totfact>
</mgrwt>
</event>
<event>
 4    2  0.3992997E+000  0.1797167E+03  0.7546771E-02  0.1168077E+00
         21   -1    0    0  503  502  0.00000000000E+00  0.00000000000E+00  0.20218707281E+03  0.20218707281E+03  0.00000000000E+00 0.  1.
         21   -1    0    0  501  503 -0.00000000000E+00 -0.00000000000E+00 -0.16008596245E+03  0.16008596245E+03  0.00000000000E+00 0. -1.
          6    1    1    2  501    0 -0.44347150500E+02  0.20060648186E+02  0.12674378091E+02  0.18016309062E+03  0.17300000000E+03 0.  1.
         -6    1    1    2    0  502  0.44347150500E+02 -0.20060648186E+02  0.29426732264E+02  0.18210994463E+03  0.17300000000E+03 0. -1.
<mgrwt>
<rscale>  2 0.17971672E+03</rscale>
<asrwt>0</asrwt>
<pdfrwt beam="1">  1       21 0.31105704E-01 0.17971672E+03</pdfrwt>
<pdfrwt beam="2">  1       21 0.24628609E-01 0.17971672E+03</pdfrwt>
<totfact> 0.15538105E+05</totfact>
</mgrwt>
</event>
<event>
 4    2  0.3992997E+000  0.1775169E+03  0.7546771E-02  0.1170228E+00
         21   -1    0    0  503  502  0.00000000000E+00  0.00000000000E+00  0.36699541745E+02  0.36699541745E+02  0.00000000000E+00 0. -1.
         21   -1    0    0  501  503 -0.00000000000E+00 -0.00000000000E+00 -0.86013592359E+03  0.86013592359E+03  0.00000000000E+00 0. -1.
          6    1    1    2  501    0  0.24882987481E+02 -0.31049855463E+02 -0.39311363464E+03  0.43133581620E+03  0.17300000000E+03 0.  1.
         -6    1    1    2    0  502 -0.24882987481E+02  0.31049855463E+02 -0.43032274720E+03  0.46549964914E+03  0.17300000000E+03 0.  1.
<mgrwt>
<rscale>  2 0.17751692E+03</rscale>
<asrwt>0</asrwt>
<pdfrwt beam="1">  1       21 0.56460830E-02 0.17751692E+03</pdfrwt>
<pdfrwt beam="2">  1       21 0.13232861E+00 0.17751692E+03</pdfrwt>
<totfact> 0.91047643E+04</totfact>
</mgrwt>
</event>
<event>
 4    2  0.3992997E+000  0.2537398E+03  0.7546771E-02  0.1110964E+00
         21   -1    0    0  503  502  0.00000000000E+00  0.00000000000E+00  0.76716842256E+02  0.76716842256E+02  0.00000000000E+00 0.  1.
         21   -1    0    0  501  503 -0.00000000000E+00 -0.00000000000E+00 -0.11786921546E+04  0.11786921546E+04  0.00000000000E+00 0. -1.
          6    1    1    2  501    0 -0.11989825115E+03 -0.14170145671E+03 -0.88784336049E+03  0.92339034337E+03  0.17300000000E+03 0. -1.
         -6    1    1    2    0  502  0.11989825115E+03  0.14170145671E+03 -0.21413195188E+03  0.33201865351E+03  0.17300000000E+03 0.  1.
<mgrwt>
<rscale>  2 0.25373981E+03</rscale>
<asrwt>0</asrwt>
<pdfrwt beam="1">  1       21 0.11802591E-01 0.25373981E+03</pdfrwt>
<pdfrwt beam="2">  1       21 0.18133726E+00 0.25373981E+03</pdfrwt>
<totfact> 0.10309826E+04</totfact>
</mgrwt>
</event>
<event>
 4    2  0.3992997E+000  0.1752881E+03  0.7546771E-02  0.1172443E+00
         21   -1    0    0  501  502  0.00000000000E+00  0.00000000000E+00  0.16917778490E+02  0.16917778490E+02  0.00000000000E+00 0.  1.
         21   -1    0    0  502  503 -0.00000000000E+00 -0.00000000000E+00 -0.20325117540E+04  0.20325117540E+04  0.00000000000E+00 0.  1.
          6    1    1    2  501    0 -0.26801338423E+02 -0.88654573055E+01 -0.13420967650E+04  0.13534953398E+04  0.17300000000E+03 0.  1.
         -6    1    1    2    0  503  0.26801338423E+02  0.88654573055E+01 -0.67349721049E+03  0.69593419273E+03  0.17300000000E+03 0.  1.
<mgrwt>
<rscale>  2 0.17528807E+03</rscale>
<asrwt>0</asrwt>
<pdfrwt beam="1">  1       21 0.26027362E-02 0.17528807E+03</pdfrwt>
<pdfrwt beam="2">  1       21 0.31269399E+00 0.17528807E+03</pdfrwt>
<totfact> 0.23497432E+04</totfact>
</mgrwt>
</event>
<event>
 4    2  0.3992997E+000  0.2302438E+03  0.7546771E-02  0.1126468E+00
         21   -1    0    0  501  502  0.00000000000E+00  0.00000000000E+00  0.48590496640E+02  0.48590496640E+02  0.00000000000E+00 0. -1.
         21   -1    0    0  502  503 -0.00000000000E+00 -0.00000000000E+00 -0.11949000898E+04  0.11949000898E+04  0.00000000000E+00 0.  1.
          6    1    1    2  501    0  0.43492107516E+02 -0.14557353893E+03 -0.38981563637E+03  0.45273441333E+03  0.17300000000E+03 0.  1.
         -6    1    1    2    0  503 -0.43492107516E+02  0.14557353893E+03 -0.75649395679E+03  0.79075617311E+03  0.17300000000E+03 0.  1.
<mgrwt>
<rscale>  2 0.23024382E+03</rscale>
<asrwt>0</asrwt>
<pdfrwt beam="1">  1       21 0.74754613E-02 0.23024382E+03</pdfrwt>
<pdfrwt beam="2">  1       21 0.18383078E+00 0.23024382E+03</pdfrwt>
<totfact> 0.22561119E+04</totfact>
</mgrwt>
</event>
<event>
 4    2  0.3992997E+000  0.2206167E+03  0.7546771E-02  0.1133424E+00
         21   -1    0    0  503  502  0.00000000000E+00  0.00000000000E+00  0.20417441547E+03  0.20417441547E+03  0.00000000000E+00 0. -1.
         21   -1    0    0  501  503 -0.00000000000E+00 -0.00000000000E+00 -0.36518551574E+03  0.36518551574E+03  0.00000000000E+00 0.  1.
          6    1    1    2  501    0 -0.10153881415E+03  0.91829176219E+02 -0.24825608396E+03  0.33211867097E+03  0.17300000000E+03 0.  1.
         -6    1    1    2    0  502  0.10153881415E+03 -0.91829176219E+02  0.87244983688E+02  0.23724126025E+03  0.17300000000E+03 0. -1.
<mgrwt>
<rscale>  2 0.22061670E+03</rscale>
<asrwt>0</asrwt>
<pdfrwt beam="1">  1       21 0.31411449E-01 0.22061670E+03</pdfrwt>
<pdfrwt beam="2">  1       21 0.56182387E-01 0.22061670E+03</pdfrwt>
<totfact> 0.28608111E+04</totfact>
</mgrwt>
</event>
<event>
 4    2  0.3992997E+000  0.1821581E+03  0.7546771E-02  0.1165731E+00
         21   -1    0    0  503  502  0.00000000000E+00  0.00000000000E+00  0.79224588260E+02  0.79224588260E+02  0.00000000000E+00 0. -1.
         21   -1    0    0  501  503 -0.00000000000E+00 -0.00000000000E+00 -0.42693110523E+03  0.42693110523E+03  0.00000000000E+00 0. -1.
          6    1    1    2  501    0  0.23343177215E+02 -0.52035327587E+02 -0.13899015885E+03  0.22912844323E+03  0.17300000000E+03 0. -1.
         -6    1    1    2    0  502 -0.23343177215E+02  0.52035327587E+02 -0.20871635812E+03  0.27702725026E+03  0.17300000000E+03 0. -1.
<mgrwt>
<rscale>  2 0.18215812E+03</rscale>
<asrwt>0</asrwt>
<pdfrwt beam="1">  1       21 0.12188398E-01 0.18215812E+03</pdfrwt>
<pdfrwt beam="2">  1       21 0.65681707E-01 0.18215812E+03</pdfrwt>
<totfact> 0.12204347E+05</totfact>
</mgrwt>
</event>
<event>
 4    2  0.3992997E+000  0.2423339E+03  0.7546771E-02  0.1118248E+00
         21   -1    0    0  503  502  0.00000000000E+00  0.00000000000E+00  0.21424592335E+04  0.21424592335E+04  0.00000000000E+00 0.  1.
         21   -1    0    0  501  503 -0.00000000000E+00 -0.00000000000E+00 -0.54127567772E+02  0.54127567772E+02  0.00000000000E+00 0.  1.
          6    1    1    2  501    0  0.13105285892E+03 -0.10780474804E+03  0.27254466465E+03  0.36470030129E+03  0.17300000000E+03 0.  1.
         -6    1    1    2    0  502 -0.13105285892E+03  0.10780474804E+03  0.18157870010E+04  0.18318865000E+04  0.17300000000E+03 0.  1.
<mgrwt>
<rscale>  2 0.24233389E+03</rscale>
<asrwt>0</asrwt>
<pdfrwt beam="1">  1       21 0.32960905E+00 0.24233389E+03</pdfrwt>
<pdfrwt beam="2">  1       21 0.83273198E-02 0.24233389E+03</pdfrwt>
<totfact> 0.24299226E+03</totfact>
</mgrwt>
</event>
<event>
 4    2  0.3992997E+000  0.2225304E+03  0.7546771E-02  0.1132011E+00
         21   -1    0    0  503  502  0.00000000000E+00  0.00000000000E+00  0.85776304207E+03  0.85776304207E+03  0.00000000000E+00 0.  1.
         21   -1    0    0  501  503 -0.00000000000E+00 -0.00000000000E+00 -0.12597258236E+03  0.12597258236E+03  0.00000000000E+00 0.  1.
          6    1    1    2  501    0  0.10857224753E+02  0.13954527597E+03  0.38740146344E+01  0.22256408373E+03  0.17300000000E+03 0.  1.
         -6    1    1    2    0  502 -0.10857224753E+02 -0.13954527597E+03  0.72791644507E+03  0.76117154070E+03  0.17300000000E+03 0.  1.
<mgrwt>
<rscale>  2 0.22253037E+03</rscale>
<asrwt>0</asrwt>
<pdfrwt beam="1">  1       21 0.13196354E+00 0.22253037E+03</pdfrwt>
<pdfrwt beam="2">  1       21 0.19380398E-01 0.22253037E+03</pdfrwt>
<totfact> 0.99748152E+03</totfact>
</mgrwt>
</event>
<event>
 4    2  0.3992997E+000  0.1945466E+03  0.7546771E-02  0.1154423E+00
         21   -1    0    0  503  502  0.00000000000E+00  0.00000000000E+00  0.15849339038E+03  0.15849339038E+03  0.00000000000E+00 0. -1.
         21   -1    0    0  501  503 -0.00000000000E+00 -0.00000000000E+00 -0.25649949489E+03  0.25649949489E+03  0.00000000000E+00 0.  1.
          6    1    1    2  501    0 -0.68928726124E+02 -0.56286824562E+02 -0.10350799550E+03  0.22036851190E+03  0.17300000000E+03 0.  1.
         -6    1    1    2    0  502  0.68928726124E+02  0.56286824562E+02  0.55018910042E+01  0.19462437337E+03  0.17300000000E+03 0. -1.
<mgrwt>
<rscale>  2 0.19454659E+03</rscale>
<asrwt>0</asrwt>
<pdfrwt beam="1">  1       21 0.24383599E-01 0.19454659E+03</pdfrwt>
<pdfrwt beam="2">  1       21 0.39461461E-01 0.19454659E+03</pdfrwt>
<totfact> 0.98269606E+04</totfact>
</mgrwt>
</event>
<event>
 4    2  0.3992997E+000  0.2000204E+03  0.7546771E-02  0.1149722E+00
         21   -1    0    0  501  502  0.00000000000E+00  0.00000000000E+00  0.37808087275E+03  0.37808087275E+03  0.00000000000E+00 0.  1.
         21   -1    0    0  502  503 -0.00000000000E+00 -0.00000000000E+00 -0.11890374136E+03  0.11890374136E+03  0.00000000000E+00 0.  1.
          6    1    1    2  501    0 -0.87845039991E+02  0.48604482613E+02  0.21202087304E+03  0.29148069813E+03  0.17300000000E+03 0.  1.
         -6    1    1    2    0  503  0.87845039991E+02 -0.48604482613E+02  0.47156258346E+02  0.20550391598E+03  0.17300000000E+03 0.  1.
<mgrwt>
<rscale>  2 0.20002037E+03</rscale>
<asrwt>0</asrwt>
<pdfrwt beam="1">  1       21 0.58166288E-01 0.20002037E+03</pdfrwt>
<pdfrwt beam="2">  1       21 0.18292883E-01 0.20002037E+03</pdfrwt>
<totfact> 0.75217656E+04</totfact>
</mgrwt>
</event>
<event>
 4    2  0.3992997E+000  0.1823308E+03  0.7546771E-02  0.1165566E+00
         21   -1    0    0  503  502  0.00000000000E+00  0.00000000000E+00  0.15047932667E+04  0.15047932667E+04  0.00000000000E+00 0. -1.
         21   -1    0    0  501  503 -0.00000000000E+00 -0.00000000000E+00 -0.88959432295E+02  0.88959432295E+02  0.00000000000E+00 0. -1.
          6    1    1    2  501    0 -0.45651319519E+02  0.35092594601E+02  0.17039689941E+02  0.18312532376E+03  0.17300000000E+03 0. -1.
         -6    1    1    2    0  502  0.45651319519E+02 -0.35092594601E+02  0.13987941444E+04  0.14106273752E+04  0.17300000000E+03 0. -1.
<mgrwt>
<rscale>  2 0.18233083E+03</rscale>
<asrwt>0</asrwt>
<pdfrwt beam="1">  1       21 0.23150664E+00 0.18233083E+03</pdfrwt>
<pdfrwt beam="2">  1       21 0.13686068E-01 0.18233083E+03</pdfrwt>
<totfact> 0.40106455E+03</totfact>
</mgrwt>
</event>
<event>
 4    2  0.3992997E+000  0.2408911E+03  0.7546771E-02  0.1119201E+00
         21   -1    0    0  501  502  0.00000000000E+00  0.00000000000E+00  0.11205885289E+04  0.11205885289E+04  0.00000000000E+00 0.  1.
         21   -1    0    0  502  503 -0.00000000000E+00 -0.00000000000E+00 -0.51834527728E+02  0.51834527728E+02  0.00000000000E+00 0.  1.
          6    1    1    2  501    0  0.16307476467E+03  0.38809231376E+02  0.55268287331E+03  0.60289874254E+03  0.17300000000E+03 0.  1.
         -6    1    1    2    0  503 -0.16307476467E+03 -0.38809231376E+02  0.51607112782E+03  0.56952431404E+03  0.17300000000E+03 0.  1.
<mgrwt>
<rscale>  2 0.24089113E+03</rscale>
<asrwt>0</asrwt>
<pdfrwt beam="1">  1       21 0.17239822E+00 0.24089113E+03</pdfrwt>
<pdfrwt beam="2">  1       21 0.79745436E-02 0.24089113E+03</pdfrwt>
<totfact> 0.24023719E+04</totfact>
</mgrwt>
</event>
<event>
 4    2  0.3992997E+000  0.1967100E+03  0.7546771E-02  0.1152545E+00
         21   -1    0    0  503  502  0.00000000000E+00  0.00000000000E+00  0.62835316071E+02  0.62835316071E+02  0.00000000000E+00 0.  1.
         21   -1    0    0  501  503 -0.00000000000E+00 -0.00000000000E+00 -0.66659371054E+03  0.66659371054E+03  0.00000000000E+00 0.  1.
          6    1    1    2  501    0  0.85779666293E+02  0.37518770074E+02 -0.40254257583E+03  0.44803497030E+03  0.17300000000E+03 0.  1.
         -6    1    1    2    0  502 -0.85779666293E+02 -0.37518770074E+02 -0.20121581865E+03  0.28139405632E+03  0.17300000000E+03 0.  1.
<mgrwt>
<rscale>  2 0.19670996E+03</rscale>
<asrwt>0</asrwt>
<pdfrwt beam="1">  1       21 0.96669723E-02 0.19670996E+03</pdfrwt>
<pdfrwt beam="2">  1       21 0.10255287E+00 0.19670996E+03</pdfrwt>
<totfact> 0.66466050E+04</totfact>
</mgrwt>
</event>
<event>
 4    2  0.3992997E+000  0.1855728E+03  0.7546771E-02  0.1162516E+00
         21   -1    0    0  501  502  0.00000000000E+00  0.00000000000E+00  0.23260688614E+03  0.23260688614E+03  0.00000000000E+00 0.  1.
         21   -1    0    0  502  503 -0.00000000000E+00 -0.00000000000E+00 -0.16466641988E+03  0.16466641988E+03  0.00000000000E+00 0.  1.
          6    1    1    2  501    0 -0.60622936083E+02  0.28864092156E+02 -0.29130634688E+02  0.18784533551E+03  0.17300000000E+03 0.  1.
         -6    1    1    2    0  503  0.60622936083E+02 -0.28864092156E+02  0.97071100945E+02  0.20942797051E+03  0.17300000000E+03 0.  1.
<mgrwt>
<rscale>  2 0.18557283E+03</rscale>
<asrwt>0</asrwt>
<pdfrwt beam="1">  1       21 0.35785675E-01 0.18557283E+03</pdfrwt>
<pdfrwt beam="2">  1       21 0.25333295E-01 0.18557283E+03</pdfrwt>
<totfact> 0.11148469E+05</totfact>
</mgrwt>
</event>
<event>
 4    2  0.3992997E+000  0.1974305E+03  0.7546771E-02  0.1151925E+00
         21   -1    0    0  503  502  0.00000000000E+00  0.00000000000E+00  0.23498808663E+03  0.23498808663E+03  0.00000000000E+00 0.  1.
         21   -1    0    0  501  503 -0.00000000000E+00 -0.00000000000E+00 -0.16845587714E+03  0.16845587714E+03  0.00000000000E+00 0.  1.
          6    1    1    2  501    0 -0.44466776416E+02  0.84098316581E+02  0.83010714972E+01  0.19760498183E+03  0.17300000000E+03 0.  1.
         -6    1    1    2    0  502  0.44466776416E+02 -0.84098316581E+02  0.58231137994E+02  0.20583898195E+03  0.17300000000E+03 0.  1.
<mgrwt>
<rscale>  2 0.19743055E+03</rscale>
<asrwt>0</asrwt>
<pdfrwt beam="1">  1       21 0.36152014E-01 0.19743055E+03</pdfrwt>
<pdfrwt beam="2">  1       21 0.25916289E-01 0.19743055E+03</pdfrwt>
<totfact> 0.10412900E+05</totfact>
</mgrwt>
</event>
<event>
 4    2  0.3992997E+000  0.1906296E+03  0.7546771E-02  0.1157895E+00
         21   -1    0    0  503  502  0.00000000000E+00  0.00000000000E+00  0.91418540597E+03  0.91418540597E+03  0.00000000000E+00 0. -1.
         21   -1    0    0  501  503 -0.00000000000E+00 -0.00000000000E+00 -0.43134561333E+02  0.43134561333E+02  0.00000000000E+00 0. -1.
          6    1    1    2  501    0 -0.15376408343E+02 -0.78576100353E+02  0.30146155410E+03  0.35667731366E+03  0.17300000000E+03 0. -1.
         -6    1    1    2    0  502  0.15376408343E+02  0.78576100353E+02  0.56958929053E+03  0.60064265364E+03  0.17300000000E+03 0. -1.
<mgrwt>
<rscale>  2 0.19062958E+03</rscale>
<asrwt>0</asrwt>
<pdfrwt beam="1">  1       21 0.14064389E+00 0.19062958E+03</pdfrwt>
<pdfrwt beam="2">  1       21 0.66360871E-02 0.19062958E+03</pdfrwt>
<totfact> 0.58710806E+04</totfact>
</mgrwt>
</event>
<event>
 4    2  0.3992997E+000  0.1824185E+03  0.7546771E-02  0.1165483E+00
         21   -1    0    0  501  502  0.00000000000E+00  0.00000000000E+00  0.58716858484E+03  0.58716858484E+03  0.00000000000E+00 0. -1.
         21   -1    0    0  502  503 -0.00000000000E+00 -0.00000000000E+00 -0.11929104039E+03  0.11929104039E+03  0.00000000000E+00 0. -1.
          6    1    1    2  501    0 -0.34079013167E+02 -0.46756126607E+02  0.48985846731E+03  0.52272156308E+03  0.17300000000E+03 0. -1.
         -6    1    1    2    0  503  0.34079013167E+02  0.46756126607E+02 -0.21980922859E+02  0.18373806215E+03  0.17300000000E+03 0. -1.
<mgrwt>
<rscale>  2 0.18241851E+03</rscale>
<asrwt>0</asrwt>
<pdfrwt beam="1">  1       21 0.90333627E-01 0.18241851E+03</pdfrwt>
<pdfrwt beam="2">  1       21 0.18352468E-01 0.18241851E+03</pdfrwt>
<totfact> 0.28376504E+04</totfact>
</mgrwt>
</event>
<event>
 4    2  0.3992997E+000  0.1764872E+03  0.7546771E-02  0.1171247E+00
         21   -1    0    0  501  502  0.00000000000E+00  0.00000000000E+00  0.53572119113E+02  0.53572119113E+02  0.00000000000E+00 0. -1.
         21   -1    0    0  502  503 -0.00000000000E+00 -0.00000000000E+00 -0.59060139801E+03  0.59060139801E+03  0.00000000000E+00 0. -1.
          6    1    1    2  501    0 -0.24730084387E+02  0.24640526435E+02 -0.30868026961E+03  0.35557171072E+03  0.17300000000E+03 0. -1.
         -6    1    1    2    0  503  0.24730084387E+02 -0.24640526435E+02 -0.22834900928E+03  0.28860180640E+03  0.17300000000E+03 0. -1.
<mgrwt>
<rscale>  2 0.17648720E+03</rscale>
<asrwt>0</asrwt>
<pdfrwt beam="1">  1       21 0.82418641E-02 0.17648720E+03</pdfrwt>
<pdfrwt beam="2">  1       21 0.90861758E-01 0.17648720E+03</pdfrwt>
<totfact> 0.11781294E+05</totfact>
</mgrwt>
</event>
<event>
 4    2  0.3992997E+000  0.1885488E+03  0.7546771E-02  0.1159777E+00
         21   -1    0    0  503  502  0.00000000000E+00  0.00000000000E+00  0.16606437719E+03  0.16606437719E+03  0.00000000000E+00 0. -1.
         21   -1    0    0  501  503 -0.00000000000E+00 -0.00000000000E+00 -0.21575763816E+03  0.21575763816E+03  0.00000000000E+00 0. -1.
          6    1    1    2  501    0 -0.70024036106E+02  0.26801108961E+02 -0.80002702356E+01  0.18871849246E+03  0.17300000000E+03 0. -1.
         -6    1    1    2    0  502  0.70024036106E+02 -0.26801108961E+02 -0.41692990736E+02  0.19310352289E+03  0.17300000000E+03 0. -1.
<mgrwt>
<rscale>  2 0.18854884E+03</rscale>
<asrwt>0</asrwt>
<pdfrwt beam="1">  1       21 0.25548366E-01 0.18854884E+03</pdfrwt>
<pdfrwt beam="2">  1       21 0.33193483E-01 0.18854884E+03</pdfrwt>
<totfact> 0.12717507E+05</totfact>
</mgrwt>
</event>
<event>
 4    2  0.3992997E+000  0.1987601E+03  0.7546771E-02  0.1150789E+00
         21   -1    0    0  501  502  0.00000000000E+00  0.00000000000E+00  0.90981501176E+03  0.90981501176E+03  0.00000000000E+00 0. -1.
         21   -1    0    0  502  503 -0.00000000000E+00 -0.00000000000E+00 -0.56482659138E+02  0.56482659138E+02  0.00000000000E+00 0.  1.
          6    1    1    2  501    0 -0.47674052266E+02  0.85462125957E+02  0.65900039369E+03  0.68832195164E+03  0.17300000000E+03 0. -1.
         -6    1    1    2    0  503  0.47674052266E+02 -0.85462125957E+02  0.19433195894E+03  0.27797571926E+03  0.17300000000E+03 0.  1.
<mgrwt>
<rscale>  2 0.19876013E+03</rscale>
<asrwt>0</asrwt>
<pdfrwt beam="1">  1       21 0.13997153E+00 0.19876013E+03</pdfrwt>
<pdfrwt beam="2">  1       21 0.86896405E-02 0.19876013E+03</pdfrwt>
<totfact> 0.37055765E+04</totfact>
</mgrwt>
</event>
<event>
 4    2  0.3992997E+000  0.2288406E+03  0.7546771E-02  0.1127458E+00
         21   -1    0    0  503  502  0.00000000000E+00  0.00000000000E+00  0.27454122732E+03  0.27454122732E+03  0.00000000000E+00 0. -1.
         21   -1    0    0  501  503 -0.00000000000E+00 -0.00000000000E+00 -0.19075583442E+03  0.19075583442E+03  0.00000000000E+00 0.  1.
          6    1    1    2  501    0 -0.14928580754E+03  0.12359215097E+02  0.40338112276E+02  0.23236859907E+03  0.17300000000E+03 0. -1.
         -6    1    1    2    0  502  0.14928580754E+03 -0.12359215097E+02  0.43447280625E+02  0.23292846268E+03  0.17300000000E+03 0.  1.
<mgrwt>
<rscale>  2 0.22884056E+03</rscale>
<asrwt>0</asrwt>
<pdfrwt beam="1">  1       21 0.42237112E-01 0.22884056E+03</pdfrwt>
<pdfrwt beam="2">  1       21 0.29347052E-01 0.22884056E+03</pdfrwt>
<totfact> 0.59036687E+04</totfact>
</mgrwt>
</event>
<event>
 4    2  0.3992997E+000  0.2199169E+03  0.7546771E-02  0.1133945E+00
         21   -1    0    0  503  502  0.00000000000E+00  0.00000000000E+00  0.72659113871E+02  0.72659113871E+02  0.00000000000E+00 0. -1.
         21   -1    0    0  501  503 -0.00000000000E+00 -0.00000000000E+00 -0.66889458034E+03  0.66889458034E+03  0.00000000000E+00 0. -1.
          6    1    1    2  501    0 -0.84843426755E+02  0.10600006560E+03 -0.27217860534E+03  0.34992086845E+03  0.17300000000E+03 0. -1.
         -6    1    1    2    0  502  0.84843426755E+02 -0.10600006560E+03 -0.32405686113E+03  0.39163282576E+03  0.17300000000E+03 0. -1.
<mgrwt>
<rscale>  2 0.21991685E+03</rscale>
<asrwt>0</asrwt>
<pdfrwt beam="1">  1       21 0.11178325E-01 0.21991685E+03</pdfrwt>
<pdfrwt beam="2">  1       21 0.10290686E+00 0.21991685E+03</pdfrwt>
<totfact> 0.50373089E+04</totfact>
</mgrwt>
</event>
<event>
 4    2  0.3992997E+000  0.2180743E+03  0.7546771E-02  0.1135327E+00
         21   -1    0    0  503  502  0.00000000000E+00  0.00000000000E+00  0.75594081465E+02  0.75594081465E+02  0.00000000000E+00 0. -1.
         21   -1    0    0  501  503 -0.00000000000E+00 -0.00000000000E+00 -0.85828205352E+03  0.85828205352E+03  0.00000000000E+00 0. -1.
          6    1    1    2  501    0  0.10544800253E+03  0.80672896191E+02 -0.63263022499E+03  0.66916171363E+03  0.17300000000E+03 0. -1.
         -6    1    1    2    0  502 -0.10544800253E+03 -0.80672896191E+02 -0.15005774706E+03  0.26471442135E+03  0.17300000000E+03 0. -1.
<mgrwt>
<rscale>  2 0.21807429E+03</rscale>
<asrwt>0</asrwt>
<pdfrwt beam="1">  1       21 0.11629858E-01 0.21807429E+03</pdfrwt>
<pdfrwt beam="2">  1       21 0.13204340E+00 0.21807429E+03</pdfrwt>
<totfact> 0.25394685E+04</totfact>
</mgrwt>
</event>
<event>
 4    2  0.3992997E+000  0.1813758E+03  0.7546771E-02  0.1166478E+00
         21   -1    0    0  503  502  0.00000000000E+00  0.00000000000E+00  0.32308931024E+02  0.32308931024E+02  0.00000000000E+00 0.  1.
         21   -1    0    0  501  503 -0.00000000000E+00 -0.00000000000E+00 -0.10182145487E+04  0.10182145487E+04  0.00000000000E+00 0.  1.
          6    1    1    2  501    0  0.23592265317E+02 -0.49107963987E+02 -0.49154442418E+03  0.52393998516E+03  0.17300000000E+03 0.  1.
         -6    1    1    2    0  502 -0.23592265317E+02  0.49107963987E+02 -0.49436119349E+03  0.52658349455E+03  0.17300000000E+03 0.  1.
<mgrwt>
<rscale>  2 0.18137582E+03</rscale>
<asrwt>0</asrwt>
<pdfrwt beam="1">  1       21 0.49706047E-02 0.18137582E+03</pdfrwt>
<pdfrwt beam="2">  1       21 0.15664840E+00 0.18137582E+03</pdfrwt>
<totfact> 0.72818363E+04</totfact>
</mgrwt>
</event>
<event>
 4    2  0.3992997E+000  0.1864579E+03  0.7546771E-02  0.1161695E+00
         21   -1    0    0  501  502  0.00000000000E+00  0.00000000000E+00  0.11378729105E+03  0.11378729105E+03  0.00000000000E+00 0.  1.
         21   -1    0    0  502  503 -0.00000000000E+00 -0.00000000000E+00 -0.61861286416E+03  0.61861286416E+03  0.00000000000E+00 0.  1.
          6    1    1    2  501    0 -0.42940423944E+02 -0.54714454924E+02  0.81016394062E+01  0.18663383441E+03  0.17300000000E+03 0.  1.
         -6    1    1    2    0  503  0.42940423944E+02  0.54714454924E+02 -0.51292721251E+03  0.54576632080E+03  0.17300000000E+03 0.  1.
<mgrwt>
<rscale>  2 0.18645791E+03</rscale>
<asrwt>0</asrwt>
<pdfrwt beam="1">  1       21 0.17505737E-01 0.18645791E+03</pdfrwt>
<pdfrwt beam="2">  1       21 0.95171211E-01 0.18645791E+03</pdfrwt>
<totfact> 0.27361208E+04</totfact>
</mgrwt>
</event>
<event>
 4    2  0.3992997E+000  0.1880930E+03  0.7546771E-02  0.1160193E+00
         21   -1    0    0  503  502  0.00000000000E+00  0.00000000000E+00  0.48381560111E+02  0.48381560111E+02  0.00000000000E+00 0. -1.
         21   -1    0    0  501  503 -0.00000000000E+00 -0.00000000000E+00 -0.79457165827E+03  0.79457165827E+03  0.00000000000E+00 0. -1.
          6    1    1    2  501    0 -0.35602688497E+02 -0.64671609546E+02 -0.49207846593E+03  0.52680184618E+03  0.17300000000E+03 0. -1.
         -6    1    1    2    0  502  0.35602688497E+02  0.64671609546E+02 -0.25411163224E+03  0.31615137221E+03  0.17300000000E+03 0. -1.
<mgrwt>
<rscale>  2 0.18809298E+03</rscale>
<asrwt>0</asrwt>
<pdfrwt beam="1">  1       21 0.74433172E-02 0.18809298E+03</pdfrwt>
<pdfrwt beam="2">  1       21 0.12224179E+00 0.18809298E+03</pdfrwt>
<totfact> 0.68751995E+04</totfact>
</mgrwt>
</event>
<event>
 4    2  0.3992997E+000  0.2098483E+03  0.7546771E-02  0.1141686E+00
         21   -1    0    0  503  502  0.00000000000E+00  0.00000000000E+00  0.99471192085E+02  0.99471192085E+02  0.00000000000E+00 0.  1.
         21   -1    0    0  501  503 -0.00000000000E+00 -0.00000000000E+00 -0.64881991412E+03  0.64881991412E+03  0.00000000000E+00 0.  1.
          6    1    1    2  501    0 -0.69968800601E+02  0.95977471379E+02 -0.48555374398E+03  0.52896006122E+03  0.17300000000E+03 0.  1.
         -6    1    1    2    0  502  0.69968800601E+02 -0.95977471379E+02 -0.63794978054E+02  0.21933104499E+03  0.17300000000E+03 0.  1.
<mgrwt>
<rscale>  2 0.20984830E+03</rscale>
<asrwt>0</asrwt>
<pdfrwt beam="1">  1       21 0.15303261E-01 0.20984830E+03</pdfrwt>
<pdfrwt beam="2">  1       21 0.99818445E-01 0.20984830E+03</pdfrwt>
<totfact> 0.30884794E+04</totfact>
</mgrwt>
</event>
<event>
 4    2  0.3992997E+000  0.2444067E+03  0.7546771E-02  0.1116892E+00
         21   -1    0    0  503  502  0.00000000000E+00  0.00000000000E+00  0.69601218762E+03  0.69601218762E+03  0.00000000000E+00 0.  1.
         21   -1    0    0  501  503 -0.00000000000E+00 -0.00000000000E+00 -0.14652259503E+03  0.14652259503E+03  0.00000000000E+00 0.  1.
          6    1    1    2  501    0  0.50862328775E+01  0.17256814472E+03  0.36042739812E+01  0.24443327336E+03  0.17300000000E+03 0.  1.
         -6    1    1    2    0  502 -0.50862328775E+01 -0.17256814472E+03  0.54588531861E+03  0.59810150929E+03  0.17300000000E+03 0.  1.
<mgrwt>
<rscale>  2 0.24440670E+03</rscale>
<asrwt>0</asrwt>
<pdfrwt beam="1">  1       21 0.10707880E+00 0.24440670E+03</pdfrwt>
<pdfrwt beam="2">  1       21 0.22541938E-01 0.24440670E+03</pdfrwt>
<totfact> 0.12439239E+04</totfact>
</mgrwt>
</event>
<event>
 4    2  0.3992997E+000  0.2420994E+03  0.7546771E-02  0.1118402E+00
         21   -1    0    0  501  502  0.00000000000E+00  0.00000000000E+00  0.20545710246E+04  0.20545710246E+04  0.00000000000E+00 0. -1.
         21   -1    0    0  502  503 -0.00000000000E+00 -0.00000000000E+00 -0.62027400214E+02  0.62027400214E+02  0.00000000000E+00 0. -1.
          6    1    1    2  501    0  0.13435355683E+02 -0.16882709457E+03  0.17740171657E+04  0.17904605555E+04  0.17300000000E+03 0. -1.
         -6    1    1    2    0  503 -0.13435355683E+02  0.16882709457E+03  0.21852645866E+03  0.32613786928E+03  0.17300000000E+03 0. -1.
<mgrwt>
<rscale>  2 0.24209935E+03</rscale>
<asrwt>0</asrwt>
<pdfrwt beam="1">  1       21 0.31608780E+00 0.24209935E+03</pdfrwt>
<pdfrwt beam="2">  1       21 0.95426785E-02 0.24209935E+03</pdfrwt>
<totfact> 0.22949279E+03</totfact>
</mgrwt>
</event>
<event>
 4    2  0.3992997E+000  0.2008958E+03  0.7546771E-02  0.1148985E+00
         21   -1    0    0  503  502  0.00000000000E+00  0.00000000000E+00  0.98049795244E+02  0.98049795244E+02  0.00000000000E+00 0.  1.
         21   -1    0    0  501  503 -0.00000000000E+00 -0.00000000000E+00 -0.41567197055E+03  0.41567197055E+03  0.00000000000E+00 0.  1.
          6    1    1    2  501    0  0.42502772533E+02  0.92863548491E+02 -0.13344648299E+03  0.24117853995E+03  0.17300000000E+03 0.  1.
         -6    1    1    2    0  502 -0.42502772533E+02 -0.92863548491E+02 -0.18417569232E+03  0.27254322584E+03  0.17300000000E+03 0.  1.
<mgrwt>
<rscale>  2 0.20089580E+03</rscale>
<asrwt>0</asrwt>
<pdfrwt beam="1">  1       21 0.15084584E-01 0.20089580E+03</pdfrwt>
<pdfrwt beam="2">  1       21 0.63949533E-01 0.20089580E+03</pdfrwt>
<totfact> 0.87369394E+04</totfact>
</mgrwt>
</event>
<event>
 4    2  0.3992997E+000  0.2175367E+03  0.7546771E-02  0.1135733E+00
         21   -1    0    0  501  502  0.00000000000E+00  0.00000000000E+00  0.53501687770E+03  0.53501687770E+03  0.00000000000E+00 0.  1.
         21   -1    0    0  502  503 -0.00000000000E+00 -0.00000000000E+00 -0.90268605551E+02  0.90268605551E+02  0.00000000000E+00 0. -1.
          6    1    1    2  501    0 -0.11789135501E+03 -0.59117372968E+02  0.17799785488E+03  0.28107912003E+03  0.17300000000E+03 0. -1.
         -6    1    1    2    0  503  0.11789135501E+03  0.59117372968E+02  0.26675041727E+03  0.34420636322E+03  0.17300000000E+03 0. -1.
<mgrwt>
<rscale>  2 0.21753674E+03</rscale>
<asrwt>0</asrwt>
<pdfrwt beam="1">  1       21 0.82310287E-01 0.21753674E+03</pdfrwt>
<pdfrwt beam="2">  1       21 0.13887478E-01 0.21753674E+03</pdfrwt>
<totfact> 0.57495629E+04</totfact>
</mgrwt>
</event>
<event>
 4    2  0.3992997E+000  0.2074055E+03  0.7546771E-02  0.1143637E+00
         21   -1    0    0  503  502  0.00000000000E+00  0.00000000000E+00  0.88937677366E+02  0.88937677366E+02  0.00000000000E+00 0.  1.
         21   -1    0    0  501  503 -0.00000000000E+00 -0.00000000000E+00 -0.50840004833E+03  0.50840004833E+03  0.00000000000E+00 0.  1.
          6    1    1    2  501    0  0.84276564865E+02  0.77365972244E+02 -0.14386755527E+03  0.25241811842E+03  0.17300000000E+03 0.  1.
         -6    1    1    2    0  502 -0.84276564865E+02 -0.77365972244E+02 -0.27559481569E+03  0.34491960727E+03  0.17300000000E+03 0.  1.
<mgrwt>
<rscale>  2 0.20740548E+03</rscale>
<asrwt>0</asrwt>
<pdfrwt beam="1">  1       21 0.13682720E-01 0.20740548E+03</pdfrwt>
<pdfrwt beam="2">  1       21 0.78215391E-01 0.20740548E+03</pdfrwt>
<totfact> 0.66614763E+04</totfact>
</mgrwt>
</event>
<event>
 4    2  0.3992997E+000  0.1848687E+03  0.7546771E-02  0.1163173E+00
         21   -1    0    0  501  502  0.00000000000E+00  0.00000000000E+00  0.75122561482E+03  0.75122561482E+03  0.00000000000E+00 0. -1.
         21   -1    0    0  502  503 -0.00000000000E+00 -0.00000000000E+00 -0.10196419732E+03  0.10196419732E+03  0.00000000000E+00 0. -1.
          6    1    1    2  501    0  0.51675900593E+02 -0.39711844457E+02  0.64209917172E+03  0.66818244186E+03  0.17300000000E+03 0. -1.
         -6    1    1    2    0  503 -0.51675900593E+02  0.39711844457E+02  0.71622457749E+01  0.18500737028E+03  0.17300000000E+03 0. -1.
<mgrwt>
<rscale>  2 0.18486868E+03</rscale>
<asrwt>0</asrwt>
<pdfrwt beam="1">  1       21 0.11557317E+00 0.18486868E+03</pdfrwt>
<pdfrwt beam="2">  1       21 0.15686800E-01 0.18486868E+03</pdfrwt>
<totfact> 0.21040615E+04</totfact>
</mgrwt>
</event>
<event>
 4    2  0.3992997E+000  0.1794692E+03  0.7546771E-02  0.1168318E+00
         21   -1    0    0  501  502  0.00000000000E+00  0.00000000000E+00  0.42413903077E+02  0.42413903077E+02  0.00000000000E+00 0.  1.
         21   -1    0    0  502  503 -0.00000000000E+00 -0.00000000000E+00 -0.75987469038E+03  0.75987469038E+03  0.00000000000E+00 0.  1.
          6    1    1    2  501    0  0.35271845704E+02  0.32188593488E+02 -0.34872682610E+03  0.39219842923E+03  0.17300000000E+03 0. -1.
         -6    1    1    2    0  503 -0.35271845704E+02 -0.32188593488E+02 -0.36873396120E+03  0.41009016422E+03  0.17300000000E+03 0. -1.
<mgrwt>
<rscale>  2 0.17946924E+03</rscale>
<asrwt>0</asrwt>
<pdfrwt beam="1">  1       21 0.65252163E-02 0.17946924E+03</pdfrwt>
<pdfrwt beam="2">  1       21 0.11690379E+00 0.17946924E+03</pdfrwt>
<totfact> 0.96712655E+04</totfact>
</mgrwt>
</event>
<event>
 4    2  0.3992997E+000  0.1881244E+03  0.7546771E-02  0.1160164E+00
         21   -1    0    0  503  502  0.00000000000E+00  0.00000000000E+00  0.66744868730E+02  0.66744868730E+02  0.00000000000E+00 0.  1.
         21   -1    0    0  501  503 -0.00000000000E+00 -0.00000000000E+00 -0.55352779783E+03  0.55352779783E+03  0.00000000000E+00 0.  1.
          6    1    1    2  501    0  0.44534920848E+02 -0.58978352246E+02 -0.30700452660E+03  0.36005914036E+03  0.17300000000E+03 0. -1.
         -6    1    1    2    0  502 -0.44534920848E+02  0.58978352246E+02 -0.17977840250E+03  0.26021352619E+03  0.17300000000E+03 0. -1.
<mgrwt>
<rscale>  2 0.18812444E+03</rscale>
<asrwt>0</asrwt>
<pdfrwt beam="1">  1       21 0.10268442E-01 0.18812444E+03</pdfrwt>
<pdfrwt beam="2">  1       21 0.85158121E-01 0.18812444E+03</pdfrwt>
<totfact> 0.92560200E+04</totfact>
</mgrwt>
</event>
<event>
 4    2  0.3992997E+000  0.2195673E+03  0.7546771E-02  0.1134206E+00
         21   -1    0    0  501  502  0.00000000000E+00  0.00000000000E+00  0.30858768034E+03  0.30858768034E+03  0.00000000000E+00 0. -1.
         21   -1    0    0  502  503 -0.00000000000E+00 -0.00000000000E+00 -0.16127867267E+03  0.16127867267E+03  0.00000000000E+00 0. -1.
          6    1    1    2  501    0 -0.10653100377E+03 -0.83258367858E+02  0.11523234283E+03  0.24796835164E+03  0.17300000000E+03 0. -1.
         -6    1    1    2    0  503  0.10653100377E+03  0.83258367858E+02  0.32076664839E+02  0.22189800136E+03  0.17300000000E+03 0. -1.
<mgrwt>
<rscale>  2 0.21956733E+03</rscale>
<asrwt>0</asrwt>
<pdfrwt beam="1">  1       21 0.47475028E-01 0.21956733E+03</pdfrwt>
<pdfrwt beam="2">  1       21 0.24812104E-01 0.21956733E+03</pdfrwt>
<totfact> 0.64430545E+04</totfact>
</mgrwt>
</event>
<event>
 4    2  0.3992997E+000  0.1885206E+03  0.7546771E-02  0.1159802E+00
         21   -1    0    0  501  502  0.00000000000E+00  0.00000000000E+00  0.19676482934E+02  0.19676482934E+02  0.00000000000E+00 0. -1.
         21   -1    0    0  502  503 -0.00000000000E+00 -0.00000000000E+00 -0.18727756657E+04  0.18727756657E+04  0.00000000000E+00 0. -1.
          6    1    1    2  501    0  0.25135785989E+02  0.70563415628E+02 -0.74816659991E+03  0.77155250280E+03  0.17300000000E+03 0. -1.
         -6    1    1    2    0  503 -0.25135785989E+02 -0.70563415628E+02 -0.11049325828E+04  0.11208996458E+04  0.17300000000E+03 0. -1.
<mgrwt>
<rscale>  2 0.18852056E+03</rscale>
<asrwt>0</asrwt>
<pdfrwt beam="1">  1       21 0.30271492E-02 0.18852056E+03</pdfrwt>
<pdfrwt beam="2">  1       21 0.28811953E+00 0.18852056E+03</pdfrwt>
<totfact> 0.25006204E+04</totfact>
</mgrwt>
</event>
<event>
 4    2  0.3992997E+000  0.2027821E+03  0.7546771E-02  0.1147413E+00
         21   -1    0    0  503  502  0.00000000000E+00  0.00000000000E+00  0.23654842244E+03  0.23654842244E+03  0.00000000000E+00 0.  1.
         21   -1    0    0  501  503 -0.00000000000E+00 -0.00000000000E+00 -0.18683509973E+03  0.18683509973E+03  0.00000000000E+00 0.  1.
          6    1    1    2  501    0  0.96341246152E+02  0.43703101002E+02 -0.30981848306E+02  0.20513525214E+03  0.17300000000E+03 0.  1.
         -6    1    1    2    0  502 -0.96341246152E+02 -0.43703101002E+02  0.80695171016E+02  0.21824827003E+03  0.17300000000E+03 0.  1.
<mgrwt>
<rscale>  2 0.20278214E+03</rscale>
<asrwt>0</asrwt>
<pdfrwt beam="1">  1       21 0.36392065E-01 0.20278214E+03</pdfrwt>
<pdfrwt beam="2">  1       21 0.28743861E-01 0.20278214E+03</pdfrwt>
<totfact> 0.83963905E+04</totfact>
</mgrwt>
</event>
<event>
 4    2  0.3992997E+000  0.2479963E+03  0.7546771E-02  0.1114578E+00
         21   -1    0    0  503  502  0.00000000000E+00  0.00000000000E+00  0.82074761469E+03  0.82074761469E+03  0.00000000000E+00 0.  1.
         21   -1    0    0  501  503 -0.00000000000E+00 -0.00000000000E+00 -0.88595768478E+02  0.88595768478E+02  0.00000000000E+00 0. -1.
          6    1    1    2  501    0 -0.16891575855E+03  0.55142134801E+02  0.54461748628E+03  0.59842325730E+03  0.17300000000E+03 0.  1.
         -6    1    1    2    0  502  0.16891575855E+03 -0.55142134801E+02  0.18753435994E+03  0.31092012587E+03  0.17300000000E+03 0. -1.
<mgrwt>
<rscale>  2 0.24799635E+03</rscale>
<asrwt>0</asrwt>
<pdfrwt beam="1">  1       21 0.12626886E+00 0.24799635E+03</pdfrwt>
<pdfrwt beam="2">  1       21 0.13630119E-01 0.24799635E+03</pdfrwt>
<totfact> 0.21018510E+04</totfact>
</mgrwt>
</event>
<event>
 4    2  0.3992997E+000  0.2172309E+03  0.7546771E-02  0.1135965E+00
         21   -1    0    0  503  502  0.00000000000E+00  0.00000000000E+00  0.31353260182E+03  0.31353260182E+03  0.00000000000E+00 0. -1.
         21   -1    0    0  501  503 -0.00000000000E+00 -0.00000000000E+00 -0.26100740456E+03  0.26100740456E+03  0.00000000000E+00 0. -1.
          6    1    1    2  501    0 -0.52179484007E+02  0.12057185696E+03 -0.16065197617E+03  0.27018202880E+03  0.17300000000E+03 0. -1.
         -6    1    1    2    0  502  0.52179484007E+02 -0.12057185696E+03  0.21317717343E+03  0.30435797757E+03  0.17300000000E+03 0. -1.
<mgrwt>
<rscale>  2 0.21723092E+03</rscale>
<asrwt>0</asrwt>
<pdfrwt beam="1">  1       21 0.48235785E-01 0.21723092E+03</pdfrwt>
<pdfrwt beam="2">  1       21 0.40154985E-01 0.21723092E+03</pdfrwt>
<totfact> 0.24202852E+04</totfact>
</mgrwt>
</event>
<event>
 4    2  0.3992997E+000  0.3454884E+03  0.7546771E-02  0.1064482E+00
         21   -1    0    0  501  502  0.00000000000E+00  0.00000000000E+00  0.52844901946E+03  0.52844901946E+03  0.00000000000E+00 0.  1.
         21   -1    0    0  502  503 -0.00000000000E+00 -0.00000000000E+00 -0.26617858418E+03  0.26617858418E+03  0.00000000000E+00 0. -1.
          6    1    1    2  501    0  0.30858636456E+02  0.29745751243E+03  0.28574291628E+03  0.44834277216E+03  0.17300000000E+03 0. -1.
         -6    1    1    2    0  503 -0.30858636456E+02 -0.29745751243E+03 -0.23472481005E+02  0.34628483148E+03  0.17300000000E+03 0. -1.
<mgrwt>
<rscale>  2 0.34548839E+03</rscale>
<asrwt>0</asrwt>
<pdfrwt beam="1">  1       21 0.81299849E-01 0.34548839E+03</pdfrwt>
<pdfrwt beam="2">  1       21 0.40950551E-01 0.34548839E+03</pdfrwt>
<totfact> 0.69977819E+03</totfact>
</mgrwt>
</event>
<event>
 4    2  0.3992997E+000  0.1897524E+03  0.7546771E-02  0.1158685E+00
         21   -1    0    0  503  502  0.00000000000E+00  0.00000000000E+00  0.16312323297E+03  0.16312323297E+03  0.00000000000E+00 0.  1.
         21   -1    0    0  501  503 -0.00000000000E+00 -0.00000000000E+00 -0.30145402807E+03  0.30145402807E+03  0.00000000000E+00 0.  1.
          6    1    1    2  501    0  0.66648211534E+02 -0.40435086740E+02  0.51039537366E+02  0.19649685676E+03  0.17300000000E+03 0.  1.
         -6    1    1    2    0  502 -0.66648211534E+02  0.40435086740E+02 -0.18937033247E+03  0.26808040428E+03  0.17300000000E+03 0.  1.
<mgrwt>
<rscale>  2 0.18975242E+03</rscale>
<asrwt>0</asrwt>
<pdfrwt beam="1">  1       21 0.25095882E-01 0.18975242E+03</pdfrwt>
<pdfrwt beam="2">  1       21 0.46377543E-01 0.18975242E+03</pdfrwt>
<totfact> 0.67050268E+04</totfact>
</mgrwt>
</event>
<event>
 4    2  0.3992997E+000  0.1743901E+03  0.7546771E-02  0.1173345E+00
         21   -1    0    0  501  502  0.00000000000E+00  0.00000000000E+00  0.12889422681E+03  0.12889422681E+03  0.00000000000E+00 0. -1.
         21   -1    0    0  502  503 -0.00000000000E+00 -0.00000000000E+00 -0.23598737153E+03  0.23598737153E+03  0.00000000000E+00 0. -1.
          6    1    1    2  501    0 -0.19748295348E+02 -0.96395166724E+01 -0.51094582876E+02  0.18172113760E+03  0.17300000000E+03 0.  1.
         -6    1    1    2    0  503  0.19748295348E+02  0.96395166724E+01 -0.55998561840E+02  0.18316046074E+03  0.17300000000E+03 0.  1.
<mgrwt>
<rscale>  2 0.17439012E+03</rscale>
<asrwt>0</asrwt>
<pdfrwt beam="1">  1       21 0.19829881E-01 0.17439012E+03</pdfrwt>
<pdfrwt beam="2">  1       21 0.36305749E-01 0.17439012E+03</pdfrwt>
<totfact> 0.17256094E+05</totfact>
</mgrwt>
</event>
<event>
 4    2  0.3992997E+000  0.1895737E+03  0.7546771E-02  0.1158846E+00
         21   -1    0    0  503  502  0.00000000000E+00  0.00000000000E+00  0.23628861462E+03  0.23628861462E+03  0.00000000000E+00 0.  1.
         21   -1    0    0  501  503 -0.00000000000E+00 -0.00000000000E+00 -0.17405866532E+03  0.17405866532E+03  0.00000000000E+00 0.  1.
          6    1    1    2  501    0  0.52279312024E+02  0.57236958831E+02 -0.41768858774E+02  0.19412066733E+03  0.17300000000E+03 0.  1.
         -6    1    1    2    0  502 -0.52279312024E+02 -0.57236958831E+02  0.10399880807E+03  0.21622661261E+03  0.17300000000E+03 0.  1.
<mgrwt>
<rscale>  2 0.18957372E+03</rscale>
<asrwt>0</asrwt>
<pdfrwt beam="1">  1       21 0.36352094E-01 0.18957372E+03</pdfrwt>
<pdfrwt beam="2">  1       21 0.26778256E-01 0.18957372E+03</pdfrwt>
<totfact> 0.97017088E+04</totfact>
</mgrwt>
</event>
<event>
 4    2  0.3992997E+000  0.2206474E+03  0.7546771E-02  0.1133401E+00
         21   -1    0    0  501  502  0.00000000000E+00  0.00000000000E+00  0.25746397251E+04  0.25746397251E+04  0.00000000000E+00 0. -1.
         21   -1    0    0  502  503 -0.00000000000E+00 -0.00000000000E+00 -0.30918186879E+02  0.30918186879E+02  0.00000000000E+00 0. -1.
          6    1    1    2  501    0  0.13605764207E+03  0.15639241388E+02  0.45994559560E+03  0.51013255018E+03  0.17300000000E+03 0. -1.
         -6    1    1    2    0  503 -0.13605764207E+03 -0.15639241388E+02  0.20837759426E+04  0.20954253618E+04  0.17300000000E+03 0. -1.
<mgrwt>
<rscale>  2 0.22064738E+03</rscale>
<asrwt>0</asrwt>
<pdfrwt beam="1">  1       21 0.39609825E+00 0.22064738E+03</pdfrwt>
<pdfrwt beam="2">  1       21 0.47566462E-02 0.22064738E+03</pdfrwt>
<totfact> 0.25970211E+03</totfact>
</mgrwt>
</event>
<event>
 4    2  0.3992997E+000  0.1861414E+03  0.7546771E-02  0.1161988E+00
         21   -1    0    0  501  502  0.00000000000E+00  0.00000000000E+00  0.63161099175E+02  0.63161099175E+02  0.00000000000E+00 0.  1.
         21   -1    0    0  502  503 -0.00000000000E+00 -0.00000000000E+00 -0.13087412532E+04  0.13087412532E+04  0.00000000000E+00 0. -1.
          6    1    1    2  501    0 -0.12432150544E+02  0.67565170058E+02 -0.10000816361E+03  0.21130604194E+03  0.17300000000E+03 0.  1.
         -6    1    1    2    0  503  0.12432150544E+02 -0.67565170058E+02 -0.11455719904E+04  0.11605963104E+04  0.17300000000E+03 0. -1.
<mgrwt>
<rscale>  2 0.18614137E+03</rscale>
<asrwt>0</asrwt>
<pdfrwt beam="1">  1       21 0.97170924E-02 0.18614137E+03</pdfrwt>
<pdfrwt beam="2">  1       21 0.20134480E+00 0.18614137E+03</pdfrwt>
<totfact> 0.11297614E+04</totfact>
</mgrwt>
</event>
<event>
 4    2  0.3992997E+000  0.3004241E+03  0.7546771E-02  0.1085029E+00
         21   -1    0    0  503  502  0.00000000000E+00  0.00000000000E+00  0.98054716296E+03  0.98054716296E+03  0.00000000000E+00 0.  1.
         21   -1    0    0  501  503 -0.00000000000E+00 -0.00000000000E+00 -0.14171626890E+03  0.14171626890E+03  0.00000000000E+00 0.  1.
          6    1    1    2  501    0 -0.23284430852E+03  0.78161332388E+02  0.87210047564E+02  0.31282624296E+03  0.17300000000E+03 0.  1.
         -6    1    1    2    0  502  0.23284430852E+03 -0.78161332388E+02  0.75162084649E+03  0.80943718890E+03  0.17300000000E+03 0.  1.
<mgrwt>
<rscale>  2 0.30042414E+03</rscale>
<asrwt>0</asrwt>
<pdfrwt beam="1">  1       21 0.15085340E+00 0.30042414E+03</pdfrwt>
<pdfrwt beam="2">  1       21 0.21802504E-01 0.30042414E+03</pdfrwt>
<totfact> 0.53752130E+03</totfact>
</mgrwt>
</event>
<event>
 4    2  0.3992997E+000  0.2672753E+03  0.7546771E-02  0.1102849E+00
         21   -1    0    0  503  502  0.00000000000E+00  0.00000000000E+00  0.17609830514E+03  0.17609830514E+03  0.00000000000E+00 0.  1.
         21   -1    0    0  501  503 -0.00000000000E+00 -0.00000000000E+00 -0.45775934428E+03  0.45775934428E+03  0.00000000000E+00 0. -1.
          6    1    1    2  501    0 -0.12255126724E+03  0.16275225714E+03 -0.24775017714E+03  0.36443965286E+03  0.17300000000E+03 0. -1.
         -6    1    1    2    0  502  0.12255126724E+03 -0.16275225714E+03 -0.33910862000E+02  0.26941799656E+03  0.17300000000E+03 0.  1.
<mgrwt>
<rscale>  2 0.26727535E+03</rscale>
<asrwt>0</asrwt>
<pdfrwt beam="1">  1       21 0.27092047E-01 0.26727535E+03</pdfrwt>
<pdfrwt beam="2">  1       21 0.70424513E-01 0.26727535E+03</pdfrwt>
<totfact> 0.22843096E+04</totfact>
</mgrwt>
</event>
<event>
 4    2  0.3992997E+000  0.3093004E+03  0.7546771E-02  0.1080682E+00
         21   -1    0    0  501  502  0.00000000000E+00  0.00000000000E+00  0.10764818785E+04  0.10764818785E+04  0.00000000000E+00 0.  1.
         21   -1    0    0  502  503 -0.00000000000E+00 -0.00000000000E+00 -0.12857415902E+03  0.12857415902E+03  0.00000000000E+00 0.  1.
          6    1    1    2  501    0 -0.20629563520E+02 -0.25556242412E+03  0.80878009846E+03  0.86590529457E+03  0.17300000000E+03 0.  1.
         -6    1    1    2    0  503  0.20629563520E+02  0.25556242412E+03  0.13912762104E+03  0.33915074295E+03  0.17300000000E+03 0.  1.
<mgrwt>
<rscale>  2 0.30930039E+03</rscale>
<asrwt>0</asrwt>
<pdfrwt beam="1">  1       21 0.16561259E+00 0.30930039E+03</pdfrwt>
<pdfrwt beam="2">  1       21 0.19780641E-01 0.30930039E+03</pdfrwt>
<totfact> 0.49845576E+03</totfact>
</mgrwt>
</event>
<event>
 4    2  0.3992997E+000  0.2388604E+03  0.7546771E-02  0.1120554E+00
         21   -1    0    0  501  502  0.00000000000E+00  0.00000000000E+00  0.68825483993E+02  0.68825483993E+02  0.00000000000E+00 0.  1.
         21   -1    0    0  502  503 -0.00000000000E+00 -0.00000000000E+00 -0.10531008830E+04  0.10531008830E+04  0.00000000000E+00 0.  1.
          6    1    1    2  501    0  0.77337531267E+02 -0.14541046130E+03 -0.23334636174E+03  0.33392337524E+03  0.17300000000E+03 0.  1.
         -6    1    1    2    0  503 -0.77337531267E+02  0.14541046130E+03 -0.75092903731E+03  0.78800299180E+03  0.17300000000E+03 0.  1.
<mgrwt>
<rscale>  2 0.23886041E+03</rscale>
<asrwt>0</asrwt>
<pdfrwt beam="1">  1       21 0.10588537E-01 0.23886041E+03</pdfrwt>
<pdfrwt beam="2">  1       21 0.16201551E+00 0.23886041E+03</pdfrwt>
<totfact> 0.17308637E+04</totfact>
</mgrwt>
</event>
<event>
 4    2  0.3992997E+000  0.2284737E+03  0.7546771E-02  0.1127719E+00
         21   -1    0    0  503  502  0.00000000000E+00  0.00000000000E+00  0.13361070077E+03  0.13361070077E+03  0.00000000000E+00 0.  1.
         21   -1    0    0  501  503 -0.00000000000E+00 -0.00000000000E+00 -0.87310138281E+03  0.87310138281E+03  0.00000000000E+00 0. -1.
          6    1    1    2  501    0  0.10363405881E+03 -0.10738349020E+03 -0.74390087043E+03  0.77819582185E+03  0.17300000000E+03 0. -1.
         -6    1    1    2    0  502 -0.10363405881E+03  0.10738349020E+03  0.44101883919E+01  0.22851626173E+03  0.17300000000E+03 0.  1.
<mgrwt>
<rscale>  2 0.22847370E+03</rscale>
<asrwt>0</asrwt>
<pdfrwt beam="1">  1       21 0.20555492E-01 0.22847370E+03</pdfrwt>
<pdfrwt beam="2">  1       21 0.13432329E+00 0.22847370E+03</pdfrwt>
<totfact> 0.85041227E+03</totfact>
</mgrwt>
</event>
<event>
 4    2  0.3992997E+000  0.1885723E+03  0.7546771E-02  0.1159755E+00
         21   -1    0    0  503  502  0.00000000000E+00  0.00000000000E+00  0.16165294152E+03  0.16165294152E+03  0.00000000000E+00 0.  1.
         21   -1    0    0  501  503 -0.00000000000E+00 -0.00000000000E+00 -0.31718971177E+03  0.31718971177E+03  0.00000000000E+00 0.  1.
          6    1    1    2  501    0  0.47593269767E+02 -0.58012137737E+02 -0.21031552654E+03  0.28247503988E+03  0.17300000000E+03 0.  1.
         -6    1    1    2    0  502 -0.47593269767E+02  0.58012137737E+02  0.54778756297E+02  0.19636761340E+03  0.17300000000E+03 0.  1.
<mgrwt>
<rscale>  2 0.18857234E+03</rscale>
<asrwt>0</asrwt>
<pdfrwt beam="1">  1       21 0.24869684E-01 0.18857234E+03</pdfrwt>
<pdfrwt beam="2">  1       21 0.48798417E-01 0.18857234E+03</pdfrwt>
<totfact> 0.61432799E+04</totfact>
</mgrwt>
</event>
<event>
 4    2  0.3992997E+000  0.2207494E+03  0.7546771E-02  0.1133326E+00
         21   -1    0    0  501  502  0.00000000000E+00  0.00000000000E+00  0.10802420628E+03  0.10802420628E+03  0.00000000000E+00 0.  1.
         21   -1    0    0  502  503 -0.00000000000E+00 -0.00000000000E+00 -0.10300761076E+04  0.10300761076E+04  0.00000000000E+00 0. -1.
          6    1    1    2  501    0  0.19150136290E+02 -0.13577402905E+03 -0.34403068869E+02  0.22341415763E+03  0.17300000000E+03 0.  1.
         -6    1    1    2    0  503 -0.19150136290E+02  0.13577402905E+03 -0.88764883240E+03  0.91468615620E+03  0.17300000000E+03 0. -1.
<mgrwt>
<rscale>  2 0.22074944E+03</rscale>
<asrwt>0</asrwt>
<pdfrwt beam="1">  1       21 0.16619108E-01 0.22074944E+03</pdfrwt>
<pdfrwt beam="2">  1       21 0.15847325E+00 0.22074944E+03</pdfrwt>
<totfact> 0.82219188E+03</totfact>
</mgrwt>
</event>
<event>
 4    2  0.3992997E+000  0.1795803E+03  0.7546771E-02  0.1168210E+00
         21   -1    0    0  503  502  0.00000000000E+00  0.00000000000E+00  0.20345656968E+04  0.20345656968E+04  0.00000000000E+00 0.  1.
         21   -1    0    0  501  503 -0.00000000000E+00 -0.00000000000E+00 -0.17144823309E+02  0.17144823309E+02  0.00000000000E+00 0.  1.
          6    1    1    2  501    0  0.39391325088E+02  0.27720037915E+02  0.12905649667E+04  0.13029992365E+04  0.17300000000E+03 0. -1.
         -6    1    1    2    0  502 -0.39391325088E+02 -0.27720037915E+02  0.72685590676E+03  0.74871128359E+03  0.17300000000E+03 0. -1.
<mgrwt>
<rscale>  2 0.17958028E+03</rscale>
<asrwt>0</asrwt>
<pdfrwt beam="1">  1       21 0.31300992E+00 0.17958028E+03</pdfrwt>
<pdfrwt beam="2">  1       21 0.26376667E-02 0.17958028E+03</pdfrwt>
<totfact> 0.22786569E+04</totfact>
</mgrwt>
</event>
<event>
 4    2  0.3992997E+000  0.1952533E+03  0.7546771E-02  0.1153807E+00
         21   -1    0    0  503  502  0.00000000000E+00  0.00000000000E+00  0.11342262353E+03  0.11342262353E+03  0.00000000000E+00 0.  1.
         21   -1    0    0  501  503 -0.00000000000E+00 -0.00000000000E+00 -0.40988293982E+03  0.40988293982E+03  0.00000000000E+00 0. -1.
          6    1    1    2  501    0  0.83390947136E+02  0.35224768168E+02 -0.25922652867E+03  0.32453386191E+03  0.17300000000E+03 0. -1.
         -6    1    1    2    0  502 -0.83390947136E+02 -0.35224768168E+02 -0.37233787620E+02  0.19877170145E+03  0.17300000000E+03 0.  1.
<mgrwt>
<rscale>  2 0.19525326E+03</rscale>
<asrwt>0</asrwt>
<pdfrwt beam="1">  1       21 0.17449634E-01 0.19525326E+03</pdfrwt>
<pdfrwt beam="2">  1       21 0.63058914E-01 0.19525326E+03</pdfrwt>
<totfact> 0.69131378E+04</totfact>
</mgrwt>
</event>
<event>
 4    2  0.3992997E+000  0.2323769E+03  0.7546771E-02  0.1124978E+00
         21   -1    0    0  503  502  0.00000000000E+00  0.00000000000E+00  0.15327978317E+03  0.15327978317E+03  0.00000000000E+00 0.  1.
         21   -1    0    0  501  503 -0.00000000000E+00 -0.00000000000E+00 -0.48350361190E+03  0.48350361190E+03  0.00000000000E+00 0.  1.
          6    1    1    2  501    0  0.40372254387E+02 -0.14980027203E+03  0.75133835563E+00  0.23237815072E+03  0.17300000000E+03 0.  1.
         -6    1    1    2    0  502 -0.40372254387E+02  0.14980027203E+03 -0.33097516709E+03  0.40440524435E+03  0.17300000000E+03 0.  1.
<mgrwt>
<rscale>  2 0.23237694E+03</rscale>
<asrwt>0</asrwt>
<pdfrwt beam="1">  1       21 0.23581505E-01 0.23237694E+03</pdfrwt>
<pdfrwt beam="2">  1       21 0.74385170E-01 0.23237694E+03</pdfrwt>
<totfact> 0.26831420E+04</totfact>
</mgrwt>
</event>
<event>
 4    2  0.3992997E+000  0.2259127E+03  0.7546771E-02  0.1129550E+00
         21   -1    0    0  503  502  0.00000000000E+00  0.00000000000E+00  0.12984517128E+03  0.12984517128E+03  0.00000000000E+00 0. -1.
         21   -1    0    0  501  503 -0.00000000000E+00 -0.00000000000E+00 -0.41169725629E+03  0.41169725629E+03  0.00000000000E+00 0.  1.
          6    1    1    2  501    0  0.13991885985E+03 -0.39118576795E+02 -0.83310491087E+02  0.24078452674E+03  0.17300000000E+03 0. -1.
         -6    1    1    2    0  502 -0.13991885985E+03  0.39118576795E+02 -0.19854159393E+03  0.30075790083E+03  0.17300000000E+03 0. -1.
<mgrwt>
<rscale>  2 0.22591271E+03</rscale>
<asrwt>0</asrwt>
<pdfrwt beam="1">  1       21 0.19976180E-01 0.22591271E+03</pdfrwt>
<pdfrwt beam="2">  1       21 0.63338039E-01 0.22591271E+03</pdfrwt>
<totfact> 0.52517301E+04</totfact>
</mgrwt>
</event>
<event>
 4    2  0.3992997E+000  0.2002410E+03  0.7546771E-02  0.1149536E+00
         21   -1    0    0  501  502  0.00000000000E+00  0.00000000000E+00  0.12136511602E+03  0.12136511602E+03  0.00000000000E+00 0.  1.
         21   -1    0    0  502  503 -0.00000000000E+00 -0.00000000000E+00 -0.52809728564E+03  0.52809728564E+03  0.00000000000E+00 0.  1.
          6    1    1    2  501    0  0.41527159620E+02  0.91885607899E+02 -0.46694044284E+01  0.20029546491E+03  0.17300000000E+03 0.  1.
         -6    1    1    2    0  503 -0.41527159620E+02 -0.91885607899E+02 -0.40206276519E+03  0.44916693676E+03  0.17300000000E+03 0.  1.
<mgrwt>
<rscale>  2 0.20024103E+03</rscale>
<asrwt>0</asrwt>
<pdfrwt beam="1">  1       21 0.18671556E-01 0.20024103E+03</pdfrwt>
<pdfrwt beam="2">  1       21 0.81245737E-01 0.20024103E+03</pdfrwt>
<totfact> 0.34697746E+04</totfact>
</mgrwt>
</event>
<event>
 4    2  0.3992997E+000  0.1795542E+03  0.7546771E-02  0.1168235E+00
         21   -1    0    0  503  502  0.00000000000E+00  0.00000000000E+00  0.17367607426E+04  0.17367607426E+04  0.00000000000E+00 0. -1.
         21   -1    0    0  501  503 -0.00000000000E+00 -0.00000000000E+00 -0.20554804869E+02  0.20554804869E+02  0.00000000000E+00 0. -1.
          6    1    1    2  501    0 -0.45838444140E+02  0.14476087863E+02  0.58459372606E+03  0.61154684582E+03  0.17300000000E+03 0. -1.
         -6    1    1    2    0  502  0.45838444140E+02 -0.14476087863E+02  0.11316122117E+04  0.11457687016E+04  0.17300000000E+03 0. -1.
<mgrwt>
<rscale>  2 0.17955423E+03</rscale>
<asrwt>0</asrwt>
<pdfrwt beam="1">  1       21 0.26719385E+00 0.17955423E+03</pdfrwt>
<pdfrwt beam="2">  1       21 0.31622790E-02 0.17955423E+03</pdfrwt>
<totfact> 0.30960101E+04</totfact>
</mgrwt>
</event>
<event>
 4    2  0.3992997E+000  0.1841842E+03  0.7546771E-02  0.1163814E+00
         21   -1    0    0  501  502  0.00000000000E+00  0.00000000000E+00  0.94680101299E+03  0.94680101299E+03  0.00000000000E+00 0. -1.
         21   -1    0    0  502  503 -0.00000000000E+00 -0.00000000000E+00 -0.66982810772E+02  0.66982810772E+02  0.00000000000E+00 0.  1.
          6    1    1    2  501    0  0.50788789759E+02 -0.37620868178E+02  0.78559579254E+03  0.80689812253E+03  0.17300000000E+03 0. -1.
         -6    1    1    2    0  503 -0.50788789759E+02  0.37620868178E+02  0.94222409675E+02  0.20688570123E+03  0.17300000000E+03 0.  1.
<mgrwt>
<rscale>  2 0.18418423E+03</rscale>
<asrwt>0</asrwt>
<pdfrwt beam="1">  1       21 0.14566168E+00 0.18418423E+03</pdfrwt>
<pdfrwt beam="2">  1       21 0.10305048E-01 0.18418423E+03</pdfrwt>
<totfact> 0.24973338E+04</totfact>
</mgrwt>
</event>
<event>
 4    2  0.3992997E+000  0.1857399E+03  0.7546771E-02  0.1162361E+00
         21   -1    0    0  503  502  0.00000000000E+00  0.00000000000E+00  0.66348029958E+02  0.66348029958E+02  0.00000000000E+00 0.  1.
         21   -1    0    0  501  503 -0.00000000000E+00 -0.00000000000E+00 -0.52231480725E+03  0.52231480725E+03  0.00000000000E+00 0.  1.
          6    1    1    2  501    0  0.77165941308E+01  0.67162292716E+02 -0.24768296944E+03  0.30959033050E+03  0.17300000000E+03 0.  1.
         -6    1    1    2    0  502 -0.77165941308E+01 -0.67162292716E+02 -0.20828380785E+03  0.27907250671E+03  0.17300000000E+03 0.  1.
<mgrwt>
<rscale>  2 0.18573992E+03</rscale>
<asrwt>0</asrwt>
<pdfrwt beam="1">  1       21 0.10207389E-01 0.18573992E+03</pdfrwt>
<pdfrwt beam="2">  1       21 0.80356123E-01 0.18573992E+03</pdfrwt>
<totfact> 0.10683390E+05</totfact>
</mgrwt>
</event>
<event>
 4    2  0.3992997E+000  0.1817446E+03  0.7546771E-02  0.1166125E+00
         21   -1    0    0  503  502  0.00000000000E+00  0.00000000000E+00  0.12630969374E+04  0.12630969374E+04  0.00000000000E+00 0. -1.
         21   -1    0    0  501  503 -0.00000000000E+00 -0.00000000000E+00 -0.41610387004E+02  0.41610387004E+02  0.00000000000E+00 0. -1.
          6    1    1    2  501    0  0.21695407866E+02 -0.51297383276E+02  0.21311260830E+03  0.28008587267E+03  0.17300000000E+03 0. -1.
         -6    1    1    2    0  502 -0.21695407866E+02  0.51297383276E+02  0.10083739421E+04  0.10246214517E+04  0.17300000000E+03 0. -1.
<mgrwt>
<rscale>  2 0.18174463E+03</rscale>
<asrwt>0</asrwt>
<pdfrwt beam="1">  1       21 0.19432258E+00 0.18174463E+03</pdfrwt>
<pdfrwt beam="2">  1       21 0.64015990E-02 0.18174463E+03</pdfrwt>
<totfact> 0.25986186E+04</totfact>
</mgrwt>
</event>
<event>
 4    2  0.3992997E+000  0.1917428E+03  0.7546771E-02  0.1156899E+00
         21   -1    0    0  501  502  0.00000000000E+00  0.00000000000E+00  0.12485569117E+04  0.12485569117E+04  0.00000000000E+00 0. -1.
         21   -1    0    0  502  503 -0.00000000000E+00 -0.00000000000E+00 -0.96308519429E+02  0.96308519429E+02  0.00000000000E+00 0. -1.
          6    1    1    2  501    0  0.24223376372E+02 -0.79053905148E+02  0.11364067618E+04  0.11524693575E+04  0.17300000000E+03 0. -1.
         -6    1    1    2    0  503 -0.24223376372E+02  0.79053905148E+02  0.15841630524E+02  0.19239607361E+03  0.17300000000E+03 0. -1.
<mgrwt>
<rscale>  2 0.19174278E+03</rscale>
<asrwt>0</asrwt>
<pdfrwt beam="1">  1       21 0.19208567E+00 0.19174278E+03</pdfrwt>
<pdfrwt beam="2">  1       21 0.14816696E-01 0.19174278E+03</pdfrwt>
<totfact> 0.60676697E+03</totfact>
</mgrwt>
</event>
<event>
 4    2  0.3992997E+000  0.1937059E+03  0.7546771E-02  0.1155161E+00
         21   -1    0    0  503  502  0.00000000000E+00  0.00000000000E+00  0.38278772799E+02  0.38278772799E+02  0.00000000000E+00 0. -1.
         21   -1    0    0  501  503 -0.00000000000E+00 -0.00000000000E+00 -0.16610377579E+04  0.16610377579E+04  0.00000000000E+00 0.  1.
          6    1    1    2  501    0 -0.58672982929E+02  0.64424155970E+02 -0.13553393747E+04  0.13691116869E+04  0.17300000000E+03 0.  1.
         -6    1    1    2    0  502  0.58672982929E+02 -0.64424155970E+02 -0.26741961046E+03  0.33020484378E+03  0.17300000000E+03 0. -1.
<mgrwt>
<rscale>  2 0.19370594E+03</rscale>
<asrwt>0</asrwt>
<pdfrwt beam="1">  1       21 0.58890434E-02 0.19370594E+03</pdfrwt>
<pdfrwt beam="2">  1       21 0.25554421E+00 0.19370594E+03</pdfrwt>
<totfact> 0.12547346E+04</totfact>
</mgrwt>
</event>
<event>
 4    2  0.3992997E+000  0.1862527E+03  0.7546771E-02  0.1161885E+00
         21   -1    0    0  503  502  0.00000000000E+00  0.00000000000E+00  0.13925464420E+03  0.13925464420E+03  0.00000000000E+00 0.  1.
         21   -1    0    0  501  503 -0.00000000000E+00 -0.00000000000E+00 -0.32784201674E+03  0.32784201674E+03  0.00000000000E+00 0. -1.
          6    1    1    2  501    0 -0.60235452111E+02 -0.33656638826E+02 -0.20874298220E+03  0.27975652208E+03  0.17300000000E+03 0. -1.
         -6    1    1    2    0  502  0.60235452111E+02  0.33656638826E+02  0.20155609667E+02  0.18734013886E+03  0.17300000000E+03 0.  1.
<mgrwt>
<rscale>  2 0.18625273E+03</rscale>
<asrwt>0</asrwt>
<pdfrwt beam="1">  1       21 0.21423792E-01 0.18625273E+03</pdfrwt>
<pdfrwt beam="2">  1       21 0.50437233E-01 0.18625273E+03</pdfrwt>
<totfact> 0.76130403E+04</totfact>
</mgrwt>
</event>
<event>
 4    2  0.3992997E+000  0.2616259E+03  0.7546771E-02  0.1106170E+00
         21   -1    0    0  501  502  0.00000000000E+00  0.00000000000E+00  0.14845555817E+04  0.14845555817E+04  0.00000000000E+00 0.  1.
         21   -1    0    0  502  503 -0.00000000000E+00 -0.00000000000E+00 -0.13283158404E+03  0.13283158404E+03  0.00000000000E+00 0. -1.
          6    1    1    2  501    0 -0.11179767040E+03  0.16130841427E+03  0.13293007816E+04  0.13548020858E+04  0.17300000000E+03 0.  1.
         -6    1    1    2    0  503  0.11179767040E+03 -0.16130841427E+03  0.22423216080E+02  0.26258508001E+03  0.17300000000E+03 0. -1.
<mgrwt>
<rscale>  2 0.26162592E+03</rscale>
<asrwt>0</asrwt>
<pdfrwt beam="1">  1       21 0.22839315E+00 0.26162592E+03</pdfrwt>
<pdfrwt beam="2">  1       21 0.20435629E-01 0.26162592E+03</pdfrwt>
<totfact> 0.18560228E+03</totfact>
</mgrwt>
</event>
<event>
 4    2  0.3992997E+000  0.1923047E+03  0.7546771E-02  0.1156399E+00
         21   -1    0    0  501  502  0.00000000000E+00  0.00000000000E+00  0.21050563138E+02  0.21050563138E+02  0.00000000000E+00 0. -1.
         21   -1    0    0  502  503 -0.00000000000E+00 -0.00000000000E+00 -0.17709186192E+04  0.17709186192E+04  0.00000000000E+00 0. -1.
          6    1    1    2  501    0  0.71311463517E+02 -0.44348239376E+02 -0.95500778211E+03  0.97417706556E+03  0.17300000000E+03 0. -1.
         -6    1    1    2    0  503 -0.71311463517E+02  0.44348239376E+02 -0.79486027395E+03  0.81779211678E+03  0.17300000000E+03 0. -1.
<mgrwt>
<rscale>  2 0.19230468E+03</rscale>
<asrwt>0</asrwt>
<pdfrwt beam="1">  1       21 0.32385487E-02 0.19230468E+03</pdfrwt>
<pdfrwt beam="2">  1       21 0.27244897E+00 0.19230468E+03</pdfrwt>
<totfact> 0.27431201E+04</totfact>
</mgrwt>
</event>
<event>
 4    2  0.3992997E+000  0.1769587E+03  0.7546771E-02  0.1170779E+00
         21   -1    0    0  501  502  0.00000000000E+00  0.00000000000E+00  0.42803032323E+03  0.42803032323E+03  0.00000000000E+00 0.  1.
         21   -1    0    0  502  503 -0.00000000000E+00 -0.00000000000E+00 -0.13317562550E+03  0.13317562550E+03  0.00000000000E+00 0.  1.
          6    1    1    2  501    0  0.37081479896E+02  0.32172402444E+01  0.33579863390E+03  0.37957227153E+03  0.17300000000E+03 0.  1.
         -6    1    1    2    0  503 -0.37081479896E+02 -0.32172402444E+01 -0.40943936165E+02  0.18163367720E+03  0.17300000000E+03 0.  1.
<mgrwt>
<rscale>  2 0.17695871E+03</rscale>
<asrwt>0</asrwt>
<pdfrwt beam="1">  1       21 0.65850818E-01 0.17695871E+03</pdfrwt>
<pdfrwt beam="2">  1       21 0.20488558E-01 0.17695871E+03</pdfrwt>
<totfact> 0.47104941E+04</totfact>
</mgrwt>
</event>
<event>
 4    2  0.3992997E+000  0.2803808E+03  0.7546771E-02  0.1095481E+00
         21   -1    0    0  503  502  0.00000000000E+00  0.00000000000E+00  0.12434363329E+03  0.12434363329E+03  0.00000000000E+00 0. -1.
         21   -1    0    0  501  503 -0.00000000000E+00 -0.00000000000E+00 -0.70732764546E+03  0.70732764546E+03  0.00000000000E+00 0.  1.
          6    1    1    2  501    0  0.19260292507E+03 -0.10764999003E+03 -0.42699007746E+03  0.51081692743E+03  0.17300000000E+03 0. -1.
         -6    1    1    2    0  502 -0.19260292507E+03  0.10764999003E+03 -0.15599393471E+03  0.32085435132E+03  0.17300000000E+03 0. -1.
<mgrwt>
<rscale>  2 0.28038083E+03</rscale>
<asrwt>0</asrwt>
<pdfrwt beam="1">  1       21 0.19129789E-01 0.28038083E+03</pdfrwt>
<pdfrwt beam="2">  1       21 0.10881964E+00 0.28038083E+03</pdfrwt>
<totfact> 0.16008536E+04</totfact>
</mgrwt>
</event>
<event>
 4    2  0.3992997E+000  0.2091182E+03  0.7546771E-02  0.1142266E+00
         21   -1    0    0  503  502  0.00000000000E+00  0.00000000000E+00  0.25728747621E+03  0.25728747621E+03  0.00000000000E+00 0. -1.
         21   -1    0    0  501  503 -0.00000000000E+00 -0.00000000000E+00 -0.21441118955E+03  0.21441118955E+03  0.00000000000E+00 0.  1.
          6    1    1    2  501    0  0.54336714680E+02 -0.10415820381E+03 -0.85940488015E+02  0.22608887072E+03  0.17300000000E+03 0.  1.
         -6    1    1    2    0  502 -0.54336714680E+02  0.10415820381E+03  0.12881677468E+03  0.24560979504E+03  0.17300000000E+03 0. -1.
<mgrwt>
<rscale>  2 0.20911817E+03</rscale>
<asrwt>0</asrwt>
<pdfrwt beam="1">  1       21 0.39582689E-01 0.20911817E+03</pdfrwt>
<pdfrwt beam="2">  1       21 0.32986337E-01 0.20911817E+03</pdfrwt>
<totfact> 0.54012534E+04</totfact>
</mgrwt>
</event>
<event>
 4    2  0.3992997E+000  0.2070922E+03  0.7546771E-02  0.1143890E+00
         21   -1    0    0  503  502  0.00000000000E+00  0.00000000000E+00  0.36818482101E+03  0.36818482101E+03  0.00000000000E+00 0.  1.
         21   -1    0    0  501  503 -0.00000000000E+00 -0.00000000000E+00 -0.19179507660E+03  0.19179507660E+03  0.00000000000E+00 0.  1.
          6    1    1    2  501    0 -0.47982988830E+02 -0.10322698733E+03 -0.87256498010E+02  0.22472399644E+03  0.17300000000E+03 0.  1.
         -6    1    1    2    0  502  0.47982988830E+02  0.10322698733E+03  0.26364624242E+03  0.33525590117E+03  0.17300000000E+03 0.  1.
<mgrwt>
<rscale>  2 0.20709220E+03</rscale>
<asrwt>0</asrwt>
<pdfrwt beam="1">  1       21 0.56643818E-01 0.20709220E+03</pdfrwt>
<pdfrwt beam="2">  1       21 0.29506935E-01 0.20709220E+03</pdfrwt>
<totfact> 0.31999342E+04</totfact>
</mgrwt>
</event>
<event>
 4    2  0.3992997E+000  0.1844201E+03  0.7546771E-02  0.1163593E+00
         21   -1    0    0  501  502  0.00000000000E+00  0.00000000000E+00  0.31291944416E+03  0.31291944416E+03  0.00000000000E+00 0. -1.
         21   -1    0    0  502  503 -0.00000000000E+00 -0.00000000000E+00 -0.11833270199E+03  0.11833270199E+03  0.00000000000E+00 0.  1.
          6    1    1    2  501    0  0.30892483519E+02  0.55923421957E+02  0.15885071863E+03  0.24340157245E+03  0.17300000000E+03 0. -1.
         -6    1    1    2    0  503 -0.30892483519E+02 -0.55923421957E+02  0.35736023530E+02  0.18785057370E+03  0.17300000000E+03 0.  1.
<mgrwt>
<rscale>  2 0.18442010E+03</rscale>
<asrwt>0</asrwt>
<pdfrwt beam="1">  1       21 0.48141453E-01 0.18442010E+03</pdfrwt>
<pdfrwt beam="2">  1       21 0.18205031E-01 0.18442010E+03</pdfrwt>
<totfact> 0.11368353E+05</totfact>
</mgrwt>
</event>
<event>
 4    2  0.3992997E+000  0.2158283E+03  0.7546771E-02  0.1137032E+00
         21   -1    0    0  501  502  0.00000000000E+00  0.00000000000E+00  0.92071777504E+02  0.92071777504E+02  0.00000000000E+00 0. -1.
         21   -1    0    0  502  503 -0.00000000000E+00 -0.00000000000E+00 -0.10702546801E+04  0.10702546801E+04  0.00000000000E+00 0. -1.
          6    1    1    2  501    0 -0.57967143619E+02  0.11529372977E+03 -0.67084843194E+02  0.22601373863E+03  0.17300000000E+03 0. -1.
         -6    1    1    2    0  503  0.57967143619E+02 -0.11529372977E+03 -0.91109805941E+03  0.93631271899E+03  0.17300000000E+03 0. -1.
<mgrwt>
<rscale>  2 0.21582825E+03</rscale>
<asrwt>0</asrwt>
<pdfrwt beam="1">  1       21 0.14164889E-01 0.21582825E+03</pdfrwt>
<pdfrwt beam="2">  1       21 0.16465456E+00 0.21582825E+03</pdfrwt>
<totfact> 0.99607954E+03</totfact>
</mgrwt>
</event>
<event>
 4    2  0.3992997E+000  0.2546151E+03  0.7546771E-02  0.1110422E+00
         21   -1    0    0  501  502  0.00000000000E+00  0.00000000000E+00  0.11717669942E+04  0.11717669942E+04  0.00000000000E+00 0. -1.
         21   -1    0    0  502  503 -0.00000000000E+00 -0.00000000000E+00 -0.12796137491E+03  0.12796137491E+03  0.00000000000E+00 0.  1.
          6    1    1    2  501    0 -0.15029840657E+03 -0.11095151682E+03  0.10115216135E+04  0.10430746975E+04  0.17300000000E+03 0. -1.
         -6    1    1    2    0  503  0.15029840657E+03  0.11095151682E+03  0.32284005801E+02  0.25665367157E+03  0.17300000000E+03 0. -1.
<mgrwt>
<rscale>  2 0.25461510E+03</rscale>
<asrwt>0</asrwt>
<pdfrwt beam="1">  1       21 0.18027184E+00 0.25461510E+03</pdfrwt>
<pdfrwt beam="2">  1       21 0.19686366E-01 0.25461510E+03</pdfrwt>
<totfact> 0.40967051E+03</totfact>
</mgrwt>
</event>
<event>
 4    2  0.3992997E+000  0.1832755E+03  0.7546771E-02  0.1164670E+00
         21   -1    0    0  501  502  0.00000000000E+00  0.00000000000E+00  0.50010919339E+02  0.50010919339E+02  0.00000000000E+00 0.  1.
         21   -1    0    0  502  503 -0.00000000000E+00 -0.00000000000E+00 -0.68032150233E+03  0.68032150233E+03  0.00000000000E+00 0.  1.
          6    1    1    2  501    0 -0.18978034450E+02 -0.57451972356E+02 -0.35637929250E+03  0.40074442609E+03  0.17300000000E+03 0.  1.
         -6    1    1    2    0  503  0.18978034450E+02  0.57451972356E+02 -0.27393129049E+03  0.32958799558E+03  0.17300000000E+03 0.  1.
<mgrwt>
<rscale>  2 0.18327546E+03</rscale>
<asrwt>0</asrwt>
<pdfrwt beam="1">  1       21 0.76939884E-02 0.18327546E+03</pdfrwt>
<pdfrwt beam="2">  1       21 0.10466484E+00 0.18327546E+03</pdfrwt>
<totfact> 0.94923571E+04</totfact>
</mgrwt>
</event>
<event>
 4    2  0.3992997E+000  0.2196639E+03  0.7546771E-02  0.1134134E+00
         21   -1    0    0  503  502  0.00000000000E+00  0.00000000000E+00  0.11461497357E+04  0.11461497357E+04  0.00000000000E+00 0. -1.
         21   -1    0    0  501  503 -0.00000000000E+00 -0.00000000000E+00 -0.33491574739E+03  0.33491574739E+03  0.00000000000E+00 0. -1.
          6    1    1    2  501    0  0.99993819104E+02  0.91238611530E+02 -0.28681020614E+03  0.36126492002E+03  0.17300000000E+03 0. -1.
         -6    1    1    2    0  502 -0.99993819104E+02 -0.91238611530E+02  0.10980441945E+04  0.11198005631E+04  0.17300000000E+03 0. -1.
<mgrwt>
<rscale>  2 0.21966394E+03</rscale>
<asrwt>0</asrwt>
<pdfrwt beam="1">  1       21 0.17633073E+00 0.21966394E+03</pdfrwt>
<pdfrwt beam="2">  1       21 0.51525500E-01 0.21966394E+03</pdfrwt>
<totfact> 0.67000781E+02</totfact>
</mgrwt>
</event>
<event>
 4    2  0.3992997E+000  0.2358889E+03  0.7546771E-02  0.1122562E+00
         21   -1    0    0  501  502  0.00000000000E+00  0.00000000000E+00  0.22988741280E+03  0.22988741280E+03  0.00000000000E+00 0. -1.
         21   -1    0    0  502  503 -0.00000000000E+00 -0.00000000000E+00 -0.24445737046E+03  0.24445737046E+03  0.00000000000E+00 0.  1.
          6    1    1    2  501    0  0.87190344640E+02  0.13458230044E+03  0.16265900834E+02  0.23644900364E+03  0.17300000000E+03 0. -1.
         -6    1    1    2    0  503 -0.87190344640E+02 -0.13458230044E+03 -0.30835858494E+02  0.23789577962E+03  0.17300000000E+03 0. -1.
<mgrwt>
<rscale>  2 0.23588885E+03</rscale>
<asrwt>0</asrwt>
<pdfrwt beam="1">  1       21 0.35367294E-01 0.23588885E+03</pdfrwt>
<pdfrwt beam="2">  1       21 0.37608826E-01 0.23588885E+03</pdfrwt>
<totfact> 0.51535517E+04</totfact>
</mgrwt>
</event>
<event>
 4    2  0.3992997E+000  0.1912385E+03  0.7546771E-02  0.1157349E+00
         21   -1    0    0  501  502  0.00000000000E+00  0.00000000000E+00  0.33487333236E+02  0.33487333236E+02  0.00000000000E+00 0.  1.
         21   -1    0    0  502  503 -0.00000000000E+00 -0.00000000000E+00 -0.13194854738E+04  0.13194854738E+04  0.00000000000E+00 0.  1.
          6    1    1    2  501    0  0.78991353196E+02 -0.20087670457E+02 -0.36218419649E+03  0.40957238746E+03  0.17300000000E+03 0.  1.
         -6    1    1    2    0  503 -0.78991353196E+02  0.20087670457E+02 -0.92381394403E+03  0.94340041953E+03  0.17300000000E+03 0.  1.
<mgrwt>
<rscale>  2 0.19123846E+03</rscale>
<asrwt>0</asrwt>
<pdfrwt beam="1">  1       21 0.51518986E-02 0.19123846E+03</pdfrwt>
<pdfrwt beam="2">  1       21 0.20299772E+00 0.19123846E+03</pdfrwt>
<totfact> 0.32880103E+04</totfact>
</mgrwt>
</event>
<event>
 4    2  0.3992997E+000  0.2301744E+03  0.7546771E-02  0.1126517E+00
         21   -1    0    0  503  502  0.00000000000E+00  0.00000000000E+00  0.30502162737E+04  0.30502162737E+04  0.00000000000E+00 0. -1.
         21   -1    0    0  501  503 -0.00000000000E+00 -0.00000000000E+00 -0.13757494890E+03  0.13757494890E+03  0.00000000000E+00 0. -1.
          6    1    1    2  501    0 -0.14837105284E+03  0.32206602941E+02 -0.33563715431E+02  0.23260859311E+03  0.17300000000E+03 0. -1.
         -6    1    1    2    0  502  0.14837105284E+03 -0.32206602941E+02  0.29462050402E+04  0.29551826295E+04  0.17300000000E+03 0. -1.
<mgrwt>
<rscale>  2 0.23017436E+03</rscale>
<asrwt>0</asrwt>
<pdfrwt beam="1">  1       21 0.46926399E+00 0.23017436E+03</pdfrwt>
<pdfrwt beam="2">  1       21 0.21165379E-01 0.23017436E+03</pdfrwt>
<totfact> 0.60002101E+01</totfact>
</mgrwt>
</event>
<event>
 4    2  0.3992997E+000  0.1870929E+03  0.7546771E-02  0.1161110E+00
         21   -1    0    0  503  502  0.00000000000E+00  0.00000000000E+00  0.92518118958E+03  0.92518118958E+03  0.00000000000E+00 0. -1.
         21   -1    0    0  501  503 -0.00000000000E+00 -0.00000000000E+00 -0.58037603719E+02  0.58037603719E+02  0.00000000000E+00 0. -1.
          6    1    1    2  501    0 -0.38993634395E+02  0.59617534568E+02  0.14352060689E+03  0.23580059066E+03  0.17300000000E+03 0. -1.
         -6    1    1    2    0  502  0.38993634395E+02 -0.59617534568E+02  0.72362297897E+03  0.74741820265E+03  0.17300000000E+03 0. -1.
<mgrwt>
<rscale>  2 0.18709290E+03</rscale>
<asrwt>0</asrwt>
<pdfrwt beam="1">  1       21 0.14233556E+00 0.18709290E+03</pdfrwt>
<pdfrwt beam="2">  1       21 0.89288628E-02 0.18709290E+03</pdfrwt>
<totfact> 0.34068932E+04</totfact>
</mgrwt>
</event>
<event>
 4    2  0.3992997E+000  0.1893946E+03  0.7546771E-02  0.1159009E+00
         21   -1    0    0  503  502  0.00000000000E+00  0.00000000000E+00  0.20142387646E+03  0.20142387646E+03  0.00000000000E+00 0. -1.
         21   -1    0    0  501  503 -0.00000000000E+00 -0.00000000000E+00 -0.87320920681E+03  0.87320920681E+03  0.00000000000E+00 0. -1.
          6    1    1    2  501    0  0.76677008852E+02 -0.78697686449E+01 -0.81529780854E+03  0.83700705705E+03  0.17300000000E+03 0. -1.
         -6    1    1    2    0  502 -0.76677008852E+02  0.78697686449E+01  0.14351247818E+03  0.23762602622E+03  0.17300000000E+03 0. -1.
<mgrwt>
<rscale>  2 0.18939455E+03</rscale>
<asrwt>0</asrwt>
<pdfrwt beam="1">  1       21 0.30988289E-01 0.18939455E+03</pdfrwt>
<pdfrwt beam="2">  1       21 0.13433988E+00 0.18939455E+03</pdfrwt>
<totfact> 0.39898880E+03</totfact>
</mgrwt>
</event>
<event>
 4    2  0.3992997E+000  0.2843901E+03  0.7546771E-02  0.1093315E+00
         21   -1    0    0  503  502  0.00000000000E+00  0.00000000000E+00  0.32096574151E+03  0.32096574151E+03  0.00000000000E+00 0.  1.
         21   -1    0    0  501  503 -0.00000000000E+00 -0.00000000000E+00 -0.35401555390E+03  0.35401555390E+03  0.00000000000E+00 0. -1.
          6    1    1    2  501    0 -0.12688820518E+02  0.22536131012E+03 -0.19770945992E+03  0.34636217577E+03  0.17300000000E+03 0. -1.
         -6    1    1    2    0  502  0.12688820518E+02 -0.22536131012E+03  0.16465964753E+03  0.32861911963E+03  0.17300000000E+03 0.  1.
<mgrwt>
<rscale>  2 0.28439010E+03</rscale>
<asrwt>0</asrwt>
<pdfrwt beam="1">  1       21 0.49379345E-01 0.28439010E+03</pdfrwt>
<pdfrwt beam="2">  1       21 0.54463931E-01 0.28439010E+03</pdfrwt>
<totfact> 0.11827851E+04</totfact>
</mgrwt>
</event>
<event>
 4    2  0.3992997E+000  0.2594681E+03  0.7546771E-02  0.1107463E+00
         21   -1    0    0  501  502  0.00000000000E+00  0.00000000000E+00  0.11434482472E+03  0.11434482472E+03  0.00000000000E+00 0. -1.
         21   -1    0    0  502  503 -0.00000000000E+00 -0.00000000000E+00 -0.78311837997E+03  0.78311837997E+03  0.00000000000E+00 0. -1.
          6    1    1    2  501    0 -0.14575293596E+03  0.12708564942E+03 -0.11084699264E+03  0.28215374605E+03  0.17300000000E+03 0. -1.
         -6    1    1    2    0  503  0.14575293596E+03 -0.12708564942E+03 -0.55792656261E+03  0.61530945864E+03  0.17300000000E+03 0. -1.
<mgrwt>
<rscale>  2 0.25946807E+03</rscale>
<asrwt>0</asrwt>
<pdfrwt beam="1">  1       21 0.17591511E-01 0.25946807E+03</pdfrwt>
<pdfrwt beam="2">  1       21 0.12047975E+00 0.25946807E+03</pdfrwt>
<totfact> 0.14715117E+04</totfact>
</mgrwt>
</event>
<event>
 4    2  0.3992997E+000  0.3066679E+03  0.7546771E-02  0.1081954E+00
         21   -1    0    0  503  502  0.00000000000E+00  0.00000000000E+00  0.39774634538E+03  0.39774634538E+03  0.00000000000E+00 0.  1.
         21   -1    0    0  501  503 -0.00000000000E+00 -0.00000000000E+00 -0.54631508310E+03  0.54631508310E+03  0.00000000000E+00 0. -1.
          6    1    1    2  501    0  0.11932371734E+03 -0.22333388664E+03 -0.42978339636E+03  0.52797627052E+03  0.17300000000E+03 0. -1.
         -6    1    1    2    0  502 -0.11932371734E+03  0.22333388664E+03  0.28121465864E+03  0.41608515796E+03  0.17300000000E+03 0.  1.
<mgrwt>
<rscale>  2 0.30666786E+03</rscale>
<asrwt>0</asrwt>
<pdfrwt beam="1">  1       21 0.61191746E-01 0.30666786E+03</pdfrwt>
<pdfrwt beam="2">  1       21 0.84048474E-01 0.30666786E+03</pdfrwt>
<totfact> 0.28244441E+03</totfact>
</mgrwt>
</event>
<event>
 4    2  0.3992997E+000  0.4548262E+03  0.7546771E-02  0.1026293E+00
         21   -1    0    0  501  502  0.00000000000E+00  0.00000000000E+00  0.11852164454E+04  0.11852164454E+04  0.00000000000E+00 0. -1.
         21   -1    0    0  502  503 -0.00000000000E+00 -0.00000000000E+00 -0.23416052156E+03  0.23416052156E+03  0.00000000000E+00 0.  1.
          6    1    1    2  501    0 -0.41702183984E+03 -0.55051062791E+02  0.83363379757E+03  0.94963790092E+03  0.17300000000E+03 0.  1.
         -6    1    1    2    0  503  0.41702183984E+03  0.55051062791E+02  0.11742212625E+03  0.46973906603E+03  0.17300000000E+03 0.  1.
<mgrwt>
<rscale>  2 0.45482616E+03</rscale>
<asrwt>0</asrwt>
<pdfrwt beam="1">  1       21 0.18234099E+00 0.45482616E+03</pdfrwt>
<pdfrwt beam="2">  1       21 0.36024696E-01 0.45482616E+03</pdfrwt>
<totfact> 0.10926006E+03</totfact>
</mgrwt>
</event>
<event>
 4    2  0.3992997E+000  0.2070115E+03  0.7546771E-02  0.1143955E+00
         21   -1    0    0  501  502  0.00000000000E+00  0.00000000000E+00  0.19122858447E+03  0.19122858447E+03  0.00000000000E+00 0.  1.
         21   -1    0    0  502  503 -0.00000000000E+00 -0.00000000000E+00 -0.28855933534E+03  0.28855933534E+03  0.00000000000E+00 0.  1.
          6    1    1    2  501    0 -0.21072292887E+02  0.11171712985E+03  0.64719375723E+02  0.21689249923E+03  0.17300000000E+03 0.  1.
         -6    1    1    2    0  503  0.21072292887E+02 -0.11171712985E+03 -0.16205012659E+03  0.26289542057E+03  0.17300000000E+03 0.  1.
<mgrwt>
<rscale>  2 0.20701149E+03</rscale>
<asrwt>0</asrwt>
<pdfrwt beam="1">  1       21 0.29419782E-01 0.20701149E+03</pdfrwt>
<pdfrwt beam="2">  1       21 0.44393744E-01 0.20701149E+03</pdfrwt>
<totfact> 0.53564850E+04</totfact>
</mgrwt>
</event>
<event>
 4    2  0.3992997E+000  0.1738315E+03  0.7546771E-02  0.1173910E+00
         21   -1    0    0  501  502  0.00000000000E+00  0.00000000000E+00  0.53994633510E+03  0.53994633510E+03  0.00000000000E+00 0. -1.
         21   -1    0    0  502  503 -0.00000000000E+00 -0.00000000000E+00 -0.11370474079E+03  0.11370474079E+03  0.00000000000E+00 0. -1.
          6    1    1    2  501    0  0.12808887264E+02  0.11149711175E+02  0.44602057775E+03  0.47869796263E+03  0.17300000000E+03 0. -1.
         -6    1    1    2    0  503 -0.12808887264E+02 -0.11149711175E+02 -0.19778983444E+02  0.17495311326E+03  0.17300000000E+03 0. -1.
<mgrwt>
<rscale>  2 0.17383148E+03</rscale>
<asrwt>0</asrwt>
<pdfrwt beam="1">  1       21 0.83068666E-01 0.17383148E+03</pdfrwt>
<pdfrwt beam="2">  1       21 0.17493037E-01 0.17383148E+03</pdfrwt>
<totfact> 0.37748946E+04</totfact>
</mgrwt>
</event>
<event>
 4    2  0.3992997E+000  0.2588411E+03  0.7546771E-02  0.1107842E+00
         21   -1    0    0  503  502  0.00000000000E+00  0.00000000000E+00  0.12419442987E+04  0.12419442987E+04  0.00000000000E+00 0. -1.
         21   -1    0    0  501  503 -0.00000000000E+00 -0.00000000000E+00 -0.10283979201E+03  0.10283979201E+03  0.00000000000E+00 0.  1.
          6    1    1    2  501    0  0.14578517688E+03  0.12576329455E+03  0.10592817532E+03  0.27967749709E+03  0.17300000000E+03 0.  1.
         -6    1    1    2    0  502 -0.14578517688E+03 -0.12576329455E+03  0.10331763314E+04  0.10651065936E+04  0.17300000000E+03 0.  1.
<mgrwt>
<rscale>  2 0.25884112E+03</rscale>
<asrwt>0</asrwt>
<pdfrwt beam="1">  1       21 0.19106834E+00 0.25884112E+03</pdfrwt>
<pdfrwt beam="2">  1       21 0.15821507E-01 0.25884112E+03</pdfrwt>
<totfact> 0.51822511E+03</totfact>
</mgrwt>
</event>
<event>
 4    2  0.3992997E+000  0.1730585E+03  0.7546771E-02  0.1174695E+00
         21   -1    0    0  501  502  0.00000000000E+00  0.00000000000E+00  0.11763676943E+04  0.11763676943E+04  0.00000000000E+00 0.  1.
         21   -1    0    0  502  503 -0.00000000000E+00 -0.00000000000E+00 -0.25561911072E+02  0.25561911072E+02  0.00000000000E+00 0.  1.
          6    1    1    2  501    0  0.41906386544E+01 -0.16427122551E+01  0.61351626277E+03  0.63745702964E+03  0.17300000000E+03 0.  1.
         -6    1    1    2    0  503 -0.41906386544E+01  0.16427122551E+01  0.53728952042E+03  0.56447257569E+03  0.17300000000E+03 0.  1.
<mgrwt>
<rscale>  2 0.17305854E+03</rscale>
<asrwt>0</asrwt>
<pdfrwt beam="1">  1       21 0.18097960E+00 0.17305854E+03</pdfrwt>
<pdfrwt beam="2">  1       21 0.39326026E-02 0.17305854E+03</pdfrwt>
<totfact> 0.73072506E+04</totfact>
</mgrwt>
</event>
<event>
 4    2  0.3992997E+000  0.2028770E+03  0.7546771E-02  0.1147334E+00
         21   -1    0    0  501  502  0.00000000000E+00  0.00000000000E+00  0.59928252117E+02  0.59928252117E+02  0.00000000000E+00 0. -1.
         21   -1    0    0  502  503 -0.00000000000E+00 -0.00000000000E+00 -0.10439209073E+04  0.10439209073E+04  0.00000000000E+00 0. -1.
          6    1    1    2  501    0 -0.14423169376E+02  0.10498603660E+03 -0.16918423130E+03  0.26416358533E+03  0.17300000000E+03 0. -1.
         -6    1    1    2    0  503  0.14423169376E+02 -0.10498603660E+03 -0.81480842393E+03  0.83968557413E+03  0.17300000000E+03 0. -1.
<mgrwt>
<rscale>  2 0.20287705E+03</rscale>
<asrwt>0</asrwt>
<pdfrwt beam="1">  1       21 0.92197317E-02 0.20287705E+03</pdfrwt>
<pdfrwt beam="2">  1       21 0.16060321E+00 0.20287705E+03</pdfrwt>
<totfact> 0.23168759E+04</totfact>
</mgrwt>
</event>
<event>
 4    2  0.3992997E+000  0.2392818E+03  0.7546771E-02  0.1120272E+00
         21   -1    0    0  503  502  0.00000000000E+00  0.00000000000E+00  0.18895918728E+03  0.18895918728E+03  0.00000000000E+00 0. -1.
         21   -1    0    0  501  503 -0.00000000000E+00 -0.00000000000E+00 -0.35008488685E+03  0.35008488685E+03  0.00000000000E+00 0. -1.
          6    1    1    2  501    0  0.23744948364E+02  0.16359391543E+03  0.18274274375E+02  0.23997862580E+03  0.17300000000E+03 0. -1.
         -6    1    1    2    0  502 -0.23744948364E+02 -0.16359391543E+03 -0.17939997395E+03  0.29906544834E+03  0.17300000000E+03 0. -1.
<mgrwt>
<rscale>  2 0.23928182E+03</rscale>
<asrwt>0</asrwt>
<pdfrwt beam="1">  1       21 0.29070644E-01 0.23928182E+03</pdfrwt>
<pdfrwt beam="2">  1       21 0.53859213E-01 0.23928182E+03</pdfrwt>
<totfact> 0.36098487E+04</totfact>
</mgrwt>
</event>
<event>
 4    2  0.3992997E+000  0.2444963E+03  0.7546771E-02  0.1116833E+00
         21   -1    0    0  501  502  0.00000000000E+00  0.00000000000E+00  0.15139214473E+04  0.15139214473E+04  0.00000000000E+00 0. -1.
         21   -1    0    0  502  503 -0.00000000000E+00 -0.00000000000E+00 -0.46825215394E+02  0.46825215394E+02  0.00000000000E+00 0. -1.
          6    1    1    2  501    0  0.11375802224E+03  0.13003281232E+03  0.10425014332E+04  0.10707883348E+04  0.17300000000E+03 0. -1.
         -6    1    1    2    0  503 -0.11375802224E+03 -0.13003281232E+03  0.42459479875E+03  0.48995832785E+03  0.17300000000E+03 0. -1.
<mgrwt>
<rscale>  2 0.24449626E+03</rscale>
<asrwt>0</asrwt>
<pdfrwt beam="1">  1       21 0.23291095E+00 0.24449626E+03</pdfrwt>
<pdfrwt beam="2">  1       21 0.72038804E-02 0.24449626E+03</pdfrwt>
<totfact> 0.11591617E+04</totfact>
</mgrwt>
</event>
<event>
 4    2  0.3992997E+000  0.1765175E+03  0.7546771E-02  0.1171217E+00
         21   -1    0    0  501  502  0.00000000000E+00  0.00000000000E+00  0.55383680626E+02  0.55383680626E+02  0.00000000000E+00 0.  1.
         21   -1    0    0  502  503 -0.00000000000E+00 -0.00000000000E+00 -0.64428825340E+03  0.64428825340E+03  0.00000000000E+00 0.  1.
          6    1    1    2  501    0  0.10983018792E+02  0.33298755831E+02 -0.16987910720E+03  0.24498437686E+03  0.17300000000E+03 0.  1.
         -6    1    1    2    0  503 -0.10983018792E+02 -0.33298755831E+02 -0.41902546557E+03  0.45468755717E+03  0.17300000000E+03 0.  1.
<mgrwt>
<rscale>  2 0.17651752E+03</rscale>
<asrwt>0</asrwt>
<pdfrwt beam="1">  1       21 0.85205655E-02 0.17651752E+03</pdfrwt>
<pdfrwt beam="2">  1       21 0.99121279E-01 0.17651752E+03</pdfrwt>
<totfact> 0.90743139E+04</totfact>
</mgrwt>
</event>
<event>
 4    2  0.3992997E+000  0.2037222E+03  0.7546771E-02  0.1146636E+00
         21   -1    0    0  501  502  0.00000000000E+00  0.00000000000E+00  0.37076776061E+03  0.37076776061E+03  0.00000000000E+00 0.  1.
         21   -1    0    0  502  503 -0.00000000000E+00 -0.00000000000E+00 -0.12081903236E+03  0.12081903236E+03  0.00000000000E+00 0. -1.
          6    1    1    2  501    0  0.88267541827E+02  0.61502563405E+02  0.19161705883E+03  0.27967806757E+03  0.17300000000E+03 0.  1.
         -6    1    1    2    0  503 -0.88267541827E+02 -0.61502563405E+02  0.58331669417E+02  0.21190872540E+03  0.17300000000E+03 0.  1.
<mgrwt>
<rscale>  2 0.20372217E+03</rscale>
<asrwt>0</asrwt>
<pdfrwt beam="1">  1       21 0.57041193E-01 0.20372217E+03</pdfrwt>
<pdfrwt beam="2">  1       21 0.18587544E-01 0.20372217E+03</pdfrwt>
<totfact> 0.76006412E+04</totfact>
</mgrwt>
</event>
<event>
 4    2  0.3992997E+000  0.5191266E+03  0.7546771E-02  0.1008904E+00
         21   -1    0    0  501  502  0.00000000000E+00  0.00000000000E+00  0.35037622793E+03  0.35037622793E+03  0.00000000000E+00 0.  1.
         21   -1    0    0  502  503 -0.00000000000E+00 -0.00000000000E+00 -0.79652066515E+03  0.79652066515E+03  0.00000000000E+00 0. -1.
          6    1    1    2  501    0 -0.22195161413E+03  0.43623488394E+03 -0.11677379610E+03  0.53209821691E+03  0.17300000000E+03 0.  1.
         -6    1    1    2    0  503  0.22195161413E+03 -0.43623488394E+03 -0.32937064112E+03  0.61479867617E+03  0.17300000000E+03 0. -1.
<mgrwt>
<rscale>  2 0.51912657E+03</rscale>
<asrwt>0</asrwt>
<pdfrwt beam="1">  1       21 0.53904035E-01 0.51912657E+03</pdfrwt>
<pdfrwt beam="2">  1       21 0.12254164E+00 0.51912657E+03</pdfrwt>
<totfact> 0.13580998E+03</totfact>
</mgrwt>
</event>
<event>
 4    2  0.3992997E+000  0.2219057E+03  0.7546771E-02  0.1132470E+00
         21   -1    0    0  501  502  0.00000000000E+00  0.00000000000E+00  0.47139631575E+02  0.47139631575E+02  0.00000000000E+00 0.  1.
         21   -1    0    0  502  503 -0.00000000000E+00 -0.00000000000E+00 -0.19474062831E+04  0.19474062831E+04  0.00000000000E+00 0.  1.
          6    1    1    2  501    0  0.10120283035E+03  0.95242552977E+02 -0.27111335512E+03  0.35034926586E+03  0.17300000000E+03 0.  1.
         -6    1    1    2    0  503 -0.10120283035E+03 -0.95242552977E+02 -0.16291532964E+04  0.16441966488E+04  0.17300000000E+03 0.  1.
<mgrwt>
<rscale>  2 0.22190574E+03</rscale>
<asrwt>0</asrwt>
<pdfrwt beam="1">  1       21 0.72522528E-02 0.22190574E+03</pdfrwt>
<pdfrwt beam="2">  1       21 0.29960089E+00 0.22190574E+03</pdfrwt>
<totfact> 0.47285381E+03</totfact>
</mgrwt>
</event>
<event>
 4    2  0.3992997E+000  0.1825576E+03  0.7546771E-02  0.1165351E+00
         21   -1    0    0  503  502  0.00000000000E+00  0.00000000000E+00  0.18377869543E+03  0.18377869543E+03  0.00000000000E+00 0.  1.
         21   -1    0    0  501  503 -0.00000000000E+00 -0.00000000000E+00 -0.19313359963E+03  0.19313359963E+03  0.00000000000E+00 0.  1.
          6    1    1    2  501    0  0.45548514985E+02  0.36381410937E+02 -0.51238188624E+02  0.18961177773E+03  0.17300000000E+03 0.  1.
         -6    1    1    2    0  502 -0.45548514985E+02 -0.36381410937E+02  0.41883284426E+02  0.18730051733E+03  0.17300000000E+03 0.  1.
<mgrwt>
<rscale>  2 0.18255759E+03</rscale>
<asrwt>0</asrwt>
<pdfrwt beam="1">  1       21 0.28273646E-01 0.18255759E+03</pdfrwt>
<pdfrwt beam="2">  1       21 0.29712861E-01 0.18255759E+03</pdfrwt>
<totfact> 0.13026324E+05</totfact>
</mgrwt>
</event>
<event>
 4    2  0.3992997E+000  0.1927866E+03  0.7546771E-02  0.1155972E+00
         21   -1    0    0  503  502  0.00000000000E+00  0.00000000000E+00  0.65256428398E+02  0.65256428398E+02  0.00000000000E+00 0.  1.
         21   -1    0    0  501  503 -0.00000000000E+00 -0.00000000000E+00 -0.57648651919E+03  0.57648651919E+03  0.00000000000E+00 0. -1.
          6    1    1    2  501    0  0.18196458501E+02  0.83105748691E+02 -0.22041315763E+03  0.29282868135E+03  0.17300000000E+03 0.  1.
         -6    1    1    2    0  502 -0.18196458501E+02 -0.83105748691E+02 -0.29081693316E+03  0.34891426623E+03  0.17300000000E+03 0. -1.
<mgrwt>
<rscale>  2 0.19278661E+03</rscale>
<asrwt>0</asrwt>
<pdfrwt beam="1">  1       21 0.10039450E-01 0.19278661E+03</pdfrwt>
<pdfrwt beam="2">  1       21 0.88690236E-01 0.19278661E+03</pdfrwt>
<totfact> 0.87576223E+04</totfact>
</mgrwt>
</event>
<event>
 4    2  0.3992997E+000  0.2035416E+03  0.7546771E-02  0.1146785E+00
         21   -1    0    0  501  502  0.00000000000E+00  0.00000000000E+00  0.13158559686E+03  0.13158559686E+03  0.00000000000E+00 0. -1.
         21   -1    0    0  502  503 -0.00000000000E+00 -0.00000000000E+00 -0.31656262786E+03  0.31656262786E+03  0.00000000000E+00 0.  1.
          6    1    1    2  501    0  0.10682503635E+03  0.94124509911E+01 -0.75987315803E+02  0.21726310038E+03  0.17300000000E+03 0.  1.
         -6    1    1    2    0  503 -0.10682503635E+03 -0.94124509911E+01 -0.10898971519E+03  0.23088512434E+03  0.17300000000E+03 0.  1.
<mgrwt>
<rscale>  2 0.20354160E+03</rscale>
<asrwt>0</asrwt>
<pdfrwt beam="1">  1       21 0.20243938E-01 0.20354160E+03</pdfrwt>
<pdfrwt beam="2">  1       21 0.48701942E-01 0.20354160E+03</pdfrwt>
<totfact> 0.90412406E+04</totfact>
</mgrwt>
</event>
<event>
 4    2  0.3992997E+000  0.3786800E+03  0.7546771E-02  0.1051423E+00
         21   -1    0    0  503  502  0.00000000000E+00  0.00000000000E+00  0.65573416895E+03  0.65573416895E+03  0.00000000000E+00 0.  1.
         21   -1    0    0  501  503 -0.00000000000E+00 -0.00000000000E+00 -0.22826767447E+03  0.22826767447E+03  0.00000000000E+00 0. -1.
          6    1    1    2  501    0 -0.32660893396E+03  0.82438732063E+02  0.12316664893E+03  0.39820668464E+03  0.17300000000E+03 0. -1.
         -6    1    1    2    0  502  0.32660893396E+03 -0.82438732063E+02  0.30429984556E+03  0.48579515878E+03  0.17300000000E+03 0.  1.
<mgrwt>
<rscale>  2 0.37868000E+03</rscale>
<asrwt>0</asrwt>
<pdfrwt beam="1">  1       21 0.10088218E+00 0.37868000E+03</pdfrwt>
<pdfrwt beam="2">  1       21 0.35118104E-01 0.37868000E+03</pdfrwt>
<totfact> 0.56730327E+03</totfact>
</mgrwt>
</event>
<event>
 4    2  0.3992997E+000  0.1883132E+03  0.7546771E-02  0.1159992E+00
         21   -1    0    0  503  502  0.00000000000E+00  0.00000000000E+00  0.10217242365E+03  0.10217242365E+03  0.00000000000E+00 0.  1.
         21   -1    0    0  501  503 -0.00000000000E+00 -0.00000000000E+00 -0.67407153599E+03  0.67407153599E+03  0.00000000000E+00 0.  1.
          6    1    1    2  501    0 -0.12047652493E+02  0.73401131036E+02 -0.55627340533E+03  0.58728355455E+03  0.17300000000E+03 0.  1.
         -6    1    1    2    0  502  0.12047652493E+02 -0.73401131036E+02 -0.15625707008E+02  0.18896040508E+03  0.17300000000E+03 0.  1.
<mgrwt>
<rscale>  2 0.18831323E+03</rscale>
<asrwt>0</asrwt>
<pdfrwt beam="1">  1       21 0.15718834E-01 0.18831323E+03</pdfrwt>
<pdfrwt beam="2">  1       21 0.10370332E+00 0.18831323E+03</pdfrwt>
<totfact> 0.27178995E+04</totfact>
</mgrwt>
</event>
<event>
 4    2  0.3992997E+000  0.2080805E+03  0.7546771E-02  0.1143095E+00
         21   -1    0    0  501  502  0.00000000000E+00  0.00000000000E+00  0.33492668991E+03  0.33492668991E+03  0.00000000000E+00 0.  1.
         21   -1    0    0  502  503 -0.00000000000E+00 -0.00000000000E+00 -0.27196049876E+03  0.27196049876E+03  0.00000000000E+00 0.  1.
          6    1    1    2  501    0 -0.90036808632E+02 -0.72538653258E+02  0.25127704195E+03  0.32624781216E+03  0.17300000000E+03 0.  1.
         -6    1    1    2    0  503  0.90036808632E+02  0.72538653258E+02 -0.18831085079E+03  0.28063937652E+03  0.17300000000E+03 0.  1.
<mgrwt>
<rscale>  2 0.20808047E+03</rscale>
<asrwt>0</asrwt>
<pdfrwt beam="1">  1       21 0.51527183E-01 0.20808047E+03</pdfrwt>
<pdfrwt beam="2">  1       21 0.41840077E-01 0.20808047E+03</pdfrwt>
<totfact> 0.19494437E+04</totfact>
</mgrwt>
</event>
<event>
 4    2  0.3992997E+000  0.2313298E+03  0.7546771E-02  0.1125707E+00
         21   -1    0    0  503  502  0.00000000000E+00  0.00000000000E+00  0.10233456107E+03  0.10233456107E+03  0.00000000000E+00 0. -1.
         21   -1    0    0  501  503 -0.00000000000E+00 -0.00000000000E+00 -0.52300269518E+03  0.52300269518E+03  0.00000000000E+00 0.  1.
          6    1    1    2  501    0  0.15162507096E+03 -0.24378971554E+02 -0.20657042793E+03  0.31013680544E+03  0.17300000000E+03 0.  1.
         -6    1    1    2    0  502 -0.15162507096E+03  0.24378971554E+02 -0.21409770618E+03  0.31520045081E+03  0.17300000000E+03 0.  1.
<mgrwt>
<rscale>  2 0.23132984E+03</rscale>
<asrwt>0</asrwt>
<pdfrwt beam="1">  1       21 0.15743778E-01 0.23132984E+03</pdfrwt>
<pdfrwt beam="2">  1       21 0.80461954E-01 0.23132984E+03</pdfrwt>
<totfact> 0.47858900E+04</totfact>
</mgrwt>
</event>
<event>
 4    2  0.3992997E+000  0.2170269E+03  0.7546771E-02  0.1136119E+00
         21   -1    0    0  503  502  0.00000000000E+00  0.00000000000E+00  0.18938605725E+03  0.18938605725E+03  0.00000000000E+00 0.  1.
         21   -1    0    0  501  503 -0.00000000000E+00 -0.00000000000E+00 -0.36894789990E+03  0.36894789990E+03  0.00000000000E+00 0. -1.
          6    1    1    2  501    0  0.12433255365E+03 -0.41389303526E+02 -0.24915473930E+03  0.33042206715E+03  0.17300000000E+03 0. -1.
         -6    1    1    2    0  502 -0.12433255365E+03  0.41389303526E+02  0.69592896643E+02  0.22791189001E+03  0.17300000000E+03 0.  1.
<mgrwt>
<rscale>  2 0.21702686E+03</rscale>
<asrwt>0</asrwt>
<pdfrwt beam="1">  1       21 0.29136317E-01 0.21702686E+03</pdfrwt>
<pdfrwt beam="2">  1       21 0.56761214E-01 0.21702686E+03</pdfrwt>
<totfact> 0.32485680E+04</totfact>
</mgrwt>
</event>
<event>
 4    2  0.3992997E+000  0.2159882E+03  0.7546771E-02  0.1136910E+00
         21   -1    0    0  501  502  0.00000000000E+00  0.00000000000E+00  0.85375401981E+02  0.85375401981E+02  0.00000000000E+00 0. -1.
         21   -1    0    0  502  503 -0.00000000000E+00 -0.00000000000E+00 -0.89704025821E+03  0.89704025821E+03  0.00000000000E+00 0. -1.
          6    1    1    2  501    0 -0.67556949100E+02 -0.11026307677E+03 -0.98734151660E+02  0.23748541045E+03  0.17300000000E+03 0. -1.
         -6    1    1    2    0  503  0.67556949100E+02  0.11026307677E+03 -0.71293070457E+03  0.74493024975E+03  0.17300000000E+03 0. -1.
<mgrwt>
<rscale>  2 0.21598817E+03</rscale>
<asrwt>0</asrwt>
<pdfrwt beam="1">  1       21 0.13134678E-01 0.21598817E+03</pdfrwt>
<pdfrwt beam="2">  1       21 0.13800619E+00 0.21598817E+03</pdfrwt>
<totfact> 0.18246990E+04</totfact>
</mgrwt>
</event>
<event>
 4    2  0.3992997E+000  0.2150493E+03  0.7546771E-02  0.1137629E+00
         21   -1    0    0  501  502  0.00000000000E+00  0.00000000000E+00  0.94779204291E+02  0.94779204291E+02  0.00000000000E+00 0. -1.
         21   -1    0    0  502  503 -0.00000000000E+00 -0.00000000000E+00 -0.59774458263E+03  0.59774458263E+03  0.00000000000E+00 0. -1.
          6    1    1    2  501    0  0.79275910258E+02  0.10016244568E+03 -0.10307205343E+03  0.23847438787E+03  0.17300000000E+03 0. -1.
         -6    1    1    2    0  503 -0.79275910258E+02 -0.10016244568E+03 -0.39989332491E+03  0.45404939905E+03  0.17300000000E+03 0. -1.
<mgrwt>
<rscale>  2 0.21504926E+03</rscale>
<asrwt>0</asrwt>
<pdfrwt beam="1">  1       21 0.14581416E-01 0.21504926E+03</pdfrwt>
<pdfrwt beam="2">  1       21 0.91960705E-01 0.21504926E+03</pdfrwt>
<totfact> 0.40795232E+04</totfact>
</mgrwt>
</event>
<event>
 4    2  0.3992997E+000  0.1992952E+03  0.7546771E-02  0.1150335E+00
         21   -1    0    0  501  502  0.00000000000E+00  0.00000000000E+00  0.67091903660E+03  0.67091903660E+03  0.00000000000E+00 0. -1.
         21   -1    0    0  502  503 -0.00000000000E+00 -0.00000000000E+00 -0.72365280068E+02  0.72365280068E+02  0.00000000000E+00 0.  1.
          6    1    1    2  501    0 -0.87350806646E+02 -0.46469614639E+02  0.45779190495E+03  0.49929151479E+03  0.17300000000E+03 0. -1.
         -6    1    1    2    0  503  0.87350806646E+02  0.46469614639E+02  0.14076185158E+03  0.24399280188E+03  0.17300000000E+03 0.  1.
<mgrwt>
<rscale>  2 0.19929523E+03</rscale>
<asrwt>0</asrwt>
<pdfrwt beam="1">  1       21 0.10321831E+00 0.19929523E+03</pdfrwt>
<pdfrwt beam="2">  1       21 0.11133120E-01 0.19929523E+03</pdfrwt>
<totfact> 0.50889642E+04</totfact>
</mgrwt>
</event>
<event>
 4    2  0.3992997E+000  0.3358780E+03  0.7546771E-02  0.1068565E+00
         21   -1    0    0  501  502  0.00000000000E+00  0.00000000000E+00  0.11407299587E+03  0.11407299587E+03  0.00000000000E+00 0. -1.
         21   -1    0    0  502  503 -0.00000000000E+00 -0.00000000000E+00 -0.10073226521E+04  0.10073226521E+04  0.00000000000E+00 0. -1.
          6    1    1    2  501    0 -0.26147397353E+03  0.12048412134E+03 -0.37092978318E+03  0.50040280413E+03  0.17300000000E+03 0. -1.
         -6    1    1    2    0  503  0.26147397353E+03 -0.12048412134E+03 -0.52231987307E+03  0.62099284387E+03  0.17300000000E+03 0. -1.
<mgrwt>
<rscale>  2 0.33587805E+03</rscale>
<asrwt>0</asrwt>
<pdfrwt beam="1">  1       21 0.17549691E-01 0.33587805E+03</pdfrwt>
<pdfrwt beam="2">  1       21 0.15497272E+00 0.33587805E+03</pdfrwt>
<totfact> 0.73920580E+03</totfact>
</mgrwt>
</event>
<event>
 4    2  0.3992997E+000  0.2633660E+03  0.7546771E-02  0.1105138E+00
         21   -1    0    0  501  502  0.00000000000E+00  0.00000000000E+00  0.14860836538E+04  0.14860836538E+04  0.00000000000E+00 0.  1.
         21   -1    0    0  502  503 -0.00000000000E+00 -0.00000000000E+00 -0.54651737470E+02  0.54651737470E+02  0.00000000000E+00 0. -1.
          6    1    1    2  501    0 -0.78293236758E+02  0.18249054395E+03  0.42138699819E+03  0.49691914010E+03  0.17300000000E+03 0.  1.
         -6    1    1    2    0  503  0.78293236758E+02 -0.18249054395E+03  0.10100449181E+04  0.10438162512E+04  0.17300000000E+03 0. -1.
<mgrwt>
<rscale>  2 0.26336596E+03</rscale>
<asrwt>0</asrwt>
<pdfrwt beam="1">  1       21 0.22862822E+00 0.26336596E+03</pdfrwt>
<pdfrwt beam="2">  1       21 0.84079607E-02 0.26336596E+03</pdfrwt>
<totfact> 0.92735910E+03</totfact>
</mgrwt>
</event>
<event>
 4    2  0.3992997E+000  0.1798213E+03  0.7546771E-02  0.1167976E+00
         21   -1    0    0  503  502  0.00000000000E+00  0.00000000000E+00  0.82840207669E+03  0.82840207669E+03  0.00000000000E+00 0.  1.
         21   -1    0    0  501  503 -0.00000000000E+00 -0.00000000000E+00 -0.93829372105E+02  0.93829372105E+02  0.00000000000E+00 0.  1.
          6    1    1    2  501    0 -0.24753376154E+02  0.42355244706E+02  0.14904782176E+02  0.18043793647E+03  0.17300000000E+03 0.  1.
         -6    1    1    2    0  502  0.24753376154E+02 -0.42355244706E+02  0.71966792240E+03  0.74179351232E+03  0.17300000000E+03 0.  1.
<mgrwt>
<rscale>  2 0.17982129E+03</rscale>
<asrwt>0</asrwt>
<pdfrwt beam="1">  1       21 0.12744647E+00 0.17982129E+03</pdfrwt>
<pdfrwt beam="2">  1       21 0.14435289E-01 0.17982129E+03</pdfrwt>
<totfact> 0.19273625E+04</totfact>
</mgrwt>
</event>
<event>
 4    2  0.3992997E+000  0.2021370E+03  0.7546771E-02  0.1147948E+00
         21   -1    0    0  501  502  0.00000000000E+00  0.00000000000E+00  0.12842195477E+04  0.12842195477E+04  0.00000000000E+00 0. -1.
         21   -1    0    0  502  503 -0.00000000000E+00 -0.00000000000E+00 -0.46408099662E+02  0.46408099662E+02  0.00000000000E+00 0. -1.
          6    1    1    2  501    0  0.89550725457E+02 -0.53954183592E+02  0.99196765366E+03  0.10123533041E+04  0.17300000000E+03 0. -1.
         -6    1    1    2    0  503 -0.89550725457E+02  0.53954183592E+02  0.24584379433E+03  0.31827434325E+03  0.17300000000E+03 0. -1.
<mgrwt>
<rscale>  2 0.20213705E+03</rscale>
<asrwt>0</asrwt>
<pdfrwt beam="1">  1       21 0.19757221E+00 0.20213705E+03</pdfrwt>
<pdfrwt beam="2">  1       21 0.71397086E-02 0.20213705E+03</pdfrwt>
<totfact> 0.20203400E+04</totfact>
</mgrwt>
</event>
<event>
 4    2  0.3992997E+000  0.2515928E+03  0.7546771E-02  0.1112302E+00
         21   -1    0    0  503  502  0.00000000000E+00  0.00000000000E+00  0.47655524990E+03  0.47655524990E+03  0.00000000000E+00 0. -1.
         21   -1    0    0  501  503 -0.00000000000E+00 -0.00000000000E+00 -0.13292388931E+03  0.13292388931E+03  0.00000000000E+00 0.  1.
          6    1    1    2  501    0  0.60034886488E+02 -0.17252755138E+03  0.18008406495E+03  0.30940138013E+03  0.17300000000E+03 0. -1.
         -6    1    1    2    0  502 -0.60034886488E+02  0.17252755138E+03  0.16354729564E+03  0.30007775907E+03  0.17300000000E+03 0.  1.
<mgrwt>
<rscale>  2 0.25159281E+03</rscale>
<asrwt>0</asrwt>
<pdfrwt beam="1">  1       21 0.73316192E-01 0.25159281E+03</pdfrwt>
<pdfrwt beam="2">  1       21 0.20449829E-01 0.25159281E+03</pdfrwt>
<totfact> 0.35987710E+04</totfact>
</mgrwt>
</event>
<event>
 4    2  0.3992997E+000  0.1787649E+03  0.7546771E-02  0.1169004E+00
         21   -1    0    0  501  502  0.00000000000E+00  0.00000000000E+00  0.19547433219E+03  0.19547433219E+03  0.00000000000E+00 0. -1.
         21   -1    0    0  502  503 -0.00000000000E+00 -0.00000000000E+00 -0.19434699079E+03  0.19434699079E+03  0.00000000000E+00 0. -1.
          6    1    1    2  501    0 -0.43972938855E+02  0.97099142661E+01  0.78236039703E+02  0.19513528562E+03  0.17300000000E+03 0. -1.
         -6    1    1    2    0  503  0.43972938855E+02 -0.97099142661E+01 -0.77108698310E+02  0.19468603736E+03  0.17300000000E+03 0. -1.
<mgrwt>
<rscale>  2 0.17876493E+03</rscale>
<asrwt>0</asrwt>
<pdfrwt beam="1">  1       21 0.30072974E-01 0.17876493E+03</pdfrwt>
<pdfrwt beam="2">  1       21 0.29899537E-01 0.17876493E+03</pdfrwt>
<totfact> 0.11432607E+05</totfact>
</mgrwt>
</event>
<event>
 4    2  0.3992997E+000  0.1993018E+03  0.7546771E-02  0.1150329E+00
         21   -1    0    0  501  502  0.00000000000E+00  0.00000000000E+00  0.59375760621E+03  0.59375760621E+03  0.00000000000E+00 0. -1.
         21   -1    0    0  502  503 -0.00000000000E+00 -0.00000000000E+00 -0.73519758863E+02  0.73519758863E+02  0.00000000000E+00 0. -1.
          6    1    1    2  501    0  0.81139362286E+02 -0.56644452222E+02  0.36024827142E+03  0.41170378568E+03  0.17300000000E+03 0. -1.
         -6    1    1    2    0  503 -0.81139362286E+02  0.56644452222E+02  0.15998957592E+03  0.25557357939E+03  0.17300000000E+03 0. -1.
<mgrwt>
<rscale>  2 0.19930176E+03</rscale>
<asrwt>0</asrwt>
<pdfrwt beam="1">  1       21 0.91347321E-01 0.19930176E+03</pdfrwt>
<pdfrwt beam="2">  1       21 0.11310732E-01 0.19930176E+03</pdfrwt>
<totfact> 0.65988899E+04</totfact>
</mgrwt>
</event>
<event>
 4    2  0.3992997E+000  0.1745645E+03  0.7546771E-02  0.1173170E+00
         21   -1    0    0  501  502  0.00000000000E+00  0.00000000000E+00  0.26819911215E+02  0.26819911215E+02  0.00000000000E+00 0. -1.
         21   -1    0    0  502  503 -0.00000000000E+00 -0.00000000000E+00 -0.14249826625E+04  0.14249826625E+04  0.00000000000E+00 0. -1.
          6    1    1    2  501    0 -0.20093120983E+01  0.23231723806E+02 -0.37229852746E+03  0.41119210094E+03  0.17300000000E+03 0. -1.
         -6    1    1    2    0  503  0.20093120983E+01 -0.23231723806E+02 -0.10258642238E+04  0.10406104727E+04  0.17300000000E+03 0. -1.
<mgrwt>
<rscale>  2 0.17456446E+03</rscale>
<asrwt>0</asrwt>
<pdfrwt beam="1">  1       21 0.41261400E-02 0.17456446E+03</pdfrwt>
<pdfrwt beam="2">  1       21 0.21922811E+00 0.17456446E+03</pdfrwt>
<totfact> 0.38342865E+04</totfact>
</mgrwt>
</event>
<event>
 4    2  0.3992997E+000  0.1763487E+03  0.7546771E-02  0.1171384E+00
         21   -1    0    0  501  502  0.00000000000E+00  0.00000000000E+00  0.99948014885E+02  0.99948014885E+02  0.00000000000E+00 0. -1.
         21   -1    0    0  502  503 -0.00000000000E+00 -0.00000000000E+00 -0.40164743529E+03  0.40164743529E+03  0.00000000000E+00 0. -1.
          6    1    1    2  501    0  0.33175065713E+02 -0.83243593113E+01 -0.31802860753E+02  0.17919347615E+03  0.17300000000E+03 0. -1.
         -6    1    1    2    0  503 -0.33175065713E+02  0.83243593113E+01 -0.26989655966E+03  0.32240197403E+03  0.17300000000E+03 0. -1.
<mgrwt>
<rscale>  2 0.17634875E+03</rscale>
<asrwt>0</asrwt>
<pdfrwt beam="1">  1       21 0.15376618E-01 0.17634875E+03</pdfrwt>
<pdfrwt beam="2">  1       21 0.61791913E-01 0.17634875E+03</pdfrwt>
<totfact> 0.91786040E+04</totfact>
</mgrwt>
</event>
<event>
 4    2  0.3992997E+000  0.1777706E+03  0.7546771E-02  0.1169978E+00
         21   -1    0    0  501  502  0.00000000000E+00  0.00000000000E+00  0.87416839957E+03  0.87416839957E+03  0.00000000000E+00 0. -1.
         21   -1    0    0  502  503 -0.00000000000E+00 -0.00000000000E+00 -0.41146230409E+02  0.41146230409E+02  0.00000000000E+00 0.  1.
          6    1    1    2  501    0  0.40797092322E+02  0.29957601470E+01  0.57596583196E+03  0.60277609185E+03  0.17300000000E+03 0. -1.
         -6    1    1    2    0  503 -0.40797092322E+02 -0.29957601470E+01  0.25705633720E+03  0.31253853813E+03  0.17300000000E+03 0.  1.
<mgrwt>
<rscale>  2 0.17777057E+03</rscale>
<asrwt>0</asrwt>
<pdfrwt beam="1">  1       21 0.13448743E+00 0.17777057E+03</pdfrwt>
<pdfrwt beam="2">  1       21 0.63301899E-02 0.17777057E+03</pdfrwt>
<totfact> 0.71876254E+04</totfact>
</mgrwt>
</event>
<event>
 4    2  0.3992997E+000  0.1775774E+03  0.7546771E-02  0.1170168E+00
         21   -1    0    0  501  502  0.00000000000E+00  0.00000000000E+00  0.55996490640E+03  0.55996490640E+03  0.00000000000E+00 0.  1.
         21   -1    0    0  502  503 -0.00000000000E+00 -0.00000000000E+00 -0.59014452609E+02  0.59014452609E+02  0.00000000000E+00 0.  1.
          6    1    1    2  501    0  0.28264623244E+02  0.28387138696E+02  0.31668256161E+03  0.36307239416E+03  0.17300000000E+03 0.  1.
         -6    1    1    2    0  503 -0.28264623244E+02 -0.28387138696E+02  0.18426789217E+03  0.25590696485E+03  0.17300000000E+03 0.  1.
<mgrwt>
<rscale>  2 0.17757736E+03</rscale>
<asrwt>0</asrwt>
<pdfrwt beam="1">  1       21 0.86148443E-01 0.17757736E+03</pdfrwt>
<pdfrwt beam="2">  1       21 0.90791469E-02 0.17757736E+03</pdfrwt>
<totfact> 0.11242567E+05</totfact>
</mgrwt>
</event>
<event>
 4    2  0.3992997E+000  0.1858413E+03  0.7546771E-02  0.1162267E+00
         21   -1    0    0  501  502  0.00000000000E+00  0.00000000000E+00  0.22610208783E+02  0.22610208783E+02  0.00000000000E+00 0.  1.
         21   -1    0    0  502  503 -0.00000000000E+00 -0.00000000000E+00 -0.16623281866E+04  0.16623281866E+04  0.00000000000E+00 0.  1.
          6    1    1    2  501    0  0.47393381631E+02 -0.48599032254E+02 -0.57992444114E+03  0.60897401915E+03  0.17300000000E+03 0.  1.
         -6    1    1    2    0  503 -0.47393381631E+02  0.48599032254E+02 -0.10597935367E+04  0.10759643762E+04  0.17300000000E+03 0.  1.
<mgrwt>
<rscale>  2 0.18584133E+03</rscale>
<asrwt>0</asrwt>
<pdfrwt beam="1">  1       21 0.34784924E-02 0.18584133E+03</pdfrwt>
<pdfrwt beam="2">  1       21 0.25574289E+00 0.18584133E+03</pdfrwt>
<totfact> 0.30627563E+04</totfact>
</mgrwt>
</event>
<event>
 4    2  0.3992997E+000  0.1845674E+03  0.7546771E-02  0.1163454E+00
         21   -1    0    0  503  502  0.00000000000E+00  0.00000000000E+00  0.44238323250E+02  0.44238323250E+02  0.00000000000E+00 0.  1.
         21   -1    0    0  501  503 -0.00000000000E+00 -0.00000000000E+00 -0.13645489001E+04  0.13645489001E+04  0.00000000000E+00 0.  1.
          6    1    1    2  501    0  0.39740080766E+02 -0.50565352072E+02 -0.11250999569E+04  0.11401381679E+04  0.17300000000E+03 0.  1.
         -6    1    1    2    0  502 -0.39740080766E+02  0.50565352072E+02 -0.19521061987E+03  0.26864905538E+03  0.17300000000E+03 0.  1.
<mgrwt>
<rscale>  2 0.18456741E+03</rscale>
<asrwt>0</asrwt>
<pdfrwt beam="1">  1       21 0.68058967E-02 0.18456741E+03</pdfrwt>
<pdfrwt beam="2">  1       21 0.20993058E+00 0.18456741E+03</pdfrwt>
<totfact> 0.18563613E+04</totfact>
</mgrwt>
</event>
<event>
 4    2  0.3992997E+000  0.1905837E+03  0.7546771E-02  0.1157936E+00
         21   -1    0    0  501  502  0.00000000000E+00  0.00000000000E+00  0.48405519969E+03  0.48405519969E+03  0.00000000000E+00 0.  1.
         21   -1    0    0  502  503 -0.00000000000E+00 -0.00000000000E+00 -0.85330664222E+02  0.85330664222E+02  0.00000000000E+00 0.  1.
          6    1    1    2  501    0 -0.49292971724E+02 -0.62955173246E+02  0.10048311776E+03  0.21545070864E+03  0.17300000000E+03 0.  1.
         -6    1    1    2    0  503  0.49292971724E+02  0.62955173246E+02  0.29824141771E+03  0.35393515527E+03  0.17300000000E+03 0.  1.
<mgrwt>
<rscale>  2 0.19058371E+03</rscale>
<asrwt>0</asrwt>
<pdfrwt beam="1">  1       21 0.74470030E-01 0.19058371E+03</pdfrwt>
<pdfrwt beam="2">  1       21 0.13127795E-01 0.19058371E+03</pdfrwt>
<totfact> 0.80744115E+04</totfact>
</mgrwt>
</event>
<event>
 4    2  0.3992997E+000  0.1949234E+03  0.7546771E-02  0.1154094E+00
         21   -1    0    0  503  502  0.00000000000E+00  0.00000000000E+00  0.90582268590E+03  0.90582268590E+03  0.00000000000E+00 0. -1.
         21   -1    0    0  501  503 -0.00000000000E+00 -0.00000000000E+00 -0.42273307548E+02  0.42273307548E+02  0.00000000000E+00 0. -1.
          6    1    1    2  501    0 -0.86802289037E+02 -0.23054574999E+02  0.39002780939E+03  0.43602390177E+03  0.17300000000E+03 0. -1.
         -6    1    1    2    0  502  0.86802289037E+02  0.23054574999E+02  0.47352156896E+03  0.51207209168E+03  0.17300000000E+03 0. -1.
<mgrwt>
<rscale>  2 0.19492345E+03</rscale>
<asrwt>0</asrwt>
<pdfrwt beam="1">  1       21 0.13935732E+00 0.19492345E+03</pdfrwt>
<pdfrwt beam="2">  1       21 0.65035865E-02 0.19492345E+03</pdfrwt>
<totfact> 0.62105351E+04</totfact>
</mgrwt>
</event>
<event>
 4    2  0.3992997E+000  0.2007413E+03  0.7546771E-02  0.1149115E+00
         21   -1    0    0  503  502  0.00000000000E+00  0.00000000000E+00  0.35228282030E+02  0.35228282030E+02  0.00000000000E+00 0. -1.
         21   -1    0    0  501  503 -0.00000000000E+00 -0.00000000000E+00 -0.15006219444E+04  0.15006219444E+04  0.00000000000E+00 0. -1.
          6    1    1    2  501    0 -0.36544931096E+02 -0.95039630057E+02 -0.11071159020E+04  0.11251678469E+04  0.17300000000E+03 0. -1.
         -6    1    1    2    0  502  0.36544931096E+02  0.95039630057E+02 -0.35827776038E+03  0.41068237953E+03  0.17300000000E+03 0. -1.
<mgrwt>
<rscale>  2 0.20074128E+03</rscale>
<asrwt>0</asrwt>
<pdfrwt beam="1">  1       21 0.54197344E-02 0.20074128E+03</pdfrwt>
<pdfrwt beam="2">  1       21 0.23086497E+00 0.20074128E+03</pdfrwt>
<totfact> 0.20134239E+04</totfact>
</mgrwt>
</event>
<event>
 4    2  0.3992997E+000  0.1788642E+03  0.7546771E-02  0.1168907E+00
         21   -1    0    0  501  502  0.00000000000E+00  0.00000000000E+00  0.77471653928E+02  0.77471653928E+02  0.00000000000E+00 0. -1.
         21   -1    0    0  502  503 -0.00000000000E+00 -0.00000000000E+00 -0.96535213637E+03  0.96535213637E+03  0.00000000000E+00 0. -1.
          6    1    1    2  501    0 -0.34122896560E+02 -0.29983601516E+02 -0.83836425559E+03  0.85723218178E+03  0.17300000000E+03 0. -1.
         -6    1    1    2    0  503  0.34122896560E+02  0.29983601516E+02 -0.49516226849E+02  0.18559160851E+03  0.17300000000E+03 0. -1.
<mgrwt>
<rscale>  2 0.17886416E+03</rscale>
<asrwt>0</asrwt>
<pdfrwt beam="1">  1       21 0.11918716E-01 0.17886416E+03</pdfrwt>
<pdfrwt beam="2">  1       21 0.14851572E+00 0.17886416E+03</pdfrwt>
<totfact> 0.18398630E+04</totfact>
</mgrwt>
</event>
<event>
 4    2  0.3992997E+000  0.1742559E+03  0.7546771E-02  0.1173481E+00
         21   -1    0    0  501  502  0.00000000000E+00  0.00000000000E+00  0.23806684605E+03  0.23806684605E+03  0.00000000000E+00 0.  1.
         21   -1    0    0  502  503 -0.00000000000E+00 -0.00000000000E+00 -0.18352127529E+03  0.18352127529E+03  0.00000000000E+00 0.  1.
          6    1    1    2  501    0 -0.16930858188E+02  0.12225544375E+02  0.14368613522E+03  0.22585575784E+03  0.17300000000E+03 0.  1.
         -6    1    1    2    0  503  0.16930858188E+02 -0.12225544375E+02 -0.89140564456E+02  0.19573236351E+03  0.17300000000E+03 0.  1.
<mgrwt>
<rscale>  2 0.17425590E+03</rscale>
<asrwt>0</asrwt>
<pdfrwt beam="1">  1       21 0.36625669E-01 0.17425590E+03</pdfrwt>
<pdfrwt beam="2">  1       21 0.28234042E-01 0.17425590E+03</pdfrwt>
<totfact> 0.86828643E+04</totfact>
</mgrwt>
</event>
<event>
 4    2  0.3992997E+000  0.2253496E+03  0.7546771E-02  0.1129956E+00
         21   -1    0    0  501  502  0.00000000000E+00  0.00000000000E+00  0.18294257375E+03  0.18294257375E+03  0.00000000000E+00 0. -1.
         21   -1    0    0  502  503 -0.00000000000E+00 -0.00000000000E+00 -0.28313848806E+03  0.28313848806E+03  0.00000000000E+00 0.  1.
          6    1    1    2  501    0  0.12343532313E+03 -0.74947702103E+02 -0.17465788126E+02  0.22602542070E+03  0.17300000000E+03 0. -1.
         -6    1    1    2    0  503 -0.12343532313E+03  0.74947702103E+02 -0.82730126184E+02  0.24005564110E+03  0.17300000000E+03 0.  1.
<mgrwt>
<rscale>  2 0.22534959E+03</rscale>
<asrwt>0</asrwt>
<pdfrwt beam="1">  1       21 0.28145011E-01 0.22534959E+03</pdfrwt>
<pdfrwt beam="2">  1       21 0.43559767E-01 0.22534959E+03</pdfrwt>
<totfact> 0.60213080E+04</totfact>
</mgrwt>
</event>
<event>
 4    2  0.3992997E+000  0.2088106E+03  0.7546771E-02  0.1142511E+00
         21   -1    0    0  503  502  0.00000000000E+00  0.00000000000E+00  0.28939670584E+03  0.28939670584E+03  0.00000000000E+00 0.  1.
         21   -1    0    0  501  503 -0.00000000000E+00 -0.00000000000E+00 -0.16605639093E+03  0.16605639093E+03  0.00000000000E+00 0.  1.
          6    1    1    2  501    0  0.10437163486E+03  0.52720239229E+02 -0.76611403376E+01  0.20895108245E+03  0.17300000000E+03 0.  1.
         -6    1    1    2    0  502 -0.10437163486E+03 -0.52720239229E+02  0.13100145525E+03  0.24650201432E+03  0.17300000000E+03 0.  1.
<mgrwt>
<rscale>  2 0.20881059E+03</rscale>
<asrwt>0</asrwt>
<pdfrwt beam="1">  1       21 0.44522570E-01 0.20881059E+03</pdfrwt>
<pdfrwt beam="2">  1       21 0.25547137E-01 0.20881059E+03</pdfrwt>
<totfact> 0.69886688E+04</totfact>
</mgrwt>
</event>
<event>
 4    2  0.3992997E+000  0.1780110E+03  0.7546771E-02  0.1169742E+00
         21   -1    0    0  503  502  0.00000000000E+00  0.00000000000E+00  0.30593888208E+03  0.30593888208E+03  0.00000000000E+00 0.  1.
         21   -1    0    0  501  503 -0.00000000000E+00 -0.00000000000E+00 -0.30666441478E+03  0.30666441478E+03  0.00000000000E+00 0.  1.
          6    1    1    2  501    0  0.25077274428E+02  0.33615917505E+02 -0.24962719578E+03  0.30659686312E+03  0.17300000000E+03 0.  1.
         -6    1    1    2    0  502 -0.25077274428E+02 -0.33615917505E+02  0.24890166309E+03  0.30600643374E+03  0.17300000000E+03 0.  1.
<mgrwt>
<rscale>  2 0.17801095E+03</rscale>
<asrwt>0</asrwt>
<pdfrwt beam="1">  1       21 0.47067520E-01 0.17801095E+03</pdfrwt>
<pdfrwt beam="2">  1       21 0.47179141E-01 0.17801095E+03</pdfrwt>
<totfact> 0.18735463E+04</totfact>
</mgrwt>
</event>
<event>
 4    2  0.3992997E+000  0.2329113E+03  0.7546771E-02  0.1124607E+00
         21   -1    0    0  503  502  0.00000000000E+00  0.00000000000E+00  0.73121620271E+02  0.73121620271E+02  0.00000000000E+00 0. -1.
         21   -1    0    0  501  503 -0.00000000000E+00 -0.00000000000E+00 -0.90908098415E+03  0.90908098415E+03  0.00000000000E+00 0.  1.
          6    1    1    2  501    0  0.30618478070E+02 -0.15290910186E+03 -0.62859277188E+03  0.67035554558E+03  0.17300000000E+03 0.  1.
         -6    1    1    2    0  502 -0.30618478070E+02  0.15290910186E+03 -0.20736659200E+03  0.31184705884E+03  0.17300000000E+03 0.  1.
<mgrwt>
<rscale>  2 0.23291132E+03</rscale>
<asrwt>0</asrwt>
<pdfrwt beam="1">  1       21 0.11249481E-01 0.23291132E+03</pdfrwt>
<pdfrwt beam="2">  1       21 0.13985860E+00 0.23291132E+03</pdfrwt>
<totfact> 0.23053827E+04</totfact>
</mgrwt>
</event>
<event>
 4    2  0.3992997E+000  0.2159426E+03  0.7546771E-02  0.1136945E+00
         21   -1    0    0  501  502  0.00000000000E+00  0.00000000000E+00  0.11860156175E+03  0.11860156175E+03  0.00000000000E+00 0.  1.
         21   -1    0    0  502  503 -0.00000000000E+00 -0.00000000000E+00 -0.12004435353E+04  0.12004435353E+04  0.00000000000E+00 0. -1.
          6    1    1    2  501    0 -0.32652805912E+01  0.12919569281E+03 -0.82303312438E-01  0.21594257540E+03  0.17300000000E+03 0.  1.
         -6    1    1    2    0  503  0.32652805912E+01 -0.12919569281E+03 -0.10817596702E+04  0.11031025216E+04  0.17300000000E+03 0. -1.
<mgrwt>
<rscale>  2 0.21594256E+03</rscale>
<asrwt>0</asrwt>
<pdfrwt beam="1">  1       21 0.18246394E-01 0.21594256E+03</pdfrwt>
<pdfrwt beam="2">  1       21 0.18468362E+00 0.21594256E+03</pdfrwt>
<totfact> 0.45380371E+03</totfact>
</mgrwt>
</event>
<event>
 4    2  0.3992997E+000  0.1978369E+03  0.7546771E-02  0.1151577E+00
         21   -1    0    0  501  502  0.00000000000E+00  0.00000000000E+00  0.43083867403E+03  0.43083867403E+03  0.00000000000E+00 0. -1.
         21   -1    0    0  502  503 -0.00000000000E+00 -0.00000000000E+00 -0.13934232153E+04  0.13934232153E+04  0.00000000000E+00 0.  1.
          6    1    1    2  501    0 -0.78338227802E+02  0.55439866278E+02  0.40060420307E+03  0.44679210403E+03  0.17300000000E+03 0. -1.
         -6    1    1    2    0  503  0.78338227802E+02 -0.55439866278E+02 -0.13631887443E+04  0.13774697852E+04  0.17300000000E+03 0.  1.
<mgrwt>
<rscale>  2 0.19783694E+03</rscale>
<asrwt>0</asrwt>
<pdfrwt beam="1">  1       21 0.66282872E-01 0.19783694E+03</pdfrwt>
<pdfrwt beam="2">  1       21 0.21437280E+00 0.19783694E+03</pdfrwt>
<totfact> 0.22602942E+02</totfact>
</mgrwt>
</event>
<event>
 4    2  0.3992997E+000  0.1967121E+03  0.7546771E-02  0.1152543E+00
         21   -1    0    0  501  502  0.00000000000E+00  0.00000000000E+00  0.32703446180E+03  0.32703446180E+03  0.00000000000E+00 0. -1.
         21   -1    0    0  502  503 -0.00000000000E+00 -0.00000000000E+00 -0.12696765145E+03  0.12696765145E+03  0.00000000000E+00 0. -1.
          6    1    1    2  501    0 -0.76527236732E+02  0.53946596340E+02  0.15926570109E+03  0.25310317414E+03  0.17300000000E+03 0. -1.
         -6    1    1    2    0  503  0.76527236732E+02 -0.53946596340E+02  0.40801109260E+02  0.20089893911E+03  0.17300000000E+03 0. -1.
<mgrwt>
<rscale>  2 0.19671211E+03</rscale>
<asrwt>0</asrwt>
<pdfrwt beam="1">  1       21 0.50312994E-01 0.19671211E+03</pdfrwt>
<pdfrwt beam="2">  1       21 0.19533485E-01 0.19671211E+03</pdfrwt>
<totfact> 0.90576303E+04</totfact>
</mgrwt>
</event>
<event>
 4    2  0.3992997E+000  0.1994500E+03  0.7546771E-02  0.1150204E+00
         21   -1    0    0  503  502  0.00000000000E+00  0.00000000000E+00  0.11730529078E+03  0.11730529078E+03  0.00000000000E+00 0.  1.
         21   -1    0    0  501  503 -0.00000000000E+00 -0.00000000000E+00 -0.34370690662E+03  0.34370690662E+03  0.00000000000E+00 0.  1.
          6    1    1    2  501    0 -0.79269153454E+02 -0.59730318890E+02 -0.86565767861E+02  0.21742571570E+03  0.17300000000E+03 0.  1.
         -6    1    1    2    0  502  0.79269153454E+02  0.59730318890E+02 -0.13983584797E+03  0.24358648169E+03  0.17300000000E+03 0.  1.
<mgrwt>
<rscale>  2 0.19945002E+03</rscale>
<asrwt>0</asrwt>
<pdfrwt beam="1">  1       21 0.18046968E-01 0.19945002E+03</pdfrwt>
<pdfrwt beam="2">  1       21 0.52877984E-01 0.19945002E+03</pdfrwt>
<totfact> 0.94428214E+04</totfact>
</mgrwt>
</event>
<event>
 4    2  0.3992997E+000  0.2235098E+03  0.7546771E-02  0.1131293E+00
         21   -1    0    0  503  502  0.00000000000E+00  0.00000000000E+00  0.38451244202E+02  0.38451244202E+02  0.00000000000E+00 0.  1.
         21   -1    0    0  501  503 -0.00000000000E+00 -0.00000000000E+00 -0.13457579029E+04  0.13457579029E+04  0.00000000000E+00 0. -1.
          6    1    1    2  501    0  0.40783474423E+02 -0.13551507996E+03 -0.78235709895E+03  0.81365794961E+03  0.17300000000E+03 0. -1.
         -6    1    1    2    0  502 -0.40783474423E+02  0.13551507996E+03 -0.52494955974E+03  0.57055119749E+03  0.17300000000E+03 0.  1.
<mgrwt>
<rscale>  2 0.22350980E+03</rscale>
<asrwt>0</asrwt>
<pdfrwt beam="1">  1       21 0.59155754E-02 0.22350980E+03</pdfrwt>
<pdfrwt beam="2">  1       21 0.20703970E+00 0.22350980E+03</pdfrwt>
<totfact> 0.23928317E+04</totfact>
</mgrwt>
</event>
<event>
 4    2  0.3992997E+000  0.1835223E+03  0.7546771E-02  0.1164437E+00
         21   -1    0    0  501  502  0.00000000000E+00  0.00000000000E+00  0.55254548620E+03  0.55254548620E+03  0.00000000000E+00 0.  1.
         21   -1    0    0  502  503 -0.00000000000E+00 -0.00000000000E+00 -0.19306989783E+03  0.19306989783E+03  0.00000000000E+00 0.  1.
          6    1    1    2  501    0 -0.42778411894E+02 -0.43834397937E+02  0.48812998204E+03  0.52148952658E+03  0.17300000000E+03 0.  1.
         -6    1    1    2    0  503  0.42778411894E+02  0.43834397937E+02 -0.12865439368E+03  0.22412585745E+03  0.17300000000E+03 0.  1.
<mgrwt>
<rscale>  2 0.18352233E+03</rscale>
<asrwt>0</asrwt>
<pdfrwt beam="1">  1       21 0.85006997E-01 0.18352233E+03</pdfrwt>
<pdfrwt beam="2">  1       21 0.29703061E-01 0.18352233E+03</pdfrwt>
<totfact> 0.13095016E+04</totfact>
</mgrwt>
</event>
<event>
 4    2  0.3992997E+000  0.2019762E+03  0.7546771E-02  0.1148082E+00
         21   -1    0    0  501  502  0.00000000000E+00  0.00000000000E+00  0.54095171800E+03  0.54095171800E+03  0.00000000000E+00 0.  1.
         21   -1    0    0  502  503 -0.00000000000E+00 -0.00000000000E+00 -0.94175592014E+02  0.94175592014E+02  0.00000000000E+00 0.  1.
          6    1    1    2  501    0 -0.56469554772E+02  0.87615975581E+02  0.36513610241E+03  0.41727538038E+03  0.17300000000E+03 0.  1.
         -6    1    1    2    0  503  0.56469554772E+02 -0.87615975581E+02  0.81640023577E+02  0.21785192963E+03  0.17300000000E+03 0.  1.
<mgrwt>
<rscale>  2 0.20197616E+03</rscale>
<asrwt>0</asrwt>
<pdfrwt beam="1">  1       21 0.83223340E-01 0.20197616E+03</pdfrwt>
<pdfrwt beam="2">  1       21 0.14488553E-01 0.20197616E+03</pdfrwt>
<totfact> 0.52296882E+04</totfact>
</mgrwt>
</event>
<event>
 4    2  0.3992997E+000  0.2922725E+03  0.7546771E-02  0.1089169E+00
         21   -1    0    0  503  502  0.00000000000E+00  0.00000000000E+00  0.83889180645E+02  0.83889180645E+02  0.00000000000E+00 0.  1.
         21   -1    0    0  501  503 -0.00000000000E+00 -0.00000000000E+00 -0.17260322198E+04  0.17260322198E+04  0.00000000000E+00 0. -1.
          6    1    1    2  501    0  0.22928848281E+03  0.54046153687E+02 -0.14005589068E+04  0.14307300397E+04  0.17300000000E+03 0. -1.
         -6    1    1    2    0  502 -0.22928848281E+03 -0.54046153687E+02 -0.24158413243E+03  0.37919136082E+03  0.17300000000E+03 0.  1.
<mgrwt>
<rscale>  2 0.29227247E+03</rscale>
<asrwt>0</asrwt>
<pdfrwt beam="1">  1       21 0.12906029E-01 0.29227247E+03</pdfrwt>
<pdfrwt beam="2">  1       21 0.26554338E+00 0.29227247E+03</pdfrwt>
<totfact> 0.25313065E+03</totfact>
</mgrwt>
</event>
<event>
 4    2  0.3992997E+000  0.2181925E+03  0.7546771E-02  0.1135238E+00
         21   -1    0    0  501  502  0.00000000000E+00  0.00000000000E+00  0.87977060766E+03  0.87977060766E+03  0.00000000000E+00 0. -1.
         21   -1    0    0  502  503 -0.00000000000E+00 -0.00000000000E+00 -0.70455952448E+02  0.70455952448E+02  0.00000000000E+00 0.  1.
          6    1    1    2  501    0  0.11006039278E+03 -0.74603461296E+02  0.63347490970E+03  0.66999882665E+03  0.17300000000E+03 0. -1.
         -6    1    1    2    0  503 -0.11006039278E+03  0.74603461296E+02  0.17583974551E+03  0.28022773346E+03  0.17300000000E+03 0.  1.
<mgrwt>
<rscale>  2 0.21819250E+03</rscale>
<asrwt>0</asrwt>
<pdfrwt beam="1">  1       21 0.13534932E+00 0.21819250E+03</pdfrwt>
<pdfrwt beam="2">  1       21 0.10839378E-01 0.21819250E+03</pdfrwt>
<totfact> 0.27034658E+04</totfact>
</mgrwt>
</event>
<event>
 4    2  0.3992997E+000  0.1938620E+03  0.7546771E-02  0.1155023E+00
         21   -1    0    0  501  502  0.00000000000E+00  0.00000000000E+00  0.13062331295E+03  0.13062331295E+03  0.00000000000E+00 0. -1.
         21   -1    0    0  502  503 -0.00000000000E+00 -0.00000000000E+00 -0.28781848666E+03  0.28781848666E+03  0.00000000000E+00 0. -1.
          6    1    1    2  501    0 -0.53101485679E+02  0.69524966471E+02 -0.82535030178E+02  0.21070007107E+03  0.17300000000E+03 0.  1.
         -6    1    1    2    0  503  0.53101485679E+02 -0.69524966471E+02 -0.74660143526E+02  0.20774172854E+03  0.17300000000E+03 0.  1.
<mgrwt>
<rscale>  2 0.19386204E+03</rscale>
<asrwt>0</asrwt>
<pdfrwt beam="1">  1       21 0.20095895E-01 0.19386204E+03</pdfrwt>
<pdfrwt beam="2">  1       21 0.44279767E-01 0.19386204E+03</pdfrwt>
<totfact> 0.11201237E+05</totfact>
</mgrwt>
</event>
<event>
 4    2  0.3992997E+000  0.1923297E+03  0.7546771E-02  0.1156377E+00
         21   -1    0    0  503  502  0.00000000000E+00  0.00000000000E+00  0.10915337016E+03  0.10915337016E+03  0.00000000000E+00 0.  1.
         21   -1    0    0  501  503 -0.00000000000E+00 -0.00000000000E+00 -0.34168110692E+03  0.34168110692E+03  0.00000000000E+00 0.  1.
          6    1    1    2  501    0 -0.55536454891E+02 -0.63066842907E+02 -0.95881675204E+02  0.21490467686E+03  0.17300000000E+03 0.  1.
         -6    1    1    2    0  502  0.55536454891E+02  0.63066842907E+02 -0.13664606155E+03  0.23592980022E+03  0.17300000000E+03 0.  1.
<mgrwt>
<rscale>  2 0.19232973E+03</rscale>
<asrwt>0</asrwt>
<pdfrwt beam="1">  1       21 0.16792826E-01 0.19232973E+03</pdfrwt>
<pdfrwt beam="2">  1       21 0.52566324E-01 0.19232973E+03</pdfrwt>
<totfact> 0.10951123E+05</totfact>
</mgrwt>
</event>
<event>
 4    2  0.3992997E+000  0.1776749E+03  0.7546771E-02  0.1170072E+00
         21   -1    0    0  503  502  0.00000000000E+00  0.00000000000E+00  0.37073375612E+03  0.37073375612E+03  0.00000000000E+00 0.  1.
         21   -1    0    0  501  503 -0.00000000000E+00 -0.00000000000E+00 -0.99381721338E+02  0.99381721338E+02  0.00000000000E+00 0.  1.
          6    1    1    2  501    0 -0.38438261905E+02 -0.12722446884E+02  0.22462363471E+03  0.28639856477E+03  0.17300000000E+03 0.  1.
         -6    1    1    2    0  502  0.38438261905E+02  0.12722446884E+02  0.46728400068E+02  0.18371691268E+03  0.17300000000E+03 0.  1.
<mgrwt>
<rscale>  2 0.17767487E+03</rscale>
<asrwt>0</asrwt>
<pdfrwt beam="1">  1       21 0.57035962E-01 0.17767487E+03</pdfrwt>
<pdfrwt beam="2">  1       21 0.15289496E-01 0.17767487E+03</pdfrwt>
<totfact> 0.11000913E+05</totfact>
</mgrwt>
</event>
<event>
 4    2  0.3992997E+000  0.2045645E+03  0.7546771E-02  0.1145944E+00
         21   -1    0    0  501  502  0.00000000000E+00  0.00000000000E+00  0.27759717898E+03  0.27759717898E+03  0.00000000000E+00 0. -1.
         21   -1    0    0  502  503 -0.00000000000E+00 -0.00000000000E+00 -0.22381957837E+03  0.22381957837E+03  0.00000000000E+00 0. -1.
          6    1    1    2  501    0  0.21630039073E+02  0.10700358554E+03  0.17014070681E+03  0.26607233232E+03  0.17300000000E+03 0. -1.
         -6    1    1    2    0  503 -0.21630039073E+02 -0.10700358554E+03 -0.11636310620E+03  0.23534442503E+03  0.17300000000E+03 0. -1.
<mgrwt>
<rscale>  2 0.20456448E+03</rscale>
<asrwt>0</asrwt>
<pdfrwt beam="1">  1       21 0.42707258E-01 0.20456448E+03</pdfrwt>
<pdfrwt beam="2">  1       21 0.34433781E-01 0.20456448E+03</pdfrwt>
<totfact> 0.42607966E+04</totfact>
</mgrwt>
</event>
<event>
 4    2  0.3992997E+000  0.2119916E+03  0.7546771E-02  0.1139998E+00
         21   -1    0    0  501  502  0.00000000000E+00  0.00000000000E+00  0.39906157495E+03  0.39906157495E+03  0.00000000000E+00 0.  1.
         21   -1    0    0  502  503 -0.00000000000E+00 -0.00000000000E+00 -0.21064583577E+03  0.21064583577E+03  0.00000000000E+00 0.  1.
          6    1    1    2  501    0  0.23930262786E+02  0.12016155901E+03  0.30217544231E+03  0.36912119375E+03  0.17300000000E+03 0.  1.
         -6    1    1    2    0  503 -0.23930262786E+02 -0.12016155901E+03 -0.11375970313E+03  0.24058621697E+03  0.17300000000E+03 0.  1.
<mgrwt>
<rscale>  2 0.21199165E+03</rscale>
<asrwt>0</asrwt>
<pdfrwt beam="1">  1       21 0.61394088E-01 0.21199165E+03</pdfrwt>
<pdfrwt beam="2">  1       21 0.32407052E-01 0.21199165E+03</pdfrwt>
<totfact> 0.22343368E+04</totfact>
</mgrwt>
</event>
<event>
 4    2  0.3992997E+000  0.1875732E+03  0.7546771E-02  0.1160669E+00
         21   -1    0    0  503  502  0.00000000000E+00  0.00000000000E+00  0.30451308782E+03  0.30451308782E+03  0.00000000000E+00 0. -1.
         21   -1    0    0  501  503 -0.00000000000E+00 -0.00000000000E+00 -0.16620786494E+03  0.16620786494E+03  0.00000000000E+00 0.  1.
          6    1    1    2  501    0 -0.66988635245E+02  0.27698841100E+02 -0.60795621862E+02  0.19717964065E+03  0.17300000000E+03 0.  1.
         -6    1    1    2    0  502  0.66988635245E+02 -0.27698841100E+02  0.19910084475E+03  0.27354131211E+03  0.17300000000E+03 0. -1.
<mgrwt>
<rscale>  2 0.18757319E+03</rscale>
<asrwt>0</asrwt>
<pdfrwt beam="1">  1       21 0.46848167E-01 0.18757319E+03</pdfrwt>
<pdfrwt beam="2">  1       21 0.25570441E-01 0.18757319E+03</pdfrwt>
<totfact> 0.63417837E+04</totfact>
</mgrwt>
</event>
<event>
 4    2  0.3992997E+000  0.2030160E+03  0.7546771E-02  0.1147219E+00
         21   -1    0    0  503  502  0.00000000000E+00  0.00000000000E+00  0.11340400302E+04  0.11340400302E+04  0.00000000000E+00 0.  1.
         21   -1    0    0  501  503 -0.00000000000E+00 -0.00000000000E+00 -0.52443872721E+02  0.52443872721E+02  0.00000000000E+00 0. -1.
          6    1    1    2  501    0 -0.27870003635E+01 -0.10620130980E+03  0.86949563497E+03  0.89288193218E+03  0.17300000000E+03 0.  1.
         -6    1    1    2    0  502  0.27870003635E+01  0.10620130980E+03  0.21210052250E+03  0.29360197073E+03  0.17300000000E+03 0. -1.
<mgrwt>
<rscale>  2 0.20301597E+03</rscale>
<asrwt>0</asrwt>
<pdfrwt beam="1">  1       21 0.17446768E+00 0.20301597E+03</pdfrwt>
<pdfrwt beam="2">  1       21 0.80682889E-02 0.20301597E+03</pdfrwt>
<totfact> 0.23314672E+04</totfact>
</mgrwt>
</event>
<event>
 4    2  0.3992997E+000  0.1745015E+03  0.7546771E-02  0.1173233E+00
         21   -1    0    0  503  502  0.00000000000E+00  0.00000000000E+00  0.67229845696E+02  0.67229845696E+02  0.00000000000E+00 0. -1.
         21   -1    0    0  501  503 -0.00000000000E+00 -0.00000000000E+00 -0.92856948990E+03  0.92856948990E+03  0.00000000000E+00 0. -1.
          6    1    1    2  501    0  0.16416725948E+01  0.22783592191E+02 -0.78701513430E+03  0.80612877927E+03  0.17300000000E+03 0. -1.
         -6    1    1    2    0  502 -0.16416725948E+01 -0.22783592191E+02 -0.74324509904E+02  0.18967055632E+03  0.17300000000E+03 0. -1.
<mgrwt>
<rscale>  2 0.17450154E+03</rscale>
<asrwt>0</asrwt>
<pdfrwt beam="1">  1       21 0.10343054E-01 0.17450154E+03</pdfrwt>
<pdfrwt beam="2">  1       21 0.14285683E+00 0.17450154E+03</pdfrwt>
<totfact> 0.26262681E+04</totfact>
</mgrwt>
</event>
<event>
 4    2  0.3992997E+000  0.1777733E+03  0.7546771E-02  0.1169976E+00
         21   -1    0    0  501  502  0.00000000000E+00  0.00000000000E+00  0.68203696795E+03  0.68203696795E+03  0.00000000000E+00 0.  1.
         21   -1    0    0  502  503 -0.00000000000E+00 -0.00000000000E+00 -0.51183360081E+02  0.51183360081E+02  0.00000000000E+00 0.  1.
          6    1    1    2  501    0 -0.36271125571E+02 -0.18941166389E+02  0.42824004446E+03  0.46367326644E+03  0.17300000000E+03 0.  1.
         -6    1    1    2    0  503  0.36271125571E+02  0.18941166389E+02  0.20261356341E+03  0.26954706159E+03  0.17300000000E+03 0.  1.
<mgrwt>
<rscale>  2 0.17777335E+03</rscale>
<asrwt>0</asrwt>
<pdfrwt beam="1">  1       21 0.10492876E+00 0.17777335E+03</pdfrwt>
<pdfrwt beam="2">  1       21 0.78743636E-02 0.17777335E+03</pdfrwt>
<totfact> 0.90849906E+04</totfact>
</mgrwt>
</event>
<event>
 4    2  0.3992997E+000  0.1970229E+03  0.7546771E-02  0.1152275E+00
         21   -1    0    0  501  502  0.00000000000E+00  0.00000000000E+00  0.15722818938E+03  0.15722818938E+03  0.00000000000E+00 0. -1.
         21   -1    0    0  502  503 -0.00000000000E+00 -0.00000000000E+00 -0.94474071225E+03  0.94474071225E+03  0.00000000000E+00 0. -1.
          6    1    1    2  501    0 -0.56395018865E+02  0.75555438856E+02  0.79792145401E+02  0.21256718693E+03  0.17300000000E+03 0. -1.
         -6    1    1    2    0  503  0.56395018865E+02 -0.75555438856E+02 -0.86730466828E+03  0.88940171470E+03  0.17300000000E+03 0. -1.
<mgrwt>
<rscale>  2 0.19702290E+03</rscale>
<asrwt>0</asrwt>
<pdfrwt beam="1">  1       21 0.24188952E-01 0.19702290E+03</pdfrwt>
<pdfrwt beam="2">  1       21 0.14534473E+00 0.19702290E+03</pdfrwt>
<totfact> 0.52174392E+03</totfact>
</mgrwt>
</event>
<event>
 4    2  0.3992997E+000  0.2482827E+03  0.7546771E-02  0.1114395E+00
         21   -1    0    0  503  502  0.00000000000E+00  0.00000000000E+00  0.86728592401E+03  0.86728592401E+03  0.00000000000E+00 0.  1.
         21   -1    0    0  501  503 -0.00000000000E+00 -0.00000000000E+00 -0.30465278469E+03  0.30465278469E+03  0.00000000000E+00 0. -1.
          6    1    1    2  501    0  0.62975982807E+02 -0.16658121747E+03 -0.23176454170E+03  0.33964551994E+03  0.17300000000E+03 0. -1.
         -6    1    1    2    0  502 -0.62975982807E+02  0.16658121747E+03  0.79439768103E+03  0.83229318876E+03  0.17300000000E+03 0.  1.
<mgrwt>
<rscale>  2 0.24828265E+03</rscale>
<asrwt>0</asrwt>
<pdfrwt beam="1">  1       21 0.13342860E+00 0.24828265E+03</pdfrwt>
<pdfrwt beam="2">  1       21 0.46869660E-01 0.24828265E+03</pdfrwt>
<totfact> 0.16809475E+03</totfact>
</mgrwt>
</event>
<event>
 4    2  0.3992997E+000  0.2064629E+03  0.7546771E-02  0.1144398E+00
         21   -1    0    0  501  502  0.00000000000E+00  0.00000000000E+00  0.52665787928E+03  0.52665787928E+03  0.00000000000E+00 0.  1.
         21   -1    0    0  502  503 -0.00000000000E+00 -0.00000000000E+00 -0.16790835321E+03  0.16790835321E+03  0.00000000000E+00 0.  1.
          6    1    1    2  501    0 -0.84897954024E+02 -0.74096424317E+02  0.42931241124E+03  0.47637809473E+03  0.17300000000E+03 0.  1.
         -6    1    1    2    0  503  0.84897954024E+02  0.74096424317E+02 -0.70562885170E+02  0.21818813776E+03  0.17300000000E+03 0.  1.
<mgrwt>
<rscale>  2 0.20646293E+03</rscale>
<asrwt>0</asrwt>
<pdfrwt beam="1">  1       21 0.81024288E-01 0.20646293E+03</pdfrwt>
<pdfrwt beam="2">  1       21 0.25832055E-01 0.20646293E+03</pdfrwt>
<totfact> 0.18851996E+04</totfact>
</mgrwt>
</event>
<event>
 4    2  0.3992997E+000  0.1753699E+03  0.7546771E-02  0.1172361E+00
         21   -1    0    0  501  502  0.00000000000E+00  0.00000000000E+00  0.85687018917E+03  0.85687018917E+03  0.00000000000E+00 0. -1.
         21   -1    0    0  502  503 -0.00000000000E+00 -0.00000000000E+00 -0.54130260817E+02  0.54130260817E+02  0.00000000000E+00 0. -1.
          6    1    1    2  501    0  0.26031392633E+02  0.12164696262E+02  0.66577068284E+03  0.68848036673E+03  0.17300000000E+03 0. -1.
         -6    1    1    2    0  503 -0.26031392633E+02 -0.12164696262E+02  0.13696924551E+03  0.22252008326E+03  0.17300000000E+03 0. -1.
<mgrwt>
<rscale>  2 0.17536993E+03</rscale>
<asrwt>0</asrwt>
<pdfrwt beam="1">  1       21 0.13182617E+00 0.17536993E+03</pdfrwt>
<pdfrwt beam="2">  1       21 0.83277330E-02 0.17536993E+03</pdfrwt>
<totfact> 0.47134289E+04</totfact>
</mgrwt>
</event>
<event>
 4    2  0.3992997E+000  0.1946372E+03  0.7546771E-02  0.1154344E+00
         21   -1    0    0  503  502  0.00000000000E+00  0.00000000000E+00  0.14238045805E+04  0.14238045805E+04  0.00000000000E+00 0. -1.
         21   -1    0    0  501  503 -0.00000000000E+00 -0.00000000000E+00 -0.60602232418E+02  0.60602232418E+02  0.00000000000E+00 0. -1.
          6    1    1    2  501    0  0.33169274827E+02 -0.82791422019E+02  0.12571533331E+03  0.23170663646E+03  0.17300000000E+03 0. -1.
         -6    1    1    2    0  502 -0.33169274827E+02  0.82791422019E+02  0.12374870147E+04  0.12527001764E+04  0.17300000000E+03 0. -1.
<mgrwt>
<rscale>  2 0.19463715E+03</rscale>
<asrwt>0</asrwt>
<pdfrwt beam="1">  1       21 0.21904683E+00 0.19463715E+03</pdfrwt>
<pdfrwt beam="2">  1       21 0.93234215E-02 0.19463715E+03</pdfrwt>
<totfact> 0.93446878E+03</totfact>
</mgrwt>
</event>
<event>
 4    2  0.3992997E+000  0.1870376E+03  0.7546771E-02  0.1161161E+00
         21   -1    0    0  501  502  0.00000000000E+00  0.00000000000E+00  0.20784694610E+03  0.20784694610E+03  0.00000000000E+00 0. -1.
         21   -1    0    0  502  503 -0.00000000000E+00 -0.00000000000E+00 -0.54147351093E+03  0.54147351093E+03  0.00000000000E+00 0. -1.
          6    1    1    2  501    0 -0.69836034189E+02  0.13304003122E+02  0.14421336201E+03  0.23617908873E+03  0.17300000000E+03 0. -1.
         -6    1    1    2    0  503  0.69836034189E+02 -0.13304003122E+02 -0.47783992684E+03  0.51314136830E+03  0.17300000000E+03 0. -1.
<mgrwt>
<rscale>  2 0.18703761E+03</rscale>
<asrwt>0</asrwt>
<pdfrwt beam="1">  1       21 0.31976454E-01 0.18703761E+03</pdfrwt>
<pdfrwt beam="2">  1       21 0.83303616E-01 0.18703761E+03</pdfrwt>
<totfact> 0.11846078E+04</totfact>
</mgrwt>
</event>
<event>
 4    2  0.3992997E+000  0.2168763E+03  0.7546771E-02  0.1136234E+00
         21   -1    0    0  501  502  0.00000000000E+00  0.00000000000E+00  0.18677629033E+03  0.18677629033E+03  0.00000000000E+00 0. -1.
         21   -1    0    0  502  503 -0.00000000000E+00 -0.00000000000E+00 -0.25247929513E+03  0.25247929513E+03  0.00000000000E+00 0. -1.
          6    1    1    2  501    0  0.29583442217E+02  0.12740153266E+03 -0.21688914005E+02  0.21795811425E+03  0.17300000000E+03 0. -1.
         -6    1    1    2    0  503 -0.29583442217E+02 -0.12740153266E+03 -0.44014090795E+02  0.22129747121E+03  0.17300000000E+03 0. -1.
<mgrwt>
<rscale>  2 0.21687630E+03</rscale>
<asrwt>0</asrwt>
<pdfrwt beam="1">  1       21 0.28734814E-01 0.21687630E+03</pdfrwt>
<pdfrwt beam="2">  1       21 0.38842968E-01 0.21687630E+03</pdfrwt>
<totfact> 0.73282444E+04</totfact>
</mgrwt>
</event>
<event>
 4    2  0.3992997E+000  0.2088314E+03  0.7546771E-02  0.1142495E+00
         21   -1    0    0  501  502  0.00000000000E+00  0.00000000000E+00  0.25455003399E+03  0.25455003399E+03  0.00000000000E+00 0.  1.
         21   -1    0    0  502  503 -0.00000000000E+00 -0.00000000000E+00 -0.36861183089E+03  0.36861183089E+03  0.00000000000E+00 0. -1.
          6    1    1    2  501    0 -0.42240704771E+02 -0.10907461893E+03  0.17091737220E+03  0.26985792143E+03  0.17300000000E+03 0.  1.
         -6    1    1    2    0  503  0.42240704771E+02  0.10907461893E+03 -0.28497916910E+03  0.35330394345E+03  0.17300000000E+03 0. -1.
<mgrwt>
<rscale>  2 0.20883139E+03</rscale>
<asrwt>0</asrwt>
<pdfrwt beam="1">  1       21 0.39161544E-01 0.20883139E+03</pdfrwt>
<pdfrwt beam="2">  1       21 0.56709512E-01 0.20883139E+03</pdfrwt>
<totfact> 0.18196525E+04</totfact>
</mgrwt>
</event>
<event>
 4    2  0.3992997E+000  0.1974224E+03  0.7546771E-02  0.1151932E+00
         21   -1    0    0  503  502  0.00000000000E+00  0.00000000000E+00  0.13567512236E+03  0.13567512236E+03  0.00000000000E+00 0. -1.
         21   -1    0    0  501  503 -0.00000000000E+00 -0.00000000000E+00 -0.32023679378E+03  0.32023679378E+03  0.00000000000E+00 0. -1.
          6    1    1    2  501    0 -0.93027270542E+02 -0.19812518073E+02 -0.19142819515E+02  0.19834832108E+03  0.17300000000E+03 0. -1.
         -6    1    1    2    0  502  0.93027270542E+02  0.19812518073E+02 -0.16541885190E+03  0.25756359506E+03  0.17300000000E+03 0. -1.
<mgrwt>
<rscale>  2 0.19742241E+03</rscale>
<asrwt>0</asrwt>
<pdfrwt beam="1">  1       21 0.20873096E-01 0.19742241E+03</pdfrwt>
<pdfrwt beam="2">  1       21 0.49267199E-01 0.19742241E+03</pdfrwt>
<totfact> 0.83563165E+04</totfact>
</mgrwt>
</event>
<event>
 4    2  0.3992997E+000  0.1793524E+03  0.7546771E-02  0.1168431E+00
         21   -1    0    0  501  502  0.00000000000E+00  0.00000000000E+00  0.43884061609E+03  0.43884061609E+03  0.00000000000E+00 0.  1.
         21   -1    0    0  502  503 -0.00000000000E+00 -0.00000000000E+00 -0.26864896972E+03  0.26864896972E+03  0.00000000000E+00 0.  1.
          6    1    1    2  501    0  0.47276739393E+02  0.17832489176E+01  0.38674516917E+03  0.42630868621E+03  0.17300000000E+03 0.  1.
         -6    1    1    2    0  503 -0.47276739393E+02 -0.17832489176E+01 -0.21655352280E+03  0.28118089960E+03  0.17300000000E+03 0.  1.
<mgrwt>
<rscale>  2 0.17935236E+03</rscale>
<asrwt>0</asrwt>
<pdfrwt beam="1">  1       21 0.67513941E-01 0.17935236E+03</pdfrwt>
<pdfrwt beam="2">  1       21 0.41330611E-01 0.17935236E+03</pdfrwt>
<totfact> 0.11411803E+04</totfact>
</mgrwt>
</event>
<event>
 4    2  0.3992997E+000  0.1847049E+03  0.7546771E-02  0.1163326E+00
         21   -1    0    0  503  502  0.00000000000E+00  0.00000000000E+00  0.15555729767E+03  0.15555729767E+03  0.00000000000E+00 0.  1.
         21   -1    0    0  501  503 -0.00000000000E+00 -0.00000000000E+00 -0.47747187503E+03  0.47747187503E+03  0.00000000000E+00 0.  1.
          6    1    1    2  501    0 -0.33307430506E+02  0.55475443720E+02 -0.39369268023E+03  0.43486760773E+03  0.17300000000E+03 0.  1.
         -6    1    1    2    0  502  0.33307430506E+02 -0.55475443720E+02  0.71778102872E+02  0.19816156498E+03  0.17300000000E+03 0.  1.
<mgrwt>
<rscale>  2 0.18470493E+03</rscale>
<asrwt>0</asrwt>
<pdfrwt beam="1">  1       21 0.23931892E-01 0.18470493E+03</pdfrwt>
<pdfrwt beam="2">  1       21 0.73457210E-01 0.18470493E+03</pdfrwt>
<totfact> 0.27532829E+04</totfact>
</mgrwt>
</event>
<event>
 4    2  0.3992997E+000  0.1742978E+03  0.7546771E-02  0.1173439E+00
         21   -1    0    0  501  502  0.00000000000E+00  0.00000000000E+00  0.33971705356E+03  0.33971705356E+03  0.00000000000E+00 0.  1.
         21   -1    0    0  502  503 -0.00000000000E+00 -0.00000000000E+00 -0.11300837760E+03  0.11300837760E+03  0.00000000000E+00 0.  1.
          6    1    1    2  501    0 -0.17079300578E+02  0.12610861483E+02  0.21675848895E+03  0.27814380968E+03  0.17300000000E+03 0.  1.
         -6    1    1    2    0  503  0.17079300578E+02 -0.12610861483E+02  0.99501870127E+01  0.17458162148E+03  0.17300000000E+03 0.  1.
<mgrwt>
<rscale>  2 0.17429784E+03</rscale>
<asrwt>0</asrwt>
<pdfrwt beam="1">  1       21 0.52264162E-01 0.17429784E+03</pdfrwt>
<pdfrwt beam="2">  1       21 0.17385904E-01 0.17429784E+03</pdfrwt>
<totfact> 0.10469077E+05</totfact>
</mgrwt>
</event>
<event>
 4    2  0.3992997E+000  0.1993318E+03  0.7546771E-02  0.1150304E+00
         21   -1    0    0  503  502  0.00000000000E+00  0.00000000000E+00  0.23133229030E+03  0.23133229030E+03  0.00000000000E+00 0. -1.
         21   -1    0    0  501  503 -0.00000000000E+00 -0.00000000000E+00 -0.37670070357E+03  0.37670070357E+03  0.00000000000E+00 0.  1.
          6    1    1    2  501    0  0.93467963495E+02 -0.32678888996E+02 -0.29692528453E+03  0.35762801146E+03  0.17300000000E+03 0.  1.
         -6    1    1    2    0  502 -0.93467963495E+02  0.32678888996E+02  0.15155687126E+03  0.25040498240E+03  0.17300000000E+03 0. -1.
<mgrwt>
<rscale>  2 0.19933181E+03</rscale>
<asrwt>0</asrwt>
<pdfrwt beam="1">  1       21 0.35589583E-01 0.19933181E+03</pdfrwt>
<pdfrwt beam="2">  1       21 0.57953955E-01 0.19933181E+03</pdfrwt>
<totfact> 0.21162225E+04</totfact>
</mgrwt>
</event>
<event>
 4    2  0.3992997E+000  0.2237182E+03  0.7546771E-02  0.1131141E+00
         21   -1    0    0  501  502  0.00000000000E+00  0.00000000000E+00  0.12460312594E+03  0.12460312594E+03  0.00000000000E+00 0.  1.
         21   -1    0    0  502  503 -0.00000000000E+00 -0.00000000000E+00 -0.41595137375E+03  0.41595137375E+03  0.00000000000E+00 0.  1.
          6    1    1    2  501    0  0.11909124116E+03  0.77059090366E+02 -0.95599988711E+02  0.24328827545E+03  0.17300000000E+03 0.  1.
         -6    1    1    2    0  503 -0.11909124116E+03 -0.77059090366E+02 -0.19574825911E+03  0.29726622424E+03  0.17300000000E+03 0.  1.
<mgrwt>
<rscale>  2 0.22371819E+03</rscale>
<asrwt>0</asrwt>
<pdfrwt beam="1">  1       21 0.19169712E-01 0.22371819E+03</pdfrwt>
<pdfrwt beam="2">  1       21 0.63992518E-01 0.22371819E+03</pdfrwt>
<totfact> 0.55523982E+04</totfact>
</mgrwt>
</event>
<event>
 4    2  0.3992997E+000  0.2707819E+03  0.7546771E-02  0.1100833E+00
         21   -1    0    0  503  502  0.00000000000E+00  0.00000000000E+00  0.38245500062E+03  0.38245500062E+03  0.00000000000E+00 0.  1.
         21   -1    0    0  501  503 -0.00000000000E+00 -0.00000000000E+00 -0.21903458297E+03  0.21903458297E+03  0.00000000000E+00 0.  1.
          6    1    1    2  501    0  0.14917778466E+03 -0.14539550027E+03 -0.24500512769E+02  0.27188809842E+03  0.17300000000E+03 0.  1.
         -6    1    1    2    0  502 -0.14917778466E+03  0.14539550027E+03  0.18792093042E+03  0.32960148517E+03  0.17300000000E+03 0.  1.
<mgrwt>
<rscale>  2 0.27078195E+03</rscale>
<asrwt>0</asrwt>
<pdfrwt beam="1">  1       21 0.58839231E-01 0.27078195E+03</pdfrwt>
<pdfrwt beam="2">  1       21 0.33697628E-01 0.27078195E+03</pdfrwt>
<totfact> 0.22021189E+04</totfact>
</mgrwt>
</event>
<event>
 4    2  0.3992997E+000  0.1786466E+03  0.7546771E-02  0.1169119E+00
         21   -1    0    0  503  502  0.00000000000E+00  0.00000000000E+00  0.99468783366E+03  0.99468783366E+03  0.00000000000E+00 0. -1.
         21   -1    0    0  501  503 -0.00000000000E+00 -0.00000000000E+00 -0.33395547015E+02  0.33395547015E+02  0.00000000000E+00 0. -1.
          6    1    1    2  501    0 -0.43323596309E+02  0.10425130760E+02  0.37881733317E+03  0.41882835297E+03  0.17300000000E+03 0. -1.
         -6    1    1    2    0  502  0.43323596309E+02 -0.10425130760E+02  0.58247495348E+03  0.60925502771E+03  0.17300000000E+03 0. -1.
<mgrwt>
<rscale>  2 0.17864663E+03</rscale>
<asrwt>0</asrwt>
<pdfrwt beam="1">  1       21 0.15302888E+00 0.17864663E+03</pdfrwt>
<pdfrwt beam="2">  1       21 0.51377772E-02 0.17864663E+03</pdfrwt>
<totfact> 0.73365136E+04</totfact>
</mgrwt>
</event>
<event>
 4    2  0.3992997E+000  0.1797694E+03  0.7546771E-02  0.1168026E+00
         21   -1    0    0  501  502  0.00000000000E+00  0.00000000000E+00  0.21844349892E+03  0.21844349892E+03  0.00000000000E+00 0.  1.
         21   -1    0    0  502  503 -0.00000000000E+00 -0.00000000000E+00 -0.18299036884E+03  0.18299036884E+03  0.00000000000E+00 0.  1.
          6    1    1    2  501    0  0.46205272658E+02 -0.15909251046E+02  0.10556852265E+03  0.20847480535E+03  0.17300000000E+03 0.  1.
         -6    1    1    2    0  503 -0.46205272658E+02  0.15909251046E+02 -0.70115392574E+02  0.19295906241E+03  0.17300000000E+03 0.  1.
<mgrwt>
<rscale>  2 0.17976938E+03</rscale>
<asrwt>0</asrwt>
<pdfrwt beam="1">  1       21 0.33606692E-01 0.17976938E+03</pdfrwt>
<pdfrwt beam="2">  1       21 0.28152364E-01 0.17976938E+03</pdfrwt>
<totfact> 0.10331458E+05</totfact>
</mgrwt>
</event>
<event>
 4    2  0.3992997E+000  0.2007698E+03  0.7546771E-02  0.1149091E+00
         21   -1    0    0  503  502  0.00000000000E+00  0.00000000000E+00  0.70483866367E+03  0.70483866367E+03  0.00000000000E+00 0.  1.
         21   -1    0    0  501  503 -0.00000000000E+00 -0.00000000000E+00 -0.14632970019E+03  0.14632970019E+03  0.00000000000E+00 0.  1.
          6    1    1    2  501    0  0.98427539990E+02  0.26297354645E+02 -0.52914396253E+02  0.20762578072E+03  0.17300000000E+03 0.  1.
         -6    1    1    2    0  502 -0.98427539990E+02 -0.26297354645E+02  0.61142335973E+03  0.64354258314E+03  0.17300000000E+03 0.  1.
<mgrwt>
<rscale>  2 0.20076985E+03</rscale>
<asrwt>0</asrwt>
<pdfrwt beam="1">  1       21 0.10843672E+00 0.20076985E+03</pdfrwt>
<pdfrwt beam="2">  1       21 0.22512262E-01 0.20076985E+03</pdfrwt>
<totfact> 0.12426599E+04</totfact>
</mgrwt>
</event>
<event>
 4    2  0.3992997E+000  0.1975280E+03  0.7546771E-02  0.1151842E+00
         21   -1    0    0  501  502  0.00000000000E+00  0.00000000000E+00  0.24994832505E+03  0.24994832505E+03  0.00000000000E+00 0.  1.
         21   -1    0    0  502  503 -0.00000000000E+00 -0.00000000000E+00 -0.16892475562E+03  0.16892475562E+03  0.00000000000E+00 0. -1.
          6    1    1    2  501    0 -0.36179444479E+02 -0.88200677207E+02  0.98215627834E+02  0.22059832550E+03  0.17300000000E+03 0.  1.
         -6    1    1    2    0  503  0.36179444479E+02  0.88200677207E+02 -0.17192058402E+02  0.19827475516E+03  0.17300000000E+03 0. -1.
<mgrwt>
<rscale>  2 0.19752800E+03</rscale>
<asrwt>0</asrwt>
<pdfrwt beam="1">  1       21 0.38453589E-01 0.19752800E+03</pdfrwt>
<pdfrwt beam="2">  1       21 0.25988424E-01 0.19752800E+03</pdfrwt>
<totfact> 0.91533594E+04</totfact>
</mgrwt>
</event>
<event>
 4    2  0.3992997E+000  0.1863969E+03  0.7546771E-02  0.1161752E+00
         21   -1    0    0  503  502  0.00000000000E+00  0.00000000000E+00  0.44106825922E+03  0.44106825922E+03  0.00000000000E+00 0. -1.
         21   -1    0    0  501  503 -0.00000000000E+00 -0.00000000000E+00 -0.92755351511E+02  0.92755351511E+02  0.00000000000E+00 0. -1.
          6    1    1    2  501    0 -0.40382618072E+02 -0.56427350547E+02  0.70521826630E+02  0.19929156972E+03  0.17300000000E+03 0. -1.
         -6    1    1    2    0  502  0.40382618072E+02  0.56427350547E+02  0.27779108108E+03  0.33453204100E+03  0.17300000000E+03 0. -1.
<mgrwt>
<rscale>  2 0.18639689E+03</rscale>
<asrwt>0</asrwt>
<pdfrwt beam="1">  1       21 0.67856654E-01 0.18639689E+03</pdfrwt>
<pdfrwt beam="2">  1       21 0.14270054E-01 0.18639689E+03</pdfrwt>
<totfact> 0.85432597E+04</totfact>
</mgrwt>
</event>
<event>
 4    2  0.3992997E+000  0.2142405E+03  0.7546771E-02  0.1138251E+00
         21   -1    0    0  503  502  0.00000000000E+00  0.00000000000E+00  0.88813170133E+03  0.88813170133E+03  0.00000000000E+00 0. -1.
         21   -1    0    0  501  503 -0.00000000000E+00 -0.00000000000E+00 -0.52218338481E+02  0.52218338481E+02  0.00000000000E+00 0. -1.
          6    1    1    2  501    0  0.38904543911E+02 -0.12023492501E+03  0.37023511188E+03  0.42775347900E+03  0.17300000000E+03 0. -1.
         -6    1    1    2    0  502 -0.38904543911E+02  0.12023492501E+03  0.46567825097E+03  0.51259656081E+03  0.17300000000E+03 0. -1.
<mgrwt>
<rscale>  2 0.21424052E+03</rscale>
<asrwt>0</asrwt>
<pdfrwt beam="1">  1       21 0.13663564E+00 0.21424052E+03</pdfrwt>
<pdfrwt beam="2">  1       21 0.80335912E-02 0.21424052E+03</pdfrwt>
<totfact> 0.44846291E+04</totfact>
</mgrwt>
</event>
<event>
 4    2  0.3992997E+000  0.3220574E+03  0.7546771E-02  0.1074706E+00
         21   -1    0    0  503  502  0.00000000000E+00  0.00000000000E+00  0.22761549933E+03  0.22761549933E+03  0.00000000000E+00 0. -1.
         21   -1    0    0  501  503 -0.00000000000E+00 -0.00000000000E+00 -0.50948783405E+03  0.50948783405E+03  0.00000000000E+00 0. -1.
          6    1    1    2  501    0 -0.26932638629E+03 -0.35429916749E+02 -0.21170090316E+02  0.32275246564E+03  0.17300000000E+03 0. -1.
         -6    1    1    2    0  502  0.26932638629E+03  0.35429916749E+02 -0.26070224440E+03  0.41435086773E+03  0.17300000000E+03 0. -1.
<mgrwt>
<rscale>  2 0.32205742E+03</rscale>
<asrwt>0</asrwt>
<pdfrwt beam="1">  1       21 0.35017770E-01 0.32205742E+03</pdfrwt>
<pdfrwt beam="2">  1       21 0.78382742E-01 0.32205742E+03</pdfrwt>
<totfact> 0.10560071E+04</totfact>
</mgrwt>
</event>
<event>
 4    2  0.3992997E+000  0.2378535E+03  0.7546771E-02  0.1121231E+00
         21   -1    0    0  503  502  0.00000000000E+00  0.00000000000E+00  0.74647395269E+02  0.74647395269E+02  0.00000000000E+00 0. -1.
         21   -1    0    0  501  503 -0.00000000000E+00 -0.00000000000E+00 -0.76156196980E+03  0.76156196980E+03  0.00000000000E+00 0. -1.
          6    1    1    2  501    0 -0.10998617701E+03 -0.12061639037E+03 -0.37250241593E+03  0.44196416442E+03  0.17300000000E+03 0. -1.
         -6    1    1    2    0  502  0.10998617701E+03  0.12061639037E+03 -0.31441215860E+03  0.39424520065E+03  0.17300000000E+03 0. -1.
<mgrwt>
<rscale>  2 0.23785347E+03</rscale>
<asrwt>0</asrwt>
<pdfrwt beam="1">  1       21 0.11484215E-01 0.23785347E+03</pdfrwt>
<pdfrwt beam="2">  1       21 0.11716338E+00 0.23785347E+03</pdfrwt>
<totfact> 0.34708458E+04</totfact>
</mgrwt>
</event>
<event>
 4    2  0.3992997E+000  0.3794467E+03  0.7546771E-02  0.1051138E+00
         21   -1    0    0  503  502  0.00000000000E+00  0.00000000000E+00  0.28208565629E+03  0.28208565629E+03  0.00000000000E+00 0. -1.
         21   -1    0    0  501  503 -0.00000000000E+00 -0.00000000000E+00 -0.58981676126E+03  0.58981676126E+03  0.00000000000E+00 0.  1.
          6    1    1    2  501    0  0.42712463654E+02  0.33500216580E+03 -0.31382266538E+03  0.49240681448E+03  0.17300000000E+03 0.  1.
         -6    1    1    2    0  502 -0.42712463654E+02 -0.33500216580E+03  0.60915604085E+01  0.37949560307E+03  0.17300000000E+03 0.  1.
<mgrwt>
<rscale>  2 0.37944671E+03</rscale>
<asrwt>0</asrwt>
<pdfrwt beam="1">  1       21 0.43397794E-01 0.37944671E+03</pdfrwt>
<pdfrwt beam="2">  1       21 0.90741039E-01 0.37944671E+03</pdfrwt>
<totfact> 0.47381599E+03</totfact>
</mgrwt>
</event>
<event>
 4    2  0.3992997E+000  0.2080717E+03  0.7546771E-02  0.1143102E+00
         21   -1    0    0  501  502  0.00000000000E+00  0.00000000000E+00  0.37218340767E+03  0.37218340767E+03  0.00000000000E+00 0. -1.
         21   -1    0    0  502  503 -0.00000000000E+00 -0.00000000000E+00 -0.11645294084E+03  0.11645294084E+03  0.00000000000E+00 0.  1.
          6    1    1    2  501    0 -0.20905180321E+02  0.11370058426E+03  0.11973438404E+03  0.24006285041E+03  0.17300000000E+03 0. -1.
         -6    1    1    2    0  503  0.20905180321E+02 -0.11370058426E+03  0.13599608279E+03  0.24857349810E+03  0.17300000000E+03 0.  1.
<mgrwt>
<rscale>  2 0.20807174E+03</rscale>
<asrwt>0</asrwt>
<pdfrwt beam="1">  1       21 0.57258985E-01 0.20807174E+03</pdfrwt>
<pdfrwt beam="2">  1       21 0.17915837E-01 0.20807174E+03</pdfrwt>
<totfact> 0.80565195E+04</totfact>
</mgrwt>
</event>
<event>
 4    2  0.3992997E+000  0.1978137E+03  0.7546771E-02  0.1151597E+00
         21   -1    0    0  503  502  0.00000000000E+00  0.00000000000E+00  0.38285852425E+03  0.38285852425E+03  0.00000000000E+00 0. -1.
         21   -1    0    0  501  503 -0.00000000000E+00 -0.00000000000E+00 -0.15029713961E+03  0.15029713961E+03  0.00000000000E+00 0. -1.
          6    1    1    2  501    0 -0.95846123077E+02  0.38449711230E+01 -0.34513034441E+02  0.20080192394E+03  0.17300000000E+03 0. -1.
         -6    1    1    2    0  502  0.95846123077E+02 -0.38449711230E+01  0.26707441908E+03  0.33235373992E+03  0.17300000000E+03 0. -1.
<mgrwt>
<rscale>  2 0.19781371E+03</rscale>
<asrwt>0</asrwt>
<pdfrwt beam="1">  1       21 0.58901311E-01 0.19781371E+03</pdfrwt>
<pdfrwt beam="2">  1       21 0.23122637E-01 0.19781371E+03</pdfrwt>
<totfact> 0.47248205E+04</totfact>
</mgrwt>
</event>
<event>
 4    2  0.3992997E+000  0.2199650E+03  0.7546771E-02  0.1133909E+00
         21   -1    0    0  503  502  0.00000000000E+00  0.00000000000E+00  0.12297632157E+03  0.12297632157E+03  0.00000000000E+00 0.  1.
         21   -1    0    0  501  503 -0.00000000000E+00 -0.00000000000E+00 -0.85357442754E+03  0.85357442754E+03  0.00000000000E+00 0.  1.
          6    1    1    2  501    0 -0.12494721321E+03  0.53327405960E+02 -0.72379426799E+03  0.75648050912E+03  0.17300000000E+03 0.  1.
         -6    1    1    2    0  502  0.12494721321E+03 -0.53327405960E+02 -0.68038379749E+01  0.22007023998E+03  0.17300000000E+03 0.  1.
<mgrwt>
<rscale>  2 0.21996504E+03</rscale>
<asrwt>0</asrwt>
<pdfrwt beam="1">  1       21 0.18919434E-01 0.21996504E+03</pdfrwt>
<pdfrwt beam="2">  1       21 0.13131915E+00 0.21996504E+03</pdfrwt>
<totfact> 0.10581912E+04</totfact>
</mgrwt>
</event>
<event>
 4    2  0.3992997E+000  0.2046478E+03  0.7546771E-02  0.1145876E+00
         21   -1    0    0  503  502  0.00000000000E+00  0.00000000000E+00  0.15473455887E+04  0.15473455887E+04  0.00000000000E+00 0. -1.
         21   -1    0    0  501  503 -0.00000000000E+00 -0.00000000000E+00 -0.28580402534E+02  0.28580402534E+02  0.00000000000E+00 0. -1.
          6    1    1    2  501    0  0.28753762429E+02 -0.10547488761E+03  0.94075316598E+03  0.96275503118E+03  0.17300000000E+03 0. -1.
         -6    1    1    2    0  502 -0.28753762429E+02  0.10547488761E+03  0.57801202020E+03  0.61317096006E+03  0.17300000000E+03 0. -1.
<mgrwt>
<rscale>  2 0.20464782E+03</rscale>
<asrwt>0</asrwt>
<pdfrwt beam="1">  1       21 0.23805310E+00 0.20464782E+03</pdfrwt>
<pdfrwt beam="2">  1       21 0.43969862E-02 0.20464782E+03</pdfrwt>
<totfact> 0.25902739E+04</totfact>
</mgrwt>
</event>
<event>
 4    2  0.3992997E+000  0.1746992E+03  0.7546771E-02  0.1173034E+00
         21   -1    0    0  503  502  0.00000000000E+00  0.00000000000E+00  0.72176417768E+03  0.72176417768E+03  0.00000000000E+00 0.  1.
         21   -1    0    0  501  503 -0.00000000000E+00 -0.00000000000E+00 -0.10376228453E+03  0.10376228453E+03  0.00000000000E+00 0.  1.
          6    1    1    2  501    0 -0.12903312402E+02 -0.20599239308E+02 -0.87145897910E+01  0.17491646065E+03  0.17300000000E+03 0.  1.
         -6    1    1    2    0  502  0.12903312402E+02  0.20599239308E+02  0.62671648294E+03  0.65061000156E+03  0.17300000000E+03 0.  1.
<mgrwt>
<rscale>  2 0.17469924E+03</rscale>
<asrwt>0</asrwt>
<pdfrwt beam="1">  1       21 0.11104064E+00 0.17469924E+03</pdfrwt>
<pdfrwt beam="2">  1       21 0.15963429E-01 0.17469924E+03</pdfrwt>
<totfact> 0.22602877E+04</totfact>
</mgrwt>
</event>
<event>
 4    2  0.3992997E+000  0.2449812E+03  0.7546771E-02  0.1116518E+00
         21   -1    0    0  503  502  0.00000000000E+00  0.00000000000E+00  0.54323326539E+02  0.54323326539E+02  0.00000000000E+00 0. -1.
         21   -1    0    0  501  503 -0.00000000000E+00 -0.00000000000E+00 -0.11131948017E+04  0.11131948017E+04  0.00000000000E+00 0.  1.
          6    1    1    2  501    0  0.94501918378E+02  0.14545166077E+03 -0.47870806351E+03  0.53775199513E+03  0.17300000000E+03 0. -1.
         -6    1    1    2    0  502 -0.94501918378E+02 -0.14545166077E+03 -0.58016341168E+03  0.62976613314E+03  0.17300000000E+03 0.  1.
<mgrwt>
<rscale>  2 0.24498122E+03</rscale>
<asrwt>0</asrwt>
<pdfrwt beam="1">  1       21 0.83574352E-02 0.24498122E+03</pdfrwt>
<pdfrwt beam="2">  1       21 0.17126073E+00 0.24498122E+03</pdfrwt>
<totfact> 0.22489286E+04</totfact>
</mgrwt>
</event>
<event>
 4    2  0.3992997E+000  0.2895949E+03  0.7546771E-02  0.1090561E+00
         21   -1    0    0  501  502  0.00000000000E+00  0.00000000000E+00  0.96011616586E+02  0.96011616586E+02  0.00000000000E+00 0.  1.
         21   -1    0    0  502  503 -0.00000000000E+00 -0.00000000000E+00 -0.11845478305E+04  0.11845478305E+04  0.00000000000E+00 0.  1.
          6    1    1    2  501    0  0.16526217781E+03 -0.16317059918E+03 -0.21616247064E+03  0.36137438421E+03  0.17300000000E+03 0.  1.
         -6    1    1    2    0  503 -0.16526217781E+03  0.16317059918E+03 -0.87237374322E+03  0.91918506282E+03  0.17300000000E+03 0.  1.
<mgrwt>
<rscale>  2 0.28959494E+03</rscale>
<asrwt>0</asrwt>
<pdfrwt beam="1">  1       21 0.14771017E-01 0.28959494E+03</pdfrwt>
<pdfrwt beam="2">  1       21 0.18223813E+00 0.28959494E+03</pdfrwt>
<totfact> 0.66169131E+03</totfact>
</mgrwt>
</event>
<event>
 4    2  0.3992997E+000  0.1749557E+03  0.7546771E-02  0.1172776E+00
         21   -1    0    0  503  502  0.00000000000E+00  0.00000000000E+00  0.16920450079E+03  0.16920450079E+03  0.00000000000E+00 0. -1.
         21   -1    0    0  501  503 -0.00000000000E+00 -0.00000000000E+00 -0.34190899021E+03  0.34190899021E+03  0.00000000000E+00 0. -1.
          6    1    1    2  501    0  0.13798549425E+02  0.22138008855E+02 -0.26172171319E+03  0.31481382841E+03  0.17300000000E+03 0. -1.
         -6    1    1    2    0  502 -0.13798549425E+02 -0.22138008855E+02  0.89017223776E+02  0.19629966259E+03  0.17300000000E+03 0. -1.
<mgrwt>
<rscale>  2 0.17495568E+03</rscale>
<asrwt>0</asrwt>
<pdfrwt beam="1">  1       21 0.26031462E-01 0.17495568E+03</pdfrwt>
<pdfrwt beam="2">  1       21 0.52601383E-01 0.17495568E+03</pdfrwt>
<totfact> 0.48450265E+04</totfact>
</mgrwt>
</event>
<event>
 4    2  0.3992997E+000  0.2152704E+03  0.7546771E-02  0.1137459E+00
         21   -1    0    0  501  502  0.00000000000E+00  0.00000000000E+00  0.20275282369E+03  0.20275282369E+03  0.00000000000E+00 0.  1.
         21   -1    0    0  502  503 -0.00000000000E+00 -0.00000000000E+00 -0.22863159789E+03  0.22863159789E+03  0.00000000000E+00 0.  1.
          6    1    1    2  501    0 -0.11164050476E+03  0.62839186136E+02 -0.91462064071E+01  0.21546465768E+03  0.17300000000E+03 0.  1.
         -6    1    1    2    0  503  0.11164050476E+03 -0.62839186136E+02 -0.16732567787E+02  0.21591976390E+03  0.17300000000E+03 0.  1.
<mgrwt>
<rscale>  2 0.21527045E+03</rscale>
<asrwt>0</asrwt>
<pdfrwt beam="1">  1       21 0.31192742E-01 0.21527045E+03</pdfrwt>
<pdfrwt beam="2">  1       21 0.35174092E-01 0.21527045E+03</pdfrwt>
<totfact> 0.76206377E+04</totfact>
</mgrwt>
</event>
<event>
 4    2  0.3992997E+000  0.1930714E+03  0.7546771E-02  0.1155720E+00
         21   -1    0    0  501  502  0.00000000000E+00  0.00000000000E+00  0.16980760665E+04  0.16980760665E+04  0.00000000000E+00 0.  1.
         21   -1    0    0  502  503 -0.00000000000E+00 -0.00000000000E+00 -0.60248097584E+02  0.60248097584E+02  0.00000000000E+00 0.  1.
          6    1    1    2  501    0 -0.26139715907E+02 -0.81635129667E+02  0.15198415827E+04  0.15320558135E+04  0.17300000000E+03 0.  1.
         -6    1    1    2    0  503  0.26139715907E+02  0.81635129667E+02  0.11798638619E+03  0.22626835057E+03  0.17300000000E+03 0.  1.
<mgrwt>
<rscale>  2 0.19307144E+03</rscale>
<asrwt>0</asrwt>
<pdfrwt beam="1">  1       21 0.26124244E+00 0.19307144E+03</pdfrwt>
<pdfrwt beam="2">  1       21 0.92689394E-02 0.19307144E+03</pdfrwt>
<totfact> 0.52987444E+03</totfact>
</mgrwt>
</event>
<event>
 4    2  0.3992997E+000  0.2193846E+03  0.7546771E-02  0.1134343E+00
         21   -1    0    0  501  502  0.00000000000E+00  0.00000000000E+00  0.32528261844E+03  0.32528261844E+03  0.00000000000E+00 0. -1.
         21   -1    0    0  502  503 -0.00000000000E+00 -0.00000000000E+00 -0.25456338127E+03  0.25456338127E+03  0.00000000000E+00 0.  1.
          6    1    1    2  501    0 -0.12708736505E+03  0.45270116950E+02  0.22297368635E+03  0.31280480599E+03  0.17300000000E+03 0. -1.
         -6    1    1    2    0  503  0.12708736505E+03 -0.45270116950E+02 -0.15225444918E+03  0.26704119371E+03  0.17300000000E+03 0.  1.
<mgrwt>
<rscale>  2 0.21938455E+03</rscale>
<asrwt>0</asrwt>
<pdfrwt beam="1">  1       21 0.50043480E-01 0.21938455E+03</pdfrwt>
<pdfrwt beam="2">  1       21 0.39163597E-01 0.21938455E+03</pdfrwt>
<totfact> 0.23550899E+04</totfact>
</mgrwt>
</event>
<event>
 4    2  0.3992997E+000  0.2416139E+03  0.7546771E-02  0.1118722E+00
         21   -1    0    0  503  502  0.00000000000E+00  0.00000000000E+00  0.69249135278E+03  0.69249135278E+03  0.00000000000E+00 0.  1.
         21   -1    0    0  501  503 -0.00000000000E+00 -0.00000000000E+00 -0.96295202854E+02  0.96295202854E+02  0.00000000000E+00 0. -1.
          6    1    1    2  501    0  0.27683569421E+02 -0.16637877785E+03  0.43729327701E+03  0.49960252987E+03  0.17300000000E+03 0. -1.
         -6    1    1    2    0  502 -0.27683569421E+02  0.16637877785E+03  0.15890287292E+03  0.28918402576E+03  0.17300000000E+03 0.  1.
<mgrwt>
<rscale>  2 0.24161390E+03</rscale>
<asrwt>0</asrwt>
<pdfrwt beam="1">  1       21 0.10653713E+00 0.24161390E+03</pdfrwt>
<pdfrwt beam="2">  1       21 0.14814647E-01 0.24161390E+03</pdfrwt>
<totfact> 0.27564818E+04</totfact>
</mgrwt>
</event>
<event>
 4    2  0.3992997E+000  0.1946428E+03  0.7546771E-02  0.1154339E+00
         21   -1    0    0  503  502  0.00000000000E+00  0.00000000000E+00  0.11785853176E+03  0.11785853176E+03  0.00000000000E+00 0. -1.
         21   -1    0    0  501  503 -0.00000000000E+00 -0.00000000000E+00 -0.37162866352E+03  0.37162866352E+03  0.00000000000E+00 0. -1.
          6    1    1    2  501    0 -0.19788644985E+02 -0.86978349798E+02 -0.36954156627E+02  0.19811974535E+03  0.17300000000E+03 0.  1.
         -6    1    1    2    0  502  0.19788644985E+02  0.86978349798E+02 -0.21681597514E+03  0.29136744993E+03  0.17300000000E+03 0.  1.
<mgrwt>
<rscale>  2 0.19464281E+03</rscale>
<asrwt>0</asrwt>
<pdfrwt beam="1">  1       21 0.18132082E-01 0.19464281E+03</pdfrwt>
<pdfrwt beam="2">  1       21 0.57173640E-01 0.19464281E+03</pdfrwt>
<totfact> 0.79510478E+04</totfact>
</mgrwt>
</event>
<event>
 4    2  0.3992997E+000  0.3244029E+03  0.7546771E-02  0.1073641E+00
         21   -1    0    0  501  502  0.00000000000E+00  0.00000000000E+00  0.31873378702E+03  0.31873378702E+03  0.00000000000E+00 0. -1.
         21   -1    0    0  502  503 -0.00000000000E+00 -0.00000000000E+00 -0.58593366987E+03  0.58593366987E+03  0.00000000000E+00 0.  1.
          6    1    1    2  501    0 -0.23621169768E+03 -0.13968643951E+03  0.16524897598E+03  0.36406660320E+03  0.17300000000E+03 0. -1.
         -6    1    1    2    0  503  0.23621169768E+03  0.13968643951E+03 -0.43244885883E+03  0.54060085369E+03  0.17300000000E+03 0.  1.
<mgrwt>
<rscale>  2 0.32440294E+03</rscale>
<asrwt>0</asrwt>
<pdfrwt beam="1">  1       21 0.49035968E-01 0.32440294E+03</pdfrwt>
<pdfrwt beam="2">  1       21 0.90143640E-01 0.32440294E+03</pdfrwt>
<totfact> 0.38197023E+03</totfact>
</mgrwt>
</event>
<event>
 4    2  0.3992997E+000  0.2300184E+03  0.7546771E-02  0.1126627E+00
         21   -1    0    0  503  502  0.00000000000E+00  0.00000000000E+00  0.89890187645E+03  0.89890187645E+03  0.00000000000E+00 0. -1.
         21   -1    0    0  501  503 -0.00000000000E+00 -0.00000000000E+00 -0.23841169153E+03  0.23841169153E+03  0.00000000000E+00 0.  1.
          6    1    1    2  501    0  0.15069219565E+03 -0.16472635304E+02 -0.16324948272E+03  0.28206183569E+03  0.17300000000E+03 0.  1.
         -6    1    1    2    0  502 -0.15069219565E+03  0.16472635304E+02  0.82373966764E+03  0.85525173229E+03  0.17300000000E+03 0. -1.
<mgrwt>
<rscale>  2 0.23001845E+03</rscale>
<asrwt>0</asrwt>
<pdfrwt beam="1">  1       21 0.13829259E+00 0.23001845E+03</pdfrwt>
<pdfrwt beam="2">  1       21 0.36678722E-01 0.23001845E+03</pdfrwt>
<totfact> 0.25642686E+03</totfact>
</mgrwt>
</event>
<event>
 4    2  0.3992997E+000  0.2106931E+03  0.7546771E-02  0.1141018E+00
         21   -1    0    0  501  502  0.00000000000E+00  0.00000000000E+00  0.97132038241E+03  0.97132038241E+03  0.00000000000E+00 0. -1.
         21   -1    0    0  502  503 -0.00000000000E+00 -0.00000000000E+00 -0.47368077282E+02  0.47368077282E+02  0.00000000000E+00 0. -1.
          6    1    1    2  501    0  0.96787295531E+02  0.71377794026E+02  0.55749250118E+03  0.59597773358E+03  0.17300000000E+03 0. -1.
         -6    1    1    2    0  503 -0.96787295531E+02 -0.71377794026E+02  0.36645980394E+03  0.42271072610E+03  0.17300000000E+03 0. -1.
<mgrwt>
<rscale>  2 0.21069307E+03</rscale>
<asrwt>0</asrwt>
<pdfrwt beam="1">  1       21 0.14943389E+00 0.21069307E+03</pdfrwt>
<pdfrwt beam="2">  1       21 0.72873972E-02 0.21069307E+03</pdfrwt>
<totfact> 0.42153086E+04</totfact>
</mgrwt>
</event>
<event>
 4    2  0.3992997E+000  0.1780348E+03  0.7546771E-02  0.1169719E+00
         21   -1    0    0  501  502  0.00000000000E+00  0.00000000000E+00  0.32431365631E+03  0.32431365631E+03  0.00000000000E+00 0. -1.
         21   -1    0    0  502  503 -0.00000000000E+00 -0.00000000000E+00 -0.28021229604E+03  0.28021229604E+03  0.00000000000E+00 0. -1.
          6    1    1    2  501    0  0.38571160269E+02  0.16722670505E+02  0.26597061426E+03  0.32005741635E+03  0.17300000000E+03 0. -1.
         -6    1    1    2    0  503 -0.38571160269E+02 -0.16722670505E+02 -0.22186925398E+03  0.28446853600E+03  0.17300000000E+03 0. -1.
<mgrwt>
<rscale>  2 0.17803478E+03</rscale>
<asrwt>0</asrwt>
<pdfrwt beam="1">  1       21 0.49894408E-01 0.17803478E+03</pdfrwt>
<pdfrwt beam="2">  1       21 0.43109584E-01 0.17803478E+03</pdfrwt>
<totfact> 0.19975891E+04</totfact>
</mgrwt>
</event>
<event>
 4    2  0.3992997E+000  0.2517784E+03  0.7546771E-02  0.1112186E+00
         21   -1    0    0  503  502  0.00000000000E+00  0.00000000000E+00  0.19140854170E+03  0.19140854170E+03  0.00000000000E+00 0.  1.
         21   -1    0    0  501  503 -0.00000000000E+00 -0.00000000000E+00 -0.54510829807E+03  0.54510829807E+03  0.00000000000E+00 0. -1.
          6    1    1    2  501    0  0.75726832274E+02  0.16651963913E+03 -0.40754403274E+03  0.47904538612E+03  0.17300000000E+03 0. -1.
         -6    1    1    2    0  502 -0.75726832274E+02 -0.16651963913E+03  0.53844276367E+02  0.25747145364E+03  0.17300000000E+03 0.  1.
<mgrwt>
<rscale>  2 0.25177836E+03</rscale>
<asrwt>0</asrwt>
<pdfrwt beam="1">  1       21 0.29447468E-01 0.25177836E+03</pdfrwt>
<pdfrwt beam="2">  1       21 0.83862815E-01 0.25177836E+03</pdfrwt>
<totfact> 0.13179742E+04</totfact>
</mgrwt>
</event>
<event>
 4    2  0.3992997E+000  0.2984603E+03  0.7546771E-02  0.1086013E+00
         21   -1    0    0  501  502  0.00000000000E+00  0.00000000000E+00  0.72381044155E+02  0.72381044155E+02  0.00000000000E+00 0. -1.
         21   -1    0    0  502  503 -0.00000000000E+00 -0.00000000000E+00 -0.12308982620E+04  0.12308982620E+04  0.00000000000E+00 0.  1.
          6    1    1    2  501    0 -0.24187240927E+03 -0.25441897991E+02 -0.58775578744E+03  0.65919300528E+03  0.17300000000E+03 0.  1.
         -6    1    1    2    0  503  0.24187240927E+03  0.25441897991E+02 -0.57076143041E+03  0.64408630088E+03  0.17300000000E+03 0. -1.
<mgrwt>
<rscale>  2 0.29846030E+03</rscale>
<asrwt>0</asrwt>
<pdfrwt beam="1">  1       21 0.11135545E-01 0.29846030E+03</pdfrwt>
<pdfrwt beam="2">  1       21 0.18936896E+00 0.29846030E+03</pdfrwt>
<totfact> 0.98361002E+03</totfact>
</mgrwt>
</event>
<event>
 4    2  0.3992997E+000  0.1910755E+03  0.7546771E-02  0.1157495E+00
         21   -1    0    0  501  502  0.00000000000E+00  0.00000000000E+00  0.41217321179E+03  0.41217321179E+03  0.00000000000E+00 0. -1.
         21   -1    0    0  502  503 -0.00000000000E+00 -0.00000000000E+00 -0.13103087732E+03  0.13103087732E+03  0.00000000000E+00 0.  1.
          6    1    1    2  501    0 -0.18024167126E+02 -0.79094691737E+02  0.29516610972E+03  0.35161466577E+03  0.17300000000E+03 0. -1.
         -6    1    1    2    0  503  0.18024167126E+02  0.79094691737E+02 -0.14023775257E+02  0.19158942334E+03  0.17300000000E+03 0.  1.
<mgrwt>
<rscale>  2 0.19107548E+03</rscale>
<asrwt>0</asrwt>
<pdfrwt beam="1">  1       21 0.63411263E-01 0.19107548E+03</pdfrwt>
<pdfrwt beam="2">  1       21 0.20158597E-01 0.19107548E+03</pdfrwt>
<totfact> 0.52349955E+04</totfact>
</mgrwt>
</event>
<event>
 4    2  0.3992997E+000  0.1757512E+03  0.7546771E-02  0.1171980E+00
         21   -1    0    0  503  502  0.00000000000E+00  0.00000000000E+00  0.10537417061E+03  0.10537417061E+03  0.00000000000E+00 0. -1.
         21   -1    0    0  501  503 -0.00000000000E+00 -0.00000000000E+00 -0.29414326867E+03  0.29414326867E+03  0.00000000000E+00 0. -1.
          6    1    1    2  501    0  0.35437429819E+01 -0.30772442647E+02 -0.10609951798E+03  0.20529395767E+03  0.17300000000E+03 0. -1.
         -6    1    1    2    0  502 -0.35437429819E+01  0.30772442647E+02 -0.82669580076E+02  0.19422348162E+03  0.17300000000E+03 0. -1.
<mgrwt>
<rscale>  2 0.17575125E+03</rscale>
<asrwt>0</asrwt>
<pdfrwt beam="1">  1       21 0.16211411E-01 0.17575125E+03</pdfrwt>
<pdfrwt beam="2">  1       21 0.45252809E-01 0.17575125E+03</pdfrwt>
<totfact> 0.16031545E+05</totfact>
</mgrwt>
</event>
<event>
 4    2  0.3992997E+000  0.1814514E+03  0.7546771E-02  0.1166406E+00
         21   -1    0    0  503  502  0.00000000000E+00  0.00000000000E+00  0.36000467678E+02  0.36000467678E+02  0.00000000000E+00 0. -1.
         21   -1    0    0  501  503 -0.00000000000E+00 -0.00000000000E+00 -0.11020962599E+04  0.11020962599E+04  0.00000000000E+00 0. -1.
          6    1    1    2  501    0  0.21300704156E+02  0.50417155526E+02 -0.76778478106E+03  0.78893477525E+03  0.17300000000E+03 0. -1.
         -6    1    1    2    0  502 -0.21300704156E+02 -0.50417155526E+02 -0.29831101111E+03  0.34916195228E+03  0.17300000000E+03 0. -1.
<mgrwt>
<rscale>  2 0.18145140E+03</rscale>
<asrwt>0</asrwt>
<pdfrwt beam="1">  1       21 0.55385326E-02 0.18145140E+03</pdfrwt>
<pdfrwt beam="2">  1       21 0.16955330E+00 0.18145140E+03</pdfrwt>
<totfact> 0.48913263E+04</totfact>
</mgrwt>
</event>
<event>
 4    2  0.3992997E+000  0.2925041E+03  0.7546771E-02  0.1089049E+00
         21   -1    0    0  501  502  0.00000000000E+00  0.00000000000E+00  0.11510440004E+04  0.11510440004E+04  0.00000000000E+00 0.  1.
         21   -1    0    0  502  503 -0.00000000000E+00 -0.00000000000E+00 -0.74734672397E+02  0.74734672397E+02  0.00000000000E+00 0. -1.
          6    1    1    2  501    0 -0.23414958815E+03  0.28348538149E+02  0.49313106052E+03  0.57335583375E+03  0.17300000000E+03 0. -1.
         -6    1    1    2    0  503  0.23414958815E+03 -0.28348538149E+02  0.58317826747E+03  0.65242283904E+03  0.17300000000E+03 0. -1.
<mgrwt>
<rscale>  2 0.29250414E+03</rscale>
<asrwt>0</asrwt>
<pdfrwt beam="1">  1       21 0.17708368E+00 0.29250414E+03</pdfrwt>
<pdfrwt beam="2">  1       21 0.11497643E-01 0.29250414E+03</pdfrwt>
<totfact> 0.11310660E+04</totfact>
</mgrwt>
</event>
<event>
 4    2  0.3992997E+000  0.1907574E+03  0.7546771E-02  0.1157780E+00
         21   -1    0    0  501  502  0.00000000000E+00  0.00000000000E+00  0.14269132927E+03  0.14269132927E+03  0.00000000000E+00 0. -1.
         21   -1    0    0  502  503 -0.00000000000E+00 -0.00000000000E+00 -0.25698046629E+03  0.25698046629E+03  0.00000000000E+00 0. -1.
          6    1    1    2  501    0 -0.23164088493E+02 -0.76959854768E+02 -0.39666903227E+02  0.19483802877E+03  0.17300000000E+03 0.  1.
         -6    1    1    2    0  503  0.23164088493E+02  0.76959854768E+02 -0.74622233802E+02  0.20483376679E+03  0.17300000000E+03 0.  1.
<mgrwt>
<rscale>  2 0.19075742E+03</rscale>
<asrwt>0</asrwt>
<pdfrwt beam="1">  1       21 0.21952513E-01 0.19075742E+03</pdfrwt>
<pdfrwt beam="2">  1       21 0.39535456E-01 0.19075742E+03</pdfrwt>
<totfact> 0.11961776E+05</totfact>
</mgrwt>
</event>
<event>
 4    2  0.3992997E+000  0.1874122E+03  0.7546771E-02  0.1160816E+00
         21   -1    0    0  501  502  0.00000000000E+00  0.00000000000E+00  0.79909162014E+02  0.79909162014E+02  0.00000000000E+00 0.  1.
         21   -1    0    0  502  503 -0.00000000000E+00 -0.00000000000E+00 -0.48882613921E+03  0.48882613921E+03  0.00000000000E+00 0.  1.
          6    1    1    2  501    0  0.54833277851E+02 -0.46772218380E+02 -0.11416377849E+03  0.21944634217E+03  0.17300000000E+03 0.  1.
         -6    1    1    2    0  503 -0.54833277851E+02  0.46772218380E+02 -0.29475319871E+03  0.34928895906E+03  0.17300000000E+03 0.  1.
<mgrwt>
<rscale>  2 0.18741219E+03</rscale>
<asrwt>0</asrwt>
<pdfrwt beam="1">  1       21 0.12293718E-01 0.18741219E+03</pdfrwt>
<pdfrwt beam="2">  1       21 0.75204020E-01 0.18741219E+03</pdfrwt>
<totfact> 0.88994489E+04</totfact>
</mgrwt>
</event>
<event>
 4    2  0.3992997E+000  0.2938559E+03  0.7546771E-02  0.1088353E+00
         21   -1    0    0  503  502  0.00000000000E+00  0.00000000000E+00  0.71453790647E+03  0.71453790647E+03  0.00000000000E+00 0.  1.
         21   -1    0    0  501  503 -0.00000000000E+00 -0.00000000000E+00 -0.13994487548E+03  0.13994487548E+03  0.00000000000E+00 0.  1.
          6    1    1    2  501    0 -0.19039007896E+03 -0.14203490768E+03  0.12947619352E+03  0.32111583868E+03  0.17300000000E+03 0.  1.
         -6    1    1    2    0  502  0.19039007896E+03  0.14203490768E+03  0.44511683747E+03  0.53336694326E+03  0.17300000000E+03 0.  1.
<mgrwt>
<rscale>  2 0.29385591E+03</rscale>
<asrwt>0</asrwt>
<pdfrwt beam="1">  1       21 0.10992891E+00 0.29385591E+03</pdfrwt>
<pdfrwt beam="2">  1       21 0.21529981E-01 0.29385591E+03</pdfrwt>
<totfact> 0.12415585E+04</totfact>
</mgrwt>
</event>
<event>
 4    2  0.3992997E+000  0.1858352E+03  0.7546771E-02  0.1162272E+00
         21   -1    0    0  501  502  0.00000000000E+00  0.00000000000E+00  0.15126663913E+03  0.15126663913E+03  0.00000000000E+00 0. -1.
         21   -1    0    0  502  503 -0.00000000000E+00 -0.00000000000E+00 -0.22993143097E+03  0.22993143097E+03  0.00000000000E+00 0. -1.
          6    1    1    2  501    0  0.48183268457E+02 -0.47792034181E+02 -0.23294880003E+02  0.18728950137E+03  0.17300000000E+03 0. -1.
         -6    1    1    2    0  503 -0.48183268457E+02  0.47792034181E+02 -0.55369911836E+02  0.19390856873E+03  0.17300000000E+03 0. -1.
<mgrwt>
<rscale>  2 0.18583516E+03</rscale>
<asrwt>0</asrwt>
<pdfrwt beam="1">  1       21 0.23271791E-01 0.18583516E+03</pdfrwt>
<pdfrwt beam="2">  1       21 0.35374066E-01 0.18583516E+03</pdfrwt>
<totfact> 0.13404796E+05</totfact>
</mgrwt>
</event>
<event>
 4    2  0.3992997E+000  0.1816208E+03  0.7546771E-02  0.1166244E+00
         21   -1    0    0  503  502  0.00000000000E+00  0.00000000000E+00  0.92696239255E+03  0.92696239255E+03  0.00000000000E+00 0.  1.
         21   -1    0    0  501  503 -0.00000000000E+00 -0.00000000000E+00 -0.35887823807E+02  0.35887823807E+02  0.00000000000E+00 0.  1.
          6    1    1    2  501    0  0.11216717109E+02  0.54141470992E+02  0.40132644240E+03  0.44050996243E+03  0.17300000000E+03 0.  1.
         -6    1    1    2    0  502 -0.11216717109E+02 -0.54141470992E+02  0.48974812634E+03  0.52234025393E+03  0.17300000000E+03 0.  1.
<mgrwt>
<rscale>  2 0.18162080E+03</rscale>
<asrwt>0</asrwt>
<pdfrwt beam="1">  1       21 0.14260958E+00 0.18162080E+03</pdfrwt>
<pdfrwt beam="2">  1       21 0.55212044E-02 0.18162080E+03</pdfrwt>
<totfact> 0.77947819E+04</totfact>
</mgrwt>
</event>
<event>
 4    2  0.3992997E+000  0.2048002E+03  0.7546771E-02  0.1145751E+00
         21   -1    0    0  501  502  0.00000000000E+00  0.00000000000E+00  0.66175289537E+03  0.66175289537E+03  0.00000000000E+00 0. -1.
         21   -1    0    0  502  503 -0.00000000000E+00 -0.00000000000E+00 -0.79519564893E+02  0.79519564893E+02  0.00000000000E+00 0. -1.
          6    1    1    2  501    0  0.10956548920E+03  0.30869917127E+01  0.45808411992E+03  0.50178101485E+03  0.17300000000E+03 0. -1.
         -6    1    1    2    0  503 -0.10956548920E+03 -0.30869917127E+01  0.12414921055E+03  0.23949144541E+03  0.17300000000E+03 0. -1.
<mgrwt>
<rscale>  2 0.20480021E+03</rscale>
<asrwt>0</asrwt>
<pdfrwt beam="1">  1       21 0.10180813E+00 0.20480021E+03</pdfrwt>
<pdfrwt beam="2">  1       21 0.12233780E-01 0.20480021E+03</pdfrwt>
<totfact> 0.44310156E+04</totfact>
</mgrwt>
</event>
<event>
 4    2  0.3992997E+000  0.2031911E+03  0.7546771E-02  0.1147074E+00
         21   -1    0    0  501  502  0.00000000000E+00  0.00000000000E+00  0.27792445409E+03  0.27792445409E+03  0.00000000000E+00 0. -1.
         21   -1    0    0  502  503 -0.00000000000E+00 -0.00000000000E+00 -0.18123182720E+03  0.18123182720E+03  0.00000000000E+00 0.  1.
          6    1    1    2  501    0 -0.10622929030E+03  0.85424119909E+01  0.14583261132E+03  0.25010754776E+03  0.17300000000E+03 0. -1.
         -6    1    1    2    0  503  0.10622929030E+03 -0.85424119909E+01 -0.49139984426E+02  0.20904873353E+03  0.17300000000E+03 0.  1.
<mgrwt>
<rscale>  2 0.20319113E+03</rscale>
<asrwt>0</asrwt>
<pdfrwt beam="1">  1       21 0.42757608E-01 0.20319113E+03</pdfrwt>
<pdfrwt beam="2">  1       21 0.27881820E-01 0.20319113E+03</pdfrwt>
<totfact> 0.64315230E+04</totfact>
</mgrwt>
</event>
<event>
 4    2  0.3992997E+000  0.1910649E+03  0.7546771E-02  0.1157504E+00
         21   -1    0    0  501  502  0.00000000000E+00  0.00000000000E+00  0.11997309530E+04  0.11997309530E+04  0.00000000000E+00 0. -1.
         21   -1    0    0  502  503 -0.00000000000E+00 -0.00000000000E+00 -0.30647378740E+02  0.30647378740E+02  0.00000000000E+00 0. -1.
          6    1    1    2  501    0  0.77014516547E+02  0.25408205662E+02  0.63655092357E+03  0.66460732088E+03  0.17300000000E+03 0. -1.
         -6    1    1    2    0  503 -0.77014516547E+02 -0.25408205662E+02  0.53253265066E+03  0.56577101083E+03  0.17300000000E+03 0. -1.
<mgrwt>
<rscale>  2 0.19106494E+03</rscale>
<asrwt>0</asrwt>
<pdfrwt beam="1">  1       21 0.18457396E+00 0.19106494E+03</pdfrwt>
<pdfrwt beam="2">  1       21 0.47149823E-02 0.19106494E+03</pdfrwt>
<totfact> 0.50397644E+04</totfact>
</mgrwt>
</event>
<event>
 4    2  0.3992997E+000  0.1798208E+03  0.7546771E-02  0.1167977E+00
         21   -1    0    0  503  502  0.00000000000E+00  0.00000000000E+00  0.30464274726E+03  0.30464274726E+03  0.00000000000E+00 0.  1.
         21   -1    0    0  501  503 -0.00000000000E+00 -0.00000000000E+00 -0.11391221075E+03  0.11391221075E+03  0.00000000000E+00 0.  1.
          6    1    1    2  501    0  0.87836565327E+01 -0.48263572165E+02  0.40708819336E+02  0.18437118265E+03  0.17300000000E+03 0.  1.
         -6    1    1    2    0  502 -0.87836565327E+01  0.48263572165E+02  0.15002171717E+03  0.23418377537E+03  0.17300000000E+03 0.  1.
<mgrwt>
<rscale>  2 0.17982081E+03</rscale>
<asrwt>0</asrwt>
<pdfrwt beam="1">  1       21 0.46868115E-01 0.17982081E+03</pdfrwt>
<pdfrwt beam="2">  1       21 0.17524956E-01 0.17982081E+03</pdfrwt>
<totfact> 0.12911375E+05</totfact>
</mgrwt>
</event>
<event>
 4    2  0.3992997E+000  0.2090139E+03  0.7546771E-02  0.1142349E+00
         21   -1    0    0  503  502  0.00000000000E+00  0.00000000000E+00  0.82456839831E+02  0.82456839831E+02  0.00000000000E+00 0. -1.
         21   -1    0    0  501  503 -0.00000000000E+00 -0.00000000000E+00 -0.53006426831E+03  0.53006426831E+03  0.00000000000E+00 0. -1.
          6    1    1    2  501    0 -0.80988165512E+02 -0.84845264426E+02 -0.23045622240E+03  0.31112195727E+03  0.17300000000E+03 0. -1.
         -6    1    1    2    0  502  0.80988165512E+02  0.84845264426E+02 -0.21715120608E+03  0.30139915088E+03  0.17300000000E+03 0. -1.
<mgrwt>
<rscale>  2 0.20901388E+03</rscale>
<asrwt>0</asrwt>
<pdfrwt beam="1">  1       21 0.12685667E-01 0.20901388E+03</pdfrwt>
<pdfrwt beam="2">  1       21 0.81548350E-01 0.20901388E+03</pdfrwt>
<totfact> 0.69430470E+04</totfact>
</mgrwt>
</event>
<event>
 4    2  0.3992997E+000  0.2292286E+03  0.7546771E-02  0.1127184E+00
         21   -1    0    0  501  502  0.00000000000E+00  0.00000000000E+00  0.78829073123E+03  0.78829073123E+03  0.00000000000E+00 0. -1.
         21   -1    0    0  502  503 -0.00000000000E+00 -0.00000000000E+00 -0.66657906409E+02  0.66657906409E+02  0.00000000000E+00 0. -1.
          6    1    1    2  501    0 -0.91879444406E+02 -0.11905853910E+03  0.36043537513E+03  0.42715269832E+03  0.17300000000E+03 0. -1.
         -6    1    1    2    0  503  0.91879444406E+02  0.11905853910E+03  0.36119744969E+03  0.42779593932E+03  0.17300000000E+03 0. -1.
<mgrwt>
<rscale>  2 0.22922864E+03</rscale>
<asrwt>0</asrwt>
<pdfrwt beam="1">  1       21 0.12127549E+00 0.22922864E+03</pdfrwt>
<pdfrwt beam="2">  1       21 0.10255063E-01 0.22922864E+03</pdfrwt>
<totfact> 0.39150785E+04</totfact>
</mgrwt>
</event>
<event>
 4    2  0.3992997E+000  0.1967234E+03  0.7546771E-02  0.1152533E+00
         21   -1    0    0  501  502  0.00000000000E+00  0.00000000000E+00  0.10764109060E+03  0.10764109060E+03  0.00000000000E+00 0. -1.
         21   -1    0    0  502  503 -0.00000000000E+00 -0.00000000000E+00 -0.89069095655E+03  0.89069095655E+03  0.00000000000E+00 0. -1.
          6    1    1    2  501    0  0.91903709188E+02 -0.18022471126E+02 -0.60510597102E+01  0.19681645397E+03  0.17300000000E+03 0. -1.
         -6    1    1    2    0  503 -0.91903709188E+02  0.18022471126E+02 -0.77699880624E+03  0.80151559319E+03  0.17300000000E+03 0. -1.
<mgrwt>
<rscale>  2 0.19672341E+03</rscale>
<asrwt>0</asrwt>
<pdfrwt beam="1">  1       21 0.16560168E-01 0.19672341E+03</pdfrwt>
<pdfrwt beam="2">  1       21 0.13702938E+00 0.19672341E+03</pdfrwt>
<totfact> 0.12343894E+04</totfact>
</mgrwt>
</event>
<event>
 4    2  0.3992997E+000  0.2229948E+03  0.7546771E-02  0.1131670E+00
         21   -1    0    0  503  502  0.00000000000E+00  0.00000000000E+00  0.75056327726E+02  0.75056327726E+02  0.00000000000E+00 0. -1.
         21   -1    0    0  501  503 -0.00000000000E+00 -0.00000000000E+00 -0.82212501608E+03  0.82212501608E+03  0.00000000000E+00 0.  1.
          6    1    1    2  501    0 -0.12787080550E+03 -0.58708737272E+02 -0.57118506520E+03  0.61317129535E+03  0.17300000000E+03 0.  1.
         -6    1    1    2    0  502  0.12787080550E+03  0.58708737272E+02 -0.17588362315E+03  0.28401004846E+03  0.17300000000E+03 0. -1.
<mgrwt>
<rscale>  2 0.22299475E+03</rscale>
<asrwt>0</asrwt>
<pdfrwt beam="1">  1       21 0.11547126E-01 0.22299475E+03</pdfrwt>
<pdfrwt beam="2">  1       21 0.12648078E+00 0.22299475E+03</pdfrwt>
<totfact> 0.28603344E+04</totfact>
</mgrwt>
</event>
<event>
 4    2  0.3992997E+000  0.1974106E+03  0.7546771E-02  0.1151942E+00
         21   -1    0    0  503  502  0.00000000000E+00  0.00000000000E+00  0.19946899096E+03  0.19946899096E+03  0.00000000000E+00 0. -1.
         21   -1    0    0  501  503 -0.00000000000E+00 -0.00000000000E+00 -0.22044656835E+03  0.22044656835E+03  0.00000000000E+00 0.  1.
          6    1    1    2  501    0  0.60858820059E+02 -0.73062537877E+02  0.60319664187E+02  0.20642042609E+03  0.17300000000E+03 0. -1.
         -6    1    1    2    0  502 -0.60858820059E+02  0.73062537877E+02 -0.81297241584E+02  0.21349513322E+03  0.17300000000E+03 0.  1.
<mgrwt>
<rscale>  2 0.19741056E+03</rscale>
<asrwt>0</asrwt>
<pdfrwt beam="1">  1       21 0.30687537E-01 0.19741056E+03</pdfrwt>
<pdfrwt beam="2">  1       21 0.33914856E-01 0.19741056E+03</pdfrwt>
<totfact> 0.85226120E+04</totfact>
</mgrwt>
</event>
<event>
 4    2  0.3992997E+000  0.1989709E+03  0.7546771E-02  0.1150610E+00
         21   -1    0    0  501  502  0.00000000000E+00  0.00000000000E+00  0.14488684839E+03  0.14488684839E+03  0.00000000000E+00 0.  1.
         21   -1    0    0  502  503 -0.00000000000E+00 -0.00000000000E+00 -0.31585081613E+03  0.31585081613E+03  0.00000000000E+00 0.  1.
          6    1    1    2  501    0 -0.62953299431E+02 -0.75480537702E+02 -0.87165090824E+00  0.19897283547E+03  0.17300000000E+03 0.  1.
         -6    1    1    2    0  503  0.62953299431E+02  0.75480537702E+02 -0.17009231683E+03  0.26176482905E+03  0.17300000000E+03 0.  1.
<mgrwt>
<rscale>  2 0.19897093E+03</rscale>
<asrwt>0</asrwt>
<pdfrwt beam="1">  1       21 0.22290284E-01 0.19897093E+03</pdfrwt>
<pdfrwt beam="2">  1       21 0.48592433E-01 0.19897093E+03</pdfrwt>
<totfact> 0.75939562E+04</totfact>
</mgrwt>
</event>
<event>
 4    2  0.3992997E+000  0.1784794E+03  0.7546771E-02  0.1169283E+00
         21   -1    0    0  501  502  0.00000000000E+00  0.00000000000E+00  0.33256581599E+02  0.33256581599E+02  0.00000000000E+00 0.  1.
         21   -1    0    0  502  503 -0.00000000000E+00 -0.00000000000E+00 -0.14425360730E+04  0.14425360730E+04  0.00000000000E+00 0.  1.
          6    1    1    2  501    0  0.31126790292E+02 -0.30935611296E+02 -0.27691802799E+03  0.32945179214E+03  0.17300000000E+03 0. -1.
         -6    1    1    2    0  503 -0.31126790292E+02  0.30935611296E+02 -0.11323614634E+04  0.11463408625E+04  0.17300000000E+03 0. -1.
<mgrwt>
<rscale>  2 0.17847938E+03</rscale>
<asrwt>0</asrwt>
<pdfrwt beam="1">  1       21 0.51163958E-02 0.17847938E+03</pdfrwt>
<pdfrwt beam="2">  1       21 0.22192868E+00 0.17847938E+03</pdfrwt>
<totfact> 0.25612448E+04</totfact>
</mgrwt>
</event>
<event>
 4    2  0.3992997E+000  0.1812363E+03  0.7546771E-02  0.1166612E+00
         21   -1    0    0  503  502  0.00000000000E+00  0.00000000000E+00  0.17544634149E+03  0.17544634149E+03  0.00000000000E+00 0.  1.
         21   -1    0    0  501  503 -0.00000000000E+00 -0.00000000000E+00 -0.23624296942E+03  0.23624296942E+03  0.00000000000E+00 0.  1.
          6    1    1    2  501    0 -0.23569816380E+02 -0.48601217087E+02 -0.12416990922E+03  0.21969246893E+03  0.17300000000E+03 0.  1.
         -6    1    1    2    0  502  0.23569816380E+02  0.48601217087E+02  0.63373281297E+02  0.19199684198E+03  0.17300000000E+03 0.  1.
<mgrwt>
<rscale>  2 0.18123635E+03</rscale>
<asrwt>0</asrwt>
<pdfrwt beam="1">  1       21 0.26991745E-01 0.18123635E+03</pdfrwt>
<pdfrwt beam="2">  1       21 0.36345072E-01 0.18123635E+03</pdfrwt>
<totfact> 0.95885105E+04</totfact>
</mgrwt>
</event>
<event>
 4    2  0.3992997E+000  0.2368044E+03  0.7546771E-02  0.1121940E+00
         21   -1    0    0  501  502  0.00000000000E+00  0.00000000000E+00  0.18138418509E+03  0.18138418509E+03  0.00000000000E+00 0.  1.
         21   -1    0    0  502  503 -0.00000000000E+00 -0.00000000000E+00 -0.33737573384E+03  0.33737573384E+03  0.00000000000E+00 0.  1.
          6    1    1    2  501    0  0.16060069993E+03 -0.18834176957E+02 -0.15300991619E+03  0.28193677570E+03  0.17300000000E+03 0.  1.
         -6    1    1    2    0  503 -0.16060069993E+03  0.18834176957E+02 -0.29816325673E+01  0.23682314323E+03  0.17300000000E+03 0.  1.
<mgrwt>
<rscale>  2 0.23680437E+03</rscale>
<asrwt>0</asrwt>
<pdfrwt beam="1">  1       21 0.27905260E-01 0.23680437E+03</pdfrwt>
<pdfrwt beam="2">  1       21 0.51903958E-01 0.23680437E+03</pdfrwt>
<totfact> 0.42316717E+04</totfact>
</mgrwt>
</event>
<event>
 4    2  0.3992997E+000  0.1845612E+03  0.7546771E-02  0.1163460E+00
         21   -1    0    0  503  502  0.00000000000E+00  0.00000000000E+00  0.13680405490E+03  0.13680405490E+03  0.00000000000E+00 0. -1.
         21   -1    0    0  501  503 -0.00000000000E+00 -0.00000000000E+00 -0.61214323772E+03  0.61214323772E+03  0.00000000000E+00 0. -1.
          6    1    1    2  501    0  0.14248771495E+02 -0.62696248117E+02 -0.52609908543E+03  0.55753304360E+03  0.17300000000E+03 0. -1.
         -6    1    1    2    0  502 -0.14248771495E+02  0.62696248117E+02  0.50759902612E+02  0.19141424903E+03  0.17300000000E+03 0. -1.
<mgrwt>
<rscale>  2 0.18456123E+03</rscale>
<asrwt>0</asrwt>
<pdfrwt beam="1">  1       21 0.21046778E-01 0.18456123E+03</pdfrwt>
<pdfrwt beam="2">  1       21 0.94175882E-01 0.18456123E+03</pdfrwt>
<totfact> 0.19933342E+04</totfact>
</mgrwt>
</event>
<event>
 4    2  0.3992997E+000  0.1970570E+03  0.7546771E-02  0.1152246E+00
         21   -1    0    0  501  502  0.00000000000E+00  0.00000000000E+00  0.31262914026E+02  0.31262914026E+02  0.00000000000E+00 0.  1.
         21   -1    0    0  502  503 -0.00000000000E+00 -0.00000000000E+00 -0.30414230923E+04  0.30414230923E+04  0.00000000000E+00 0.  1.
          6    1    1    2  501    0  0.16839970132E+02 -0.92837940901E+02 -0.32338588031E+03  0.37869499000E+03  0.17300000000E+03 0.  1.
         -6    1    1    2    0  503 -0.16839970132E+02  0.92837940901E+02 -0.26867742979E+04  0.26939910163E+04  0.17300000000E+03 0.  1.
<mgrwt>
<rscale>  2 0.19705702E+03</rscale>
<asrwt>0</asrwt>
<pdfrwt beam="1">  1       21 0.48096782E-02 0.19705702E+03</pdfrwt>
<pdfrwt beam="2">  1       21 0.46791133E+00 0.19705702E+03</pdfrwt>
<totfact> 0.90014987E+02</totfact>
</mgrwt>
</event>
<event>
 4    2  0.3992997E+000  0.2344615E+03  0.7546771E-02  0.1123538E+00
         21   -1    0    0  501  502  0.00000000000E+00  0.00000000000E+00  0.41422291645E+02  0.41422291645E+02  0.00000000000E+00 0. -1.
         21   -1    0    0  502  503 -0.00000000000E+00 -0.00000000000E+00 -0.13271622106E+04  0.13271622106E+04  0.00000000000E+00 0. -1.
          6    1    1    2  501    0  0.71421068043E+02 -0.14121690886E+03 -0.64690959460E+03  0.68808735484E+03  0.17300000000E+03 0. -1.
         -6    1    1    2    0  503 -0.71421068043E+02  0.14121690886E+03 -0.63883032437E+03  0.68049714742E+03  0.17300000000E+03 0. -1.
<mgrwt>
<rscale>  2 0.23446148E+03</rscale>
<asrwt>0</asrwt>
<pdfrwt beam="1">  1       21 0.63726606E-02 0.23446148E+03</pdfrwt>
<pdfrwt beam="2">  1       21 0.20417879E+00 0.23446148E+03</pdfrwt>
<totfact> 0.21795421E+04</totfact>
</mgrwt>
</event>
<event>
 4    2  0.3992997E+000  0.2355997E+03  0.7546771E-02  0.1122759E+00
         21   -1    0    0  501  502  0.00000000000E+00  0.00000000000E+00  0.12548008266E+04  0.12548008266E+04  0.00000000000E+00 0. -1.
         21   -1    0    0  502  503 -0.00000000000E+00 -0.00000000000E+00 -0.98239376540E+02  0.98239376540E+02  0.00000000000E+00 0.  1.
          6    1    1    2  501    0 -0.15976481287E+03 -0.73096321374E+01  0.10798706711E+04  0.11052727683E+04  0.17300000000E+03 0. -1.
         -6    1    1    2    0  503  0.15976481287E+03  0.73096321374E+01  0.76690778925E+02  0.24776743476E+03  0.17300000000E+03 0.  1.
<mgrwt>
<rscale>  2 0.23559972E+03</rscale>
<asrwt>0</asrwt>
<pdfrwt beam="1">  1       21 0.19304627E+00 0.23559972E+03</pdfrwt>
<pdfrwt beam="2">  1       21 0.15113751E-01 0.23559972E+03</pdfrwt>
<totfact> 0.55602011E+03</totfact>
</mgrwt>
</event>
<event>
 4    2  0.3992997E+000  0.1946514E+03  0.7546771E-02  0.1154332E+00
         21   -1    0    0  501  502  0.00000000000E+00  0.00000000000E+00  0.78872645544E+03  0.78872645544E+03  0.00000000000E+00 0. -1.
         21   -1    0    0  502  503 -0.00000000000E+00 -0.00000000000E+00 -0.70504933204E+02  0.70504933204E+02  0.00000000000E+00 0. -1.
          6    1    1    2  501    0 -0.89212693609E+02 -0.11242637883E+01  0.11659594695E+03  0.22690038236E+03  0.17300000000E+03 0. -1.
         -6    1    1    2    0  503  0.89212693609E+02  0.11242637883E+01  0.60162557529E+03  0.63233100629E+03  0.17300000000E+03 0. -1.
<mgrwt>
<rscale>  2 0.19465140E+03</rscale>
<asrwt>0</asrwt>
<pdfrwt beam="1">  1       21 0.12134253E+00 0.19465140E+03</pdfrwt>
<pdfrwt beam="2">  1       21 0.10846913E-01 0.19465140E+03</pdfrwt>
<totfact> 0.36054087E+04</totfact>
</mgrwt>
</event>
<event>
 4    2  0.3992997E+000  0.1740633E+03  0.7546771E-02  0.1173675E+00
         21   -1    0    0  501  502  0.00000000000E+00  0.00000000000E+00  0.36607822480E+02  0.36607822480E+02  0.00000000000E+00 0.  1.
         21   -1    0    0  502  503 -0.00000000000E+00 -0.00000000000E+00 -0.11210713829E+04  0.11210713829E+04  0.00000000000E+00 0.  1.
          6    1    1    2  501    0  0.15113099008E+02 -0.11859271968E+02 -0.24609258182E+03  0.30142927349E+03  0.17300000000E+03 0.  1.
         -6    1    1    2    0  503 -0.15113099008E+02  0.11859271968E+02 -0.83837097858E+03  0.85624993186E+03  0.17300000000E+03 0.  1.
<mgrwt>
<rscale>  2 0.17406335E+03</rscale>
<asrwt>0</asrwt>
<pdfrwt beam="1">  1       21 0.56319739E-02 0.17406335E+03</pdfrwt>
<pdfrwt beam="2">  1       21 0.17247248E+00 0.17406335E+03</pdfrwt>
<totfact> 0.45572468E+04</totfact>
</mgrwt>
</event>
<event>
 4    2  0.3992997E+000  0.2205999E+03  0.7546771E-02  0.1133437E+00
         21   -1    0    0  501  502  0.00000000000E+00  0.00000000000E+00  0.54348244135E+03  0.54348244135E+03  0.00000000000E+00 0. -1.
         21   -1    0    0  502  503 -0.00000000000E+00 -0.00000000000E+00 -0.16730546734E+03  0.16730546734E+03  0.00000000000E+00 0. -1.
          6    1    1    2  501    0  0.91103414571E+02  0.10215424157E+03  0.43038307879E+03  0.48362580135E+03  0.17300000000E+03 0. -1.
         -6    1    1    2    0  503 -0.91103414571E+02 -0.10215424157E+03 -0.54206104775E+02  0.22716210734E+03  0.17300000000E+03 0. -1.
<mgrwt>
<rscale>  2 0.22059991E+03</rscale>
<asrwt>0</asrwt>
<pdfrwt beam="1">  1       21 0.83612682E-01 0.22059991E+03</pdfrwt>
<pdfrwt beam="2">  1       21 0.25739303E-01 0.22059991E+03</pdfrwt>
<totfact> 0.17523772E+04</totfact>
</mgrwt>
</event>
<event>
 4    2  0.3992997E+000  0.1979829E+03  0.7546771E-02  0.1151452E+00
         21   -1    0    0  501  502  0.00000000000E+00  0.00000000000E+00  0.77603203142E+03  0.77603203142E+03  0.00000000000E+00 0. -1.
         21   -1    0    0  502  503 -0.00000000000E+00 -0.00000000000E+00 -0.80510353577E+02  0.80510353577E+02  0.00000000000E+00 0. -1.
          6    1    1    2  501    0 -0.87327908596E+02 -0.40522312583E+02  0.60919217461E+03  0.64055626376E+03  0.17300000000E+03 0. -1.
         -6    1    1    2    0  503  0.87327908596E+02  0.40522312583E+02  0.86329503228E+02  0.21598612123E+03  0.17300000000E+03 0. -1.
<mgrwt>
<rscale>  2 0.19798288E+03</rscale>
<asrwt>0</asrwt>
<pdfrwt beam="1">  1       21 0.11938954E+00 0.19798288E+03</pdfrwt>
<pdfrwt beam="2">  1       21 0.12386209E-01 0.19798288E+03</pdfrwt>
<totfact> 0.29559730E+04</totfact>
</mgrwt>
</event>
<event>
 4    2  0.3992997E+000  0.2097761E+03  0.7546771E-02  0.1141743E+00
         21   -1    0    0  501  502  0.00000000000E+00  0.00000000000E+00  0.42178112132E+02  0.42178112132E+02  0.00000000000E+00 0.  1.
         21   -1    0    0  502  503 -0.00000000000E+00 -0.00000000000E+00 -0.11989742831E+04  0.11989742831E+04  0.00000000000E+00 0.  1.
          6    1    1    2  501    0  0.73365201785E+02  0.93244655158E+02 -0.35481142465E+03  0.41218583868E+03  0.17300000000E+03 0.  1.
         -6    1    1    2    0  503 -0.73365201785E+02 -0.93244655158E+02 -0.80198474628E+03  0.82896655651E+03  0.17300000000E+03 0.  1.
<mgrwt>
<rscale>  2 0.20977612E+03</rscale>
<asrwt>0</asrwt>
<pdfrwt beam="1">  1       21 0.64889415E-02 0.20977612E+03</pdfrwt>
<pdfrwt beam="2">  1       21 0.18445755E+00 0.20977612E+03</pdfrwt>
<totfact> 0.28927464E+04</totfact>
</mgrwt>
</event>
<event>
 4    2  0.3992997E+000  0.1898261E+03  0.7546771E-02  0.1158618E+00
         21   -1    0    0  501  502  0.00000000000E+00  0.00000000000E+00  0.36989026921E+02  0.36989026921E+02  0.00000000000E+00 0. -1.
         21   -1    0    0  502  503 -0.00000000000E+00 -0.00000000000E+00 -0.17918254073E+04  0.17918254073E+04  0.00000000000E+00 0. -1.
          6    1    1    2  501    0 -0.62614994628E+02  0.46736692690E+02 -0.25972273907E+03  0.32169839475E+03  0.17300000000E+03 0. -1.
         -6    1    1    2    0  503  0.62614994628E+02 -0.46736692690E+02 -0.14951136413E+04  0.15071160395E+04  0.17300000000E+03 0. -1.
<mgrwt>
<rscale>  2 0.18982612E+03</rscale>
<asrwt>0</asrwt>
<pdfrwt beam="1">  1       21 0.56906186E-02 0.18982612E+03</pdfrwt>
<pdfrwt beam="2">  1       21 0.27566549E+00 0.18982612E+03</pdfrwt>
<totfact> 0.10204598E+04</totfact>
</mgrwt>
</event>
<event>
 4    2  0.3992997E+000  0.1884079E+03  0.7546771E-02  0.1159905E+00
         21   -1    0    0  503  502  0.00000000000E+00  0.00000000000E+00  0.85525032864E+03  0.85525032864E+03  0.00000000000E+00 0. -1.
         21   -1    0    0  501  503 -0.00000000000E+00 -0.00000000000E+00 -0.14095116087E+03  0.14095116087E+03  0.00000000000E+00 0.  1.
          6    1    1    2  501    0 -0.30719824597E+02  0.68006159866E+02 -0.61235219777E+02  0.19810930706E+03  0.17300000000E+03 0.  1.
         -6    1    1    2    0  502  0.30719824597E+02 -0.68006159866E+02  0.77553438755E+03  0.79809218244E+03  0.17300000000E+03 0. -1.
<mgrwt>
<rscale>  2 0.18840792E+03</rscale>
<asrwt>0</asrwt>
<pdfrwt beam="1">  1       21 0.13157697E+00 0.18840792E+03</pdfrwt>
<pdfrwt beam="2">  1       21 0.21684794E-01 0.18840792E+03</pdfrwt>
<totfact> 0.83433490E+03</totfact>
</mgrwt>
</event>
<event>
 4    2  0.3992997E+000  0.1927107E+03  0.7546771E-02  0.1156039E+00
         21   -1    0    0  503  502  0.00000000000E+00  0.00000000000E+00  0.91112274152E+02  0.91112274152E+02  0.00000000000E+00 0.  1.
         21   -1    0    0  501  503 -0.00000000000E+00 -0.00000000000E+00 -0.50738426012E+03  0.50738426012E+03  0.00000000000E+00 0. -1.
          6    1    1    2  501    0 -0.84348022701E+02  0.96869524433E+01 -0.34084263623E+03  0.39154965031E+03  0.17300000000E+03 0. -1.
         -6    1    1    2    0  502  0.84348022701E+02 -0.96869524433E+01 -0.75429349735E+02  0.20694688396E+03  0.17300000000E+03 0.  1.
<mgrwt>
<rscale>  2 0.19271073E+03</rscale>
<asrwt>0</asrwt>
<pdfrwt beam="1">  1       21 0.14017273E-01 0.19271073E+03</pdfrwt>
<pdfrwt beam="2">  1       21 0.78059117E-01 0.19271073E+03</pdfrwt>
<totfact> 0.64494211E+04</totfact>
</mgrwt>
</event>
<event>
 4    2  0.3992997E+000  0.1845143E+03  0.7546771E-02  0.1163504E+00
         21   -1    0    0  501  502  0.00000000000E+00  0.00000000000E+00  0.94908548969E+02  0.94908548969E+02  0.00000000000E+00 0. -1.
         21   -1    0    0  502  503 -0.00000000000E+00 -0.00000000000E+00 -0.68695202751E+03  0.68695202751E+03  0.00000000000E+00 0.  1.
          6    1    1    2  501    0  0.58334356629E+02  0.26713869334E+02 -0.25795785989E+02  0.18630875061E+03  0.17300000000E+03 0. -1.
         -6    1    1    2    0  503 -0.58334356629E+02 -0.26713869334E+02 -0.56624769255E+03  0.59555182587E+03  0.17300000000E+03 0.  1.
<mgrwt>
<rscale>  2 0.18451430E+03</rscale>
<asrwt>0</asrwt>
<pdfrwt beam="1">  1       21 0.14601315E-01 0.18451430E+03</pdfrwt>
<pdfrwt beam="2">  1       21 0.10568493E+00 0.18451430E+03</pdfrwt>
<totfact> 0.29770813E+04</totfact>
</mgrwt>
</event>
<event>
 4    2  0.3992997E+000  0.1770014E+03  0.7546771E-02  0.1170737E+00
         21   -1    0    0  503  502  0.00000000000E+00  0.00000000000E+00  0.53660592762E+02  0.53660592762E+02  0.00000000000E+00 0. -1.
         21   -1    0    0  501  503 -0.00000000000E+00 -0.00000000000E+00 -0.82282871204E+03  0.82282871204E+03  0.00000000000E+00 0. -1.
          6    1    1    2  501    0 -0.10406581005E+02 -0.35947137148E+02 -0.62076542974E+03  0.64550694215E+03  0.17300000000E+03 0.  1.
         -6    1    1    2    0  502  0.10406581005E+02  0.35947137148E+02 -0.14840268954E+03  0.23098236266E+03  0.17300000000E+03 0.  1.
<mgrwt>
<rscale>  2 0.17700139E+03</rscale>
<asrwt>0</asrwt>
<pdfrwt beam="1">  1       21 0.82554765E-02 0.17700139E+03</pdfrwt>
<pdfrwt beam="2">  1       21 0.12658902E+00 0.17700139E+03</pdfrwt>
<totfact> 0.52936603E+04</totfact>
</mgrwt>
</event>
<event>
 4    2  0.3992997E+000  0.1755641E+03  0.7546771E-02  0.1172167E+00
         21   -1    0    0  501  502  0.00000000000E+00  0.00000000000E+00  0.77858433054E+03  0.77858433054E+03  0.00000000000E+00 0. -1.
         21   -1    0    0  502  503 -0.00000000000E+00 -0.00000000000E+00 -0.14393025201E+03  0.14393025201E+03  0.00000000000E+00 0. -1.
          6    1    1    2  501    0 -0.29854740890E+02 -0.15640649685E+01  0.71005958161E+03  0.73144197397E+03  0.17300000000E+03 0. -1.
         -6    1    1    2    0  503  0.29854740890E+02  0.15640649685E+01 -0.75405503078E+02  0.19107260857E+03  0.17300000000E+03 0. -1.
<mgrwt>
<rscale>  2 0.17556410E+03</rscale>
<asrwt>0</asrwt>
<pdfrwt beam="1">  1       21 0.11978220E+00 0.17556410E+03</pdfrwt>
<pdfrwt beam="2">  1       21 0.22143116E-01 0.17556410E+03</pdfrwt>
<totfact> 0.10243165E+04</totfact>
</mgrwt>
</event>
<event>
 4    2  0.3992997E+000  0.2069472E+03  0.7546771E-02  0.1144007E+00
         21   -1    0    0  501  502  0.00000000000E+00  0.00000000000E+00  0.59749173338E+03  0.59749173338E+03  0.00000000000E+00 0. -1.
         21   -1    0    0  502  503 -0.00000000000E+00 -0.00000000000E+00 -0.86521955993E+02  0.86521955993E+02  0.00000000000E+00 0. -1.
          6    1    1    2  501    0 -0.58467197427E+02 -0.97363977740E+02  0.39714347892E+03  0.44782820388E+03  0.17300000000E+03 0. -1.
         -6    1    1    2    0  503  0.58467197427E+02  0.97363977740E+02  0.11382629846E+03  0.23618548549E+03  0.17300000000E+03 0. -1.
<mgrwt>
<rscale>  2 0.20694723E+03</rscale>
<asrwt>0</asrwt>
<pdfrwt beam="1">  1       21 0.91921803E-01 0.20694723E+03</pdfrwt>
<pdfrwt beam="2">  1       21 0.13311071E-01 0.20694723E+03</pdfrwt>
<totfact> 0.48373583E+04</totfact>
</mgrwt>
</event>
<event>
 4    2  0.3992997E+000  0.3422684E+03  0.7546771E-02  0.1065834E+00
         21   -1    0    0  503  502  0.00000000000E+00  0.00000000000E+00  0.10001706681E+03  0.10001706681E+03  0.00000000000E+00 0. -1.
         21   -1    0    0  501  503 -0.00000000000E+00 -0.00000000000E+00 -0.17447398229E+04  0.17447398229E+04  0.00000000000E+00 0.  1.
          6    1    1    2  501    0  0.29144004792E+03 -0.47763846804E+02 -0.13511674769E+04  0.13938440505E+04  0.17300000000E+03 0.  1.
         -6    1    1    2    0  502 -0.29144004792E+03  0.47763846804E+02 -0.29355527921E+03  0.45091283919E+03  0.17300000000E+03 0. -1.
<mgrwt>
<rscale>  2 0.34226844E+03</rscale>
<asrwt>0</asrwt>
<pdfrwt beam="1">  1       21 0.15387242E-01 0.34226844E+03</pdfrwt>
<pdfrwt beam="2">  1       21 0.26842149E+00 0.34226844E+03</pdfrwt>
<totfact> 0.17016121E+03</totfact>
</mgrwt>
</event>
<event>
 4    2  0.3992997E+000  0.2637853E+03  0.7546771E-02  0.1104890E+00
         21   -1    0    0  503  502  0.00000000000E+00  0.00000000000E+00  0.17118135153E+03  0.17118135153E+03  0.00000000000E+00 0. -1.
         21   -1    0    0  501  503 -0.00000000000E+00 -0.00000000000E+00 -0.89906579045E+03  0.89906579045E+03  0.00000000000E+00 0.  1.
          6    1    1    2  501    0 -0.14927218327E+03  0.13180103855E+03 -0.76003503013E+03  0.80450975475E+03  0.17300000000E+03 0.  1.
         -6    1    1    2    0  502  0.14927218327E+03 -0.13180103855E+03  0.32150591205E+02  0.26573738724E+03  0.17300000000E+03 0. -1.
<mgrwt>
<rscale>  2 0.26378533E+03</rscale>
<asrwt>0</asrwt>
<pdfrwt beam="1">  1       21 0.26335592E-01 0.26378533E+03</pdfrwt>
<pdfrwt beam="2">  1       21 0.13831782E+00 0.26378533E+03</pdfrwt>
<totfact> 0.48066511E+03</totfact>
</mgrwt>
</event>
<event>
 4    2  0.3992997E+000  0.1780604E+03  0.7546771E-02  0.1169693E+00
         21   -1    0    0  501  502  0.00000000000E+00  0.00000000000E+00  0.41995221838E+03  0.41995221838E+03  0.00000000000E+00 0. -1.
         21   -1    0    0  502  503 -0.00000000000E+00 -0.00000000000E+00 -0.82265079606E+02  0.82265079606E+02  0.00000000000E+00 0. -1.
          6    1    1    2  501    0  0.40287109602E+02 -0.12388323197E+02  0.96822940573E+02  0.20268251916E+03  0.17300000000E+03 0. -1.
         -6    1    1    2    0  503 -0.40287109602E+02  0.12388323197E+02  0.24086419821E+03  0.29953477883E+03  0.17300000000E+03 0. -1.
<mgrwt>
<rscale>  2 0.17806044E+03</rscale>
<asrwt>0</asrwt>
<pdfrwt beam="1">  1       21 0.64608032E-01 0.17806044E+03</pdfrwt>
<pdfrwt beam="2">  1       21 0.12656166E-01 0.17806044E+03</pdfrwt>
<totfact> 0.11842362E+05</totfact>
</mgrwt>
</event>
<event>
 4    2  0.3992997E+000  0.3871547E+03  0.7546771E-02  0.1048321E+00
         21   -1    0    0  501  502  0.00000000000E+00  0.00000000000E+00  0.25659579682E+04  0.25659579682E+04  0.00000000000E+00 0.  1.
         21   -1    0    0  502  503 -0.00000000000E+00 -0.00000000000E+00 -0.61418906949E+02  0.61418906949E+02  0.00000000000E+00 0. -1.
          6    1    1    2  501    0  0.29644301970E+03  0.17911263151E+03  0.15428260729E+04  0.15906605829E+04  0.17300000000E+03 0.  1.
         -6    1    1    2    0  503 -0.29644301970E+03 -0.17911263151E+03  0.96171298827E+03  0.10367162922E+04  0.17300000000E+03 0. -1.
<mgrwt>
<rscale>  2 0.38715475E+03</rscale>
<asrwt>0</asrwt>
<pdfrwt beam="1">  1       21 0.39476268E+00 0.38715475E+03</pdfrwt>
<pdfrwt beam="2">  1       21 0.94490646E-02 0.38715475E+03</pdfrwt>
<totfact> 0.68540931E+02</totfact>
</mgrwt>
</event>
<event>
 4    2  0.3992997E+000  0.2605973E+03  0.7546771E-02  0.1106785E+00
         21   -1    0    0  503  502  0.00000000000E+00  0.00000000000E+00  0.18007350390E+03  0.18007350390E+03  0.00000000000E+00 0. -1.
         21   -1    0    0  501  503 -0.00000000000E+00 -0.00000000000E+00 -0.39593283895E+03  0.39593283895E+03  0.00000000000E+00 0. -1.
          6    1    1    2  501    0  0.18710581352E+03 -0.54528823165E+02 -0.45166137607E+02  0.26448243419E+03  0.17300000000E+03 0. -1.
         -6    1    1    2    0  502 -0.18710581352E+03  0.54528823165E+02 -0.17069319745E+03  0.31152390865E+03  0.17300000000E+03 0. -1.
<mgrwt>
<rscale>  2 0.26059735E+03</rscale>
<asrwt>0</asrwt>
<pdfrwt beam="1">  1       21 0.27703616E-01 0.26059735E+03</pdfrwt>
<pdfrwt beam="2">  1       21 0.60912744E-01 0.26059735E+03</pdfrwt>
<totfact> 0.30173706E+04</totfact>
</mgrwt>
</event>
<event>
 4    2  0.3992997E+000  0.1847550E+03  0.7546771E-02  0.1163279E+00
         21   -1    0    0  501  502  0.00000000000E+00  0.00000000000E+00  0.99557492215E+02  0.99557492215E+02  0.00000000000E+00 0. -1.
         21   -1    0    0  502  503 -0.00000000000E+00 -0.00000000000E+00 -0.48717859249E+03  0.48717859249E+03  0.00000000000E+00 0.  1.
          6    1    1    2  501    0 -0.57372269278E+02 -0.30229960916E+02 -0.34138963876E+02  0.18788266730E+03  0.17300000000E+03 0. -1.
         -6    1    1    2    0  503  0.57372269278E+02  0.30229960916E+02 -0.35348213640E+03  0.39885341740E+03  0.17300000000E+03 0.  1.
<mgrwt>
<rscale>  2 0.18475505E+03</rscale>
<asrwt>0</asrwt>
<pdfrwt beam="1">  1       21 0.15316537E-01 0.18475505E+03</pdfrwt>
<pdfrwt beam="2">  1       21 0.74950554E-01 0.18475505E+03</pdfrwt>
<totfact> 0.60345289E+04</totfact>
</mgrwt>
</event>
<event>
 4    2  0.3992997E+000  0.2165744E+03  0.7546771E-02  0.1136463E+00
         21   -1    0    0  501  502  0.00000000000E+00  0.00000000000E+00  0.96015058707E+02  0.96015058707E+02  0.00000000000E+00 0. -1.
         21   -1    0    0  502  503 -0.00000000000E+00 -0.00000000000E+00 -0.91906107637E+03  0.91906107637E+03  0.00000000000E+00 0. -1.
          6    1    1    2  501    0  0.42369408618E+02 -0.12320840233E+03 -0.64140514127E+02  0.22587271359E+03  0.17300000000E+03 0. -1.
         -6    1    1    2    0  503 -0.42369408618E+02  0.12320840233E+03 -0.75890550354E+03  0.78920342149E+03  0.17300000000E+03 0. -1.
<mgrwt>
<rscale>  2 0.21657441E+03</rscale>
<asrwt>0</asrwt>
<pdfrwt beam="1">  1       21 0.14771547E-01 0.21657441E+03</pdfrwt>
<pdfrwt beam="2">  1       21 0.14139401E+00 0.21657441E+03</pdfrwt>
<totfact> 0.13839513E+04</totfact>
</mgrwt>
</event>
<event>
 4    2  0.3992997E+000  0.1852607E+03  0.7546771E-02  0.1162807E+00
         21   -1    0    0  501  502  0.00000000000E+00  0.00000000000E+00  0.44898018384E+02  0.44898018384E+02  0.00000000000E+00 0. -1.
         21   -1    0    0  502  503 -0.00000000000E+00 -0.00000000000E+00 -0.12390235441E+04  0.12390235441E+04  0.00000000000E+00 0. -1.
          6    1    1    2  501    0  0.57834108143E+02 -0.32368587637E+02 -0.19975373378E+03  0.27243910088E+03  0.17300000000E+03 0. -1.
         -6    1    1    2    0  503 -0.57834108143E+02  0.32368587637E+02 -0.99437179194E+03  0.10114824616E+04  0.17300000000E+03 0. -1.
<mgrwt>
<rscale>  2 0.18526065E+03</rscale>
<asrwt>0</asrwt>
<pdfrwt beam="1">  1       21 0.69073877E-02 0.18526065E+03</pdfrwt>
<pdfrwt beam="2">  1       21 0.19061900E+00 0.18526065E+03</pdfrwt>
<totfact> 0.24044404E+04</totfact>
</mgrwt>
</event>
<event>
 4    2  0.3992997E+000  0.1886963E+03  0.7546771E-02  0.1159642E+00
         21   -1    0    0  501  502  0.00000000000E+00  0.00000000000E+00  0.50857321775E+03  0.50857321775E+03  0.00000000000E+00 0.  1.
         21   -1    0    0  502  503 -0.00000000000E+00 -0.00000000000E+00 -0.70123658626E+02  0.70123658626E+02  0.00000000000E+00 0.  1.
          6    1    1    2  501    0 -0.62399317880E+01 -0.75089032437E+02  0.20768595093E+03  0.28060604725E+03  0.17300000000E+03 0.  1.
         -6    1    1    2    0  503  0.62399317880E+01  0.75089032437E+02  0.23076360820E+03  0.29809082913E+03  0.17300000000E+03 0.  1.
<mgrwt>
<rscale>  2 0.18869632E+03</rscale>
<asrwt>0</asrwt>
<pdfrwt beam="1">  1       21 0.78242031E-01 0.18869632E+03</pdfrwt>
<pdfrwt beam="2">  1       21 0.10788256E-01 0.18869632E+03</pdfrwt>
<totfact> 0.10274290E+05</totfact>
</mgrwt>
</event>
<event>
 4    2  0.3992997E+000  0.4773333E+03  0.7546771E-02  0.1019871E+00
         21   -1    0    0  503  502  0.00000000000E+00  0.00000000000E+00  0.65459157717E+03  0.65459157717E+03  0.00000000000E+00 0. -1.
         21   -1    0    0  501  503 -0.00000000000E+00 -0.00000000000E+00 -0.58242340963E+03  0.58242340963E+03  0.00000000000E+00 0.  1.
          6    1    1    2  501    0 -0.41551543327E+03  0.15894979099E+03 -0.35625028112E+03  0.59561848035E+03  0.17300000000E+03 0.  1.
         -6    1    1    2    0  502  0.41551543327E+03 -0.15894979099E+03  0.42841844866E+03  0.64139650645E+03  0.17300000000E+03 0. -1.
<mgrwt>
<rscale>  2 0.47733333E+03</rscale>
<asrwt>0</asrwt>
<pdfrwt beam="1">  1       21 0.10070640E+00 0.47733333E+03</pdfrwt>
<pdfrwt beam="2">  1       21 0.89603602E-01 0.47733333E+03</pdfrwt>
<totfact> 0.71499258E+02</totfact>
</mgrwt>
</event>
<event>
 4    2  0.3992997E+000  0.2106419E+03  0.7546771E-02  0.1141059E+00
         21   -1    0    0  501  502  0.00000000000E+00  0.00000000000E+00  0.28006910977E+02  0.28006910977E+02  0.00000000000E+00 0.  1.
         21   -1    0    0  502  503 -0.00000000000E+00 -0.00000000000E+00 -0.15852401678E+04  0.15852401678E+04  0.00000000000E+00 0.  1.
          6    1    1    2  501    0  0.98729028067E+02  0.68509703754E+02 -0.75847604981E+03  0.78718226519E+03  0.17300000000E+03 0.  1.
         -6    1    1    2    0  503 -0.98729028067E+02 -0.68509703754E+02 -0.79875720698E+03  0.82606481355E+03  0.17300000000E+03 0.  1.
<mgrwt>
<rscale>  2 0.21064188E+03</rscale>
<asrwt>0</asrwt>
<pdfrwt beam="1">  1       21 0.43087547E-02 0.21064188E+03</pdfrwt>
<pdfrwt beam="2">  1       21 0.24388315E+00 0.21064188E+03</pdfrwt>
<totfact> 0.24625220E+04</totfact>
</mgrwt>
</event>
<event>
 4    2  0.3992997E+000  0.2122565E+03  0.7546771E-02  0.1139791E+00
         21   -1    0    0  503  502  0.00000000000E+00  0.00000000000E+00  0.49287613263E+03  0.49287613263E+03  0.00000000000E+00 0.  1.
         21   -1    0    0  501  503 -0.00000000000E+00 -0.00000000000E+00 -0.20227415419E+03  0.20227415419E+03  0.00000000000E+00 0.  1.
          6    1    1    2  501    0  0.12225300530E+03  0.13342874063E+02 -0.11202163572E+03  0.24000349261E+03  0.17300000000E+03 0.  1.
         -6    1    1    2    0  502 -0.12225300530E+03 -0.13342874063E+02  0.40262361417E+03  0.45514679421E+03  0.17300000000E+03 0.  1.
<mgrwt>
<rscale>  2 0.21225652E+03</rscale>
<asrwt>0</asrwt>
<pdfrwt beam="1">  1       21 0.75827097E-01 0.21225652E+03</pdfrwt>
<pdfrwt beam="2">  1       21 0.31119101E-01 0.21225652E+03</pdfrwt>
<totfact> 0.15201895E+04</totfact>
</mgrwt>
</event>
<event>
 4    2  0.3992997E+000  0.2237859E+03  0.7546771E-02  0.1131092E+00
         21   -1    0    0  501  502  0.00000000000E+00  0.00000000000E+00  0.29466161843E+03  0.29466161843E+03  0.00000000000E+00 0.  1.
         21   -1    0    0  502  503 -0.00000000000E+00 -0.00000000000E+00 -0.22551933521E+03  0.22551933521E+03  0.00000000000E+00 0. -1.
          6    1    1    2  501    0 -0.85669161760E+02  0.11318985784E+03  0.16366876144E+03  0.27725009047E+03  0.17300000000E+03 0.  1.
         -6    1    1    2    0  503  0.85669161760E+02 -0.11318985784E+03 -0.94526478225E+02  0.24293086317E+03  0.17300000000E+03 0. -1.
<mgrwt>
<rscale>  2 0.22378595E+03</rscale>
<asrwt>0</asrwt>
<pdfrwt beam="1">  1       21 0.45332557E-01 0.22378595E+03</pdfrwt>
<pdfrwt beam="2">  1       21 0.34695282E-01 0.22378595E+03</pdfrwt>
<totfact> 0.36789373E+04</totfact>
</mgrwt>
</event>
<event>
 4    2  0.3992997E+000  0.1882543E+03  0.7546771E-02  0.1160045E+00
         21   -1    0    0  501  502  0.00000000000E+00  0.00000000000E+00  0.12734797706E+03  0.12734797706E+03  0.00000000000E+00 0.  1.
         21   -1    0    0  502  503 -0.00000000000E+00 -0.00000000000E+00 -0.41486089903E+03  0.41486089903E+03  0.00000000000E+00 0.  1.
          6    1    1    2  501    0  0.46228960107E+02 -0.58082485553E+02  0.11791444586E+02  0.18862324895E+03  0.17300000000E+03 0.  1.
         -6    1    1    2    0  503 -0.46228960107E+02  0.58082485553E+02 -0.29930436655E+03  0.35358562714E+03  0.17300000000E+03 0.  1.
<mgrwt>
<rscale>  2 0.18825433E+03</rscale>
<asrwt>0</asrwt>
<pdfrwt beam="1">  1       21 0.19591996E-01 0.18825433E+03</pdfrwt>
<pdfrwt beam="2">  1       21 0.63824754E-01 0.18825433E+03</pdfrwt>
<totfact> 0.54507790E+04</totfact>
</mgrwt>
</event>
<event>
 4    2  0.3992997E+000  0.2095714E+03  0.7546771E-02  0.1141906E+00
         21   -1    0    0  503  502  0.00000000000E+00  0.00000000000E+00  0.70912325776E+03  0.70912325776E+03  0.00000000000E+00 0. -1.
         21   -1    0    0  501  503 -0.00000000000E+00 -0.00000000000E+00 -0.66716545422E+02  0.66716545422E+02  0.00000000000E+00 0. -1.
          6    1    1    2  501    0 -0.11797224210E+03  0.85860658045E+01  0.21736217361E+03  0.30193788260E+03  0.17300000000E+03 0. -1.
         -6    1    1    2    0  502  0.11797224210E+03 -0.85860658045E+01  0.42504453872E+03  0.47390192058E+03  0.17300000000E+03 0. -1.
<mgrwt>
<rscale>  2 0.20957140E+03</rscale>
<asrwt>0</asrwt>
<pdfrwt beam="1">  1       21 0.10909588E+00 0.20957140E+03</pdfrwt>
<pdfrwt beam="2">  1       21 0.10264084E-01 0.20957140E+03</pdfrwt>
<totfact> 0.51182698E+04</totfact>
</mgrwt>
</event>
<event>
 4    2  0.3992997E+000  0.2068368E+03  0.7546771E-02  0.1144096E+00
         21   -1    0    0  501  502  0.00000000000E+00  0.00000000000E+00  0.97034463492E+02  0.97034463492E+02  0.00000000000E+00 0. -1.
         21   -1    0    0  502  503 -0.00000000000E+00 -0.00000000000E+00 -0.46569863047E+03  0.46569863047E+03  0.00000000000E+00 0.  1.
          6    1    1    2  501    0 -0.27742483425E+02 -0.10992188072E+03 -0.24927424359E+03  0.32391220071E+03  0.17300000000E+03 0. -1.
         -6    1    1    2    0  503  0.27742483425E+02  0.10992188072E+03 -0.11938992338E+03  0.23882089325E+03  0.17300000000E+03 0.  1.
<mgrwt>
<rscale>  2 0.20683681E+03</rscale>
<asrwt>0</asrwt>
<pdfrwt beam="1">  1       21 0.14928379E-01 0.20683681E+03</pdfrwt>
<pdfrwt beam="2">  1       21 0.71645943E-01 0.20683681E+03</pdfrwt>
<totfact> 0.69204148E+04</totfact>
</mgrwt>
</event>
<event>
 4    2  0.3992997E+000  0.3418230E+03  0.7546771E-02  0.1066022E+00
         21   -1    0    0  501  502  0.00000000000E+00  0.00000000000E+00  0.33564747870E+03  0.33564747870E+03  0.00000000000E+00 0. -1.
         21   -1    0    0  502  503 -0.00000000000E+00 -0.00000000000E+00 -0.38745712318E+03  0.38745712318E+03  0.00000000000E+00 0. -1.
          6    1    1    2  501    0 -0.25400393601E+03  0.14965283688E+03 -0.14111844666E+03  0.36980722963E+03  0.17300000000E+03 0. -1.
         -6    1    1    2    0  503  0.25400393601E+03 -0.14965283688E+03  0.89308802178E+02  0.35329737225E+03  0.17300000000E+03 0. -1.
<mgrwt>
<rscale>  2 0.34182301E+03</rscale>
<asrwt>0</asrwt>
<pdfrwt beam="1">  1       21 0.51638074E-01 0.34182301E+03</pdfrwt>
<pdfrwt beam="2">  1       21 0.59608788E-01 0.34182301E+03</pdfrwt>
<totfact> 0.86428339E+03</totfact>
</mgrwt>
</event>
<event>
 4    2  0.3992997E+000  0.2166308E+03  0.7546771E-02  0.1136420E+00
         21   -1    0    0  501  502  0.00000000000E+00  0.00000000000E+00  0.56569481358E+03  0.56569481358E+03  0.00000000000E+00 0.  1.
         21   -1    0    0  502  503 -0.00000000000E+00 -0.00000000000E+00 -0.97076950033E+02  0.97076950033E+02  0.00000000000E+00 0.  1.
          6    1    1    2  501    0  0.12258773148E+03 -0.44408792658E+02  0.36068871869E+03  0.42074368036E+03  0.17300000000E+03 0.  1.
         -6    1    1    2    0  503 -0.12258773148E+03  0.44408792658E+02  0.10792914486E+03  0.24202808326E+03  0.17300000000E+03 0.  1.
<mgrwt>
<rscale>  2 0.21663078E+03</rscale>
<asrwt>0</asrwt>
<pdfrwt beam="1">  1       21 0.87029969E-01 0.21663078E+03</pdfrwt>
<pdfrwt beam="2">  1       21 0.14934916E-01 0.21663078E+03</pdfrwt>
<totfact> 0.44341375E+04</totfact>
</mgrwt>
</event>
<event>
 4    2  0.3992997E+000  0.1882871E+03  0.7546771E-02  0.1160015E+00
         21   -1    0    0  501  502  0.00000000000E+00  0.00000000000E+00  0.83800096568E+02  0.83800096568E+02  0.00000000000E+00 0. -1.
         21   -1    0    0  502  503 -0.00000000000E+00 -0.00000000000E+00 -0.54040369234E+03  0.54040369234E+03  0.00000000000E+00 0.  1.
          6    1    1    2  501    0 -0.50811103741E+02  0.54233460122E+02 -0.82864206355E+02  0.20571464011E+03  0.17300000000E+03 0. -1.
         -6    1    1    2    0  503  0.50811103741E+02 -0.54233460122E+02 -0.37373938941E+03  0.41848914880E+03  0.17300000000E+03 0.  1.
<mgrwt>
<rscale>  2 0.18828711E+03</rscale>
<asrwt>0</asrwt>
<pdfrwt beam="1">  1       21 0.12892323E-01 0.18828711E+03</pdfrwt>
<pdfrwt beam="2">  1       21 0.83139027E-01 0.18828711E+03</pdfrwt>
<totfact> 0.65159689E+04</totfact>
</mgrwt>
</event>
<event>
 4    2  0.3992997E+000  0.2483380E+03  0.7546771E-02  0.1114360E+00
         21   -1    0    0  501  502  0.00000000000E+00  0.00000000000E+00  0.21280426946E+03  0.21280426946E+03  0.00000000000E+00 0.  1.
         21   -1    0    0  502  503 -0.00000000000E+00 -0.00000000000E+00 -0.32288747281E+03  0.32288747281E+03  0.00000000000E+00 0.  1.
          6    1    1    2  501    0 -0.17598000618E+03 -0.27817518979E+02  0.30693218520E+02  0.25022759760E+03  0.17300000000E+03 0.  1.
         -6    1    1    2    0  503  0.17598000618E+03  0.27817518979E+02 -0.14077642186E+03  0.28546414467E+03  0.17300000000E+03 0.  1.
<mgrwt>
<rscale>  2 0.24833803E+03</rscale>
<asrwt>0</asrwt>
<pdfrwt beam="1">  1       21 0.32739119E-01 0.24833803E+03</pdfrwt>
<pdfrwt beam="2">  1       21 0.49674995E-01 0.24833803E+03</pdfrwt>
<totfact> 0.33753259E+04</totfact>
</mgrwt>
</event>
<event>
 4    2  0.3992997E+000  0.2287867E+03  0.7546771E-02  0.1127497E+00
         21   -1    0    0  503  502  0.00000000000E+00  0.00000000000E+00  0.67059650066E+03  0.67059650066E+03  0.00000000000E+00 0. -1.
         21   -1    0    0  501  503 -0.00000000000E+00 -0.00000000000E+00 -0.95290390412E+02  0.95290390412E+02  0.00000000000E+00 0.  1.
          6    1    1    2  501    0  0.46514971649E+02  0.14230502338E+03  0.12479038744E+03  0.26060698967E+03  0.17300000000E+03 0.  1.
         -6    1    1    2    0  502 -0.46514971649E+02 -0.14230502338E+03  0.45051572280E+03  0.50527990140E+03  0.17300000000E+03 0. -1.
<mgrwt>
<rscale>  2 0.22878672E+03</rscale>
<asrwt>0</asrwt>
<pdfrwt beam="1">  1       21 0.10316869E+00 0.22878672E+03</pdfrwt>
<pdfrwt beam="2">  1       21 0.14660060E-01 0.22878672E+03</pdfrwt>
<totfact> 0.30558799E+04</totfact>
</mgrwt>
</event>
<event>
 4    2  0.3992997E+000  0.2238782E+03  0.7546771E-02  0.1131024E+00
         21   -1    0    0  503  502  0.00000000000E+00  0.00000000000E+00  0.27644928831E+03  0.27644928831E+03  0.00000000000E+00 0.  1.
         21   -1    0    0  501  503 -0.00000000000E+00 -0.00000000000E+00 -0.25244723978E+03  0.25244723978E+03  0.00000000000E+00 0. -1.
          6    1    1    2  501    0  0.44790909467E+02 -0.13485631511E+03 -0.12838414759E+03  0.25807739275E+03  0.17300000000E+03 0. -1.
         -6    1    1    2    0  502 -0.44790909467E+02  0.13485631511E+03  0.15238619612E+03  0.27081913534E+03  0.17300000000E+03 0.  1.
<mgrwt>
<rscale>  2 0.22387821E+03</rscale>
<asrwt>0</asrwt>
<pdfrwt beam="1">  1       21 0.42530660E-01 0.22387821E+03</pdfrwt>
<pdfrwt beam="2">  1       21 0.38838037E-01 0.22387821E+03</pdfrwt>
<totfact> 0.33454040E+04</totfact>
</mgrwt>
</event>
<event>
 4    2  0.3992997E+000  0.2125469E+03  0.7546771E-02  0.1139565E+00
         21   -1    0    0  501  502  0.00000000000E+00  0.00000000000E+00  0.31250396207E+02  0.31250396207E+02  0.00000000000E+00 0. -1.
         21   -1    0    0  502  503 -0.00000000000E+00 -0.00000000000E+00 -0.18684938059E+04  0.18684938059E+04  0.00000000000E+00 0. -1.
          6    1    1    2  501    0 -0.10811890645E+03  0.59644670227E+02 -0.46673984338E+03  0.51285696448E+03  0.17300000000E+03 0. -1.
         -6    1    1    2    0  503  0.10811890645E+03 -0.59644670227E+02 -0.13705035663E+04  0.13868872376E+04  0.17300000000E+03 0. -1.
<mgrwt>
<rscale>  2 0.21254690E+03</rscale>
<asrwt>0</asrwt>
<pdfrwt beam="1">  1       21 0.48077532E-02 0.21254690E+03</pdfrwt>
<pdfrwt beam="2">  1       21 0.28746059E+00 0.21254690E+03</pdfrwt>
<totfact> 0.11359953E+04</totfact>
</mgrwt>
</event>
<event>
 4    2  0.3992997E+000  0.2071813E+03  0.7546771E-02  0.1143818E+00
         21   -1    0    0  501  502  0.00000000000E+00  0.00000000000E+00  0.18543220248E+03  0.18543220248E+03  0.00000000000E+00 0.  1.
         21   -1    0    0  502  503 -0.00000000000E+00 -0.00000000000E+00 -0.23862279060E+03  0.23862279060E+03  0.00000000000E+00 0.  1.
          6    1    1    2  501    0 -0.21548541100E+02 -0.11194080462E+03  0.10084872941E+02  0.20742658466E+03  0.17300000000E+03 0.  1.
         -6    1    1    2    0  503  0.21548541100E+02  0.11194080462E+03 -0.63275461056E+02  0.21662840842E+03  0.17300000000E+03 0.  1.
<mgrwt>
<rscale>  2 0.20718128E+03</rscale>
<asrwt>0</asrwt>
<pdfrwt beam="1">  1       21 0.28528031E-01 0.20718128E+03</pdfrwt>
<pdfrwt beam="2">  1       21 0.36711199E-01 0.20718128E+03</pdfrwt>
<totfact> 0.83573828E+04</totfact>
</mgrwt>
</event>
<event>
 4    2  0.3992997E+000  0.2452295E+03  0.7546771E-02  0.1116357E+00
         21   -1    0    0  501  502  0.00000000000E+00  0.00000000000E+00  0.76876389456E+03  0.76876389456E+03  0.00000000000E+00 0.  1.
         21   -1    0    0  502  503 -0.00000000000E+00 -0.00000000000E+00 -0.16991340947E+03  0.16991340947E+03  0.00000000000E+00 0.  1.
          6    1    1    2  501    0  0.11849823660E+03  0.12714829425E+03  0.64419307667E+03  0.68929111472E+03  0.17300000000E+03 0.  1.
         -6    1    1    2    0  503 -0.11849823660E+03 -0.12714829425E+03 -0.45342591580E+02  0.24938618931E+03  0.17300000000E+03 0.  1.
<mgrwt>
<rscale>  2 0.24522953E+03</rscale>
<asrwt>0</asrwt>
<pdfrwt beam="1">  1       21 0.11827137E+00 0.24522953E+03</pdfrwt>
<pdfrwt beam="2">  1       21 0.26140525E-01 0.24522953E+03</pdfrwt>
<totfact> 0.73412331E+03</totfact>
</mgrwt>
</event>
<event>
 4    2  0.3992997E+000  0.3102259E+03  0.7546771E-02  0.1080238E+00
         21   -1    0    0  503  502  0.00000000000E+00  0.00000000000E+00  0.11812237659E+04  0.11812237659E+04  0.00000000000E+00 0. -1.
         21   -1    0    0  501  503 -0.00000000000E+00 -0.00000000000E+00 -0.10230983963E+03  0.10230983963E+03  0.00000000000E+00 0.  1.
          6    1    1    2  501    0 -0.24085541048E+03 -0.91102999509E+02  0.24984620182E+03  0.39832550740E+03  0.17300000000E+03 0.  1.
         -6    1    1    2    0  502  0.24085541048E+03  0.91102999509E+02  0.82906772446E+03  0.88520809815E+03  0.17300000000E+03 0. -1.
<mgrwt>
<rscale>  2 0.31022586E+03</rscale>
<asrwt>0</asrwt>
<pdfrwt beam="1">  1       21 0.18172672E+00 0.31022586E+03</pdfrwt>
<pdfrwt beam="2">  1       21 0.15739976E-01 0.31022586E+03</pdfrwt>
<totfact> 0.58661554E+03</totfact>
</mgrwt>
</event>
<event>
 4    2  0.3992997E+000  0.1840039E+03  0.7546771E-02  0.1163983E+00
         21   -1    0    0  503  502  0.00000000000E+00  0.00000000000E+00  0.53360502506E+03  0.53360502506E+03  0.00000000000E+00 0. -1.
         21   -1    0    0  501  503 -0.00000000000E+00 -0.00000000000E+00 -0.68613054270E+02  0.68613054270E+02  0.00000000000E+00 0. -1.
          6    1    1    2  501    0  0.61932706349E+02  0.96318201915E+01  0.14990007743E+03  0.23733407950E+03  0.17300000000E+03 0.  1.
         -6    1    1    2    0  502 -0.61932706349E+02 -0.96318201915E+01  0.31509189335E+03  0.36488399983E+03  0.17300000000E+03 0.  1.
<mgrwt>
<rscale>  2 0.18400389E+03</rscale>
<asrwt>0</asrwt>
<pdfrwt beam="1">  1       21 0.82093078E-01 0.18400389E+03</pdfrwt>
<pdfrwt beam="2">  1       21 0.10555855E-01 0.18400389E+03</pdfrwt>
<totfact> 0.95980177E+04</totfact>
</mgrwt>
</event>
<event>
 4    2  0.3992997E+000  0.1746019E+03  0.7546771E-02  0.1173132E+00
         21   -1    0    0  501  502  0.00000000000E+00  0.00000000000E+00  0.18757694310E+03  0.18757694310E+03  0.00000000000E+00 0. -1.
         21   -1    0    0  502  503 -0.00000000000E+00 -0.00000000000E+00 -0.42705609060E+03  0.42705609060E+03  0.00000000000E+00 0. -1.
          6    1    1    2  501    0  0.21012283791E+02 -0.10738511575E+02  0.12213058466E+03  0.21307677351E+03  0.17300000000E+03 0. -1.
         -6    1    1    2    0  503 -0.21012283791E+02  0.10738511575E+02 -0.36160973216E+03  0.40155626018E+03  0.17300000000E+03 0. -1.
<mgrwt>
<rscale>  2 0.17460192E+03</rscale>
<asrwt>0</asrwt>
<pdfrwt beam="1">  1       21 0.28857991E-01 0.17460192E+03</pdfrwt>
<pdfrwt beam="2">  1       21 0.65700936E-01 0.17460192E+03</pdfrwt>
<totfact> 0.24723917E+04</totfact>
</mgrwt>
</event>
<event>
 4    2  0.3992997E+000  0.2331462E+03  0.7546771E-02  0.1124445E+00
         21   -1    0    0  503  502  0.00000000000E+00  0.00000000000E+00  0.52277184662E+03  0.52277184662E+03  0.00000000000E+00 0.  1.
         21   -1    0    0  501  503 -0.00000000000E+00 -0.00000000000E+00 -0.12209563094E+03  0.12209563094E+03  0.00000000000E+00 0. -1.
          6    1    1    2  501    0  0.61766930982E+02  0.14357234455E+03  0.76135151782E+02  0.24526258015E+03  0.17300000000E+03 0. -1.
         -6    1    1    2    0  502 -0.61766930982E+02 -0.14357234455E+03  0.32454106390E+03  0.39960489742E+03  0.17300000000E+03 0.  1.
<mgrwt>
<rscale>  2 0.23314625E+03</rscale>
<asrwt>0</asrwt>
<pdfrwt beam="1">  1       21 0.80426437E-01 0.23314625E+03</pdfrwt>
<pdfrwt beam="2">  1       21 0.18783943E-01 0.23314625E+03</pdfrwt>
<totfact> 0.34530008E+04</totfact>
</mgrwt>
</event>
<event>
 4    2  0.3992997E+000  0.1900860E+03  0.7546771E-02  0.1158384E+00
         21   -1    0    0  503  502  0.00000000000E+00  0.00000000000E+00  0.25611413817E+03  0.25611413817E+03  0.00000000000E+00 0.  1.
         21   -1    0    0  501  503 -0.00000000000E+00 -0.00000000000E+00 -0.29102390275E+03  0.29102390275E+03  0.00000000000E+00 0. -1.
          6    1    1    2  501    0 -0.21272834082E+02 -0.75836292801E+02 -0.21382095662E+03  0.28609802213E+03  0.17300000000E+03 0. -1.
         -6    1    1    2    0  502  0.21272834082E+02  0.75836292801E+02  0.17891119204E+03  0.26104001879E+03  0.17300000000E+03 0.  1.
<mgrwt>
<rscale>  2 0.19008597E+03</rscale>
<asrwt>0</asrwt>
<pdfrwt beam="1">  1       21 0.39402175E-01 0.19008597E+03</pdfrwt>
<pdfrwt beam="2">  1       21 0.44772908E-01 0.19008597E+03</pdfrwt>
<totfact> 0.29773267E+04</totfact>
</mgrwt>
</event>
<event>
 4    2  0.3992997E+000  0.1786789E+03  0.7546771E-02  0.1169088E+00
         21   -1    0    0  503  502  0.00000000000E+00  0.00000000000E+00  0.12188843755E+03  0.12188843755E+03  0.00000000000E+00 0.  1.
         21   -1    0    0  501  503 -0.00000000000E+00 -0.00000000000E+00 -0.32173616205E+03  0.32173616205E+03  0.00000000000E+00 0. -1.
          6    1    1    2  501    0  0.26415908972E+02  0.36046476638E+02 -0.42900814379E+01  0.17873039340E+03  0.17300000000E+03 0.  1.
         -6    1    1    2    0  502 -0.26415908972E+02 -0.36046476638E+02 -0.19555764306E+03  0.26489420621E+03  0.17300000000E+03 0. -1.
<mgrwt>
<rscale>  2 0.17867890E+03</rscale>
<asrwt>0</asrwt>
<pdfrwt beam="1">  1       21 0.18752068E-01 0.17867890E+03</pdfrwt>
<pdfrwt beam="2">  1       21 0.49497870E-01 0.17867890E+03</pdfrwt>
<totfact> 0.10181206E+05</totfact>
</mgrwt>
</event>
<event>
 4    2  0.3992997E+000  0.1857122E+03  0.7546771E-02  0.1162387E+00
         21   -1    0    0  503  502  0.00000000000E+00  0.00000000000E+00  0.80653104269E+03  0.80653104269E+03  0.00000000000E+00 0.  1.
         21   -1    0    0  501  503 -0.00000000000E+00 -0.00000000000E+00 -0.60085306527E+02  0.60085306527E+02  0.00000000000E+00 0.  1.
          6    1    1    2  501    0 -0.89058937325E-01  0.67527795658E+02  0.14056052044E+03  0.23290828887E+03  0.17300000000E+03 0. -1.
         -6    1    1    2    0  502  0.89058937325E-01 -0.67527795658E+02  0.60588521572E+03  0.63370806035E+03  0.17300000000E+03 0. -1.
<mgrwt>
<rscale>  2 0.18571217E+03</rscale>
<asrwt>0</asrwt>
<pdfrwt beam="1">  1       21 0.12408169E+00 0.18571217E+03</pdfrwt>
<pdfrwt beam="2">  1       21 0.92438939E-02 0.18571217E+03</pdfrwt>
<totfact> 0.45454982E+04</totfact>
</mgrwt>
</event>
<event>
 4    2  0.3992997E+000  0.1777932E+03  0.7546771E-02  0.1169956E+00
         21   -1    0    0  503  502  0.00000000000E+00  0.00000000000E+00  0.15795470748E+03  0.15795470748E+03  0.00000000000E+00 0.  1.
         21   -1    0    0  501  503 -0.00000000000E+00 -0.00000000000E+00 -0.26001763027E+03  0.26001763027E+03  0.00000000000E+00 0.  1.
          6    1    1    2  501    0 -0.36166071241E+02  0.19324980177E+02 -0.15133320723E+03  0.23347843408E+03  0.17300000000E+03 0. -1.
         -6    1    1    2    0  502  0.36166071241E+02 -0.19324980177E+02  0.49270284438E+02  0.18449390368E+03  0.17300000000E+03 0. -1.
<mgrwt>
<rscale>  2 0.17779325E+03</rscale>
<asrwt>0</asrwt>
<pdfrwt beam="1">  1       21 0.24300724E-01 0.17779325E+03</pdfrwt>
<pdfrwt beam="2">  1       21 0.40002712E-01 0.17779325E+03</pdfrwt>
<totfact> 0.96841936E+04</totfact>
</mgrwt>
</event>
<event>
 4    2  0.3992997E+000  0.2430864E+03  0.7546771E-02  0.1117754E+00
         21   -1    0    0  503  502  0.00000000000E+00  0.00000000000E+00  0.12297028523E+04  0.12297028523E+04  0.00000000000E+00 0. -1.
         21   -1    0    0  501  503 -0.00000000000E+00 -0.00000000000E+00 -0.48313225471E+02  0.48313225471E+02  0.00000000000E+00 0.  1.
          6    1    1    2  501    0 -0.15757226845E+03 -0.65825396900E+02  0.54380417912E+03  0.59566264604E+03  0.17300000000E+03 0.  1.
         -6    1    1    2    0  502  0.15757226845E+03  0.65825396900E+02  0.63758544773E+03  0.68235343175E+03  0.17300000000E+03 0.  1.
<mgrwt>
<rscale>  2 0.24308641E+03</rscale>
<asrwt>0</asrwt>
<pdfrwt beam="1">  1       21 0.18918503E+00 0.24308641E+03</pdfrwt>
<pdfrwt beam="2">  1       21 0.74328049E-02 0.24308641E+03</pdfrwt>
<totfact> 0.20811559E+04</totfact>
</mgrwt>
</event>
<event>
 4    2  0.3992997E+000  0.3079969E+03  0.7546771E-02  0.1081310E+00
         21   -1    0    0  501  502  0.00000000000E+00  0.00000000000E+00  0.17971641874E+03  0.17971641874E+03  0.00000000000E+00 0.  1.
         21   -1    0    0  502  503 -0.00000000000E+00 -0.00000000000E+00 -0.81889250833E+03  0.81889250833E+03  0.00000000000E+00 0. -1.
          6    1    1    2  501    0  0.17917734043E+03 -0.18118658715E+03 -0.61725816808E+03  0.68983312819E+03  0.17300000000E+03 0. -1.
         -6    1    1    2    0  503 -0.17917734043E+03  0.18118658715E+03 -0.21917921513E+02  0.30877579887E+03  0.17300000000E+03 0.  1.
<mgrwt>
<rscale>  2 0.30799691E+03</rscale>
<asrwt>0</asrwt>
<pdfrwt beam="1">  1       21 0.27648680E-01 0.30799691E+03</pdfrwt>
<pdfrwt beam="2">  1       21 0.12598346E+00 0.30799691E+03</pdfrwt>
<totfact> 0.54225143E+03</totfact>
</mgrwt>
</event>
<event>
 4    2  0.3992997E+000  0.1758161E+03  0.7546771E-02  0.1171915E+00
         21   -1    0    0  501  502  0.00000000000E+00  0.00000000000E+00  0.27585433729E+04  0.27585433729E+04  0.00000000000E+00 0. -1.
         21   -1    0    0  502  503 -0.00000000000E+00 -0.00000000000E+00 -0.19989728928E+02  0.19989728928E+02  0.00000000000E+00 0. -1.
          6    1    1    2  501    0  0.17970494148E+01  0.31290373017E+02  0.22902136399E+04  0.22969522923E+04  0.17300000000E+03 0. -1.
         -6    1    1    2    0  503 -0.17970494148E+01 -0.31290373017E+02  0.44834000407E+03  0.48158080950E+03  0.17300000000E+03 0. -1.
<mgrwt>
<rscale>  2 0.17581614E+03</rscale>
<asrwt>0</asrwt>
<pdfrwt beam="1">  1       21 0.42439099E+00 0.17581614E+03</pdfrwt>
<pdfrwt beam="2">  1       21 0.30753451E-02 0.17581614E+03</pdfrwt>
<totfact> 0.38062459E+03</totfact>
</mgrwt>
</event>
<event>
 4    2  0.3992997E+000  0.1882117E+03  0.7546771E-02  0.1160084E+00
         21   -1    0    0  501  502  0.00000000000E+00  0.00000000000E+00  0.14565930391E+03  0.14565930391E+03  0.00000000000E+00 0. -1.
         21   -1    0    0  502  503 -0.00000000000E+00 -0.00000000000E+00 -0.31458849618E+03  0.31458849618E+03  0.00000000000E+00 0. -1.
          6    1    1    2  501    0 -0.51143826520E+02  0.53656010241E+02  0.25162702593E+02  0.18988633449E+03  0.17300000000E+03 0. -1.
         -6    1    1    2    0  503  0.51143826520E+02 -0.53656010241E+02 -0.19409189487E+03  0.27036146560E+03  0.17300000000E+03 0. -1.
<mgrwt>
<rscale>  2 0.18821174E+03</rscale>
<asrwt>0</asrwt>
<pdfrwt beam="1">  1       21 0.22409124E-01 0.18821174E+03</pdfrwt>
<pdfrwt beam="2">  1       21 0.48398230E-01 0.18821174E+03</pdfrwt>
<totfact> 0.76158559E+04</totfact>
</mgrwt>
</event>
<event>
 4    2  0.3992997E+000  0.2533989E+03  0.7546771E-02  0.1111175E+00
         21   -1    0    0  503  502  0.00000000000E+00  0.00000000000E+00  0.27693216134E+03  0.27693216134E+03  0.00000000000E+00 0. -1.
         21   -1    0    0  501  503 -0.00000000000E+00 -0.00000000000E+00 -0.23201150343E+03  0.23201150343E+03  0.00000000000E+00 0. -1.
          6    1    1    2  501    0 -0.13594139531E+02  0.18465431283E+03  0.16076860792E+02  0.25390841130E+03  0.17300000000E+03 0. -1.
         -6    1    1    2    0  502  0.13594139531E+02 -0.18465431283E+03  0.28843797116E+02  0.25503525346E+03  0.17300000000E+03 0. -1.
<mgrwt>
<rscale>  2 0.25339893E+03</rscale>
<asrwt>0</asrwt>
<pdfrwt beam="1">  1       21 0.42604948E-01 0.25339893E+03</pdfrwt>
<pdfrwt beam="2">  1       21 0.35694078E-01 0.25339893E+03</pdfrwt>
<totfact> 0.38985642E+04</totfact>
</mgrwt>
</event>
<event>
 4    2  0.3992997E+000  0.2149506E+03  0.7546771E-02  0.1137705E+00
         21   -1    0    0  503  502  0.00000000000E+00  0.00000000000E+00  0.35218767321E+03  0.35218767321E+03  0.00000000000E+00 0. -1.
         21   -1    0    0  501  503 -0.00000000000E+00 -0.00000000000E+00 -0.15292338040E+03  0.15292338040E+03  0.00000000000E+00 0.  1.
          6    1    1    2  501    0 -0.49367802589E+02 -0.11763326112E+03  0.44235625067E+01  0.21499612080E+03  0.17300000000E+03 0.  1.
         -6    1    1    2    0  502  0.49367802589E+02  0.11763326112E+03  0.19484073030E+03  0.29011493281E+03  0.17300000000E+03 0. -1.
<mgrwt>
<rscale>  2 0.21495061E+03</rscale>
<asrwt>0</asrwt>
<pdfrwt beam="1">  1       21 0.54182719E-01 0.21495061E+03</pdfrwt>
<pdfrwt beam="2">  1       21 0.23526674E-01 0.21495061E+03</pdfrwt>
<totfact> 0.54168249E+04</totfact>
</mgrwt>
</event>
<event>
 4    2  0.3992997E+000  0.2421398E+03  0.7546771E-02  0.1118376E+00
         21   -1    0    0  503  502  0.00000000000E+00  0.00000000000E+00  0.12227576715E+04  0.12227576715E+04  0.00000000000E+00 0. -1.
         21   -1    0    0  501  503 -0.00000000000E+00 -0.00000000000E+00 -0.11694209702E+03  0.11694209702E+03  0.00000000000E+00 0.  1.
          6    1    1    2  501    0  0.16938970402E+03  0.31297229034E+01  0.38401605876E+02  0.24516596486E+03  0.17300000000E+03 0.  1.
         -6    1    1    2    0  502 -0.16938970402E+03 -0.31297229034E+01  0.10674139686E+04  0.10945338037E+04  0.17300000000E+03 0. -1.
<mgrwt>
<rscale>  2 0.24213977E+03</rscale>
<asrwt>0</asrwt>
<pdfrwt beam="1">  1       21 0.18811656E+00 0.24213977E+03</pdfrwt>
<pdfrwt beam="2">  1       21 0.17991093E-01 0.24213977E+03</pdfrwt>
<totfact> 0.43266781E+03</totfact>
</mgrwt>
</event>
<event>
 4    2  0.3992997E+000  0.2044817E+03  0.7546771E-02  0.1146012E+00
         21   -1    0    0  501  502  0.00000000000E+00  0.00000000000E+00  0.13863667725E+03  0.13863667725E+03  0.00000000000E+00 0.  1.
         21   -1    0    0  502  503 -0.00000000000E+00 -0.00000000000E+00 -0.51217254360E+03  0.51217254360E+03  0.00000000000E+00 0. -1.
          6    1    1    2  501    0 -0.92717433569E+02  0.57334603158E+02  0.21881276540E+02  0.20564914167E+03  0.17300000000E+03 0.  1.
         -6    1    1    2    0  503  0.92717433569E+02 -0.57334603158E+02 -0.39541714289E+03  0.44516007918E+03  0.17300000000E+03 0. -1.
<mgrwt>
<rscale>  2 0.20448173E+03</rscale>
<asrwt>0</asrwt>
<pdfrwt beam="1">  1       21 0.21328720E-01 0.20448173E+03</pdfrwt>
<pdfrwt beam="2">  1       21 0.78795775E-01 0.20448173E+03</pdfrwt>
<totfact> 0.28929624E+04</totfact>
</mgrwt>
</event>
<event>
 4    2  0.3992997E+000  0.2117161E+03  0.7546771E-02  0.1140214E+00
         21   -1    0    0  501  502  0.00000000000E+00  0.00000000000E+00  0.36826504234E+02  0.36826504234E+02  0.00000000000E+00 0. -1.
         21   -1    0    0  502  503 -0.00000000000E+00 -0.00000000000E+00 -0.17911631652E+04  0.17911631652E+04  0.00000000000E+00 0.  1.
          6    1    1    2  501    0  0.11756526626E+03 -0.32758194061E+02 -0.35975943192E+03  0.41743327607E+03  0.17300000000E+03 0. -1.
         -6    1    1    2    0  503 -0.11756526626E+03  0.32758194061E+02 -0.13945772291E+04  0.14105563934E+04  0.17300000000E+03 0.  1.
<mgrwt>
<rscale>  2 0.21171606E+03</rscale>
<asrwt>0</asrwt>
<pdfrwt beam="1">  1       21 0.56656170E-02 0.21171606E+03</pdfrwt>
<pdfrwt beam="2">  1       21 0.27556352E+00 0.21171606E+03</pdfrwt>
<totfact> 0.10075526E+04</totfact>
</mgrwt>
</event>
<event>
 4    2  0.3992997E+000  0.2404999E+03  0.7546771E-02  0.1119460E+00
         21   -1    0    0  503  502  0.00000000000E+00  0.00000000000E+00  0.15526372895E+03  0.15526372895E+03  0.00000000000E+00 0.  1.
         21   -1    0    0  501  503 -0.00000000000E+00 -0.00000000000E+00 -0.43192953946E+03  0.43192953946E+03  0.00000000000E+00 0. -1.
          6    1    1    2  501    0  0.15954642574E+03 -0.49559500090E+02 -0.24721103539E+03  0.34489636420E+03  0.17300000000E+03 0. -1.
         -6    1    1    2    0  502 -0.15954642574E+03  0.49559500090E+02 -0.29454775121E+02  0.24229690422E+03  0.17300000000E+03 0. -1.
<mgrwt>
<rscale>  2 0.24049991E+03</rscale>
<asrwt>0</asrwt>
<pdfrwt beam="1">  1       21 0.23886728E-01 0.24049991E+03</pdfrwt>
<pdfrwt beam="2">  1       21 0.66450696E-01 0.24049991E+03</pdfrwt>
<totfact> 0.33497223E+04</totfact>
</mgrwt>
</event>
<event>
 4    2  0.3992997E+000  0.1842372E+03  0.7546771E-02  0.1163764E+00
         21   -1    0    0  503  502  0.00000000000E+00  0.00000000000E+00  0.19810525510E+03  0.19810525510E+03  0.00000000000E+00 0. -1.
         21   -1    0    0  501  503 -0.00000000000E+00 -0.00000000000E+00 -0.18289659179E+03  0.18289659179E+03  0.00000000000E+00 0. -1.
          6    1    1    2  501    0 -0.59384593248E+02 -0.22086279248E+02 -0.40281952125E+02  0.18858941994E+03  0.17300000000E+03 0. -1.
         -6    1    1    2    0  502  0.59384593248E+02  0.22086279248E+02  0.55490615434E+02  0.19241242696E+03  0.17300000000E+03 0. -1.
<mgrwt>
<rscale>  2 0.18423717E+03</rscale>
<asrwt>0</asrwt>
<pdfrwt beam="1">  1       21 0.30477732E-01 0.18423717E+03</pdfrwt>
<pdfrwt beam="2">  1       21 0.28137937E-01 0.18423717E+03</pdfrwt>
<totfact> 0.12505974E+05</totfact>
</mgrwt>
</event>
<event>
 4    2  0.3992997E+000  0.3144803E+03  0.7546771E-02  0.1078218E+00
         21   -1    0    0  503  502  0.00000000000E+00  0.00000000000E+00  0.55039363664E+03  0.55039363664E+03  0.00000000000E+00 0.  1.
         21   -1    0    0  501  503 -0.00000000000E+00 -0.00000000000E+00 -0.19917383872E+03  0.19917383872E+03  0.00000000000E+00 0.  1.
          6    1    1    2  501    0 -0.23635508134E+03 -0.11447774806E+03  0.29284279703E+03  0.42971476941E+03  0.17300000000E+03 0.  1.
         -6    1    1    2    0  502  0.23635508134E+03  0.11447774806E+03  0.58377000890E+02  0.31985270596E+03  0.17300000000E+03 0.  1.
<mgrwt>
<rscale>  2 0.31448033E+03</rscale>
<asrwt>0</asrwt>
<pdfrwt beam="1">  1       21 0.84675944E-01 0.31448033E+03</pdfrwt>
<pdfrwt beam="2">  1       21 0.30642129E-01 0.31448033E+03</pdfrwt>
<totfact> 0.11573261E+04</totfact>
</mgrwt>
</event>
<event>
 4    2  0.3992997E+000  0.1784675E+03  0.7546771E-02  0.1169295E+00
         21   -1    0    0  501  502  0.00000000000E+00  0.00000000000E+00  0.16880940174E+03  0.16880940174E+03  0.00000000000E+00 0. -1.
         21   -1    0    0  502  503 -0.00000000000E+00 -0.00000000000E+00 -0.19071557811E+03  0.19071557811E+03  0.00000000000E+00 0. -1.
          6    1    1    2  501    0  0.98490027754E+01 -0.42715706949E+02  0.76272739865E+01  0.17863037195E+03  0.17300000000E+03 0.  1.
         -6    1    1    2    0  503 -0.98490027754E+01  0.42715706949E+02 -0.29533450353E+02  0.18089460790E+03  0.17300000000E+03 0.  1.
<mgrwt>
<rscale>  2 0.17846746E+03</rscale>
<asrwt>0</asrwt>
<pdfrwt beam="1">  1       21 0.25970677E-01 0.17846746E+03</pdfrwt>
<pdfrwt beam="2">  1       21 0.29340858E-01 0.17846746E+03</pdfrwt>
<totfact> 0.15739691E+05</totfact>
</mgrwt>
</event>
<event>
 4    2  0.3992997E+000  0.1990655E+03  0.7546771E-02  0.1150530E+00
         21   -1    0    0  503  502  0.00000000000E+00  0.00000000000E+00  0.46440516046E+03  0.46440516046E+03  0.00000000000E+00 0.  1.
         21   -1    0    0  501  503 -0.00000000000E+00 -0.00000000000E+00 -0.10545454629E+03  0.10545454629E+03  0.00000000000E+00 0.  1.
          6    1    1    2  501    0  0.67785477297E+02  0.71436787051E+02  0.30395039725E+03  0.36333583564E+03  0.17300000000E+03 0.  1.
         -6    1    1    2    0  502 -0.67785477297E+02 -0.71436787051E+02  0.55000216924E+02  0.20652387111E+03  0.17300000000E+03 0.  1.
<mgrwt>
<rscale>  2 0.19906553E+03</rscale>
<asrwt>0</asrwt>
<pdfrwt beam="1">  1       21 0.71446946E-01 0.19906553E+03</pdfrwt>
<pdfrwt beam="2">  1       21 0.16223777E-01 0.19906553E+03</pdfrwt>
<totfact> 0.60019066E+04</totfact>
</mgrwt>
</event>
<event>
 4    2  0.3992997E+000  0.1775506E+03  0.7546771E-02  0.1170195E+00
         21   -1    0    0  503  502  0.00000000000E+00  0.00000000000E+00  0.72313098724E+03  0.72313098724E+03  0.00000000000E+00 0. -1.
         21   -1    0    0  501  503 -0.00000000000E+00 -0.00000000000E+00 -0.45548363177E+02  0.45548363177E+02  0.00000000000E+00 0.  1.
          6    1    1    2  501    0 -0.37808206589E+02 -0.12873949595E+02  0.25917952945E+03  0.31416274055E+03  0.17300000000E+03 0.  1.
         -6    1    1    2    0  502  0.37808206589E+02  0.12873949595E+02  0.41840309461E+03  0.45451660986E+03  0.17300000000E+03 0. -1.
<mgrwt>
<rscale>  2 0.17755055E+03</rscale>
<asrwt>0</asrwt>
<pdfrwt beam="1">  1       21 0.11125091E+00 0.17755055E+03</pdfrwt>
<pdfrwt beam="2">  1       21 0.70074410E-02 0.17755055E+03</pdfrwt>
<totfact> 0.96571117E+04</totfact>
</mgrwt>
</event>
<event>
 4    2  0.3992997E+000  0.1772234E+03  0.7546771E-02  0.1170518E+00
         21   -1    0    0  503  502  0.00000000000E+00  0.00000000000E+00  0.19426069909E+03  0.19426069909E+03  0.00000000000E+00 0.  1.
         21   -1    0    0  501  503 -0.00000000000E+00 -0.00000000000E+00 -0.18479918963E+03  0.18479918963E+03  0.00000000000E+00 0.  1.
          6    1    1    2  501    0 -0.15302022792E+02 -0.35284223319E+02 -0.62305737245E+02  0.18785668263E+03  0.17300000000E+03 0.  1.
         -6    1    1    2    0  502  0.15302022792E+02  0.35284223319E+02  0.71767246708E+02  0.19120320608E+03  0.17300000000E+03 0.  1.
<mgrwt>
<rscale>  2 0.17722339E+03</rscale>
<asrwt>0</asrwt>
<pdfrwt beam="1">  1       21 0.29886261E-01 0.17722339E+03</pdfrwt>
<pdfrwt beam="2">  1       21 0.28430645E-01 0.17722339E+03</pdfrwt>
<totfact> 0.12766269E+05</totfact>
</mgrwt>
</event>
<event>
 4    2  0.3992997E+000  0.2936763E+03  0.7546771E-02  0.1088445E+00
         21   -1    0    0  501  502  0.00000000000E+00  0.00000000000E+00  0.93072650451E+03  0.93072650451E+03  0.00000000000E+00 0.  1.
         21   -1    0    0  502  503 -0.00000000000E+00 -0.00000000000E+00 -0.93249102805E+02  0.93249102805E+02  0.00000000000E+00 0. -1.
          6    1    1    2  501    0 -0.23729471356E+03 -0.28292040167E+01  0.37821805456E+03  0.47884724315E+03  0.17300000000E+03 0. -1.
         -6    1    1    2    0  503  0.23729471356E+03  0.28292040167E+01  0.45925934715E+03  0.54512836417E+03  0.17300000000E+03 0.  1.
<mgrwt>
<rscale>  2 0.29367633E+03</rscale>
<asrwt>0</asrwt>
<pdfrwt beam="1">  1       21 0.14318869E+00 0.29367633E+03</pdfrwt>
<pdfrwt beam="2">  1       21 0.14346016E-01 0.29367633E+03</pdfrwt>
<totfact> 0.13529249E+04</totfact>
</mgrwt>
</event>
<event>
 4    2  0.3992997E+000  0.1780913E+03  0.7546771E-02  0.1169663E+00
         21   -1    0    0  503  502  0.00000000000E+00  0.00000000000E+00  0.60922232941E+02  0.60922232941E+02  0.00000000000E+00 0.  1.
         21   -1    0    0  501  503 -0.00000000000E+00 -0.00000000000E+00 -0.52812518166E+03  0.52812518166E+03  0.00000000000E+00 0.  1.
          6    1    1    2  501    0  0.42251336973E+02 -0.15308673716E+01 -0.19846011089E+03  0.26665133536E+03  0.17300000000E+03 0.  1.
         -6    1    1    2    0  502 -0.42251336973E+02  0.15308673716E+01 -0.26874283783E+03  0.32239607925E+03  0.17300000000E+03 0.  1.
<mgrwt>
<rscale>  2 0.17809132E+03</rscale>
<asrwt>0</asrwt>
<pdfrwt beam="1">  1       21 0.93726512E-02 0.17809132E+03</pdfrwt>
<pdfrwt beam="2">  1       21 0.81250028E-01 0.17809132E+03</pdfrwt>
<totfact> 0.12144667E+05</totfact>
</mgrwt>
</event>
<event>
 4    2  0.3992997E+000  0.1958628E+03  0.7546771E-02  0.1153277E+00
         21   -1    0    0  503  502  0.00000000000E+00  0.00000000000E+00  0.31329292970E+02  0.31329292970E+02  0.00000000000E+00 0. -1.
         21   -1    0    0  501  503 -0.00000000000E+00 -0.00000000000E+00 -0.12244849283E+04  0.12244849283E+04  0.00000000000E+00 0.  1.
          6    1    1    2  501    0  0.39602502358E+02 -0.82854622043E+02 -0.59664734276E+03  0.62797316679E+03  0.17300000000E+03 0.  1.
         -6    1    1    2    0  502 -0.39602502358E+02  0.82854622043E+02 -0.59650829260E+03  0.62784105451E+03  0.17300000000E+03 0.  1.
<mgrwt>
<rscale>  2 0.19586283E+03</rscale>
<asrwt>0</asrwt>
<pdfrwt beam="1">  1       21 0.48198905E-02 0.19586283E+03</pdfrwt>
<pdfrwt beam="2">  1       21 0.18838233E+00 0.19586283E+03</pdfrwt>
<totfact> 0.45661679E+04</totfact>
</mgrwt>
</event>
<event>
 4    2  0.3992997E+000  0.1933480E+03  0.7546771E-02  0.1155476E+00
         21   -1    0    0  503  502  0.00000000000E+00  0.00000000000E+00  0.16985210711E+04  0.16985210711E+04  0.00000000000E+00 0.  1.
         21   -1    0    0  501  503 -0.00000000000E+00 -0.00000000000E+00 -0.35988013408E+02  0.35988013408E+02  0.00000000000E+00 0.  1.
          6    1    1    2  501    0 -0.66103411914E+02  0.55540817862E+02  0.29076171435E+03  0.34917877663E+03  0.17300000000E+03 0.  1.
         -6    1    1    2    0  502  0.66103411914E+02 -0.55540817862E+02  0.13717713433E+04  0.13853303079E+04  0.17300000000E+03 0.  1.
<mgrwt>
<rscale>  2 0.19334799E+03</rscale>
<asrwt>0</asrwt>
<pdfrwt beam="1">  1       21 0.26131087E+00 0.19334799E+03</pdfrwt>
<pdfrwt beam="2">  1       21 0.55366188E-02 0.19334799E+03</pdfrwt>
<totfact> 0.12906083E+04</totfact>
</mgrwt>
</event>
<event>
 4    2  0.3992997E+000  0.3030355E+03  0.7546771E-02  0.1083733E+00
         21   -1    0    0  503  502  0.00000000000E+00  0.00000000000E+00  0.14271285175E+03  0.14271285175E+03  0.00000000000E+00 0. -1.
         21   -1    0    0  501  503 -0.00000000000E+00 -0.00000000000E+00 -0.66152532247E+03  0.66152532247E+03  0.00000000000E+00 0.  1.
          6    1    1    2  501    0 -0.14181266016E+03 -0.20442776496E+03 -0.32585083043E+03  0.44498236522E+03  0.17300000000E+03 0. -1.
         -6    1    1    2    0  502  0.14181266016E+03  0.20442776496E+03 -0.19296164029E+03  0.35925580899E+03  0.17300000000E+03 0.  1.
<mgrwt>
<rscale>  2 0.30303555E+03</rscale>
<asrwt>0</asrwt>
<pdfrwt beam="1">  1       21 0.21955823E-01 0.30303555E+03</pdfrwt>
<pdfrwt beam="2">  1       21 0.10177313E+00 0.30303555E+03</pdfrwt>
<totfact> 0.14373477E+04</totfact>
</mgrwt>
</event>
<event>
 4    2  0.3992997E+000  0.2211108E+03  0.7546771E-02  0.1133058E+00
         21   -1    0    0  503  502  0.00000000000E+00  0.00000000000E+00  0.11146221761E+04  0.11146221761E+04  0.00000000000E+00 0. -1.
         21   -1    0    0  501  503 -0.00000000000E+00 -0.00000000000E+00 -0.12980995773E+03  0.12980995773E+03  0.00000000000E+00 0.  1.
          6    1    1    2  501    0  0.13519441067E+03  0.26143289343E+02 -0.13889306618E+02  0.22154663864E+03  0.17300000000E+03 0.  1.
         -6    1    1    2    0  502 -0.13519441067E+03 -0.26143289343E+02  0.99870152504E+03  0.10228854952E+04  0.17300000000E+03 0. -1.
<mgrwt>
<rscale>  2 0.22111083E+03</rscale>
<asrwt>0</asrwt>
<pdfrwt beam="1">  1       21 0.17148033E+00 0.22111083E+03</pdfrwt>
<pdfrwt beam="2">  1       21 0.19970763E-01 0.22111083E+03</pdfrwt>
<totfact> 0.47077305E+03</totfact>
</mgrwt>
</event>
<event>
 4    2  0.3992997E+000  0.2754192E+03  0.7546771E-02  0.1098218E+00
         21   -1    0    0  503  502  0.00000000000E+00  0.00000000000E+00  0.34218052785E+03  0.34218052785E+03  0.00000000000E+00 0. -1.
         21   -1    0    0  501  503 -0.00000000000E+00 -0.00000000000E+00 -0.47808219598E+03  0.47808219598E+03  0.00000000000E+00 0. -1.
          6    1    1    2  501    0 -0.17672372130E+03  0.12122478481E+03 -0.36830228677E+03  0.45989378835E+03  0.17300000000E+03 0. -1.
         -6    1    1    2    0  502  0.17672372130E+03 -0.12122478481E+03  0.23240061864E+03  0.36036893549E+03  0.17300000000E+03 0. -1.
<mgrwt>
<rscale>  2 0.27541918E+03</rscale>
<asrwt>0</asrwt>
<pdfrwt beam="1">  1       21 0.52643158E-01 0.27541918E+03</pdfrwt>
<pdfrwt beam="2">  1       21 0.73551107E-01 0.27541918E+03</pdfrwt>
<totfact> 0.53794624E+03</totfact>
</mgrwt>
</event>
<event>
 4    2  0.3992997E+000  0.2638521E+03  0.7546771E-02  0.1104851E+00
         21   -1    0    0  503  502  0.00000000000E+00  0.00000000000E+00  0.33160256877E+03  0.33160256877E+03  0.00000000000E+00 0.  1.
         21   -1    0    0  501  503 -0.00000000000E+00 -0.00000000000E+00 -0.29024013672E+03  0.29024013672E+03  0.00000000000E+00 0. -1.
          6    1    1    2  501    0  0.17405592605E+03 -0.96919998790E+02 -0.14285701164E+03  0.30004345908E+03  0.17300000000E+03 0. -1.
         -6    1    1    2    0  502 -0.17405592605E+03  0.96919998790E+02  0.18421944369E+03  0.32179924641E+03  0.17300000000E+03 0.  1.
<mgrwt>
<rscale>  2 0.26385214E+03</rscale>
<asrwt>0</asrwt>
<pdfrwt beam="1">  1       21 0.51015780E-01 0.26385214E+03</pdfrwt>
<pdfrwt beam="2">  1       21 0.44652329E-01 0.26385214E+03</pdfrwt>
<totfact> 0.16919317E+04</totfact>
</mgrwt>
</event>
<event>
 4    2  0.3992997E+000  0.2253584E+03  0.7546771E-02  0.1129950E+00
         21   -1    0    0  501  502  0.00000000000E+00  0.00000000000E+00  0.31585356201E+03  0.31585356201E+03  0.00000000000E+00 0. -1.
         21   -1    0    0  502  503 -0.00000000000E+00 -0.00000000000E+00 -0.39118948476E+03  0.39118948476E+03  0.00000000000E+00 0. -1.
          6    1    1    2  501    0 -0.19679134400E+01  0.14440760901E+03  0.23363967825E+03  0.32461350785E+03  0.17300000000E+03 0. -1.
         -6    1    1    2    0  503  0.19679134400E+01 -0.14440760901E+03 -0.30897560100E+03  0.38242953892E+03  0.17300000000E+03 0. -1.
<mgrwt>
<rscale>  2 0.22535845E+03</rscale>
<asrwt>0</asrwt>
<pdfrwt beam="1">  1       21 0.48592856E-01 0.22535845E+03</pdfrwt>
<pdfrwt beam="2">  1       21 0.60182998E-01 0.22535845E+03</pdfrwt>
<totfact> 0.10188303E+04</totfact>
</mgrwt>
</event>
<event>
 4    2  0.3992997E+000  0.1844854E+03  0.7546771E-02  0.1163531E+00
         21   -1    0    0  501  502  0.00000000000E+00  0.00000000000E+00  0.11569122854E+03  0.11569122854E+03  0.00000000000E+00 0.  1.
         21   -1    0    0  502  503 -0.00000000000E+00 -0.00000000000E+00 -0.58712147500E+03  0.58712147500E+03  0.00000000000E+00 0.  1.
          6    1    1    2  501    0  0.42082867448E+02  0.48320571553E+02  0.12501539378E+02  0.18490844722E+03  0.17300000000E+03 0.  1.
         -6    1    1    2    0  503 -0.42082867448E+02 -0.48320571553E+02 -0.48393178583E+03  0.51790425631E+03  0.17300000000E+03 0.  1.
<mgrwt>
<rscale>  2 0.18448535E+03</rscale>
<asrwt>0</asrwt>
<pdfrwt beam="1">  1       21 0.17798651E-01 0.18448535E+03</pdfrwt>
<pdfrwt beam="2">  1       21 0.90326379E-01 0.18448535E+03</pdfrwt>
<totfact> 0.29999631E+04</totfact>
</mgrwt>
</event>
<event>
 4    2  0.3992997E+000  0.2221304E+03  0.7546771E-02  0.1132305E+00
         21   -1    0    0  503  502  0.00000000000E+00  0.00000000000E+00  0.13494364534E+04  0.13494364534E+04  0.00000000000E+00 0.  1.
         21   -1    0    0  501  503 -0.00000000000E+00 -0.00000000000E+00 -0.13451089342E+03  0.13451089342E+03  0.00000000000E+00 0.  1.
          6    1    1    2  501    0 -0.13159714634E+03  0.45772391716E+02 -0.25682319756E+02  0.22361015700E+03  0.17300000000E+03 0.  1.
         -6    1    1    2    0  502  0.13159714634E+03 -0.45772391716E+02  0.12406078798E+04  0.12603371898E+04  0.17300000000E+03 0.  1.
<mgrwt>
<rscale>  2 0.22213041E+03</rscale>
<asrwt>0</asrwt>
<pdfrwt beam="1">  1       21 0.20760560E+00 0.22213041E+03</pdfrwt>
<pdfrwt beam="2">  1       21 0.20693985E-01 0.22213041E+03</pdfrwt>
<totfact> 0.25277770E+03</totfact>
</mgrwt>
</event>
<event>
 4    2  0.3992997E+000  0.2203409E+03  0.7546771E-02  0.1133629E+00
         21   -1    0    0  503  502  0.00000000000E+00  0.00000000000E+00  0.87970304264E+03  0.87970304264E+03  0.00000000000E+00 0. -1.
         21   -1    0    0  501  503 -0.00000000000E+00 -0.00000000000E+00 -0.95761419391E+02  0.95761419391E+02  0.00000000000E+00 0. -1.
          6    1    1    2  501    0 -0.22346422729E+02 -0.13461701912E+03  0.74502364235E+02  0.23259558620E+03  0.17300000000E+03 0. -1.
         -6    1    1    2    0  502  0.22346422729E+02  0.13461701912E+03  0.70943925901E+03  0.74286887583E+03  0.17300000000E+03 0. -1.
<mgrwt>
<rscale>  2 0.22034088E+03</rscale>
<asrwt>0</asrwt>
<pdfrwt beam="1">  1       21 0.13533892E+00 0.22034088E+03</pdfrwt>
<pdfrwt beam="2">  1       21 0.14732527E-01 0.22034088E+03</pdfrwt>
<totfact> 0.15534218E+04</totfact>
</mgrwt>
</event>
<event>
 4    2  0.3992997E+000  0.1825497E+03  0.7546771E-02  0.1165358E+00
         21   -1    0    0  501  502  0.00000000000E+00  0.00000000000E+00  0.37342047207E+03  0.37342047207E+03  0.00000000000E+00 0. -1.
         21   -1    0    0  502  503 -0.00000000000E+00 -0.00000000000E+00 -0.90085552468E+02  0.90085552468E+02  0.00000000000E+00 0. -1.
          6    1    1    2  501    0 -0.41136729531E+02  0.41269594157E+02  0.11922783665E+03  0.21803597628E+03  0.17300000000E+03 0. -1.
         -6    1    1    2    0  503  0.41136729531E+02 -0.41269594157E+02  0.16410708295E+03  0.24547004826E+03  0.17300000000E+03 0. -1.
<mgrwt>
<rscale>  2 0.18254975E+03</rscale>
<asrwt>0</asrwt>
<pdfrwt beam="1">  1       21 0.57449302E-01 0.18254975E+03</pdfrwt>
<pdfrwt beam="2">  1       21 0.13859316E-01 0.18254975E+03</pdfrwt>
<totfact> 0.12922320E+05</totfact>
</mgrwt>
</event>
<event>
 4    2  0.3992997E+000  0.2174749E+03  0.7546771E-02  0.1135780E+00
         21   -1    0    0  501  502  0.00000000000E+00  0.00000000000E+00  0.64853529858E+03  0.64853529858E+03  0.00000000000E+00 0.  1.
         21   -1    0    0  502  503 -0.00000000000E+00 -0.00000000000E+00 -0.74665675014E+02  0.74665675014E+02  0.00000000000E+00 0.  1.
          6    1    1    2  501    0  0.56558845842E+02 -0.11902707063E+03  0.34212377750E+03  0.40539366758E+03  0.17300000000E+03 0.  1.
         -6    1    1    2    0  503 -0.56558845842E+02  0.11902707063E+03  0.23174584607E+03  0.31780730601E+03  0.17300000000E+03 0.  1.
<mgrwt>
<rscale>  2 0.21747493E+03</rscale>
<asrwt>0</asrwt>
<pdfrwt beam="1">  1       21 0.99774658E-01 0.21747493E+03</pdfrwt>
<pdfrwt beam="2">  1       21 0.11487027E-01 0.21747493E+03</pdfrwt>
<totfact> 0.51723223E+04</totfact>
</mgrwt>
</event>
<event>
 4    2  0.3992997E+000  0.1754289E+03  0.7546771E-02  0.1172302E+00
         21   -1    0    0  501  502  0.00000000000E+00  0.00000000000E+00  0.17746457810E+03  0.17746457810E+03  0.00000000000E+00 0.  1.
         21   -1    0    0  502  503 -0.00000000000E+00 -0.00000000000E+00 -0.18123936283E+03  0.18123936283E+03  0.00000000000E+00 0.  1.
          6    1    1    2  501    0 -0.55466890748E+00  0.29085912686E+02  0.35374154077E+02  0.17895985234E+03  0.17300000000E+03 0. -1.
         -6    1    1    2    0  503  0.55466890748E+00 -0.29085912686E+02 -0.39148938807E+02  0.17974408859E+03  0.17300000000E+03 0. -1.
<mgrwt>
<rscale>  2 0.17542890E+03</rscale>
<asrwt>0</asrwt>
<pdfrwt beam="1">  1       21 0.27302243E-01 0.17542890E+03</pdfrwt>
<pdfrwt beam="2">  1       21 0.27882979E-01 0.17542890E+03</pdfrwt>
<totfact> 0.15797608E+05</totfact>
</mgrwt>
</event>
<event>
 4    2  0.3992997E+000  0.1868151E+03  0.7546771E-02  0.1161366E+00
         21   -1    0    0  501  502  0.00000000000E+00  0.00000000000E+00  0.42824746953E+03  0.42824746953E+03  0.00000000000E+00 0.  1.
         21   -1    0    0  502  503 -0.00000000000E+00 -0.00000000000E+00 -0.85024701927E+02  0.85024701927E+02  0.00000000000E+00 0.  1.
          6    1    1    2  501    0 -0.70443228770E+02  0.29378090647E+01  0.22390341199E+03  0.29160352725E+03  0.17300000000E+03 0.  1.
         -6    1    1    2    0  503  0.70443228770E+02 -0.29378090647E+01  0.11931935561E+03  0.22166864421E+03  0.17300000000E+03 0.  1.
<mgrwt>
<rscale>  2 0.18681509E+03</rscale>
<asrwt>0</asrwt>
<pdfrwt beam="1">  1       21 0.65884225E-01 0.18681509E+03</pdfrwt>
<pdfrwt beam="2">  1       21 0.13080724E-01 0.18681509E+03</pdfrwt>
<totfact> 0.10661288E+05</totfact>
</mgrwt>
</event>
<event>
 4    2  0.3992997E+000  0.1760687E+03  0.7546771E-02  0.1171663E+00
         21   -1    0    0  503  502  0.00000000000E+00  0.00000000000E+00  0.67513472491E+03  0.67513472491E+03  0.00000000000E+00 0.  1.
         21   -1    0    0  501  503 -0.00000000000E+00 -0.00000000000E+00 -0.46462965878E+02  0.46462965878E+02  0.00000000000E+00 0.  1.
          6    1    1    2  501    0 -0.30849690918E+02 -0.10930332450E+02  0.27522605009E+03  0.32672550290E+03  0.17300000000E+03 0.  1.
         -6    1    1    2    0  502  0.30849690918E+02  0.10930332450E+02  0.35344570894E+03  0.39487218789E+03  0.17300000000E+03 0.  1.
<mgrwt>
<rscale>  2 0.17606867E+03</rscale>
<asrwt>0</asrwt>
<pdfrwt beam="1">  1       21 0.10386687E+00 0.17606867E+03</pdfrwt>
<pdfrwt beam="2">  1       21 0.71481491E-02 0.17606867E+03</pdfrwt>
<totfact> 0.11013791E+05</totfact>
</mgrwt>
</event>
<event>
 4    2  0.3992997E+000  0.2113746E+03  0.7546771E-02  0.1140482E+00
         21   -1    0    0  503  502  0.00000000000E+00  0.00000000000E+00  0.87629411887E+03  0.87629411887E+03  0.00000000000E+00 0. -1.
         21   -1    0    0  501  503 -0.00000000000E+00 -0.00000000000E+00 -0.51850536743E+02  0.51850536743E+02  0.00000000000E+00 0. -1.
          6    1    1    2  501    0  0.99587679659E+02  0.69516290545E+02  0.47212645921E+03  0.51728388152E+03  0.17300000000E+03 0. -1.
         -6    1    1    2    0  502 -0.99587679659E+02 -0.69516290545E+02  0.35231712292E+03  0.41086077410E+03  0.17300000000E+03 0. -1.
<mgrwt>
<rscale>  2 0.21137460E+03</rscale>
<asrwt>0</asrwt>
<pdfrwt beam="1">  1       21 0.13481447E+00 0.21137460E+03</pdfrwt>
<pdfrwt beam="2">  1       21 0.79770063E-02 0.21137460E+03</pdfrwt>
<totfact> 0.47058880E+04</totfact>
</mgrwt>
</event>
<event>
 4    2  0.3992997E+000  0.2771905E+03  0.7546771E-02  0.1097233E+00
         21   -1    0    0  503  502  0.00000000000E+00  0.00000000000E+00  0.99768791752E+02  0.99768791752E+02  0.00000000000E+00 0.  1.
         21   -1    0    0  501  503 -0.00000000000E+00 -0.00000000000E+00 -0.10160555373E+04  0.10160555373E+04  0.00000000000E+00 0. -1.
          6    1    1    2  501    0 -0.16556116250E+03 -0.13962483041E+03 -0.18366255451E+03  0.33251545186E+03  0.17300000000E+03 0.  1.
         -6    1    1    2    0  502  0.16556116250E+03  0.13962483041E+03 -0.73262419106E+03  0.78330887721E+03  0.17300000000E+03 0.  1.
<mgrwt>
<rscale>  2 0.27719053E+03</rscale>
<asrwt>0</asrwt>
<pdfrwt beam="1">  1       21 0.15349044E-01 0.27719053E+03</pdfrwt>
<pdfrwt beam="2">  1       21 0.15631624E+00 0.27719053E+03</pdfrwt>
<totfact> 0.95340315E+03</totfact>
</mgrwt>
</event>
<event>
 4    2  0.3992997E+000  0.2072539E+03  0.7546771E-02  0.1143759E+00
         21   -1    0    0  503  502  0.00000000000E+00  0.00000000000E+00  0.12677173440E+03  0.12677173440E+03  0.00000000000E+00 0.  1.
         21   -1    0    0  501  503 -0.00000000000E+00 -0.00000000000E+00 -0.74530196352E+03  0.74530196352E+03  0.00000000000E+00 0.  1.
          6    1    1    2  501    0 -0.10640163797E+03 -0.41277855215E+02 -0.63127701571E+03  0.66442820564E+03  0.17300000000E+03 0.  1.
         -6    1    1    2    0  502  0.10640163797E+03  0.41277855215E+02  0.12746786598E+02  0.20764549227E+03  0.17300000000E+03 0.  1.
<mgrwt>
<rscale>  2 0.20725388E+03</rscale>
<asrwt>0</asrwt>
<pdfrwt beam="1">  1       21 0.19503344E-01 0.20725388E+03</pdfrwt>
<pdfrwt beam="2">  1       21 0.11466184E+00 0.20725388E+03</pdfrwt>
<totfact> 0.14145801E+04</totfact>
</mgrwt>
</event>
<event>
 4    2  0.3992997E+000  0.1988160E+03  0.7546771E-02  0.1150742E+00
         21   -1    0    0  501  502  0.00000000000E+00  0.00000000000E+00  0.12323562640E+03  0.12323562640E+03  0.00000000000E+00 0. -1.
         21   -1    0    0  502  503 -0.00000000000E+00 -0.00000000000E+00 -0.12223626391E+04  0.12223626391E+04  0.00000000000E+00 0. -1.
          6    1    1    2  501    0 -0.97889757519E+02 -0.40490832082E+01  0.28260310236E+02  0.20081445375E+03  0.17300000000E+03 0. -1.
         -6    1    1    2    0  503  0.97889757519E+02  0.40490832082E+01 -0.11273873230E+04  0.11447838118E+04  0.17300000000E+03 0. -1.
<mgrwt>
<rscale>  2 0.19881599E+03</rscale>
<asrwt>0</asrwt>
<pdfrwt beam="1">  1       21 0.18959327E-01 0.19881599E+03</pdfrwt>
<pdfrwt beam="2">  1       21 0.18805579E+00 0.19881599E+03</pdfrwt>
<totfact> 0.40732672E+03</totfact>
</mgrwt>
</event>
<event>
 4    2  0.3992997E+000  0.1902105E+03  0.7546771E-02  0.1158272E+00
         21   -1    0    0  503  502  0.00000000000E+00  0.00000000000E+00  0.11989285988E+03  0.11989285988E+03  0.00000000000E+00 0.  1.
         21   -1    0    0  501  503 -0.00000000000E+00 -0.00000000000E+00 -0.70550383257E+03  0.70550383257E+03  0.00000000000E+00 0.  1.
          6    1    1    2  501    0  0.76119337952E+02 -0.21374712182E+02 -0.60500395995E+03  0.63420014466E+03  0.17300000000E+03 0.  1.
         -6    1    1    2    0  502 -0.76119337952E+02  0.21374712182E+02  0.19392987265E+02  0.19119654779E+03  0.17300000000E+03 0.  1.
<mgrwt>
<rscale>  2 0.19021049E+03</rscale>
<asrwt>0</asrwt>
<pdfrwt beam="1">  1       21 0.18445055E-01 0.19021049E+03</pdfrwt>
<pdfrwt beam="2">  1       21 0.10853905E+00 0.19021049E+03</pdfrwt>
<totfact> 0.18130052E+04</totfact>
</mgrwt>
</event>
<event>
 4    2  0.3992997E+000  0.1802095E+03  0.7546771E-02  0.1167600E+00
         21   -1    0    0  503  502  0.00000000000E+00  0.00000000000E+00  0.90514884920E+02  0.90514884920E+02  0.00000000000E+00 0. -1.
         21   -1    0    0  501  503 -0.00000000000E+00 -0.00000000000E+00 -0.91277020249E+03  0.91277020249E+03  0.00000000000E+00 0. -1.
          6    1    1    2  501    0 -0.23309952556E+02  0.44756022897E+02 -0.80193472054E+03  0.82193354444E+03  0.17300000000E+03 0. -1.
         -6    1    1    2    0  502  0.23309952556E+02 -0.44756022897E+02 -0.20320597033E+02  0.18135154297E+03  0.17300000000E+03 0. -1.
<mgrwt>
<rscale>  2 0.18020948E+03</rscale>
<asrwt>0</asrwt>
<pdfrwt beam="1">  1       21 0.13925367E-01 0.18020948E+03</pdfrwt>
<pdfrwt beam="2">  1       21 0.14042618E+00 0.18020948E+03</pdfrwt>
<totfact> 0.16077340E+04</totfact>
</mgrwt>
</event>
<event>
 4    2  0.3992997E+000  0.2078550E+03  0.7546771E-02  0.1143276E+00
         21   -1    0    0  501  502  0.00000000000E+00  0.00000000000E+00  0.40474821233E+02  0.40474821233E+02  0.00000000000E+00 0. -1.
         21   -1    0    0  502  503 -0.00000000000E+00 -0.00000000000E+00 -0.10927645521E+04  0.10927645521E+04  0.00000000000E+00 0. -1.
          6    1    1    2  501    0  0.83055580741E+02 -0.79852891918E+02 -0.43985621003E+03  0.48649480916E+03  0.17300000000E+03 0. -1.
         -6    1    1    2    0  503 -0.83055580741E+02  0.79852891918E+02 -0.61243352086E+03  0.64674456419E+03  0.17300000000E+03 0. -1.
<mgrwt>
<rscale>  2 0.20785503E+03</rscale>
<asrwt>0</asrwt>
<pdfrwt beam="1">  1       21 0.62268959E-02 0.20785503E+03</pdfrwt>
<pdfrwt beam="2">  1       21 0.16811762E+00 0.20785503E+03</pdfrwt>
<totfact> 0.40327794E+04</totfact>
</mgrwt>
</event>
<event>
 4    2  0.3992997E+000  0.2603224E+03  0.7546771E-02  0.1106950E+00
         21   -1    0    0  503  502  0.00000000000E+00  0.00000000000E+00  0.64294210765E+03  0.64294210765E+03  0.00000000000E+00 0. -1.
         21   -1    0    0  501  503 -0.00000000000E+00 -0.00000000000E+00 -0.13809678154E+03  0.13809678154E+03  0.00000000000E+00 0.  1.
          6    1    1    2  501    0 -0.15547591268E+03 -0.11690174740E+03  0.44243685315E+03  0.51334018642E+03  0.17300000000E+03 0. -1.
         -6    1    1    2    0  502  0.15547591268E+03  0.11690174740E+03  0.62408472954E+02  0.26769870277E+03  0.17300000000E+03 0.  1.
<mgrwt>
<rscale>  2 0.26032245E+03</rscale>
<asrwt>0</asrwt>
<pdfrwt beam="1">  1       21 0.98914169E-01 0.26032245E+03</pdfrwt>
<pdfrwt beam="2">  1       21 0.21245659E-01 0.26032245E+03</pdfrwt>
<totfact> 0.16708763E+04</totfact>
</mgrwt>
</event>
<event>
 4    2  0.3992997E+000  0.2006930E+03  0.7546771E-02  0.1149156E+00
         21   -1    0    0  503  502  0.00000000000E+00  0.00000000000E+00  0.43237657937E+03  0.43237657937E+03  0.00000000000E+00 0.  1.
         21   -1    0    0  501  503 -0.00000000000E+00 -0.00000000000E+00 -0.10628476024E+04  0.10628476024E+04  0.00000000000E+00 0.  1.
          6    1    1    2  501    0  0.76779016621E+02  0.66735864635E+02 -0.10293338769E+04  0.10487163216E+04  0.17300000000E+03 0.  1.
         -6    1    1    2    0  502 -0.76779016621E+02 -0.66735864635E+02  0.39886285387E+03  0.44650786020E+03  0.17300000000E+03 0.  1.
<mgrwt>
<rscale>  2 0.20069303E+03</rscale>
<asrwt>0</asrwt>
<pdfrwt beam="1">  1       21 0.66519474E-01 0.20069303E+03</pdfrwt>
<pdfrwt beam="2">  1       21 0.16351501E+00 0.20069303E+03</pdfrwt>
<totfact> 0.48728596E+02</totfact>
</mgrwt>
</event>
<event>
 4    2  0.3992997E+000  0.1975569E+03  0.7546771E-02  0.1151817E+00
         21   -1    0    0  501  502  0.00000000000E+00  0.00000000000E+00  0.77048215276E+03  0.77048215276E+03  0.00000000000E+00 0.  1.
         21   -1    0    0  502  503 -0.00000000000E+00 -0.00000000000E+00 -0.83945003723E+02  0.83945003723E+02  0.00000000000E+00 0.  1.
          6    1    1    2  501    0 -0.95248306047E+02  0.52421712272E+01  0.61230122740E+03  0.64338286676E+03  0.17300000000E+03 0.  1.
         -6    1    1    2    0  503  0.95248306047E+02 -0.52421712272E+01  0.74235921637E+02  0.21104428972E+03  0.17300000000E+03 0.  1.
<mgrwt>
<rscale>  2 0.19755688E+03</rscale>
<asrwt>0</asrwt>
<pdfrwt beam="1">  1       21 0.11853571E+00 0.19755688E+03</pdfrwt>
<pdfrwt beam="2">  1       21 0.12914616E-01 0.19755688E+03</pdfrwt>
<totfact> 0.27921005E+04</totfact>
</mgrwt>
</event>
<event>
 4    2  0.3992997E+000  0.2312676E+03  0.7546771E-02  0.1125751E+00
         21   -1    0    0  501  502  0.00000000000E+00  0.00000000000E+00  0.47744447031E+02  0.47744447031E+02  0.00000000000E+00 0.  1.
         21   -1    0    0  502  503 -0.00000000000E+00 -0.00000000000E+00 -0.11508364995E+04  0.11508364995E+04  0.00000000000E+00 0. -1.
          6    1    1    2  501    0  0.15345575865E+03 -0.26482579827E+01 -0.64928079615E+03  0.68923888122E+03  0.17300000000E+03 0.  1.
         -6    1    1    2    0  503 -0.15345575865E+03  0.26482579827E+01 -0.45381125629E+03  0.50934206528E+03  0.17300000000E+03 0. -1.
<mgrwt>
<rscale>  2 0.23126756E+03</rscale>
<asrwt>0</asrwt>
<pdfrwt beam="1">  1       21 0.73452995E-02 0.23126756E+03</pdfrwt>
<pdfrwt beam="2">  1       21 0.17705177E+00 0.23126756E+03</pdfrwt>
<totfact> 0.25870140E+04</totfact>
</mgrwt>
</event>
<event>
 4    2  0.3992997E+000  0.1945039E+03  0.7546771E-02  0.1154461E+00
         21   -1    0    0  503  502  0.00000000000E+00  0.00000000000E+00  0.24452653065E+04  0.24452653065E+04  0.00000000000E+00 0.  1.
         21   -1    0    0  501  503 -0.00000000000E+00 -0.00000000000E+00 -0.15217632256E+03  0.15217632256E+03  0.00000000000E+00 0.  1.
          6    1    1    2  501    0 -0.22849579617E+02 -0.85910707081E+02 -0.84388143795E+02  0.21202148875E+03  0.17300000000E+03 0.  1.
         -6    1    1    2    0  502  0.22849579617E+02  0.85910707081E+02  0.23774771277E+04  0.23854201403E+04  0.17300000000E+03 0.  1.
<mgrwt>
<rscale>  2 0.19450386E+03</rscale>
<asrwt>0</asrwt>
<pdfrwt beam="1">  1       21 0.37619463E+00 0.19450386E+03</pdfrwt>
<pdfrwt beam="2">  1       21 0.23411744E-01 0.19450386E+03</pdfrwt>
<totfact> 0.20862743E+02</totfact>
</mgrwt>
</event>
<event>
 4    2  0.3992997E+000  0.2182926E+03  0.7546771E-02  0.1135162E+00
         21   -1    0    0  503  502  0.00000000000E+00  0.00000000000E+00  0.11311838781E+04  0.11311838781E+04  0.00000000000E+00 0.  1.
         21   -1    0    0  501  503 -0.00000000000E+00 -0.00000000000E+00 -0.42258064486E+02  0.42258064486E+02  0.00000000000E+00 0.  1.
          6    1    1    2  501    0  0.10343283383E+03  0.83811260963E+02  0.57732549918E+03  0.61721666421E+03  0.17300000000E+03 0.  1.
         -6    1    1    2    0  502 -0.10343283383E+03 -0.83811260963E+02  0.51160031448E+03  0.55622527842E+03  0.17300000000E+03 0.  1.
<mgrwt>
<rscale>  2 0.21829264E+03</rscale>
<asrwt>0</asrwt>
<pdfrwt beam="1">  1       21 0.17402827E+00 0.21829264E+03</pdfrwt>
<pdfrwt beam="2">  1       21 0.65012415E-02 0.21829264E+03</pdfrwt>
<totfact> 0.33811240E+04</totfact>
</mgrwt>
</event>
<event>
 4    2  0.3992997E+000  0.2224185E+03  0.7546771E-02  0.1132093E+00
         21   -1    0    0  501  502  0.00000000000E+00  0.00000000000E+00  0.37092342543E+03  0.37092342543E+03  0.00000000000E+00 0.  1.
         21   -1    0    0  502  503 -0.00000000000E+00 -0.00000000000E+00 -0.14442002385E+03  0.14442002385E+03  0.00000000000E+00 0.  1.
          6    1    1    2  501    0  0.84854967583E+02 -0.11108831300E+03  0.41976438948E+02  0.22634487013E+03  0.17300000000E+03 0.  1.
         -6    1    1    2    0  503 -0.84854967583E+02  0.11108831300E+03  0.18452696264E+03  0.28899857915E+03  0.17300000000E+03 0.  1.
<mgrwt>
<rscale>  2 0.22241848E+03</rscale>
<asrwt>0</asrwt>
<pdfrwt beam="1">  1       21 0.57065142E-01 0.22241848E+03</pdfrwt>
<pdfrwt beam="2">  1       21 0.22218465E-01 0.22241848E+03</pdfrwt>
<totfact> 0.53901080E+04</totfact>
</mgrwt>
</event>
<event>
 4    2  0.3992997E+000  0.1833138E+03  0.7546771E-02  0.1164634E+00
         21   -1    0    0  503  502  0.00000000000E+00  0.00000000000E+00  0.13370095483E+04  0.13370095483E+04  0.00000000000E+00 0.  1.
         21   -1    0    0  501  503 -0.00000000000E+00 -0.00000000000E+00 -0.27841832201E+02  0.27841832201E+02  0.00000000000E+00 0.  1.
          6    1    1    2  501    0  0.39642932994E+00 -0.60620135678E+02  0.44174852664E+03  0.47827368608E+03  0.17300000000E+03 0.  1.
         -6    1    1    2    0  502 -0.39642932994E+00  0.60620135678E+02  0.86741918945E+03  0.88657769442E+03  0.17300000000E+03 0.  1.
<mgrwt>
<rscale>  2 0.18331382E+03</rscale>
<asrwt>0</asrwt>
<pdfrwt beam="1">  1       21 0.20569373E+00 0.18331382E+03</pdfrwt>
<pdfrwt beam="2">  1       21 0.42833599E-02 0.18331382E+03</pdfrwt>
<totfact> 0.43419991E+04</totfact>
</mgrwt>
</event>
<event>
 4    2  0.3992997E+000  0.2366895E+03  0.7546771E-02  0.1122018E+00
         21   -1    0    0  503  502  0.00000000000E+00  0.00000000000E+00  0.94100527548E+03  0.94100527548E+03  0.00000000000E+00 0.  1.
         21   -1    0    0  501  503 -0.00000000000E+00 -0.00000000000E+00 -0.15930156722E+03  0.15930156722E+03  0.00000000000E+00 0.  1.
          6    1    1    2  501    0  0.16145266380E+03 -0.50962126858E+01 -0.44527863866E+02  0.24084157592E+03  0.17300000000E+03 0.  1.
         -6    1    1    2    0  502 -0.16145266380E+03  0.50962126858E+01  0.82623157212E+03  0.85946526678E+03  0.17300000000E+03 0.  1.
<mgrwt>
<rscale>  2 0.23668953E+03</rscale>
<asrwt>0</asrwt>
<pdfrwt beam="1">  1       21 0.14477004E+00 0.23668953E+03</pdfrwt>
<pdfrwt beam="2">  1       21 0.24507934E-01 0.23668953E+03</pdfrwt>
<totfact> 0.49871545E+03</totfact>
</mgrwt>
</event>
<event>
 4    2  0.3992997E+000  0.2090731E+03  0.7546771E-02  0.1142302E+00
         21   -1    0    0  501  502  0.00000000000E+00  0.00000000000E+00  0.75497575467E+02  0.75497575467E+02  0.00000000000E+00 0. -1.
         21   -1    0    0  502  503 -0.00000000000E+00 -0.00000000000E+00 -0.99055363215E+03  0.99055363215E+03  0.00000000000E+00 0.  1.
          6    1    1    2  501    0 -0.11728713206E+03  0.51279353209E+01 -0.11394399058E+03  0.23810669889E+03  0.17300000000E+03 0. -1.
         -6    1    1    2    0  503  0.11728713206E+03 -0.51279353209E+01 -0.80111206610E+03  0.82794450872E+03  0.17300000000E+03 0.  1.
<mgrwt>
<rscale>  2 0.20907311E+03</rscale>
<asrwt>0</asrwt>
<pdfrwt beam="1">  1       21 0.11615012E-01 0.20907311E+03</pdfrwt>
<pdfrwt beam="2">  1       21 0.15239287E+00 0.20907311E+03</pdfrwt>
<totfact> 0.17632966E+04</totfact>
</mgrwt>
</event>
<event>
 4    2  0.3992997E+000  0.1899855E+03  0.7546771E-02  0.1158474E+00
         21   -1    0    0  501  502  0.00000000000E+00  0.00000000000E+00  0.59674613258E+03  0.59674613258E+03  0.00000000000E+00 0.  1.
         21   -1    0    0  502  503 -0.00000000000E+00 -0.00000000000E+00 -0.74795710957E+02  0.74795710957E+02  0.00000000000E+00 0. -1.
          6    1    1    2  501    0 -0.43210847846E+02  0.65561466971E+02  0.40784344648E+03  0.44992306026E+03  0.17300000000E+03 0.  1.
         -6    1    1    2    0  503  0.43210847846E+02 -0.65561466971E+02  0.11410697515E+03  0.22161878328E+03  0.17300000000E+03 0. -1.
<mgrwt>
<rscale>  2 0.18998548E+03</rscale>
<asrwt>0</asrwt>
<pdfrwt beam="1">  1       21 0.91807094E-01 0.18998548E+03</pdfrwt>
<pdfrwt beam="2">  1       21 0.11507033E-01 0.18998548E+03</pdfrwt>
<totfact> 0.63532558E+04</totfact>
</mgrwt>
</event>
<event>
 4    2  0.3992997E+000  0.1769755E+03  0.7546771E-02  0.1170763E+00
         21   -1    0    0  501  502  0.00000000000E+00  0.00000000000E+00  0.14831940260E+04  0.14831940260E+04  0.00000000000E+00 0. -1.
         21   -1    0    0  502  503 -0.00000000000E+00 -0.00000000000E+00 -0.28435577983E+02  0.28435577983E+02  0.00000000000E+00 0. -1.
          6    1    1    2  501    0  0.14483746081E+01  0.37272528612E+02  0.11108242406E+04  0.11248336911E+04  0.17300000000E+03 0. -1.
         -6    1    1    2    0  503 -0.14483746081E+01 -0.37272528612E+02  0.34393420745E+03  0.38679591290E+03  0.17300000000E+03 0. -1.
<mgrwt>
<rscale>  2 0.17697553E+03</rscale>
<asrwt>0</asrwt>
<pdfrwt beam="1">  1       21 0.22818364E+00 0.17697553E+03</pdfrwt>
<pdfrwt beam="2">  1       21 0.43747055E-02 0.17697553E+03</pdfrwt>
<totfact> 0.30614592E+04</totfact>
</mgrwt>
</event>
<event>
 4    2  0.3992997E+000  0.1752106E+03  0.7546771E-02  0.1172520E+00
         21   -1    0    0  503  502  0.00000000000E+00  0.00000000000E+00  0.66735727374E+03  0.66735727374E+03  0.00000000000E+00 0.  1.
         21   -1    0    0  501  503 -0.00000000000E+00 -0.00000000000E+00 -0.53109827224E+02  0.53109827224E+02  0.00000000000E+00 0.  1.
          6    1    1    2  501    0 -0.58077091397E+01 -0.27129987738E+02  0.17532503647E+03  0.24786616174E+03  0.17300000000E+03 0.  1.
         -6    1    1    2    0  502  0.58077091397E+01  0.27129987738E+02  0.43892241004E+03  0.47260093923E+03  0.17300000000E+03 0.  1.
<mgrwt>
<rscale>  2 0.17521063E+03</rscale>
<asrwt>0</asrwt>
<pdfrwt beam="1">  1       21 0.10267034E+00 0.17521063E+03</pdfrwt>
<pdfrwt beam="2">  1       21 0.81707431E-02 0.17521063E+03</pdfrwt>
<totfact> 0.89849583E+04</totfact>
</mgrwt>
</event>
<event>
 4    2  0.3992997E+000  0.2123590E+03  0.7546771E-02  0.1139711E+00
         21   -1    0    0  503  502  0.00000000000E+00  0.00000000000E+00  0.10786882916E+03  0.10786882916E+03  0.00000000000E+00 0. -1.
         21   -1    0    0  501  503 -0.00000000000E+00 -0.00000000000E+00 -0.68997518965E+03  0.68997518965E+03  0.00000000000E+00 0.  1.
          6    1    1    2  501    0 -0.23379716105E+02 -0.12091621065E+03 -0.54148114529E+03  0.58163405319E+03  0.17300000000E+03 0.  1.
         -6    1    1    2    0  502  0.23379716105E+02  0.12091621065E+03 -0.40625215195E+02  0.21620996562E+03  0.17300000000E+03 0. -1.
<mgrwt>
<rscale>  2 0.21235899E+03</rscale>
<asrwt>0</asrwt>
<pdfrwt beam="1">  1       21 0.16595205E-01 0.21235899E+03</pdfrwt>
<pdfrwt beam="2">  1       21 0.10615002E+00 0.21235899E+03</pdfrwt>
<totfact> 0.22936448E+04</totfact>
</mgrwt>
</event>
<event>
 4    2  0.3992997E+000  0.1977266E+03  0.7546771E-02  0.1151671E+00
         21   -1    0    0  501  502  0.00000000000E+00  0.00000000000E+00  0.10153341478E+03  0.10153341478E+03  0.00000000000E+00 0. -1.
         21   -1    0    0  502  503 -0.00000000000E+00 -0.00000000000E+00 -0.42610019508E+03  0.42610019508E+03  0.00000000000E+00 0. -1.
          6    1    1    2  501    0 -0.46098337605E+02  0.83915134511E+02 -0.24416477453E+03  0.31418504683E+03  0.17300000000E+03 0. -1.
         -6    1    1    2    0  503  0.46098337605E+02 -0.83915134511E+02 -0.80402005769E+02  0.21344856303E+03  0.17300000000E+03 0. -1.
<mgrwt>
<rscale>  2 0.19772660E+03</rscale>
<asrwt>0</asrwt>
<pdfrwt beam="1">  1       21 0.15620525E-01 0.19772660E+03</pdfrwt>
<pdfrwt beam="2">  1       21 0.65553876E-01 0.19772660E+03</pdfrwt>
<totfact> 0.77777872E+04</totfact>
</mgrwt>
</event>
<event>
 4    2  0.3992997E+000  0.1996053E+03  0.7546771E-02  0.1150072E+00
         21   -1    0    0  501  502  0.00000000000E+00  0.00000000000E+00  0.13362857085E+03  0.13362857085E+03  0.00000000000E+00 0.  1.
         21   -1    0    0  502  503 -0.00000000000E+00 -0.00000000000E+00 -0.34837673102E+03  0.34837673102E+03  0.00000000000E+00 0.  1.
          6    1    1    2  501    0  0.52743813961E+02 -0.84447478241E+02 -0.15871218221E+02  0.20023531672E+03  0.17300000000E+03 0.  1.
         -6    1    1    2    0  503 -0.52743813961E+02  0.84447478241E+02 -0.19887694196E+03  0.28176998516E+03  0.17300000000E+03 0.  1.
<mgrwt>
<rscale>  2 0.19960533E+03</rscale>
<asrwt>0</asrwt>
<pdfrwt beam="1">  1       21 0.20558242E-01 0.19960533E+03</pdfrwt>
<pdfrwt beam="2">  1       21 0.53596419E-01 0.19960533E+03</pdfrwt>
<totfact> 0.71999906E+04</totfact>
</mgrwt>
</event>
<event>
 4    2  0.3992997E+000  0.2598053E+03  0.7546771E-02  0.1107260E+00
         21   -1    0    0  503  502  0.00000000000E+00  0.00000000000E+00  0.46073043818E+03  0.46073043818E+03  0.00000000000E+00 0. -1.
         21   -1    0    0  501  503 -0.00000000000E+00 -0.00000000000E+00 -0.71261869709E+03  0.71261869709E+03  0.00000000000E+00 0. -1.
          6    1    1    2  501    0 -0.14722196460E+03  0.12607728298E+03 -0.64884687692E+03  0.69892850696E+03  0.17300000000E+03 0. -1.
         -6    1    1    2    0  502  0.14722196460E+03 -0.12607728298E+03  0.39695861801E+03  0.47442062830E+03  0.17300000000E+03 0. -1.
<mgrwt>
<rscale>  2 0.25980529E+03</rscale>
<asrwt>0</asrwt>
<pdfrwt beam="1">  1       21 0.70881606E-01 0.25980529E+03</pdfrwt>
<pdfrwt beam="2">  1       21 0.10963365E+00 0.25980529E+03</pdfrwt>
<totfact> 0.11194346E+03</totfact>
</mgrwt>
</event>
<event>
 4    2  0.3992997E+000  0.1930506E+03  0.7546771E-02  0.1155738E+00
         21   -1    0    0  503  502  0.00000000000E+00  0.00000000000E+00  0.90379074150E+02  0.90379074150E+02  0.00000000000E+00 0. -1.
         21   -1    0    0  501  503 -0.00000000000E+00 -0.00000000000E+00 -0.67977410483E+03  0.67977410483E+03  0.00000000000E+00 0. -1.
          6    1    1    2  501    0 -0.41919371048E+02 -0.74714781250E+02 -0.53622057744E+03  0.56991318626E+03  0.17300000000E+03 0. -1.
         -6    1    1    2    0  502  0.41919371048E+02  0.74714781250E+02 -0.53174453242E+02  0.20023999272E+03  0.17300000000E+03 0. -1.
<mgrwt>
<rscale>  2 0.19305059E+03</rscale>
<asrwt>0</asrwt>
<pdfrwt beam="1">  1       21 0.13904473E-01 0.19305059E+03</pdfrwt>
<pdfrwt beam="2">  1       21 0.10458063E+00 0.19305059E+03</pdfrwt>
<totfact> 0.33203522E+04</totfact>
</mgrwt>
</event>
<event>
 4    2  0.3992997E+000  0.1827586E+03  0.7546771E-02  0.1165160E+00
         21   -1    0    0  503  502  0.00000000000E+00  0.00000000000E+00  0.10567796791E+03  0.10567796791E+03  0.00000000000E+00 0. -1.
         21   -1    0    0  501  503 -0.00000000000E+00 -0.00000000000E+00 -0.37020576281E+03  0.37020576281E+03  0.00000000000E+00 0. -1.
          6    1    1    2  501    0 -0.32873744387E+02 -0.48898233360E+02 -0.22326070014E+03  0.28852393406E+03  0.17300000000E+03 0. -1.
         -6    1    1    2    0  502  0.32873744387E+02  0.48898233360E+02 -0.41267094760E+02  0.18735979666E+03  0.17300000000E+03 0. -1.
<mgrwt>
<rscale>  2 0.18275864E+03</rscale>
<asrwt>0</asrwt>
<pdfrwt beam="1">  1       21 0.16258149E-01 0.18275864E+03</pdfrwt>
<pdfrwt beam="2">  1       21 0.56954733E-01 0.18275864E+03</pdfrwt>
<totfact> 0.98447067E+04</totfact>
</mgrwt>
</event>
<event>
 4    2  0.3992997E+000  0.1756829E+03  0.7546771E-02  0.1172048E+00
         21   -1    0    0  503  502  0.00000000000E+00  0.00000000000E+00  0.67705637365E+03  0.67705637365E+03  0.00000000000E+00 0. -1.
         21   -1    0    0  501  503 -0.00000000000E+00 -0.00000000000E+00 -0.70449536383E+02  0.70449536383E+02  0.00000000000E+00 0. -1.
          6    1    1    2  501    0  0.38808185098E+01 -0.30338176148E+02  0.81266714305E+02  0.19356844923E+03  0.17300000000E+03 0. -1.
         -6    1    1    2    0  502 -0.38808185098E+01  0.30338176148E+02  0.52534012297E+03  0.55393746081E+03  0.17300000000E+03 0. -1.
<mgrwt>
<rscale>  2 0.17568286E+03</rscale>
<asrwt>0</asrwt>
<pdfrwt beam="1">  1       21 0.10416251E+00 0.17568286E+03</pdfrwt>
<pdfrwt beam="2">  1       21 0.10838391E-01 0.17568286E+03</pdfrwt>
<totfact> 0.52850245E+04</totfact>
</mgrwt>
</event>
<event>
 4    2  0.3992997E+000  0.2025327E+03  0.7546771E-02  0.1147620E+00
         21   -1    0    0  503  502  0.00000000000E+00  0.00000000000E+00  0.58701953832E+03  0.58701953832E+03  0.00000000000E+00 0. -1.
         21   -1    0    0  501  503 -0.00000000000E+00 -0.00000000000E+00 -0.69877623139E+02  0.69877623139E+02  0.00000000000E+00 0. -1.
          6    1    1    2  501    0  0.74786822338E+02  0.74144611216E+02  0.25888669713E+03  0.32869714650E+03  0.17300000000E+03 0. -1.
         -6    1    1    2    0  502 -0.74786822338E+02 -0.74144611216E+02  0.25825521806E+03  0.32820001496E+03  0.17300000000E+03 0. -1.
<mgrwt>
<rscale>  2 0.20253269E+03</rscale>
<asrwt>0</asrwt>
<pdfrwt beam="1">  1       21 0.90310695E-01 0.20253269E+03</pdfrwt>
<pdfrwt beam="2">  1       21 0.10750404E-01 0.20253269E+03</pdfrwt>
<totfact> 0.74062903E+04</totfact>
</mgrwt>
</event>
<event>
 4    2  0.3992997E+000  0.1779745E+03  0.7546771E-02  0.1169778E+00
         21   -1    0    0  503  502  0.00000000000E+00  0.00000000000E+00  0.11451286005E+03  0.11451286005E+03  0.00000000000E+00 0. -1.
         21   -1    0    0  501  503 -0.00000000000E+00 -0.00000000000E+00 -0.14240797814E+04  0.14240797814E+04  0.00000000000E+00 0. -1.
          6    1    1    2  501    0  0.39494880331E+01  0.41597002511E+02 -0.13453379273E+04  0.13570589699E+04  0.17300000000E+03 0. -1.
         -6    1    1    2    0  502 -0.39494880331E+01 -0.41597002511E+02  0.35771005891E+02  0.18153367163E+03  0.17300000000E+03 0. -1.
<mgrwt>
<rscale>  2 0.17797446E+03</rscale>
<asrwt>0</asrwt>
<pdfrwt beam="1">  1       21 0.17617364E-01 0.17797446E+03</pdfrwt>
<pdfrwt beam="2">  1       21 0.21908919E+00 0.17797446E+03</pdfrwt>
<totfact> 0.30236013E+03</totfact>
</mgrwt>
</event>
<event>
 4    2  0.3992997E+000  0.2733353E+03  0.7546771E-02  0.1099386E+00
         21   -1    0    0  503  502  0.00000000000E+00  0.00000000000E+00  0.16692478510E+03  0.16692478510E+03  0.00000000000E+00 0. -1.
         21   -1    0    0  501  503 -0.00000000000E+00 -0.00000000000E+00 -0.45232561826E+03  0.45232561826E+03  0.00000000000E+00 0.  1.
          6    1    1    2  501    0 -0.96882843842E+02 -0.18814069315E+03 -0.17441465029E+03  0.32424169394E+03  0.17300000000E+03 0.  1.
         -6    1    1    2    0  502  0.96882843842E+02  0.18814069315E+03 -0.11098618286E+03  0.29500870943E+03  0.17300000000E+03 0. -1.
<mgrwt>
<rscale>  2 0.27333534E+03</rscale>
<asrwt>0</asrwt>
<pdfrwt beam="1">  1       21 0.25680737E-01 0.27333534E+03</pdfrwt>
<pdfrwt beam="2">  1       21 0.69588555E-01 0.27333534E+03</pdfrwt>
<totfact> 0.25948942E+04</totfact>
</mgrwt>
</event>
<event>
 4    2  0.3992997E+000  0.1757578E+03  0.7546771E-02  0.1171973E+00
         21   -1    0    0  501  502  0.00000000000E+00  0.00000000000E+00  0.37653326381E+02  0.37653326381E+02  0.00000000000E+00 0. -1.
         21   -1    0    0  502  503 -0.00000000000E+00 -0.00000000000E+00 -0.10691674121E+04  0.10691674121E+04  0.00000000000E+00 0. -1.
          6    1    1    2  501    0  0.26402766899E+02 -0.16269583622E+02 -0.24881265330E+03  0.30462853099E+03  0.17300000000E+03 0. -1.
         -6    1    1    2    0  503 -0.26402766899E+02  0.16269583622E+02 -0.78270143244E+03  0.80219220751E+03  0.17300000000E+03 0. -1.
<mgrwt>
<rscale>  2 0.17575780E+03</rscale>
<asrwt>0</asrwt>
<pdfrwt beam="1">  1       21 0.57928196E-02 0.17575780E+03</pdfrwt>
<pdfrwt beam="2">  1       21 0.16448729E+00 0.17575780E+03</pdfrwt>
<totfact> 0.49390340E+04</totfact>
</mgrwt>
</event>
<event>
 4    2  0.3992997E+000  0.1809228E+03  0.7546771E-02  0.1166913E+00
         21   -1    0    0  503  502  0.00000000000E+00  0.00000000000E+00  0.76021206670E+03  0.76021206670E+03  0.00000000000E+00 0. -1.
         21   -1    0    0  501  503 -0.00000000000E+00 -0.00000000000E+00 -0.45534260663E+02  0.45534260663E+02  0.00000000000E+00 0. -1.
          6    1    1    2  501    0  0.46409615367E+02  0.25499160206E+02  0.26338499269E+03  0.31953828244E+03  0.17300000000E+03 0. -1.
         -6    1    1    2    0  502 -0.46409615367E+02 -0.25499160206E+02  0.45129281335E+03  0.48620804492E+03  0.17300000000E+03 0. -1.
<mgrwt>
<rscale>  2 0.18092280E+03</rscale>
<asrwt>0</asrwt>
<pdfrwt beam="1">  1       21 0.11695569E+00 0.18092280E+03</pdfrwt>
<pdfrwt beam="2">  1       21 0.70052714E-02 0.18092280E+03</pdfrwt>
<totfact> 0.85441389E+04</totfact>
</mgrwt>
</event>
<event>
 4    2  0.3992997E+000  0.1905279E+03  0.7546771E-02  0.1157986E+00
         21   -1    0    0  503  502  0.00000000000E+00  0.00000000000E+00  0.38189821790E+03  0.38189821790E+03  0.00000000000E+00 0.  1.
         21   -1    0    0  501  503 -0.00000000000E+00 -0.00000000000E+00 -0.11704426196E+03  0.11704426196E+03  0.00000000000E+00 0. -1.
          6    1    1    2  501    0 -0.79664866907E+02  0.50403896021E+01  0.24293022801E+02  0.19207042329E+03  0.17300000000E+03 0.  1.
         -6    1    1    2    0  502  0.79664866907E+02 -0.50403896021E+01  0.24056093314E+03  0.30687205656E+03  0.17300000000E+03 0. -1.
<mgrwt>
<rscale>  2 0.19052794E+03</rscale>
<asrwt>0</asrwt>
<pdfrwt beam="1">  1       21 0.58753571E-01 0.19052794E+03</pdfrwt>
<pdfrwt beam="2">  1       21 0.18006810E-01 0.19052794E+03</pdfrwt>
<totfact> 0.76114704E+04</totfact>
</mgrwt>
</event>
<event>
 4    2  0.3992997E+000  0.2440041E+03  0.7546771E-02  0.1117154E+00
         21   -1    0    0  501  502  0.00000000000E+00  0.00000000000E+00  0.32129078544E+03  0.32129078544E+03  0.00000000000E+00 0. -1.
         21   -1    0    0  502  503 -0.00000000000E+00 -0.00000000000E+00 -0.50865907823E+03  0.50865907823E+03  0.00000000000E+00 0. -1.
          6    1    1    2  501    0 -0.14173266439E+03  0.97574839289E+02  0.23717649544E+03  0.34028030711E+03  0.17300000000E+03 0. -1.
         -6    1    1    2    0  503  0.14173266439E+03 -0.97574839289E+02 -0.42454478822E+03  0.48966955656E+03  0.17300000000E+03 0. -1.
<mgrwt>
<rscale>  2 0.24400409E+03</rscale>
<asrwt>0</asrwt>
<pdfrwt beam="1">  1       21 0.49429351E-01 0.24400409E+03</pdfrwt>
<pdfrwt beam="2">  1       21 0.78255243E-01 0.24400409E+03</pdfrwt>
<totfact> 0.54408834E+03</totfact>
</mgrwt>
</event>
<event>
 4    2  0.3992997E+000  0.2410301E+03  0.7546771E-02  0.1119108E+00
         21   -1    0    0  503  502  0.00000000000E+00  0.00000000000E+00  0.18532072650E+03  0.18532072650E+03  0.00000000000E+00 0.  1.
         21   -1    0    0  501  503 -0.00000000000E+00 -0.00000000000E+00 -0.44674402134E+03  0.44674402134E+03  0.00000000000E+00 0.  1.
          6    1    1    2  501    0 -0.11941719583E+03 -0.11792396761E+03  0.41891302917E+02  0.24464343453E+03  0.17300000000E+03 0.  1.
         -6    1    1    2    0  502  0.11941719583E+03  0.11792396761E+03 -0.30331459776E+03  0.38742131331E+03  0.17300000000E+03 0.  1.
<mgrwt>
<rscale>  2 0.24103014E+03</rscale>
<asrwt>0</asrwt>
<pdfrwt beam="1">  1       21 0.28510881E-01 0.24103014E+03</pdfrwt>
<pdfrwt beam="2">  1       21 0.68729849E-01 0.24103014E+03</pdfrwt>
<totfact> 0.22100758E+04</totfact>
</mgrwt>
</event>
<event>
 4    2  0.3992997E+000  0.2146676E+03  0.7546771E-02  0.1137922E+00
         21   -1    0    0  503  502  0.00000000000E+00  0.00000000000E+00  0.29884912325E+03  0.29884912325E+03  0.00000000000E+00 0.  1.
         21   -1    0    0  501  503 -0.00000000000E+00 -0.00000000000E+00 -0.20058388275E+03  0.20058388275E+03  0.00000000000E+00 0.  1.
          6    1    1    2  501    0 -0.37141112812E+01  0.12704084313E+03 -0.70952303159E+02  0.22608936235E+03  0.17300000000E+03 0.  1.
         -6    1    1    2    0  502  0.37141112812E+01 -0.12704084313E+03  0.16921754366E+03  0.27334364366E+03  0.17300000000E+03 0.  1.
<mgrwt>
<rscale>  2 0.21466758E+03</rscale>
<asrwt>0</asrwt>
<pdfrwt beam="1">  1       21 0.45976788E-01 0.21466758E+03</pdfrwt>
<pdfrwt beam="2">  1       21 0.30859059E-01 0.21466758E+03</pdfrwt>
<totfact> 0.45232107E+04</totfact>
</mgrwt>
</event>
<event>
 4    2  0.3992997E+000  0.2165865E+03  0.7546771E-02  0.1136454E+00
         21   -1    0    0  503  502  0.00000000000E+00  0.00000000000E+00  0.52825388417E+02  0.52825388417E+02  0.00000000000E+00 0. -1.
         21   -1    0    0  501  503 -0.00000000000E+00 -0.00000000000E+00 -0.12802730888E+04  0.12802730888E+04  0.00000000000E+00 0. -1.
          6    1    1    2  501    0 -0.11993137955E+03  0.50962421132E+02 -0.98267360789E+03  0.10062589745E+04  0.17300000000E+03 0. -1.
         -6    1    1    2    0  502  0.11993137955E+03 -0.50962421132E+02 -0.24477409252E+03  0.32683950272E+03  0.17300000000E+03 0. -1.
<mgrwt>
<rscale>  2 0.21658648E+03</rscale>
<asrwt>0</asrwt>
<pdfrwt beam="1">  1       21 0.81269835E-02 0.21658648E+03</pdfrwt>
<pdfrwt beam="2">  1       21 0.19696507E+00 0.21658648E+03</pdfrwt>
<totfact> 0.16104799E+04</totfact>
</mgrwt>
</event>
<event>
 4    2  0.3992997E+000  0.1987083E+03  0.7546771E-02  0.1150833E+00
         21   -1    0    0  501  502  0.00000000000E+00  0.00000000000E+00  0.11172870990E+03  0.11172870990E+03  0.00000000000E+00 0.  1.
         21   -1    0    0  502  503 -0.00000000000E+00 -0.00000000000E+00 -0.47094236433E+03  0.47094236433E+03  0.00000000000E+00 0.  1.
          6    1    1    2  501    0  0.92856481525E+02 -0.30556095519E+02 -0.34059058079E+02  0.20160610252E+03  0.17300000000E+03 0.  1.
         -6    1    1    2    0  503 -0.92856481525E+02  0.30556095519E+02 -0.32515459635E+03  0.38106497171E+03  0.17300000000E+03 0.  1.
<mgrwt>
<rscale>  2 0.19870833E+03</rscale>
<asrwt>0</asrwt>
<pdfrwt beam="1">  1       21 0.17189032E-01 0.19870833E+03</pdfrwt>
<pdfrwt beam="2">  1       21 0.72452671E-01 0.19870833E+03</pdfrwt>
<totfact> 0.52331090E+04</totfact>
</mgrwt>
</event>
<event>
 4    2  0.3992997E+000  0.2786328E+03  0.7546771E-02  0.1096438E+00
         21   -1    0    0  503  502  0.00000000000E+00  0.00000000000E+00  0.95549977216E+02  0.95549977216E+02  0.00000000000E+00 0.  1.
         21   -1    0    0  501  503 -0.00000000000E+00 -0.00000000000E+00 -0.88207622328E+03  0.88207622328E+03  0.00000000000E+00 0.  1.
          6    1    1    2  501    0  0.12034832779E+03 -0.18227325347E+03 -0.25599867922E+03  0.37838020918E+03  0.17300000000E+03 0.  1.
         -6    1    1    2    0  502 -0.12034832779E+03  0.18227325347E+03 -0.53052756684E+03  0.59924599132E+03  0.17300000000E+03 0.  1.
<mgrwt>
<rscale>  2 0.27863284E+03</rscale>
<asrwt>0</asrwt>
<pdfrwt beam="1">  1       21 0.14699996E-01 0.27863284E+03</pdfrwt>
<pdfrwt beam="2">  1       21 0.13570404E+00 0.27863284E+03</pdfrwt>
<totfact> 0.14997661E+04</totfact>
</mgrwt>
</event>
<event>
 4    2  0.3992997E+000  0.2090331E+03  0.7546771E-02  0.1142334E+00
         21   -1    0    0  501  502  0.00000000000E+00  0.00000000000E+00  0.38636713975E+03  0.38636713975E+03  0.00000000000E+00 0.  1.
         21   -1    0    0  502  503 -0.00000000000E+00 -0.00000000000E+00 -0.11349524838E+03  0.11349524838E+03  0.00000000000E+00 0. -1.
          6    1    1    2  501    0 -0.41600584679E+02 -0.10970509830E+03  0.15134389282E+03  0.25806935334E+03  0.17300000000E+03 0.  1.
         -6    1    1    2    0  503  0.41600584679E+02  0.10970509830E+03  0.12152799855E+03  0.24179303479E+03  0.17300000000E+03 0.  1.
<mgrwt>
<rscale>  2 0.20903305E+03</rscale>
<asrwt>0</asrwt>
<pdfrwt beam="1">  1       21 0.59441098E-01 0.20903305E+03</pdfrwt>
<pdfrwt beam="2">  1       21 0.17460808E-01 0.20903305E+03</pdfrwt>
<totfact> 0.77955569E+04</totfact>
</mgrwt>
</event>
<event>
 4    2  0.3992997E+000  0.1903925E+03  0.7546771E-02  0.1158108E+00
         21   -1    0    0  501  502  0.00000000000E+00  0.00000000000E+00  0.66625400379E+02  0.66625400379E+02  0.00000000000E+00 0. -1.
         21   -1    0    0  502  503 -0.00000000000E+00 -0.00000000000E+00 -0.54452866040E+03  0.54452866040E+03  0.00000000000E+00 0. -1.
          6    1    1    2  501    0  0.58546807084E+02 -0.53782710747E+02 -0.24775806699E+03  0.31246338722E+03  0.17300000000E+03 0. -1.
         -6    1    1    2    0  503 -0.58546807084E+02  0.53782710747E+02 -0.23014519303E+03  0.29869067356E+03  0.17300000000E+03 0. -1.
<mgrwt>
<rscale>  2 0.19039251E+03</rscale>
<asrwt>0</asrwt>
<pdfrwt beam="1">  1       21 0.10250062E-01 0.19039251E+03</pdfrwt>
<pdfrwt beam="2">  1       21 0.83773640E-01 0.19039251E+03</pdfrwt>
<totfact> 0.96309343E+04</totfact>
</mgrwt>
</event>
<event>
 4    2  0.3992997E+000  0.1758957E+03  0.7546771E-02  0.1171835E+00
         21   -1    0    0  501  502  0.00000000000E+00  0.00000000000E+00  0.19443503161E+03  0.19443503161E+03  0.00000000000E+00 0. -1.
         21   -1    0    0  502  503 -0.00000000000E+00 -0.00000000000E+00 -0.16862158824E+03  0.16862158824E+03  0.00000000000E+00 0. -1.
          6    1    1    2  501    0  0.31655342416E+02  0.28671318690E+01 -0.30175124545E+02  0.17846517669E+03  0.17300000000E+03 0. -1.
         -6    1    1    2    0  503 -0.31655342416E+02 -0.28671318690E+01  0.55988567915E+02  0.18459144315E+03  0.17300000000E+03 0. -1.
<mgrwt>
<rscale>  2 0.17589565E+03</rscale>
<asrwt>0</asrwt>
<pdfrwt beam="1">  1       21 0.29913082E-01 0.17589565E+03</pdfrwt>
<pdfrwt beam="2">  1       21 0.25941783E-01 0.17589565E+03</pdfrwt>
<totfact> 0.15205297E+05</totfact>
</mgrwt>
</event>
<event>
 4    2  0.3992997E+000  0.1731613E+03  0.7546771E-02  0.1174591E+00
         21   -1    0    0  501  502  0.00000000000E+00  0.00000000000E+00  0.14849825070E+03  0.14849825070E+03  0.00000000000E+00 0.  1.
         21   -1    0    0  502  503 -0.00000000000E+00 -0.00000000000E+00 -0.71471482245E+03  0.71471482245E+03  0.00000000000E+00 0.  1.
          6    1    1    2  501    0  0.36009875832E+01 -0.65466945654E+01  0.82480836041E+02  0.19180175869E+03  0.17300000000E+03 0.  1.
         -6    1    1    2    0  503 -0.36009875832E+01  0.65466945654E+01 -0.64869740779E+03  0.67141131446E+03  0.17300000000E+03 0.  1.
<mgrwt>
<rscale>  2 0.17316127E+03</rscale>
<asrwt>0</asrwt>
<pdfrwt beam="1">  1       21 0.22845885E-01 0.17316127E+03</pdfrwt>
<pdfrwt beam="2">  1       21 0.10995613E+00 0.17316127E+03</pdfrwt>
<totfact> 0.11914656E+04</totfact>
</mgrwt>
</event>
<event>
 4    2  0.3992997E+000  0.2013573E+03  0.7546771E-02  0.1148599E+00
         21   -1    0    0  501  502  0.00000000000E+00  0.00000000000E+00  0.60519593802E+03  0.60519593802E+03  0.00000000000E+00 0. -1.
         21   -1    0    0  502  503 -0.00000000000E+00 -0.00000000000E+00 -0.69927646449E+02  0.69927646449E+02  0.00000000000E+00 0. -1.
          6    1    1    2  501    0  0.90755967527E+02 -0.48776006017E+02  0.33676985358E+03  0.39237568564E+03  0.17300000000E+03 0. -1.
         -6    1    1    2    0  503 -0.90755967527E+02  0.48776006017E+02  0.19849843799E+03  0.28274789882E+03  0.17300000000E+03 0. -1.
<mgrwt>
<rscale>  2 0.20135726E+03</rscale>
<asrwt>0</asrwt>
<pdfrwt beam="1">  1       21 0.93107064E-01 0.20135726E+03</pdfrwt>
<pdfrwt beam="2">  1       21 0.10758100E-01 0.20135726E+03</pdfrwt>
<totfact> 0.68940098E+04</totfact>
</mgrwt>
</event>
<event>
 4    2  0.3992997E+000  0.1938653E+03  0.7546771E-02  0.1155021E+00
         21   -1    0    0  503  502  0.00000000000E+00  0.00000000000E+00  0.21415921863E+03  0.21415921863E+03  0.00000000000E+00 0. -1.
         21   -1    0    0  501  503 -0.00000000000E+00 -0.00000000000E+00 -0.33547752377E+03  0.33547752377E+03  0.00000000000E+00 0.  1.
          6    1    1    2  501    0  0.10756796525E+02  0.86827652487E+02 -0.25043943692E+03  0.31670753302E+03  0.17300000000E+03 0.  1.
         -6    1    1    2    0  502 -0.10756796525E+02 -0.86827652487E+02  0.12912113179E+03  0.23292920938E+03  0.17300000000E+03 0. -1.
<mgrwt>
<rscale>  2 0.19386529E+03</rscale>
<asrwt>0</asrwt>
<pdfrwt beam="1">  1       21 0.32947572E-01 0.19386529E+03</pdfrwt>
<pdfrwt beam="2">  1       21 0.51611926E-01 0.19386529E+03</pdfrwt>
<totfact> 0.31604912E+04</totfact>
</mgrwt>
</event>
<event>
 4    2  0.3992997E+000  0.2394101E+03  0.7546771E-02  0.1120186E+00
         21   -1    0    0  501  502  0.00000000000E+00  0.00000000000E+00  0.58557210169E+02  0.58557210169E+02  0.00000000000E+00 0. -1.
         21   -1    0    0  502  503 -0.00000000000E+00 -0.00000000000E+00 -0.11343436938E+04  0.11343436938E+04  0.00000000000E+00 0.  1.
          6    1    1    2  501    0 -0.13933177519E+03  0.89302128685E+02 -0.75874175178E+03  0.79561690509E+03  0.17300000000E+03 0.  1.
         -6    1    1    2    0  503  0.13933177519E+03 -0.89302128685E+02 -0.31704473180E+03  0.39728399884E+03  0.17300000000E+03 0. -1.
<mgrwt>
<rscale>  2 0.23941014E+03</rscale>
<asrwt>0</asrwt>
<pdfrwt beam="1">  1       21 0.90088028E-02 0.23941014E+03</pdfrwt>
<pdfrwt beam="2">  1       21 0.17451439E+00 0.23941014E+03</pdfrwt>
<totfact> 0.18757566E+04</totfact>
</mgrwt>
</event>
<event>
 4    2  0.3992997E+000  0.2016872E+03  0.7546771E-02  0.1148323E+00
         21   -1    0    0  503  502  0.00000000000E+00  0.00000000000E+00  0.21357301538E+03  0.21357301538E+03  0.00000000000E+00 0.  1.
         21   -1    0    0  501  503 -0.00000000000E+00 -0.00000000000E+00 -0.25322261525E+03  0.25322261525E+03  0.00000000000E+00 0.  1.
          6    1    1    2  501    0  0.58016825996E+02 -0.85923082022E+02 -0.13601945456E+03  0.24326738405E+03  0.17300000000E+03 0.  1.
         -6    1    1    2    0  502 -0.58016825996E+02  0.85923082022E+02  0.96369854695E+02  0.22352824657E+03  0.17300000000E+03 0.  1.
<mgrwt>
<rscale>  2 0.20168720E+03</rscale>
<asrwt>0</asrwt>
<pdfrwt beam="1">  1       21 0.32857387E-01 0.20168720E+03</pdfrwt>
<pdfrwt beam="2">  1       21 0.38957325E-01 0.20168720E+03</pdfrwt>
<totfact> 0.56404262E+04</totfact>
</mgrwt>
</event>
<event>
 4    2  0.3992997E+000  0.2374596E+03  0.7546771E-02  0.1121497E+00
         21   -1    0    0  501  502  0.00000000000E+00  0.00000000000E+00  0.10174321503E+03  0.10174321503E+03  0.00000000000E+00 0. -1.
         21   -1    0    0  502  503 -0.00000000000E+00 -0.00000000000E+00 -0.60724044593E+03  0.60724044593E+03  0.00000000000E+00 0.  1.
          6    1    1    2  501    0  0.14223013257E+03  0.78921726507E+02 -0.35750749541E+03  0.42918371218E+03  0.17300000000E+03 0. -1.
         -6    1    1    2    0  503 -0.14223013257E+03 -0.78921726507E+02 -0.14798973549E+03  0.27979994878E+03  0.17300000000E+03 0. -1.
<mgrwt>
<rscale>  2 0.23745957E+03</rscale>
<asrwt>0</asrwt>
<pdfrwt beam="1">  1       21 0.15652802E-01 0.23745957E+03</pdfrwt>
<pdfrwt beam="2">  1       21 0.93421609E-01 0.23745957E+03</pdfrwt>
<totfact> 0.34163828E+04</totfact>
</mgrwt>
</event>
<event>
 4    2  0.3992997E+000  0.1751852E+03  0.7546771E-02  0.1172546E+00
         21   -1    0    0  501  502  0.00000000000E+00  0.00000000000E+00  0.69217023452E+02  0.69217023452E+02  0.00000000000E+00 0. -1.
         21   -1    0    0  502  503 -0.00000000000E+00 -0.00000000000E+00 -0.55682574867E+03  0.55682574867E+03  0.00000000000E+00 0. -1.
          6    1    1    2  501    0 -0.50564142319E+01 -0.27115898535E+02 -0.10251888210E+03  0.20297773391E+03  0.17300000000E+03 0.  1.
         -6    1    1    2    0  503  0.50564142319E+01  0.27115898535E+02 -0.38508984312E+03  0.42306503821E+03  0.17300000000E+03 0.  1.
<mgrwt>
<rscale>  2 0.17518516E+03</rscale>
<asrwt>0</asrwt>
<pdfrwt beam="1">  1       21 0.10648773E-01 0.17518516E+03</pdfrwt>
<pdfrwt beam="2">  1       21 0.85665495E-01 0.17518516E+03</pdfrwt>
<totfact> 0.86084497E+04</totfact>
</mgrwt>
</event>
<event>
 4    2  0.3992997E+000  0.2227234E+03  0.7546771E-02  0.1131869E+00
         21   -1    0    0  501  502  0.00000000000E+00  0.00000000000E+00  0.15483186826E+03  0.15483186826E+03  0.00000000000E+00 0.  1.
         21   -1    0    0  502  503 -0.00000000000E+00 -0.00000000000E+00 -0.36598781030E+03  0.36598781030E+03  0.00000000000E+00 0.  1.
          6    1    1    2  501    0  0.70592998489E+02 -0.12121616037E+03 -0.13655367462E+02  0.22314165463E+03  0.17300000000E+03 0.  1.
         -6    1    1    2    0  503 -0.70592998489E+02  0.12121616037E+03 -0.19750057458E+03  0.29767802393E+03  0.17300000000E+03 0.  1.
<mgrwt>
<rscale>  2 0.22272344E+03</rscale>
<asrwt>0</asrwt>
<pdfrwt beam="1">  1       21 0.23820288E-01 0.22272344E+03</pdfrwt>
<pdfrwt beam="2">  1       21 0.56305816E-01 0.22272344E+03</pdfrwt>
<totfact> 0.48586667E+04</totfact>
</mgrwt>
</event>
<event>
 4    2  0.3992997E+000  0.2383769E+03  0.7546771E-02  0.1120879E+00
         21   -1    0    0  503  502  0.00000000000E+00  0.00000000000E+00  0.20183918111E+02  0.20183918111E+02  0.00000000000E+00 0. -1.
         21   -1    0    0  501  503 -0.00000000000E+00 -0.00000000000E+00 -0.28239711827E+04  0.28239711827E+04  0.00000000000E+00 0. -1.
          6    1    1    2  501    0 -0.15969513734E+03 -0.37309868171E+02 -0.14807445893E+04  0.14998093552E+04  0.17300000000E+03 0. -1.
         -6    1    1    2    0  502  0.15969513734E+03  0.37309868171E+02 -0.13230426752E+04  0.13443457456E+04  0.17300000000E+03 0. -1.
<mgrwt>
<rscale>  2 0.23837694E+03</rscale>
<asrwt>0</asrwt>
<pdfrwt beam="1">  1       21 0.31052203E-02 0.23837694E+03</pdfrwt>
<pdfrwt beam="2">  1       21 0.43445680E+00 0.23837694E+03</pdfrwt>
<totfact> 0.29609150E+03</totfact>
</mgrwt>
</event>
<event>
 4    2  0.3992997E+000  0.1942994E+03  0.7546771E-02  0.1154640E+00
         21   -1    0    0  501  502  0.00000000000E+00  0.00000000000E+00  0.39686329005E+02  0.39686329005E+02  0.00000000000E+00 0.  1.
         21   -1    0    0  502  503 -0.00000000000E+00 -0.00000000000E+00 -0.95193757731E+03  0.95193757731E+03  0.00000000000E+00 0.  1.
          6    1    1    2  501    0 -0.83238778899E+02  0.29909175465E+02 -0.46929544808E+03  0.50792762346E+03  0.17300000000E+03 0.  1.
         -6    1    1    2    0  503  0.83238778899E+02 -0.29909175465E+02 -0.44295580022E+03  0.48369628285E+03  0.17300000000E+03 0.  1.
<mgrwt>
<rscale>  2 0.19429939E+03</rscale>
<asrwt>0</asrwt>
<pdfrwt beam="1">  1       21 0.61055891E-02 0.19429939E+03</pdfrwt>
<pdfrwt beam="2">  1       21 0.14645194E+00 0.19429939E+03</pdfrwt>
<totfact> 0.60858131E+04</totfact>
</mgrwt>
</event>
<event>
 4    2  0.3992997E+000  0.4356939E+03  0.7546771E-02  0.1032076E+00
         21   -1    0    0  501  502  0.00000000000E+00  0.00000000000E+00  0.94854178589E+03  0.94854178589E+03  0.00000000000E+00 0. -1.
         21   -1    0    0  502  503 -0.00000000000E+00 -0.00000000000E+00 -0.20683531369E+03  0.20683531369E+03  0.00000000000E+00 0.  1.
          6    1    1    2  501    0 -0.38122455536E+03  0.12069800037E+03  0.26681900614E+03  0.51090268246E+03  0.17300000000E+03 0.  1.
         -6    1    1    2    0  503  0.38122455536E+03 -0.12069800037E+03  0.47488746606E+03  0.64447441712E+03  0.17300000000E+03 0. -1.
<mgrwt>
<rscale>  2 0.43569389E+03</rscale>
<asrwt>0</asrwt>
<pdfrwt beam="1">  1       21 0.14592950E+00 0.43569389E+03</pdfrwt>
<pdfrwt beam="2">  1       21 0.31820818E-01 0.43569389E+03</pdfrwt>
<totfact> 0.26424496E+03</totfact>
</mgrwt>
</event>
<event>
 4    2  0.3992997E+000  0.1941189E+03  0.7546771E-02  0.1154798E+00
         21   -1    0    0  503  502  0.00000000000E+00  0.00000000000E+00  0.14893105553E+03  0.14893105553E+03  0.00000000000E+00 0.  1.
         21   -1    0    0  501  503 -0.00000000000E+00 -0.00000000000E+00 -0.26046926505E+03  0.26046926505E+03  0.00000000000E+00 0.  1.
          6    1    1    2  501    0 -0.52114732327E+02 -0.70973167558E+02 -0.90392918168E+02  0.21413317233E+03  0.17300000000E+03 0. -1.
         -6    1    1    2    0  502  0.52114732327E+02  0.70973167558E+02 -0.21145291352E+02  0.19526714825E+03  0.17300000000E+03 0. -1.
<mgrwt>
<rscale>  2 0.19411887E+03</rscale>
<asrwt>0</asrwt>
<pdfrwt beam="1">  1       21 0.22912470E-01 0.19411887E+03</pdfrwt>
<pdfrwt beam="2">  1       21 0.40072194E-01 0.19411887E+03</pdfrwt>
<totfact> 0.10723578E+05</totfact>
</mgrwt>
</event>
<event>
 4    2  0.3992997E+000  0.1874207E+03  0.7546771E-02  0.1160808E+00
         21   -1    0    0  501  502  0.00000000000E+00  0.00000000000E+00  0.78651816431E+02  0.78651816431E+02  0.00000000000E+00 0. -1.
         21   -1    0    0  502  503 -0.00000000000E+00 -0.00000000000E+00 -0.11736610659E+04  0.11736610659E+04  0.00000000000E+00 0. -1.
          6    1    1    2  501    0  0.14348273065E+02 -0.70651611161E+02 -0.54677518759E+02  0.19523358870E+03  0.17300000000E+03 0. -1.
         -6    1    1    2    0  503 -0.14348273065E+02  0.70651611161E+02 -0.10403317307E+04  0.10570792936E+04  0.17300000000E+03 0. -1.
<mgrwt>
<rscale>  2 0.18742071E+03</rscale>
<asrwt>0</asrwt>
<pdfrwt beam="1">  1       21 0.12100280E-01 0.18742071E+03</pdfrwt>
<pdfrwt beam="2">  1       21 0.18056323E+00 0.18742071E+03</pdfrwt>
<totfact> 0.10471587E+04</totfact>
</mgrwt>
</event>
<event>
 4    2  0.3992997E+000  0.1962684E+03  0.7546771E-02  0.1152926E+00
         21   -1    0    0  501  502  0.00000000000E+00  0.00000000000E+00  0.73667348920E+03  0.73667348920E+03  0.00000000000E+00 0. -1.
         21   -1    0    0  502  503 -0.00000000000E+00 -0.00000000000E+00 -0.73613095344E+02  0.73613095344E+02  0.00000000000E+00 0.  1.
          6    1    1    2  501    0  0.66253905979E+02 -0.64828321887E+02  0.54957586571E+03  0.58357083850E+03  0.17300000000E+03 0. -1.
         -6    1    1    2    0  503 -0.66253905979E+02  0.64828321887E+02  0.11348452815E+03  0.22671574605E+03  0.17300000000E+03 0.  1.
<mgrwt>
<rscale>  2 0.19626842E+03</rscale>
<asrwt>0</asrwt>
<pdfrwt beam="1">  1       21 0.11333438E+00 0.19626842E+03</pdfrwt>
<pdfrwt beam="2">  1       21 0.11325092E-01 0.19626842E+03</pdfrwt>
<totfact> 0.39449974E+04</totfact>
</mgrwt>
</event>
<event>
 4    2  0.3992997E+000  0.1916107E+03  0.7546771E-02  0.1157017E+00
         21   -1    0    0  503  502  0.00000000000E+00  0.00000000000E+00  0.21474753946E+03  0.21474753946E+03  0.00000000000E+00 0. -1.
         21   -1    0    0  501  503 -0.00000000000E+00 -0.00000000000E+00 -0.17545314964E+03  0.17545314964E+03  0.00000000000E+00 0. -1.
          6    1    1    2  501    0 -0.81569702435E+02 -0.11490963002E+02 -0.11551272520E+02  0.19195856449E+03  0.17300000000E+03 0. -1.
         -6    1    1    2    0  502  0.81569702435E+02  0.11490963002E+02  0.50845662341E+02  0.19824212460E+03  0.17300000000E+03 0. -1.
<mgrwt>
<rscale>  2 0.19161070E+03</rscale>
<asrwt>0</asrwt>
<pdfrwt beam="1">  1       21 0.33038083E-01 0.19161070E+03</pdfrwt>
<pdfrwt beam="2">  1       21 0.26992792E-01 0.19161070E+03</pdfrwt>
<totfact> 0.11538541E+05</totfact>
</mgrwt>
</event>
<event>
 4    2  0.3992997E+000  0.2545357E+03  0.7546771E-02  0.1110471E+00
         21   -1    0    0  501  502  0.00000000000E+00  0.00000000000E+00  0.28114076318E+03  0.28114076318E+03  0.00000000000E+00 0. -1.
         21   -1    0    0  502  503 -0.00000000000E+00 -0.00000000000E+00 -0.24511955208E+03  0.24511955208E+03  0.00000000000E+00 0. -1.
          6    1    1    2  501    0  0.11217863654E+03 -0.14924930797E+03  0.82385374963E+02  0.26753645066E+03  0.17300000000E+03 0. -1.
         -6    1    1    2    0  503 -0.11217863654E+03  0.14924930797E+03 -0.46364163857E+02  0.25872386460E+03  0.17300000000E+03 0. -1.
<mgrwt>
<rscale>  2 0.25453566E+03</rscale>
<asrwt>0</asrwt>
<pdfrwt beam="1">  1       21 0.43252425E-01 0.25453566E+03</pdfrwt>
<pdfrwt beam="2">  1       21 0.37710701E-01 0.25453566E+03</pdfrwt>
<totfact> 0.33827628E+04</totfact>
</mgrwt>
</event>
<event>
 4    2  0.3992997E+000  0.2987621E+03  0.7546771E-02  0.1085861E+00
         21   -1    0    0  501  502  0.00000000000E+00  0.00000000000E+00  0.74165384243E+03  0.74165384243E+03  0.00000000000E+00 0.  1.
         21   -1    0    0  502  503 -0.00000000000E+00 -0.00000000000E+00 -0.14599012045E+03  0.14599012045E+03  0.00000000000E+00 0.  1.
          6    1    1    2  501    0 -0.10528559559E+03  0.21964678545E+03  0.11183791750E+03  0.31900859986E+03  0.17300000000E+03 0.  1.
         -6    1    1    2    0  503  0.10528559559E+03 -0.21964678545E+03  0.48382580448E+03  0.56863536302E+03  0.17300000000E+03 0.  1.
<mgrwt>
<rscale>  2 0.29876206E+03</rscale>
<asrwt>0</asrwt>
<pdfrwt beam="1">  1       21 0.11410059E+00 0.29876206E+03</pdfrwt>
<pdfrwt beam="2">  1       21 0.22460019E-01 0.29876206E+03</pdfrwt>
<totfact> 0.10428697E+04</totfact>
</mgrwt>
</event>
<event>
 4    2  0.3992997E+000  0.1949428E+03  0.7546771E-02  0.1154077E+00
         21   -1    0    0  501  502  0.00000000000E+00  0.00000000000E+00  0.15207355611E+03  0.15207355611E+03  0.00000000000E+00 0. -1.
         21   -1    0    0  502  503 -0.00000000000E+00 -0.00000000000E+00 -0.25447391972E+03  0.25447391972E+03  0.00000000000E+00 0. -1.
          6    1    1    2  501    0 -0.34679175472E+02  0.82891704259E+02 -0.23938006363E+02  0.19640699579E+03  0.17300000000E+03 0. -1.
         -6    1    1    2    0  503  0.34679175472E+02 -0.82891704259E+02 -0.78462357254E+02  0.21014048004E+03  0.17300000000E+03 0. -1.
<mgrwt>
<rscale>  2 0.19494276E+03</rscale>
<asrwt>0</asrwt>
<pdfrwt beam="1">  1       21 0.23395932E-01 0.19494276E+03</pdfrwt>
<pdfrwt beam="2">  1       21 0.39149834E-01 0.19494276E+03</pdfrwt>
<totfact> 0.10799869E+05</totfact>
</mgrwt>
</event>
<event>
 4    2  0.3992997E+000  0.1753447E+03  0.7546771E-02  0.1172386E+00
         21   -1    0    0  503  502  0.00000000000E+00  0.00000000000E+00  0.12405540395E+04  0.12405540395E+04  0.00000000000E+00 0. -1.
         21   -1    0    0  501  503 -0.00000000000E+00 -0.00000000000E+00 -0.25118034659E+02  0.25118034659E+02  0.00000000000E+00 0. -1.
          6    1    1    2  501    0  0.22186991898E+02  0.18013535174E+02  0.53472719828E+03  0.56274232704E+03  0.17300000000E+03 0.  1.
         -6    1    1    2    0  502 -0.22186991898E+02 -0.18013535174E+02  0.68070880653E+03  0.70292974709E+03  0.17300000000E+03 0.  1.
<mgrwt>
<rscale>  2 0.17534466E+03</rscale>
<asrwt>0</asrwt>
<pdfrwt beam="1">  1       21 0.19085442E+00 0.17534466E+03</pdfrwt>
<pdfrwt beam="2">  1       21 0.38643140E-02 0.17534466E+03</pdfrwt>
<totfact> 0.64604810E+04</totfact>
</mgrwt>
</event>
<event>
 4    2  0.3992997E+000  0.2149763E+03  0.7546771E-02  0.1137685E+00
         21   -1    0    0  503  502  0.00000000000E+00  0.00000000000E+00  0.10968726402E+04  0.10968726402E+04  0.00000000000E+00 0. -1.
         21   -1    0    0  501  503 -0.00000000000E+00 -0.00000000000E+00 -0.77160795943E+02  0.77160795943E+02  0.00000000000E+00 0.  1.
          6    1    1    2  501    0  0.11436679335E+03  0.56621779555E+02  0.11434626846E+03  0.24349508918E+03  0.17300000000E+03 0.  1.
         -6    1    1    2    0  502 -0.11436679335E+03 -0.56621779555E+02  0.90536557576E+03  0.93053834693E+03  0.17300000000E+03 0. -1.
<mgrwt>
<rscale>  2 0.21497625E+03</rscale>
<asrwt>0</asrwt>
<pdfrwt beam="1">  1       21 0.16874963E+00 0.21497625E+03</pdfrwt>
<pdfrwt beam="2">  1       21 0.11870892E-01 0.21497625E+03</pdfrwt>
<totfact> 0.12815266E+04</totfact>
</mgrwt>
</event>
<event>
 4    2  0.3992997E+000  0.1995612E+03  0.7546771E-02  0.1150110E+00
         21   -1    0    0  503  502  0.00000000000E+00  0.00000000000E+00  0.81692075794E+02  0.81692075794E+02  0.00000000000E+00 0.  1.
         21   -1    0    0  501  503 -0.00000000000E+00 -0.00000000000E+00 -0.65797995667E+03  0.65797995667E+03  0.00000000000E+00 0.  1.
          6    1    1    2  501    0 -0.74453580021E+02 -0.65972241562E+02 -0.47639736320E+03  0.51650665039E+03  0.17300000000E+03 0. -1.
         -6    1    1    2    0  502  0.74453580021E+02  0.65972241562E+02 -0.99890517680E+02  0.22316538208E+03  0.17300000000E+03 0. -1.
<mgrwt>
<rscale>  2 0.19956120E+03</rscale>
<asrwt>0</asrwt>
<pdfrwt beam="1">  1       21 0.12568011E-01 0.19956120E+03</pdfrwt>
<pdfrwt beam="2">  1       21 0.10122769E+00 0.19956120E+03</pdfrwt>
<totfact> 0.42916194E+04</totfact>
</mgrwt>
</event>
<event>
 4    2  0.3992997E+000  0.1806820E+03  0.7546771E-02  0.1167145E+00
         21   -1    0    0  501  502  0.00000000000E+00  0.00000000000E+00  0.63632809476E+02  0.63632809476E+02  0.00000000000E+00 0.  1.
         21   -1    0    0  502  503 -0.00000000000E+00 -0.00000000000E+00 -0.11620404167E+04  0.11620404167E+04  0.00000000000E+00 0.  1.
          6    1    1    2  501    0 -0.29952774260E+02 -0.42659299162E+02 -0.91212127553E+02  0.20239969541E+03  0.17300000000E+03 0.  1.
         -6    1    1    2    0  503  0.29952774260E+02  0.42659299162E+02 -0.10071954797E+04  0.10232735308E+04  0.17300000000E+03 0.  1.
<mgrwt>
<rscale>  2 0.18068200E+03</rscale>
<asrwt>0</asrwt>
<pdfrwt beam="1">  1       21 0.97896640E-02 0.18068200E+03</pdfrwt>
<pdfrwt beam="2">  1       21 0.17877543E+00 0.18068200E+03</pdfrwt>
<totfact> 0.15769799E+04</totfact>
</mgrwt>
</event>
<event>
 4    2  0.3992997E+000  0.2569840E+03  0.7546771E-02  0.1108969E+00
         21   -1    0    0  501  502  0.00000000000E+00  0.00000000000E+00  0.64226143816E+03  0.64226143816E+03  0.00000000000E+00 0.  1.
         21   -1    0    0  502  503 -0.00000000000E+00 -0.00000000000E+00 -0.27488461228E+03  0.27488461228E+03  0.00000000000E+00 0. -1.
          6    1    1    2  501    0  0.18252387966E+03  0.52885102610E+02  0.54649255157E+03  0.60389975132E+03  0.17300000000E+03 0.  1.
         -6    1    1    2    0  503 -0.18252387966E+03 -0.52885102610E+02 -0.17911572569E+03  0.31324629912E+03  0.17300000000E+03 0. -1.
<mgrwt>
<rscale>  2 0.25698405E+03</rscale>
<asrwt>0</asrwt>
<pdfrwt beam="1">  1       21 0.98809452E-01 0.25698405E+03</pdfrwt>
<pdfrwt beam="2">  1       21 0.42289940E-01 0.25698405E+03</pdfrwt>
<totfact> 0.43391625E+03</totfact>
</mgrwt>
</event>
<event>
 4    2  0.3992997E+000  0.1945994E+03  0.7546771E-02  0.1154377E+00
         21   -1    0    0  503  502  0.00000000000E+00  0.00000000000E+00  0.26203984577E+03  0.26203984577E+03  0.00000000000E+00 0. -1.
         21   -1    0    0  501  503 -0.00000000000E+00 -0.00000000000E+00 -0.17643241886E+03  0.17643241886E+03  0.00000000000E+00 0.  1.
          6    1    1    2  501    0  0.60521290555E+02 -0.65399610821E+02 -0.50442326290E+02  0.20103075384E+03  0.17300000000E+03 0.  1.
         -6    1    1    2    0  502 -0.60521290555E+02  0.65399610821E+02  0.13604975320E+03  0.23744151080E+03  0.17300000000E+03 0. -1.
<mgrwt>
<rscale>  2 0.19459942E+03</rscale>
<asrwt>0</asrwt>
<pdfrwt beam="1">  1       21 0.40313822E-01 0.19459942E+03</pdfrwt>
<pdfrwt beam="2">  1       21 0.27143449E-01 0.19459942E+03</pdfrwt>
<totfact> 0.76641826E+04</totfact>
</mgrwt>
</event>
<event>
 4    2  0.3992997E+000  0.1873737E+03  0.7546771E-02  0.1160852E+00
         21   -1    0    0  501  502  0.00000000000E+00  0.00000000000E+00  0.49694499618E+03  0.49694499618E+03  0.00000000000E+00 0.  1.
         21   -1    0    0  502  503 -0.00000000000E+00 -0.00000000000E+00 -0.14417087481E+03  0.14417087481E+03  0.00000000000E+00 0.  1.
          6    1    1    2  501    0  0.65868841886E+02  0.29003629889E+02  0.40530223340E+03  0.44651854976E+03  0.17300000000E+03 0.  1.
         -6    1    1    2    0  503 -0.65868841886E+02 -0.29003629889E+02 -0.52528112024E+02  0.19459732123E+03  0.17300000000E+03 0.  1.
<mgrwt>
<rscale>  2 0.18737373E+03</rscale>
<asrwt>0</asrwt>
<pdfrwt beam="1">  1       21 0.76453076E-01 0.18737373E+03</pdfrwt>
<pdfrwt beam="2">  1       21 0.22180135E-01 0.18737373E+03</pdfrwt>
<totfact> 0.29036695E+04</totfact>
</mgrwt>
</event>
<event>
 4    2  0.3992997E+000  0.1805116E+03  0.7546771E-02  0.1167309E+00
         21   -1    0    0  501  502  0.00000000000E+00  0.00000000000E+00  0.15461926500E+03  0.15461926500E+03  0.00000000000E+00 0.  1.
         21   -1    0    0  502  503 -0.00000000000E+00 -0.00000000000E+00 -0.29986749202E+03  0.29986749202E+03  0.00000000000E+00 0.  1.
          6    1    1    2  501    0  0.42892751548E+02  0.28559702302E+02  0.51264869797E+02  0.18765002426E+03  0.17300000000E+03 0.  1.
         -6    1    1    2    0  503 -0.42892751548E+02 -0.28559702302E+02 -0.19651309681E+03  0.26683673276E+03  0.17300000000E+03 0.  1.
<mgrwt>
<rscale>  2 0.18051162E+03</rscale>
<asrwt>0</asrwt>
<pdfrwt beam="1">  1       21 0.23787579E-01 0.18051162E+03</pdfrwt>
<pdfrwt beam="2">  1       21 0.46133460E-01 0.18051162E+03</pdfrwt>
<totfact> 0.75344290E+04</totfact>
</mgrwt>
</event>
<event>
 4    2  0.3992997E+000  0.1976925E+03  0.7546771E-02  0.1151701E+00
         21   -1    0    0  501  502  0.00000000000E+00  0.00000000000E+00  0.13790333178E+03  0.13790333178E+03  0.00000000000E+00 0.  1.
         21   -1    0    0  502  503 -0.00000000000E+00 -0.00000000000E+00 -0.43943497122E+03  0.43943497122E+03  0.00000000000E+00 0. -1.
          6    1    1    2  501    0 -0.94025442607E+02  0.17678608558E+02  0.21246227590E+02  0.19883088101E+03  0.17300000000E+03 0.  1.
         -6    1    1    2    0  503  0.94025442607E+02 -0.17678608558E+02 -0.32277786702E+03  0.37850742199E+03  0.17300000000E+03 0. -1.
<mgrwt>
<rscale>  2 0.19769248E+03</rscale>
<asrwt>0</asrwt>
<pdfrwt beam="1">  1       21 0.21215897E-01 0.19769248E+03</pdfrwt>
<pdfrwt beam="2">  1       21 0.67605380E-01 0.19769248E+03</pdfrwt>
<totfact> 0.41232362E+04</totfact>
</mgrwt>
</event>
<event>
 4    2  0.3992997E+000  0.1863704E+03  0.7546771E-02  0.1161776E+00
         21   -1    0    0  501  502  0.00000000000E+00  0.00000000000E+00  0.24252107175E+03  0.24252107175E+03  0.00000000000E+00 0. -1.
         21   -1    0    0  502  503 -0.00000000000E+00 -0.00000000000E+00 -0.56238032466E+03  0.56238032466E+03  0.00000000000E+00 0. -1.
          6    1    1    2  501    0 -0.53186663674E+02 -0.44453570762E+02  0.18751656353E+03  0.26437927821E+03  0.17300000000E+03 0. -1.
         -6    1    1    2    0  503  0.53186663674E+02  0.44453570762E+02 -0.50737581645E+03  0.54052211820E+03  0.17300000000E+03 0. -1.
<mgrwt>
<rscale>  2 0.18637044E+03</rscale>
<asrwt>0</asrwt>
<pdfrwt beam="1">  1       21 0.37310935E-01 0.18637044E+03</pdfrwt>
<pdfrwt beam="2">  1       21 0.86520048E-01 0.18637044E+03</pdfrwt>
<totfact> 0.80074417E+03</totfact>
</mgrwt>
</event>
<event>
 4    2  0.3992997E+000  0.2700312E+03  0.7546771E-02  0.1101262E+00
         21   -1    0    0  503  502  0.00000000000E+00  0.00000000000E+00  0.12117615423E+03  0.12117615423E+03  0.00000000000E+00 0.  1.
         21   -1    0    0  501  503 -0.00000000000E+00 -0.00000000000E+00 -0.60591755757E+03  0.60591755757E+03  0.00000000000E+00 0. -1.
          6    1    1    2  501    0  0.69048484380E+02 -0.19549971589E+03 -0.27254860746E+03  0.38366596870E+03  0.17300000000E+03 0. -1.
         -6    1    1    2    0  502 -0.69048484380E+02  0.19549971589E+03 -0.21219279588E+03  0.34342774310E+03  0.17300000000E+03 0.  1.
<mgrwt>
<rscale>  2 0.27003117E+03</rscale>
<asrwt>0</asrwt>
<pdfrwt beam="1">  1       21 0.18642485E-01 0.27003117E+03</pdfrwt>
<pdfrwt beam="2">  1       21 0.93218087E-01 0.27003117E+03</pdfrwt>
<totfact> 0.24477387E+04</totfact>
</mgrwt>
</event>
<event>
 4    2  0.3992997E+000  0.1939937E+03  0.7546771E-02  0.1154908E+00
         21   -1    0    0  501  502  0.00000000000E+00  0.00000000000E+00  0.11356591920E+03  0.11356591920E+03  0.00000000000E+00 0. -1.
         21   -1    0    0  502  503 -0.00000000000E+00 -0.00000000000E+00 -0.56954250024E+03  0.56954250024E+03  0.00000000000E+00 0. -1.
          6    1    1    2  501    0 -0.51023625001E+02  0.71422229887E+02 -0.71203433040E+01  0.19412430172E+03  0.17300000000E+03 0. -1.
         -6    1    1    2    0  503  0.51023625001E+02 -0.71422229887E+02 -0.44885623774E+03  0.48898411772E+03  0.17300000000E+03 0. -1.
<mgrwt>
<rscale>  2 0.19399367E+03</rscale>
<asrwt>0</asrwt>
<pdfrwt beam="1">  1       21 0.17471680E-01 0.19399367E+03</pdfrwt>
<pdfrwt beam="2">  1       21 0.87621922E-01 0.19399367E+03</pdfrwt>
<totfact> 0.33128025E+04</totfact>
</mgrwt>
</event>
<event>
 4    2  0.3992997E+000  0.2915356E+03  0.7546771E-02  0.1089550E+00
         21   -1    0    0  503  502  0.00000000000E+00  0.00000000000E+00  0.10662999054E+04  0.10662999054E+04  0.00000000000E+00 0.  1.
         21   -1    0    0  501  503 -0.00000000000E+00 -0.00000000000E+00 -0.11729189388E+03  0.11729189388E+03  0.00000000000E+00 0. -1.
          6    1    1    2  501    0  0.54868917133E+02 -0.22815215964E+03  0.13951016892E+03  0.32319667889E+03  0.17300000000E+03 0. -1.
         -6    1    1    2    0  502 -0.54868917133E+02  0.22815215964E+03  0.80949784260E+03  0.86039512039E+03  0.17300000000E+03 0.  1.
<mgrwt>
<rscale>  2 0.29153560E+03</rscale>
<asrwt>0</asrwt>
<pdfrwt beam="1">  1       21 0.16404613E+00 0.29153560E+03</pdfrwt>
<pdfrwt beam="2">  1       21 0.18044908E-01 0.29153560E+03</pdfrwt>
<totfact> 0.61399576E+03</totfact>
</mgrwt>
</event>
<event>
 4    2  0.3992997E+000  0.1879723E+03  0.7546771E-02  0.1160303E+00
         21   -1    0    0  501  502  0.00000000000E+00  0.00000000000E+00  0.65170703128E+02  0.65170703128E+02  0.00000000000E+00 0. -1.
         21   -1    0    0  502  503 -0.00000000000E+00 -0.00000000000E+00 -0.74452344567E+03  0.74452344567E+03  0.00000000000E+00 0.  1.
          6    1    1    2  501    0 -0.65524467121E+02 -0.33333835831E+02 -0.12861579812E+03  0.22776220918E+03  0.17300000000E+03 0. -1.
         -6    1    1    2    0  503  0.65524467121E+02  0.33333835831E+02 -0.55073694442E+03  0.58193193962E+03  0.17300000000E+03 0.  1.
<mgrwt>
<rscale>  2 0.18797234E+03</rscale>
<asrwt>0</asrwt>
<pdfrwt beam="1">  1       21 0.10026261E-01 0.18797234E+03</pdfrwt>
<pdfrwt beam="2">  1       21 0.11454208E+00 0.18797234E+03</pdfrwt>
<totfact> 0.47930637E+04</totfact>
</mgrwt>
</event>
<event>
 4    2  0.3992997E+000  0.3753587E+03  0.7546771E-02  0.1052663E+00
         21   -1    0    0  501  502  0.00000000000E+00  0.00000000000E+00  0.11505434825E+04  0.11505434825E+04  0.00000000000E+00 0. -1.
         21   -1    0    0  502  503 -0.00000000000E+00 -0.00000000000E+00 -0.12293664823E+03  0.12293664823E+03  0.00000000000E+00 0. -1.
          6    1    1    2  501    0 -0.10415026559E+03 -0.31641408193E+03  0.55350212923E+03  0.66877406957E+03  0.17300000000E+03 0. -1.
         -6    1    1    2    0  503  0.10415026559E+03  0.31641408193E+03  0.47410470504E+03  0.60470606116E+03  0.17300000000E+03 0. -1.
<mgrwt>
<rscale>  2 0.37535869E+03</rscale>
<asrwt>0</asrwt>
<pdfrwt beam="1">  1       21 0.17700668E+00 0.37535869E+03</pdfrwt>
<pdfrwt beam="2">  1       21 0.18913331E-01 0.37535869E+03</pdfrwt>
<totfact> 0.43487404E+03</totfact>
</mgrwt>
</event>
<event>
 4    2  0.3992997E+000  0.2653437E+03  0.7546771E-02  0.1103974E+00
         21   -1    0    0  501  502  0.00000000000E+00  0.00000000000E+00  0.19710009308E+03  0.19710009308E+03  0.00000000000E+00 0.  1.
         21   -1    0    0  502  503 -0.00000000000E+00 -0.00000000000E+00 -0.35857829952E+03  0.35857829952E+03  0.00000000000E+00 0.  1.
          6    1    1    2  501    0  0.75021353312E+02 -0.18668179747E+03 -0.63613502547E+02  0.27286255636E+03  0.17300000000E+03 0.  1.
         -6    1    1    2    0  503 -0.75021353312E+02  0.18668179747E+03 -0.97864703889E+02  0.28281583624E+03  0.17300000000E+03 0.  1.
<mgrwt>
<rscale>  2 0.26534373E+03</rscale>
<asrwt>0</asrwt>
<pdfrwt beam="1">  1       21 0.30323091E-01 0.26534373E+03</pdfrwt>
<pdfrwt beam="2">  1       21 0.55165892E-01 0.26534373E+03</pdfrwt>
<totfact> 0.31232834E+04</totfact>
</mgrwt>
</event>
<event>
 4    2  0.3992997E+000  0.1807301E+03  0.7546771E-02  0.1167098E+00
         21   -1    0    0  503  502  0.00000000000E+00  0.00000000000E+00  0.31666042821E+02  0.31666042821E+02  0.00000000000E+00 0.  1.
         21   -1    0    0  501  503 -0.00000000000E+00 -0.00000000000E+00 -0.10369458911E+04  0.10369458911E+04  0.00000000000E+00 0.  1.
          6    1    1    2  501    0  0.42642026370E+02  0.30266123069E+02 -0.46390293362E+03  0.49786475316E+03  0.17300000000E+03 0.  1.
         -6    1    1    2    0  502 -0.42642026370E+02 -0.30266123069E+02 -0.54137691465E+03  0.57074718075E+03  0.17300000000E+03 0.  1.
<mgrwt>
<rscale>  2 0.18073013E+03</rscale>
<asrwt>0</asrwt>
<pdfrwt beam="1">  1       21 0.48716995E-02 0.18073013E+03</pdfrwt>
<pdfrwt beam="2">  1       21 0.15953012E+00 0.18073013E+03</pdfrwt>
<totfact> 0.71770057E+04</totfact>
</mgrwt>
</event>
<event>
 4    2  0.3992997E+000  0.1829436E+03  0.7546771E-02  0.1164984E+00
         21   -1    0    0  503  502  0.00000000000E+00  0.00000000000E+00  0.10653961364E+04  0.10653961364E+04  0.00000000000E+00 0.  1.
         21   -1    0    0  501  503 -0.00000000000E+00 -0.00000000000E+00 -0.57415650286E+02  0.57415650286E+02  0.00000000000E+00 0.  1.
          6    1    1    2  501    0  0.23575364783E+02 -0.54622015019E+02  0.12619001469E+03  0.22224374492E+03  0.17300000000E+03 0.  1.
         -6    1    1    2    0  502 -0.23575364783E+02  0.54622015019E+02  0.88179047143E+03  0.90056804177E+03  0.17300000000E+03 0.  1.
<mgrwt>
<rscale>  2 0.18294360E+03</rscale>
<asrwt>0</asrwt>
<pdfrwt beam="1">  1       21 0.16390708E+00 0.18294360E+03</pdfrwt>
<pdfrwt beam="2">  1       21 0.88331778E-02 0.18294360E+03</pdfrwt>
<totfact> 0.23955657E+04</totfact>
</mgrwt>
</event>
<event>
 4    2  0.3992997E+000  0.2286218E+03  0.7546771E-02  0.1127614E+00
         21   -1    0    0  503  502  0.00000000000E+00  0.00000000000E+00  0.68017186835E+02  0.68017186835E+02  0.00000000000E+00 0. -1.
         21   -1    0    0  501  503 -0.00000000000E+00 -0.00000000000E+00 -0.86682912470E+03  0.86682912470E+03  0.00000000000E+00 0. -1.
          6    1    1    2  501    0  0.12643997200E+03 -0.79698658054E+02 -0.55687333355E+03  0.60197662101E+03  0.17300000000E+03 0. -1.
         -6    1    1    2    0  502 -0.12643997200E+03  0.79698658054E+02 -0.24193860431E+03  0.33286969053E+03  0.17300000000E+03 0. -1.
<mgrwt>
<rscale>  2 0.22862183E+03</rscale>
<asrwt>0</asrwt>
<pdfrwt beam="1">  1       21 0.10464183E-01 0.22862183E+03</pdfrwt>
<pdfrwt beam="2">  1       21 0.13335833E+00 0.22862183E+03</pdfrwt>
<totfact> 0.29721908E+04</totfact>
</mgrwt>
</event>
<event>
 4    2  0.3992997E+000  0.2297963E+03  0.7546771E-02  0.1126783E+00
         21   -1    0    0  503  502  0.00000000000E+00  0.00000000000E+00  0.16146996807E+03  0.16146996807E+03  0.00000000000E+00 0.  1.
         21   -1    0    0  501  503 -0.00000000000E+00 -0.00000000000E+00 -0.33850095221E+03  0.33850095221E+03  0.00000000000E+00 0. -1.
          6    1    1    2  501    0 -0.14983078922E+03 -0.20690116111E+02 -0.42506992290E+02  0.23369465269E+03  0.17300000000E+03 0. -1.
         -6    1    1    2    0  502  0.14983078922E+03  0.20690116111E+02 -0.13452399185E+03  0.26627626760E+03  0.17300000000E+03 0.  1.
<mgrwt>
<rscale>  2 0.22979631E+03</rscale>
<asrwt>0</asrwt>
<pdfrwt beam="1">  1       21 0.24841534E-01 0.22979631E+03</pdfrwt>
<pdfrwt beam="2">  1       21 0.52077069E-01 0.22979631E+03</pdfrwt>
<totfact> 0.52745498E+04</totfact>
</mgrwt>
</event>
<event>
 4    2  0.3992997E+000  0.1819146E+03  0.7546771E-02  0.1165963E+00
         21   -1    0    0  503  502  0.00000000000E+00  0.00000000000E+00  0.10264304184E+04  0.10264304184E+04  0.00000000000E+00 0.  1.
         21   -1    0    0  501  503 -0.00000000000E+00 -0.00000000000E+00 -0.61213125751E+02  0.61213125751E+02  0.00000000000E+00 0.  1.
          6    1    1    2  501    0 -0.44226172360E+02 -0.34755776146E+02  0.10847554427E+03  0.21180146836E+03  0.17300000000E+03 0.  1.
         -6    1    1    2    0  502  0.44226172360E+02  0.34755776146E+02  0.85674174839E+03  0.87584207580E+03  0.17300000000E+03 0.  1.
<mgrwt>
<rscale>  2 0.18191459E+03</rscale>
<asrwt>0</asrwt>
<pdfrwt beam="1">  1       21 0.15791236E+00 0.18191459E+03</pdfrwt>
<pdfrwt beam="2">  1       21 0.94174047E-02 0.18191459E+03</pdfrwt>
<totfact> 0.23689722E+04</totfact>
</mgrwt>
</event>
<event>
 4    2  0.3992997E+000  0.2633867E+03  0.7546771E-02  0.1105125E+00
         21   -1    0    0  501  502  0.00000000000E+00  0.00000000000E+00  0.93134575956E+02  0.93134575956E+02  0.00000000000E+00 0. -1.
         21   -1    0    0  502  503 -0.00000000000E+00 -0.00000000000E+00 -0.10080869968E+04  0.10080869968E+04  0.00000000000E+00 0. -1.
          6    1    1    2  501    0  0.19239550010E+03 -0.49269890824E+02 -0.17611903411E+03  0.31684454355E+03  0.17300000000E+03 0. -1.
         -6    1    1    2    0  503 -0.19239550010E+03  0.49269890824E+02 -0.73883338678E+03  0.78437702925E+03  0.17300000000E+03 0. -1.
<mgrwt>
<rscale>  2 0.26338669E+03</rscale>
<asrwt>0</asrwt>
<pdfrwt beam="1">  1       21 0.14328396E-01 0.26338669E+03</pdfrwt>
<pdfrwt beam="2">  1       21 0.15509032E+00 0.26338669E+03</pdfrwt>
<totfact> 0.11135326E+04</totfact>
</mgrwt>
</event>
<event>
 4    2  0.3992997E+000  0.1963421E+03  0.7546771E-02  0.1152862E+00
         21   -1    0    0  503  502  0.00000000000E+00  0.00000000000E+00  0.75589153773E+02  0.75589153773E+02  0.00000000000E+00 0.  1.
         21   -1    0    0  501  503 -0.00000000000E+00 -0.00000000000E+00 -0.77869273141E+03  0.77869273141E+03  0.00000000000E+00 0.  1.
          6    1    1    2  501    0 -0.31435075044E-01  0.92850468162E+02 -0.10064127561E+03  0.22063290050E+03  0.17300000000E+03 0.  1.
         -6    1    1    2    0  502  0.31435075044E-01 -0.92850468162E+02 -0.60246230203E+03  0.63364898468E+03  0.17300000000E+03 0.  1.
<mgrwt>
<rscale>  2 0.19634208E+03</rscale>
<asrwt>0</asrwt>
<pdfrwt beam="1">  1       21 0.11629100E-01 0.19634208E+03</pdfrwt>
<pdfrwt beam="2">  1       21 0.11979889E+00 0.19634208E+03</pdfrwt>
<totfact> 0.32845076E+04</totfact>
</mgrwt>
</event>
<event>
 4    2  0.3992997E+000  0.2088285E+03  0.7546771E-02  0.1142497E+00
         21   -1    0    0  501  502  0.00000000000E+00  0.00000000000E+00  0.66857351901E+03  0.66857351901E+03  0.00000000000E+00 0. -1.
         21   -1    0    0  502  503 -0.00000000000E+00 -0.00000000000E+00 -0.74070982978E+02  0.74070982978E+02  0.00000000000E+00 0. -1.
          6    1    1    2  501    0 -0.11577602364E+03  0.16620839632E+02  0.42555522016E+03  0.47403226194E+03  0.17300000000E+03 0. -1.
         -6    1    1    2    0  503  0.11577602364E+03 -0.16620839632E+02  0.16894731588E+03  0.26861224005E+03  0.17300000000E+03 0. -1.
<mgrwt>
<rscale>  2 0.20882849E+03</rscale>
<asrwt>0</asrwt>
<pdfrwt beam="1">  1       21 0.10285746E+00 0.20882849E+03</pdfrwt>
<pdfrwt beam="2">  1       21 0.11395536E-01 0.20882849E+03</pdfrwt>
<totfact> 0.48991639E+04</totfact>
</mgrwt>
</event>
<event>
 4    2  0.3992997E+000  0.2014379E+03  0.7546771E-02  0.1148531E+00
         21   -1    0    0  503  502  0.00000000000E+00  0.00000000000E+00  0.26277311255E+03  0.26277311255E+03  0.00000000000E+00 0.  1.
         21   -1    0    0  501  503 -0.00000000000E+00 -0.00000000000E+00 -0.17755013932E+03  0.17755013932E+03  0.00000000000E+00 0. -1.
          6    1    1    2  501    0  0.42997022313E+02  0.93805611077E+02  0.12207667846E+03  0.23554182648E+03  0.17300000000E+03 0.  1.
         -6    1    1    2    0  502 -0.42997022313E+02 -0.93805611077E+02 -0.36853705236E+02  0.20478142540E+03  0.17300000000E+03 0. -1.
<mgrwt>
<rscale>  2 0.20143792E+03</rscale>
<asrwt>0</asrwt>
<pdfrwt beam="1">  1       21 0.40426633E-01 0.20143792E+03</pdfrwt>
<pdfrwt beam="2">  1       21 0.27315406E-01 0.20143792E+03</pdfrwt>
<totfact> 0.75057910E+04</totfact>
</mgrwt>
</event>
<event>
 4    2  0.3992997E+000  0.1924585E+03  0.7546771E-02  0.1156262E+00
         21   -1    0    0  503  502  0.00000000000E+00  0.00000000000E+00  0.47401929934E+03  0.47401929934E+03  0.00000000000E+00 0.  1.
         21   -1    0    0  501  503 -0.00000000000E+00 -0.00000000000E+00 -0.20819973502E+03  0.20819973502E+03  0.00000000000E+00 0.  1.
          6    1    1    2  501    0 -0.83820391249E+02 -0.92423744490E+01 -0.13669260529E+03  0.23606174577E+03  0.17300000000E+03 0.  1.
         -6    1    1    2    0  502  0.83820391249E+02  0.92423744490E+01  0.40251216962E+03  0.44615728859E+03  0.17300000000E+03 0.  1.
<mgrwt>
<rscale>  2 0.19245851E+03</rscale>
<asrwt>0</asrwt>
<pdfrwt beam="1">  1       21 0.72926046E-01 0.19245851E+03</pdfrwt>
<pdfrwt beam="2">  1       21 0.32030729E-01 0.19245851E+03</pdfrwt>
<totfact> 0.15868238E+04</totfact>
</mgrwt>
</event>
<event>
 4    2  0.3992997E+000  0.2353965E+03  0.7546771E-02  0.1122898E+00
         21   -1    0    0  503  502  0.00000000000E+00  0.00000000000E+00  0.39582044082E+03  0.39582044082E+03  0.00000000000E+00 0. -1.
         21   -1    0    0  501  503 -0.00000000000E+00 -0.00000000000E+00 -0.14909560067E+03  0.14909560067E+03  0.00000000000E+00 0.  1.
          6    1    1    2  501    0  0.15719830378E+03 -0.27770497733E+02  0.56036064692E+02  0.24197427095E+03  0.17300000000E+03 0.  1.
         -6    1    1    2    0  502 -0.15719830378E+03  0.27770497733E+02  0.19068877546E+03  0.30294177055E+03  0.17300000000E+03 0.  1.
<mgrwt>
<rscale>  2 0.23539649E+03</rscale>
<asrwt>0</asrwt>
<pdfrwt beam="1">  1       21 0.60895452E-01 0.23539649E+03</pdfrwt>
<pdfrwt beam="2">  1       21 0.22937785E-01 0.23539649E+03</pdfrwt>
<totfact> 0.43874250E+04</totfact>
</mgrwt>
</event>
<event>
 4    2  0.3992997E+000  0.2367526E+03  0.7546771E-02  0.1121975E+00
         21   -1    0    0  501  502  0.00000000000E+00  0.00000000000E+00  0.78487360971E+02  0.78487360971E+02  0.00000000000E+00 0.  1.
         21   -1    0    0  502  503 -0.00000000000E+00 -0.00000000000E+00 -0.71421947065E+03  0.71421947065E+03  0.00000000000E+00 0. -1.
          6    1    1    2  501    0 -0.20555226427E+02 -0.16031301256E+03 -0.31396798436E+03  0.39322725558E+03  0.17300000000E+03 0. -1.
         -6    1    1    2    0  503  0.20555226427E+02  0.16031301256E+03 -0.32176412532E+03  0.39947957604E+03  0.17300000000E+03 0.  1.
<mgrwt>
<rscale>  2 0.23675257E+03</rscale>
<asrwt>0</asrwt>
<pdfrwt beam="1">  1       21 0.12074978E-01 0.23675257E+03</pdfrwt>
<pdfrwt beam="2">  1       21 0.10987992E+00 0.23675257E+03</pdfrwt>
<totfact> 0.37136941E+04</totfact>
</mgrwt>
</event>
<event>
 4    2  0.3992997E+000  0.2211263E+03  0.7546771E-02  0.1133046E+00
         21   -1    0    0  501  502  0.00000000000E+00  0.00000000000E+00  0.91443201893E+02  0.91443201893E+02  0.00000000000E+00 0. -1.
         21   -1    0    0  502  503 -0.00000000000E+00 -0.00000000000E+00 -0.58474124681E+03  0.58474124681E+03  0.00000000000E+00 0.  1.
          6    1    1    2  501    0 -0.44418469878E+02 -0.13036429422E+03 -0.14776767025E+03  0.26595513540E+03  0.17300000000E+03 0.  1.
         -6    1    1    2    0  503  0.44418469878E+02  0.13036429422E+03 -0.34553037466E+03  0.41022931330E+03  0.17300000000E+03 0.  1.
<mgrwt>
<rscale>  2 0.22112632E+03</rscale>
<asrwt>0</asrwt>
<pdfrwt beam="1">  1       21 0.14068185E-01 0.22112632E+03</pdfrwt>
<pdfrwt beam="2">  1       21 0.89960194E-01 0.22112632E+03</pdfrwt>
<totfact> 0.45695793E+04</totfact>
</mgrwt>
</event>
<event>
 4    2  0.3992997E+000  0.2160726E+03  0.7546771E-02  0.1136845E+00
         21   -1    0    0  503  502  0.00000000000E+00  0.00000000000E+00  0.28821720472E+03  0.28821720472E+03  0.00000000000E+00 0. -1.
         21   -1    0    0  501  503 -0.00000000000E+00 -0.00000000000E+00 -0.17209115405E+03  0.17209115405E+03  0.00000000000E+00 0. -1.
          6    1    1    2  501    0  0.10536806180E+03 -0.75206007614E+02  0.22937931672E+01  0.21608478317E+03  0.17300000000E+03 0. -1.
         -6    1    1    2    0  502 -0.10536806180E+03  0.75206007614E+02  0.11383225750E+03  0.24422357560E+03  0.17300000000E+03 0. -1.
<mgrwt>
<rscale>  2 0.21607261E+03</rscale>
<asrwt>0</asrwt>
<pdfrwt beam="1">  1       21 0.44341108E-01 0.21607261E+03</pdfrwt>
<pdfrwt beam="2">  1       21 0.26475562E-01 0.21607261E+03</pdfrwt>
<totfact> 0.65598914E+04</totfact>
</mgrwt>
</event>
<event>
 4    2  0.3992997E+000  0.2045285E+03  0.7546771E-02  0.1145974E+00
         21   -1    0    0  501  502  0.00000000000E+00  0.00000000000E+00  0.16732541970E+03  0.16732541970E+03  0.00000000000E+00 0.  1.
         21   -1    0    0  502  503 -0.00000000000E+00 -0.00000000000E+00 -0.40225139908E+03  0.40225139908E+03  0.00000000000E+00 0.  1.
          6    1    1    2  501    0 -0.10137691559E+03  0.40318923413E+02  0.57743252211E+02  0.21252335819E+03  0.17300000000E+03 0.  1.
         -6    1    1    2    0  503  0.10137691559E+03 -0.40318923413E+02 -0.29266923160E+03  0.35705346059E+03  0.17300000000E+03 0.  1.
<mgrwt>
<rscale>  2 0.20452847E+03</rscale>
<asrwt>0</asrwt>
<pdfrwt beam="1">  1       21 0.25742373E-01 0.20452847E+03</pdfrwt>
<pdfrwt beam="2">  1       21 0.61884830E-01 0.20452847E+03</pdfrwt>
<totfact> 0.34501695E+04</totfact>
</mgrwt>
</event>
<event>
 4    2  0.3992997E+000  0.1862611E+03  0.7546771E-02  0.1161877E+00
         21   -1    0    0  501  502  0.00000000000E+00  0.00000000000E+00  0.55723246780E+02  0.55723246780E+02  0.00000000000E+00 0. -1.
         21   -1    0    0  502  503 -0.00000000000E+00 -0.00000000000E+00 -0.64115474544E+03  0.64115474544E+03  0.00000000000E+00 0. -1.
          6    1    1    2  501    0  0.13109453078E+02  0.67766886459E+02 -0.23343814693E+03  0.29864121802E+03  0.17300000000E+03 0.  1.
         -6    1    1    2    0  503 -0.13109453078E+02 -0.67766886459E+02 -0.35199335173E+03  0.39823677420E+03  0.17300000000E+03 0.  1.
<mgrwt>
<rscale>  2 0.18626113E+03</rscale>
<asrwt>0</asrwt>
<pdfrwt beam="1">  1       21 0.85728075E-02 0.18626113E+03</pdfrwt>
<pdfrwt beam="2">  1       21 0.98639188E-01 0.18626113E+03</pdfrwt>
<totfact> 0.90440108E+04</totfact>
</mgrwt>
</event>
<event>
 4    2  0.3992997E+000  0.2135477E+03  0.7546771E-02  0.1138787E+00
         21   -1    0    0  501  502  0.00000000000E+00  0.00000000000E+00  0.36063478088E+03  0.36063478088E+03  0.00000000000E+00 0. -1.
         21   -1    0    0  502  503 -0.00000000000E+00 -0.00000000000E+00 -0.13720735336E+03  0.13720735336E+03  0.00000000000E+00 0.  1.
          6    1    1    2  501    0 -0.16886885513E+02 -0.12405018722E+03  0.42017977719E+02  0.21764219789E+03  0.17300000000E+03 0.  1.
         -6    1    1    2    0  503  0.16886885513E+02  0.12405018722E+03  0.18140944980E+03  0.28019993635E+03  0.17300000000E+03 0. -1.
<mgrwt>
<rscale>  2 0.21354769E+03</rscale>
<asrwt>0</asrwt>
<pdfrwt beam="1">  1       21 0.55482274E-01 0.21354769E+03</pdfrwt>
<pdfrwt beam="2">  1       21 0.21108824E-01 0.21354769E+03</pdfrwt>
<totfact> 0.63285025E+04</totfact>
</mgrwt>
</event>
<event>
 4    2  0.3992997E+000  0.2064040E+03  0.7546771E-02  0.1144446E+00
         21   -1    0    0  501  502  0.00000000000E+00  0.00000000000E+00  0.57044760872E+03  0.57044760872E+03  0.00000000000E+00 0.  1.
         21   -1    0    0  502  503 -0.00000000000E+00 -0.00000000000E+00 -0.80124147758E+02  0.80124147758E+02  0.00000000000E+00 0. -1.
          6    1    1    2  501    0 -0.13004580631E+02  0.11182354685E+03  0.16039279409E+03  0.26139715596E+03  0.17300000000E+03 0. -1.
         -6    1    1    2    0  503  0.13004580631E+02 -0.11182354685E+03  0.32993066687E+03  0.38917460052E+03  0.17300000000E+03 0.  1.
<mgrwt>
<rscale>  2 0.20640403E+03</rscale>
<asrwt>0</asrwt>
<pdfrwt beam="1">  1       21 0.87761168E-01 0.20640403E+03</pdfrwt>
<pdfrwt beam="2">  1       21 0.12326792E-01 0.20640403E+03</pdfrwt>
<totfact> 0.61864534E+04</totfact>
</mgrwt>
</event>
<event>
 4    2  0.3992997E+000  0.1998722E+03  0.7546771E-02  0.1149847E+00
         21   -1    0    0  503  502  0.00000000000E+00  0.00000000000E+00  0.56347378258E+02  0.56347378258E+02  0.00000000000E+00 0. -1.
         21   -1    0    0  501  503 -0.00000000000E+00 -0.00000000000E+00 -0.16692237591E+04  0.16692237591E+04  0.00000000000E+00 0. -1.
          6    1    1    2  501    0 -0.99173876381E+02 -0.13580170972E+02 -0.14608294434E+04  0.14744393991E+04  0.17300000000E+03 0. -1.
         -6    1    1    2    0  502  0.99173876381E+02  0.13580170972E+02 -0.15204693747E+03  0.25113173832E+03  0.17300000000E+03 0. -1.
<mgrwt>
<rscale>  2 0.19987216E+03</rscale>
<asrwt>0</asrwt>
<pdfrwt beam="1">  1       21 0.86688277E-02 0.19987216E+03</pdfrwt>
<pdfrwt beam="2">  1       21 0.25680365E+00 0.19987216E+03</pdfrwt>
<totfact> 0.62812358E+03</totfact>
</mgrwt>
</event>
<event>
 4    2  0.3992997E+000  0.2265575E+03  0.7546771E-02  0.1129086E+00
         21   -1    0    0  503  502  0.00000000000E+00  0.00000000000E+00  0.92837697672E+02  0.92837697672E+02  0.00000000000E+00 0. -1.
         21   -1    0    0  501  503 -0.00000000000E+00 -0.00000000000E+00 -0.71135735230E+03  0.71135735230E+03  0.00000000000E+00 0.  1.
          6    1    1    2  501    0 -0.14571435106E+03  0.12908025489E+02 -0.49904767078E+03  0.54806648040E+03  0.17300000000E+03 0.  1.
         -6    1    1    2    0  502  0.14571435106E+03 -0.12908025489E+02 -0.11947198384E+03  0.25612856957E+03  0.17300000000E+03 0. -1.
<mgrwt>
<rscale>  2 0.22655747E+03</rscale>
<asrwt>0</asrwt>
<pdfrwt beam="1">  1       21 0.14282722E-01 0.22655747E+03</pdfrwt>
<pdfrwt beam="2">  1       21 0.10943959E+00 0.22655747E+03</pdfrwt>
<totfact> 0.27816756E+04</totfact>
</mgrwt>
</event>
<event>
 4    2  0.3992997E+000  0.1949906E+03  0.7546771E-02  0.1154036E+00
         21   -1    0    0  501  502  0.00000000000E+00  0.00000000000E+00  0.77215694361E+02  0.77215694361E+02  0.00000000000E+00 0.  1.
         21   -1    0    0  502  503 -0.00000000000E+00 -0.00000000000E+00 -0.49395378866E+03  0.49395378866E+03  0.00000000000E+00 0.  1.
          6    1    1    2  501    0 -0.56310143324E+02  0.70153542503E+02 -0.22436332210E+03  0.29725452405E+03  0.17300000000E+03 0.  1.
         -6    1    1    2    0  503  0.56310143324E+02 -0.70153542503E+02 -0.19237477220E+03  0.27391495897E+03  0.17300000000E+03 0.  1.
<mgrwt>
<rscale>  2 0.19499065E+03</rscale>
<asrwt>0</asrwt>
<pdfrwt beam="1">  1       21 0.11879338E-01 0.19499065E+03</pdfrwt>
<pdfrwt beam="2">  1       21 0.75992888E-01 0.19499065E+03</pdfrwt>
<totfact> 0.92161444E+04</totfact>
</mgrwt>
</event>
<event>
 4    2  0.3992997E+000  0.1989039E+03  0.7546771E-02  0.1150667E+00
         21   -1    0    0  501  502  0.00000000000E+00  0.00000000000E+00  0.36411859557E+02  0.36411859557E+02  0.00000000000E+00 0. -1.
         21   -1    0    0  502  503 -0.00000000000E+00 -0.00000000000E+00 -0.10866150074E+04  0.10866150074E+04  0.00000000000E+00 0. -1.
          6    1    1    2  501    0  0.84991763964E+02 -0.49093332896E+02 -0.52027958629E+03  0.55700413211E+03  0.17300000000E+03 0. -1.
         -6    1    1    2    0  503 -0.84991763964E+02  0.49093332896E+02 -0.52992356156E+03  0.56602273486E+03  0.17300000000E+03 0. -1.
<mgrwt>
<rscale>  2 0.19890388E+03</rscale>
<asrwt>0</asrwt>
<pdfrwt beam="1">  1       21 0.56018249E-02 0.19890388E+03</pdfrwt>
<pdfrwt beam="2">  1       21 0.16717153E+00 0.19890388E+03</pdfrwt>
<totfact> 0.49354980E+04</totfact>
</mgrwt>
</event>
<event>
 4    2  0.3992997E+000  0.3110159E+03  0.7546771E-02  0.1079860E+00
         21   -1    0    0  503  502  0.00000000000E+00  0.00000000000E+00  0.40756046867E+03  0.40756046867E+03  0.00000000000E+00 0.  1.
         21   -1    0    0  501  503 -0.00000000000E+00 -0.00000000000E+00 -0.25200736775E+03  0.25200736775E+03  0.00000000000E+00 0. -1.
          6    1    1    2  501    0  0.25727357104E+03  0.24742150641E+02  0.15733423509E+03  0.34854687763E+03  0.17300000000E+03 0.  1.
         -6    1    1    2    0  502 -0.25727357104E+03 -0.24742150641E+02 -0.17811341621E+01  0.31102095880E+03  0.17300000000E+03 0.  1.
<mgrwt>
<rscale>  2 0.31101586E+03</rscale>
<asrwt>0</asrwt>
<pdfrwt beam="1">  1       21 0.62701610E-01 0.31101586E+03</pdfrwt>
<pdfrwt beam="2">  1       21 0.38770364E-01 0.31101586E+03</pdfrwt>
<totfact> 0.14219738E+04</totfact>
</mgrwt>
</event>
<event>
 4    2  0.3992997E+000  0.1848505E+03  0.7546771E-02  0.1163190E+00
         21   -1    0    0  501  502  0.00000000000E+00  0.00000000000E+00  0.11136100880E+03  0.11136100880E+03  0.00000000000E+00 0. -1.
         21   -1    0    0  502  503 -0.00000000000E+00 -0.00000000000E+00 -0.30692163949E+03  0.30692163949E+03  0.00000000000E+00 0. -1.
          6    1    1    2  501    0  0.62805793329E+02  0.17208721647E+02 -0.94312769327E+02  0.20752013453E+03  0.17300000000E+03 0. -1.
         -6    1    1    2    0  503 -0.62805793329E+02 -0.17208721647E+02 -0.10124786136E+03  0.21076251376E+03  0.17300000000E+03 0. -1.
<mgrwt>
<rscale>  2 0.18485050E+03</rscale>
<asrwt>0</asrwt>
<pdfrwt beam="1">  1       21 0.17132463E-01 0.18485050E+03</pdfrwt>
<pdfrwt beam="2">  1       21 0.47218713E-01 0.18485050E+03</pdfrwt>
<totfact> 0.13232563E+05</totfact>
</mgrwt>
</event>
<event>
 4    2  0.3992997E+000  0.3394783E+03  0.7546771E-02  0.1067018E+00
         21   -1    0    0  503  502  0.00000000000E+00  0.00000000000E+00  0.59016080096E+03  0.59016080096E+03  0.00000000000E+00 0. -1.
         21   -1    0    0  501  503 -0.00000000000E+00 -0.00000000000E+00 -0.30317787309E+03  0.30317787309E+03  0.00000000000E+00 0.  1.
          6    1    1    2  501    0 -0.12551438482E+03 -0.26374733707E+03 -0.12297804574E+03  0.36106663976E+03  0.17300000000E+03 0.  1.
         -6    1    1    2    0  502  0.12551438482E+03  0.26374733707E+03  0.40996097361E+03  0.53227203429E+03  0.17300000000E+03 0. -1.
<mgrwt>
<rscale>  2 0.33947830E+03</rscale>
<asrwt>0</asrwt>
<pdfrwt beam="1">  1       21 0.90793969E-01 0.33947830E+03</pdfrwt>
<pdfrwt beam="2">  1       21 0.46642750E-01 0.33947830E+03</pdfrwt>
<totfact> 0.41415006E+03</totfact>
</mgrwt>
</event>
<event>
 4    2  0.3992997E+000  0.1901917E+03  0.7546771E-02  0.1158289E+00
         21   -1    0    0  503  502  0.00000000000E+00  0.00000000000E+00  0.48939338385E+02  0.48939338385E+02  0.00000000000E+00 0. -1.
         21   -1    0    0  501  503 -0.00000000000E+00 -0.00000000000E+00 -0.89493527738E+03  0.89493527738E+03  0.00000000000E+00 0. -1.
          6    1    1    2  501    0  0.43363318055E+02 -0.66056869370E+02 -0.22608718944E+03  0.29544594188E+03  0.17300000000E+03 0. -1.
         -6    1    1    2    0  502 -0.43363318055E+02  0.66056869370E+02 -0.61990874955E+03  0.64842867388E+03  0.17300000000E+03 0. -1.
<mgrwt>
<rscale>  2 0.19019171E+03</rscale>
<asrwt>0</asrwt>
<pdfrwt beam="1">  1       21 0.75291296E-02 0.19019171E+03</pdfrwt>
<pdfrwt beam="2">  1       21 0.13768234E+00 0.19019171E+03</pdfrwt>
<totfact> 0.49879538E+04</totfact>
</mgrwt>
</event>
<event>
 4    2  0.3992997E+000  0.1815660E+03  0.7546771E-02  0.1166296E+00
         21   -1    0    0  501  502  0.00000000000E+00  0.00000000000E+00  0.91384563369E+03  0.91384563369E+03  0.00000000000E+00 0.  1.
         21   -1    0    0  502  503 -0.00000000000E+00 -0.00000000000E+00 -0.88854365510E+02  0.88854365510E+02  0.00000000000E+00 0.  1.
          6    1    1    2  501    0  0.46664114343E+02 -0.29320204982E+02  0.79889568116E+03  0.81926828534E+03  0.17300000000E+03 0.  1.
         -6    1    1    2    0  503 -0.46664114343E+02  0.29320204982E+02  0.26095587020E+02  0.18343171386E+03  0.17300000000E+03 0.  1.
<mgrwt>
<rscale>  2 0.18156600E+03</rscale>
<asrwt>0</asrwt>
<pdfrwt beam="1">  1       21 0.14059163E+00 0.18156600E+03</pdfrwt>
<pdfrwt beam="2">  1       21 0.13669903E-01 0.18156600E+03</pdfrwt>
<totfact> 0.16557833E+04</totfact>
</mgrwt>
</event>
<event>
 4    2  0.3992997E+000  0.2200252E+03  0.7546771E-02  0.1133864E+00
         21   -1    0    0  503  502  0.00000000000E+00  0.00000000000E+00  0.21934309449E+03  0.21934309449E+03  0.00000000000E+00 0.  1.
         21   -1    0    0  501  503 -0.00000000000E+00 -0.00000000000E+00 -0.22465293228E+03  0.22465293228E+03  0.00000000000E+00 0.  1.
          6    1    1    2  501    0  0.11066334121E+03 -0.78966517641E+02 -0.32067621736E+02  0.22234976582E+03  0.17300000000E+03 0.  1.
         -6    1    1    2    0  502 -0.11066334121E+03  0.78966517641E+02  0.26757783942E+02  0.22164626096E+03  0.17300000000E+03 0.  1.
<mgrwt>
<rscale>  2 0.22002519E+03</rscale>
<asrwt>0</asrwt>
<pdfrwt beam="1">  1       21 0.33745091E-01 0.22002519E+03</pdfrwt>
<pdfrwt beam="2">  1       21 0.34561990E-01 0.22002519E+03</pdfrwt>
<totfact> 0.67442113E+04</totfact>
</mgrwt>
</event>
<event>
 4    2  0.3992997E+000  0.2070008E+03  0.7546771E-02  0.1143963E+00
         21   -1    0    0  501  502  0.00000000000E+00  0.00000000000E+00  0.16492384434E+03  0.16492384434E+03  0.00000000000E+00 0.  1.
         21   -1    0    0  502  503 -0.00000000000E+00 -0.00000000000E+00 -0.35632239417E+03  0.35632239417E+03  0.00000000000E+00 0.  1.
          6    1    1    2  501    0 -0.40847038212E+02  0.10607475053E+03  0.39937208824E+02  0.21081820102E+03  0.17300000000E+03 0.  1.
         -6    1    1    2    0  503  0.40847038212E+02 -0.10607475053E+03 -0.23133575866E+03  0.31042803750E+03  0.17300000000E+03 0.  1.
<mgrwt>
<rscale>  2 0.20700080E+03</rscale>
<asrwt>0</asrwt>
<pdfrwt beam="1">  1       21 0.25372899E-01 0.20700080E+03</pdfrwt>
<pdfrwt beam="2">  1       21 0.54818829E-01 0.20700080E+03</pdfrwt>
<totfact> 0.45920286E+04</totfact>
</mgrwt>
</event>
<event>
 4    2  0.3992997E+000  0.1997343E+03  0.7546771E-02  0.1149963E+00
         21   -1    0    0  501  502  0.00000000000E+00  0.00000000000E+00  0.43318629383E+02  0.43318629383E+02  0.00000000000E+00 0.  1.
         21   -1    0    0  502  503 -0.00000000000E+00 -0.00000000000E+00 -0.92124232465E+03  0.92124232465E+03  0.00000000000E+00 0. -1.
          6    1    1    2  501    0 -0.96185162901E+02 -0.26705692902E+02 -0.44772488411E+03  0.49025641398E+03  0.17300000000E+03 0.  1.
         -6    1    1    2    0  503  0.96185162901E+02  0.26705692902E+02 -0.43019881116E+03  0.47430454006E+03  0.17300000000E+03 0. -1.
<mgrwt>
<rscale>  2 0.19973427E+03</rscale>
<asrwt>0</asrwt>
<pdfrwt beam="1">  1       21 0.66644047E-02 0.19973427E+03</pdfrwt>
<pdfrwt beam="2">  1       21 0.14172958E+00 0.19973427E+03</pdfrwt>
<totfact> 0.56851518E+04</totfact>
</mgrwt>
</event>
<event>
 4    2  0.3992997E+000  0.2117685E+03  0.7546771E-02  0.1140173E+00
         21   -1    0    0  501  502  0.00000000000E+00  0.00000000000E+00  0.90423217266E+03  0.90423217266E+03  0.00000000000E+00 0.  1.
         21   -1    0    0  502  503 -0.00000000000E+00 -0.00000000000E+00 -0.60772342259E+02  0.60772342259E+02  0.00000000000E+00 0. -1.
          6    1    1    2  501    0  0.35100575575E+01 -0.12208438845E+03  0.62865082660E+03  0.66336097277E+03  0.17300000000E+03 0.  1.
         -6    1    1    2    0  503 -0.35100575575E+01  0.12208438845E+03  0.21480900381E+03  0.30164354216E+03  0.17300000000E+03 0. -1.
<mgrwt>
<rscale>  2 0.21176855E+03</rscale>
<asrwt>0</asrwt>
<pdfrwt beam="1">  1       21 0.13911263E+00 0.21176855E+03</pdfrwt>
<pdfrwt beam="2">  1       21 0.93495917E-02 0.21176855E+03</pdfrwt>
<totfact> 0.32857064E+04</totfact>
</mgrwt>
</event>
<event>
 4    2  0.3992997E+000  0.1900049E+03  0.7546771E-02  0.1158457E+00
         21   -1    0    0  501  502  0.00000000000E+00  0.00000000000E+00  0.27217854308E+04  0.27217854308E+04  0.00000000000E+00 0. -1.
         21   -1    0    0  502  503 -0.00000000000E+00 -0.00000000000E+00 -0.26927032115E+02  0.26927032115E+02  0.00000000000E+00 0.  1.
          6    1    1    2  501    0 -0.93152901400E+00  0.78561991149E+02  0.23264187981E+04  0.23341650067E+04  0.17300000000E+03 0. -1.
         -6    1    1    2    0  503  0.93152901400E+00 -0.78561991149E+02  0.36843960056E+03  0.41454745623E+03  0.17300000000E+03 0.  1.
<mgrwt>
<rscale>  2 0.19000488E+03</rscale>
<asrwt>0</asrwt>
<pdfrwt beam="1">  1       21 0.41873600E+00 0.19000488E+03</pdfrwt>
<pdfrwt beam="2">  1       21 0.41426225E-02 0.19000488E+03</pdfrwt>
<totfact> 0.24633393E+03</totfact>
</mgrwt>
</event>
<event>
 4    2  0.3992997E+000  0.1997827E+03  0.7546771E-02  0.1149922E+00
         21   -1    0    0  503  502  0.00000000000E+00  0.00000000000E+00  0.34807050942E+03  0.34807050942E+03  0.00000000000E+00 0.  1.
         21   -1    0    0  501  503 -0.00000000000E+00 -0.00000000000E+00 -0.18585812395E+03  0.18585812395E+03  0.00000000000E+00 0.  1.
          6    1    1    2  501    0  0.66433759759E+02  0.74636944613E+02 -0.84115600605E+02  0.21676842990E+03  0.17300000000E+03 0.  1.
         -6    1    1    2    0  502 -0.66433759759E+02 -0.74636944613E+02  0.24632798607E+03  0.31716020346E+03  0.17300000000E+03 0.  1.
<mgrwt>
<rscale>  2 0.19978268E+03</rscale>
<asrwt>0</asrwt>
<pdfrwt beam="1">  1       21 0.53549309E-01 0.19978268E+03</pdfrwt>
<pdfrwt beam="2">  1       21 0.28593558E-01 0.19978268E+03</pdfrwt>
<totfact> 0.38465178E+04</totfact>
</mgrwt>
</event>
<event>
 4    2  0.3992997E+000  0.1867846E+03  0.7546771E-02  0.1161394E+00
         21   -1    0    0  501  502  0.00000000000E+00  0.00000000000E+00  0.53444340065E+02  0.53444340065E+02  0.00000000000E+00 0.  1.
         21   -1    0    0  502  503 -0.00000000000E+00 -0.00000000000E+00 -0.11581744484E+04  0.11581744484E+04  0.00000000000E+00 0.  1.
          6    1    1    2  501    0 -0.47507064082E+02 -0.51986234948E+02 -0.15218498347E+03  0.24093310058E+03  0.17300000000E+03 0.  1.
         -6    1    1    2    0  503  0.47507064082E+02  0.51986234948E+02 -0.95254512486E+03  0.97068568788E+03  0.17300000000E+03 0.  1.
<mgrwt>
<rscale>  2 0.18678461E+03</rscale>
<asrwt>0</asrwt>
<pdfrwt beam="1">  1       21 0.82222059E-02 0.18678461E+03</pdfrwt>
<pdfrwt beam="2">  1       21 0.17818069E+00 0.18678461E+03</pdfrwt>
<totfact> 0.21511269E+04</totfact>
</mgrwt>
</event>
<event>
 4    2  0.3992997E+000  0.1766355E+03  0.7546771E-02  0.1171099E+00
         21   -1    0    0  501  502  0.00000000000E+00  0.00000000000E+00  0.23260763585E+03  0.23260763585E+03  0.00000000000E+00 0. -1.
         21   -1    0    0  502  503 -0.00000000000E+00 -0.00000000000E+00 -0.23891322577E+03  0.23891322577E+03  0.00000000000E+00 0. -1.
          6    1    1    2  501    0  0.30111789065E+02 -0.19088931281E+02  0.15297949820E+03  0.23367249305E+03  0.17300000000E+03 0. -1.
         -6    1    1    2    0  503 -0.30111789065E+02  0.19088931281E+02 -0.15928508812E+03  0.23784836858E+03  0.17300000000E+03 0. -1.
<mgrwt>
<rscale>  2 0.17663552E+03</rscale>
<asrwt>0</asrwt>
<pdfrwt beam="1">  1       21 0.35785790E-01 0.17663552E+03</pdfrwt>
<pdfrwt beam="2">  1       21 0.36755881E-01 0.17663552E+03</pdfrwt>
<totfact> 0.54150844E+04</totfact>
</mgrwt>
</event>
<event>
 4    2  0.3992997E+000  0.1801646E+03  0.7546771E-02  0.1167644E+00
         21   -1    0    0  501  502  0.00000000000E+00  0.00000000000E+00  0.18643321278E+04  0.18643321278E+04  0.00000000000E+00 0.  1.
         21   -1    0    0  502  503 -0.00000000000E+00 -0.00000000000E+00 -0.10973988035E+03  0.10973988035E+03  0.00000000000E+00 0.  1.
          6    1    1    2  501    0  0.31366194614E+01  0.50204184016E+02  0.17826539915E+04  0.17917350674E+04  0.17300000000E+03 0.  1.
         -6    1    1    2    0  503 -0.31366194614E+01 -0.50204184016E+02 -0.28061744043E+02  0.18233694073E+03  0.17300000000E+03 0.  1.
<mgrwt>
<rscale>  2 0.18016464E+03</rscale>
<asrwt>0</asrwt>
<pdfrwt beam="1">  1       21 0.28682031E+00 0.18016464E+03</pdfrwt>
<pdfrwt beam="2">  1       21 0.16883060E-01 0.18016464E+03</pdfrwt>
<totfact> 0.13060100E+03</totfact>
</mgrwt>
</event>
<event>
 4    2  0.3992997E+000  0.2539959E+03  0.7546771E-02  0.1110805E+00
         21   -1    0    0  501  502  0.00000000000E+00  0.00000000000E+00  0.90316785352E+02  0.90316785352E+02  0.00000000000E+00 0. -1.
         21   -1    0    0  502  503 -0.00000000000E+00 -0.00000000000E+00 -0.87985285822E+03  0.87985285822E+03  0.00000000000E+00 0.  1.
          6    1    1    2  501    0 -0.18100131405E+03 -0.42701891886E+02 -0.18435550594E+03  0.31384849821E+03  0.17300000000E+03 0. -1.
         -6    1    1    2    0  503  0.18100131405E+03  0.42701891886E+02 -0.60518056693E+03  0.65632114536E+03  0.17300000000E+03 0.  1.
<mgrwt>
<rscale>  2 0.25399592E+03</rscale>
<asrwt>0</asrwt>
<pdfrwt beam="1">  1       21 0.13894890E-01 0.25399592E+03</pdfrwt>
<pdfrwt beam="2">  1       21 0.13536198E+00 0.25399592E+03</pdfrwt>
<totfact> 0.16944962E+04</totfact>
</mgrwt>
</event>
<event>
 4    2  0.3992997E+000  0.1928642E+03  0.7546771E-02  0.1155903E+00
         21   -1    0    0  501  502  0.00000000000E+00  0.00000000000E+00  0.15927644384E+03  0.15927644384E+03  0.00000000000E+00 0. -1.
         21   -1    0    0  502  503 -0.00000000000E+00 -0.00000000000E+00 -0.51301902497E+03  0.51301902497E+03  0.00000000000E+00 0. -1.
          6    1    1    2  501    0  0.83203179429E+02  0.18569792862E+02 -0.42498001478E+03  0.46669542449E+03  0.17300000000E+03 0. -1.
         -6    1    1    2    0  503 -0.83203179429E+02 -0.18569792862E+02  0.71237433652E+02  0.20560004433E+03  0.17300000000E+03 0. -1.
<mgrwt>
<rscale>  2 0.19286422E+03</rscale>
<asrwt>0</asrwt>
<pdfrwt beam="1">  1       21 0.24504069E-01 0.19286422E+03</pdfrwt>
<pdfrwt beam="2">  1       21 0.78926003E-01 0.19286422E+03</pdfrwt>
<totfact> 0.22312846E+04</totfact>
</mgrwt>
</event>
<event>
 4    2  0.3992997E+000  0.2178185E+03  0.7546771E-02  0.1135520E+00
         21   -1    0    0  503  502  0.00000000000E+00  0.00000000000E+00  0.65007514638E+03  0.65007514638E+03  0.00000000000E+00 0. -1.
         21   -1    0    0  501  503 -0.00000000000E+00 -0.00000000000E+00 -0.89610568824E+02  0.89610568824E+02  0.00000000000E+00 0.  1.
          6    1    1    2  501    0  0.12636431778E+03 -0.39344226677E+02  0.12092249991E+03  0.24913281592E+03  0.17300000000E+03 0.  1.
         -6    1    1    2    0  502 -0.12636431778E+03  0.39344226677E+02  0.43954207765E+03  0.49055289929E+03  0.17300000000E+03 0. -1.
<mgrwt>
<rscale>  2 0.21781852E+03</rscale>
<asrwt>0</asrwt>
<pdfrwt beam="1">  1       21 0.10001156E+00 0.21781852E+03</pdfrwt>
<pdfrwt beam="2">  1       21 0.13786242E-01 0.21781852E+03</pdfrwt>
<totfact> 0.37022832E+04</totfact>
</mgrwt>
</event>
<event>
 4    2  0.3992997E+000  0.2110706E+03  0.7546771E-02  0.1140721E+00
         21   -1    0    0  501  502  0.00000000000E+00  0.00000000000E+00  0.14617963084E+03  0.14617963084E+03  0.00000000000E+00 0.  1.
         21   -1    0    0  502  503 -0.00000000000E+00 -0.00000000000E+00 -0.39929121276E+03  0.39929121276E+03  0.00000000000E+00 0.  1.
          6    1    1    2  501    0  0.73081566702E+02 -0.96337428225E+02  0.61429561800E+01  0.21116001368E+03  0.17300000000E+03 0.  1.
         -6    1    1    2    0  503 -0.73081566702E+02  0.96337428225E+02 -0.25925453810E+03  0.33431082991E+03  0.17300000000E+03 0.  1.
<mgrwt>
<rscale>  2 0.21107064E+03</rscale>
<asrwt>0</asrwt>
<pdfrwt beam="1">  1       21 0.22489174E-01 0.21107064E+03</pdfrwt>
<pdfrwt beam="2">  1       21 0.61429418E-01 0.21107064E+03</pdfrwt>
<totfact> 0.45198710E+04</totfact>
</mgrwt>
</event>
<event>
 4    2  0.3992997E+000  0.2038484E+03  0.7546771E-02  0.1146532E+00
         21   -1    0    0  503  502  0.00000000000E+00  0.00000000000E+00  0.60542740505E+02  0.60542740505E+02  0.00000000000E+00 0.  1.
         21   -1    0    0  501  503 -0.00000000000E+00 -0.00000000000E+00 -0.83486492457E+03  0.83486492457E+03  0.00000000000E+00 0.  1.
          6    1    1    2  501    0  0.87561222017E+01 -0.10746386863E+03 -0.19833925009E+03  0.28441626336E+03  0.17300000000E+03 0.  1.
         -6    1    1    2    0  502 -0.87561222017E+01  0.10746386863E+03 -0.57598293398E+03  0.61099140172E+03  0.17300000000E+03 0.  1.
<mgrwt>
<rscale>  2 0.20384836E+03</rscale>
<asrwt>0</asrwt>
<pdfrwt beam="1">  1       21 0.93142680E-02 0.20384836E+03</pdfrwt>
<pdfrwt beam="2">  1       21 0.12844075E+00 0.20384836E+03</pdfrwt>
<totfact> 0.40722889E+04</totfact>
</mgrwt>
</event>
<event>
 4    2  0.3992997E+000  0.2343244E+03  0.7546771E-02  0.1123633E+00
         21   -1    0    0  503  502  0.00000000000E+00  0.00000000000E+00  0.37570484542E+03  0.37570484542E+03  0.00000000000E+00 0.  1.
         21   -1    0    0  501  503 -0.00000000000E+00 -0.00000000000E+00 -0.27453964837E+03  0.27453964837E+03  0.00000000000E+00 0. -1.
          6    1    1    2  501    0 -0.14208437634E+03 -0.69216687355E+02 -0.17175617369E+03  0.29053072644E+03  0.17300000000E+03 0. -1.
         -6    1    1    2    0  502  0.14208437634E+03  0.69216687355E+02  0.27292137074E+03  0.35971376734E+03  0.17300000000E+03 0.  1.
<mgrwt>
<rscale>  2 0.23432439E+03</rscale>
<asrwt>0</asrwt>
<pdfrwt beam="1">  1       21 0.57800745E-01 0.23432439E+03</pdfrwt>
<pdfrwt beam="2">  1       21 0.42236869E-01 0.23432439E+03</pdfrwt>
<totfact> 0.14766331E+04</totfact>
</mgrwt>
</event>
<event>
 4    2  0.3992997E+000  0.1815484E+03  0.7546771E-02  0.1166313E+00
         21   -1    0    0  503  502  0.00000000000E+00  0.00000000000E+00  0.30740009128E+03  0.30740009128E+03  0.00000000000E+00 0. -1.
         21   -1    0    0  501  503 -0.00000000000E+00 -0.00000000000E+00 -0.13481258766E+03  0.13481258766E+03  0.00000000000E+00 0. -1.
          6    1    1    2  501    0  0.46744287798E+02  0.29082736985E+02 -0.13734353613E+02  0.18206720326E+03  0.17300000000E+03 0. -1.
         -6    1    1    2    0  502 -0.46744287798E+02 -0.29082736985E+02  0.18632185724E+03  0.26014547568E+03  0.17300000000E+03 0. -1.
<mgrwt>
<rscale>  2 0.18154843E+03</rscale>
<asrwt>0</asrwt>
<pdfrwt beam="1">  1       21 0.47292322E-01 0.18154843E+03</pdfrwt>
<pdfrwt beam="2">  1       21 0.20740398E-01 0.18154843E+03</pdfrwt>
<totfact> 0.92641826E+04</totfact>
</mgrwt>
</event>
<event>
 4    2  0.3992997E+000  0.1934046E+03  0.7546771E-02  0.1155426E+00
         21   -1    0    0  501  502  0.00000000000E+00  0.00000000000E+00  0.16106742078E+03  0.16106742078E+03  0.00000000000E+00 0. -1.
         21   -1    0    0  502  503 -0.00000000000E+00 -0.00000000000E+00 -0.71767212449E+03  0.71767212449E+03  0.00000000000E+00 0.  1.
          6    1    1    2  501    0 -0.75258455243E+02 -0.42573670921E+02  0.83052606538E+02  0.21048298742E+03  0.17300000000E+03 0. -1.
         -6    1    1    2    0  503  0.75258455243E+02  0.42573670921E+02 -0.63965731025E+03  0.66825655784E+03  0.17300000000E+03 0.  1.
<mgrwt>
<rscale>  2 0.19340463E+03</rscale>
<asrwt>0</asrwt>
<pdfrwt beam="1">  1       21 0.24779604E-01 0.19340463E+03</pdfrwt>
<pdfrwt beam="2">  1       21 0.11041109E+00 0.19340463E+03</pdfrwt>
<totfact> 0.99657928E+03</totfact>
</mgrwt>
</event>
<event>
 4    2  0.3992997E+000  0.3153803E+03  0.7546771E-02  0.1077795E+00
         21   -1    0    0  501  502  0.00000000000E+00  0.00000000000E+00  0.28224435187E+03  0.28224435187E+03  0.00000000000E+00 0.  1.
         21   -1    0    0  502  503 -0.00000000000E+00 -0.00000000000E+00 -0.35817444341E+03  0.35817444341E+03  0.00000000000E+00 0.  1.
          6    1    1    2  501    0  0.25471029507E+03 -0.68252649491E+02 -0.78599586263E+02  0.32502715815E+03  0.17300000000E+03 0.  1.
         -6    1    1    2    0  503 -0.25471029507E+03  0.68252649491E+02  0.26694947227E+01  0.31539163714E+03  0.17300000000E+03 0.  1.
<mgrwt>
<rscale>  2 0.31538034E+03</rscale>
<asrwt>0</asrwt>
<pdfrwt beam="1">  1       21 0.43422208E-01 0.31538034E+03</pdfrwt>
<pdfrwt beam="2">  1       21 0.55103760E-01 0.31538034E+03</pdfrwt>
<totfact> 0.14882303E+04</totfact>
</mgrwt>
</event>
<event>
 4    2  0.3992997E+000  0.2358517E+03  0.7546771E-02  0.1122588E+00
         21   -1    0    0  503  502  0.00000000000E+00  0.00000000000E+00  0.58116638341E+03  0.58116638341E+03  0.00000000000E+00 0. -1.
         21   -1    0    0  501  503 -0.00000000000E+00 -0.00000000000E+00 -0.10747465448E+03  0.10747465448E+03  0.00000000000E+00 0. -1.
          6    1    1    2  501    0 -0.15856848472E+03  0.23517510015E+02  0.12294768675E+03  0.26597400494E+03  0.17300000000E+03 0. -1.
         -6    1    1    2    0  502  0.15856848472E+03 -0.23517510015E+02  0.35074404217E+03  0.42266703295E+03  0.17300000000E+03 0. -1.
<mgrwt>
<rscale>  2 0.23585173E+03</rscale>
<asrwt>0</asrwt>
<pdfrwt beam="1">  1       21 0.89410211E-01 0.23585173E+03</pdfrwt>
<pdfrwt beam="2">  1       21 0.16534563E-01 0.23585173E+03</pdfrwt>
<totfact> 0.34246472E+04</totfact>
</mgrwt>
</event>
<event>
 4    2  0.3992997E+000  0.2509856E+03  0.7546771E-02  0.1112684E+00
         21   -1    0    0  503  502  0.00000000000E+00  0.00000000000E+00  0.74973183673E+02  0.74973183673E+02  0.00000000000E+00 0. -1.
         21   -1    0    0  501  503 -0.00000000000E+00 -0.00000000000E+00 -0.12030352748E+04  0.12030352748E+04  0.00000000000E+00 0. -1.
          6    1    1    2  501    0  0.39163233086E+02 -0.17756979508E+03 -0.91495155375E+03  0.94875188361E+03  0.17300000000E+03 0. -1.
         -6    1    1    2    0  502 -0.39163233086E+02  0.17756979508E+03 -0.21311053740E+03  0.32925657488E+03  0.17300000000E+03 0. -1.
<mgrwt>
<rscale>  2 0.25098564E+03</rscale>
<asrwt>0</asrwt>
<pdfrwt beam="1">  1       21 0.11534336E-01 0.25098564E+03</pdfrwt>
<pdfrwt beam="2">  1       21 0.18508235E+00 0.25098564E+03</pdfrwt>
<totfact> 0.10149072E+04</totfact>
</mgrwt>
</event>
<event>
 4    2  0.3992997E+000  0.2117682E+03  0.7546771E-02  0.1140173E+00
         21   -1    0    0  503  502  0.00000000000E+00  0.00000000000E+00  0.22104604493E+03  0.22104604493E+03  0.00000000000E+00 0.  1.
         21   -1    0    0  501  503 -0.00000000000E+00 -0.00000000000E+00 -0.32852999584E+03  0.32852999584E+03  0.00000000000E+00 0.  1.
          6    1    1    2  501    0  0.11095902167E+02 -0.12162922833E+03 -0.22368047580E+03  0.30802393329E+03  0.17300000000E+03 0.  1.
         -6    1    1    2    0  502 -0.11095902167E+02  0.12162922833E+03  0.11619652489E+03  0.24155210747E+03  0.17300000000E+03 0.  1.
<mgrwt>
<rscale>  2 0.21176824E+03</rscale>
<asrwt>0</asrwt>
<pdfrwt beam="1">  1       21 0.34007084E-01 0.21176824E+03</pdfrwt>
<pdfrwt beam="2">  1       21 0.50543076E-01 0.21176824E+03</pdfrwt>
<totfact> 0.30718533E+04</totfact>
</mgrwt>
</event>
<event>
 4    2  0.3992997E+000  0.1760500E+03  0.7546771E-02  0.1171682E+00
         21   -1    0    0  501  502  0.00000000000E+00  0.00000000000E+00  0.67545163283E+03  0.67545163283E+03  0.00000000000E+00 0. -1.
         21   -1    0    0  502  503 -0.00000000000E+00 -0.00000000000E+00 -0.65637264699E+02  0.65637264699E+02  0.00000000000E+00 0. -1.
          6    1    1    2  501    0  0.31680559793E+02  0.78074172874E+01  0.50817336752E+03  0.53780459750E+03  0.17300000000E+03 0. -1.
         -6    1    1    2    0  503 -0.31680559793E+02 -0.78074172874E+01  0.10164100061E+03  0.20328430003E+03  0.17300000000E+03 0. -1.
<mgrwt>
<rscale>  2 0.17605003E+03</rscale>
<asrwt>0</asrwt>
<pdfrwt beam="1">  1       21 0.10391563E+00 0.17605003E+03</pdfrwt>
<pdfrwt beam="2">  1       21 0.10098041E-01 0.17605003E+03</pdfrwt>
<totfact> 0.60222669E+04</totfact>
</mgrwt>
</event>
<event>
 4    2  0.3992997E+000  0.2226570E+03  0.7546771E-02  0.1131918E+00
         21   -1    0    0  501  502  0.00000000000E+00  0.00000000000E+00  0.35101247272E+02  0.35101247272E+02  0.00000000000E+00 0. -1.
         21   -1    0    0  502  503 -0.00000000000E+00 -0.00000000000E+00 -0.15026979906E+04  0.15026979906E+04  0.00000000000E+00 0.  1.
          6    1    1    2  501    0 -0.13308978782E+03  0.43980151724E+02 -0.54528963122E+03  0.58899654268E+03  0.17300000000E+03 0. -1.
         -6    1    1    2    0  503  0.13308978782E+03 -0.43980151724E+02 -0.92230711206E+03  0.94880269515E+03  0.17300000000E+03 0.  1.
<mgrwt>
<rscale>  2 0.22265701E+03</rscale>
<asrwt>0</asrwt>
<pdfrwt beam="1">  1       21 0.54001915E-02 0.22265701E+03</pdfrwt>
<pdfrwt beam="2">  1       21 0.23118432E+00 0.22265701E+03</pdfrwt>
<totfact> 0.19826293E+04</totfact>
</mgrwt>
</event>
<event>
 4    2  0.3992997E+000  0.1807083E+03  0.7546771E-02  0.1167119E+00
         21   -1    0    0  501  502  0.00000000000E+00  0.00000000000E+00  0.10014784681E+04  0.10014784681E+04  0.00000000000E+00 0. -1.
         21   -1    0    0  502  503 -0.00000000000E+00 -0.00000000000E+00 -0.33214452421E+02  0.33214452421E+02  0.00000000000E+00 0. -1.
          6    1    1    2  501    0  0.30224027744E+02  0.42579239188E+02  0.55408009882E+03  0.58280377432E+03  0.17300000000E+03 0. -1.
         -6    1    1    2    0  503 -0.30224027744E+02 -0.42579239188E+02  0.41418391687E+03  0.45188914621E+03  0.17300000000E+03 0. -1.
<mgrwt>
<rscale>  2 0.18070828E+03</rscale>
<asrwt>0</asrwt>
<pdfrwt beam="1">  1       21 0.15407359E+00 0.18070828E+03</pdfrwt>
<pdfrwt beam="2">  1       21 0.51099165E-02 0.18070828E+03</pdfrwt>
<totfact> 0.72645385E+04</totfact>
</mgrwt>
</event>
<event>
 4    2  0.3992997E+000  0.2357656E+03  0.7546771E-02  0.1122646E+00
         21   -1    0    0  501  502  0.00000000000E+00  0.00000000000E+00  0.49155384093E+02  0.49155384093E+02  0.00000000000E+00 0.  1.
         21   -1    0    0  502  503 -0.00000000000E+00 -0.00000000000E+00 -0.13463659602E+04  0.13463659602E+04  0.00000000000E+00 0.  1.
          6    1    1    2  501    0 -0.10659622906E+03 -0.11955601583E+03 -0.36941198045E+03  0.43823579073E+03  0.17300000000E+03 0.  1.
         -6    1    1    2    0  503  0.10659622906E+03  0.11955601583E+03 -0.92779859566E+03  0.95728555357E+03  0.17300000000E+03 0.  1.
<mgrwt>
<rscale>  2 0.23576556E+03</rscale>
<asrwt>0</asrwt>
<pdfrwt beam="1">  1       21 0.75623680E-02 0.23576556E+03</pdfrwt>
<pdfrwt beam="2">  1       21 0.20713319E+00 0.23576556E+03</pdfrwt>
<totfact> 0.15495959E+04</totfact>
</mgrwt>
</event>
<event>
 4    2  0.3992997E+000  0.1761852E+03  0.7546771E-02  0.1171547E+00
         21   -1    0    0  503  502  0.00000000000E+00  0.00000000000E+00  0.30225089183E+03  0.30225089183E+03  0.00000000000E+00 0. -1.
         21   -1    0    0  501  503 -0.00000000000E+00 -0.00000000000E+00 -0.19066968156E+03  0.19066968156E+03  0.00000000000E+00 0. -1.
          6    1    1    2  501    0  0.34077845374E+00 -0.33348284761E+02 -0.11161583757E+03  0.20856490458E+03  0.17300000000E+03 0. -1.
         -6    1    1    2    0  502 -0.34077845374E+00  0.33348284761E+02  0.22319704783E+03  0.28435566882E+03  0.17300000000E+03 0. -1.
<mgrwt>
<rscale>  2 0.17618520E+03</rscale>
<asrwt>0</asrwt>
<pdfrwt beam="1">  1       21 0.46500137E-01 0.17618520E+03</pdfrwt>
<pdfrwt beam="2">  1       21 0.29333797E-01 0.17618520E+03</pdfrwt>
<totfact> 0.49696350E+04</totfact>
</mgrwt>
</event>
<event>
 4    2  0.3992997E+000  0.1942592E+03  0.7546771E-02  0.1154675E+00
         21   -1    0    0  503  502  0.00000000000E+00  0.00000000000E+00  0.11549145105E+03  0.11549145105E+03  0.00000000000E+00 0. -1.
         21   -1    0    0  501  503 -0.00000000000E+00 -0.00000000000E+00 -0.33353431528E+03  0.33353431528E+03  0.00000000000E+00 0. -1.
          6    1    1    2  501    0  0.19714500766E+02  0.86133534294E+02 -0.14104539725E+03  0.24006343194E+03  0.17300000000E+03 0. -1.
         -6    1    1    2    0  502 -0.19714500766E+02 -0.86133534294E+02 -0.76997466983E+02  0.20896233439E+03  0.17300000000E+03 0. -1.
<mgrwt>
<rscale>  2 0.19425923E+03</rscale>
<asrwt>0</asrwt>
<pdfrwt beam="1">  1       21 0.17767916E-01 0.19425923E+03</pdfrwt>
<pdfrwt beam="2">  1       21 0.51312971E-01 0.19425923E+03</pdfrwt>
<totfact> 0.10374009E+05</totfact>
</mgrwt>
</event>
<event>
 4    2  0.3992997E+000  0.2358522E+03  0.7546771E-02  0.1122587E+00
         21   -1    0    0  501  502  0.00000000000E+00  0.00000000000E+00  0.78931338660E+03  0.78931338660E+03  0.00000000000E+00 0.  1.
         21   -1    0    0  502  503 -0.00000000000E+00 -0.00000000000E+00 -0.70548704562E+02  0.70548704562E+02  0.00000000000E+00 0.  1.
          6    1    1    2  501    0 -0.37960232525E+02 -0.15574434265E+03  0.34541670157E+03  0.41825707077E+03  0.17300000000E+03 0.  1.
         -6    1    1    2    0  503  0.37960232525E+02  0.15574434265E+03  0.37334798046E+03  0.44160502039E+03  0.17300000000E+03 0.  1.
<mgrwt>
<rscale>  2 0.23585224E+03</rscale>
<asrwt>0</asrwt>
<pdfrwt beam="1">  1       21 0.12143282E+00 0.23585224E+03</pdfrwt>
<pdfrwt beam="2">  1       21 0.10853647E-01 0.23585224E+03</pdfrwt>
<totfact> 0.35159611E+04</totfact>
</mgrwt>
</event>
<event>
 4    2  0.3992997E+000  0.2067669E+03  0.7546771E-02  0.1144152E+00
         21   -1    0    0  503  502  0.00000000000E+00  0.00000000000E+00  0.11289821570E+03  0.11289821570E+03  0.00000000000E+00 0.  1.
         21   -1    0    0  501  503 -0.00000000000E+00 -0.00000000000E+00 -0.12090860701E+04  0.12090860701E+04  0.00000000000E+00 0.  1.
          6    1    1    2  501    0 -0.93546393732E+01 -0.11285411776E+03 -0.10958816978E+04  0.11152171343E+04  0.17300000000E+03 0.  1.
         -6    1    1    2    0  502  0.93546393732E+01  0.11285411776E+03 -0.30615656330E+00  0.20676715142E+03  0.17300000000E+03 0.  1.
<mgrwt>
<rscale>  2 0.20676692E+03</rscale>
<asrwt>0</asrwt>
<pdfrwt beam="1">  1       21 0.17368956E-01 0.20676692E+03</pdfrwt>
<pdfrwt beam="2">  1       21 0.18601325E+00 0.20676692E+03</pdfrwt>
<totfact> 0.49086422E+03</totfact>
</mgrwt>
</event>
<event>
 4    2  0.3992997E+000  0.2148343E+03  0.7546771E-02  0.1137794E+00
         21   -1    0    0  501  502  0.00000000000E+00  0.00000000000E+00  0.11517445912E+03  0.11517445912E+03  0.00000000000E+00 0.  1.
         21   -1    0    0  502  503 -0.00000000000E+00 -0.00000000000E+00 -0.86836465048E+03  0.86836465048E+03  0.00000000000E+00 0. -1.
          6    1    1    2  501    0  0.56417810954E+01  0.12725146252E+03 -0.15713859540E+02  0.21540819341E+03  0.17300000000E+03 0.  1.
         -6    1    1    2    0  503 -0.56417810954E+01 -0.12725146252E+03 -0.73747633182E+03  0.76813091619E+03  0.17300000000E+03 0. -1.
<mgrwt>
<rscale>  2 0.21483427E+03</rscale>
<asrwt>0</asrwt>
<pdfrwt beam="1">  1       21 0.17719149E-01 0.21483427E+03</pdfrwt>
<pdfrwt beam="2">  1       21 0.13359455E+00 0.21483427E+03</pdfrwt>
<totfact> 0.11479930E+04</totfact>
</mgrwt>
</event>
<event>
 4    2  0.3992997E+000  0.1959572E+03  0.7546771E-02  0.1153195E+00
         21   -1    0    0  503  502  0.00000000000E+00  0.00000000000E+00  0.14809381355E+03  0.14809381355E+03  0.00000000000E+00 0.  1.
         21   -1    0    0  501  503 -0.00000000000E+00 -0.00000000000E+00 -0.39263066941E+03  0.39263066941E+03  0.00000000000E+00 0.  1.
          6    1    1    2  501    0  0.87828727604E+02 -0.27501790026E+02 -0.27982457990E+03  0.34161532367E+03  0.17300000000E+03 0.  1.
         -6    1    1    2    0  502 -0.87828727604E+02  0.27501790026E+02  0.35287724048E+02  0.19910915930E+03  0.17300000000E+03 0.  1.
<mgrwt>
<rscale>  2 0.19595722E+03</rscale>
<asrwt>0</asrwt>
<pdfrwt beam="1">  1       21 0.22783664E-01 0.19595722E+03</pdfrwt>
<pdfrwt beam="2">  1       21 0.60404718E-01 0.19595722E+03</pdfrwt>
<totfact> 0.46073269E+04</totfact>
</mgrwt>
</event>
<event>
 4    2  0.3992997E+000  0.1881363E+03  0.7546771E-02  0.1160153E+00
         21   -1    0    0  501  502  0.00000000000E+00  0.00000000000E+00  0.30081139362E+03  0.30081139362E+03  0.00000000000E+00 0. -1.
         21   -1    0    0  502  503 -0.00000000000E+00 -0.00000000000E+00 -0.20243567656E+03  0.20243567656E+03  0.00000000000E+00 0. -1.
          6    1    1    2  501    0  0.70809459896E+02  0.21266877821E+02  0.21201549272E+03  0.28345339804E+03  0.17300000000E+03 0. -1.
         -6    1    1    2    0  503 -0.70809459896E+02 -0.21266877821E+02 -0.11363977566E+03  0.21979367215E+03  0.17300000000E+03 0. -1.
<mgrwt>
<rscale>  2 0.18813628E+03</rscale>
<asrwt>0</asrwt>
<pdfrwt beam="1">  1       21 0.46278676E-01 0.18813628E+03</pdfrwt>
<pdfrwt beam="2">  1       21 0.31143950E-01 0.18813628E+03</pdfrwt>
<totfact> 0.44404443E+04</totfact>
</mgrwt>
</event>
<event>
 4    2  0.3992997E+000  0.1826233E+03  0.7546771E-02  0.1165288E+00
         21   -1    0    0  503  502  0.00000000000E+00  0.00000000000E+00  0.58689578911E+03  0.58689578911E+03  0.00000000000E+00 0. -1.
         21   -1    0    0  501  503 -0.00000000000E+00 -0.00000000000E+00 -0.77515483460E+02  0.77515483460E+02  0.00000000000E+00 0. -1.
          6    1    1    2  501    0  0.28482865030E+02 -0.51098017932E+02  0.83064780009E+02  0.20062661517E+03  0.17300000000E+03 0. -1.
         -6    1    1    2    0  502 -0.28482865030E+02  0.51098017932E+02  0.42631552564E+03  0.46378465740E+03  0.17300000000E+03 0. -1.
<mgrwt>
<rscale>  2 0.18262333E+03</rscale>
<asrwt>0</asrwt>
<pdfrwt beam="1">  1       21 0.90291657E-01 0.18262333E+03</pdfrwt>
<pdfrwt beam="2">  1       21 0.11925459E-01 0.18262333E+03</pdfrwt>
<totfact> 0.62162975E+04</totfact>
</mgrwt>
</event>
<event>
 4    2  0.3992997E+000  0.1926497E+03  0.7546771E-02  0.1156093E+00
         21   -1    0    0  503  502  0.00000000000E+00  0.00000000000E+00  0.81646503091E+02  0.81646503091E+02  0.00000000000E+00 0. -1.
         21   -1    0    0  501  503 -0.00000000000E+00 -0.00000000000E+00 -0.83293255700E+03  0.83293255700E+03  0.00000000000E+00 0. -1.
          6    1    1    2  501    0  0.84757120264E+02 -0.10592021787E+01 -0.67436709329E+02  0.20411173683E+03  0.17300000000E+03 0. -1.
         -6    1    1    2    0  502 -0.84757120264E+02  0.10592021787E+01 -0.68384934458E+03  0.71046732326E+03  0.17300000000E+03 0. -1.
<mgrwt>
<rscale>  2 0.19264966E+03</rscale>
<asrwt>0</asrwt>
<pdfrwt beam="1">  1       21 0.12561001E-01 0.19264966E+03</pdfrwt>
<pdfrwt beam="2">  1       21 0.12814347E+00 0.19264966E+03</pdfrwt>
<totfact> 0.24235112E+04</totfact>
</mgrwt>
</event>
<event>
 4    2  0.3992997E+000  0.3245486E+03  0.7546771E-02  0.1073575E+00
         21   -1    0    0  503  502  0.00000000000E+00  0.00000000000E+00  0.35100476937E+03  0.35100476937E+03  0.00000000000E+00 0. -1.
         21   -1    0    0  501  503 -0.00000000000E+00 -0.00000000000E+00 -0.33348766984E+03  0.33348766984E+03  0.00000000000E+00 0. -1.
          6    1    1    2  501    0  0.47287206966E+02  0.27049343689E+03 -0.99554268412E+02  0.33947434616E+03  0.17300000000E+03 0. -1.
         -6    1    1    2    0  502 -0.47287206966E+02 -0.27049343689E+03  0.11707136795E+03  0.34501809305E+03  0.17300000000E+03 0. -1.
<mgrwt>
<rscale>  2 0.32454858E+03</rscale>
<asrwt>0</asrwt>
<pdfrwt beam="1">  1       21 0.54000734E-01 0.32454858E+03</pdfrwt>
<pdfrwt beam="2">  1       21 0.51305795E-01 0.32454858E+03</pdfrwt>
<totfact> 0.10918638E+04</totfact>
</mgrwt>
</event>
<event>
 4    2  0.3992997E+000  0.3407307E+03  0.7546771E-02  0.1066485E+00
         21   -1    0    0  503  502  0.00000000000E+00  0.00000000000E+00  0.42397697808E+03  0.42397697808E+03  0.00000000000E+00 0.  1.
         21   -1    0    0  501  503 -0.00000000000E+00 -0.00000000000E+00 -0.65032175084E+03  0.65032175084E+03  0.00000000000E+00 0.  1.
          6    1    1    2  501    0 -0.12777272751E+03 -0.26427738375E+03 -0.52187643995E+03  0.62325951580E+03  0.17300000000E+03 0.  1.
         -6    1    1    2    0  502  0.12777272751E+03  0.26427738375E+03  0.29553166719E+03  0.45103921312E+03  0.17300000000E+03 0.  1.
<mgrwt>
<rscale>  2 0.34073069E+03</rscale>
<asrwt>0</asrwt>
<pdfrwt beam="1">  1       21 0.65227228E-01 0.34073069E+03</pdfrwt>
<pdfrwt beam="2">  1       21 0.10004950E+00 0.34073069E+03</pdfrwt>
<totfact> 0.15982220E+03</totfact>
</mgrwt>
</event>
<event>
 4    2  0.3992997E+000  0.1923678E+03  0.7546771E-02  0.1156343E+00
         21   -1    0    0  501  502  0.00000000000E+00  0.00000000000E+00  0.62583468431E+02  0.62583468431E+02  0.00000000000E+00 0.  1.
         21   -1    0    0  502  503 -0.00000000000E+00 -0.00000000000E+00 -0.83393782925E+03  0.83393782925E+03  0.00000000000E+00 0. -1.
          6    1    1    2  501    0  0.28573572857E+02  0.79119643308E+02 -0.14388267071E+03  0.24022404117E+03  0.17300000000E+03 0.  1.
         -6    1    1    2    0  503 -0.28573572857E+02 -0.79119643308E+02 -0.62747169011E+03  0.65629725652E+03  0.17300000000E+03 0.  1.
<mgrwt>
<rscale>  2 0.19236779E+03</rscale>
<asrwt>0</asrwt>
<pdfrwt beam="1">  1       21 0.96282250E-02 0.19236779E+03</pdfrwt>
<pdfrwt beam="2">  1       21 0.12829814E+00 0.19236779E+03</pdfrwt>
<totfact> 0.38773897E+04</totfact>
</mgrwt>
</event>
<event>
 4    2  0.3992997E+000  0.2759502E+03  0.7546771E-02  0.1097922E+00
         21   -1    0    0  503  502  0.00000000000E+00  0.00000000000E+00  0.38636180208E+03  0.38636180208E+03  0.00000000000E+00 0.  1.
         21   -1    0    0  501  503 -0.00000000000E+00 -0.00000000000E+00 -0.31919596464E+03  0.31919596464E+03  0.00000000000E+00 0.  1.
          6    1    1    2  501    0  0.98785434744E+02  0.19094751793E+03 -0.18460975551E+03  0.33200794953E+03  0.17300000000E+03 0.  1.
         -6    1    1    2    0  502 -0.98785434744E+02 -0.19094751793E+03  0.25177559295E+03  0.37354981719E+03  0.17300000000E+03 0.  1.
<mgrwt>
<rscale>  2 0.27595021E+03</rscale>
<asrwt>0</asrwt>
<pdfrwt beam="1">  1       21 0.59440278E-01 0.27595021E+03</pdfrwt>
<pdfrwt beam="2">  1       21 0.49107071E-01 0.27595021E+03</pdfrwt>
<totfact> 0.99574570E+03</totfact>
</mgrwt>
</event>
<event>
 4    2  0.3992997E+000  0.1835614E+03  0.7546771E-02  0.1164400E+00
         21   -1    0    0  503  502  0.00000000000E+00  0.00000000000E+00  0.36315417767E+03  0.36315417767E+03  0.00000000000E+00 0.  1.
         21   -1    0    0  501  503 -0.00000000000E+00 -0.00000000000E+00 -0.12129763070E+03  0.12129763070E+03  0.00000000000E+00 0.  1.
          6    1    1    2  501    0 -0.34926617567E+02 -0.50457191221E+02  0.34864478504E+01  0.18359453172E+03  0.17300000000E+03 0.  1.
         -6    1    1    2    0  502  0.34926617567E+02  0.50457191221E+02  0.23837009911E+03  0.30085727665E+03  0.17300000000E+03 0.  1.
<mgrwt>
<rscale>  2 0.18356143E+03</rscale>
<asrwt>0</asrwt>
<pdfrwt beam="1">  1       21 0.55869873E-01 0.18356143E+03</pdfrwt>
<pdfrwt beam="2">  1       21 0.18661174E-01 0.18356143E+03</pdfrwt>
<totfact> 0.79531514E+04</totfact>
</mgrwt>
</event>
<event>
 4    2  0.3992997E+000  0.1790734E+03  0.7546771E-02  0.1168703E+00
         21   -1    0    0  503  502  0.00000000000E+00  0.00000000000E+00  0.96100107894E+02  0.96100107894E+02  0.00000000000E+00 0.  1.
         21   -1    0    0  501  503 -0.00000000000E+00 -0.00000000000E+00 -0.94442291821E+03  0.94442291821E+03  0.00000000000E+00 0.  1.
          6    1    1    2  501    0  0.35078864510E+02 -0.30129148689E+02 -0.84253610148E+03  0.86135612532E+03  0.17300000000E+03 0.  1.
         -6    1    1    2    0  502 -0.35078864510E+02  0.30129148689E+02 -0.57867088358E+01  0.17916690078E+03  0.17300000000E+03 0.  1.
<mgrwt>
<rscale>  2 0.17907343E+03</rscale>
<asrwt>0</asrwt>
<pdfrwt beam="1">  1       21 0.14784632E-01 0.17907343E+03</pdfrwt>
<pdfrwt beam="2">  1       21 0.14529583E+00 0.17907343E+03</pdfrwt>
<totfact> 0.13216216E+04</totfact>
</mgrwt>
</event>
<event>
 4    2  0.3992997E+000  0.2779244E+03  0.7546771E-02  0.1096828E+00
         21   -1    0    0  501  502  0.00000000000E+00  0.00000000000E+00  0.39579465159E+02  0.39579465159E+02  0.00000000000E+00 0.  1.
         21   -1    0    0  502  503 -0.00000000000E+00 -0.00000000000E+00 -0.19712293097E+04  0.19712293097E+04  0.00000000000E+00 0.  1.
          6    1    1    2  501    0 -0.21311106328E+03  0.43550728120E+02 -0.10662369655E+04  0.11018635387E+04  0.17300000000E+03 0.  1.
         -6    1    1    2    0  503  0.21311106328E+03 -0.43550728120E+02 -0.86541287900E+03  0.90894523617E+03  0.17300000000E+03 0.  1.
<mgrwt>
<rscale>  2 0.27792443E+03</rscale>
<asrwt>0</asrwt>
<pdfrwt beam="1">  1       21 0.60891491E-02 0.27792443E+03</pdfrwt>
<pdfrwt beam="2">  1       21 0.30326602E+00 0.27792443E+03</pdfrwt>
<totfact> 0.57924981E+03</totfact>
</mgrwt>
</event>
<event>
 4    2  0.3992997E+000  0.1924646E+03  0.7546771E-02  0.1156257E+00
         21   -1    0    0  501  502  0.00000000000E+00  0.00000000000E+00  0.14820248458E+03  0.14820248458E+03  0.00000000000E+00 0. -1.
         21   -1    0    0  502  503 -0.00000000000E+00 -0.00000000000E+00 -0.25579477029E+03  0.25579477029E+03  0.00000000000E+00 0. -1.
          6    1    1    2  501    0  0.33026227515E+00  0.84341611239E+02 -0.23251481884E+02  0.19386399323E+03  0.17300000000E+03 0. -1.
         -6    1    1    2    0  503 -0.33026227515E+00 -0.84341611239E+02 -0.84340803820E+02  0.21013326164E+03  0.17300000000E+03 0. -1.
<mgrwt>
<rscale>  2 0.19246458E+03</rscale>
<asrwt>0</asrwt>
<pdfrwt beam="1">  1       21 0.22800382E-01 0.19246458E+03</pdfrwt>
<pdfrwt beam="2">  1       21 0.39353042E-01 0.19246458E+03</pdfrwt>
<totfact> 0.11233719E+05</totfact>
</mgrwt>
</event>
<event>
 4    2  0.3992997E+000  0.1761824E+03  0.7546771E-02  0.1171550E+00
         21   -1    0    0  501  502  0.00000000000E+00  0.00000000000E+00  0.12183686427E+04  0.12183686427E+04  0.00000000000E+00 0. -1.
         21   -1    0    0  502  503 -0.00000000000E+00 -0.00000000000E+00 -0.26607374670E+02  0.26607374670E+02  0.00000000000E+00 0. -1.
          6    1    1    2  501    0  0.19687157251E+02 -0.26900754246E+02  0.46756967284E+03  0.49966151913E+03  0.17300000000E+03 0.  1.
         -6    1    1    2    0  503 -0.19687157251E+02  0.26900754246E+02  0.72419159515E+03  0.74531449820E+03  0.17300000000E+03 0.  1.
<mgrwt>
<rscale>  2 0.17618239E+03</rscale>
<asrwt>0</asrwt>
<pdfrwt beam="1">  1       21 0.18744129E+00 0.17618239E+03</pdfrwt>
<pdfrwt beam="2">  1       21 0.40934432E-02 0.17618239E+03</pdfrwt>
<totfact> 0.61749864E+04</totfact>
</mgrwt>
</event>
<event>
 4    2  0.3992997E+000  0.1997162E+03  0.7546771E-02  0.1149979E+00
         21   -1    0    0  501  502  0.00000000000E+00  0.00000000000E+00  0.73376475284E+03  0.73376475284E+03  0.00000000000E+00 0. -1.
         21   -1    0    0  502  503 -0.00000000000E+00 -0.00000000000E+00 -0.72982198554E+02  0.72982198554E+02  0.00000000000E+00 0. -1.
          6    1    1    2  501    0  0.89528419651E+02  0.44070807640E+02  0.53415566973E+03  0.57027085979E+03  0.17300000000E+03 0. -1.
         -6    1    1    2    0  503 -0.89528419651E+02 -0.44070807640E+02  0.12662688455E+03  0.23647609161E+03  0.17300000000E+03 0. -1.
<mgrwt>
<rscale>  2 0.19971623E+03</rscale>
<asrwt>0</asrwt>
<pdfrwt beam="1">  1       21 0.11288688E+00 0.19971623E+03</pdfrwt>
<pdfrwt beam="2">  1       21 0.11228031E-01 0.19971623E+03</pdfrwt>
<totfact> 0.40369580E+04</totfact>
</mgrwt>
</event>
<event>
 4    2  0.3992997E+000  0.2758170E+03  0.7546771E-02  0.1097996E+00
         21   -1    0    0  501  502  0.00000000000E+00  0.00000000000E+00  0.87609693370E+03  0.87609693370E+03  0.00000000000E+00 0. -1.
         21   -1    0    0  502  503 -0.00000000000E+00 -0.00000000000E+00 -0.50550754406E+03  0.50550754406E+03  0.00000000000E+00 0. -1.
          6    1    1    2  501    0 -0.68608761531E+02  0.20356537227E+03  0.81397182537E+03  0.85943304302E+03  0.17300000000E+03 0. -1.
         -6    1    1    2    0  503  0.68608761531E+02 -0.20356537227E+03 -0.44338243573E+03  0.52217143474E+03  0.17300000000E+03 0. -1.
<mgrwt>
<rscale>  2 0.27581701E+03</rscale>
<asrwt>0</asrwt>
<pdfrwt beam="1">  1       21 0.13478414E+00 0.27581701E+03</pdfrwt>
<pdfrwt beam="2">  1       21 0.77770391E-01 0.27581701E+03</pdfrwt>
<totfact> 0.53478197E+02</totfact>
</mgrwt>
</event>
<event>
 4    2  0.3992997E+000  0.1762808E+03  0.7546771E-02  0.1171452E+00
         21   -1    0    0  501  502  0.00000000000E+00  0.00000000000E+00  0.98452513735E+02  0.98452513735E+02  0.00000000000E+00 0.  1.
         21   -1    0    0  502  503 -0.00000000000E+00 -0.00000000000E+00 -0.44266397623E+03  0.44266397623E+03  0.00000000000E+00 0.  1.
          6    1    1    2  501    0 -0.21334833410E+02 -0.26282017137E+02 -0.27169319148E+02  0.17836224781E+03  0.17300000000E+03 0.  1.
         -6    1    1    2    0  503  0.21334833410E+02  0.26282017137E+02 -0.31704214334E+03  0.36275424215E+03  0.17300000000E+03 0.  1.
<mgrwt>
<rscale>  2 0.17628080E+03</rscale>
<asrwt>0</asrwt>
<pdfrwt beam="1">  1       21 0.15146540E-01 0.17628080E+03</pdfrwt>
<pdfrwt beam="2">  1       21 0.68102151E-01 0.17628080E+03</pdfrwt>
<totfact> 0.76390755E+04</totfact>
</mgrwt>
</event>
<event>
 4    2  0.3992997E+000  0.1867874E+03  0.7546771E-02  0.1161391E+00
         21   -1    0    0  501  502  0.00000000000E+00  0.00000000000E+00  0.25405756054E+03  0.25405756054E+03  0.00000000000E+00 0. -1.
         21   -1    0    0  502  503 -0.00000000000E+00 -0.00000000000E+00 -0.17150672692E+03  0.17150672692E+03  0.00000000000E+00 0. -1.
          6    1    1    2  501    0  0.60612134118E+02 -0.35870614334E+02  0.13626252403E+03  0.23120771447E+03  0.17300000000E+03 0. -1.
         -6    1    1    2    0  503 -0.60612134118E+02  0.35870614334E+02 -0.53711690411E+02  0.19435657298E+03  0.17300000000E+03 0. -1.
<mgrwt>
<rscale>  2 0.18678740E+03</rscale>
<asrwt>0</asrwt>
<pdfrwt beam="1">  1       21 0.39085779E-01 0.18678740E+03</pdfrwt>
<pdfrwt beam="2">  1       21 0.26385650E-01 0.18678740E+03</pdfrwt>
<totfact> 0.86412023E+04</totfact>
</mgrwt>
</event>
<event>
 4    2  0.3992997E+000  0.2606163E+03  0.7546771E-02  0.1106774E+00
         21   -1    0    0  501  502  0.00000000000E+00  0.00000000000E+00  0.19364845806E+04  0.19364845806E+04  0.00000000000E+00 0. -1.
         21   -1    0    0  502  503 -0.00000000000E+00 -0.00000000000E+00 -0.58366020258E+02  0.58366020258E+02  0.00000000000E+00 0.  1.
          6    1    1    2  501    0  0.17576858306E+03 -0.84245205053E+02  0.15691470972E+04  0.15906424684E+04  0.17300000000E+03 0. -1.
         -6    1    1    2    0  503 -0.17576858306E+03  0.84245205053E+02  0.30897146308E+03  0.40420813248E+03  0.17300000000E+03 0.  1.
<mgrwt>
<rscale>  2 0.26061629E+03</rscale>
<asrwt>0</asrwt>
<pdfrwt beam="1">  1       21 0.29792066E+00 0.26061629E+03</pdfrwt>
<pdfrwt beam="2">  1       21 0.89793892E-02 0.26061629E+03</pdfrwt>
<totfact> 0.32070544E+03</totfact>
</mgrwt>
</event>
<event>
 4    2  0.3992997E+000  0.1820354E+03  0.7546771E-02  0.1165848E+00
         21   -1    0    0  501  502  0.00000000000E+00  0.00000000000E+00  0.20970114237E+03  0.20970114237E+03  0.00000000000E+00 0.  1.
         21   -1    0    0  502  503 -0.00000000000E+00 -0.00000000000E+00 -0.34605594756E+03  0.34605594756E+03  0.00000000000E+00 0.  1.
          6    1    1    2  501    0 -0.23491912012E+02  0.51536497781E+02  0.13665696074E+03  0.22762250647E+03  0.17300000000E+03 0.  1.
         -6    1    1    2    0  503  0.23491912012E+02 -0.51536497781E+02 -0.27301176592E+03  0.32813458347E+03  0.17300000000E+03 0.  1.
<mgrwt>
<rscale>  2 0.18203538E+03</rscale>
<asrwt>0</asrwt>
<pdfrwt beam="1">  1       21 0.32261714E-01 0.18203538E+03</pdfrwt>
<pdfrwt beam="2">  1       21 0.53239376E-01 0.18203538E+03</pdfrwt>
<totfact> 0.31055882E+04</totfact>
</mgrwt>
</event>
<event>
 4    2  0.3992997E+000  0.2113979E+03  0.7546771E-02  0.1140464E+00
         21   -1    0    0  501  502  0.00000000000E+00  0.00000000000E+00  0.15285302307E+03  0.15285302307E+03  0.00000000000E+00 0. -1.
         21   -1    0    0  502  503 -0.00000000000E+00 -0.00000000000E+00 -0.39704284997E+03  0.39704284997E+03  0.00000000000E+00 0. -1.
          6    1    1    2  501    0 -0.88298554619E+02 -0.83447153748E+02 -0.26326953060E+03  0.33763872402E+03  0.17300000000E+03 0. -1.
         -6    1    1    2    0  503  0.88298554619E+02  0.83447153748E+02  0.19079703697E+02  0.21225714902E+03  0.17300000000E+03 0. -1.
<mgrwt>
<rscale>  2 0.21139788E+03</rscale>
<asrwt>0</asrwt>
<pdfrwt beam="1">  1       21 0.23515849E-01 0.21139788E+03</pdfrwt>
<pdfrwt beam="2">  1       21 0.61083516E-01 0.21139788E+03</pdfrwt>
<totfact> 0.42031157E+04</totfact>
</mgrwt>
</event>
<event>
 4    2  0.3992997E+000  0.1957167E+03  0.7546771E-02  0.1153404E+00
         21   -1    0    0  503  502  0.00000000000E+00  0.00000000000E+00  0.74977569484E+03  0.74977569484E+03  0.00000000000E+00 0. -1.
         21   -1    0    0  501  503 -0.00000000000E+00 -0.00000000000E+00 -0.51090639483E+02  0.51090639483E+02  0.00000000000E+00 0. -1.
          6    1    1    2  501    0 -0.96113569069E+01  0.91014550183E+02  0.34684246161E+03  0.39825208060E+03  0.17300000000E+03 0. -1.
         -6    1    1    2    0  502  0.96113569069E+01 -0.91014550183E+02  0.35184259375E+03  0.40261425373E+03  0.17300000000E+03 0. -1.
<mgrwt>
<rscale>  2 0.19571670E+03</rscale>
<asrwt>0</asrwt>
<pdfrwt beam="1">  1       21 0.11535010E+00 0.19571670E+03</pdfrwt>
<pdfrwt beam="2">  1       21 0.78600989E-02 0.19571670E+03</pdfrwt>
<totfact> 0.71904618E+04</totfact>
</mgrwt>
</event>
<event>
 4    2  0.3992997E+000  0.2124350E+03  0.7546771E-02  0.1139652E+00
         21   -1    0    0  501  502  0.00000000000E+00  0.00000000000E+00  0.12903514815E+03  0.12903514815E+03  0.00000000000E+00 0.  1.
         21   -1    0    0  502  503 -0.00000000000E+00 -0.00000000000E+00 -0.35283633136E+03  0.35283633136E+03  0.00000000000E+00 0.  1.
          6    1    1    2  501    0  0.57384509867E+02 -0.10911750156E+03 -0.13447494071E+03  0.25142020762E+03  0.17300000000E+03 0.  1.
         -6    1    1    2    0  503 -0.57384509867E+02  0.10911750156E+03 -0.89326242500E+02  0.23045127190E+03  0.17300000000E+03 0.  1.
<mgrwt>
<rscale>  2 0.21243496E+03</rscale>
<asrwt>0</asrwt>
<pdfrwt beam="1">  1       21 0.19851562E-01 0.21243496E+03</pdfrwt>
<pdfrwt beam="2">  1       21 0.54282511E-01 0.21243496E+03</pdfrwt>
<totfact> 0.74418688E+04</totfact>
</mgrwt>
</event>
<event>
 4    2  0.3992997E+000  0.3047034E+03  0.7546771E-02  0.1082913E+00
         21   -1    0    0  503  502  0.00000000000E+00  0.00000000000E+00  0.36813091420E+03  0.36813091420E+03  0.00000000000E+00 0.  1.
         21   -1    0    0  501  503 -0.00000000000E+00 -0.00000000000E+00 -0.25704665735E+03  0.25704665735E+03  0.00000000000E+00 0. -1.
          6    1    1    2  501    0 -0.17230159034E+03  0.18228371213E+03  0.12638203649E+02  0.30496543072E+03  0.17300000000E+03 0.  1.
         -6    1    1    2    0  502  0.17230159034E+03 -0.18228371213E+03  0.98446053202E+02  0.32021214082E+03  0.17300000000E+03 0. -1.
<mgrwt>
<rscale>  2 0.30470345E+03</rscale>
<asrwt>0</asrwt>
<pdfrwt beam="1">  1       21 0.56635525E-01 0.30470345E+03</pdfrwt>
<pdfrwt beam="2">  1       21 0.39545639E-01 0.30470345E+03</pdfrwt>
<totfact> 0.17076071E+04</totfact>
</mgrwt>
</event>
<event>
 4    2  0.3992997E+000  0.1753731E+03  0.7546771E-02  0.1172358E+00
         21   -1    0    0  503  502  0.00000000000E+00  0.00000000000E+00  0.50068636074E+03  0.50068636074E+03  0.00000000000E+00 0.  1.
         21   -1    0    0  501  503 -0.00000000000E+00 -0.00000000000E+00 -0.63174932356E+02  0.63174932356E+02  0.00000000000E+00 0.  1.
          6    1    1    2  501    0  0.28345429076E+02  0.48246111495E+01  0.26564920550E+03  0.31831625878E+03  0.17300000000E+03 0.  1.
         -6    1    1    2    0  502 -0.28345429076E+02 -0.48246111495E+01  0.17186222289E+03  0.24554503432E+03  0.17300000000E+03 0.  1.
<mgrwt>
<rscale>  2 0.17537315E+03</rscale>
<asrwt>0</asrwt>
<pdfrwt beam="1">  1       21 0.77028668E-01 0.17537315E+03</pdfrwt>
<pdfrwt beam="2">  1       21 0.97192207E-02 0.17537315E+03</pdfrwt>
<totfact> 0.12860220E+05</totfact>
</mgrwt>
</event>
<event>
 4    2  0.3992997E+000  0.2579459E+03  0.7546771E-02  0.1108384E+00
         21   -1    0    0  501  502  0.00000000000E+00  0.00000000000E+00  0.41909287672E+03  0.41909287672E+03  0.00000000000E+00 0.  1.
         21   -1    0    0  502  503 -0.00000000000E+00 -0.00000000000E+00 -0.42121655882E+03  0.42121655882E+03  0.00000000000E+00 0. -1.
          6    1    1    2  501    0 -0.18929290840E+03 -0.27844297289E+02  0.33059076610E+03  0.41931654474E+03  0.17300000000E+03 0.  1.
         -6    1    1    2    0  503  0.18929290840E+03  0.27844297289E+02 -0.33271444820E+03  0.42099289080E+03  0.17300000000E+03 0. -1.
<mgrwt>
<rscale>  2 0.25794594E+03</rscale>
<asrwt>0</asrwt>
<pdfrwt beam="1">  1       21 0.64475827E-01 0.25794594E+03</pdfrwt>
<pdfrwt beam="2">  1       21 0.64802548E-01 0.25794594E+03</pdfrwt>
<totfact> 0.46498972E+03</totfact>
</mgrwt>
</event>
<event>
 4    2  0.3992997E+000  0.2251353E+03  0.7546771E-02  0.1130111E+00
         21   -1    0    0  503  502  0.00000000000E+00  0.00000000000E+00  0.48044657661E+03  0.48044657661E+03  0.00000000000E+00 0. -1.
         21   -1    0    0  501  503 -0.00000000000E+00 -0.00000000000E+00 -0.10864153790E+03  0.10864153790E+03  0.00000000000E+00 0. -1.
          6    1    1    2  501    0 -0.22791941445E+02 -0.14225834807E+03  0.23600930711E+03  0.32616913286E+03  0.17300000000E+03 0. -1.
         -6    1    1    2    0  502  0.22791941445E+02  0.14225834807E+03  0.13579573160E+03  0.26291898165E+03  0.17300000000E+03 0. -1.
<mgrwt>
<rscale>  2 0.22513532E+03</rscale>
<asrwt>0</asrwt>
<pdfrwt beam="1">  1       21 0.73914857E-01 0.22513532E+03</pdfrwt>
<pdfrwt beam="2">  1       21 0.16714083E-01 0.22513532E+03</pdfrwt>
<totfact> 0.52056546E+04</totfact>
</mgrwt>
</event>
<event>
 4    2  0.3992997E+000  0.2533234E+03  0.7546771E-02  0.1111222E+00
         21   -1    0    0  501  502  0.00000000000E+00  0.00000000000E+00  0.13939753771E+03  0.13939753771E+03  0.00000000000E+00 0.  1.
         21   -1    0    0  502  503 -0.00000000000E+00 -0.00000000000E+00 -0.46154410609E+03  0.46154410609E+03  0.00000000000E+00 0.  1.
          6    1    1    2  501    0  0.69944870232E+02  0.17132267219E+03 -0.17630662903E+03  0.30863695552E+03  0.17300000000E+03 0.  1.
         -6    1    1    2    0  503 -0.69944870232E+02 -0.17132267219E+03 -0.14583993935E+03  0.29230468827E+03  0.17300000000E+03 0.  1.
<mgrwt>
<rscale>  2 0.25332340E+03</rscale>
<asrwt>0</asrwt>
<pdfrwt beam="1">  1       21 0.21445775E-01 0.25332340E+03</pdfrwt>
<pdfrwt beam="2">  1       21 0.71006785E-01 0.25332340E+03</pdfrwt>
<totfact> 0.35308369E+04</totfact>
</mgrwt>
</event>
<event>
 4    2  0.3992997E+000  0.2553152E+03  0.7546771E-02  0.1109991E+00
         21   -1    0    0  501  502  0.00000000000E+00  0.00000000000E+00  0.56609916284E+02  0.56609916284E+02  0.00000000000E+00 0. -1.
         21   -1    0    0  502  503 -0.00000000000E+00 -0.00000000000E+00 -0.12659544813E+04  0.12659544813E+04  0.00000000000E+00 0. -1.
          6    1    1    2  501    0 -0.32152739160E+02 -0.18499476137E+03 -0.80351493328E+03  0.84310266776E+03  0.17300000000E+03 0. -1.
         -6    1    1    2    0  503  0.32152739160E+02  0.18499476137E+03 -0.40582963171E+03  0.47946172980E+03  0.17300000000E+03 0. -1.
<mgrwt>
<rscale>  2 0.25531522E+03</rscale>
<asrwt>0</asrwt>
<pdfrwt beam="1">  1       21 0.87092180E-02 0.25531522E+03</pdfrwt>
<pdfrwt beam="2">  1       21 0.19476223E+00 0.25531522E+03</pdfrwt>
<totfact> 0.14372616E+04</totfact>
</mgrwt>
</event>
<event>
 4    2  0.3992997E+000  0.2678517E+03  0.7546771E-02  0.1102515E+00
         21   -1    0    0  501  502  0.00000000000E+00  0.00000000000E+00  0.14726897251E+04  0.14726897251E+04  0.00000000000E+00 0. -1.
         21   -1    0    0  502  503 -0.00000000000E+00 -0.00000000000E+00 -0.33475502450E+03  0.33475502450E+03  0.00000000000E+00 0.  1.
          6    1    1    2  501    0 -0.34294908152E+02 -0.20159211370E+03  0.14043464928E+04  0.14296620555E+04  0.17300000000E+03 0. -1.
         -6    1    1    2    0  503  0.34294908152E+02  0.20159211370E+03 -0.26641179214E+03  0.37778269418E+03  0.17300000000E+03 0.  1.
<mgrwt>
<rscale>  2 0.26785168E+03</rscale>
<asrwt>0</asrwt>
<pdfrwt beam="1">  1       21 0.22656765E+00 0.26785168E+03</pdfrwt>
<pdfrwt beam="2">  1       21 0.51500773E-01 0.26785168E+03</pdfrwt>
<totfact> 0.30177163E+02</totfact>
</mgrwt>
</event>
<event>
 4    2  0.3992997E+000  0.3305260E+03  0.7546771E-02  0.1070904E+00
         21   -1    0    0  501  502  0.00000000000E+00  0.00000000000E+00  0.11688091480E+04  0.11688091480E+04  0.00000000000E+00 0. -1.
         21   -1    0    0  502  503 -0.00000000000E+00 -0.00000000000E+00 -0.94255670399E+02  0.94255670399E+02  0.00000000000E+00 0. -1.
          6    1    1    2  501    0  0.71100981928E+02 -0.27251251913E+03  0.47958173654E+03  0.58244833654E+03  0.17300000000E+03 0. -1.
         -6    1    1    2    0  503 -0.71100981928E+02  0.27251251913E+03  0.59497174105E+03  0.68061648185E+03  0.17300000000E+03 0. -1.
<mgrwt>
<rscale>  2 0.33052598E+03</rscale>
<asrwt>0</asrwt>
<pdfrwt beam="1">  1       21 0.17981678E+00 0.33052598E+03</pdfrwt>
<pdfrwt beam="2">  1       21 0.14500873E-01 0.33052598E+03</pdfrwt>
<totfact> 0.69600803E+03</totfact>
</mgrwt>
</event>
<event>
 4    2  0.3992997E+000  0.2131026E+03  0.7546771E-02  0.1139132E+00
         21   -1    0    0  503  502  0.00000000000E+00  0.00000000000E+00  0.96956418965E+02  0.96956418965E+02  0.00000000000E+00 0.  1.
         21   -1    0    0  501  503 -0.00000000000E+00 -0.00000000000E+00 -0.60768747830E+03  0.60768747830E+03  0.00000000000E+00 0.  1.
          6    1    1    2  501    0  0.93573696492E+02  0.82022315559E+02 -0.42405297500E+03  0.47458784491E+03  0.17300000000E+03 0.  1.
         -6    1    1    2    0  502 -0.93573696492E+02 -0.82022315559E+02 -0.86678084338E+02  0.23005605236E+03  0.17300000000E+03 0.  1.
<mgrwt>
<rscale>  2 0.21310255E+03</rscale>
<asrwt>0</asrwt>
<pdfrwt beam="1">  1       21 0.14916372E-01 0.21310255E+03</pdfrwt>
<pdfrwt beam="2">  1       21 0.93490381E-01 0.21310255E+03</pdfrwt>
<totfact> 0.37698112E+04</totfact>
</mgrwt>
</event>
<event>
 4    2  0.3992997E+000  0.1827358E+03  0.7546771E-02  0.1165181E+00
         21   -1    0    0  501  502  0.00000000000E+00  0.00000000000E+00  0.51484154637E+03  0.51484154637E+03  0.00000000000E+00 0. -1.
         21   -1    0    0  502  503 -0.00000000000E+00 -0.00000000000E+00 -0.66178573770E+02  0.66178573770E+02  0.00000000000E+00 0. -1.
          6    1    1    2  501    0 -0.58680606798E+02  0.44670900436E+01  0.26534585051E+03  0.32218129817E+03  0.17300000000E+03 0.  1.
         -6    1    1    2    0  503  0.58680606798E+02 -0.44670900436E+01  0.18331712209E+03  0.25883882197E+03  0.17300000000E+03 0.  1.
<mgrwt>
<rscale>  2 0.18273579E+03</rscale>
<asrwt>0</asrwt>
<pdfrwt beam="1">  1       21 0.79206389E-01 0.18273579E+03</pdfrwt>
<pdfrwt beam="2">  1       21 0.10181319E-01 0.18273579E+03</pdfrwt>
<totfact> 0.11099168E+05</totfact>
</mgrwt>
</event>
<event>
 4    2  0.3992997E+000  0.2638706E+03  0.7546771E-02  0.1104840E+00
         21   -1    0    0  503  502  0.00000000000E+00  0.00000000000E+00  0.33279546986E+03  0.33279546986E+03  0.00000000000E+00 0. -1.
         21   -1    0    0  501  503 -0.00000000000E+00 -0.00000000000E+00 -0.52544420294E+03  0.52544420294E+03  0.00000000000E+00 0.  1.
          6    1    1    2  501    0 -0.15958349681E+03 -0.11929705684E+03 -0.42922330012E+03  0.50384553347E+03  0.17300000000E+03 0.  1.
         -6    1    1    2    0  502  0.15958349681E+03  0.11929705684E+03  0.23657456704E+03  0.35439413933E+03  0.17300000000E+03 0.  1.
<mgrwt>
<rscale>  2 0.26387057E+03</rscale>
<asrwt>0</asrwt>
<pdfrwt beam="1">  1       21 0.51199303E-01 0.26387057E+03</pdfrwt>
<pdfrwt beam="2">  1       21 0.80837570E-01 0.26387057E+03</pdfrwt>
<totfact> 0.46371573E+03</totfact>
</mgrwt>
</event>
<event>
 4    2  0.3992997E+000  0.2581580E+03  0.7546771E-02  0.1108255E+00
         21   -1    0    0  501  502  0.00000000000E+00  0.00000000000E+00  0.94590236179E+03  0.94590236179E+03  0.00000000000E+00 0. -1.
         21   -1    0    0  502  503 -0.00000000000E+00 -0.00000000000E+00 -0.73331713744E+02  0.73331713744E+02  0.00000000000E+00 0. -1.
          6    1    1    2  501    0 -0.16160251555E+03 -0.10296194812E+03  0.53718456298E+03  0.59599730746E+03  0.17300000000E+03 0. -1.
         -6    1    1    2    0  503  0.16160251555E+03  0.10296194812E+03  0.33538608507E+03  0.42323676808E+03  0.17300000000E+03 0. -1.
<mgrwt>
<rscale>  2 0.25815797E+03</rscale>
<asrwt>0</asrwt>
<pdfrwt beam="1">  1       21 0.14552343E+00 0.25815797E+03</pdfrwt>
<pdfrwt beam="2">  1       21 0.11281803E-01 0.25815797E+03</pdfrwt>
<totfact> 0.20393571E+04</totfact>
</mgrwt>
</event>
<event>
 4    2  0.3992997E+000  0.1737192E+03  0.7546771E-02  0.1174024E+00
         21   -1    0    0  503  502  0.00000000000E+00  0.00000000000E+00  0.42610068703E+03  0.42610068703E+03  0.00000000000E+00 0. -1.
         21   -1    0    0  501  503 -0.00000000000E+00 -0.00000000000E+00 -0.14555776914E+03  0.14555776914E+03  0.00000000000E+00 0. -1.
          6    1    1    2  501    0 -0.40534075049E+01  0.15262463243E+02 -0.64536060994E+02  0.18531938934E+03  0.17300000000E+03 0. -1.
         -6    1    1    2    0  502  0.40534075049E+01 -0.15262463243E+02  0.34507897888E+03  0.38633906684E+03  0.17300000000E+03 0. -1.
<mgrwt>
<rscale>  2 0.17371924E+03</rscale>
<asrwt>0</asrwt>
<pdfrwt beam="1">  1       21 0.65553951E-01 0.17371924E+03</pdfrwt>
<pdfrwt beam="2">  1       21 0.22393503E-01 0.17371924E+03</pdfrwt>
<totfact> 0.40331333E+04</totfact>
</mgrwt>
</event>
<event>
 4    2  0.3992997E+000  0.1735131E+03  0.7546771E-02  0.1174233E+00
         21   -1    0    0  503  502  0.00000000000E+00  0.00000000000E+00  0.13034038892E+03  0.13034038892E+03  0.00000000000E+00 0. -1.
         21   -1    0    0  501  503 -0.00000000000E+00 -0.00000000000E+00 -0.73605271458E+03  0.73605271458E+03  0.00000000000E+00 0. -1.
          6    1    1    2  501    0 -0.12522750362E+02 -0.45811379710E+01 -0.66169951275E+03  0.68407094023E+03  0.17300000000E+03 0. -1.
         -6    1    1    2    0  502  0.12522750362E+02  0.45811379710E+01  0.55987187091E+02  0.18232216327E+03  0.17300000000E+03 0. -1.
<mgrwt>
<rscale>  2 0.17351313E+03</rscale>
<asrwt>0</asrwt>
<pdfrwt beam="1">  1       21 0.20052368E-01 0.17351313E+03</pdfrwt>
<pdfrwt beam="2">  1       21 0.11323888E+00 0.17351313E+03</pdfrwt>
<totfact> 0.14167442E+04</totfact>
</mgrwt>
</event>
<event>
 4    2  0.3992997E+000  0.3802722E+03  0.7546771E-02  0.1050833E+00
         21   -1    0    0  501  502  0.00000000000E+00  0.00000000000E+00  0.39149787317E+03  0.39149787317E+03  0.00000000000E+00 0. -1.
         21   -1    0    0  502  503 -0.00000000000E+00 -0.00000000000E+00 -0.68676949214E+03  0.68676949214E+03  0.00000000000E+00 0.  1.
          6    1    1    2  501    0 -0.17358629668E+03  0.29076744882E+03  0.21888212572E+03  0.43876679074E+03  0.17300000000E+03 0. -1.
         -6    1    1    2    0  503  0.17358629668E+03 -0.29076744882E+03 -0.51415374469E+03  0.63950057457E+03  0.17300000000E+03 0.  1.
<mgrwt>
<rscale>  2 0.38027215E+03</rscale>
<asrwt>0</asrwt>
<pdfrwt beam="1">  1       21 0.60230442E-01 0.38027215E+03</pdfrwt>
<pdfrwt beam="2">  1       21 0.10565684E+00 0.38027215E+03</pdfrwt>
<totfact> 0.16350093E+03</totfact>
</mgrwt>
</event>
<event>
 4    2  0.3992997E+000  0.2026584E+03  0.7546771E-02  0.1147515E+00
         21   -1    0    0  501  502  0.00000000000E+00  0.00000000000E+00  0.15904044343E+03  0.15904044343E+03  0.00000000000E+00 0. -1.
         21   -1    0    0  502  503 -0.00000000000E+00 -0.00000000000E+00 -0.43212246466E+03  0.43212246466E+03  0.00000000000E+00 0.  1.
          6    1    1    2  501    0  0.10416798861E+03  0.17042969877E+02  0.50959734890E+02  0.20896728752E+03  0.17300000000E+03 0. -1.
         -6    1    1    2    0  503 -0.10416798861E+03 -0.17042969877E+02 -0.32404175612E+03  0.38219562057E+03  0.17300000000E+03 0.  1.
<mgrwt>
<rscale>  2 0.20265841E+03</rscale>
<asrwt>0</asrwt>
<pdfrwt beam="1">  1       21 0.24467760E-01 0.20265841E+03</pdfrwt>
<pdfrwt beam="2">  1       21 0.66480379E-01 0.20265841E+03</pdfrwt>
<totfact> 0.32568737E+04</totfact>
</mgrwt>
</event>
<event>
 4    2  0.3992997E+000  0.1744863E+03  0.7546771E-02  0.1173248E+00
         21   -1    0    0  501  502  0.00000000000E+00  0.00000000000E+00  0.50663284747E+02  0.50663284747E+02  0.00000000000E+00 0. -1.
         21   -1    0    0  502  503 -0.00000000000E+00 -0.00000000000E+00 -0.60741901843E+03  0.60741901843E+03  0.00000000000E+00 0. -1.
          6    1    1    2  501    0 -0.19616780095E+02  0.11474437343E+02 -0.31236665995E+03  0.35779660566E+03  0.17300000000E+03 0. -1.
         -6    1    1    2    0  503  0.19616780095E+02 -0.11474437343E+02 -0.24438907373E+03  0.30028569752E+03  0.17300000000E+03 0. -1.
<mgrwt>
<rscale>  2 0.17448633E+03</rscale>
<asrwt>0</asrwt>
<pdfrwt beam="1">  1       21 0.77943522E-02 0.17448633E+03</pdfrwt>
<pdfrwt beam="2">  1       21 0.93449072E-01 0.17448633E+03</pdfrwt>
<totfact> 0.12172323E+05</totfact>
</mgrwt>
</event>
<event>
 4    2  0.3992997E+000  0.2222631E+03  0.7546771E-02  0.1132207E+00
         21   -1    0    0  501  502  0.00000000000E+00  0.00000000000E+00  0.69375617077E+02  0.69375617077E+02  0.00000000000E+00 0. -1.
         21   -1    0    0  502  503 -0.00000000000E+00 -0.00000000000E+00 -0.11899909382E+04  0.11899909382E+04  0.00000000000E+00 0. -1.
          6    1    1    2  501    0  0.11359696711E+03 -0.81040863764E+02 -0.16126029079E+03  0.27460111784E+03  0.17300000000E+03 0. -1.
         -6    1    1    2    0  503 -0.11359696711E+03  0.81040863764E+02 -0.95935503032E+03  0.98476543742E+03  0.17300000000E+03 0. -1.
<mgrwt>
<rscale>  2 0.22226312E+03</rscale>
<asrwt>0</asrwt>
<pdfrwt beam="1">  1       21 0.10673172E-01 0.22226312E+03</pdfrwt>
<pdfrwt beam="2">  1       21 0.18307553E+00 0.22226312E+03</pdfrwt>
<totfact> 0.12263909E+04</totfact>
</mgrwt>
</event>
<event>
 4    2  0.3992997E+000  0.2127484E+03  0.7546771E-02  0.1139408E+00
         21   -1    0    0  503  502  0.00000000000E+00  0.00000000000E+00  0.80445398916E+03  0.80445398916E+03  0.00000000000E+00 0. -1.
         21   -1    0    0  501  503 -0.00000000000E+00 -0.00000000000E+00 -0.58023306186E+02  0.58023306186E+02  0.00000000000E+00 0. -1.
          6    1    1    2  501    0 -0.12334254874E+03  0.10930698334E+02  0.29812619931E+03  0.36625277502E+03  0.17300000000E+03 0. -1.
         -6    1    1    2    0  502  0.12334254874E+03 -0.10930698334E+02  0.44830448367E+03  0.49622452033E+03  0.17300000000E+03 0. -1.
<mgrwt>
<rscale>  2 0.21274836E+03</rscale>
<asrwt>0</asrwt>
<pdfrwt beam="1">  1       21 0.12376214E+00 0.21274836E+03</pdfrwt>
<pdfrwt beam="2">  1       21 0.89266631E-02 0.21274836E+03</pdfrwt>
<totfact> 0.47946109E+04</totfact>
</mgrwt>
</event>
<event>
 4    2  0.3992997E+000  0.1778735E+03  0.7546771E-02  0.1169877E+00
         21   -1    0    0  503  502  0.00000000000E+00  0.00000000000E+00  0.25786740615E+03  0.25786740615E+03  0.00000000000E+00 0. -1.
         21   -1    0    0  501  503 -0.00000000000E+00 -0.00000000000E+00 -0.12320153451E+03  0.12320153451E+03  0.00000000000E+00 0. -1.
          6    1    1    2  501    0  0.22058045118E+02 -0.34977376672E+02  0.79553229557E+02  0.19485299732E+03  0.17300000000E+03 0. -1.
         -6    1    1    2    0  502 -0.22058045118E+02  0.34977376672E+02  0.55112642087E+02  0.18621594333E+03  0.17300000000E+03 0. -1.
<mgrwt>
<rscale>  2 0.17787348E+03</rscale>
<asrwt>0</asrwt>
<pdfrwt beam="1">  1       21 0.39671908E-01 0.17787348E+03</pdfrwt>
<pdfrwt beam="2">  1       21 0.18954082E-01 0.17787348E+03</pdfrwt>
<totfact> 0.15698863E+05</totfact>
</mgrwt>
</event>
<event>
 4    2  0.3992997E+000  0.2389564E+03  0.7546771E-02  0.1120490E+00
         21   -1    0    0  503  502  0.00000000000E+00  0.00000000000E+00  0.60736034578E+03  0.60736034578E+03  0.00000000000E+00 0.  1.
         21   -1    0    0  501  503 -0.00000000000E+00 -0.00000000000E+00 -0.12059441019E+03  0.12059441019E+03  0.00000000000E+00 0. -1.
          6    1    1    2  501    0  0.13200995762E+03  0.98714367809E+02  0.72501642051E+02  0.24971312225E+03  0.17300000000E+03 0. -1.
         -6    1    1    2    0  502 -0.13200995762E+03 -0.98714367809E+02  0.41426429354E+03  0.47824163372E+03  0.17300000000E+03 0.  1.
<mgrwt>
<rscale>  2 0.23895639E+03</rscale>
<asrwt>0</asrwt>
<pdfrwt beam="1">  1       21 0.93440051E-01 0.23895639E+03</pdfrwt>
<pdfrwt beam="2">  1       21 0.18552987E-01 0.23895639E+03</pdfrwt>
<totfact> 0.24918697E+04</totfact>
</mgrwt>
</event>
<event>
 4    2  0.3992997E+000  0.2049035E+03  0.7546771E-02  0.1145667E+00
         21   -1    0    0  501  502  0.00000000000E+00  0.00000000000E+00  0.30451111309E+03  0.30451111309E+03  0.00000000000E+00 0.  1.
         21   -1    0    0  502  503 -0.00000000000E+00 -0.00000000000E+00 -0.16150059337E+03  0.16150059337E+03  0.00000000000E+00 0.  1.
          6    1    1    2  501    0 -0.92116216886E+02 -0.59758319016E+02  0.16061833239E+03  0.26035303494E+03  0.17300000000E+03 0.  1.
         -6    1    1    2    0  503  0.92116216886E+02  0.59758319016E+02 -0.17607812663E+02  0.20565867152E+03  0.17300000000E+03 0.  1.
<mgrwt>
<rscale>  2 0.20490352E+03</rscale>
<asrwt>0</asrwt>
<pdfrwt beam="1">  1       21 0.46847863E-01 0.20490352E+03</pdfrwt>
<pdfrwt beam="2">  1       21 0.24846245E-01 0.20490352E+03</pdfrwt>
<totfact> 0.66478818E+04</totfact>
</mgrwt>
</event>
<event>
 4    2  0.3992997E+000  0.2112993E+03  0.7546771E-02  0.1140541E+00
         21   -1    0    0  501  502  0.00000000000E+00  0.00000000000E+00  0.14654097111E+04  0.14654097111E+04  0.00000000000E+00 0.  1.
         21   -1    0    0  502  503 -0.00000000000E+00 -0.00000000000E+00 -0.69498217650E+02  0.69498217650E+02  0.00000000000E+00 0. -1.
          6    1    1    2  501    0 -0.11943041986E+03  0.21325001054E+02  0.12730893316E+04  0.12905052604E+04  0.17300000000E+03 0.  1.
         -6    1    1    2    0  503  0.11943041986E+03 -0.21325001054E+02  0.12282216184E+03  0.24440266835E+03  0.17300000000E+03 0. -1.
<mgrwt>
<rscale>  2 0.21129927E+03</rscale>
<asrwt>0</asrwt>
<pdfrwt beam="1">  1       21 0.22544762E+00 0.21129927E+03</pdfrwt>
<pdfrwt beam="2">  1       21 0.10692035E-01 0.21129927E+03</pdfrwt>
<totfact> 0.66021783E+03</totfact>
</mgrwt>
</event>
<event>
 4    2  0.3992997E+000  0.2942167E+03  0.7546771E-02  0.1088168E+00
         21   -1    0    0  503  502  0.00000000000E+00  0.00000000000E+00  0.20105494917E+03  0.20105494917E+03  0.00000000000E+00 0. -1.
         21   -1    0    0  501  503 -0.00000000000E+00 -0.00000000000E+00 -0.43218924030E+03  0.43218924030E+03  0.00000000000E+00 0.  1.
          6    1    1    2  501    0 -0.10137197686E+02  0.23776397518E+03 -0.96045741522E+02  0.30949677726E+03  0.17300000000E+03 0. -1.
         -6    1    1    2    0  502  0.10137197686E+02 -0.23776397518E+03 -0.13508854961E+03  0.32374741220E+03  0.17300000000E+03 0. -1.
<mgrwt>
<rscale>  2 0.29421671E+03</rscale>
<asrwt>0</asrwt>
<pdfrwt beam="1">  1       21 0.30931531E-01 0.29421671E+03</pdfrwt>
<pdfrwt beam="2">  1       21 0.66490652E-01 0.29421671E+03</pdfrwt>
<totfact> 0.19788620E+04</totfact>
</mgrwt>
</event>
<event>
 4    2  0.3992997E+000  0.1859386E+03  0.7546771E-02  0.1162176E+00
         21   -1    0    0  503  502  0.00000000000E+00  0.00000000000E+00  0.10465744045E+04  0.10465744045E+04  0.00000000000E+00 0. -1.
         21   -1    0    0  501  503 -0.00000000000E+00 -0.00000000000E+00 -0.49089918175E+02  0.49089918175E+02  0.00000000000E+00 0. -1.
          6    1    1    2  501    0  0.59277539950E+02  0.33620253591E+02  0.18544175647E+03  0.26260577533E+03  0.17300000000E+03 0. -1.
         -6    1    1    2    0  502 -0.59277539950E+02 -0.33620253591E+02  0.81204272981E+03  0.83305854730E+03  0.17300000000E+03 0. -1.
<mgrwt>
<rscale>  2 0.18593856E+03</rscale>
<asrwt>0</asrwt>
<pdfrwt beam="1">  1       21 0.16101143E+00 0.18593856E+03</pdfrwt>
<pdfrwt beam="2">  1       21 0.75522959E-02 0.18593856E+03</pdfrwt>
<totfact> 0.32958436E+04</totfact>
</mgrwt>
</event>
<event>
 4    2  0.3992997E+000  0.1759086E+03  0.7546771E-02  0.1171822E+00
         21   -1    0    0  503  502  0.00000000000E+00  0.00000000000E+00  0.33558772080E+03  0.33558772080E+03  0.00000000000E+00 0. -1.
         21   -1    0    0  501  503 -0.00000000000E+00 -0.00000000000E+00 -0.20399886686E+03  0.20399886686E+03  0.00000000000E+00 0. -1.
          6    1    1    2  501    0  0.22564946635E+02 -0.22487158749E+02 -0.13392511912E+03  0.22108773520E+03  0.17300000000E+03 0. -1.
         -6    1    1    2    0  502 -0.22564946635E+02  0.22487158749E+02  0.26551397306E+03  0.31849885246E+03  0.17300000000E+03 0. -1.
<mgrwt>
<rscale>  2 0.17590864E+03</rscale>
<asrwt>0</asrwt>
<pdfrwt beam="1">  1       21 0.51628880E-01 0.17590864E+03</pdfrwt>
<pdfrwt beam="2">  1       21 0.31384441E-01 0.17590864E+03</pdfrwt>
<totfact> 0.35075293E+04</totfact>
</mgrwt>
</event>
<event>
 4    2  0.3992997E+000  0.2094374E+03  0.7546771E-02  0.1142012E+00
         21   -1    0    0  501  502  0.00000000000E+00  0.00000000000E+00  0.73308740985E+03  0.73308740985E+03  0.00000000000E+00 0. -1.
         21   -1    0    0  502  503 -0.00000000000E+00 -0.00000000000E+00 -0.90217998737E+02  0.90217998737E+02  0.00000000000E+00 0. -1.
          6    1    1    2  501    0  0.11762872811E+03 -0.99241502184E+01  0.56032714950E+03  0.59818936876E+03  0.17300000000E+03 0. -1.
         -6    1    1    2    0  503 -0.11762872811E+03  0.99241502184E+01  0.82542261615E+02  0.22511603983E+03  0.17300000000E+03 0. -1.
<mgrwt>
<rscale>  2 0.20943736E+03</rscale>
<asrwt>0</asrwt>
<pdfrwt beam="1">  1       21 0.11278267E+00 0.20943736E+03</pdfrwt>
<pdfrwt beam="2">  1       21 0.13879693E-01 0.20943736E+03</pdfrwt>
<totfact> 0.27490210E+04</totfact>
</mgrwt>
</event>
<event>
 4    2  0.3992997E+000  0.1967543E+03  0.7546771E-02  0.1152507E+00
         21   -1    0    0  503  502  0.00000000000E+00  0.00000000000E+00  0.83925321829E+03  0.83925321829E+03  0.00000000000E+00 0. -1.
         21   -1    0    0  501  503 -0.00000000000E+00 -0.00000000000E+00 -0.10026569488E+03  0.10026569488E+03  0.00000000000E+00 0. -1.
          6    1    1    2  501    0 -0.60928921055E+02  0.71210416670E+02  0.24307799772E+02  0.19825016013E+03  0.17300000000E+03 0. -1.
         -6    1    1    2    0  502  0.60928921055E+02 -0.71210416670E+02  0.71467972363E+03  0.74126875304E+03  0.17300000000E+03 0. -1.
<mgrwt>
<rscale>  2 0.19675431E+03</rscale>
<asrwt>0</asrwt>
<pdfrwt beam="1">  1       21 0.12911587E+00 0.19675431E+03</pdfrwt>
<pdfrwt beam="2">  1       21 0.15425492E-01 0.19675431E+03</pdfrwt>
<totfact> 0.16348191E+04</totfact>
</mgrwt>
</event>
<event>
 4    2  0.3992997E+000  0.1928923E+03  0.7546771E-02  0.1155878E+00
         21   -1    0    0  501  502  0.00000000000E+00  0.00000000000E+00  0.32628883879E+02  0.32628883879E+02  0.00000000000E+00 0.  1.
         21   -1    0    0  502  503 -0.00000000000E+00 -0.00000000000E+00 -0.11809885393E+04  0.11809885393E+04  0.00000000000E+00 0.  1.
          6    1    1    2  501    0 -0.84082553591E+02 -0.14441304114E+02 -0.46157714813E+03  0.50026082273E+03  0.17300000000E+03 0.  1.
         -6    1    1    2    0  503  0.84082553591E+02  0.14441304114E+02 -0.68678250730E+03  0.71335660046E+03  0.17300000000E+03 0.  1.
<mgrwt>
<rscale>  2 0.19289227E+03</rscale>
<asrwt>0</asrwt>
<pdfrwt beam="1">  1       21 0.50198272E-02 0.19289227E+03</pdfrwt>
<pdfrwt beam="2">  1       21 0.18169059E+00 0.19289227E+03</pdfrwt>
<totfact> 0.47345295E+04</totfact>
</mgrwt>
</event>
<event>
 4    2  0.3992997E+000  0.3534942E+03  0.7546771E-02  0.1061190E+00
         21   -1    0    0  503  502  0.00000000000E+00  0.00000000000E+00  0.23144281369E+03  0.23144281369E+03  0.00000000000E+00 0.  1.
         21   -1    0    0  501  503 -0.00000000000E+00 -0.00000000000E+00 -0.59837917578E+03  0.59837917578E+03  0.00000000000E+00 0.  1.
          6    1    1    2  501    0 -0.13549345884E+01  0.30826501209E+03 -0.31316591141E+03  0.47226162410E+03  0.17300000000E+03 0.  1.
         -6    1    1    2    0  502  0.13549345884E+01 -0.30826501209E+03 -0.53770450675E+02  0.35756036538E+03  0.17300000000E+03 0.  1.
<mgrwt>
<rscale>  2 0.35349421E+03</rscale>
<asrwt>0</asrwt>
<pdfrwt beam="1">  1       21 0.35606587E-01 0.35349421E+03</pdfrwt>
<pdfrwt beam="2">  1       21 0.92058334E-01 0.35349421E+03</pdfrwt>
<totfact> 0.69376127E+03</totfact>
</mgrwt>
</event>
<event>
 4    2  0.3992997E+000  0.1758103E+03  0.7546771E-02  0.1171921E+00
         21   -1    0    0  503  502  0.00000000000E+00  0.00000000000E+00  0.17332630129E+02  0.17332630129E+02  0.00000000000E+00 0.  1.
         21   -1    0    0  501  503 -0.00000000000E+00 -0.00000000000E+00 -0.21116465440E+04  0.21116465440E+04  0.00000000000E+00 0.  1.
          6    1    1    2  501    0  0.20401752763E+02  0.23749063378E+02 -0.14669141680E+04  0.14774120704E+04  0.17300000000E+03 0.  1.
         -6    1    1    2    0  502 -0.20401752763E+02 -0.23749063378E+02 -0.62739974594E+03  0.65156710378E+03  0.17300000000E+03 0.  1.
<mgrwt>
<rscale>  2 0.17581027E+03</rscale>
<asrwt>0</asrwt>
<pdfrwt beam="1">  1       21 0.26665595E-02 0.17581027E+03</pdfrwt>
<pdfrwt beam="2">  1       21 0.32486857E+00 0.17581027E+03</pdfrwt>
<totfact> 0.19206705E+04</totfact>
</mgrwt>
</event>
<event>
 4    2  0.3992997E+000  0.2320143E+03  0.7546771E-02  0.1125230E+00
         21   -1    0    0  501  502  0.00000000000E+00  0.00000000000E+00  0.24182543135E+04  0.24182543135E+04  0.00000000000E+00 0.  1.
         21   -1    0    0  502  503 -0.00000000000E+00 -0.00000000000E+00 -0.27405546313E+02  0.27405546313E+02  0.00000000000E+00 0.  1.
          6    1    1    2  501    0  0.13808644212E+03 -0.69525369719E+02  0.66556904804E+03  0.70484948765E+03  0.17300000000E+03 0.  1.
         -6    1    1    2    0  503 -0.13808644212E+03  0.69525369719E+02  0.17252797191E+04  0.17408103721E+04  0.17300000000E+03 0.  1.
<mgrwt>
<rscale>  2 0.23201432E+03</rscale>
<asrwt>0</asrwt>
<pdfrwt beam="1">  1       21 0.37203896E+00 0.23201432E+03</pdfrwt>
<pdfrwt beam="2">  1       21 0.42162398E-02 0.23201432E+03</pdfrwt>
<totfact> 0.44166636E+03</totfact>
</mgrwt>
</event>
<event>
 4    2  0.3992997E+000  0.2108779E+03  0.7546771E-02  0.1140873E+00
         21   -1    0    0  503  502  0.00000000000E+00  0.00000000000E+00  0.16416699328E+02  0.16416699328E+02  0.00000000000E+00 0.  1.
         21   -1    0    0  501  503 -0.00000000000E+00 -0.00000000000E+00 -0.27426758170E+04  0.27426758170E+04  0.00000000000E+00 0. -1.
          6    1    1    2  501    0  0.99498296599E+02 -0.68121685421E+02 -0.12098002465E+04  0.12280415757E+04  0.17300000000E+03 0. -1.
         -6    1    1    2    0  502 -0.99498296599E+02  0.68121685421E+02 -0.15164588712E+04  0.15310509407E+04  0.17300000000E+03 0.  1.
<mgrwt>
<rscale>  2 0.21087787E+03</rscale>
<asrwt>0</asrwt>
<pdfrwt beam="1">  1       21 0.25256457E-02 0.21087787E+03</pdfrwt>
<pdfrwt beam="2">  1       21 0.42195018E+00 0.21087787E+03</pdfrwt>
<totfact> 0.51970087E+03</totfact>
</mgrwt>
</event>
<event>
 4    2  0.3992997E+000  0.1820002E+03  0.7546771E-02  0.1165881E+00
         21   -1    0    0  501  502  0.00000000000E+00  0.00000000000E+00  0.86774947669E+03  0.86774947669E+03  0.00000000000E+00 0. -1.
         21   -1    0    0  502  503 -0.00000000000E+00 -0.00000000000E+00 -0.47271509533E+02  0.47271509533E+02  0.00000000000E+00 0. -1.
          6    1    1    2  501    0  0.55744589412E+02  0.93603869533E+01  0.61096371296E+03  0.63749567421E+03  0.17300000000E+03 0. -1.
         -6    1    1    2    0  503 -0.55744589412E+02 -0.93603869533E+01  0.20951425420E+03  0.27752531201E+03  0.17300000000E+03 0. -1.
<mgrwt>
<rscale>  2 0.18200021E+03</rscale>
<asrwt>0</asrwt>
<pdfrwt beam="1">  1       21 0.13349991E+00 0.18200021E+03</pdfrwt>
<pdfrwt beam="2">  1       21 0.72725406E-02 0.18200021E+03</pdfrwt>
<totfact> 0.57543749E+04</totfact>
</mgrwt>
</event>
<event>
 4    2  0.3992997E+000  0.1755599E+03  0.7546771E-02  0.1172171E+00
         21   -1    0    0  501  502  0.00000000000E+00  0.00000000000E+00  0.48242105311E+03  0.48242105311E+03  0.00000000000E+00 0.  1.
         21   -1    0    0  502  503 -0.00000000000E+00 -0.00000000000E+00 -0.82857685847E+02  0.82857685847E+02  0.00000000000E+00 0.  1.
          6    1    1    2  501    0  0.17843473846E+02  0.23955690672E+02  0.64547010014E+02  0.18704967569E+03  0.17300000000E+03 0. -1.
         -6    1    1    2    0  503 -0.17843473846E+02 -0.23955690672E+02  0.33501635725E+03  0.37822906326E+03  0.17300000000E+03 0. -1.
<mgrwt>
<rscale>  2 0.17555986E+03</rscale>
<asrwt>0</asrwt>
<pdfrwt beam="1">  1       21 0.74218622E-01 0.17555986E+03</pdfrwt>
<pdfrwt beam="2">  1       21 0.12747337E-01 0.17555986E+03</pdfrwt>
<totfact> 0.86307242E+04</totfact>
</mgrwt>
</event>
<event>
 4    2  0.3992997E+000  0.2914433E+03  0.7546771E-02  0.1089598E+00
         21   -1    0    0  501  502  0.00000000000E+00  0.00000000000E+00  0.23397704078E+03  0.23397704078E+03  0.00000000000E+00 0.  1.
         21   -1    0    0  502  503 -0.00000000000E+00 -0.00000000000E+00 -0.44449489310E+03  0.44449489310E+03  0.00000000000E+00 0. -1.
          6    1    1    2  501    0 -0.19022982546E+03 -0.13719615785E+03 -0.25049382420E+03  0.38429978947E+03  0.17300000000E+03 0.  1.
         -6    1    1    2    0  503  0.19022982546E+03  0.13719615785E+03  0.39975971878E+02  0.29417214442E+03  0.17300000000E+03 0. -1.
<mgrwt>
<rscale>  2 0.29144326E+03</rscale>
<asrwt>0</asrwt>
<pdfrwt beam="1">  1       21 0.35996468E-01 0.29144326E+03</pdfrwt>
<pdfrwt beam="2">  1       21 0.68383829E-01 0.29144326E+03</pdfrwt>
<totfact> 0.13761270E+04</totfact>
</mgrwt>
</event>
<event>
 4    2  0.3992997E+000  0.2457438E+03  0.7546771E-02  0.1116025E+00
         21   -1    0    0  501  502  0.00000000000E+00  0.00000000000E+00  0.76273235553E+02  0.76273235553E+02  0.00000000000E+00 0. -1.
         21   -1    0    0  502  503 -0.00000000000E+00 -0.00000000000E+00 -0.14522053470E+04  0.14522053470E+04  0.00000000000E+00 0.  1.
          6    1    1    2  501    0 -0.12537065876E+03 -0.12142162239E+03 -0.12033538783E+04  0.12281899564E+04  0.17300000000E+03 0.  1.
         -6    1    1    2    0  503  0.12537065876E+03  0.12142162239E+03 -0.17257823311E+03  0.30028862617E+03  0.17300000000E+03 0. -1.
<mgrwt>
<rscale>  2 0.24574379E+03</rscale>
<asrwt>0</asrwt>
<pdfrwt beam="1">  1       21 0.11734344E-01 0.24574379E+03</pdfrwt>
<pdfrwt beam="2">  1       21 0.22341620E+00 0.24574379E+03</pdfrwt>
<totfact> 0.55922393E+03</totfact>
</mgrwt>
</event>
<event>
 4    2  0.3992997E+000  0.1847224E+03  0.7546771E-02  0.1163309E+00
         21   -1    0    0  503  502  0.00000000000E+00  0.00000000000E+00  0.19042784017E+03  0.19042784017E+03  0.00000000000E+00 0.  1.
         21   -1    0    0  501  503 -0.00000000000E+00 -0.00000000000E+00 -0.45155833787E+03  0.45155833787E+03  0.00000000000E+00 0.  1.
          6    1    1    2  501    0  0.80900007174E+01 -0.64248799682E+02 -0.37986323426E+03  0.42239606191E+03  0.17300000000E+03 0.  1.
         -6    1    1    2    0  502 -0.80900007174E+01  0.64248799682E+02  0.11873273656E+03  0.21959011613E+03  0.17300000000E+03 0.  1.
<mgrwt>
<rscale>  2 0.18472238E+03</rscale>
<asrwt>0</asrwt>
<pdfrwt beam="1">  1       21 0.29296591E-01 0.18472238E+03</pdfrwt>
<pdfrwt beam="2">  1       21 0.69470512E-01 0.18472238E+03</pdfrwt>
<totfact> 0.21125488E+04</totfact>
</mgrwt>
</event>
<event>
 4    2  0.3992997E+000  0.1881942E+03  0.7546771E-02  0.1160100E+00
         21   -1    0    0  501  502  0.00000000000E+00  0.00000000000E+00  0.12383844805E+04  0.12383844805E+04  0.00000000000E+00 0. -1.
         21   -1    0    0  502  503 -0.00000000000E+00 -0.00000000000E+00 -0.38497012668E+02  0.38497012668E+02  0.00000000000E+00 0. -1.
          6    1    1    2  501    0  0.84462734310E+01  0.73598308686E+02  0.27622163036E+03  0.33423859689E+03  0.17300000000E+03 0. -1.
         -6    1    1    2    0  503 -0.84462734310E+01 -0.73598308686E+02  0.92366583743E+03  0.94264289623E+03  0.17300000000E+03 0. -1.
<mgrwt>
<rscale>  2 0.18819418E+03</rscale>
<asrwt>0</asrwt>
<pdfrwt beam="1">  1       21 0.19052066E+00 0.18819418E+03</pdfrwt>
<pdfrwt beam="2">  1       21 0.59226183E-02 0.18819418E+03</pdfrwt>
<totfact> 0.31293353E+04</totfact>
</mgrwt>
</event>
<event>
 4    2  0.3992997E+000  0.1774791E+03  0.7546771E-02  0.1170265E+00
         21   -1    0    0  503  502  0.00000000000E+00  0.00000000000E+00  0.90400218700E+03  0.90400218700E+03  0.00000000000E+00 0. -1.
         21   -1    0    0  501  503 -0.00000000000E+00 -0.00000000000E+00 -0.35192693116E+02  0.35192693116E+02  0.00000000000E+00 0. -1.
          6    1    1    2  501    0  0.98107054661E+01  0.38387156154E+02  0.38764431538E+03  0.42634134088E+03  0.17300000000E+03 0. -1.
         -6    1    1    2    0  502 -0.98107054661E+01 -0.38387156154E+02  0.48116517850E+03  0.51285353923E+03  0.17300000000E+03 0. -1.
<mgrwt>
<rscale>  2 0.17747908E+03</rscale>
<asrwt>0</asrwt>
<pdfrwt beam="1">  1       21 0.13907724E+00 0.17747908E+03</pdfrwt>
<pdfrwt beam="2">  1       21 0.54142612E-02 0.17747908E+03</pdfrwt>
<totfact> 0.86151474E+04</totfact>
</mgrwt>
</event>
<event>
 4    2  0.3992997E+000  0.2295256E+03  0.7546771E-02  0.1126974E+00
         21   -1    0    0  503  502  0.00000000000E+00  0.00000000000E+00  0.12224050010E+04  0.12224050010E+04  0.00000000000E+00 0. -1.
         21   -1    0    0  501  503 -0.00000000000E+00 -0.00000000000E+00 -0.43547179883E+02  0.43547179883E+02  0.00000000000E+00 0. -1.
          6    1    1    2  501    0 -0.10024154574E+03  0.11271477297E+03  0.52507119165E+03  0.57304602244E+03  0.17300000000E+03 0. -1.
         -6    1    1    2    0  502  0.10024154574E+03 -0.11271477297E+03  0.65378662952E+03  0.69290615849E+03  0.17300000000E+03 0. -1.
<mgrwt>
<rscale>  2 0.22952557E+03</rscale>
<asrwt>0</asrwt>
<pdfrwt beam="1">  1       21 0.18806228E+00 0.22952557E+03</pdfrwt>
<pdfrwt beam="2">  1       21 0.66995671E-02 0.22952557E+03</pdfrwt>
<totfact> 0.25566623E+04</totfact>
</mgrwt>
</event>
<event>
 4    2  0.3992997E+000  0.1934568E+03  0.7546771E-02  0.1155380E+00
         21   -1    0    0  501  502  0.00000000000E+00  0.00000000000E+00  0.14455500912E+03  0.14455500912E+03  0.00000000000E+00 0. -1.
         21   -1    0    0  502  503 -0.00000000000E+00 -0.00000000000E+00 -0.28807387191E+03  0.28807387191E+03  0.00000000000E+00 0. -1.
          6    1    1    2  501    0 -0.65372365441E+00 -0.86580028532E+02 -0.29229887564E+01  0.19347886851E+03  0.17300000000E+03 0. -1.
         -6    1    1    2    0  503  0.65372365441E+00  0.86580028532E+02 -0.14059587404E+03  0.23915001253E+03  0.17300000000E+03 0. -1.
<mgrwt>
<rscale>  2 0.19345679E+03</rscale>
<asrwt>0</asrwt>
<pdfrwt beam="1">  1       21 0.22239232E-01 0.19345679E+03</pdfrwt>
<pdfrwt beam="2">  1       21 0.44319057E-01 0.19345679E+03</pdfrwt>
<totfact> 0.92447928E+04</totfact>
</mgrwt>
</event>
<event>
 4    2  0.3992997E+000  0.1997094E+03  0.7546771E-02  0.1149984E+00
         21   -1    0    0  501  502  0.00000000000E+00  0.00000000000E+00  0.15072923019E+04  0.15072923019E+04  0.00000000000E+00 0.  1.
         21   -1    0    0  502  503 -0.00000000000E+00 -0.00000000000E+00 -0.26496818565E+02  0.26496818565E+02  0.00000000000E+00 0.  1.
          6    1    1    2  501    0 -0.44190131851E+02 -0.89454410628E+02  0.76875092464E+03  0.79426811813E+03  0.17300000000E+03 0.  1.
         -6    1    1    2    0  503  0.44190131851E+02  0.89454410628E+02  0.71204455867E+03  0.73952100232E+03  0.17300000000E+03 0.  1.
<mgrwt>
<rscale>  2 0.19970944E+03</rscale>
<asrwt>0</asrwt>
<pdfrwt beam="1">  1       21 0.23189106E+00 0.19970944E+03</pdfrwt>
<pdfrwt beam="2">  1       21 0.40764348E-02 0.19970944E+03</pdfrwt>
<totfact> 0.32162343E+04</totfact>
</mgrwt>
</event>
<event>
 4    2  0.3992997E+000  0.1737118E+03  0.7546771E-02  0.1174031E+00
         21   -1    0    0  503  502  0.00000000000E+00  0.00000000000E+00  0.23117812466E+02  0.23117812466E+02  0.00000000000E+00 0.  1.
         21   -1    0    0  501  503 -0.00000000000E+00 -0.00000000000E+00 -0.15524007129E+04  0.15524007129E+04  0.00000000000E+00 0.  1.
          6    1    1    2  501    0 -0.14503557391E+02 -0.60348156102E+01 -0.10789275114E+04  0.10928221937E+04  0.17300000000E+03 0.  1.
         -6    1    1    2    0  502  0.14503557391E+02  0.60348156102E+01 -0.45035538903E+03  0.48269633167E+03  0.17300000000E+03 0.  1.
<mgrwt>
<rscale>  2 0.17371175E+03</rscale>
<asrwt>0</asrwt>
<pdfrwt beam="1">  1       21 0.35565857E-02 0.17371175E+03</pdfrwt>
<pdfrwt beam="2">  1       21 0.23883094E+00 0.17371175E+03</pdfrwt>
<totfact> 0.37485177E+04</totfact>
</mgrwt>
</event>
<event>
 4    2  0.3992997E+000  0.1781469E+03  0.7546771E-02  0.1169609E+00
         21   -1    0    0  503  502  0.00000000000E+00  0.00000000000E+00  0.54497055405E+02  0.54497055405E+02  0.00000000000E+00 0. -1.
         21   -1    0    0  501  503 -0.00000000000E+00 -0.00000000000E+00 -0.72086921759E+03  0.72086921759E+03  0.00000000000E+00 0.  1.
          6    1    1    2  501    0 -0.34464399105E+02 -0.24890068716E+02 -0.50312980088E+03  0.53373767607E+03  0.17300000000E+03 0.  1.
         -6    1    1    2    0  502  0.34464399105E+02  0.24890068716E+02 -0.16324236130E+03  0.24162859692E+03  0.17300000000E+03 0. -1.
<mgrwt>
<rscale>  2 0.17814688E+03</rscale>
<asrwt>0</asrwt>
<pdfrwt beam="1">  1       21 0.83841626E-02 0.17814688E+03</pdfrwt>
<pdfrwt beam="2">  1       21 0.11090295E+00 0.17814688E+03</pdfrwt>
<totfact> 0.71286090E+04</totfact>
</mgrwt>
</event>
<event>
 4    2  0.3992997E+000  0.2982338E+03  0.7546771E-02  0.1086127E+00
         21   -1    0    0  501  502  0.00000000000E+00  0.00000000000E+00  0.63108125824E+03  0.63108125824E+03  0.00000000000E+00 0.  1.
         21   -1    0    0  502  503 -0.00000000000E+00 -0.00000000000E+00 -0.14874860885E+03  0.14874860885E+03  0.00000000000E+00 0.  1.
          6    1    1    2  501    0 -0.44164980527E+02 -0.23888044824E+03  0.15181887301E+03  0.33465263223E+03  0.17300000000E+03 0.  1.
         -6    1    1    2    0  503  0.44164980527E+02  0.23888044824E+03  0.33051377637E+03  0.44517723485E+03  0.17300000000E+03 0.  1.
<mgrwt>
<rscale>  2 0.29823382E+03</rscale>
<asrwt>0</asrwt>
<pdfrwt beam="1">  1       21 0.97089423E-01 0.29823382E+03</pdfrwt>
<pdfrwt beam="2">  1       21 0.22884402E-01 0.29823382E+03</pdfrwt>
<totfact> 0.14901647E+04</totfact>
</mgrwt>
</event>
<event>
 4    2  0.3992997E+000  0.2333522E+03  0.7546771E-02  0.1124302E+00
         21   -1    0    0  503  502  0.00000000000E+00  0.00000000000E+00  0.90787892106E+02  0.90787892106E+02  0.00000000000E+00 0.  1.
         21   -1    0    0  501  503 -0.00000000000E+00 -0.00000000000E+00 -0.12207844337E+04  0.12207844337E+04  0.00000000000E+00 0. -1.
          6    1    1    2  501    0  0.15146606914E+03 -0.39778095779E+02 -0.10327206632E+04  0.10587564570E+04  0.17300000000E+03 0. -1.
         -6    1    1    2    0  502 -0.15146606914E+03  0.39778095779E+02 -0.97275878372E+02  0.25281586880E+03  0.17300000000E+03 0.  1.
<mgrwt>
<rscale>  2 0.23335224E+03</rscale>
<asrwt>0</asrwt>
<pdfrwt beam="1">  1       21 0.13967370E-01 0.23335224E+03</pdfrwt>
<pdfrwt beam="2">  1       21 0.18781296E+00 0.23335224E+03</pdfrwt>
<totfact> 0.69675272E+03</totfact>
</mgrwt>
</event>
<event>
 4    2  0.3992997E+000  0.2036677E+03  0.7546771E-02  0.1146681E+00
         21   -1    0    0  501  502  0.00000000000E+00  0.00000000000E+00  0.55381411137E+03  0.55381411137E+03  0.00000000000E+00 0. -1.
         21   -1    0    0  502  503 -0.00000000000E+00 -0.00000000000E+00 -0.82134507948E+02  0.82134507948E+02  0.00000000000E+00 0. -1.
          6    1    1    2  501    0  0.23590809074E+02 -0.10485715978E+03  0.33021123904E+03  0.38796908720E+03  0.17300000000E+03 0.  1.
         -6    1    1    2    0  503 -0.23590809074E+02  0.10485715978E+03  0.14146836438E+03  0.24797953212E+03  0.17300000000E+03 0.  1.
<mgrwt>
<rscale>  2 0.20366774E+03</rscale>
<asrwt>0</asrwt>
<pdfrwt beam="1">  1       21 0.85202169E-01 0.20366774E+03</pdfrwt>
<pdfrwt beam="2">  1       21 0.12636078E-01 0.20366774E+03</pdfrwt>
<totfact> 0.63418616E+04</totfact>
</mgrwt>
</event>
<event>
 4    2  0.3992997E+000  0.2235448E+03  0.7546771E-02  0.1131268E+00
         21   -1    0    0  503  502  0.00000000000E+00  0.00000000000E+00  0.11341380230E+04  0.11341380230E+04  0.00000000000E+00 0.  1.
         21   -1    0    0  501  503 -0.00000000000E+00 -0.00000000000E+00 -0.15441578574E+03  0.15441578574E+03  0.00000000000E+00 0. -1.
          6    1    1    2  501    0 -0.13088998894E+03  0.53954532201E+02 -0.54792661911E+02  0.23016193549E+03  0.17300000000E+03 0. -1.
         -6    1    1    2    0  502  0.13088998894E+03 -0.53954532201E+02  0.10345148991E+04  0.10583918732E+04  0.17300000000E+03 0.  1.
<mgrwt>
<rscale>  2 0.22354481E+03</rscale>
<asrwt>0</asrwt>
<pdfrwt beam="1">  1       21 0.17448277E+00 0.22354481E+03</pdfrwt>
<pdfrwt beam="2">  1       21 0.23756275E-01 0.22354481E+03</pdfrwt>
<totfact> 0.32246070E+03</totfact>
</mgrwt>
</event>
<event>
 4    2  0.3992997E+000  0.2376301E+03  0.7546771E-02  0.1121382E+00
         21   -1    0    0  503  502  0.00000000000E+00  0.00000000000E+00  0.60983951323E+03  0.60983951323E+03  0.00000000000E+00 0.  1.
         21   -1    0    0  501  503 -0.00000000000E+00 -0.00000000000E+00 -0.34419734779E+03  0.34419734779E+03  0.00000000000E+00 0. -1.
          6    1    1    2  501    0 -0.14591933359E+03 -0.72433343904E+02 -0.27501797310E+03  0.36345966317E+03  0.17300000000E+03 0. -1.
         -6    1    1    2    0  502  0.14591933359E+03  0.72433343904E+02  0.54066013854E+03  0.59057719785E+03  0.17300000000E+03 0.  1.
<mgrwt>
<rscale>  2 0.23763005E+03</rscale>
<asrwt>0</asrwt>
<pdfrwt beam="1">  1       21 0.93821463E-01 0.23763005E+03</pdfrwt>
<pdfrwt beam="2">  1       21 0.52953438E-01 0.23763005E+03</pdfrwt>
<totfact> 0.31108177E+03</totfact>
</mgrwt>
</event>
<event>
 4    2  0.3992997E+000  0.1892634E+03  0.7546771E-02  0.1159127E+00
         21   -1    0    0  503  502  0.00000000000E+00  0.00000000000E+00  0.37462576916E+03  0.37462576916E+03  0.00000000000E+00 0.  1.
         21   -1    0    0  501  503 -0.00000000000E+00 -0.00000000000E+00 -0.17739149590E+03  0.17739149590E+03  0.00000000000E+00 0.  1.
          6    1    1    2  501    0 -0.72253780989E+02 -0.25904445151E+02 -0.88780798526E+02  0.20905185800E+03  0.17300000000E+03 0.  1.
         -6    1    1    2    0  502  0.72253780989E+02  0.25904445151E+02  0.28601507179E+03  0.34296540705E+03  0.17300000000E+03 0.  1.
<mgrwt>
<rscale>  2 0.18926344E+03</rscale>
<asrwt>0</asrwt>
<pdfrwt beam="1">  1       21 0.57634734E-01 0.18926344E+03</pdfrwt>
<pdfrwt beam="2">  1       21 0.27290999E-01 0.18926344E+03</pdfrwt>
<totfact> 0.36218351E+04</totfact>
</mgrwt>
</event>
<event>
 4    2  0.3992997E+000  0.1814768E+03  0.7546771E-02  0.1166381E+00
         21   -1    0    0  501  502  0.00000000000E+00  0.00000000000E+00  0.30194036803E+03  0.30194036803E+03  0.00000000000E+00 0. -1.
         21   -1    0    0  502  503 -0.00000000000E+00 -0.00000000000E+00 -0.11677867542E+03  0.11677867542E+03  0.00000000000E+00 0. -1.
          6    1    1    2  501    0 -0.39988289390E+02 -0.37493599950E+02  0.14635691966E+03  0.23313983199E+03  0.17300000000E+03 0. -1.
         -6    1    1    2    0  503  0.39988289390E+02  0.37493599950E+02  0.38804772943E+02  0.18557921147E+03  0.17300000000E+03 0. -1.
<mgrwt>
<rscale>  2 0.18147681E+03</rscale>
<asrwt>0</asrwt>
<pdfrwt beam="1">  1       21 0.46452364E-01 0.18147681E+03</pdfrwt>
<pdfrwt beam="2">  1       21 0.17965950E-01 0.18147681E+03</pdfrwt>
<totfact> 0.12554383E+05</totfact>
</mgrwt>
</event>
<event>
 4    2  0.3992997E+000  0.2537667E+03  0.7546771E-02  0.1110947E+00
         21   -1    0    0  503  502  0.00000000000E+00  0.00000000000E+00  0.96582268332E+03  0.96582268332E+03  0.00000000000E+00 0. -1.
         21   -1    0    0  501  503 -0.00000000000E+00 -0.00000000000E+00 -0.43672007013E+03  0.43672007013E+03  0.00000000000E+00 0.  1.
          6    1    1    2  501    0 -0.15808948053E+03  0.97346135242E+02 -0.38097068579E+03  0.45775126142E+03  0.17300000000E+03 0.  1.
         -6    1    1    2    0  502  0.15808948053E+03 -0.97346135242E+02  0.91007329898E+03  0.94479149203E+03  0.17300000000E+03 0. -1.
<mgrwt>
<rscale>  2 0.25376673E+03</rscale>
<asrwt>0</asrwt>
<pdfrwt beam="1">  1       21 0.14858811E+00 0.25376673E+03</pdfrwt>
<pdfrwt beam="2">  1       21 0.67187703E-01 0.25376673E+03</pdfrwt>
<totfact> 0.58502034E+02</totfact>
</mgrwt>
</event>
<event>
 4    2  0.3992997E+000  0.1837258E+03  0.7546771E-02  0.1164245E+00
         21   -1    0    0  501  502  0.00000000000E+00  0.00000000000E+00  0.74180062105E+02  0.74180062105E+02  0.00000000000E+00 0.  1.
         21   -1    0    0  502  503 -0.00000000000E+00 -0.00000000000E+00 -0.46698325353E+03  0.46698325353E+03  0.00000000000E+00 0.  1.
          6    1    1    2  501    0 -0.57366212762E+02  0.23136625087E+02 -0.15313648147E+03  0.23917769073E+03  0.17300000000E+03 0.  1.
         -6    1    1    2    0  503  0.57366212762E+02 -0.23136625087E+02 -0.23966670995E+03  0.30198562490E+03  0.17300000000E+03 0.  1.
<mgrwt>
<rscale>  2 0.18372584E+03</rscale>
<asrwt>0</asrwt>
<pdfrwt beam="1">  1       21 0.11412317E-01 0.18372584E+03</pdfrwt>
<pdfrwt beam="2">  1       21 0.71843578E-01 0.18372584E+03</pdfrwt>
<totfact> 0.11266665E+05</totfact>
</mgrwt>
</event>
<event>
 4    2  0.3992997E+000  0.1980436E+03  0.7546771E-02  0.1151400E+00
         21   -1    0    0  501  502  0.00000000000E+00  0.00000000000E+00  0.43839995752E+03  0.43839995752E+03  0.00000000000E+00 0. -1.
         21   -1    0    0  502  503 -0.00000000000E+00 -0.00000000000E+00 -0.10627279065E+03  0.10627279065E+03  0.00000000000E+00 0. -1.
          6    1    1    2  501    0  0.21140764300E+02  0.94049679470E+02  0.27437024545E+03  0.33837893804E+03  0.17300000000E+03 0. -1.
         -6    1    1    2    0  503 -0.21140764300E+02 -0.94049679470E+02  0.57756921422E+02  0.20629381012E+03  0.17300000000E+03 0. -1.
<mgrwt>
<rscale>  2 0.19804362E+03</rscale>
<asrwt>0</asrwt>
<pdfrwt beam="1">  1       21 0.67446146E-01 0.19804362E+03</pdfrwt>
<pdfrwt beam="2">  1       21 0.16349660E-01 0.19804362E+03</pdfrwt>
<totfact> 0.67217727E+04</totfact>
</mgrwt>
</event>
<event>
 4    2  0.3992997E+000  0.1945884E+03  0.7546771E-02  0.1154387E+00
         21   -1    0    0  503  502  0.00000000000E+00  0.00000000000E+00  0.31733583630E+02  0.31733583630E+02  0.00000000000E+00 0.  1.
         21   -1    0    0  501  503 -0.00000000000E+00 -0.00000000000E+00 -0.13376262138E+04  0.13376262138E+04  0.00000000000E+00 0.  1.
          6    1    1    2  501    0  0.75134229098E+02 -0.47858909150E+02 -0.87792311196E+03  0.89922945797E+03  0.17300000000E+03 0.  1.
         -6    1    1    2    0  502 -0.75134229098E+02  0.47858909150E+02 -0.42796951824E+03  0.47013033949E+03  0.17300000000E+03 0.  1.
<mgrwt>
<rscale>  2 0.19458835E+03</rscale>
<asrwt>0</asrwt>
<pdfrwt beam="1">  1       21 0.48820904E-02 0.19458835E+03</pdfrwt>
<pdfrwt beam="2">  1       21 0.20578862E+00 0.19458835E+03</pdfrwt>
<totfact> 0.34498973E+04</totfact>
</mgrwt>
</event>
<event>
 4    2  0.3992997E+000  0.1964910E+03  0.7546771E-02  0.1152734E+00
         21   -1    0    0  503  502  0.00000000000E+00  0.00000000000E+00  0.94724135878E+02  0.94724135878E+02  0.00000000000E+00 0.  1.
         21   -1    0    0  501  503 -0.00000000000E+00 -0.00000000000E+00 -0.41046205849E+03  0.41046205849E+03  0.00000000000E+00 0.  1.
          6    1    1    2  501    0 -0.35722587146E+02  0.86044246230E+02 -0.13674390940E+03  0.23939008396E+03  0.17300000000E+03 0.  1.
         -6    1    1    2    0  502  0.35722587146E+02 -0.86044246230E+02 -0.17899401322E+03  0.26579611041E+03  0.17300000000E+03 0.  1.
<mgrwt>
<rscale>  2 0.19649101E+03</rscale>
<asrwt>0</asrwt>
<pdfrwt beam="1">  1       21 0.14572944E-01 0.19649101E+03</pdfrwt>
<pdfrwt beam="2">  1       21 0.63148009E-01 0.19649101E+03</pdfrwt>
<totfact> 0.95795441E+04</totfact>
</mgrwt>
</event>
<event>
 4    2  0.3992997E+000  0.1900573E+03  0.7546771E-02  0.1158410E+00
         21   -1    0    0  501  502  0.00000000000E+00  0.00000000000E+00  0.44025978408E+02  0.44025978408E+02  0.00000000000E+00 0.  1.
         21   -1    0    0  502  503 -0.00000000000E+00 -0.00000000000E+00 -0.12551101549E+04  0.12551101549E+04  0.00000000000E+00 0.  1.
          6    1    1    2  501    0 -0.15220418335E+02  0.77208271184E+02 -0.22328889516E+03  0.29322296802E+03  0.17300000000E+03 0.  1.
         -6    1    1    2    0  503  0.15220418335E+02 -0.77208271184E+02 -0.98779528134E+03  0.10059131653E+04  0.17300000000E+03 0.  1.
<mgrwt>
<rscale>  2 0.19005730E+03</rscale>
<asrwt>0</asrwt>
<pdfrwt beam="1">  1       21 0.67732266E-02 0.19005730E+03</pdfrwt>
<pdfrwt beam="2">  1       21 0.19309389E+00 0.19005730E+03</pdfrwt>
<totfact> 0.23876729E+04</totfact>
</mgrwt>
</event>
<event>
 4    2  0.3992997E+000  0.2251496E+03  0.7546771E-02  0.1130101E+00
         21   -1    0    0  503  502  0.00000000000E+00  0.00000000000E+00  0.14181620372E+03  0.14181620372E+03  0.00000000000E+00 0.  1.
         21   -1    0    0  501  503 -0.00000000000E+00 -0.00000000000E+00 -0.35817582127E+03  0.35817582127E+03  0.00000000000E+00 0.  1.
          6    1    1    2  501    0  0.11336148234E+02 -0.14364837562E+03 -0.96934855499E+02  0.24513002730E+03  0.17300000000E+03 0.  1.
         -6    1    1    2    0  502 -0.11336148234E+02  0.14364837562E+03 -0.11942476205E+03  0.25486199769E+03  0.17300000000E+03 0.  1.
<mgrwt>
<rscale>  2 0.22514965E+03</rscale>
<asrwt>0</asrwt>
<pdfrwt beam="1">  1       21 0.21817877E-01 0.22514965E+03</pdfrwt>
<pdfrwt beam="2">  1       21 0.55103973E-01 0.22514965E+03</pdfrwt>
<totfact> 0.60032763E+04</totfact>
</mgrwt>
</event>
<event>
 4    2  0.3992997E+000  0.2273372E+03  0.7546771E-02  0.1128528E+00
         21   -1    0    0  501  502  0.00000000000E+00  0.00000000000E+00  0.37153954730E+03  0.37153954730E+03  0.00000000000E+00 0.  1.
         21   -1    0    0  502  503 -0.00000000000E+00 -0.00000000000E+00 -0.16470214456E+03  0.16470214456E+03  0.00000000000E+00 0.  1.
          6    1    1    2  501    0  0.11010896185E+03 -0.98128618221E+02  0.20912356475E+03  0.30889298232E+03  0.17300000000E+03 0.  1.
         -6    1    1    2    0  503 -0.11010896185E+03  0.98128618221E+02 -0.22861620115E+01  0.22734870954E+03  0.17300000000E+03 0.  1.
<mgrwt>
<rscale>  2 0.22733721E+03</rscale>
<asrwt>0</asrwt>
<pdfrwt beam="1">  1       21 0.57159930E-01 0.22733721E+03</pdfrwt>
<pdfrwt beam="2">  1       21 0.25338791E-01 0.22733721E+03</pdfrwt>
<totfact> 0.41717528E+04</totfact>
</mgrwt>
</event>
<event>
 4    2  0.3992997E+000  0.1827338E+03  0.7546771E-02  0.1165183E+00
         21   -1    0    0  501  502  0.00000000000E+00  0.00000000000E+00  0.70061908446E+02  0.70061908446E+02  0.00000000000E+00 0. -1.
         21   -1    0    0  502  503 -0.00000000000E+00 -0.00000000000E+00 -0.74630933744E+03  0.74630933744E+03  0.00000000000E+00 0. -1.
          6    1    1    2  501    0 -0.57997559453E+02 -0.99464423786E+01 -0.92740634401E+02  0.20492065266E+03  0.17300000000E+03 0. -1.
         -6    1    1    2    0  503  0.57997559453E+02  0.99464423786E+01 -0.58350679459E+03  0.61145059322E+03  0.17300000000E+03 0. -1.
<mgrwt>
<rscale>  2 0.18273382E+03</rscale>
<asrwt>0</asrwt>
<pdfrwt beam="1">  1       21 0.10778756E-01 0.18273382E+03</pdfrwt>
<pdfrwt beam="2">  1       21 0.11481682E+00 0.18273382E+03</pdfrwt>
<totfact> 0.42039635E+04</totfact>
</mgrwt>
</event>
<event>
 4    2  0.3992997E+000  0.2195147E+03  0.7546771E-02  0.1134245E+00
         21   -1    0    0  501  502  0.00000000000E+00  0.00000000000E+00  0.72597837152E+03  0.72597837152E+03  0.00000000000E+00 0.  1.
         21   -1    0    0  502  503 -0.00000000000E+00 -0.00000000000E+00 -0.66459864359E+02  0.66459864359E+02  0.00000000000E+00 0.  1.
          6    1    1    2  501    0  0.63004288613E+02  0.11953308846E+03  0.34393097400E+03  0.40801374303E+03  0.17300000000E+03 0.  1.
         -6    1    1    2    0  503 -0.63004288613E+02 -0.11953308846E+03  0.31558753316E+03  0.38442449286E+03  0.17300000000E+03 0.  1.
<mgrwt>
<rscale>  2 0.21951469E+03</rscale>
<asrwt>0</asrwt>
<pdfrwt beam="1">  1       21 0.11168897E+00 0.21951469E+03</pdfrwt>
<pdfrwt beam="2">  1       21 0.10224595E-01 0.21951469E+03</pdfrwt>
<totfact> 0.48436955E+04</totfact>
</mgrwt>
</event>
<event>
 4    2  0.3992997E+000  0.1964747E+03  0.7546771E-02  0.1152748E+00
         21   -1    0    0  503  502  0.00000000000E+00  0.00000000000E+00  0.22644605625E+03  0.22644605625E+03  0.00000000000E+00 0.  1.
         21   -1    0    0  501  503 -0.00000000000E+00 -0.00000000000E+00 -0.53396745842E+03  0.53396745842E+03  0.00000000000E+00 0.  1.
          6    1    1    2  501    0 -0.41911890845E+01  0.93036219729E+02 -0.46745960873E+03  0.50707079391E+03  0.17300000000E+03 0.  1.
         -6    1    1    2    0  502  0.41911890845E+01 -0.93036219729E+02  0.15993820656E+03  0.25334272076E+03  0.17300000000E+03 0.  1.
<mgrwt>
<rscale>  2 0.19647469E+03</rscale>
<asrwt>0</asrwt>
<pdfrwt beam="1">  1       21 0.34837855E-01 0.19647469E+03</pdfrwt>
<pdfrwt beam="2">  1       21 0.82148839E-01 0.19647469E+03</pdfrwt>
<totfact> 0.10259563E+04</totfact>
</mgrwt>
</event>
<event>
 4    2  0.3992997E+000  0.3085753E+03  0.7546771E-02  0.1081031E+00
         21   -1    0    0  503  502  0.00000000000E+00  0.00000000000E+00  0.65995003093E+02  0.65995003093E+02  0.00000000000E+00 0. -1.
         21   -1    0    0  501  503 -0.00000000000E+00 -0.00000000000E+00 -0.14992025117E+04  0.14992025117E+04  0.00000000000E+00 0.  1.
          6    1    1    2  501    0 -0.19467582828E+03 -0.16550247188E+03 -0.86837544995E+03  0.92157184657E+03  0.17300000000E+03 0.  1.
         -6    1    1    2    0  502  0.19467582828E+03  0.16550247188E+03 -0.56483205869E+03  0.64362566825E+03  0.17300000000E+03 0. -1.
<mgrwt>
<rscale>  2 0.30857535E+03</rscale>
<asrwt>0</asrwt>
<pdfrwt beam="1">  1       21 0.10153077E-01 0.30857535E+03</pdfrwt>
<pdfrwt beam="2">  1       21 0.23064654E+00 0.30857535E+03</pdfrwt>
<totfact> 0.62673688E+03</totfact>
</mgrwt>
</event>
<event>
 4    2  0.3992997E+000  0.1739288E+03  0.7546771E-02  0.1173812E+00
         21   -1    0    0  501  502  0.00000000000E+00  0.00000000000E+00  0.16708283204E+04  0.16708283204E+04  0.00000000000E+00 0. -1.
         21   -1    0    0  502  503 -0.00000000000E+00 -0.00000000000E+00 -0.49754953601E+02  0.49754953601E+02  0.00000000000E+00 0. -1.
          6    1    1    2  501    0  0.11905849922E+02 -0.13434266533E+02  0.14966730765E+04  0.15067453424E+04  0.17300000000E+03 0. -1.
         -6    1    1    2    0  503 -0.11905849922E+02  0.13434266533E+02  0.12440029026E+03  0.21383793162E+03  0.17300000000E+03 0. -1.
<mgrwt>
<rscale>  2 0.17392880E+03</rscale>
<asrwt>0</asrwt>
<pdfrwt beam="1">  1       21 0.25705047E+00 0.17392880E+03</pdfrwt>
<pdfrwt beam="2">  1       21 0.76546095E-02 0.17392880E+03</pdfrwt>
<totfact> 0.79877431E+03</totfact>
</mgrwt>
</event>
<event>
 4    2  0.3992997E+000  0.2033821E+03  0.7546771E-02  0.1146916E+00
         21   -1    0    0  501  502  0.00000000000E+00  0.00000000000E+00  0.22790658539E+03  0.22790658539E+03  0.00000000000E+00 0.  1.
         21   -1    0    0  502  503 -0.00000000000E+00 -0.00000000000E+00 -0.44450042719E+03  0.44450042719E+03  0.00000000000E+00 0.  1.
          6    1    1    2  501    0 -0.75583842022E+02 -0.75646364855E+02  0.15031414913E+03  0.25290044112E+03  0.17300000000E+03 0.  1.
         -6    1    1    2    0  503  0.75583842022E+02  0.75646364855E+02 -0.36690799093E+03  0.41950657146E+03  0.17300000000E+03 0.  1.
<mgrwt>
<rscale>  2 0.20338213E+03</rscale>
<asrwt>0</asrwt>
<pdfrwt beam="1">  1       21 0.35062552E-01 0.20338213E+03</pdfrwt>
<pdfrwt beam="2">  1       21 0.68384681E-01 0.20338213E+03</pdfrwt>
<totfact> 0.15191171E+04</totfact>
</mgrwt>
</event>
<event>
 4    2  0.3992997E+000  0.1979168E+03  0.7546771E-02  0.1151509E+00
         21   -1    0    0  501  502  0.00000000000E+00  0.00000000000E+00  0.32442896944E+03  0.32442896944E+03  0.00000000000E+00 0.  1.
         21   -1    0    0  502  503 -0.00000000000E+00 -0.00000000000E+00 -0.14148882226E+03  0.14148882226E+03  0.00000000000E+00 0.  1.
          6    1    1    2  501    0  0.77849012081E+02 -0.56405516106E+02  0.18068369704E+03  0.26798815143E+03  0.17300000000E+03 0.  1.
         -6    1    1    2    0  503 -0.77849012081E+02  0.56405516106E+02  0.22564501357E+01  0.19792964027E+03  0.17300000000E+03 0.  1.
<mgrwt>
<rscale>  2 0.19791678E+03</rscale>
<asrwt>0</asrwt>
<pdfrwt beam="1">  1       21 0.49912149E-01 0.19791678E+03</pdfrwt>
<pdfrwt beam="2">  1       21 0.21767511E-01 0.19791678E+03</pdfrwt>
<totfact> 0.75142586E+04</totfact>
</mgrwt>
</event>
<event>
 4    2  0.3992997E+000  0.7080722E+03  0.7546771E-02  0.9703526E-01
         21   -1    0    0  503  502  0.00000000000E+00  0.00000000000E+00  0.14562020414E+04  0.14562020414E+04  0.00000000000E+00 0.  1.
         21   -1    0    0  501  503 -0.00000000000E+00 -0.00000000000E+00 -0.52054165418E+03  0.52054165418E+03  0.00000000000E+00 0.  1.
          6    1    1    2  501    0 -0.31798778126E+03  0.60854010705E+03 -0.10727905036E+03  0.71615297637E+03  0.17300000000E+03 0.  1.
         -6    1    1    2    0  502  0.31798778126E+03 -0.60854010705E+03  0.10429394376E+04  0.12605907192E+04  0.17300000000E+03 0.  1.
<mgrwt>
<rscale>  2 0.70807224E+03</rscale>
<asrwt>0</asrwt>
<pdfrwt beam="1">  1       21 0.22403108E+00 0.70807224E+03</pdfrwt>
<pdfrwt beam="2">  1       21 0.80083332E-01 0.70807224E+03</pdfrwt>
<totfact> 0.91793346E+01</totfact>
</mgrwt>
</event>
<event>
 4    2  0.3992997E+000  0.1879253E+03  0.7546771E-02  0.1160346E+00
         21   -1    0    0  503  502  0.00000000000E+00  0.00000000000E+00  0.62275344921E+02  0.62275344921E+02  0.00000000000E+00 0.  1.
         21   -1    0    0  501  503 -0.00000000000E+00 -0.00000000000E+00 -0.75090935113E+03  0.75090935113E+03  0.00000000000E+00 0.  1.
          6    1    1    2  501    0 -0.69570439125E+02 -0.23385140954E+02 -0.54548437441E+03  0.57694810299E+03  0.17300000000E+03 0.  1.
         -6    1    1    2    0  502  0.69570439125E+02  0.23385140954E+02 -0.14314963180E+03  0.23623659306E+03  0.17300000000E+03 0.  1.
<mgrwt>
<rscale>  2 0.18792528E+03</rscale>
<asrwt>0</asrwt>
<pdfrwt beam="1">  1       21 0.95808225E-02 0.18792528E+03</pdfrwt>
<pdfrwt beam="2">  1       21 0.11552451E+00 0.18792528E+03</pdfrwt>
<totfact> 0.50861167E+04</totfact>
</mgrwt>
</event>
<event>
 4    2  0.3992997E+000  0.1781372E+03  0.7546771E-02  0.1169618E+00
         21   -1    0    0  501  502  0.00000000000E+00  0.00000000000E+00  0.77778976486E+03  0.77778976486E+03  0.00000000000E+00 0. -1.
         21   -1    0    0  502  503 -0.00000000000E+00 -0.00000000000E+00 -0.12172692995E+03  0.12172692995E+03  0.00000000000E+00 0. -1.
          6    1    1    2  501    0  0.36926499729E+02 -0.20983384535E+02  0.69475236695E+03  0.71722640790E+03  0.17300000000E+03 0. -1.
         -6    1    1    2    0  503 -0.36926499729E+02  0.20983384535E+02 -0.38689532039E+02  0.18229028690E+03  0.17300000000E+03 0. -1.
<mgrwt>
<rscale>  2 0.17813722E+03</rscale>
<asrwt>0</asrwt>
<pdfrwt beam="1">  1       21 0.11965996E+00 0.17813722E+03</pdfrwt>
<pdfrwt beam="2">  1       21 0.18727220E-01 0.17813722E+03</pdfrwt>
<totfact> 0.14014446E+04</totfact>
</mgrwt>
</event>
<event>
 4    2  0.3992997E+000  0.3158124E+03  0.7546771E-02  0.1077593E+00
         21   -1    0    0  503  502  0.00000000000E+00  0.00000000000E+00  0.12922628262E+04  0.12922628262E+04  0.00000000000E+00 0.  1.
         21   -1    0    0  501  503 -0.00000000000E+00 -0.00000000000E+00 -0.90651438798E+02  0.90651438798E+02  0.00000000000E+00 0. -1.
          6    1    1    2  501    0  0.23312043586E+03  0.12435169056E+03  0.33425674588E+03  0.45985329479E+03  0.17300000000E+03 0. -1.
         -6    1    1    2    0  502 -0.23312043586E+03 -0.12435169056E+03  0.86735464148E+03  0.92306097017E+03  0.17300000000E+03 0.  1.
<mgrwt>
<rscale>  2 0.31581241E+03</rscale>
<asrwt>0</asrwt>
<pdfrwt beam="1">  1       21 0.19880965E+00 0.31581241E+03</pdfrwt>
<pdfrwt beam="2">  1       21 0.13946376E-01 0.31581241E+03</pdfrwt>
<totfact> 0.56043948E+03</totfact>
</mgrwt>
</event>
<event>
 4    2  0.3992997E+000  0.1755594E+03  0.7546771E-02  0.1172171E+00
         21   -1    0    0  501  502  0.00000000000E+00  0.00000000000E+00  0.64004727846E+03  0.64004727846E+03  0.00000000000E+00 0. -1.
         21   -1    0    0  502  503 -0.00000000000E+00 -0.00000000000E+00 -0.89325007127E+02  0.89325007127E+02  0.00000000000E+00 0. -1.
          6    1    1    2  501    0  0.13812542032E+02 -0.26482215003E+02  0.52294729117E+03  0.55162937138E+03  0.17300000000E+03 0. -1.
         -6    1    1    2    0  503 -0.13812542032E+02  0.26482215003E+02  0.27774980169E+02  0.17774291421E+03  0.17300000000E+03 0. -1.
<mgrwt>
<rscale>  2 0.17555937E+03</rscale>
<asrwt>0</asrwt>
<pdfrwt beam="1">  1       21 0.98468809E-01 0.17555937E+03</pdfrwt>
<pdfrwt beam="2">  1       21 0.13742309E-01 0.17555937E+03</pdfrwt>
<totfact> 0.39512954E+04</totfact>
</mgrwt>
</event>
<event>
 4    2  0.3992997E+000  0.1855205E+03  0.7546771E-02  0.1162565E+00
         21   -1    0    0  501  502  0.00000000000E+00  0.00000000000E+00  0.63911124930E+03  0.63911124930E+03  0.00000000000E+00 0.  1.
         21   -1    0    0  502  503 -0.00000000000E+00 -0.00000000000E+00 -0.46427956671E+03  0.46427956671E+03  0.00000000000E+00 0. -1.
          6    1    1    2  501    0  0.46356367147E+02  0.48373145829E+02  0.60612924289E+03  0.63388526809E+03  0.17300000000E+03 0.  1.
         -6    1    1    2    0  503 -0.46356367147E+02 -0.48373145829E+02 -0.43129756030E+03  0.46950554793E+03  0.17300000000E+03 0. -1.
<mgrwt>
<rscale>  2 0.18552055E+03</rscale>
<asrwt>0</asrwt>
<pdfrwt beam="1">  1       21 0.98324807E-01 0.18552055E+03</pdfrwt>
<pdfrwt beam="2">  1       21 0.71427626E-01 0.18552055E+03</pdfrwt>
<totfact> 0.15245405E+03</totfact>
</mgrwt>
</event>
<event>
 4    2  0.3992997E+000  0.3026931E+03  0.7546771E-02  0.1083902E+00
         21   -1    0    0  501  502  0.00000000000E+00  0.00000000000E+00  0.62150742497E+02  0.62150742497E+02  0.00000000000E+00 0. -1.
         21   -1    0    0  502  503 -0.00000000000E+00 -0.00000000000E+00 -0.14781418685E+04  0.14781418685E+04  0.00000000000E+00 0.  1.
          6    1    1    2  501    0  0.22456318687E+03 -0.10613891375E+03 -0.66826269954E+03  0.73361988080E+03  0.17300000000E+03 0. -1.
         -6    1    1    2    0  503 -0.22456318687E+03  0.10613891375E+03 -0.74772842648E+03  0.80667273022E+03  0.17300000000E+03 0.  1.
<mgrwt>
<rscale>  2 0.30269307E+03</rscale>
<asrwt>0</asrwt>
<pdfrwt beam="1">  1       21 0.95616541E-02 0.30269307E+03</pdfrwt>
<pdfrwt beam="2">  1       21 0.22740641E+00 0.30269307E+03</pdfrwt>
<totfact> 0.73306209E+03</totfact>
</mgrwt>
</event>
<event>
 4    2  0.3992997E+000  0.2123511E+03  0.7546771E-02  0.1139718E+00
         21   -1    0    0  501  502  0.00000000000E+00  0.00000000000E+00  0.24444463889E+03  0.24444463889E+03  0.00000000000E+00 0. -1.
         21   -1    0    0  502  503 -0.00000000000E+00 -0.00000000000E+00 -0.37946276391E+03  0.37946276391E+03  0.00000000000E+00 0. -1.
          6    1    1    2  501    0 -0.10918599407E+03 -0.56942194884E+02  0.15611239615E+03  0.26356038225E+03  0.17300000000E+03 0. -1.
         -6    1    1    2    0  503  0.10918599407E+03  0.56942194884E+02 -0.29113052117E+03  0.36034702055E+03  0.17300000000E+03 0. -1.
<mgrwt>
<rscale>  2 0.21235111E+03</rscale>
<asrwt>0</asrwt>
<pdfrwt beam="1">  1       21 0.37606867E-01 0.21235111E+03</pdfrwt>
<pdfrwt beam="2">  1       21 0.58378887E-01 0.21235111E+03</pdfrwt>
<totfact> 0.18517135E+04</totfact>
</mgrwt>
</event>
<event>
 4    2  0.3992997E+000  0.1762963E+03  0.7546771E-02  0.1171436E+00
         21   -1    0    0  503  502  0.00000000000E+00  0.00000000000E+00  0.59820095321E+03  0.59820095321E+03  0.00000000000E+00 0. -1.
         21   -1    0    0  501  503 -0.00000000000E+00 -0.00000000000E+00 -0.94516887095E+02  0.94516887095E+02  0.00000000000E+00 0. -1.
          6    1    1    2  501    0  0.32385834603E+01 -0.33777371257E+02  0.19421388840E+02  0.17736287542E+03  0.17300000000E+03 0. -1.
         -6    1    1    2    0  502 -0.32385834603E+01  0.33777371257E+02  0.48426267728E+03  0.51535496489E+03  0.17300000000E+03 0. -1.
<mgrwt>
<rscale>  2 0.17629634E+03</rscale>
<asrwt>0</asrwt>
<pdfrwt beam="1">  1       21 0.92030914E-01 0.17629634E+03</pdfrwt>
<pdfrwt beam="2">  1       21 0.14541060E-01 0.17629634E+03</pdfrwt>
<totfact> 0.41762355E+04</totfact>
</mgrwt>
</event>
<event>
 4    2  0.3992997E+000  0.1850353E+03  0.7546771E-02  0.1163017E+00
         21   -1    0    0  501  502  0.00000000000E+00  0.00000000000E+00  0.36867860584E+03  0.36867860584E+03  0.00000000000E+00 0.  1.
         21   -1    0    0  502  503 -0.00000000000E+00 -0.00000000000E+00 -0.18297607541E+03  0.18297607541E+03  0.00000000000E+00 0. -1.
          6    1    1    2  501    0  0.50508906971E+02  0.41927483066E+02 -0.10071269856E+03  0.21066824908E+03  0.17300000000E+03 0. -1.
         -6    1    1    2    0  503 -0.50508906971E+02 -0.41927483066E+02  0.28641522900E+03  0.34098643217E+03  0.17300000000E+03 0.  1.
<mgrwt>
<rscale>  2 0.18503530E+03</rscale>
<asrwt>0</asrwt>
<pdfrwt beam="1">  1       21 0.56719785E-01 0.18503530E+03</pdfrwt>
<pdfrwt beam="2">  1       21 0.28150166E-01 0.18503530E+03</pdfrwt>
<totfact> 0.35372695E+04</totfact>
</mgrwt>
</event>
<event>
 4    2  0.3992997E+000  0.1978700E+03  0.7546771E-02  0.1151549E+00
         21   -1    0    0  501  502  0.00000000000E+00  0.00000000000E+00  0.16985234393E+03  0.16985234393E+03  0.00000000000E+00 0. -1.
         21   -1    0    0  502  503 -0.00000000000E+00 -0.00000000000E+00 -0.23172360269E+03  0.23172360269E+03  0.00000000000E+00 0. -1.
          6    1    1    2  501    0 -0.84610960570E+02 -0.45437125067E+02 -0.16400669120E+02  0.19854855560E+03  0.17300000000E+03 0. -1.
         -6    1    1    2    0  503  0.84610960570E+02  0.45437125067E+02 -0.45470589640E+02  0.20302739102E+03  0.17300000000E+03 0. -1.
<mgrwt>
<rscale>  2 0.19787003E+03</rscale>
<asrwt>0</asrwt>
<pdfrwt beam="1">  1       21 0.26131130E-01 0.19787003E+03</pdfrwt>
<pdfrwt beam="2">  1       21 0.35649785E-01 0.19787003E+03</pdfrwt>
<totfact> 0.10537096E+05</totfact>
</mgrwt>
</event>
<event>
 4    2  0.3992997E+000  0.2257293E+03  0.7546771E-02  0.1129682E+00
         21   -1    0    0  503  502  0.00000000000E+00  0.00000000000E+00  0.61763627816E+02  0.61763627816E+02  0.00000000000E+00 0. -1.
         21   -1    0    0  501  503 -0.00000000000E+00 -0.00000000000E+00 -0.83079346034E+03  0.83079346034E+03  0.00000000000E+00 0. -1.
          6    1    1    2  501    0 -0.10415701962E+03  0.10087634328E+03 -0.42184842304E+03  0.47844520417E+03  0.17300000000E+03 0. -1.
         -6    1    1    2    0  502  0.10415701962E+03 -0.10087634328E+03 -0.34718140948E+03  0.41411188398E+03  0.17300000000E+03 0. -1.
<mgrwt>
<rscale>  2 0.22572931E+03</rscale>
<asrwt>0</asrwt>
<pdfrwt beam="1">  1       21 0.95020966E-02 0.22572931E+03</pdfrwt>
<pdfrwt beam="2">  1       21 0.12781438E+00 0.22572931E+03</pdfrwt>
<totfact> 0.39340431E+04</totfact>
</mgrwt>
</event>
<event>
 4    2  0.3992997E+000  0.1925688E+03  0.7546771E-02  0.1156165E+00
         21   -1    0    0  501  502  0.00000000000E+00  0.00000000000E+00  0.14786965736E+04  0.14786965736E+04  0.00000000000E+00 0. -1.
         21   -1    0    0  502  503 -0.00000000000E+00 -0.00000000000E+00 -0.73678020289E+02  0.73678020289E+02  0.00000000000E+00 0. -1.
          6    1    1    2  501    0 -0.72679788840E+02  0.43259628435E+02  0.13329086877E+04  0.13467473100E+04  0.17300000000E+03 0. -1.
         -6    1    1    2    0  503  0.72679788840E+02 -0.43259628435E+02  0.72109865549E+02  0.20562728386E+03  0.17300000000E+03 0. -1.
<mgrwt>
<rscale>  2 0.19256881E+03</rscale>
<asrwt>0</asrwt>
<pdfrwt beam="1">  1       21 0.22749176E+00 0.19256881E+03</pdfrwt>
<pdfrwt beam="2">  1       21 0.11335081E-01 0.19256881E+03</pdfrwt>
<totfact> 0.58842456E+03</totfact>
</mgrwt>
</event>
<event>
 4    2  0.3992997E+000  0.2161866E+03  0.7546771E-02  0.1136758E+00
         21   -1    0    0  503  502  0.00000000000E+00  0.00000000000E+00  0.80725582828E+03  0.80725582828E+03  0.00000000000E+00 0. -1.
         21   -1    0    0  501  503 -0.00000000000E+00 -0.00000000000E+00 -0.59024607135E+02  0.59024607135E+02  0.00000000000E+00 0. -1.
          6    1    1    2  501    0  0.99286390892E+02  0.83365737954E+02  0.43401782429E+03  0.48487947521E+03  0.17300000000E+03 0. -1.
         -6    1    1    2    0  502 -0.99286390892E+02 -0.83365737954E+02  0.31421339686E+03  0.38140096021E+03  0.17300000000E+03 0. -1.
<mgrwt>
<rscale>  2 0.21618657E+03</rscale>
<asrwt>0</asrwt>
<pdfrwt beam="1">  1       21 0.12419320E+00 0.21618657E+03</pdfrwt>
<pdfrwt beam="2">  1       21 0.90807094E-02 0.21618657E+03</pdfrwt>
<totfact> 0.46039855E+04</totfact>
</mgrwt>
</event>
<event>
 4    2  0.3992997E+000  0.1995427E+03  0.7546771E-02  0.1150125E+00
         21   -1    0    0  501  502  0.00000000000E+00  0.00000000000E+00  0.26202711905E+03  0.26202711905E+03  0.00000000000E+00 0.  1.
         21   -1    0    0  502  503 -0.00000000000E+00 -0.00000000000E+00 -0.15839710210E+03  0.15839710210E+03  0.00000000000E+00 0.  1.
          6    1    1    2  501    0 -0.99241444348E+02 -0.62779927062E+01  0.94196487945E+02  0.22065868623E+03  0.17300000000E+03 0. -1.
         -6    1    1    2    0  503  0.99241444348E+02  0.62779927062E+01  0.94335290039E+01  0.19976553491E+03  0.17300000000E+03 0. -1.
<mgrwt>
<rscale>  2 0.19954267E+03</rscale>
<asrwt>0</asrwt>
<pdfrwt beam="1">  1       21 0.40311865E-01 0.19954267E+03</pdfrwt>
<pdfrwt beam="2">  1       21 0.24368785E-01 0.19954267E+03</pdfrwt>
<totfact> 0.94037225E+04</totfact>
</mgrwt>
</event>
<event>
 4    2  0.3992997E+000  0.1813635E+03  0.7546771E-02  0.1166490E+00
         21   -1    0    0  503  502  0.00000000000E+00  0.00000000000E+00  0.30825134600E+02  0.30825134600E+02  0.00000000000E+00 0. -1.
         21   -1    0    0  501  503 -0.00000000000E+00 -0.00000000000E+00 -0.11541542700E+04  0.11541542700E+04  0.00000000000E+00 0. -1.
          6    1    1    2  501    0 -0.54099293433E+02 -0.60814451594E+01 -0.72440944038E+03  0.74676753735E+03  0.17300000000E+03 0. -1.
         -6    1    1    2    0  502  0.54099293433E+02  0.60814451594E+01 -0.39891969502E+03  0.43821186726E+03  0.17300000000E+03 0. -1.
<mgrwt>
<rscale>  2 0.18136350E+03</rscale>
<asrwt>0</asrwt>
<pdfrwt beam="1">  1       21 0.47423291E-02 0.18136350E+03</pdfrwt>
<pdfrwt beam="2">  1       21 0.17756217E+00 0.18136350E+03</pdfrwt>
<totfact> 0.56002157E+04</totfact>
</mgrwt>
</event>
<event>
 4    2  0.3992997E+000  0.1866460E+03  0.7546771E-02  0.1161522E+00
         21   -1    0    0  503  502  0.00000000000E+00  0.00000000000E+00  0.33598982669E+03  0.33598982669E+03  0.00000000000E+00 0.  1.
         21   -1    0    0  501  503 -0.00000000000E+00 -0.00000000000E+00 -0.11140286896E+03  0.11140286896E+03  0.00000000000E+00 0.  1.
          6    1    1    2  501    0 -0.38639837664E+01 -0.69948515711E+02  0.17117665417E+03  0.25325515227E+03  0.17300000000E+03 0. -1.
         -6    1    1    2    0  502  0.38639837664E+01  0.69948515711E+02  0.53410303568E+02  0.19413754338E+03  0.17300000000E+03 0. -1.
<mgrwt>
<rscale>  2 0.18664599E+03</rscale>
<asrwt>0</asrwt>
<pdfrwt beam="1">  1       21 0.51690742E-01 0.18664599E+03</pdfrwt>
<pdfrwt beam="2">  1       21 0.17138903E-01 0.18664599E+03</pdfrwt>
<totfact> 0.10948343E+05</totfact>
</mgrwt>
</event>
<event>
 4    2  0.3992997E+000  0.2236074E+03  0.7546771E-02  0.1131222E+00
         21   -1    0    0  503  502  0.00000000000E+00  0.00000000000E+00  0.16747475009E+03  0.16747475009E+03  0.00000000000E+00 0. -1.
         21   -1    0    0  501  503 -0.00000000000E+00 -0.00000000000E+00 -0.57297798997E+03  0.57297798997E+03  0.00000000000E+00 0. -1.
          6    1    1    2  501    0  0.14060161027E+03  0.17390996196E+02 -0.45896948145E+03  0.51054210841E+03  0.17300000000E+03 0. -1.
         -6    1    1    2    0  502 -0.14060161027E+03 -0.17390996196E+02  0.53466241573E+02  0.22991063165E+03  0.17300000000E+03 0. -1.
<mgrwt>
<rscale>  2 0.22360738E+03</rscale>
<asrwt>0</asrwt>
<pdfrwt beam="1">  1       21 0.25765346E-01 0.22360738E+03</pdfrwt>
<pdfrwt beam="2">  1       21 0.88150459E-01 0.22360738E+03</pdfrwt>
<totfact> 0.15459815E+04</totfact>
</mgrwt>
</event>
<event>
 4    2  0.3992997E+000  0.1815961E+03  0.7546771E-02  0.1166267E+00
         21   -1    0    0  501  502  0.00000000000E+00  0.00000000000E+00  0.31690908158E+03  0.31690908158E+03  0.00000000000E+00 0.  1.
         21   -1    0    0  502  503 -0.00000000000E+00 -0.00000000000E+00 -0.10689008862E+03  0.10689008862E+03  0.00000000000E+00 0.  1.
          6    1    1    2  501    0  0.22053680911E+02  0.50613927662E+02  0.70521802036E+02  0.19480877567E+03  0.17300000000E+03 0.  1.
         -6    1    1    2    0  503 -0.22053680911E+02 -0.50613927662E+02  0.13949719092E+03  0.22899039453E+03  0.17300000000E+03 0.  1.
<mgrwt>
<rscale>  2 0.18159608E+03</rscale>
<asrwt>0</asrwt>
<pdfrwt beam="1">  1       21 0.48755243E-01 0.18159608E+03</pdfrwt>
<pdfrwt beam="2">  1       21 0.16444629E-01 0.18159608E+03</pdfrwt>
<totfact> 0.13366101E+05</totfact>
</mgrwt>
</event>
<event>
 4    2  0.3992997E+000  0.2969982E+03  0.7546771E-02  0.1086751E+00
         21   -1    0    0  501  502  0.00000000000E+00  0.00000000000E+00  0.15839295991E+03  0.15839295991E+03  0.00000000000E+00 0.  1.
         21   -1    0    0  502  503 -0.00000000000E+00 -0.00000000000E+00 -0.60213542680E+03  0.60213542680E+03  0.00000000000E+00 0. -1.
          6    1    1    2  501    0 -0.17153637462E+02 -0.24080012115E+03 -0.11763689007E+03  0.31944699643E+03  0.17300000000E+03 0. -1.
         -6    1    1    2    0  503  0.17153637462E+02  0.24080012115E+03 -0.32610557681E+03  0.44108139028E+03  0.17300000000E+03 0.  1.
<mgrwt>
<rscale>  2 0.29699822E+03</rscale>
<asrwt>0</asrwt>
<pdfrwt beam="1">  1       21 0.24368148E-01 0.29699822E+03</pdfrwt>
<pdfrwt beam="2">  1       21 0.92636219E-01 0.29699822E+03</pdfrwt>
<totfact> 0.14773152E+04</totfact>
</mgrwt>
</event>
<event>
 4    2  0.3992997E+000  0.1863541E+03  0.7546771E-02  0.1161791E+00
         21   -1    0    0  501  502  0.00000000000E+00  0.00000000000E+00  0.37489145350E+03  0.37489145350E+03  0.00000000000E+00 0. -1.
         21   -1    0    0  502  503 -0.00000000000E+00 -0.00000000000E+00 -0.95087064974E+02  0.95087064974E+02  0.00000000000E+00 0. -1.
          6    1    1    2  501    0 -0.67174632895E+02  0.16923875501E+02  0.10216188459E+03  0.21252035086E+03  0.17300000000E+03 0. -1.
         -6    1    1    2    0  503  0.67174632895E+02 -0.16923875501E+02  0.17764250395E+03  0.25745816762E+03  0.17300000000E+03 0. -1.
<mgrwt>
<rscale>  2 0.18635410E+03</rscale>
<asrwt>0</asrwt>
<pdfrwt beam="1">  1       21 0.57675608E-01 0.18635410E+03</pdfrwt>
<pdfrwt beam="2">  1       21 0.14628779E-01 0.18635410E+03</pdfrwt>
<totfact> 0.11604093E+05</totfact>
</mgrwt>
</event>
<event>
 4    2  0.3992997E+000  0.2033875E+03  0.7546771E-02  0.1146912E+00
         21   -1    0    0  503  502  0.00000000000E+00  0.00000000000E+00  0.81696981073E+02  0.81696981073E+02  0.00000000000E+00 0.  1.
         21   -1    0    0  501  503 -0.00000000000E+00 -0.00000000000E+00 -0.56363274754E+03  0.56363274754E+03  0.00000000000E+00 0.  1.
          6    1    1    2  501    0 -0.97281692077E+02 -0.44426884746E+02 -0.13809470150E+03  0.24583861024E+03  0.17300000000E+03 0.  1.
         -6    1    1    2    0  502  0.97281692077E+02  0.44426884746E+02 -0.34384106497E+03  0.39949111837E+03  0.17300000000E+03 0.  1.
<mgrwt>
<rscale>  2 0.20338750E+03</rscale>
<asrwt>0</asrwt>
<pdfrwt beam="1">  1       21 0.12568766E-01 0.20338750E+03</pdfrwt>
<pdfrwt beam="2">  1       21 0.86712732E-01 0.20338750E+03</pdfrwt>
<totfact> 0.61506111E+04</totfact>
</mgrwt>
</event>
<event>
 4    2  0.3992997E+000  0.1944862E+03  0.7546771E-02  0.1154476E+00
         21   -1    0    0  501  502  0.00000000000E+00  0.00000000000E+00  0.79621745737E+03  0.79621745737E+03  0.00000000000E+00 0. -1.
         21   -1    0    0  502  503 -0.00000000000E+00 -0.00000000000E+00 -0.50064877450E+02  0.50064877450E+02  0.00000000000E+00 0. -1.
          6    1    1    2  501    0 -0.72372178040E+02  0.51557412200E+02  0.46874404260E+03  0.50748977958E+03  0.17300000000E+03 0. -1.
         -6    1    1    2    0  503  0.72372178040E+02 -0.51557412200E+02  0.27740853732E+03  0.33879255524E+03  0.17300000000E+03 0. -1.
<mgrwt>
<rscale>  2 0.19448624E+03</rscale>
<asrwt>0</asrwt>
<pdfrwt beam="1">  1       21 0.12249498E+00 0.19448624E+03</pdfrwt>
<pdfrwt beam="2">  1       21 0.77022894E-02 0.19448624E+03</pdfrwt>
<totfact> 0.64259724E+04</totfact>
</mgrwt>
</event>
<event>
 4    2  0.3992997E+000  0.2063450E+03  0.7546771E-02  0.1144493E+00
         21   -1    0    0  501  502  0.00000000000E+00  0.00000000000E+00  0.14682481574E+04  0.14682481574E+04  0.00000000000E+00 0. -1.
         21   -1    0    0  502  503 -0.00000000000E+00 -0.00000000000E+00 -0.29708622861E+02  0.29708622861E+02  0.00000000000E+00 0. -1.
          6    1    1    2  501    0  0.46985581539E+02  0.10218423211E+03  0.60354387559E+03  0.63784282697E+03  0.17300000000E+03 0. -1.
         -6    1    1    2    0  503 -0.46985581539E+02 -0.10218423211E+03  0.83499565891E+03  0.86011395324E+03  0.17300000000E+03 0. -1.
<mgrwt>
<rscale>  2 0.20634501E+03</rscale>
<asrwt>0</asrwt>
<pdfrwt beam="1">  1       21 0.22588428E+00 0.20634501E+03</pdfrwt>
<pdfrwt beam="2">  1       21 0.45705585E-02 0.20634501E+03</pdfrwt>
<totfact> 0.28697581E+04</totfact>
</mgrwt>
</event>
<event>
 4    2  0.3992997E+000  0.2174073E+03  0.7546771E-02  0.1135831E+00
         21   -1    0    0  503  502  0.00000000000E+00  0.00000000000E+00  0.20052427621E+03  0.20052427621E+03  0.00000000000E+00 0.  1.
         21   -1    0    0  501  503 -0.00000000000E+00 -0.00000000000E+00 -0.51260096683E+03  0.51260096683E+03  0.00000000000E+00 0.  1.
          6    1    1    2  501    0  0.11831269549E+03 -0.57784422466E+02 -0.41809736027E+03  0.47124445467E+03  0.17300000000E+03 0.  1.
         -6    1    1    2    0  502 -0.11831269549E+03  0.57784422466E+02  0.10602066964E+03  0.24188078837E+03  0.17300000000E+03 0.  1.
<mgrwt>
<rscale>  2 0.21740730E+03</rscale>
<asrwt>0</asrwt>
<pdfrwt beam="1">  1       21 0.30849889E-01 0.21740730E+03</pdfrwt>
<pdfrwt beam="2">  1       21 0.78861686E-01 0.21740730E+03</pdfrwt>
<totfact> 0.14111225E+04</totfact>
</mgrwt>
</event>
<event>
 4    2  0.3992997E+000  0.2046792E+03  0.7546771E-02  0.1145850E+00
         21   -1    0    0  503  502  0.00000000000E+00  0.00000000000E+00  0.88360349066E+03  0.88360349066E+03  0.00000000000E+00 0.  1.
         21   -1    0    0  501  503 -0.00000000000E+00 -0.00000000000E+00 -0.14181694286E+03  0.14181694286E+03  0.00000000000E+00 0.  1.
          6    1    1    2  501    0  0.57788562657E+02 -0.92871282879E+02 -0.47423037004E+02  0.21010125558E+03  0.17300000000E+03 0.  1.
         -6    1    1    2    0  502 -0.57788562657E+02  0.92871282879E+02  0.78920958480E+03  0.81531917793E+03  0.17300000000E+03 0.  1.
<mgrwt>
<rscale>  2 0.20467924E+03</rscale>
<asrwt>0</asrwt>
<pdfrwt beam="1">  1       21 0.13593900E+00 0.20467924E+03</pdfrwt>
<pdfrwt beam="2">  1       21 0.21817992E-01 0.20467924E+03</pdfrwt>
<totfact> 0.74980928E+03</totfact>
</mgrwt>
</event>
<event>
 4    2  0.3992997E+000  0.2723022E+03  0.7546771E-02  0.1099969E+00
         21   -1    0    0  501  502  0.00000000000E+00  0.00000000000E+00  0.59666592634E+02  0.59666592634E+02  0.00000000000E+00 0. -1.
         21   -1    0    0  502  503 -0.00000000000E+00 -0.00000000000E+00 -0.13405096586E+04  0.13405096586E+04  0.00000000000E+00 0.  1.
          6    1    1    2  501    0 -0.19952897854E+03  0.66390296113E+02 -0.45132722013E+03  0.52710980291E+03  0.17300000000E+03 0. -1.
         -6    1    1    2    0  503  0.19952897854E+03 -0.66390296113E+02 -0.82951584582E+03  0.87306644831E+03  0.17300000000E+03 0.  1.
<mgrwt>
<rscale>  2 0.27230219E+03</rscale>
<asrwt>0</asrwt>
<pdfrwt beam="1">  1       21 0.91794749E-02 0.27230219E+03</pdfrwt>
<pdfrwt beam="2">  1       21 0.20623227E+00 0.27230219E+03</pdfrwt>
<totfact> 0.10914880E+04</totfact>
</mgrwt>
</event>
<event>
 4    2  0.3992997E+000  0.3239354E+03  0.7546771E-02  0.1073852E+00
         21   -1    0    0  503  502  0.00000000000E+00  0.00000000000E+00  0.99690200616E+03  0.99690200616E+03  0.00000000000E+00 0. -1.
         21   -1    0    0  501  503 -0.00000000000E+00 -0.00000000000E+00 -0.10709745809E+03  0.10709745809E+03  0.00000000000E+00 0.  1.
          6    1    1    2  501    0 -0.88461418317E+02  0.25919053437E+03  0.37260393619E+03  0.49372851741E+03  0.17300000000E+03 0. -1.
         -6    1    1    2    0  502  0.88461418317E+02 -0.25919053437E+03  0.51720061188E+03  0.61027094684E+03  0.17300000000E+03 0. -1.
<mgrwt>
<rscale>  2 0.32393542E+03</rscale>
<asrwt>0</asrwt>
<pdfrwt beam="1">  1       21 0.15336953E+00 0.32393542E+03</pdfrwt>
<pdfrwt beam="2">  1       21 0.16476533E-01 0.32393542E+03</pdfrwt>
<totfact> 0.85996102E+03</totfact>
</mgrwt>
</event>
<event>
 4    2  0.3992997E+000  0.2018109E+03  0.7546771E-02  0.1148220E+00
         21   -1    0    0  503  502  0.00000000000E+00  0.00000000000E+00  0.77605383135E+03  0.77605383135E+03  0.00000000000E+00 0.  1.
         21   -1    0    0  501  503 -0.00000000000E+00 -0.00000000000E+00 -0.83217699769E+02  0.83217699769E+02  0.00000000000E+00 0.  1.
          6    1    1    2  501    0 -0.99055901038E+02 -0.31409834026E+02  0.85307092632E+02  0.21910031779E+03  0.17300000000E+03 0.  1.
         -6    1    1    2    0  502  0.99055901038E+02  0.31409834026E+02  0.60752903895E+03  0.64017121332E+03  0.17300000000E+03 0.  1.
<mgrwt>
<rscale>  2 0.20181092E+03</rscale>
<asrwt>0</asrwt>
<pdfrwt beam="1">  1       21 0.11939289E+00 0.20181092E+03</pdfrwt>
<pdfrwt beam="2">  1       21 0.12802724E-01 0.20181092E+03</pdfrwt>
<totfact> 0.27788611E+04</totfact>
</mgrwt>
</event>
<event>
 4    2  0.3992997E+000  0.1734581E+03  0.7546771E-02  0.1174289E+00
         21   -1    0    0  503  502  0.00000000000E+00  0.00000000000E+00  0.36749004041E+03  0.36749004041E+03  0.00000000000E+00 0. -1.
         21   -1    0    0  501  503 -0.00000000000E+00 -0.00000000000E+00 -0.83976403000E+02  0.83976403000E+02  0.00000000000E+00 0. -1.
          6    1    1    2  501    0  0.66914043872E+01  0.10674079158E+02  0.10603593114E+03  0.20330108104E+03  0.17300000000E+03 0. -1.
         -6    1    1    2    0  502 -0.66914043872E+01 -0.10674079158E+02  0.17747770627E+03  0.24816536238E+03  0.17300000000E+03 0. -1.
<mgrwt>
<rscale>  2 0.17345810E+03</rscale>
<asrwt>0</asrwt>
<pdfrwt beam="1">  1       21 0.56536929E-01 0.17345810E+03</pdfrwt>
<pdfrwt beam="2">  1       21 0.12919447E-01 0.17345810E+03</pdfrwt>
<totfact> 0.15219708E+05</totfact>
</mgrwt>
</event>
<event>
 4    2  0.3992997E+000  0.1847397E+03  0.7546771E-02  0.1163293E+00
         21   -1    0    0  503  502  0.00000000000E+00  0.00000000000E+00  0.20749330874E+03  0.20749330874E+03  0.00000000000E+00 0. -1.
         21   -1    0    0  501  503 -0.00000000000E+00 -0.00000000000E+00 -0.17357976650E+03  0.17357976650E+03  0.00000000000E+00 0. -1.
          6    1    1    2  501    0  0.44391364344E+02 -0.47214115043E+02 -0.26665994529E+02  0.18665433601E+03  0.17300000000E+03 0. -1.
         -6    1    1    2    0  502 -0.44391364344E+02  0.47214115043E+02  0.60579536772E+02  0.19441873923E+03  0.17300000000E+03 0. -1.
<mgrwt>
<rscale>  2 0.18473972E+03</rscale>
<asrwt>0</asrwt>
<pdfrwt beam="1">  1       21 0.31922047E-01 0.18473972E+03</pdfrwt>
<pdfrwt beam="2">  1       21 0.26704580E-01 0.18473972E+03</pdfrwt>
<totfact> 0.12631923E+05</totfact>
</mgrwt>
</event>
<event>
 4    2  0.3992997E+000  0.1778049E+03  0.7546771E-02  0.1169945E+00
         21   -1    0    0  503  502  0.00000000000E+00  0.00000000000E+00  0.82027046542E+02  0.82027046542E+02  0.00000000000E+00 0.  1.
         21   -1    0    0  501  503 -0.00000000000E+00 -0.00000000000E+00 -0.68893682955E+03  0.68893682955E+03  0.00000000000E+00 0.  1.
          6    1    1    2  501    0  0.32788542570E+02 -0.24708272499E+02 -0.55931827429E+03  0.58689992265E+03  0.17300000000E+03 0.  1.
         -6    1    1    2    0  502 -0.32788542570E+02  0.24708272499E+02 -0.47591508718E+02  0.18406395344E+03  0.17300000000E+03 0.  1.
<mgrwt>
<rscale>  2 0.17780491E+03</rscale>
<asrwt>0</asrwt>
<pdfrwt beam="1">  1       21 0.12619546E-01 0.17780491E+03</pdfrwt>
<pdfrwt beam="2">  1       21 0.10599028E+00 0.17780491E+03</pdfrwt>
<totfact> 0.38609910E+04</totfact>
</mgrwt>
</event>
<event>
 4    2  0.3992997E+000  0.2832385E+03  0.7546771E-02  0.1093933E+00
         21   -1    0    0  501  502  0.00000000000E+00  0.00000000000E+00  0.19125992000E+03  0.19125992000E+03  0.00000000000E+00 0.  1.
         21   -1    0    0  502  503 -0.00000000000E+00 -0.00000000000E+00 -0.57645657582E+03  0.57645657582E+03  0.00000000000E+00 0.  1.
          6    1    1    2  501    0 -0.36145936224E+01  0.22423644077E+03  0.77316621365E+01  0.28334400515E+03  0.17300000000E+03 0.  1.
         -6    1    1    2    0  503  0.36145936224E+01 -0.22423644077E+03 -0.39292831796E+03  0.48437249067E+03  0.17300000000E+03 0.  1.
<mgrwt>
<rscale>  2 0.28323850E+03</rscale>
<asrwt>0</asrwt>
<pdfrwt beam="1">  1       21 0.29424603E-01 0.28323850E+03</pdfrwt>
<pdfrwt beam="2">  1       21 0.88685627E-01 0.28323850E+03</pdfrwt>
<totfact> 0.11415533E+04</totfact>
</mgrwt>
</event>
<event>
 4    2  0.3992997E+000  0.2236192E+03  0.7546771E-02  0.1131213E+00
         21   -1    0    0  501  502  0.00000000000E+00  0.00000000000E+00  0.19312792129E+03  0.19312792129E+03  0.00000000000E+00 0. -1.
         21   -1    0    0  502  503 -0.00000000000E+00 -0.00000000000E+00 -0.26352345745E+03  0.26352345745E+03  0.00000000000E+00 0.  1.
          6    1    1    2  501    0 -0.74777726053E+02  0.12035304989E+03 -0.50349931231E+01  0.22367591754E+03  0.17300000000E+03 0. -1.
         -6    1    1    2    0  503  0.74777726053E+02 -0.12035304989E+03 -0.65360543039E+02  0.23297546119E+03  0.17300000000E+03 0. -1.
<mgrwt>
<rscale>  2 0.22361924E+03</rscale>
<asrwt>0</asrwt>
<pdfrwt beam="1">  1       21 0.29711988E-01 0.22361924E+03</pdfrwt>
<pdfrwt beam="2">  1       21 0.40542071E-01 0.22361924E+03</pdfrwt>
<totfact> 0.62781615E+04</totfact>
</mgrwt>
</event>
<event>
 4    2  0.3992997E+000  0.1915241E+03  0.7546771E-02  0.1157094E+00
         21   -1    0    0  501  502  0.00000000000E+00  0.00000000000E+00  0.20724266675E+03  0.20724266675E+03  0.00000000000E+00 0.  1.
         21   -1    0    0  502  503 -0.00000000000E+00 -0.00000000000E+00 -0.17743211897E+03  0.17743211897E+03  0.00000000000E+00 0. -1.
          6    1    1    2  501    0  0.73453080475E+02  0.36839095470E+02  0.24422388518E+02  0.19307492599E+03  0.17300000000E+03 0. -1.
         -6    1    1    2    0  503 -0.73453080475E+02 -0.36839095470E+02  0.53881592589E+01  0.19159985972E+03  0.17300000000E+03 0. -1.
<mgrwt>
<rscale>  2 0.19152408E+03</rscale>
<asrwt>0</asrwt>
<pdfrwt beam="1">  1       21 0.31883487E-01 0.19152408E+03</pdfrwt>
<pdfrwt beam="2">  1       21 0.27297249E-01 0.19152408E+03</pdfrwt>
<totfact> 0.12110549E+05</totfact>
</mgrwt>
</event>
<event>
 4    2  0.3992997E+000  0.2178819E+03  0.7546771E-02  0.1135472E+00
         21   -1    0    0  503  502  0.00000000000E+00  0.00000000000E+00  0.14998281422E+03  0.14998281422E+03  0.00000000000E+00 0. -1.
         21   -1    0    0  501  503 -0.00000000000E+00 -0.00000000000E+00 -0.33472031881E+03  0.33472031881E+03  0.00000000000E+00 0. -1.
          6    1    1    2  501    0 -0.10368452564E+03  0.82419951013E+02 -0.35855959439E+02  0.22081254269E+03  0.17300000000E+03 0. -1.
         -6    1    1    2    0  502  0.10368452564E+03 -0.82419951013E+02 -0.14888154515E+03  0.26389059034E+03  0.17300000000E+03 0. -1.
<mgrwt>
<rscale>  2 0.21788192E+03</rscale>
<asrwt>0</asrwt>
<pdfrwt beam="1">  1       21 0.23074279E-01 0.21788192E+03</pdfrwt>
<pdfrwt beam="2">  1       21 0.51495433E-01 0.21788192E+03</pdfrwt>
<totfact> 0.62487910E+04</totfact>
</mgrwt>
</event>
<event>
 4    2  0.3992997E+000  0.2324473E+03  0.7546771E-02  0.1124929E+00
         21   -1    0    0  501  502  0.00000000000E+00  0.00000000000E+00  0.12029563942E+04  0.12029563942E+04  0.00000000000E+00 0. -1.
         21   -1    0    0  502  503 -0.00000000000E+00 -0.00000000000E+00 -0.54187640442E+02  0.54187640442E+02  0.00000000000E+00 0.  1.
          6    1    1    2  501    0 -0.14070576717E+03 -0.65609550482E+02  0.83439335308E+03  0.86616626216E+03  0.17300000000E+03 0. -1.
         -6    1    1    2    0  503  0.14070576717E+03  0.65609550482E+02  0.31437540069E+03  0.39097777250E+03  0.17300000000E+03 0.  1.
<mgrwt>
<rscale>  2 0.23244725E+03</rscale>
<asrwt>0</asrwt>
<pdfrwt beam="1">  1       21 0.18507019E+00 0.23244725E+03</pdfrwt>
<pdfrwt beam="2">  1       21 0.83365610E-02 0.23244725E+03</pdfrwt>
<totfact> 0.18267046E+04</totfact>
</mgrwt>
</event>
<event>
 4    2  0.3992997E+000  0.1830778E+03  0.7546771E-02  0.1164857E+00
         21   -1    0    0  503  502  0.00000000000E+00  0.00000000000E+00  0.15630566955E+03  0.15630566955E+03  0.00000000000E+00 0.  1.
         21   -1    0    0  501  503 -0.00000000000E+00 -0.00000000000E+00 -0.24537836316E+03  0.24537836316E+03  0.00000000000E+00 0. -1.
          6    1    1    2  501    0  0.38472723729E+02  0.45916595112E+02 -0.11585722772E+03  0.21665729019E+03  0.17300000000E+03 0. -1.
         -6    1    1    2    0  502 -0.38472723729E+02 -0.45916595112E+02  0.26784534115E+02  0.18502674251E+03  0.17300000000E+03 0. -1.
<mgrwt>
<rscale>  2 0.18307781E+03</rscale>
<asrwt>0</asrwt>
<pdfrwt beam="1">  1       21 0.24047026E-01 0.18307781E+03</pdfrwt>
<pdfrwt beam="2">  1       21 0.37750517E-01 0.18307781E+03</pdfrwt>
<totfact> 0.11076405E+05</totfact>
</mgrwt>
</event>
<event>
 4    2  0.3992997E+000  0.2942578E+03  0.7546771E-02  0.1088147E+00
         21   -1    0    0  501  502  0.00000000000E+00  0.00000000000E+00  0.52059618926E+03  0.52059618926E+03  0.00000000000E+00 0.  1.
         21   -1    0    0  502  503 -0.00000000000E+00 -0.00000000000E+00 -0.31301683981E+03  0.31301683981E+03  0.00000000000E+00 0.  1.
          6    1    1    2  501    0  0.23552484248E+03  0.34448205134E+02  0.38912473230E+03  0.48785826584E+03  0.17300000000E+03 0.  1.
         -6    1    1    2    0  503 -0.23552484248E+03 -0.34448205134E+02 -0.18154538285E+03  0.34575476323E+03  0.17300000000E+03 0.  1.
<mgrwt>
<rscale>  2 0.29425776E+03</rscale>
<asrwt>0</asrwt>
<pdfrwt beam="1">  1       21 0.80091722E-01 0.29425776E+03</pdfrwt>
<pdfrwt beam="2">  1       21 0.48156437E-01 0.29425776E+03</pdfrwt>
<totfact> 0.52978740E+03</totfact>
</mgrwt>
</event>
<event>
 4    2  0.3992997E+000  0.2023764E+03  0.7546771E-02  0.1147749E+00
         21   -1    0    0  503  502  0.00000000000E+00  0.00000000000E+00  0.37599321605E+02  0.37599321605E+02  0.00000000000E+00 0. -1.
         21   -1    0    0  501  503 -0.00000000000E+00 -0.00000000000E+00 -0.13260803922E+04  0.13260803922E+04  0.00000000000E+00 0. -1.
          6    1    1    2  501    0  0.42265539724E+02 -0.96129274816E+02 -0.35611080423E+03  0.40959872828E+03  0.17300000000E+03 0. -1.
         -6    1    1    2    0  502 -0.42265539724E+02  0.96129274816E+02 -0.93237026640E+03  0.95408098555E+03  0.17300000000E+03 0. -1.
<mgrwt>
<rscale>  2 0.20237641E+03</rscale>
<asrwt>0</asrwt>
<pdfrwt beam="1">  1       21 0.57845113E-02 0.20237641E+03</pdfrwt>
<pdfrwt beam="2">  1       21 0.20401236E+00 0.20237641E+03</pdfrwt>
<totfact> 0.26380279E+04</totfact>
</mgrwt>
</event>
<event>
 4    2  0.3992997E+000  0.1736511E+03  0.7546771E-02  0.1174093E+00
         21   -1    0    0  503  502  0.00000000000E+00  0.00000000000E+00  0.42507696611E+03  0.42507696611E+03  0.00000000000E+00 0.  1.
         21   -1    0    0  501  503 -0.00000000000E+00 -0.00000000000E+00 -0.22957917901E+03  0.22957917901E+03  0.00000000000E+00 0.  1.
          6    1    1    2  501    0 -0.13454804952E+02  0.66838784924E+01 -0.17434766481E+03  0.24607278239E+03  0.17300000000E+03 0.  1.
         -6    1    1    2    0  502  0.13454804952E+02 -0.66838784924E+01  0.36984545191E+03  0.40858336274E+03  0.17300000000E+03 0.  1.
<mgrwt>
<rscale>  2 0.17365110E+03</rscale>
<asrwt>0</asrwt>
<pdfrwt beam="1">  1       21 0.65396456E-01 0.17365110E+03</pdfrwt>
<pdfrwt beam="2">  1       21 0.35319874E-01 0.17365110E+03</pdfrwt>
<totfact> 0.16823475E+04</totfact>
</mgrwt>
</event>
<event>
 4    2  0.3992997E+000  0.1827159E+03  0.7546771E-02  0.1165200E+00
         21   -1    0    0  501  502  0.00000000000E+00  0.00000000000E+00  0.95528603692E+03  0.95528603692E+03  0.00000000000E+00 0.  1.
         21   -1    0    0  502  503 -0.00000000000E+00 -0.00000000000E+00 -0.34949760944E+02  0.34949760944E+02  0.00000000000E+00 0.  1.
          6    1    1    2  501    0 -0.16915784328E+02  0.56302425309E+02  0.45642153646E+03  0.49163576538E+03  0.17300000000E+03 0.  1.
         -6    1    1    2    0  503  0.16915784328E+02 -0.56302425309E+02  0.46391473952E+03  0.49860003249E+03  0.17300000000E+03 0.  1.
<mgrwt>
<rscale>  2 0.18271592E+03</rscale>
<asrwt>0</asrwt>
<pdfrwt beam="1">  1       21 0.14696706E+00 0.18271592E+03</pdfrwt>
<pdfrwt beam="2">  1       21 0.53768870E-02 0.18271592E+03</pdfrwt>
<totfact> 0.75356205E+04</totfact>
</mgrwt>
</event>
<event>
 4    2  0.3992997E+000  0.2039091E+03  0.7546771E-02  0.1146482E+00
         21   -1    0    0  503  502  0.00000000000E+00  0.00000000000E+00  0.13512552085E+03  0.13512552085E+03  0.00000000000E+00 0.  1.
         21   -1    0    0  501  503 -0.00000000000E+00 -0.00000000000E+00 -0.43345074885E+03  0.43345074885E+03  0.00000000000E+00 0. -1.
          6    1    1    2  501    0  0.81436784984E+02 -0.70837741536E+02 -0.30228326188E+03  0.36462872348E+03  0.17300000000E+03 0. -1.
         -6    1    1    2    0  502 -0.81436784984E+02  0.70837741536E+02  0.39580338826E+01  0.20394754621E+03  0.17300000000E+03 0.  1.
<mgrwt>
<rscale>  2 0.20390914E+03</rscale>
<asrwt>0</asrwt>
<pdfrwt beam="1">  1       21 0.20788542E-01 0.20390914E+03</pdfrwt>
<pdfrwt beam="2">  1       21 0.66684731E-01 0.20390914E+03</pdfrwt>
<totfact> 0.44004430E+04</totfact>
</mgrwt>
</event>
<event>
 4    2  0.3992997E+000  0.2158073E+03  0.7546771E-02  0.1137048E+00
         21   -1    0    0  503  502  0.00000000000E+00  0.00000000000E+00  0.14127834537E+03  0.14127834537E+03  0.00000000000E+00 0.  1.
         21   -1    0    0  501  503 -0.00000000000E+00 -0.00000000000E+00 -0.33656192924E+03  0.33656192924E+03  0.00000000000E+00 0. -1.
          6    1    1    2  501    0  0.95599852752E+02  0.86628395376E+02 -0.13187361326E+03  0.25290998518E+03  0.17300000000E+03 0. -1.
         -6    1    1    2    0  502 -0.95599852752E+02 -0.86628395376E+02 -0.63409970614E+02  0.22493028943E+03  0.17300000000E+03 0.  1.
<mgrwt>
<rscale>  2 0.21580735E+03</rscale>
<asrwt>0</asrwt>
<pdfrwt beam="1">  1       21 0.21735130E-01 0.21580735E+03</pdfrwt>
<pdfrwt beam="2">  1       21 0.51778757E-01 0.21580735E+03</pdfrwt>
<totfact> 0.69236967E+04</totfact>
</mgrwt>
</event>
<event>
 4    2  0.3992997E+000  0.1936599E+03  0.7546771E-02  0.1155201E+00
         21   -1    0    0  501  502  0.00000000000E+00  0.00000000000E+00  0.35509186052E+03  0.35509186052E+03  0.00000000000E+00 0. -1.
         21   -1    0    0  502  503 -0.00000000000E+00 -0.00000000000E+00 -0.17967523961E+03  0.17967523961E+03  0.00000000000E+00 0. -1.
          6    1    1    2  501    0 -0.69788419156E+02  0.52006925133E+02  0.25937020565E+03  0.32369282861E+03  0.17300000000E+03 0. -1.
         -6    1    1    2    0  503  0.69788419156E+02 -0.52006925133E+02 -0.83953584739E+02  0.21107427153E+03  0.17300000000E+03 0. -1.
<mgrwt>
<rscale>  2 0.19365987E+03</rscale>
<asrwt>0</asrwt>
<pdfrwt beam="1">  1       21 0.54629517E-01 0.19365987E+03</pdfrwt>
<pdfrwt beam="2">  1       21 0.27642345E-01 0.19365987E+03</pdfrwt>
<totfact> 0.39501370E+04</totfact>
</mgrwt>
</event>
<event>
 4    2  0.3992997E+000  0.3106897E+03  0.7546771E-02  0.1080016E+00
         21   -1    0    0  501  502  0.00000000000E+00  0.00000000000E+00  0.13238197011E+04  0.13238197011E+04  0.00000000000E+00 0.  1.
         21   -1    0    0  502  503 -0.00000000000E+00 -0.00000000000E+00 -0.46308747838E+03  0.46308747838E+03  0.00000000000E+00 0.  1.
          6    1    1    2  501    0  0.18367169036E+03 -0.18128367086E+03  0.12504684707E+04  0.12884872741E+04  0.17300000000E+03 0.  1.
         -6    1    1    2    0  503 -0.18367169036E+03  0.18128367086E+03 -0.38973624796E+03  0.49841990544E+03  0.17300000000E+03 0.  1.
<mgrwt>
<rscale>  2 0.31068965E+03</rscale>
<asrwt>0</asrwt>
<pdfrwt beam="1">  1       21 0.20366457E+00 0.31068965E+03</pdfrwt>
<pdfrwt beam="2">  1       21 0.71244228E-01 0.31068965E+03</pdfrwt>
<totfact> 0.20042811E+02</totfact>
</mgrwt>
</event>
<event>
 4    2  0.3992997E+000  0.2353446E+03  0.7546771E-02  0.1122934E+00
         21   -1    0    0  503  502  0.00000000000E+00  0.00000000000E+00  0.47003294308E+03  0.47003294308E+03  0.00000000000E+00 0. -1.
         21   -1    0    0  501  503 -0.00000000000E+00 -0.00000000000E+00 -0.13354477800E+03  0.13354477800E+03  0.00000000000E+00 0. -1.
          6    1    1    2  501    0 -0.12982288446E+03  0.92758209124E+02  0.64741028828E+02  0.24408700806E+03  0.17300000000E+03 0. -1.
         -6    1    1    2    0  502  0.12982288446E+03 -0.92758209124E+02  0.27174713625E+03  0.35949071302E+03  0.17300000000E+03 0. -1.
<mgrwt>
<rscale>  2 0.23534457E+03</rscale>
<asrwt>0</asrwt>
<pdfrwt beam="1">  1       21 0.72312760E-01 0.23534457E+03</pdfrwt>
<pdfrwt beam="2">  1       21 0.20545351E-01 0.23534457E+03</pdfrwt>
<totfact> 0.37052629E+04</totfact>
</mgrwt>
</event>
<event>
 4    2  0.3992997E+000  0.2850986E+03  0.7546771E-02  0.1092936E+00
         21   -1    0    0  503  502  0.00000000000E+00  0.00000000000E+00  0.73478142251E+03  0.73478142251E+03  0.00000000000E+00 0. -1.
         21   -1    0    0  501  503 -0.00000000000E+00 -0.00000000000E+00 -0.12946845529E+03  0.12946845529E+03  0.00000000000E+00 0.  1.
          6    1    1    2  501    0  0.17435727427E+03 -0.14474712839E+03  0.13777555881E+03  0.31664379809E+03  0.17300000000E+03 0.  1.
         -6    1    1    2    0  502 -0.17435727427E+03  0.14474712839E+03  0.46753740841E+03  0.54760607971E+03  0.17300000000E+03 0. -1.
<mgrwt>
<rscale>  2 0.28509856E+03</rscale>
<asrwt>0</asrwt>
<pdfrwt beam="1">  1       21 0.11304329E+00 0.28509856E+03</pdfrwt>
<pdfrwt beam="2">  1       21 0.19918224E-01 0.28509856E+03</pdfrwt>
<totfact> 0.13485385E+04</totfact>
</mgrwt>
</event>
<event>
 4    2  0.3992997E+000  0.2596282E+03  0.7546771E-02  0.1107367E+00
         21   -1    0    0  503  502  0.00000000000E+00  0.00000000000E+00  0.65547925177E+02  0.65547925177E+02  0.00000000000E+00 0.  1.
         21   -1    0    0  501  503 -0.00000000000E+00 -0.00000000000E+00 -0.10854331911E+04  0.10854331911E+04  0.00000000000E+00 0.  1.
          6    1    1    2  501    0  0.12131175810E+03 -0.15086829507E+03 -0.64190719794E+03  0.69242446222E+03  0.17300000000E+03 0.  1.
         -6    1    1    2    0  502 -0.12131175810E+03  0.15086829507E+03 -0.37797806801E+03  0.45855665409E+03  0.17300000000E+03 0.  1.
<mgrwt>
<rscale>  2 0.25962817E+03</rscale>
<asrwt>0</asrwt>
<pdfrwt beam="1">  1       21 0.10084297E-01 0.25962817E+03</pdfrwt>
<pdfrwt beam="2">  1       21 0.16698971E+00 0.25962817E+03</pdfrwt>
<totfact> 0.17169175E+04</totfact>
</mgrwt>
</event>
<event>
 4    2  0.3992997E+000  0.2097880E+03  0.7546771E-02  0.1141734E+00
         21   -1    0    0  503  502  0.00000000000E+00  0.00000000000E+00  0.42135198014E+03  0.42135198014E+03  0.00000000000E+00 0.  1.
         21   -1    0    0  501  503 -0.00000000000E+00 -0.00000000000E+00 -0.17450974052E+03  0.17450974052E+03  0.00000000000E+00 0. -1.
          6    1    1    2  501    0  0.10196914120E+03 -0.60698459924E+02 -0.65349356823E+02  0.21973062424E+03  0.17300000000E+03 0. -1.
         -6    1    1    2    0  502 -0.10196914120E+03  0.60698459924E+02  0.31219159644E+03  0.37613109641E+03  0.17300000000E+03 0.  1.
<mgrwt>
<rscale>  2 0.20978801E+03</rscale>
<asrwt>0</asrwt>
<pdfrwt beam="1">  1       21 0.64823381E-01 0.20978801E+03</pdfrwt>
<pdfrwt beam="2">  1       21 0.26847653E-01 0.20978801E+03</pdfrwt>
<totfact> 0.28693529E+04</totfact>
</mgrwt>
</event>
<event>
 4    2  0.3992997E+000  0.1850479E+03  0.7546771E-02  0.1163005E+00
         21   -1    0    0  503  502  0.00000000000E+00  0.00000000000E+00  0.48818353582E+02  0.48818353582E+02  0.00000000000E+00 0.  1.
         21   -1    0    0  501  503 -0.00000000000E+00 -0.00000000000E+00 -0.70183548872E+03  0.70183548872E+03  0.00000000000E+00 0. -1.
          6    1    1    2  501    0 -0.47828885740E+02 -0.45012572607E+02 -0.31750440378E+03  0.36749391889E+03  0.17300000000E+03 0. -1.
         -6    1    1    2    0  502  0.47828885740E+02  0.45012572607E+02 -0.33551273136E+03  0.38315992341E+03  0.17300000000E+03 0. -1.
<mgrwt>
<rscale>  2 0.18504792E+03</rscale>
<asrwt>0</asrwt>
<pdfrwt beam="1">  1       21 0.75105163E-02 0.18504792E+03</pdfrwt>
<pdfrwt beam="2">  1       21 0.10797469E+00 0.18504792E+03</pdfrwt>
<totfact> 0.91776090E+04</totfact>
</mgrwt>
</event>
<event>
 4    2  0.3992997E+000  0.2029238E+03  0.7546771E-02  0.1147295E+00
         21   -1    0    0  501  502  0.00000000000E+00  0.00000000000E+00  0.39752535636E+02  0.39752535636E+02  0.00000000000E+00 0. -1.
         21   -1    0    0  502  503 -0.00000000000E+00 -0.00000000000E+00 -0.11677462744E+04  0.11677462744E+04  0.00000000000E+00 0.  1.
          6    1    1    2  501    0  0.10313574797E+03  0.24740412287E+02 -0.36109693800E+03  0.41420896797E+03  0.17300000000E+03 0. -1.
         -6    1    1    2    0  503 -0.10313574797E+03 -0.24740412287E+02 -0.76689680075E+03  0.79328984206E+03  0.17300000000E+03 0.  1.
<mgrwt>
<rscale>  2 0.20292380E+03</rscale>
<asrwt>0</asrwt>
<pdfrwt beam="1">  1       21 0.61157757E-02 0.20292380E+03</pdfrwt>
<pdfrwt beam="2">  1       21 0.17965324E+00 0.20292380E+03</pdfrwt>
<totfact> 0.34677880E+04</totfact>
</mgrwt>
</event>
<event>
 4    2  0.3992997E+000  0.1936116E+03  0.7546771E-02  0.1155244E+00
         21   -1    0    0  503  502  0.00000000000E+00  0.00000000000E+00  0.12958416973E+03  0.12958416973E+03  0.00000000000E+00 0. -1.
         21   -1    0    0  501  503 -0.00000000000E+00 -0.00000000000E+00 -0.32325498188E+03  0.32325498188E+03  0.00000000000E+00 0. -1.
          6    1    1    2  501    0 -0.75846200883E+02  0.42471383010E+02 -0.17024498617E+03  0.25781547642E+03  0.17300000000E+03 0. -1.
         -6    1    1    2    0  502  0.75846200883E+02 -0.42471383010E+02 -0.23425825982E+02  0.19502367519E+03  0.17300000000E+03 0. -1.
<mgrwt>
<rscale>  2 0.19361163E+03</rscale>
<asrwt>0</asrwt>
<pdfrwt beam="1">  1       21 0.19936026E-01 0.19361163E+03</pdfrwt>
<pdfrwt beam="2">  1       21 0.49731535E-01 0.19361163E+03</pdfrwt>
<totfact> 0.89453162E+04</totfact>
</mgrwt>
</event>
<event>
 4    2  0.3992997E+000  0.2010493E+03  0.7546771E-02  0.1148857E+00
         21   -1    0    0  501  502  0.00000000000E+00  0.00000000000E+00  0.28672119238E+03  0.28672119238E+03  0.00000000000E+00 0.  1.
         21   -1    0    0  502  503 -0.00000000000E+00 -0.00000000000E+00 -0.17381672205E+03  0.17381672205E+03  0.00000000000E+00 0.  1.
          6    1    1    2  501    0 -0.83198084115E+01  0.10209123412E+03  0.15654327844E+03  0.25480705901E+03  0.17300000000E+03 0.  1.
         -6    1    1    2    0  503  0.83198084115E+01 -0.10209123412E+03 -0.43638808109E+02  0.20573085542E+03  0.17300000000E+03 0.  1.
<mgrwt>
<rscale>  2 0.20104935E+03</rscale>
<asrwt>0</asrwt>
<pdfrwt beam="1">  1       21 0.44110953E-01 0.20104935E+03</pdfrwt>
<pdfrwt beam="2">  1       21 0.26741034E-01 0.20104935E+03</pdfrwt>
<totfact> 0.65474121E+04</totfact>
</mgrwt>
</event>
<event>
 4    2  0.3992997E+000  0.1829481E+03  0.7546771E-02  0.1164980E+00
         21   -1    0    0  503  502  0.00000000000E+00  0.00000000000E+00  0.54920860859E+02  0.54920860859E+02  0.00000000000E+00 0. -1.
         21   -1    0    0  501  503 -0.00000000000E+00 -0.00000000000E+00 -0.77528985580E+03  0.77528985580E+03  0.00000000000E+00 0. -1.
          6    1    1    2  501    0  0.21274315932E+01 -0.59468235936E+02 -0.55218705699E+03  0.58170485897E+03  0.17300000000E+03 0. -1.
         -6    1    1    2    0  502 -0.21274315932E+01  0.59468235936E+02 -0.16818193796E+03  0.24850585769E+03  0.17300000000E+03 0. -1.
<mgrwt>
<rscale>  2 0.18294807E+03</rscale>
<asrwt>0</asrwt>
<pdfrwt beam="1">  1       21 0.84493633E-02 0.18294807E+03</pdfrwt>
<pdfrwt beam="2">  1       21 0.11927536E+00 0.18294807E+03</pdfrwt>
<totfact> 0.58766911E+04</totfact>
</mgrwt>
</event>
<event>
 4    2  0.3992997E+000  0.1886907E+03  0.7546771E-02  0.1159648E+00
         21   -1    0    0  503  502  0.00000000000E+00  0.00000000000E+00  0.41804849123E+03  0.41804849123E+03  0.00000000000E+00 0. -1.
         21   -1    0    0  501  503 -0.00000000000E+00 -0.00000000000E+00 -0.22428767451E+03  0.22428767451E+03  0.00000000000E+00 0. -1.
          6    1    1    2  501    0  0.22773460366E+02 -0.71808998363E+02 -0.15606375667E+03  0.24486743125E+03  0.17300000000E+03 0. -1.
         -6    1    1    2    0  502 -0.22773460366E+02  0.71808998363E+02  0.34982457339E+03  0.39746873448E+03  0.17300000000E+03 0. -1.
<mgrwt>
<rscale>  2 0.18869065E+03</rscale>
<asrwt>0</asrwt>
<pdfrwt beam="1">  1       21 0.64315152E-01 0.18869065E+03</pdfrwt>
<pdfrwt beam="2">  1       21 0.34505796E-01 0.18869065E+03</pdfrwt>
<totfact> 0.18096586E+04</totfact>
</mgrwt>
</event>
<event>
 4    2  0.3992997E+000  0.1791163E+03  0.7546771E-02  0.1168661E+00
         21   -1    0    0  501  502  0.00000000000E+00  0.00000000000E+00  0.12441124599E+03  0.12441124599E+03  0.00000000000E+00 0.  1.
         21   -1    0    0  502  503 -0.00000000000E+00 -0.00000000000E+00 -0.65496274427E+03  0.65496274427E+03  0.00000000000E+00 0.  1.
          6    1    1    2  501    0  0.11104859415E+02  0.45059015624E+02  0.38148643927E+02  0.18313369932E+03  0.17300000000E+03 0.  1.
         -6    1    1    2    0  503 -0.11104859415E+02 -0.45059015624E+02 -0.56870014221E+03  0.59624029094E+03  0.17300000000E+03 0.  1.
<mgrwt>
<rscale>  2 0.17911625E+03</rscale>
<asrwt>0</asrwt>
<pdfrwt beam="1">  1       21 0.19140192E-01 0.17911625E+03</pdfrwt>
<pdfrwt beam="2">  1       21 0.10076350E+00 0.17911625E+03</pdfrwt>
<totfact> 0.20369031E+04</totfact>
</mgrwt>
</event>
<event>
 4    2  0.3992997E+000  0.2452444E+03  0.7546771E-02  0.1116348E+00
         21   -1    0    0  501  502  0.00000000000E+00  0.00000000000E+00  0.18381085456E+03  0.18381085456E+03  0.00000000000E+00 0. -1.
         21   -1    0    0  502  503 -0.00000000000E+00 -0.00000000000E+00 -0.53516575339E+03  0.53516575339E+03  0.00000000000E+00 0. -1.
          6    1    1    2  501    0 -0.10458397202E+03 -0.13884523639E+03  0.48414241434E+02  0.24997749028E+03  0.17300000000E+03 0. -1.
         -6    1    1    2    0  503  0.10458397202E+03  0.13884523639E+03 -0.39976914026E+03  0.46899911767E+03  0.17300000000E+03 0. -1.
<mgrwt>
<rscale>  2 0.24524438E+03</rscale>
<asrwt>0</asrwt>
<pdfrwt beam="1">  1       21 0.28278594E-01 0.24524438E+03</pdfrwt>
<pdfrwt beam="2">  1       21 0.82333191E-01 0.24524438E+03</pdfrwt>
<totfact> 0.14930220E+04</totfact>
</mgrwt>
</event>
<event>
 4    2  0.3992997E+000  0.2141535E+03  0.7546771E-02  0.1138318E+00
         21   -1    0    0  503  502  0.00000000000E+00  0.00000000000E+00  0.30484241060E+03  0.30484241060E+03  0.00000000000E+00 0.  1.
         21   -1    0    0  501  503 -0.00000000000E+00 -0.00000000000E+00 -0.19869204663E+03  0.19869204663E+03  0.00000000000E+00 0.  1.
          6    1    1    2  501    0  0.12614083990E+03  0.46076290827E+01 -0.70989561140E+02  0.22561307481E+03  0.17300000000E+03 0.  1.
         -6    1    1    2    0  502 -0.12614083990E+03 -0.46076290827E+01  0.17713992511E+03  0.27792138242E+03  0.17300000000E+03 0.  1.
<mgrwt>
<rscale>  2 0.21415355E+03</rscale>
<asrwt>0</asrwt>
<pdfrwt beam="1">  1       21 0.46898833E-01 0.21415355E+03</pdfrwt>
<pdfrwt beam="2">  1       21 0.30568007E-01 0.21415355E+03</pdfrwt>
<totfact> 0.44236446E+04</totfact>
</mgrwt>
</event>
<event>
 4    2  0.3992997E+000  0.1847323E+03  0.7546771E-02  0.1163300E+00
         21   -1    0    0  501  502  0.00000000000E+00  0.00000000000E+00  0.84933043171E+02  0.84933043171E+02  0.00000000000E+00 0. -1.
         21   -1    0    0  502  503 -0.00000000000E+00 -0.00000000000E+00 -0.44040635062E+03  0.44040635062E+03  0.00000000000E+00 0. -1.
          6    1    1    2  501    0  0.43719701939E+02 -0.47808219466E+02 -0.99965876385E+02  0.21004574413E+03  0.17300000000E+03 0. -1.
         -6    1    1    2    0  503 -0.43719701939E+02  0.47808219466E+02 -0.25550743106E+03  0.31529364965E+03  0.17300000000E+03 0. -1.
<mgrwt>
<rscale>  2 0.18473234E+03</rscale>
<asrwt>0</asrwt>
<pdfrwt beam="1">  1       21 0.13066622E-01 0.18473234E+03</pdfrwt>
<pdfrwt beam="2">  1       21 0.67754823E-01 0.18473234E+03</pdfrwt>
<totfact> 0.10056146E+05</totfact>
</mgrwt>
</event>
<event>
 4    2  0.3992997E+000  0.2810975E+03  0.7546771E-02  0.1095091E+00
         21   -1    0    0  501  502  0.00000000000E+00  0.00000000000E+00  0.29049312067E+03  0.29049312067E+03  0.00000000000E+00 0.  1.
         21   -1    0    0  502  503 -0.00000000000E+00 -0.00000000000E+00 -0.28794188377E+03  0.28794188377E+03  0.00000000000E+00 0. -1.
          6    1    1    2  501    0 -0.60613229371E+02 -0.21310286995E+03  0.69315530939E+02  0.28951759806E+03  0.17300000000E+03 0.  1.
         -6    1    1    2    0  503  0.60613229371E+02  0.21310286995E+03 -0.66764294040E+02  0.28891740639E+03  0.17300000000E+03 0.  1.
<mgrwt>
<rscale>  2 0.28109749E+03</rscale>
<asrwt>0</asrwt>
<pdfrwt beam="1">  1       21 0.44691250E-01 0.28109749E+03</pdfrwt>
<pdfrwt beam="2">  1       21 0.44298751E-01 0.28109749E+03</pdfrwt>
<totfact> 0.22504697E+04</totfact>
</mgrwt>
</event>
<event>
 4    2  0.3992997E+000  0.1742953E+03  0.7546771E-02  0.1173441E+00
         21   -1    0    0  501  502  0.00000000000E+00  0.00000000000E+00  0.27194389393E+03  0.27194389393E+03  0.00000000000E+00 0.  1.
         21   -1    0    0  502  503 -0.00000000000E+00 -0.00000000000E+00 -0.24248990212E+03  0.24248990212E+03  0.00000000000E+00 0.  1.
          6    1    1    2  501    0  0.16806861548E+02  0.12937732185E+02  0.20362316586E+03  0.26803217938E+03  0.17300000000E+03 0.  1.
         -6    1    1    2    0  503 -0.16806861548E+02 -0.12937732185E+02 -0.17416917405E+03  0.24640161667E+03  0.17300000000E+03 0.  1.
<mgrwt>
<rscale>  2 0.17429531E+03</rscale>
<asrwt>0</asrwt>
<pdfrwt beam="1">  1       21 0.41837522E-01 0.17429531E+03</pdfrwt>
<pdfrwt beam="2">  1       21 0.37306139E-01 0.17429531E+03</pdfrwt>
<totfact> 0.38469357E+04</totfact>
</mgrwt>
</event>
<event>
 4    2  0.3992997E+000  0.1736347E+03  0.7546771E-02  0.1174110E+00
         21   -1    0    0  503  502  0.00000000000E+00  0.00000000000E+00  0.39257837449E+03  0.39257837449E+03  0.00000000000E+00 0.  1.
         21   -1    0    0  501  503 -0.00000000000E+00 -0.00000000000E+00 -0.24842917128E+03  0.24842917128E+03  0.00000000000E+00 0.  1.
          6    1    1    2  501    0  0.14278152943E+02  0.40165710047E+01 -0.19432323468E+03  0.26059646588E+03  0.17300000000E+03 0.  1.
         -6    1    1    2    0  502 -0.14278152943E+02 -0.40165710047E+01  0.33847243789E+03  0.38041107989E+03  0.17300000000E+03 0.  1.
<mgrwt>
<rscale>  2 0.17363467E+03</rscale>
<asrwt>0</asrwt>
<pdfrwt beam="1">  1       21 0.60396673E-01 0.17363467E+03</pdfrwt>
<pdfrwt beam="2">  1       21 0.38219873E-01 0.17363467E+03</pdfrwt>
<totfact> 0.17068845E+04</totfact>
</mgrwt>
</event>
<event>
 4    2  0.3992997E+000  0.1976759E+03  0.7546771E-02  0.1151715E+00
         21   -1    0    0  501  502  0.00000000000E+00  0.00000000000E+00  0.29449973477E+03  0.29449973477E+03  0.00000000000E+00 0. -1.
         21   -1    0    0  502  503 -0.00000000000E+00 -0.00000000000E+00 -0.35563692496E+03  0.35563692496E+03  0.00000000000E+00 0. -1.
          6    1    1    2  501    0  0.51029006846E+02 -0.80887483673E+02  0.22681252922E+03  0.30086486662E+03  0.17300000000E+03 0. -1.
         -6    1    1    2    0  503 -0.51029006846E+02  0.80887483673E+02 -0.28794971941E+03  0.34927179311E+03  0.17300000000E+03 0. -1.
<mgrwt>
<rscale>  2 0.19767586E+03</rscale>
<asrwt>0</asrwt>
<pdfrwt beam="1">  1       21 0.45307652E-01 0.19767586E+03</pdfrwt>
<pdfrwt beam="2">  1       21 0.54713373E-01 0.19767586E+03</pdfrwt>
<totfact> 0.14689903E+04</totfact>
</mgrwt>
</event>
<event>
 4    2  0.3992997E+000  0.2534969E+03  0.7546771E-02  0.1111115E+00
         21   -1    0    0  501  502  0.00000000000E+00  0.00000000000E+00  0.10097027456E+04  0.10097027456E+04  0.00000000000E+00 0.  1.
         21   -1    0    0  502  503 -0.00000000000E+00 -0.00000000000E+00 -0.44847485871E+03  0.44847485871E+03  0.00000000000E+00 0.  1.
          6    1    1    2  501    0 -0.18474109123E+03 -0.14226267784E+02  0.95599178070E+03  0.98903030401E+03  0.17300000000E+03 0.  1.
         -6    1    1    2    0  503  0.18474109123E+03  0.14226267784E+02 -0.39476389383E+03  0.46914730027E+03  0.17300000000E+03 0.  1.
<mgrwt>
<rscale>  2 0.25349686E+03</rscale>
<asrwt>0</asrwt>
<pdfrwt beam="1">  1       21 0.15533888E+00 0.25349686E+03</pdfrwt>
<pdfrwt beam="2">  1       21 0.68996132E-01 0.25349686E+03</pdfrwt>
<totfact> 0.49006772E+02</totfact>
</mgrwt>
</event>
<event>
 4    2  0.3992997E+000  0.2450327E+03  0.7546771E-02  0.1116485E+00
         21   -1    0    0  501  502  0.00000000000E+00  0.00000000000E+00  0.11817270574E+03  0.11817270574E+03  0.00000000000E+00 0. -1.
         21   -1    0    0  502  503 -0.00000000000E+00 -0.00000000000E+00 -0.64959992395E+03  0.64959992395E+03  0.00000000000E+00 0. -1.
          6    1    1    2  501    0 -0.11644068587E+03  0.12866075004E+03 -0.86533167973E+02  0.25986344700E+03  0.17300000000E+03 0. -1.
         -6    1    1    2    0  503  0.11644068587E+03 -0.12866075004E+03 -0.44489405024E+03  0.50790918269E+03  0.17300000000E+03 0. -1.
<mgrwt>
<rscale>  2 0.24503270E+03</rscale>
<asrwt>0</asrwt>
<pdfrwt beam="1">  1       21 0.18180416E-01 0.24503270E+03</pdfrwt>
<pdfrwt beam="2">  1       21 0.99938450E-01 0.24503270E+03</pdfrwt>
<totfact> 0.22006374E+04</totfact>
</mgrwt>
</event>
<event>
 4    2  0.3992997E+000  0.1786511E+03  0.7546771E-02  0.1169115E+00
         21   -1    0    0  501  502  0.00000000000E+00  0.00000000000E+00  0.22743028918E+03  0.22743028918E+03  0.00000000000E+00 0.  1.
         21   -1    0    0  502  503 -0.00000000000E+00 -0.00000000000E+00 -0.16887691198E+03  0.16887691198E+03  0.00000000000E+00 0.  1.
          6    1    1    2  501    0  0.32071588314E+02 -0.30961951565E+02  0.11074056353E+03  0.21018968013E+03  0.17300000000E+03 0.  1.
         -6    1    1    2    0  503 -0.32071588314E+02  0.30961951565E+02 -0.52187186327E+02  0.18611752104E+03  0.17300000000E+03 0.  1.
<mgrwt>
<rscale>  2 0.17865114E+03</rscale>
<asrwt>0</asrwt>
<pdfrwt beam="1">  1       21 0.34989276E-01 0.17865114E+03</pdfrwt>
<pdfrwt beam="2">  1       21 0.25981063E-01 0.17865114E+03</pdfrwt>
<totfact> 0.11136437E+05</totfact>
</mgrwt>
</event>
<event>
 4    2  0.3992997E+000  0.2020970E+03  0.7546771E-02  0.1147982E+00
         21   -1    0    0  503  502  0.00000000000E+00  0.00000000000E+00  0.60350891643E+02  0.60350891643E+02  0.00000000000E+00 0.  1.
         21   -1    0    0  501  503 -0.00000000000E+00 -0.00000000000E+00 -0.69421589836E+03  0.69421589836E+03  0.00000000000E+00 0. -1.
          6    1    1    2  501    0  0.61911602197E+02  0.84149598749E+02 -0.25711003890E+03  0.32703023341E+03  0.17300000000E+03 0. -1.
         -6    1    1    2    0  502 -0.61911602197E+02 -0.84149598749E+02 -0.37675496781E+03  0.42753655660E+03  0.17300000000E+03 0. -1.
<mgrwt>
<rscale>  2 0.20209701E+03</rscale>
<asrwt>0</asrwt>
<pdfrwt beam="1">  1       21 0.92847530E-02 0.20209701E+03</pdfrwt>
<pdfrwt beam="2">  1       21 0.10680244E+00 0.20209701E+03</pdfrwt>
<totfact> 0.64559742E+04</totfact>
</mgrwt>
</event>
<event>
 4    2  0.3992997E+000  0.2190019E+03  0.7546771E-02  0.1134629E+00
         21   -1    0    0  501  502  0.00000000000E+00  0.00000000000E+00  0.22578672551E+03  0.22578672551E+03  0.00000000000E+00 0.  1.
         21   -1    0    0  502  503 -0.00000000000E+00 -0.00000000000E+00 -0.26280482798E+03  0.26280482798E+03  0.00000000000E+00 0. -1.
          6    1    1    2  501    0  0.13186599028E+03  0.25380715677E+02  0.88456833531E+02  0.23619151449E+03  0.17300000000E+03 0.  1.
         -6    1    1    2    0  503 -0.13186599028E+03 -0.25380715677E+02 -0.12547493600E+03  0.25240003900E+03  0.17300000000E+03 0. -1.
<mgrwt>
<rscale>  2 0.21900187E+03</rscale>
<asrwt>0</asrwt>
<pdfrwt beam="1">  1       21 0.34736419E-01 0.21900187E+03</pdfrwt>
<pdfrwt beam="2">  1       21 0.40431512E-01 0.21900187E+03</pdfrwt>
<totfact> 0.46489931E+04</totfact>
</mgrwt>
</event>
<event>
 4    2  0.3992997E+000  0.2410823E+03  0.7546771E-02  0.1119074E+00
         21   -1    0    0  501  502  0.00000000000E+00  0.00000000000E+00  0.27963551784E+03  0.27963551784E+03  0.00000000000E+00 0. -1.
         21   -1    0    0  502  503 -0.00000000000E+00 -0.00000000000E+00 -0.31051607480E+03  0.31051607480E+03  0.00000000000E+00 0. -1.
          6    1    1    2  501    0 -0.16766614118E+03 -0.89293142266E+01  0.15423436069E+03  0.28619731929E+03  0.17300000000E+03 0. -1.
         -6    1    1    2    0  503  0.16766614118E+03  0.89293142266E+01 -0.18511491765E+03  0.30395427335E+03  0.17300000000E+03 0. -1.
<mgrwt>
<rscale>  2 0.24108228E+03</rscale>
<asrwt>0</asrwt>
<pdfrwt beam="1">  1       21 0.43020849E-01 0.24108228E+03</pdfrwt>
<pdfrwt beam="2">  1       21 0.47771704E-01 0.24108228E+03</pdfrwt>
<totfact> 0.21193969E+04</totfact>
</mgrwt>
</event>
<event>
 4    2  0.3992997E+000  0.1885836E+03  0.7546771E-02  0.1159745E+00
         21   -1    0    0  503  502  0.00000000000E+00  0.00000000000E+00  0.14922857183E+04  0.14922857183E+04  0.00000000000E+00 0. -1.
         21   -1    0    0  501  503 -0.00000000000E+00 -0.00000000000E+00 -0.23876373483E+02  0.23876373483E+02  0.00000000000E+00 0. -1.
          6    1    1    2  501    0 -0.32208594090E+02 -0.67803874749E+02  0.70142668264E+03  0.72633542533E+03  0.17300000000E+03 0. -1.
         -6    1    1    2    0  502  0.32208594090E+02  0.67803874749E+02  0.76698266213E+03  0.78982666641E+03  0.17300000000E+03 0. -1.
<mgrwt>
<rscale>  2 0.18858356E+03</rscale>
<asrwt>0</asrwt>
<pdfrwt beam="1">  1       21 0.22958234E+00 0.18858356E+03</pdfrwt>
<pdfrwt beam="2">  1       21 0.36732894E-02 0.18858356E+03</pdfrwt>
<totfact> 0.39871571E+04</totfact>
</mgrwt>
</event>
<event>
 4    2  0.3992997E+000  0.4295861E+03  0.7546771E-02  0.1033991E+00
         21   -1    0    0  503  502  0.00000000000E+00  0.00000000000E+00  0.48151083413E+03  0.48151083413E+03  0.00000000000E+00 0. -1.
         21   -1    0    0  501  503 -0.00000000000E+00 -0.00000000000E+00 -0.39663504202E+03  0.39663504202E+03  0.00000000000E+00 0.  1.
          6    1    1    2  501    0 -0.39314731819E+03  0.71010343458E+01  0.12306393953E+03  0.44686571999E+03  0.17300000000E+03 0. -1.
         -6    1    1    2    0  502  0.39314731819E+03 -0.71010343458E+01 -0.38188147413E+02  0.43128015616E+03  0.17300000000E+03 0.  1.
<mgrwt>
<rscale>  2 0.42958612E+03</rscale>
<asrwt>0</asrwt>
<pdfrwt beam="1">  1       21 0.74078590E-01 0.42958612E+03</pdfrwt>
<pdfrwt beam="2">  1       21 0.61020776E-01 0.42958612E+03</pdfrwt>
<totfact> 0.35952346E+03</totfact>
</mgrwt>
</event>
<event>
 4    2  0.3992997E+000  0.1833634E+03  0.7546771E-02  0.1164587E+00
         21   -1    0    0  503  502  0.00000000000E+00  0.00000000000E+00  0.31405232462E+03  0.31405232462E+03  0.00000000000E+00 0.  1.
         21   -1    0    0  501  503 -0.00000000000E+00 -0.00000000000E+00 -0.11633631469E+03  0.11633631469E+03  0.00000000000E+00 0.  1.
          6    1    1    2  501    0 -0.34154645134E+02 -0.50265321249E+02  0.38088847217E+02  0.18727760834E+03  0.17300000000E+03 0.  1.
         -6    1    1    2    0  502  0.34154645134E+02  0.50265321249E+02  0.15962716271E+03  0.24311103097E+03  0.17300000000E+03 0.  1.
<mgrwt>
<rscale>  2 0.18336342E+03</rscale>
<asrwt>0</asrwt>
<pdfrwt beam="1">  1       21 0.48315742E-01 0.18336342E+03</pdfrwt>
<pdfrwt beam="2">  1       21 0.17897895E-01 0.18336342E+03</pdfrwt>
<totfact> 0.11648261E+05</totfact>
</mgrwt>
</event>
<event>
 4    2  0.3992997E+000  0.1807926E+03  0.7546771E-02  0.1167038E+00
         21   -1    0    0  503  502  0.00000000000E+00  0.00000000000E+00  0.96733796727E+02  0.96733796727E+02  0.00000000000E+00 0. -1.
         21   -1    0    0  501  503 -0.00000000000E+00 -0.00000000000E+00 -0.33844558619E+03  0.33844558619E+03  0.00000000000E+00 0. -1.
          6    1    1    2  501    0  0.41835644004E+02 -0.31729250949E+02 -0.12962383364E+03  0.22245966988E+03  0.17300000000E+03 0. -1.
         -6    1    1    2    0  502 -0.41835644004E+02  0.31729250949E+02 -0.11208795582E+03  0.21271971304E+03  0.17300000000E+03 0. -1.
<mgrwt>
<rscale>  2 0.18079261E+03</rscale>
<asrwt>0</asrwt>
<pdfrwt beam="1">  1       21 0.14882123E-01 0.18079261E+03</pdfrwt>
<pdfrwt beam="2">  1       21 0.52068552E-01 0.18079261E+03</pdfrwt>
<totfact> 0.13986702E+05</totfact>
</mgrwt>
</event>
<event>
 4    2  0.3992997E+000  0.2511464E+03  0.7546771E-02  0.1112582E+00
         21   -1    0    0  503  502  0.00000000000E+00  0.00000000000E+00  0.95855716565E+02  0.95855716565E+02  0.00000000000E+00 0.  1.
         21   -1    0    0  501  503 -0.00000000000E+00 -0.00000000000E+00 -0.84828729353E+03  0.84828729353E+03  0.00000000000E+00 0.  1.
          6    1    1    2  501    0 -0.11851930560E+03  0.13819806920E+03 -0.15264055560E+03  0.29389397977E+03  0.17300000000E+03 0.  1.
         -6    1    1    2    0  502  0.11851930560E+03 -0.13819806920E+03 -0.59979102136E+03  0.65024903032E+03  0.17300000000E+03 0.  1.
<mgrwt>
<rscale>  2 0.25114644E+03</rscale>
<asrwt>0</asrwt>
<pdfrwt beam="1">  1       21 0.14747033E-01 0.25114644E+03</pdfrwt>
<pdfrwt beam="2">  1       21 0.13050574E+00 0.25114644E+03</pdfrwt>
<totfact> 0.16715429E+04</totfact>
</mgrwt>
</event>
<event>
 4    2  0.3992997E+000  0.1764567E+03  0.7546771E-02  0.1171277E+00
         21   -1    0    0  503  502  0.00000000000E+00  0.00000000000E+00  0.92014015026E+02  0.92014015026E+02  0.00000000000E+00 0. -1.
         21   -1    0    0  501  503 -0.00000000000E+00 -0.00000000000E+00 -0.55042045897E+03  0.55042045897E+03  0.00000000000E+00 0. -1.
          6    1    1    2  501    0  0.17242942931E+02 -0.30177212071E+02 -0.42856719068E+03  0.46347256675E+03  0.17300000000E+03 0. -1.
         -6    1    1    2    0  502 -0.17242942931E+02  0.30177212071E+02 -0.29839253271E+02  0.17896190725E+03  0.17300000000E+03 0. -1.
<mgrwt>
<rscale>  2 0.17645675E+03</rscale>
<asrwt>0</asrwt>
<pdfrwt beam="1">  1       21 0.14156003E-01 0.17645675E+03</pdfrwt>
<pdfrwt beam="2">  1       21 0.84680068E-01 0.17645675E+03</pdfrwt>
<totfact> 0.53086034E+04</totfact>
</mgrwt>
</event>
<event>
 4    2  0.3992997E+000  0.1981109E+03  0.7546771E-02  0.1151343E+00
         21   -1    0    0  501  502  0.00000000000E+00  0.00000000000E+00  0.66735936041E+03  0.66735936041E+03  0.00000000000E+00 0. -1.
         21   -1    0    0  502  503 -0.00000000000E+00 -0.00000000000E+00 -0.66646914634E+02  0.66646914634E+02  0.00000000000E+00 0.  1.
          6    1    1    2  501    0  0.58957858560E+02 -0.76438808486E+02  0.17451270127E+03  0.26401250620E+03  0.17300000000E+03 0.  1.
         -6    1    1    2    0  503 -0.58957858560E+02  0.76438808486E+02  0.42619974451E+03  0.46999376884E+03  0.17300000000E+03 0. -1.
<mgrwt>
<rscale>  2 0.19811088E+03</rscale>
<asrwt>0</asrwt>
<pdfrwt beam="1">  1       21 0.10267067E+00 0.19811088E+03</pdfrwt>
<pdfrwt beam="2">  1       21 0.10253372E-01 0.19811088E+03</pdfrwt>
<totfact> 0.59691042E+04</totfact>
</mgrwt>
</event>
<event>
 4    2  0.3992997E+000  0.2091687E+03  0.7546771E-02  0.1142226E+00
         21   -1    0    0  503  502  0.00000000000E+00  0.00000000000E+00  0.52204964125E+03  0.52204964125E+03  0.00000000000E+00 0. -1.
         21   -1    0    0  501  503 -0.00000000000E+00 -0.00000000000E+00 -0.13532080476E+03  0.13532080476E+03  0.00000000000E+00 0. -1.
          6    1    1    2  501    0 -0.10872134605E+03  0.44746093296E+02 -0.94312435890E+01  0.20938121288E+03  0.17300000000E+03 0. -1.
         -6    1    1    2    0  502  0.10872134605E+03 -0.44746093296E+02  0.39616008007E+03  0.44798923313E+03  0.17300000000E+03 0. -1.
<mgrwt>
<rscale>  2 0.20916870E+03</rscale>
<asrwt>0</asrwt>
<pdfrwt beam="1">  1       21 0.80315329E-01 0.20916870E+03</pdfrwt>
<pdfrwt beam="2">  1       21 0.20818586E-01 0.20916870E+03</pdfrwt>
<totfact> 0.28921948E+04</totfact>
</mgrwt>
</event>
<event>
 4    2  0.3992997E+000  0.1869753E+03  0.7546771E-02  0.1161218E+00
         21   -1    0    0  501  502  0.00000000000E+00  0.00000000000E+00  0.82884550070E+02  0.82884550070E+02  0.00000000000E+00 0. -1.
         21   -1    0    0  502  503 -0.00000000000E+00 -0.00000000000E+00 -0.50046857456E+03  0.50046857456E+03  0.00000000000E+00 0.  1.
          6    1    1    2  501    0  0.67287854689E+02 -0.22430057262E+02 -0.32444186426E+03  0.37446266322E+03  0.17300000000E+03 0.  1.
         -6    1    1    2    0  503 -0.67287854689E+02  0.22430057262E+02 -0.93142160226E+02  0.20889046141E+03  0.17300000000E+03 0. -1.
<mgrwt>
<rscale>  2 0.18697530E+03</rscale>
<asrwt>0</asrwt>
<pdfrwt beam="1">  1       21 0.12751469E-01 0.18697530E+03</pdfrwt>
<pdfrwt beam="2">  1       21 0.76995164E-01 0.18697530E+03</pdfrwt>
<totfact> 0.79086091E+04</totfact>
</mgrwt>
</event>
<event>
 4    2  0.3992997E+000  0.2108442E+03  0.7546771E-02  0.1140899E+00
         21   -1    0    0  503  502  0.00000000000E+00  0.00000000000E+00  0.75838712701E+03  0.75838712701E+03  0.00000000000E+00 0.  1.
         21   -1    0    0  501  503 -0.00000000000E+00 -0.00000000000E+00 -0.62203173278E+02  0.62203173278E+02  0.00000000000E+00 0. -1.
          6    1    1    2  501    0 -0.12046764834E+03  0.37195279218E+01  0.24959270887E+03  0.32672895419E+03  0.17300000000E+03 0. -1.
         -6    1    1    2    0  502  0.12046764834E+03 -0.37195279218E+01  0.44659124486E+03  0.49386134610E+03  0.17300000000E+03 0.  1.
<mgrwt>
<rscale>  2 0.21084423E+03</rscale>
<asrwt>0</asrwt>
<pdfrwt beam="1">  1       21 0.11667494E+00 0.21084423E+03</pdfrwt>
<pdfrwt beam="2">  1       21 0.95697195E-02 0.21084423E+03</pdfrwt>
<totfact> 0.49156140E+04</totfact>
</mgrwt>
</event>
<event>
 4    2  0.3992997E+000  0.2148094E+03  0.7546771E-02  0.1137813E+00
         21   -1    0    0  503  502  0.00000000000E+00  0.00000000000E+00  0.77859771688E+03  0.77859771688E+03  0.00000000000E+00 0.  1.
         21   -1    0    0  501  503 -0.00000000000E+00 -0.00000000000E+00 -0.12223213862E+03  0.12223213862E+03  0.00000000000E+00 0.  1.
          6    1    1    2  501    0  0.12303805833E+03 -0.32797935553E+02  0.65146319022E+03  0.68596454470E+03  0.17300000000E+03 0.  1.
         -6    1    1    2    0  502 -0.12303805833E+03  0.32797935553E+02  0.49023880426E+01  0.21486531080E+03  0.17300000000E+03 0.  1.
<mgrwt>
<rscale>  2 0.21480938E+03</rscale>
<asrwt>0</asrwt>
<pdfrwt beam="1">  1       21 0.11978426E+00 0.21480938E+03</pdfrwt>
<pdfrwt beam="2">  1       21 0.18804945E-01 0.21480938E+03</pdfrwt>
<totfact> 0.13531324E+04</totfact>
</mgrwt>
</event>
<event>
 4    2  0.3992997E+000  0.1966088E+03  0.7546771E-02  0.1152632E+00
         21   -1    0    0  503  502  0.00000000000E+00  0.00000000000E+00  0.19931910256E+04  0.19931910256E+04  0.00000000000E+00 0. -1.
         21   -1    0    0  501  503 -0.00000000000E+00 -0.00000000000E+00 -0.32836901842E+02  0.32836901842E+02  0.00000000000E+00 0. -1.
          6    1    1    2  501    0  0.78599134110E+02 -0.50479721739E+02  0.33200796879E+03  0.38585530647E+03  0.17300000000E+03 0. -1.
         -6    1    1    2    0  502 -0.78599134110E+02  0.50479721739E+02  0.16283461549E+04  0.16401726209E+04  0.17300000000E+03 0. -1.
<mgrwt>
<rscale>  2 0.19660882E+03</rscale>
<asrwt>0</asrwt>
<pdfrwt beam="1">  1       21 0.30664468E+00 0.19660882E+03</pdfrwt>
<pdfrwt beam="2">  1       21 0.50518326E-02 0.19660882E+03</pdfrwt>
<totfact> 0.82257151E+03</totfact>
</mgrwt>
</event>
<event>
 4    2  0.3992997E+000  0.2129501E+03  0.7546771E-02  0.1139251E+00
         21   -1    0    0  501  502  0.00000000000E+00  0.00000000000E+00  0.65773564961E+03  0.65773564961E+03  0.00000000000E+00 0.  1.
         21   -1    0    0  502  503 -0.00000000000E+00 -0.00000000000E+00 -0.15026622650E+03  0.15026622650E+03  0.00000000000E+00 0.  1.
          6    1    1    2  501    0  0.10318436672E+03 -0.69077670209E+02  0.55093759550E+03  0.59066062354E+03  0.17300000000E+03 0.  1.
         -6    1    1    2    0  503 -0.10318436672E+03  0.69077670209E+02 -0.43468172392E+02  0.21734125257E+03  0.17300000000E+03 0.  1.
<mgrwt>
<rscale>  2 0.21295008E+03</rscale>
<asrwt>0</asrwt>
<pdfrwt beam="1">  1       21 0.10119010E+00 0.21295008E+03</pdfrwt>
<pdfrwt beam="2">  1       21 0.23117881E-01 0.21295008E+03</pdfrwt>
<totfact> 0.13844492E+04</totfact>
</mgrwt>
</event>
<event>
 4    2  0.3992997E+000  0.2012421E+03  0.7546771E-02  0.1148695E+00
         21   -1    0    0  501  502  0.00000000000E+00  0.00000000000E+00  0.14880756249E+03  0.14880756249E+03  0.00000000000E+00 0.  1.
         21   -1    0    0  502  503 -0.00000000000E+00 -0.00000000000E+00 -0.31117832336E+03  0.31117832336E+03  0.00000000000E+00 0.  1.
          6    1    1    2  501    0  0.10123383205E+03  0.17919650068E+02  0.26327471412E+00  0.20124232140E+03  0.17300000000E+03 0.  1.
         -6    1    1    2    0  503 -0.10123383205E+03 -0.17919650068E+02 -0.16263403558E+03  0.25874356444E+03  0.17300000000E+03 0.  1.
<mgrwt>
<rscale>  2 0.20124215E+03</rscale>
<asrwt>0</asrwt>
<pdfrwt beam="1">  1       21 0.22893471E-01 0.20124215E+03</pdfrwt>
<pdfrwt beam="2">  1       21 0.47873588E-01 0.20124215E+03</pdfrwt>
<totfact> 0.74393529E+04</totfact>
</mgrwt>
</event>
<event>
 4    2  0.3992997E+000  0.2287939E+03  0.7546771E-02  0.1127492E+00
         21   -1    0    0  501  502  0.00000000000E+00  0.00000000000E+00  0.72102329310E+02  0.72102329310E+02  0.00000000000E+00 0. -1.
         21   -1    0    0  502  503 -0.00000000000E+00 -0.00000000000E+00 -0.91554006298E+03  0.91554006298E+03  0.00000000000E+00 0. -1.
          6    1    1    2  501    0  0.12564890775E+03  0.81424784356E+02 -0.19703289383E+03  0.30194139295E+03  0.17300000000E+03 0. -1.
         -6    1    1    2    0  503 -0.12564890775E+03 -0.81424784356E+02 -0.64640483983E+03  0.68570099933E+03  0.17300000000E+03 0. -1.
<mgrwt>
<rscale>  2 0.22879389E+03</rscale>
<asrwt>0</asrwt>
<pdfrwt beam="1">  1       21 0.11092667E-01 0.22879389E+03</pdfrwt>
<pdfrwt beam="2">  1       21 0.14085231E+00 0.22879389E+03</pdfrwt>
<totfact> 0.23262113E+04</totfact>
</mgrwt>
</event>
<event>
 4    2  0.3992997E+000  0.1737951E+03  0.7546771E-02  0.1173947E+00
         21   -1    0    0  503  502  0.00000000000E+00  0.00000000000E+00  0.33210402712E+03  0.33210402712E+03  0.00000000000E+00 0.  1.
         21   -1    0    0  501  503 -0.00000000000E+00 -0.00000000000E+00 -0.97170998263E+02  0.97170998263E+02  0.00000000000E+00 0.  1.
          6    1    1    2  501    0 -0.63374522650E+01  0.15348285383E+02  0.63156389932E+02  0.18491474456E+03  0.17300000000E+03 0. -1.
         -6    1    1    2    0  502  0.63374522650E+01 -0.15348285383E+02  0.17177663893E+03  0.24436028083E+03  0.17300000000E+03 0. -1.
<mgrwt>
<rscale>  2 0.17379509E+03</rscale>
<asrwt>0</asrwt>
<pdfrwt beam="1">  1       21 0.51092927E-01 0.17379509E+03</pdfrwt>
<pdfrwt beam="2">  1       21 0.14949384E-01 0.17379509E+03</pdfrwt>
<totfact> 0.14466877E+05</totfact>
</mgrwt>
</event>
<event>
 4    2  0.3992997E+000  0.1753582E+03  0.7546771E-02  0.1172373E+00
         21   -1    0    0  501  502  0.00000000000E+00  0.00000000000E+00  0.25534249623E+03  0.25534249623E+03  0.00000000000E+00 0.  1.
         21   -1    0    0  502  503 -0.00000000000E+00 -0.00000000000E+00 -0.12056953893E+03  0.12056953893E+03  0.00000000000E+00 0. -1.
          6    1    1    2  501    0  0.26816486969E+02 -0.10117885411E+02  0.60956391978E+02  0.18565068624E+03  0.17300000000E+03 0. -1.
         -6    1    1    2    0  503 -0.26816486969E+02  0.10117885411E+02  0.73816565315E+02  0.19026134892E+03  0.17300000000E+03 0. -1.
<mgrwt>
<rscale>  2 0.17535819E+03</rscale>
<asrwt>0</asrwt>
<pdfrwt beam="1">  1       21 0.39283461E-01 0.17535819E+03</pdfrwt>
<pdfrwt beam="2">  1       21 0.18549160E-01 0.17535819E+03</pdfrwt>
<totfact> 0.16679803E+05</totfact>
</mgrwt>
</event>
<event>
 4    2  0.3992997E+000  0.1927269E+03  0.7546771E-02  0.1156025E+00
         21   -1    0    0  501  502  0.00000000000E+00  0.00000000000E+00  0.33010869417E+03  0.33010869417E+03  0.00000000000E+00 0. -1.
         21   -1    0    0  502  503 -0.00000000000E+00 -0.00000000000E+00 -0.48413885600E+03  0.48413885600E+03  0.00000000000E+00 0. -1.
          6    1    1    2  501    0 -0.71086551098E+02 -0.46490601151E+02  0.27967468039E+03  0.33964923169E+03  0.17300000000E+03 0. -1.
         -6    1    1    2    0  503  0.71086551098E+02  0.46490601151E+02 -0.43370484221E+03  0.47459831848E+03  0.17300000000E+03 0. -1.
<mgrwt>
<rscale>  2 0.19272694E+03</rscale>
<asrwt>0</asrwt>
<pdfrwt beam="1">  1       21 0.50785953E-01 0.19272694E+03</pdfrwt>
<pdfrwt beam="2">  1       21 0.74482901E-01 0.19272694E+03</pdfrwt>
<totfact> 0.59554879E+03</totfact>
</mgrwt>
</event>
<event>
 4    2  0.3992997E+000  0.1914990E+03  0.7546771E-02  0.1157116E+00
         21   -1    0    0  503  502  0.00000000000E+00  0.00000000000E+00  0.40739847011E+03  0.40739847011E+03  0.00000000000E+00 0. -1.
         21   -1    0    0  501  503 -0.00000000000E+00 -0.00000000000E+00 -0.18408080353E+03  0.18408080353E+03  0.00000000000E+00 0. -1.
          6    1    1    2  501    0  0.61305072778E+02  0.54631216651E+02 -0.99749298239E+02  0.21592082873E+03  0.17300000000E+03 0. -1.
         -6    1    1    2    0  502 -0.61305072778E+02 -0.54631216651E+02  0.32306696482E+03  0.37555844490E+03  0.17300000000E+03 0. -1.
<mgrwt>
<rscale>  2 0.19149904E+03</rscale>
<asrwt>0</asrwt>
<pdfrwt beam="1">  1       21 0.62676688E-01 0.19149904E+03</pdfrwt>
<pdfrwt beam="2">  1       21 0.28320124E-01 0.19149904E+03</pdfrwt>
<totfact> 0.28129694E+04</totfact>
</mgrwt>
</event>
<event>
 4    2  0.3992997E+000  0.1799005E+03  0.7546771E-02  0.1167899E+00
         21   -1    0    0  503  502  0.00000000000E+00  0.00000000000E+00  0.18165118941E+03  0.18165118941E+03  0.00000000000E+00 0.  1.
         21   -1    0    0  501  503 -0.00000000000E+00 -0.00000000000E+00 -0.31294332170E+03  0.31294332170E+03  0.00000000000E+00 0.  1.
          6    1    1    2  501    0 -0.43224898039E+02 -0.23807471517E+02 -0.22793682247E+03  0.29037799942E+03  0.17300000000E+03 0.  1.
         -6    1    1    2    0  502  0.43224898039E+02  0.23807471517E+02  0.96644690179E+02  0.20421651170E+03  0.17300000000E+03 0.  1.
<mgrwt>
<rscale>  2 0.17990049E+03</rscale>
<asrwt>0</asrwt>
<pdfrwt beam="1">  1       21 0.27946337E-01 0.17990049E+03</pdfrwt>
<pdfrwt beam="2">  1       21 0.48145126E-01 0.17990049E+03</pdfrwt>
<totfact> 0.50709885E+04</totfact>
</mgrwt>
</event>
<event>
 4    2  0.3992997E+000  0.1940467E+03  0.7546771E-02  0.1154861E+00
         21   -1    0    0  503  502  0.00000000000E+00  0.00000000000E+00  0.85123717809E+02  0.85123717809E+02  0.00000000000E+00 0. -1.
         21   -1    0    0  501  503 -0.00000000000E+00 -0.00000000000E+00 -0.69785774358E+03  0.69785774358E+03  0.00000000000E+00 0. -1.
          6    1    1    2  501    0 -0.82297436255E+02  0.30858826138E+02 -0.54325523838E+03  0.57687120676E+03  0.17300000000E+03 0. -1.
         -6    1    1    2    0  502  0.82297436255E+02 -0.30858826138E+02 -0.69478787391E+02  0.20611025463E+03  0.17300000000E+03 0. -1.
<mgrwt>
<rscale>  2 0.19404673E+03</rscale>
<asrwt>0</asrwt>
<pdfrwt beam="1">  1       21 0.13095956E-01 0.19404673E+03</pdfrwt>
<pdfrwt beam="2">  1       21 0.10736273E+00 0.19404673E+03</pdfrwt>
<totfact> 0.34713179E+04</totfact>
</mgrwt>
</event>
<event>
 4    2  0.3992997E+000  0.2061973E+03  0.7546771E-02  0.1144613E+00
         21   -1    0    0  503  502  0.00000000000E+00  0.00000000000E+00  0.73958468066E+03  0.73958468066E+03  0.00000000000E+00 0.  1.
         21   -1    0    0  501  503 -0.00000000000E+00 -0.00000000000E+00 -0.58816131439E+02  0.58816131439E+02  0.00000000000E+00 0.  1.
          6    1    1    2  501    0 -0.62141613105E+02  0.93417166087E+02  0.28039956910E+03  0.34805353805E+03  0.17300000000E+03 0.  1.
         -6    1    1    2    0  502  0.62141613105E+02 -0.93417166087E+02  0.40036898012E+03  0.45034727404E+03  0.17300000000E+03 0.  1.
<mgrwt>
<rscale>  2 0.20619735E+03</rscale>
<asrwt>0</asrwt>
<pdfrwt beam="1">  1       21 0.11378225E+00 0.20619735E+03</pdfrwt>
<pdfrwt beam="2">  1       21 0.90486362E-02 0.20619735E+03</pdfrwt>
<totfact> 0.57820484E+04</totfact>
</mgrwt>
</event>
<event>
 4    2  0.3992997E+000  0.2649429E+03  0.7546771E-02  0.1104209E+00
         21   -1    0    0  503  502  0.00000000000E+00  0.00000000000E+00  0.43656010835E+02  0.43656010835E+02  0.00000000000E+00 0. -1.
         21   -1    0    0  501  503 -0.00000000000E+00 -0.00000000000E+00 -0.18681109881E+04  0.18681109881E+04  0.00000000000E+00 0. -1.
          6    1    1    2  501    0 -0.16771819037E+03 -0.11016520391E+03 -0.12689753697E+04  0.12963384020E+04  0.17300000000E+03 0. -1.
         -6    1    1    2    0  502  0.16771819037E+03  0.11016520391E+03 -0.55547960757E+03  0.61542859696E+03  0.17300000000E+03 0. -1.
<mgrwt>
<rscale>  2 0.26494294E+03</rscale>
<asrwt>0</asrwt>
<pdfrwt beam="1">  1       21 0.67163087E-02 0.26494294E+03</pdfrwt>
<pdfrwt beam="2">  1       21 0.28740172E+00 0.26494294E+03</pdfrwt>
<totfact> 0.61205486E+03</totfact>
</mgrwt>
</event>
<event>
 4    2  0.3992997E+000  0.2487031E+03  0.7546771E-02  0.1114127E+00
         21   -1    0    0  501  502  0.00000000000E+00  0.00000000000E+00  0.15811493890E+03  0.15811493890E+03  0.00000000000E+00 0. -1.
         21   -1    0    0  502  503 -0.00000000000E+00 -0.00000000000E+00 -0.94421035474E+03  0.94421035474E+03  0.00000000000E+00 0. -1.
          6    1    1    2  501    0 -0.17813684380E+03  0.13837634687E+02  0.28760842459E+02  0.25036054264E+03  0.17300000000E+03 0. -1.
         -6    1    1    2    0  503  0.17813684380E+03 -0.13837634687E+02 -0.81485625831E+03  0.85196475100E+03  0.17300000000E+03 0. -1.
<mgrwt>
<rscale>  2 0.24870307E+03</rscale>
<asrwt>0</asrwt>
<pdfrwt beam="1">  1       21 0.24325375E-01 0.24870307E+03</pdfrwt>
<pdfrwt beam="2">  1       21 0.14526313E+00 0.24870307E+03</pdfrwt>
<totfact> 0.49734576E+03</totfact>
</mgrwt>
</event>
<event>
 4    2  0.3992997E+000  0.1895071E+03  0.7546771E-02  0.1158907E+00
         21   -1    0    0  501  502  0.00000000000E+00  0.00000000000E+00  0.30495930987E+03  0.30495930987E+03  0.00000000000E+00 0.  1.
         21   -1    0    0  502  503 -0.00000000000E+00 -0.00000000000E+00 -0.11776575117E+03  0.11776575117E+03  0.00000000000E+00 0.  1.
          6    1    1    2  501    0  0.28534327840E+02 -0.71900950240E+02  0.94599132253E+02  0.21180639824E+03  0.17300000000E+03 0.  1.
         -6    1    1    2    0  503 -0.28534327840E+02  0.71900950240E+02  0.92594426453E+02  0.21091866281E+03  0.17300000000E+03 0.  1.
<mgrwt>
<rscale>  2 0.18950714E+03</rscale>
<asrwt>0</asrwt>
<pdfrwt beam="1">  1       21 0.46916816E-01 0.18950714E+03</pdfrwt>
<pdfrwt beam="2">  1       21 0.18117808E-01 0.18950714E+03</pdfrwt>
<totfact> 0.12075990E+05</totfact>
</mgrwt>
</event>
<event>
 4    2  0.3992997E+000  0.1914237E+03  0.7546771E-02  0.1157183E+00
         21   -1    0    0  503  502  0.00000000000E+00  0.00000000000E+00  0.93400356526E+02  0.93400356526E+02  0.00000000000E+00 0. -1.
         21   -1    0    0  501  503 -0.00000000000E+00 -0.00000000000E+00 -0.47394242816E+03  0.47394242816E+03  0.00000000000E+00 0. -1.
          6    1    1    2  501    0 -0.73709474661E+02 -0.35790353923E+02 -0.30799139269E+03  0.36263167823E+03  0.17300000000E+03 0.  1.
         -6    1    1    2    0  502  0.73709474661E+02  0.35790353923E+02 -0.72550678943E+02  0.20471110645E+03  0.17300000000E+03 0.  1.
<mgrwt>
<rscale>  2 0.19142371E+03</rscale>
<asrwt>0</asrwt>
<pdfrwt beam="1">  1       21 0.14369285E-01 0.19142371E+03</pdfrwt>
<pdfrwt beam="2">  1       21 0.72914221E-01 0.19142371E+03</pdfrwt>
<totfact> 0.71847810E+04</totfact>
</mgrwt>
</event>
<event>
 4    2  0.3992997E+000  0.2064591E+03  0.7546771E-02  0.1144401E+00
         21   -1    0    0  501  502  0.00000000000E+00  0.00000000000E+00  0.80434215413E+03  0.80434215413E+03  0.00000000000E+00 0.  1.
         21   -1    0    0  502  503 -0.00000000000E+00 -0.00000000000E+00 -0.58820539655E+02  0.58820539655E+02  0.00000000000E+00 0. -1.
          6    1    1    2  501    0 -0.10496474570E+03  0.40972488946E+02  0.50859275085E+03  0.54890065486E+03  0.17300000000E+03 0.  1.
         -6    1    1    2    0  503  0.10496474570E+03 -0.40972488946E+02  0.23692886363E+03  0.31426203892E+03  0.17300000000E+03 0.  1.
<mgrwt>
<rscale>  2 0.20645906E+03</rscale>
<asrwt>0</asrwt>
<pdfrwt beam="1">  1       21 0.12374494E+00 0.20645906E+03</pdfrwt>
<pdfrwt beam="2">  1       21 0.90493144E-02 0.20645906E+03</pdfrwt>
<totfact> 0.46979841E+04</totfact>
</mgrwt>
</event>
<event>
 4    2  0.3992997E+000  0.1854128E+03  0.7546771E-02  0.1162665E+00
         21   -1    0    0  501  502  0.00000000000E+00  0.00000000000E+00  0.74876060811E+03  0.74876060811E+03  0.00000000000E+00 0.  1.
         21   -1    0    0  502  503 -0.00000000000E+00 -0.00000000000E+00 -0.47009049274E+02  0.47009049274E+02  0.00000000000E+00 0.  1.
          6    1    1    2  501    0 -0.27688763975E+02 -0.60681377298E+02  0.41162882919E+03  0.45146006493E+03  0.17300000000E+03 0.  1.
         -6    1    1    2    0  503  0.27688763975E+02  0.60681377298E+02  0.29012272964E+03  0.34430959245E+03  0.17300000000E+03 0.  1.
<mgrwt>
<rscale>  2 0.18541278E+03</rscale>
<asrwt>0</asrwt>
<pdfrwt beam="1">  1       21 0.11519393E+00 0.18541278E+03</pdfrwt>
<pdfrwt beam="2">  1       21 0.72321620E-02 0.18541278E+03</pdfrwt>
<totfact> 0.83744350E+04</totfact>
</mgrwt>
</event>
<event>
 4    2  0.3992997E+000  0.2105076E+03  0.7546771E-02  0.1141165E+00
         21   -1    0    0  503  502  0.00000000000E+00  0.00000000000E+00  0.19723074602E+03  0.19723074602E+03  0.00000000000E+00 0. -1.
         21   -1    0    0  501  503 -0.00000000000E+00 -0.00000000000E+00 -0.24054107720E+03  0.24054107720E+03  0.00000000000E+00 0. -1.
          6    1    1    2  501    0 -0.81266952461E+02  0.88205099265E+02 -0.77865167857E+02  0.22444696804E+03  0.17300000000E+03 0.  1.
         -6    1    1    2    0  502  0.81266952461E+02 -0.88205099265E+02  0.34554836672E+02  0.21332485518E+03  0.17300000000E+03 0.  1.
<mgrwt>
<rscale>  2 0.21050762E+03</rscale>
<asrwt>0</asrwt>
<pdfrwt beam="1">  1       21 0.30343192E-01 0.21050762E+03</pdfrwt>
<pdfrwt beam="2">  1       21 0.37006320E-01 0.21050762E+03</pdfrwt>
<totfact> 0.72829247E+04</totfact>
</mgrwt>
</event>
<event>
 4    2  0.3992997E+000  0.2189306E+03  0.7546771E-02  0.1134683E+00
         21   -1    0    0  501  502  0.00000000000E+00  0.00000000000E+00  0.71982591867E+02  0.71982591867E+02  0.00000000000E+00 0. -1.
         21   -1    0    0  502  503 -0.00000000000E+00 -0.00000000000E+00 -0.10429353887E+04  0.10429353887E+04  0.00000000000E+00 0. -1.
          6    1    1    2  501    0 -0.28380197905E+02 -0.13113423007E+03 -0.15028260463E+03  0.26554751587E+03  0.17300000000E+03 0. -1.
         -6    1    1    2    0  503  0.28380197905E+02  0.13113423007E+03 -0.82067019218E+03  0.84937046468E+03  0.17300000000E+03 0. -1.
<mgrwt>
<rscale>  2 0.21893063E+03</rscale>
<asrwt>0</asrwt>
<pdfrwt beam="1">  1       21 0.11074245E-01 0.21893063E+03</pdfrwt>
<pdfrwt beam="2">  1       21 0.16045160E+00 0.21893063E+03</pdfrwt>
<totfact> 0.16611391E+04</totfact>
</mgrwt>
</event>
<event>
 4    2  0.3992997E+000  0.1938227E+03  0.7546771E-02  0.1155058E+00
         21   -1    0    0  501  502  0.00000000000E+00  0.00000000000E+00  0.57831614617E+02  0.57831614617E+02  0.00000000000E+00 0.  1.
         21   -1    0    0  502  503 -0.00000000000E+00 -0.00000000000E+00 -0.68423924478E+03  0.68423924478E+03  0.00000000000E+00 0. -1.
          6    1    1    2  501    0  0.86872681975E+02 -0.95599708438E+01 -0.22971793223E+03  0.30056211389E+03  0.17300000000E+03 0.  1.
         -6    1    1    2    0  503 -0.86872681975E+02  0.95599708438E+01 -0.39668969793E+03  0.44150874551E+03  0.17300000000E+03 0.  1.
<mgrwt>
<rscale>  2 0.19382274E+03</rscale>
<asrwt>0</asrwt>
<pdfrwt beam="1">  1       21 0.88971712E-02 0.19382274E+03</pdfrwt>
<pdfrwt beam="2">  1       21 0.10526758E+00 0.19382274E+03</pdfrwt>
<totfact> 0.72340975E+04</totfact>
</mgrwt>
</event>
<event>
 4    2  0.3992997E+000  0.1998320E+03  0.7546771E-02  0.1149881E+00
         21   -1    0    0  501  502  0.00000000000E+00  0.00000000000E+00  0.79285090950E+02  0.79285090950E+02  0.00000000000E+00 0.  1.
         21   -1    0    0  502  503 -0.00000000000E+00 -0.00000000000E+00 -0.77108695491E+03  0.77108695491E+03  0.00000000000E+00 0.  1.
          6    1    1    2  501    0 -0.97625478941E+02  0.21750673099E+02 -0.95504060879E+02  0.22148104109E+03  0.17300000000E+03 0.  1.
         -6    1    1    2    0  503  0.97625478941E+02 -0.21750673099E+02 -0.59629780308E+03  0.62889100477E+03  0.17300000000E+03 0.  1.
<mgrwt>
<rscale>  2 0.19983199E+03</rscale>
<asrwt>0</asrwt>
<pdfrwt beam="1">  1       21 0.12197706E-01 0.19983199E+03</pdfrwt>
<pdfrwt beam="2">  1       21 0.11862877E+00 0.19983199E+03</pdfrwt>
<totfact> 0.30835393E+04</totfact>
</mgrwt>
</event>
<event>
 4    2  0.3992997E+000  0.1769690E+03  0.7546771E-02  0.1170769E+00
         21   -1    0    0  501  502  0.00000000000E+00  0.00000000000E+00  0.24273148797E+03  0.24273148797E+03  0.00000000000E+00 0.  1.
         21   -1    0    0  502  503 -0.00000000000E+00 -0.00000000000E+00 -0.49120962759E+03  0.49120962759E+03  0.00000000000E+00 0.  1.
          6    1    1    2  501    0 -0.29272387274E+02 -0.23068221671E+02  0.19087211447E+03  0.26028864668E+03  0.17300000000E+03 0.  1.
         -6    1    1    2    0  503  0.29272387274E+02  0.23068221671E+02 -0.43935025409E+03  0.47365246888E+03  0.17300000000E+03 0.  1.
<mgrwt>
<rscale>  2 0.17696897E+03</rscale>
<asrwt>0</asrwt>
<pdfrwt beam="1">  1       21 0.37343306E-01 0.17696897E+03</pdfrwt>
<pdfrwt beam="2">  1       21 0.75570711E-01 0.17696897E+03</pdfrwt>
<totfact> 0.10928787E+04</totfact>
</mgrwt>
</event>
<event>
 4    2  0.3992997E+000  0.1982233E+03  0.7546771E-02  0.1151247E+00
         21   -1    0    0  501  502  0.00000000000E+00  0.00000000000E+00  0.10302547471E+04  0.10302547471E+04  0.00000000000E+00 0.  1.
         21   -1    0    0  502  503 -0.00000000000E+00 -0.00000000000E+00 -0.38270381569E+02  0.38270381569E+02  0.00000000000E+00 0. -1.
          6    1    1    2  501    0 -0.95865089880E+02 -0.13167157605E+02  0.52734130703E+03  0.56336608311E+03  0.17300000000E+03 0. -1.
         -6    1    1    2    0  503  0.95865089880E+02  0.13167157605E+02  0.46464305849E+03  0.50515904555E+03  0.17300000000E+03 0.  1.
<mgrwt>
<rscale>  2 0.19822333E+03</rscale>
<asrwt>0</asrwt>
<pdfrwt beam="1">  1       21 0.15850071E+00 0.19822333E+03</pdfrwt>
<pdfrwt beam="2">  1       21 0.58877518E-02 0.19822333E+03</pdfrwt>
<totfact> 0.52406034E+04</totfact>
</mgrwt>
</event>
<event>
 4    2  0.3992997E+000  0.2085872E+03  0.7546771E-02  0.1142690E+00
         21   -1    0    0  501  502  0.00000000000E+00  0.00000000000E+00  0.66297207207E+03  0.66297207207E+03  0.00000000000E+00 0. -1.
         21   -1    0    0  502  503 -0.00000000000E+00 -0.00000000000E+00 -0.69181775273E+02  0.69181775273E+02  0.00000000000E+00 0. -1.
          6    1    1    2  501    0  0.10993726463E+03 -0.38644562627E+02  0.21390875654E+03  0.29877342670E+03  0.17300000000E+03 0. -1.
         -6    1    1    2    0  503 -0.10993726463E+03  0.38644562627E+02  0.37988154026E+03  0.43338042065E+03  0.17300000000E+03 0. -1.
<mgrwt>
<rscale>  2 0.20858716E+03</rscale>
<asrwt>0</asrwt>
<pdfrwt beam="1">  1       21 0.10199570E+00 0.20858716E+03</pdfrwt>
<pdfrwt beam="2">  1       21 0.10643351E-01 0.20858716E+03</pdfrwt>
<totfact> 0.56462595E+04</totfact>
</mgrwt>
</event>
<event>
 4    2  0.3992997E+000  0.2395666E+03  0.7546771E-02  0.1120082E+00
         21   -1    0    0  501  502  0.00000000000E+00  0.00000000000E+00  0.19079736042E+03  0.19079736042E+03  0.00000000000E+00 0.  1.
         21   -1    0    0  502  503 -0.00000000000E+00 -0.00000000000E+00 -0.31009543605E+03  0.31009543605E+03  0.00000000000E+00 0.  1.
          6    1    1    2  501    0 -0.15166543283E+03 -0.66788884155E+02 -0.16291589400E+02  0.24011991680E+03  0.17300000000E+03 0.  1.
         -6    1    1    2    0  503  0.15166543283E+03  0.66788884155E+02 -0.10300648623E+03  0.26077287966E+03  0.17300000000E+03 0.  1.
<mgrwt>
<rscale>  2 0.23956661E+03</rscale>
<asrwt>0</asrwt>
<pdfrwt beam="1">  1       21 0.29353440E-01 0.23956661E+03</pdfrwt>
<pdfrwt beam="2">  1       21 0.47706990E-01 0.23956661E+03</pdfrwt>
<totfact> 0.45697557E+04</totfact>
</mgrwt>
</event>
<event>
 4    2  0.3992997E+000  0.1849619E+03  0.7546771E-02  0.1163085E+00
         21   -1    0    0  503  502  0.00000000000E+00  0.00000000000E+00  0.20882589150E+03  0.20882589150E+03  0.00000000000E+00 0.  1.
         21   -1    0    0  501  503 -0.00000000000E+00 -0.00000000000E+00 -0.38863622812E+03  0.38863622812E+03  0.00000000000E+00 0.  1.
          6    1    1    2  501    0 -0.21601003808E+02 -0.61768237524E+02 -0.31711005061E+03  0.36710993276E+03  0.17300000000E+03 0.  1.
         -6    1    1    2    0  502  0.21601003808E+02  0.61768237524E+02  0.13729971399E+03  0.23035218687E+03  0.17300000000E+03 0.  1.
<mgrwt>
<rscale>  2 0.18496194E+03</rscale>
<asrwt>0</asrwt>
<pdfrwt beam="1">  1       21 0.32127061E-01 0.18496194E+03</pdfrwt>
<pdfrwt beam="2">  1       21 0.59790188E-01 0.18496194E+03</pdfrwt>
<totfact> 0.24437070E+04</totfact>
</mgrwt>
</event>
<event>
 4    2  0.3992997E+000  0.1762399E+03  0.7546771E-02  0.1171492E+00
         21   -1    0    0  503  502  0.00000000000E+00  0.00000000000E+00  0.15939661700E+03  0.15939661700E+03  0.00000000000E+00 0.  1.
         21   -1    0    0  501  503 -0.00000000000E+00 -0.00000000000E+00 -0.20693367974E+03  0.20693367974E+03  0.00000000000E+00 0.  1.
          6    1    1    2  501    0  0.72738206297E+01  0.32841963030E+02  0.20469227056E+02  0.17742461007E+03  0.17300000000E+03 0.  1.
         -6    1    1    2    0  502 -0.72738206297E+01 -0.32841963030E+02 -0.68006289793E+02  0.18890568666E+03  0.17300000000E+03 0.  1.
<mgrwt>
<rscale>  2 0.17623990E+03</rscale>
<asrwt>0</asrwt>
<pdfrwt beam="1">  1       21 0.24522556E-01 0.17623990E+03</pdfrwt>
<pdfrwt beam="2">  1       21 0.31835951E-01 0.17623990E+03</pdfrwt>
<totfact> 0.14988097E+05</totfact>
</mgrwt>
</event>
<event>
 4    2  0.3992997E+000  0.2947427E+03  0.7546771E-02  0.1087899E+00
         21   -1    0    0  503  502  0.00000000000E+00  0.00000000000E+00  0.10364491427E+04  0.10364491427E+04  0.00000000000E+00 0. -1.
         21   -1    0    0  501  503 -0.00000000000E+00 -0.00000000000E+00 -0.11584472491E+03  0.11584472491E+03  0.00000000000E+00 0.  1.
          6    1    1    2  501    0  0.62415897607E+02  0.23032262769E+03  0.15736660202E+03  0.33412199049E+03  0.17300000000E+03 0.  1.
         -6    1    1    2    0  502 -0.62415897607E+02 -0.23032262769E+03  0.76323781574E+03  0.81817187710E+03  0.17300000000E+03 0. -1.
<mgrwt>
<rscale>  2 0.29474270E+03</rscale>
<asrwt>0</asrwt>
<pdfrwt beam="1">  1       21 0.15945371E+00 0.29474270E+03</pdfrwt>
<pdfrwt beam="2">  1       21 0.17822266E-01 0.29474270E+03</pdfrwt>
<totfact> 0.67828281E+03</totfact>
</mgrwt>
</event>
<event>
 4    2  0.3992997E+000  0.1812295E+03  0.7546771E-02  0.1166618E+00
         21   -1    0    0  503  502  0.00000000000E+00  0.00000000000E+00  0.67059639721E+03  0.67059639721E+03  0.00000000000E+00 0.  1.
         21   -1    0    0  501  503 -0.00000000000E+00 -0.00000000000E+00 -0.78994951516E+02  0.78994951516E+02  0.00000000000E+00 0. -1.
          6    1    1    2  501    0 -0.53977615263E+02  0.12425453398E+01  0.64763530297E+02  0.19245373918E+03  0.17300000000E+03 0. -1.
         -6    1    1    2    0  502  0.53977615263E+02 -0.12425453398E+01  0.52683791539E+03  0.55713760954E+03  0.17300000000E+03 0.  1.
<mgrwt>
<rscale>  2 0.18122949E+03</rscale>
<asrwt>0</asrwt>
<pdfrwt beam="1">  1       21 0.10316867E+00 0.18122949E+03</pdfrwt>
<pdfrwt beam="2">  1       21 0.12153070E-01 0.18122949E+03</pdfrwt>
<totfact> 0.43977079E+04</totfact>
</mgrwt>
</event>
<event>
 4    2  0.3992997E+000  0.1910833E+03  0.7546771E-02  0.1157488E+00
         21   -1    0    0  501  502  0.00000000000E+00  0.00000000000E+00  0.13673453933E+03  0.13673453933E+03  0.00000000000E+00 0.  1.
         21   -1    0    0  502  503 -0.00000000000E+00 -0.00000000000E+00 -0.26740136941E+03  0.26740136941E+03  0.00000000000E+00 0.  1.
          6    1    1    2  501    0  0.98236109525E+01 -0.80543842269E+02 -0.57846866172E+02  0.19964737360E+03  0.17300000000E+03 0.  1.
         -6    1    1    2    0  503 -0.98236109525E+01  0.80543842269E+02 -0.72819963910E+02  0.20448853514E+03  0.17300000000E+03 0.  1.
<mgrwt>
<rscale>  2 0.19108326E+03</rscale>
<asrwt>0</asrwt>
<pdfrwt beam="1">  1       21 0.21036083E-01 0.19108326E+03</pdfrwt>
<pdfrwt beam="2">  1       21 0.41138672E-01 0.19108326E+03</pdfrwt>
<totfact> 0.11957865E+05</totfact>
</mgrwt>
</event>
<event>
 4    2  0.3992997E+000  0.2433293E+03  0.7546771E-02  0.1117595E+00
         21   -1    0    0  503  502  0.00000000000E+00  0.00000000000E+00  0.18902468053E+03  0.18902468053E+03  0.00000000000E+00 0.  1.
         21   -1    0    0  501  503 -0.00000000000E+00 -0.00000000000E+00 -0.11499840366E+04  0.11499840366E+04  0.00000000000E+00 0. -1.
          6    1    1    2  501    0 -0.13565703054E+03 -0.10429449760E+03 -0.10515703639E+04  0.10793560128E+04  0.17300000000E+03 0. -1.
         -6    1    1    2    0  502  0.13565703054E+03  0.10429449760E+03  0.90611007762E+02  0.25965270438E+03  0.17300000000E+03 0.  1.
<mgrwt>
<rscale>  2 0.24332935E+03</rscale>
<asrwt>0</asrwt>
<pdfrwt beam="1">  1       21 0.29080720E-01 0.24332935E+03</pdfrwt>
<pdfrwt beam="2">  1       21 0.17692062E+00 0.24332935E+03</pdfrwt>
<totfact> 0.20658896E+03</totfact>
</mgrwt>
</event>
<event>
 4    2  0.3992997E+000  0.1955077E+03  0.7546771E-02  0.1153585E+00
         21   -1    0    0  501  502  0.00000000000E+00  0.00000000000E+00  0.37311120208E+03  0.37311120208E+03  0.00000000000E+00 0. -1.
         21   -1    0    0  502  503 -0.00000000000E+00 -0.00000000000E+00 -0.13487534469E+03  0.13487534469E+03  0.00000000000E+00 0. -1.
          6    1    1    2  501    0 -0.73996867285E+02  0.53091697965E+02  0.24366506023E+03  0.31240346723E+03  0.17300000000E+03 0. -1.
         -6    1    1    2    0  503  0.73996867285E+02 -0.53091697965E+02 -0.54292028403E+01  0.19558307954E+03  0.17300000000E+03 0. -1.
<mgrwt>
<rscale>  2 0.19550771E+03</rscale>
<asrwt>0</asrwt>
<pdfrwt beam="1">  1       21 0.57401723E-01 0.19550771E+03</pdfrwt>
<pdfrwt beam="2">  1       21 0.20750053E-01 0.19550771E+03</pdfrwt>
<totfact> 0.61298491E+04</totfact>
</mgrwt>
</event>
<event>
 4    2  0.3992997E+000  0.1804756E+03  0.7546771E-02  0.1167344E+00
         21   -1    0    0  503  502  0.00000000000E+00  0.00000000000E+00  0.23785900941E+03  0.23785900941E+03  0.00000000000E+00 0.  1.
         21   -1    0    0  501  503 -0.00000000000E+00 -0.00000000000E+00 -0.19246535935E+03  0.19246535935E+03  0.00000000000E+00 0.  1.
          6    1    1    2  501    0 -0.48878278039E+02 -0.15916753316E+02 -0.92874879436E+02  0.20297086572E+03  0.17300000000E+03 0.  1.
         -6    1    1    2    0  502  0.48878278039E+02  0.15916753316E+02  0.13826852949E+03  0.22735350305E+03  0.17300000000E+03 0.  1.
<mgrwt>
<rscale>  2 0.18047556E+03</rscale>
<asrwt>0</asrwt>
<pdfrwt beam="1">  1       21 0.36593694E-01 0.18047556E+03</pdfrwt>
<pdfrwt beam="2">  1       21 0.29610055E-01 0.18047556E+03</pdfrwt>
<totfact> 0.79117218E+04</totfact>
</mgrwt>
</event>
<event>
 4    2  0.3992997E+000  0.1913799E+03  0.7546771E-02  0.1157223E+00
         21   -1    0    0  501  502  0.00000000000E+00  0.00000000000E+00  0.42244557142E+03  0.42244557142E+03  0.00000000000E+00 0. -1.
         21   -1    0    0  502  503 -0.00000000000E+00 -0.00000000000E+00 -0.14300822916E+03  0.14300822916E+03  0.00000000000E+00 0. -1.
          6    1    1    2  501    0 -0.32082469348E+02 -0.75285876326E+02 -0.37688255104E+02  0.19505551155E+03  0.17300000000E+03 0. -1.
         -6    1    1    2    0  503  0.32082469348E+02  0.75285876326E+02  0.31712559736E+03  0.37039828903E+03  0.17300000000E+03 0. -1.
<mgrwt>
<rscale>  2 0.19137985E+03</rscale>
<asrwt>0</asrwt>
<pdfrwt beam="1">  1       21 0.64991626E-01 0.19137985E+03</pdfrwt>
<pdfrwt beam="2">  1       21 0.22001266E-01 0.19137985E+03</pdfrwt>
<totfact> 0.42106631E+04</totfact>
</mgrwt>
</event>
<event>
 4    2  0.3992997E+000  0.1927322E+03  0.7546771E-02  0.1156020E+00
         21   -1    0    0  503  502  0.00000000000E+00  0.00000000000E+00  0.21187894663E+03  0.21187894663E+03  0.00000000000E+00 0. -1.
         21   -1    0    0  501  503 -0.00000000000E+00 -0.00000000000E+00 -0.27971370973E+03  0.27971370973E+03  0.00000000000E+00 0.  1.
          6    1    1    2  501    0 -0.60259083425E+02 -0.59879252286E+02 -0.18408104610E+03  0.26651737940E+03  0.17300000000E+03 0.  1.
         -6    1    1    2    0  502  0.60259083425E+02  0.59879252286E+02  0.11624628300E+03  0.22507527696E+03  0.17300000000E+03 0. -1.
<mgrwt>
<rscale>  2 0.19273215E+03</rscale>
<asrwt>0</asrwt>
<pdfrwt beam="1">  1       21 0.32596761E-01 0.19273215E+03</pdfrwt>
<pdfrwt beam="2">  1       21 0.43032878E-01 0.19273215E+03</pdfrwt>
<totfact> 0.47033254E+04</totfact>
</mgrwt>
</event>
<event>
 4    2  0.3992997E+000  0.1754217E+03  0.7546771E-02  0.1172309E+00
         21   -1    0    0  501  502  0.00000000000E+00  0.00000000000E+00  0.21257340626E+04  0.21257340626E+04  0.00000000000E+00 0.  1.
         21   -1    0    0  502  503 -0.00000000000E+00 -0.00000000000E+00 -0.19798460932E+02  0.19798460932E+02  0.00000000000E+00 0.  1.
          6    1    1    2  501    0  0.27717347813E+02 -0.86895825450E+01  0.16091709780E+04  0.16187044192E+04  0.17300000000E+03 0.  1.
         -6    1    1    2    0  503 -0.27717347813E+02  0.86895825450E+01  0.49676462369E+03  0.52682810438E+03  0.17300000000E+03 0.  1.
<mgrwt>
<rscale>  2 0.17542166E+03</rscale>
<asrwt>0</asrwt>
<pdfrwt beam="1">  1       21 0.32703583E+00 0.17542166E+03</pdfrwt>
<pdfrwt beam="2">  1       21 0.30459187E-02 0.17542166E+03</pdfrwt>
<totfact> 0.14994874E+04</totfact>
</mgrwt>
</event>
<event>
 4    2  0.3992997E+000  0.1778250E+03  0.7546771E-02  0.1169925E+00
         21   -1    0    0  503  502  0.00000000000E+00  0.00000000000E+00  0.65595813166E+02  0.65595813166E+02  0.00000000000E+00 0. -1.
         21   -1    0    0  501  503 -0.00000000000E+00 -0.00000000000E+00 -0.62436018957E+03  0.62436018957E+03  0.00000000000E+00 0. -1.
          6    1    1    2  501    0  0.10267276887E+02  0.39841204567E+02 -0.44407024127E+03  0.47835145839E+03  0.17300000000E+03 0. -1.
         -6    1    1    2    0  502 -0.10267276887E+02 -0.39841204567E+02 -0.11469413513E+03  0.21160454435E+03  0.17300000000E+03 0. -1.
<mgrwt>
<rscale>  2 0.17782502E+03</rscale>
<asrwt>0</asrwt>
<pdfrwt beam="1">  1       21 0.10091663E-01 0.17782502E+03</pdfrwt>
<pdfrwt beam="2">  1       21 0.96055416E-01 0.17782502E+03</pdfrwt>
<totfact> 0.72557827E+04</totfact>
</mgrwt>
</event>
<event>
 4    2  0.3992997E+000  0.1966388E+03  0.7546771E-02  0.1152606E+00
         21   -1    0    0  501  502  0.00000000000E+00  0.00000000000E+00  0.10605693242E+04  0.10605693242E+04  0.00000000000E+00 0. -1.
         21   -1    0    0  502  503 -0.00000000000E+00 -0.00000000000E+00 -0.15394113712E+03  0.15394113712E+03  0.00000000000E+00 0. -1.
          6    1    1    2  501    0 -0.55998052170E+02 -0.74846762316E+02  0.98380833035E+03  0.10032674870E+04  0.17300000000E+03 0. -1.
         -6    1    1    2    0  503  0.55998052170E+02  0.74846762316E+02 -0.77180143264E+02  0.21124297430E+03  0.17300000000E+03 0. -1.
<mgrwt>
<rscale>  2 0.19663881E+03</rscale>
<asrwt>0</asrwt>
<pdfrwt beam="1">  1       21 0.16316451E+00 0.19663881E+03</pdfrwt>
<pdfrwt beam="2">  1       21 0.23683253E-01 0.19663881E+03</pdfrwt>
<totfact> 0.39937554E+03</totfact>
</mgrwt>
</event>
<event>
 4    2  0.3992997E+000  0.2222653E+03  0.7546771E-02  0.1132205E+00
         21   -1    0    0  501  502  0.00000000000E+00  0.00000000000E+00  0.73136578634E+03  0.73136578634E+03  0.00000000000E+00 0.  1.
         21   -1    0    0  502  503 -0.00000000000E+00 -0.00000000000E+00 -0.18169545949E+03  0.18169545949E+03  0.00000000000E+00 0. -1.
          6    1    1    2  501    0 -0.13220436273E+03  0.44663966201E+02  0.63668812176E+03  0.67436905904E+03  0.17300000000E+03 0.  1.
         -6    1    1    2    0  503  0.13220436273E+03 -0.44663966201E+02 -0.87017794906E+02  0.23869218679E+03  0.17300000000E+03 0. -1.
<mgrwt>
<rscale>  2 0.22226530E+03</rscale>
<asrwt>0</asrwt>
<pdfrwt beam="1">  1       21 0.11251781E+00 0.22226530E+03</pdfrwt>
<pdfrwt beam="2">  1       21 0.27953148E-01 0.22226530E+03</pdfrwt>
<totfact> 0.73965581E+03</totfact>
</mgrwt>
</event>
<event>
 4    2  0.3992997E+000  0.2767534E+03  0.7546771E-02  0.1097476E+00
         21   -1    0    0  501  502  0.00000000000E+00  0.00000000000E+00  0.93074042869E+02  0.93074042869E+02  0.00000000000E+00 0.  1.
         21   -1    0    0  502  503 -0.00000000000E+00 -0.00000000000E+00 -0.10892229709E+04  0.10892229709E+04  0.00000000000E+00 0. -1.
          6    1    1    2  501    0 -0.86190300755E+02 -0.19807738413E+03 -0.20577578736E+03  0.34487112479E+03  0.17300000000E+03 0.  1.
         -6    1    1    2    0  503  0.86190300755E+02  0.19807738413E+03 -0.79037314069E+03  0.83742588900E+03  0.17300000000E+03 0. -1.
<mgrwt>
<rscale>  2 0.27675335E+03</rscale>
<asrwt>0</asrwt>
<pdfrwt beam="1">  1       21 0.14319084E-01 0.27675335E+03</pdfrwt>
<pdfrwt beam="2">  1       21 0.16757276E+00 0.27675335E+03</pdfrwt>
<totfact> 0.89484777E+03</totfact>
</mgrwt>
</event>
<event>
 4    2  0.3992997E+000  0.2874389E+03  0.7546771E-02  0.1091694E+00
         21   -1    0    0  503  502  0.00000000000E+00  0.00000000000E+00  0.11499016141E+04  0.11499016141E+04  0.00000000000E+00 0. -1.
         21   -1    0    0  501  503 -0.00000000000E+00 -0.00000000000E+00 -0.93527670436E+02  0.93527670436E+02  0.00000000000E+00 0.  1.
          6    1    1    2  501    0  0.17176751068E+03 -0.15227612227E+03  0.22887674501E+03  0.36743116300E+03  0.17300000000E+03 0.  1.
         -6    1    1    2    0  502 -0.17176751068E+03  0.15227612227E+03  0.82749719862E+03  0.87599812150E+03  0.17300000000E+03 0. -1.
<mgrwt>
<rscale>  2 0.28743885E+03</rscale>
<asrwt>0</asrwt>
<pdfrwt beam="1">  1       21 0.17690793E+00 0.28743885E+03</pdfrwt>
<pdfrwt beam="2">  1       21 0.14388873E-01 0.28743885E+03</pdfrwt>
<totfact> 0.75688872E+03</totfact>
</mgrwt>
</event>
<event>
 4    2  0.3992997E+000  0.2953873E+03  0.7546771E-02  0.1087569E+00
         21   -1    0    0  501  502  0.00000000000E+00  0.00000000000E+00  0.10800449644E+04  0.10800449644E+04  0.00000000000E+00 0.  1.
         21   -1    0    0  502  503 -0.00000000000E+00 -0.00000000000E+00 -0.11676960494E+03  0.11676960494E+03  0.00000000000E+00 0. -1.
          6    1    1    2  501    0 -0.51868902014E+02  0.23373976644E+03  0.81382104598E+03  0.86577038312E+03  0.17300000000E+03 0. -1.
         -6    1    1    2    0  503  0.51868902014E+02 -0.23373976644E+03  0.14945431348E+03  0.33104418622E+03  0.17300000000E+03 0.  1.
<mgrwt>
<rscale>  2 0.29538731E+03</rscale>
<asrwt>0</asrwt>
<pdfrwt beam="1">  1       21 0.16616076E+00 0.29538731E+03</pdfrwt>
<pdfrwt beam="2">  1       21 0.17964555E-01 0.29538731E+03</pdfrwt>
<totfact> 0.59626227E+03</totfact>
</mgrwt>
</event>
<event>
 4    2  0.3992997E+000  0.2286423E+03  0.7546771E-02  0.1127599E+00
         21   -1    0    0  503  502  0.00000000000E+00  0.00000000000E+00  0.92360106165E+02  0.92360106165E+02  0.00000000000E+00 0.  1.
         21   -1    0    0  501  503 -0.00000000000E+00 -0.00000000000E+00 -0.58716812631E+03  0.58716812631E+03  0.00000000000E+00 0.  1.
          6    1    1    2  501    0  0.69777103020E+02 -0.13220998224E+03 -0.31189075221E+03  0.38672104264E+03  0.17300000000E+03 0.  1.
         -6    1    1    2    0  502 -0.69777103020E+02  0.13220998224E+03 -0.18291726794E+03  0.29280718984E+03  0.17300000000E+03 0.  1.
<mgrwt>
<rscale>  2 0.22864235E+03</rscale>
<asrwt>0</asrwt>
<pdfrwt beam="1">  1       21 0.14209247E-01 0.22864235E+03</pdfrwt>
<pdfrwt beam="2">  1       21 0.90333557E-01 0.22864235E+03</pdfrwt>
<totfact> 0.44287955E+04</totfact>
</mgrwt>
</event>
<event>
 4    2  0.3992997E+000  0.1855505E+03  0.7546771E-02  0.1162537E+00
         21   -1    0    0  501  502  0.00000000000E+00  0.00000000000E+00  0.11713341063E+03  0.11713341063E+03  0.00000000000E+00 0.  1.
         21   -1    0    0  502  503 -0.00000000000E+00 -0.00000000000E+00 -0.29414990900E+03  0.29414990900E+03  0.00000000000E+00 0.  1.
          6    1    1    2  501    0  0.42676112327E+02  0.51756565704E+02 -0.94134345082E+02  0.20806313364E+03  0.17300000000E+03 0.  1.
         -6    1    1    2    0  503 -0.42676112327E+02 -0.51756565704E+02 -0.82882153292E+02  0.20322018598E+03  0.17300000000E+03 0.  1.
<mgrwt>
<rscale>  2 0.18555051E+03</rscale>
<asrwt>0</asrwt>
<pdfrwt beam="1">  1       21 0.18020525E-01 0.18555051E+03</pdfrwt>
<pdfrwt beam="2">  1       21 0.45253832E-01 0.18555051E+03</pdfrwt>
<totfact> 0.13155285E+05</totfact>
</mgrwt>
</event>
<event>
 4    2  0.3992997E+000  0.2394532E+03  0.7546771E-02  0.1120158E+00
         21   -1    0    0  501  502  0.00000000000E+00  0.00000000000E+00  0.61850460560E+03  0.61850460560E+03  0.00000000000E+00 0.  1.
         21   -1    0    0  502  503 -0.00000000000E+00 -0.00000000000E+00 -0.12115249726E+03  0.12115249726E+03  0.00000000000E+00 0.  1.
          6    1    1    2  501    0 -0.85842596191E+02 -0.14156235437E+03  0.69465365071E+02  0.24932566743E+03  0.17300000000E+03 0.  1.
         -6    1    1    2    0  503  0.85842596191E+02  0.14156235437E+03  0.42788674327E+03  0.49033143542E+03  0.17300000000E+03 0.  1.
<mgrwt>
<rscale>  2 0.23945323E+03</rscale>
<asrwt>0</asrwt>
<pdfrwt beam="1">  1       21 0.95154553E-01 0.23945323E+03</pdfrwt>
<pdfrwt beam="2">  1       21 0.18638846E-01 0.23945323E+03</pdfrwt>
<totfact> 0.23665074E+04</totfact>
</mgrwt>
</event>
<event>
 4    2  0.3992997E+000  0.1735131E+03  0.7546771E-02  0.1174233E+00
         21   -1    0    0  501  502  0.00000000000E+00  0.00000000000E+00  0.20251189979E+03  0.20251189979E+03  0.00000000000E+00 0.  1.
         21   -1    0    0  502  503 -0.00000000000E+00 -0.00000000000E+00 -0.20984673933E+03  0.20984673933E+03  0.00000000000E+00 0.  1.
          6    1    1    2  501    0 -0.66449323953E+01 -0.11559957401E+02  0.10765910622E+03  0.20419909621E+03  0.17300000000E+03 0.  1.
         -6    1    1    2    0  503  0.66449323953E+01  0.11559957401E+02 -0.11499394576E+03  0.20815954291E+03  0.17300000000E+03 0.  1.
<mgrwt>
<rscale>  2 0.17351308E+03</rscale>
<asrwt>0</asrwt>
<pdfrwt beam="1">  1       21 0.31155677E-01 0.17351308E+03</pdfrwt>
<pdfrwt beam="2">  1       21 0.32284114E-01 0.17351308E+03</pdfrwt>
<totfact> 0.92050123E+04</totfact>
</mgrwt>
</event>
<event>
 4    2  0.3992997E+000  0.2018813E+03  0.7546771E-02  0.1148161E+00
         21   -1    0    0  503  502  0.00000000000E+00  0.00000000000E+00  0.10231239501E+03  0.10231239501E+03  0.00000000000E+00 0. -1.
         21   -1    0    0  501  503 -0.00000000000E+00 -0.00000000000E+00 -0.40736878709E+03  0.40736878709E+03  0.00000000000E+00 0.  1.
          6    1    1    2  501    0  0.64198472451E+02 -0.81887881881E+02 -0.19044800051E+03  0.27753650204E+03  0.17300000000E+03 0.  1.
         -6    1    1    2    0  502 -0.64198472451E+02  0.81887881881E+02 -0.11460839157E+03  0.23214468007E+03  0.17300000000E+03 0. -1.
<mgrwt>
<rscale>  2 0.20188132E+03</rscale>
<asrwt>0</asrwt>
<pdfrwt beam="1">  1       21 0.15740368E-01 0.20188132E+03</pdfrwt>
<pdfrwt beam="2">  1       21 0.62672122E-01 0.20188132E+03</pdfrwt>
<totfact> 0.84415566E+04</totfact>
</mgrwt>
</event>
<event>
 4    2  0.3992997E+000  0.1792147E+03  0.7546771E-02  0.1168565E+00
         21   -1    0    0  503  502  0.00000000000E+00  0.00000000000E+00  0.74965303614E+02  0.74965303614E+02  0.00000000000E+00 0. -1.
         21   -1    0    0  501  503 -0.00000000000E+00 -0.00000000000E+00 -0.48767500566E+03  0.48767500566E+03  0.00000000000E+00 0. -1.
          6    1    1    2  501    0  0.40393385019E+02 -0.23606839898E+02 -0.30440220519E+03  0.35324016047E+03  0.17300000000E+03 0. -1.
         -6    1    1    2    0  502 -0.40393385019E+02  0.23606839898E+02 -0.10830749685E+03  0.20940014880E+03  0.17300000000E+03 0. -1.
<mgrwt>
<rscale>  2 0.17921470E+03</rscale>
<asrwt>0</asrwt>
<pdfrwt beam="1">  1       21 0.11533124E-01 0.17921470E+03</pdfrwt>
<pdfrwt beam="2">  1       21 0.75026924E-01 0.17921470E+03</pdfrwt>
<totfact> 0.10060098E+05</totfact>
</mgrwt>
</event>
<event>
 4    2  0.3992997E+000  0.2008645E+03  0.7546771E-02  0.1149012E+00
         21   -1    0    0  503  502  0.00000000000E+00  0.00000000000E+00  0.24022121751E+03  0.24022121751E+03  0.00000000000E+00 0. -1.
         21   -1    0    0  501  503 -0.00000000000E+00 -0.00000000000E+00 -0.22114297751E+03  0.22114297751E+03  0.00000000000E+00 0.  1.
          6    1    1    2  501    0 -0.30372590758E+02 -0.97442516295E+02 -0.10359169923E+03  0.22600393448E+03  0.17300000000E+03 0.  1.
         -6    1    1    2    0  502  0.30372590758E+02  0.97442516295E+02  0.12266993923E+03  0.23536026054E+03  0.17300000000E+03 0. -1.
<mgrwt>
<rscale>  2 0.20086448E+03</rscale>
<asrwt>0</asrwt>
<pdfrwt beam="1">  1       21 0.36957110E-01 0.20086448E+03</pdfrwt>
<pdfrwt beam="2">  1       21 0.34021997E-01 0.20086448E+03</pdfrwt>
<totfact> 0.58551627E+04</totfact>
</mgrwt>
</event>
<event>
 4    2  0.3992997E+000  0.1999375E+03  0.7546771E-02  0.1149792E+00
         21   -1    0    0  503  502  0.00000000000E+00  0.00000000000E+00  0.84603513109E+02  0.84603513109E+02  0.00000000000E+00 0. -1.
         21   -1    0    0  501  503 -0.00000000000E+00 -0.00000000000E+00 -0.10902794773E+04  0.10902794773E+04  0.00000000000E+00 0. -1.
          6    1    1    2  501    0  0.97049681484E+02  0.25046850672E+02 -0.94503230800E+03  0.96595085205E+03  0.17300000000E+03 0. -1.
         -6    1    1    2    0  502 -0.97049681484E+02 -0.25046850672E+02 -0.60643656192E+02  0.20893213836E+03  0.17300000000E+03 0. -1.
<mgrwt>
<rscale>  2 0.19993745E+03</rscale>
<asrwt>0</asrwt>
<pdfrwt beam="1">  1       21 0.13015926E-01 0.19993745E+03</pdfrwt>
<pdfrwt beam="2">  1       21 0.16773529E+00 0.19993745E+03</pdfrwt>
<totfact> 0.11165443E+04</totfact>
</mgrwt>
</event>
<event>
 4    2  0.3992997E+000  0.2226760E+03  0.7546771E-02  0.1131904E+00
         21   -1    0    0  501  502  0.00000000000E+00  0.00000000000E+00  0.13024848092E+03  0.13024848092E+03  0.00000000000E+00 0.  1.
         21   -1    0    0  502  503 -0.00000000000E+00 -0.00000000000E+00 -0.68932039842E+03  0.68932039842E+03  0.00000000000E+00 0. -1.
          6    1    1    2  501    0 -0.13794193614E+03  0.25052163683E+02 -0.53389849510E+01  0.22273996815E+03  0.17300000000E+03 0.  1.
         -6    1    1    2    0  503  0.13794193614E+03 -0.25052163683E+02 -0.55373293255E+03  0.59682891120E+03  0.17300000000E+03 0. -1.
<mgrwt>
<rscale>  2 0.22267597E+03</rscale>
<asrwt>0</asrwt>
<pdfrwt beam="1">  1       21 0.20038228E-01 0.22267597E+03</pdfrwt>
<pdfrwt beam="2">  1       21 0.10604929E+00 0.22267597E+03</pdfrwt>
<totfact> 0.16101296E+04</totfact>
</mgrwt>
</event>
<event>
 4    2  0.3992997E+000  0.1734683E+03  0.7546771E-02  0.1174278E+00
         21   -1    0    0  501  502  0.00000000000E+00  0.00000000000E+00  0.88116331960E+02  0.88116331960E+02  0.00000000000E+00 0.  1.
         21   -1    0    0  502  503 -0.00000000000E+00 -0.00000000000E+00 -0.34238574403E+03  0.34238574403E+03  0.00000000000E+00 0.  1.
          6    1    1    2  501    0 -0.20625877664E+01 -0.12569878601E+02 -0.11615353385E+03  0.20876517799E+03  0.17300000000E+03 0. -1.
         -6    1    1    2    0  503  0.20625877664E+01  0.12569878601E+02 -0.13811587821E+03  0.22173689799E+03  0.17300000000E+03 0. -1.
<mgrwt>
<rscale>  2 0.17346831E+03</rscale>
<asrwt>0</asrwt>
<pdfrwt beam="1">  1       21 0.13556359E-01 0.17346831E+03</pdfrwt>
<pdfrwt beam="2">  1       21 0.52674729E-01 0.17346831E+03</pdfrwt>
<totfact> 0.16202173E+05</totfact>
</mgrwt>
</event>
<event>
 4    2  0.3992997E+000  0.2116033E+03  0.7546771E-02  0.1140303E+00
         21   -1    0    0  503  502  0.00000000000E+00  0.00000000000E+00  0.36358183930E+03  0.36358183930E+03  0.00000000000E+00 0. -1.
         21   -1    0    0  501  503 -0.00000000000E+00 -0.00000000000E+00 -0.13567360488E+03  0.13567360488E+03  0.00000000000E+00 0.  1.
          6    1    1    2  501    0 -0.84132126687E+02  0.88140511648E+02  0.38119282536E+02  0.21500940499E+03  0.17300000000E+03 0.  1.
         -6    1    1    2    0  502  0.84132126687E+02 -0.88140511648E+02  0.18978895189E+03  0.28424603919E+03  0.17300000000E+03 0. -1.
<mgrwt>
<rscale>  2 0.21160332E+03</rscale>
<asrwt>0</asrwt>
<pdfrwt beam="1">  1       21 0.55935667E-01 0.21160332E+03</pdfrwt>
<pdfrwt beam="2">  1       21 0.20872862E-01 0.21160332E+03</pdfrwt>
<totfact> 0.63583180E+04</totfact>
</mgrwt>
</event>
<event>
 4    2  0.3992997E+000  0.2448798E+03  0.7546771E-02  0.1116584E+00
         21   -1    0    0  501  502  0.00000000000E+00  0.00000000000E+00  0.54164027750E+02  0.54164027750E+02  0.00000000000E+00 0.  1.
         21   -1    0    0  502  503 -0.00000000000E+00 -0.00000000000E+00 -0.13631033319E+04  0.13631033319E+04  0.00000000000E+00 0. -1.
          6    1    1    2  501    0 -0.16473968315E+03 -0.53832684791E+02 -0.34738184429E+03  0.42501796068E+03  0.17300000000E+03 0.  1.
         -6    1    1    2    0  503  0.16473968315E+03  0.53832684791E+02 -0.96155745990E+03  0.99224939901E+03  0.17300000000E+03 0. -1.
<mgrwt>
<rscale>  2 0.24487981E+03</rscale>
<asrwt>0</asrwt>
<pdfrwt beam="1">  1       21 0.83329283E-02 0.24487981E+03</pdfrwt>
<pdfrwt beam="2">  1       21 0.20970818E+00 0.24487981E+03</pdfrwt>
<totfact> 0.12518080E+04</totfact>
</mgrwt>
</event>
<event>
 4    2  0.3992997E+000  0.2489681E+03  0.7546771E-02  0.1113959E+00
         21   -1    0    0  503  502  0.00000000000E+00  0.00000000000E+00  0.24980049027E+03  0.24980049027E+03  0.00000000000E+00 0.  1.
         21   -1    0    0  501  503 -0.00000000000E+00 -0.00000000000E+00 -0.49993313229E+03  0.49993313229E+03  0.00000000000E+00 0. -1.
          6    1    1    2  501    0  0.20145157120E+02  0.17790532817E+03 -0.39110465340E+03  0.46362483007E+03  0.17300000000E+03 0. -1.
         -6    1    1    2    0  502 -0.20145157120E+02 -0.17790532817E+03  0.14097201138E+03  0.28610879249E+03  0.17300000000E+03 0.  1.
<mgrwt>
<rscale>  2 0.24896814E+03</rscale>
<asrwt>0</asrwt>
<pdfrwt beam="1">  1       21 0.38430845E-01 0.24896814E+03</pdfrwt>
<pdfrwt beam="2">  1       21 0.76912788E-01 0.24896814E+03</pdfrwt>
<totfact> 0.94678586E+03</totfact>
</mgrwt>
</event>
<event>
 4    2  0.3992997E+000  0.2170707E+03  0.7546771E-02  0.1136086E+00
         21   -1    0    0  501  502  0.00000000000E+00  0.00000000000E+00  0.36891683259E+03  0.36891683259E+03  0.00000000000E+00 0. -1.
         21   -1    0    0  502  503 -0.00000000000E+00 -0.00000000000E+00 -0.38233117356E+03  0.38233117356E+03  0.00000000000E+00 0. -1.
          6    1    1    2  501    0  0.70249516784E+01  0.13092490712E+03  0.29981963427E+03  0.37015063737E+03  0.17300000000E+03 0. -1.
         -6    1    1    2    0  503 -0.70249516784E+01 -0.13092490712E+03 -0.31323397524E+03  0.38109736878E+03  0.17300000000E+03 0. -1.
<mgrwt>
<rscale>  2 0.21707068E+03</rscale>
<asrwt>0</asrwt>
<pdfrwt beam="1">  1       21 0.56756436E-01 0.21707068E+03</pdfrwt>
<pdfrwt beam="2">  1       21 0.58820180E-01 0.21707068E+03</pdfrwt>
<totfact> 0.77559744E+03</totfact>
</mgrwt>
</event>
<event>
 4    2  0.3992997E+000  0.2055690E+03  0.7546771E-02  0.1145124E+00
         21   -1    0    0  501  502  0.00000000000E+00  0.00000000000E+00  0.17854872854E+03  0.17854872854E+03  0.00000000000E+00 0. -1.
         21   -1    0    0  502  503 -0.00000000000E+00 -0.00000000000E+00 -0.27400750213E+03  0.27400750213E+03  0.00000000000E+00 0. -1.
          6    1    1    2  501    0 -0.11096567499E+03 -0.40276152480E+01  0.35789731753E+02  0.20866122690E+03  0.17300000000E+03 0. -1.
         -6    1    1    2    0  503  0.11096567499E+03  0.40276152480E+01 -0.13124850535E+03  0.24389500378E+03  0.17300000000E+03 0. -1.
<mgrwt>
<rscale>  2 0.20556897E+03</rscale>
<asrwt>0</asrwt>
<pdfrwt beam="1">  1       21 0.27469035E-01 0.20556897E+03</pdfrwt>
<pdfrwt beam="2">  1       21 0.42155000E-01 0.20556897E+03</pdfrwt>
<totfact> 0.68069931E+04</totfact>
</mgrwt>
</event>
<event>
 4    2  0.3992997E+000  0.2465077E+03  0.7546771E-02  0.1115532E+00
         21   -1    0    0  501  502  0.00000000000E+00  0.00000000000E+00  0.87120049977E+03  0.87120049977E+03  0.00000000000E+00 0.  1.
         21   -1    0    0  502  503 -0.00000000000E+00 -0.00000000000E+00 -0.96476336348E+02  0.96476336348E+02  0.00000000000E+00 0. -1.
          6    1    1    2  501    0 -0.15182719823E+03 -0.88235789980E+02  0.64202244904E+03  0.68772005775E+03  0.17300000000E+03 0.  1.
         -6    1    1    2    0  503  0.15182719823E+03  0.88235789980E+02  0.13270171438E+03  0.27995677837E+03  0.17300000000E+03 0. -1.
<mgrwt>
<rscale>  2 0.24650771E+03</rscale>
<asrwt>0</asrwt>
<pdfrwt beam="1">  1       21 0.13403084E+00 0.24650771E+03</pdfrwt>
<pdfrwt beam="2">  1       21 0.14842514E-01 0.24650771E+03</pdfrwt>
<totfact> 0.15470510E+04</totfact>
</mgrwt>
</event>
<event>
 4    2  0.3992997E+000  0.2455992E+03  0.7546771E-02  0.1116118E+00
         21   -1    0    0  501  502  0.00000000000E+00  0.00000000000E+00  0.40103399513E+03  0.40103399513E+03  0.00000000000E+00 0. -1.
         21   -1    0    0  502  503 -0.00000000000E+00 -0.00000000000E+00 -0.37301786294E+03  0.37301786294E+03  0.00000000000E+00 0.  1.
          6    1    1    2  501    0 -0.69319652091E+01 -0.17418936716E+03  0.31299127557E+03  0.39784736565E+03  0.17300000000E+03 0. -1.
         -6    1    1    2    0  503  0.69319652091E+01  0.17418936716E+03 -0.28497514338E+03  0.37620449242E+03  0.17300000000E+03 0.  1.
<mgrwt>
<rscale>  2 0.24559924E+03</rscale>
<asrwt>0</asrwt>
<pdfrwt beam="1">  1       21 0.61697537E-01 0.24559924E+03</pdfrwt>
<pdfrwt beam="2">  1       21 0.57387364E-01 0.24559924E+03</pdfrwt>
<totfact> 0.67108336E+03</totfact>
</mgrwt>
</event>
<event>
 4    2  0.3992997E+000  0.1905761E+03  0.7546771E-02  0.1157943E+00
         21   -1    0    0  503  502  0.00000000000E+00  0.00000000000E+00  0.71473834090E+02  0.71473834090E+02  0.00000000000E+00 0.  1.
         21   -1    0    0  501  503 -0.00000000000E+00 -0.00000000000E+00 -0.95318686301E+03  0.95318686301E+03  0.00000000000E+00 0.  1.
          6    1    1    2  501    0 -0.33911215506E+02 -0.72389751825E+02 -0.79093086713E+03  0.81356676633E+03  0.17300000000E+03 0.  1.
         -6    1    1    2    0  502  0.33911215506E+02  0.72389751825E+02 -0.90782161791E+02  0.21109393076E+03  0.17300000000E+03 0.  1.
<mgrwt>
<rscale>  2 0.19057609E+03</rscale>
<asrwt>0</asrwt>
<pdfrwt beam="1">  1       21 0.10995975E-01 0.19057609E+03</pdfrwt>
<pdfrwt beam="2">  1       21 0.14664412E+00 0.19057609E+03</pdfrwt>
<totfact> 0.21781968E+04</totfact>
</mgrwt>
</event>
<event>
 4    2  0.3992997E+000  0.1859429E+03  0.7546771E-02  0.1162172E+00
         21   -1    0    0  501  502  0.00000000000E+00  0.00000000000E+00  0.36752788918E+03  0.36752788918E+03  0.00000000000E+00 0.  1.
         21   -1    0    0  502  503 -0.00000000000E+00 -0.00000000000E+00 -0.21899481711E+03  0.21899481711E+03  0.00000000000E+00 0.  1.
          6    1    1    2  501    0 -0.27419484639E+02  0.62401512239E+02  0.29575724923E+03  0.34935244001E+03  0.17300000000E+03 0.  1.
         -6    1    1    2    0  503  0.27419484639E+02 -0.62401512239E+02 -0.14722417716E+03  0.23717026628E+03  0.17300000000E+03 0.  1.
<mgrwt>
<rscale>  2 0.18594294E+03</rscale>
<asrwt>0</asrwt>
<pdfrwt beam="1">  1       21 0.56542752E-01 0.18594294E+03</pdfrwt>
<pdfrwt beam="2">  1       21 0.33691510E-01 0.18594294E+03</pdfrwt>
<totfact> 0.25056163E+04</totfact>
</mgrwt>
</event>
<event>
 4    2  0.3992997E+000  0.3081027E+03  0.7546771E-02  0.1081259E+00
         21   -1    0    0  503  502  0.00000000000E+00  0.00000000000E+00  0.12424229020E+03  0.12424229020E+03  0.00000000000E+00 0. -1.
         21   -1    0    0  501  503 -0.00000000000E+00 -0.00000000000E+00 -0.84819172092E+03  0.84819172092E+03  0.00000000000E+00 0.  1.
          6    1    1    2  501    0 -0.10193915538E+03 -0.23368070603E+03 -0.51511520480E+03  0.60022573919E+03  0.17300000000E+03 0.  1.
         -6    1    1    2    0  502  0.10193915538E+03  0.23368070603E+03 -0.20883422592E+03  0.37220827192E+03  0.17300000000E+03 0.  1.
<mgrwt>
<rscale>  2 0.30810268E+03</rscale>
<asrwt>0</asrwt>
<pdfrwt beam="1">  1       21 0.19114199E-01 0.30810268E+03</pdfrwt>
<pdfrwt beam="2">  1       21 0.13049103E+00 0.30810268E+03</pdfrwt>
<totfact> 0.10047856E+04</totfact>
</mgrwt>
</event>
<event>
 4    2  0.3992997E+000  0.1783637E+03  0.7546771E-02  0.1169396E+00
         21   -1    0    0  501  502  0.00000000000E+00  0.00000000000E+00  0.24975251276E+02  0.24975251276E+02  0.00000000000E+00 0. -1.
         21   -1    0    0  502  503 -0.00000000000E+00 -0.00000000000E+00 -0.14411833466E+04  0.14411833466E+04  0.00000000000E+00 0. -1.
          6    1    1    2  501    0  0.38609652247E+02 -0.19847198824E+02 -0.45827662193E+03  0.49176323445E+03  0.17300000000E+03 0. -1.
         -6    1    1    2    0  503 -0.38609652247E+02  0.19847198824E+02 -0.95793147339E+03  0.97439536342E+03  0.17300000000E+03 0. -1.
<mgrwt>
<rscale>  2 0.17836372E+03</rscale>
<asrwt>0</asrwt>
<pdfrwt beam="1">  1       21 0.38423467E-02 0.17836372E+03</pdfrwt>
<pdfrwt beam="2">  1       21 0.22172049E+00 0.17836372E+03</pdfrwt>
<totfact> 0.41589712E+04</totfact>
</mgrwt>
</event>
<event>
 4    2  0.3992997E+000  0.2583502E+03  0.7546771E-02  0.1108139E+00
         21   -1    0    0  501  502  0.00000000000E+00  0.00000000000E+00  0.11031887597E+04  0.11031887597E+04  0.00000000000E+00 0. -1.
         21   -1    0    0  502  503 -0.00000000000E+00 -0.00000000000E+00 -0.65819057392E+02  0.65819057392E+02  0.00000000000E+00 0. -1.
          6    1    1    2  501    0  0.19058717566E+03  0.22188968299E+02  0.68481885693E+03  0.73193011186E+03  0.17300000000E+03 0. -1.
         -6    1    1    2    0  503 -0.19058717566E+03 -0.22188968299E+02  0.35255084541E+03  0.43707770527E+03  0.17300000000E+03 0. -1.
<mgrwt>
<rscale>  2 0.25835019E+03</rscale>
<asrwt>0</asrwt>
<pdfrwt beam="1">  1       21 0.16972133E+00 0.25835019E+03</pdfrwt>
<pdfrwt beam="2">  1       21 0.10126010E-01 0.25835019E+03</pdfrwt>
<totfact> 0.16304328E+04</totfact>
</mgrwt>
</event>
<event>
 4    2  0.3992997E+000  0.2032255E+03  0.7546771E-02  0.1147046E+00
         21   -1    0    0  501  502  0.00000000000E+00  0.00000000000E+00  0.87514683454E+03  0.87514683454E+03  0.00000000000E+00 0.  1.
         21   -1    0    0  502  503 -0.00000000000E+00 -0.00000000000E+00 -0.48359583794E+02  0.48359583794E+02  0.00000000000E+00 0. -1.
          6    1    1    2  501    0  0.80039988314E+02  0.70464090394E+02  0.48511898288E+03  0.52596674354E+03  0.17300000000E+03 0.  1.
         -6    1    1    2    0  503 -0.80039988314E+02 -0.70464090394E+02  0.34166826787E+03  0.39753967479E+03  0.17300000000E+03 0. -1.
<mgrwt>
<rscale>  2 0.20322546E+03</rscale>
<asrwt>0</asrwt>
<pdfrwt beam="1">  1       21 0.13463796E+00 0.20322546E+03</pdfrwt>
<pdfrwt beam="2">  1       21 0.74399366E-02 0.20322546E+03</pdfrwt>
<totfact> 0.53535166E+04</totfact>
</mgrwt>
</event>
<event>
 4    2  0.3992997E+000  0.1922001E+03  0.7546771E-02  0.1156492E+00
         21   -1    0    0  503  502  0.00000000000E+00  0.00000000000E+00  0.62902128420E+03  0.62902128420E+03  0.00000000000E+00 0. -1.
         21   -1    0    0  501  503 -0.00000000000E+00 -0.00000000000E+00 -0.73908959727E+02  0.73908959727E+02  0.00000000000E+00 0. -1.
          6    1    1    2  501    0 -0.82916035747E+02  0.11696502979E+02  0.11826569741E+03  0.22567155857E+03  0.17300000000E+03 0. -1.
         -6    1    1    2    0  502  0.82916035747E+02 -0.11696502979E+02  0.43684662706E+03  0.47725868535E+03  0.17300000000E+03 0. -1.
<mgrwt>
<rscale>  2 0.19220010E+03</rscale>
<asrwt>0</asrwt>
<pdfrwt beam="1">  1       21 0.96772502E-01 0.19220010E+03</pdfrwt>
<pdfrwt beam="2">  1       21 0.11370610E-01 0.19220010E+03</pdfrwt>
<totfact> 0.57324374E+04</totfact>
</mgrwt>
</event>
<event>
 4    2  0.3992997E+000  0.1788217E+03  0.7546771E-02  0.1168948E+00
         21   -1    0    0  503  502  0.00000000000E+00  0.00000000000E+00  0.23175640905E+03  0.23175640905E+03  0.00000000000E+00 0. -1.
         21   -1    0    0  501  503 -0.00000000000E+00 -0.00000000000E+00 -0.15200927164E+03  0.15200927164E+03  0.00000000000E+00 0. -1.
          6    1    1    2  501    0  0.18708603385E+02  0.41209070852E+02  0.98171801254E+02  0.20399730862E+03  0.17300000000E+03 0.  1.
         -6    1    1    2    0  502 -0.18708603385E+02 -0.41209070852E+02 -0.18424663838E+02  0.17976837208E+03  0.17300000000E+03 0.  1.
<mgrwt>
<rscale>  2 0.17882170E+03</rscale>
<asrwt>0</asrwt>
<pdfrwt beam="1">  1       21 0.35654832E-01 0.17882170E+03</pdfrwt>
<pdfrwt beam="2">  1       21 0.23386042E-01 0.17882170E+03</pdfrwt>
<totfact> 0.13105395E+05</totfact>
</mgrwt>
</event>
<event>
 4    2  0.3992997E+000  0.2268292E+03  0.7546771E-02  0.1128892E+00
         21   -1    0    0  501  502  0.00000000000E+00  0.00000000000E+00  0.93330049512E+02  0.93330049512E+02  0.00000000000E+00 0. -1.
         21   -1    0    0  502  503 -0.00000000000E+00 -0.00000000000E+00 -0.12133878289E+04  0.12133878289E+04  0.00000000000E+00 0.  1.
          6    1    1    2  501    0  0.62588463639E+02  0.13268443025E+03 -0.77398482154E+02  0.23967060490E+03  0.17300000000E+03 0. -1.
         -6    1    1    2    0  503 -0.62588463639E+02 -0.13268443025E+03 -0.10426592972E+04  0.10670472735E+04  0.17300000000E+03 0.  1.
<mgrwt>
<rscale>  2 0.22682917E+03</rscale>
<asrwt>0</asrwt>
<pdfrwt beam="1">  1       21 0.14358470E-01 0.22682917E+03</pdfrwt>
<pdfrwt beam="2">  1       21 0.18667504E+00 0.22682917E+03</pdfrwt>
<totfact> 0.67765814E+03</totfact>
</mgrwt>
</event>
<event>
 4    2  0.3992997E+000  0.1948246E+03  0.7546771E-02  0.1154180E+00
         21   -1    0    0  503  502  0.00000000000E+00  0.00000000000E+00  0.98293525110E+02  0.98293525110E+02  0.00000000000E+00 0. -1.
         21   -1    0    0  501  503 -0.00000000000E+00 -0.00000000000E+00 -0.46551566667E+03  0.46551566667E+03  0.00000000000E+00 0.  1.
          6    1    1    2  501    0 -0.27068519170E+02 -0.85410391920E+02 -0.67215949931E+02  0.20609372553E+03  0.17300000000E+03 0. -1.
         -6    1    1    2    0  502  0.27068519170E+02  0.85410391920E+02 -0.30000619163E+03  0.35771546625E+03  0.17300000000E+03 0.  1.
<mgrwt>
<rscale>  2 0.19482464E+03</rscale>
<asrwt>0</asrwt>
<pdfrwt beam="1">  1       21 0.15122081E-01 0.19482464E+03</pdfrwt>
<pdfrwt beam="2">  1       21 0.71617796E-01 0.19482464E+03</pdfrwt>
<totfact> 0.68030811E+04</totfact>
</mgrwt>
</event>
<event>
 4    2  0.3992997E+000  0.1924004E+03  0.7546771E-02  0.1156314E+00
         21   -1    0    0  503  502  0.00000000000E+00  0.00000000000E+00  0.57634885987E+03  0.57634885987E+03  0.00000000000E+00 0. -1.
         21   -1    0    0  501  503 -0.00000000000E+00 -0.00000000000E+00 -0.41262627612E+03  0.41262627612E+03  0.00000000000E+00 0. -1.
          6    1    1    2  501    0  0.14863197158E+02 -0.82873436288E+02 -0.37251402826E+03  0.41926676749E+03  0.17300000000E+03 0. -1.
         -6    1    1    2    0  502 -0.14863197158E+02  0.82873436288E+02  0.53623661201E+03  0.56970836850E+03  0.17300000000E+03 0. -1.
<mgrwt>
<rscale>  2 0.19240042E+03</rscale>
<asrwt>0</asrwt>
<pdfrwt beam="1">  1       21 0.88669055E-01 0.19240042E+03</pdfrwt>
<pdfrwt beam="2">  1       21 0.63480966E-01 0.19240042E+03</pdfrwt>
<totfact> 0.24955543E+03</totfact>
</mgrwt>
</event>
<event>
 4    2  0.3992997E+000  0.2530705E+03  0.7546771E-02  0.1111380E+00
         21   -1    0    0  503  502  0.00000000000E+00  0.00000000000E+00  0.12234090664E+03  0.12234090664E+03  0.00000000000E+00 0.  1.
         21   -1    0    0  501  503 -0.00000000000E+00 -0.00000000000E+00 -0.83600205403E+03  0.83600205403E+03  0.00000000000E+00 0.  1.
          6    1    1    2  501    0 -0.50882032335E+02 -0.17755756080E+03 -0.63863880876E+02  0.26100433692E+03  0.17300000000E+03 0.  1.
         -6    1    1    2    0  502  0.50882032335E+02  0.17755756080E+03 -0.64979726652E+03  0.69733862376E+03  0.17300000000E+03 0.  1.
<mgrwt>
<rscale>  2 0.25307048E+03</rscale>
<asrwt>0</asrwt>
<pdfrwt beam="1">  1       21 0.18821678E-01 0.25307048E+03</pdfrwt>
<pdfrwt beam="2">  1       21 0.12861570E+00 0.25307048E+03</pdfrwt>
<totfact> 0.11039202E+04</totfact>
</mgrwt>
</event>
<event>
 4    2  0.3992997E+000  0.2624583E+03  0.7546771E-02  0.1105675E+00
         21   -1    0    0  503  502  0.00000000000E+00  0.00000000000E+00  0.59652257244E+03  0.59652257244E+03  0.00000000000E+00 0. -1.
         21   -1    0    0  501  503 -0.00000000000E+00 -0.00000000000E+00 -0.31268241922E+03  0.31268241922E+03  0.00000000000E+00 0.  1.
          6    1    1    2  501    0  0.68225802214E+01  0.19725310859E+03 -0.21910723848E+03  0.34189518628E+03  0.17300000000E+03 0.  1.
         -6    1    1    2    0  502 -0.68225802214E+01 -0.19725310859E+03  0.50294739171E+03  0.56730980537E+03  0.17300000000E+03 0. -1.
<mgrwt>
<rscale>  2 0.26245826E+03</rscale>
<asrwt>0</asrwt>
<pdfrwt beam="1">  1       21 0.91772704E-01 0.26245826E+03</pdfrwt>
<pdfrwt beam="2">  1       21 0.48104988E-01 0.26245826E+03</pdfrwt>
<totfact> 0.39441225E+03</totfact>
</mgrwt>
</event>
<event>
 4    2  0.3992997E+000  0.1778235E+03  0.7546771E-02  0.1169926E+00
         21   -1    0    0  501  502  0.00000000000E+00  0.00000000000E+00  0.68205535018E+02  0.68205535018E+02  0.00000000000E+00 0. -1.
         21   -1    0    0  502  503 -0.00000000000E+00 -0.00000000000E+00 -0.57571372821E+03  0.57571372821E+03  0.00000000000E+00 0. -1.
          6    1    1    2  501    0  0.13970936071E+02  0.38691334013E+02 -0.11168627891E+03  0.20998816938E+03  0.17300000000E+03 0. -1.
         -6    1    1    2    0  503 -0.13970936071E+02 -0.38691334013E+02 -0.39582191428E+03  0.43393109385E+03  0.17300000000E+03 0. -1.
<mgrwt>
<rscale>  2 0.17782353E+03</rscale>
<asrwt>0</asrwt>
<pdfrwt beam="1">  1       21 0.10493159E-01 0.17782353E+03</pdfrwt>
<pdfrwt beam="2">  1       21 0.88571344E-01 0.17782353E+03</pdfrwt>
<totfact> 0.81755203E+04</totfact>
</mgrwt>
</event>
<event>
 4    2  0.3992997E+000  0.1779133E+03  0.7546771E-02  0.1169838E+00
         21   -1    0    0  501  502  0.00000000000E+00  0.00000000000E+00  0.34708412931E+03  0.34708412931E+03  0.00000000000E+00 0. -1.
         21   -1    0    0  502  503 -0.00000000000E+00 -0.00000000000E+00 -0.14112869529E+03  0.14112869529E+03  0.00000000000E+00 0. -1.
          6    1    1    2  501    0 -0.15744262139E+02  0.38422097533E+02  0.24817494552E+03  0.30535871194E+03  0.17300000000E+03 0. -1.
         -6    1    1    2    0  503  0.15744262139E+02 -0.38422097533E+02 -0.42219511501E+02  0.18285411267E+03  0.17300000000E+03 0. -1.
<mgrwt>
<rscale>  2 0.17791329E+03</rscale>
<asrwt>0</asrwt>
<pdfrwt beam="1">  1       21 0.53397558E-01 0.17791329E+03</pdfrwt>
<pdfrwt beam="2">  1       21 0.21712107E-01 0.17791329E+03</pdfrwt>
<totfact> 0.66121671E+04</totfact>
</mgrwt>
</event>
<event>
 4    2  0.3992997E+000  0.4128118E+03  0.7546771E-02  0.1039432E+00
         21   -1    0    0  503  502  0.00000000000E+00  0.00000000000E+00  0.31484119710E+03  0.31484119710E+03  0.00000000000E+00 0. -1.
         21   -1    0    0  501  503 -0.00000000000E+00 -0.00000000000E+00 -0.11953642567E+04  0.11953642567E+04  0.00000000000E+00 0. -1.
          6    1    1    2  501    0 -0.25097549385E+03 -0.27838084648E+03 -0.99883023704E+03  0.10807753868E+04  0.17300000000E+03 0. -1.
         -6    1    1    2    0  502  0.25097549385E+03  0.27838084648E+03  0.11830717748E+03  0.42943006700E+03  0.17300000000E+03 0. -1.
<mgrwt>
<rscale>  2 0.41281181E+03</rscale>
<asrwt>0</asrwt>
<pdfrwt beam="1">  1       21 0.48437107E-01 0.41281181E+03</pdfrwt>
<pdfrwt beam="2">  1       21 0.18390219E+00 0.41281181E+03</pdfrwt>
<totfact> 0.58870832E+02</totfact>
</mgrwt>
</event>
<event>
 4    2  0.3992997E+000  0.2207750E+03  0.7546771E-02  0.1133307E+00
         21   -1    0    0  503  502  0.00000000000E+00  0.00000000000E+00  0.20539695394E+02  0.20539695394E+02  0.00000000000E+00 0. -1.
         21   -1    0    0  501  503 -0.00000000000E+00 -0.00000000000E+00 -0.28041701508E+04  0.28041701508E+04  0.00000000000E+00 0. -1.
          6    1    1    2  501    0 -0.13670120945E+03  0.11197001585E+02 -0.19456038541E+04  0.19580898729E+04  0.17300000000E+03 0. -1.
         -6    1    1    2    0  502  0.13670120945E+03 -0.11197001585E+02 -0.83802660136E+03  0.86661997328E+03  0.17300000000E+03 0. -1.
<mgrwt>
<rscale>  2 0.22077498E+03</rscale>
<asrwt>0</asrwt>
<pdfrwt beam="1">  1       21 0.31599542E-02 0.22077498E+03</pdfrwt>
<pdfrwt beam="2">  1       21 0.43141065E+00 0.22077498E+03</pdfrwt>
<totfact> 0.30769856E+03</totfact>
</mgrwt>
</event>
<event>
 4    2  0.3992997E+000  0.1917239E+03  0.7546771E-02  0.1156916E+00
         21   -1    0    0  503  502  0.00000000000E+00  0.00000000000E+00  0.10147790766E+03  0.10147790766E+03  0.00000000000E+00 0.  1.
         21   -1    0    0  501  503 -0.00000000000E+00 -0.00000000000E+00 -0.10870516182E+04  0.10870516182E+04  0.00000000000E+00 0.  1.
          6    1    1    2  501    0 -0.38598546852E+02 -0.73069769322E+02 -0.97804335470E+03  0.99665783631E+03  0.17300000000E+03 0.  1.
         -6    1    1    2    0  502  0.38598546852E+02  0.73069769322E+02 -0.75303558818E+01  0.19187168959E+03  0.17300000000E+03 0.  1.
<mgrwt>
<rscale>  2 0.19172386E+03</rscale>
<asrwt>0</asrwt>
<pdfrwt beam="1">  1       21 0.15611987E-01 0.19172386E+03</pdfrwt>
<pdfrwt beam="2">  1       21 0.16723870E+00 0.19172386E+03</pdfrwt>
<totfact> 0.81458205E+03</totfact>
</mgrwt>
</event>
<event>
 4    2  0.3992997E+000  0.1749964E+03  0.7546771E-02  0.1172735E+00
         21   -1    0    0  501  502  0.00000000000E+00  0.00000000000E+00  0.21097002057E+03  0.21097002057E+03  0.00000000000E+00 0.  1.
         21   -1    0    0  502  503 -0.00000000000E+00 -0.00000000000E+00 -0.16321892316E+03  0.16321892316E+03  0.00000000000E+00 0. -1.
          6    1    1    2  501    0  0.25983195239E+02 -0.44296501927E+01  0.86114065926E+02  0.19503686981E+03  0.17300000000E+03 0.  1.
         -6    1    1    2    0  503 -0.25983195239E+02  0.44296501927E+01 -0.38362968521E+02  0.17915207392E+03  0.17300000000E+03 0.  1.
<mgrwt>
<rscale>  2 0.17499642E+03</rscale>
<asrwt>0</asrwt>
<pdfrwt beam="1">  1       21 0.32456926E-01 0.17499642E+03</pdfrwt>
<pdfrwt beam="2">  1       21 0.25110603E-01 0.17499642E+03</pdfrwt>
<totfact> 0.13800623E+05</totfact>
</mgrwt>
</event>
<event>
 4    2  0.3992997E+000  0.1737622E+03  0.7546771E-02  0.1173980E+00
         21   -1    0    0  501  502  0.00000000000E+00  0.00000000000E+00  0.14615854852E+03  0.14615854852E+03  0.00000000000E+00 0.  1.
         21   -1    0    0  502  503 -0.00000000000E+00 -0.00000000000E+00 -0.20956354772E+03  0.20956354772E+03  0.00000000000E+00 0.  1.
          6    1    1    2  501    0  0.12978880313E+02 -0.97906016330E+01 -0.10477285721E+02  0.17407780080E+03  0.17300000000E+03 0. -1.
         -6    1    1    2    0  503 -0.12978880313E+02  0.97906016330E+01 -0.52927713478E+02  0.18164429545E+03  0.17300000000E+03 0. -1.
<mgrwt>
<rscale>  2 0.17376221E+03</rscale>
<asrwt>0</asrwt>
<pdfrwt beam="1">  1       21 0.22485931E-01 0.17376221E+03</pdfrwt>
<pdfrwt beam="2">  1       21 0.32240546E-01 0.17376221E+03</pdfrwt>
<totfact> 0.17243082E+05</totfact>
</mgrwt>
</event>
<event>
 4    2  0.3992997E+000  0.2102079E+03  0.7546771E-02  0.1141401E+00
         21   -1    0    0  501  502  0.00000000000E+00  0.00000000000E+00  0.30963636564E+03  0.30963636564E+03  0.00000000000E+00 0. -1.
         21   -1    0    0  502  503 -0.00000000000E+00 -0.00000000000E+00 -0.16180577609E+03  0.16180577609E+03  0.00000000000E+00 0. -1.
          6    1    1    2  501    0 -0.63268502495E+02  0.10126919536E+03  0.15489969203E+03  0.26111543028E+03  0.17300000000E+03 0. -1.
         -6    1    1    2    0  503  0.63268502495E+02 -0.10126919536E+03 -0.70691024816E+01  0.21032671145E+03  0.17300000000E+03 0. -1.
<mgrwt>
<rscale>  2 0.21020788E+03</rscale>
<asrwt>0</asrwt>
<pdfrwt beam="1">  1       21 0.47636364E-01 0.21020788E+03</pdfrwt>
<pdfrwt beam="2">  1       21 0.24893196E-01 0.21020788E+03</pdfrwt>
<totfact> 0.63837460E+04</totfact>
</mgrwt>
</event>
<event>
 4    2  0.3992997E+000  0.1939629E+03  0.7546771E-02  0.1154935E+00
         21   -1    0    0  503  502  0.00000000000E+00  0.00000000000E+00  0.12443499644E+03  0.12443499644E+03  0.00000000000E+00 0. -1.
         21   -1    0    0  501  503 -0.00000000000E+00 -0.00000000000E+00 -0.31570371303E+03  0.31570371303E+03  0.00000000000E+00 0.  1.
          6    1    1    2  501    0  0.69853711034E+02  0.53038477809E+02 -0.50356010025E+02  0.20039298595E+03  0.17300000000E+03 0. -1.
         -6    1    1    2    0  502 -0.69853711034E+02 -0.53038477809E+02 -0.14091270657E+03  0.23974572352E+03  0.17300000000E+03 0.  1.
<mgrwt>
<rscale>  2 0.19396294E+03</rscale>
<asrwt>0</asrwt>
<pdfrwt beam="1">  1       21 0.19143846E-01 0.19396294E+03</pdfrwt>
<pdfrwt beam="2">  1       21 0.48569801E-01 0.19396294E+03</pdfrwt>
<totfact> 0.10132342E+05</totfact>
</mgrwt>
</event>
<event>
 4    2  0.3992997E+000  0.1915507E+03  0.7546771E-02  0.1157070E+00
         21   -1    0    0  501  502  0.00000000000E+00  0.00000000000E+00  0.69955320052E+03  0.69955320052E+03  0.00000000000E+00 0. -1.
         21   -1    0    0  502  503 -0.00000000000E+00 -0.00000000000E+00 -0.13087296961E+03  0.13087296961E+03  0.00000000000E+00 0. -1.
          6    1    1    2  501    0  0.81279770528E+02 -0.12500587687E+02 -0.37075740382E+02  0.19510580800E+03  0.17300000000E+03 0. -1.
         -6    1    1    2    0  503 -0.81279770528E+02  0.12500587687E+02  0.60575597129E+03  0.63532036213E+03  0.17300000000E+03 0. -1.
<mgrwt>
<rscale>  2 0.19155069E+03</rscale>
<asrwt>0</asrwt>
<pdfrwt beam="1">  1       21 0.10762357E+00 0.19155069E+03</pdfrwt>
<pdfrwt beam="2">  1       21 0.20134303E-01 0.19155069E+03</pdfrwt>
<totfact> 0.15706829E+04</totfact>
</mgrwt>
</event>
<event>
 4    2  0.3992997E+000  0.2616425E+03  0.7546771E-02  0.1106160E+00
         21   -1    0    0  503  502  0.00000000000E+00  0.00000000000E+00  0.58862718129E+03  0.58862718129E+03  0.00000000000E+00 0.  1.
         21   -1    0    0  501  503 -0.00000000000E+00 -0.00000000000E+00 -0.13927904801E+03  0.13927904801E+03  0.00000000000E+00 0.  1.
          6    1    1    2  501    0 -0.18609413396E+03 -0.62423943834E+02  0.76838937956E+02  0.27269213015E+03  0.17300000000E+03 0.  1.
         -6    1    1    2    0  502  0.18609413396E+03  0.62423943834E+02  0.37250919532E+03  0.45521409914E+03  0.17300000000E+03 0.  1.
<mgrwt>
<rscale>  2 0.26164246E+03</rscale>
<asrwt>0</asrwt>
<pdfrwt beam="1">  1       21 0.90558027E-01 0.26164246E+03</pdfrwt>
<pdfrwt beam="2">  1       21 0.21427546E-01 0.26164246E+03</pdfrwt>
<totfact> 0.20235894E+04</totfact>
</mgrwt>
</event>
<event>
 4    2  0.3992997E+000  0.2374794E+03  0.7546771E-02  0.1121483E+00
         21   -1    0    0  501  502  0.00000000000E+00  0.00000000000E+00  0.14549312045E+03  0.14549312045E+03  0.00000000000E+00 0.  1.
         21   -1    0    0  502  503 -0.00000000000E+00 -0.00000000000E+00 -0.40951162323E+03  0.40951162323E+03  0.00000000000E+00 0.  1.
          6    1    1    2  501    0 -0.14331819860E+03 -0.76989241452E+02 -0.67852127887E+02  0.24698251073E+03  0.17300000000E+03 0.  1.
         -6    1    1    2    0  503  0.14331819860E+03  0.76989241452E+02 -0.19616637490E+03  0.30802223295E+03  0.17300000000E+03 0.  1.
<mgrwt>
<rscale>  2 0.23747937E+03</rscale>
<asrwt>0</asrwt>
<pdfrwt beam="1">  1       21 0.22383557E-01 0.23747937E+03</pdfrwt>
<pdfrwt beam="2">  1       21 0.63001788E-01 0.23747937E+03</pdfrwt>
<totfact> 0.42652890E+04</totfact>
</mgrwt>
</event>
<event>
 4    2  0.3992997E+000  0.2271054E+03  0.7546771E-02  0.1128694E+00
         21   -1    0    0  501  502  0.00000000000E+00  0.00000000000E+00  0.15068958437E+03  0.15068958437E+03  0.00000000000E+00 0.  1.
         21   -1    0    0  502  503 -0.00000000000E+00 -0.00000000000E+00 -0.61667015666E+03  0.61667015666E+03  0.00000000000E+00 0.  1.
          6    1    1    2  501    0 -0.31005369355E+02  0.14382807704E+03  0.22946682464E+02  0.22826168954E+03  0.17300000000E+03 0.  1.
         -6    1    1    2    0  503  0.31005369355E+02 -0.14382807704E+03 -0.48892725476E+03  0.53909805149E+03  0.17300000000E+03 0.  1.
<mgrwt>
<rscale>  2 0.22710537E+03</rscale>
<asrwt>0</asrwt>
<pdfrwt beam="1">  1       21 0.23183013E-01 0.22710537E+03</pdfrwt>
<pdfrwt beam="2">  1       21 0.94872330E-01 0.22710537E+03</pdfrwt>
<totfact> 0.15906121E+04</totfact>
</mgrwt>
</event>
<event>
 4    2  0.3992997E+000  0.2004981E+03  0.7546771E-02  0.1149319E+00
         21   -1    0    0  501  502  0.00000000000E+00  0.00000000000E+00  0.41692806957E+03  0.41692806957E+03  0.00000000000E+00 0. -1.
         21   -1    0    0  502  503 -0.00000000000E+00 -0.00000000000E+00 -0.11984771616E+03  0.11984771616E+03  0.00000000000E+00 0. -1.
          6    1    1    2  501    0  0.83139192239E+02 -0.57951226862E+02  0.26720700757E+03  0.33406444719E+03  0.17300000000E+03 0. -1.
         -6    1    1    2    0  503 -0.83139192239E+02  0.57951226862E+02  0.29873345828E+02  0.20271133854E+03  0.17300000000E+03 0. -1.
<mgrwt>
<rscale>  2 0.20049805E+03</rscale>
<asrwt>0</asrwt>
<pdfrwt beam="1">  1       21 0.64142779E-01 0.20049805E+03</pdfrwt>
<pdfrwt beam="2">  1       21 0.18438110E-01 0.20049805E+03</pdfrwt>
<totfact> 0.60018430E+04</totfact>
</mgrwt>
</event>
<event>
 4    2  0.3992997E+000  0.2322282E+03  0.7546771E-02  0.1125081E+00
         21   -1    0    0  501  502  0.00000000000E+00  0.00000000000E+00  0.81774345814E+03  0.81774345814E+03  0.00000000000E+00 0. -1.
         21   -1    0    0  502  503 -0.00000000000E+00 -0.00000000000E+00 -0.66524301744E+02  0.66524301744E+02  0.00000000000E+00 0.  1.
          6    1    1    2  501    0 -0.14601201018E+03 -0.51782713670E+02  0.33451945103E+03  0.40722625121E+03  0.17300000000E+03 0.  1.
         -6    1    1    2    0  503  0.14601201018E+03  0.51782713670E+02  0.41669970536E+03  0.47704150868E+03  0.17300000000E+03 0. -1.
<mgrwt>
<rscale>  2 0.23222824E+03</rscale>
<asrwt>0</asrwt>
<pdfrwt beam="1">  1       21 0.12580668E+00 0.23222824E+03</pdfrwt>
<pdfrwt beam="2">  1       21 0.10234509E-01 0.23222824E+03</pdfrwt>
<totfact> 0.35778671E+04</totfact>
</mgrwt>
</event>
<event>
 4    2  0.3992997E+000  0.2123329E+03  0.7546771E-02  0.1139732E+00
         21   -1    0    0  501  502  0.00000000000E+00  0.00000000000E+00  0.21200991795E+04  0.21200991795E+04  0.00000000000E+00 0. -1.
         21   -1    0    0  502  503 -0.00000000000E+00 -0.00000000000E+00 -0.23022796937E+02  0.23022796937E+02  0.00000000000E+00 0. -1.
          6    1    1    2  501    0 -0.79215195290E+02  0.94240154935E+02  0.75250267026E+03  0.78188587576E+03  0.17300000000E+03 0. -1.
         -6    1    1    2    0  503  0.79215195290E+02 -0.94240154935E+02  0.13445737123E+04  0.13612361007E+04  0.17300000000E+03 0. -1.
<mgrwt>
<rscale>  2 0.21233288E+03</rscale>
<asrwt>0</asrwt>
<pdfrwt beam="1">  1       21 0.32616895E+00 0.21233288E+03</pdfrwt>
<pdfrwt beam="2">  1       21 0.35419704E-02 0.21233288E+03</pdfrwt>
<totfact> 0.11331700E+04</totfact>
</mgrwt>
</event>
<event>
 4    2  0.3992997E+000  0.2634782E+03  0.7546771E-02  0.1105071E+00
         21   -1    0    0  501  502  0.00000000000E+00  0.00000000000E+00  0.14008889459E+03  0.14008889459E+03  0.00000000000E+00 0.  1.
         21   -1    0    0  502  503 -0.00000000000E+00 -0.00000000000E+00 -0.51512115007E+03  0.51512115007E+03  0.00000000000E+00 0.  1.
          6    1    1    2  501    0  0.18723535194E+03  0.66593308265E+02 -0.25137603264E+03  0.36415745977E+03  0.17300000000E+03 0.  1.
         -6    1    1    2    0  503 -0.18723535194E+03 -0.66593308265E+02 -0.12365622285E+03  0.29105258489E+03  0.17300000000E+03 0.  1.
<mgrwt>
<rscale>  2 0.26347817E+03</rscale>
<asrwt>0</asrwt>
<pdfrwt beam="1">  1       21 0.21552137E-01 0.26347817E+03</pdfrwt>
<pdfrwt beam="2">  1       21 0.79249408E-01 0.26347817E+03</pdfrwt>
<totfact> 0.27200417E+04</totfact>
</mgrwt>
</event>
<event>
 4    2  0.3992997E+000  0.1810265E+03  0.7546771E-02  0.1166813E+00
         21   -1    0    0  501  502  0.00000000000E+00  0.00000000000E+00  0.52520301900E+02  0.52520301900E+02  0.00000000000E+00 0.  1.
         21   -1    0    0  502  503 -0.00000000000E+00 -0.00000000000E+00 -0.10350457337E+04  0.10350457337E+04  0.00000000000E+00 0.  1.
          6    1    1    2  501    0  0.68974333166E+01  0.52858527049E+02 -0.14856456376E+03  0.23418374852E+03  0.17300000000E+03 0.  1.
         -6    1    1    2    0  503 -0.68974333166E+01 -0.52858527049E+02 -0.83396086805E+03  0.85338228708E+03  0.17300000000E+03 0.  1.
<mgrwt>
<rscale>  2 0.18102651E+03</rscale>
<asrwt>0</asrwt>
<pdfrwt beam="1">  1       21 0.80800464E-02 0.18102651E+03</pdfrwt>
<pdfrwt beam="2">  1       21 0.15923781E+00 0.18102651E+03</pdfrwt>
<totfact> 0.30293611E+04</totfact>
</mgrwt>
</event>
<event>
 4    2  0.3992997E+000  0.2644321E+03  0.7546771E-02  0.1104509E+00
         21   -1    0    0  503  502  0.00000000000E+00  0.00000000000E+00  0.15575427493E+03  0.15575427493E+03  0.00000000000E+00 0.  1.
         21   -1    0    0  501  503 -0.00000000000E+00 -0.00000000000E+00 -0.46140402192E+03  0.46140402192E+03  0.00000000000E+00 0.  1.
          6    1    1    2  501    0 -0.99757478453E+02  0.17333148425E+03 -0.20354160009E+03  0.33369677988E+03  0.17300000000E+03 0.  1.
         -6    1    1    2    0  502  0.99757478453E+02 -0.17333148425E+03 -0.10210814690E+03  0.28346151697E+03  0.17300000000E+03 0.  1.
<mgrwt>
<rscale>  2 0.26443214E+03</rscale>
<asrwt>0</asrwt>
<pdfrwt beam="1">  1       21 0.23962196E-01 0.26443214E+03</pdfrwt>
<pdfrwt beam="2">  1       21 0.70985234E-01 0.26443214E+03</pdfrwt>
<totfact> 0.28469969E+04</totfact>
</mgrwt>
</event>
<event>
 4    2  0.3992997E+000  0.1794339E+03  0.7546771E-02  0.1168352E+00
         21   -1    0    0  501  502  0.00000000000E+00  0.00000000000E+00  0.26910966009E+03  0.26910966009E+03  0.00000000000E+00 0.  1.
         21   -1    0    0  502  503 -0.00000000000E+00 -0.00000000000E+00 -0.21827125921E+03  0.21827125921E+03  0.00000000000E+00 0.  1.
          6    1    1    2  501    0 -0.33374853616E+02 -0.33965345746E+02  0.18923113071E+03  0.26077758032E+03  0.17300000000E+03 0.  1.
         -6    1    1    2    0  503  0.33374853616E+02  0.33965345746E+02 -0.13839272984E+03  0.22660333898E+03  0.17300000000E+03 0.  1.
<mgrwt>
<rscale>  2 0.17943390E+03</rscale>
<asrwt>0</asrwt>
<pdfrwt beam="1">  1       21 0.41401486E-01 0.17943390E+03</pdfrwt>
<pdfrwt beam="2">  1       21 0.33580194E-01 0.17943390E+03</pdfrwt>
<totfact> 0.48287576E+04</totfact>
</mgrwt>
</event>
<event>
 4    2  0.3992997E+000  0.1792827E+03  0.7546771E-02  0.1168499E+00
         21   -1    0    0  503  502  0.00000000000E+00  0.00000000000E+00  0.28407327883E+03  0.28407327883E+03  0.00000000000E+00 0. -1.
         21   -1    0    0  501  503 -0.00000000000E+00 -0.00000000000E+00 -0.25004592312E+03  0.25004592312E+03  0.00000000000E+00 0. -1.
          6    1    1    2  501    0 -0.14087515874E+02 -0.44887023692E+02 -0.18059083113E+03  0.25447072776E+03  0.17300000000E+03 0. -1.
         -6    1    1    2    0  502  0.14087515874E+02  0.44887023692E+02  0.21461818684E+03  0.27964847420E+03  0.17300000000E+03 0. -1.
<mgrwt>
<rscale>  2 0.17928275E+03</rscale>
<asrwt>0</asrwt>
<pdfrwt beam="1">  1       21 0.43703581E-01 0.17928275E+03</pdfrwt>
<pdfrwt beam="2">  1       21 0.38468603E-01 0.17928275E+03</pdfrwt>
<totfact> 0.33016986E+04</totfact>
</mgrwt>
</event>
<event>
 4    2  0.3992997E+000  0.2168418E+03  0.7546771E-02  0.1136260E+00
         21   -1    0    0  503  502  0.00000000000E+00  0.00000000000E+00  0.16534775134E+03  0.16534775134E+03  0.00000000000E+00 0. -1.
         21   -1    0    0  501  503 -0.00000000000E+00 -0.00000000000E+00 -0.28440296214E+03  0.28440296214E+03  0.00000000000E+00 0. -1.
          6    1    1    2  501    0 -0.87957421409E+02  0.96720446982E+02 -0.57200159342E+02  0.22425924970E+03  0.17300000000E+03 0. -1.
         -6    1    1    2    0  502  0.87957421409E+02 -0.96720446982E+02 -0.61855051460E+02  0.22549146378E+03  0.17300000000E+03 0. -1.
<mgrwt>
<rscale>  2 0.21684177E+03</rscale>
<asrwt>0</asrwt>
<pdfrwt beam="1">  1       21 0.25438116E-01 0.21684177E+03</pdfrwt>
<pdfrwt beam="2">  1       21 0.43754302E-01 0.21684177E+03</pdfrwt>
<totfact> 0.72778380E+04</totfact>
</mgrwt>
</event>
<event>
 4    2  0.3992997E+000  0.1841958E+03  0.7546771E-02  0.1163803E+00
         21   -1    0    0  501  502  0.00000000000E+00  0.00000000000E+00  0.42466878713E+03  0.42466878713E+03  0.00000000000E+00 0.  1.
         21   -1    0    0  502  503 -0.00000000000E+00 -0.00000000000E+00 -0.12367754079E+03  0.12367754079E+03  0.00000000000E+00 0.  1.
          6    1    1    2  501    0  0.54045045881E+02 -0.32836627677E+02  0.31362770027E+03  0.36371753529E+03  0.17300000000E+03 0.  1.
         -6    1    1    2    0  503 -0.54045045881E+02  0.32836627677E+02 -0.12636453928E+02  0.18462879263E+03  0.17300000000E+03 0.  1.
<mgrwt>
<rscale>  2 0.18419585E+03</rscale>
<asrwt>0</asrwt>
<pdfrwt beam="1">  1       21 0.65333659E-01 0.18419585E+03</pdfrwt>
<pdfrwt beam="2">  1       21 0.19027314E-01 0.18419585E+03</pdfrwt>
<totfact> 0.54809286E+04</totfact>
</mgrwt>
</event>
<event>
 4    2  0.3992997E+000  0.2173663E+03  0.7546771E-02  0.1135862E+00
         21   -1    0    0  503  502  0.00000000000E+00  0.00000000000E+00  0.53565449162E+03  0.53565449162E+03  0.00000000000E+00 0. -1.
         21   -1    0    0  501  503 -0.00000000000E+00 -0.00000000000E+00 -0.11047103494E+03  0.11047103494E+03  0.00000000000E+00 0.  1.
          6    1    1    2  501    0  0.29980084988E+02  0.12814166184E+03  0.67557123832E+02  0.22762261745E+03  0.17300000000E+03 0.  1.
         -6    1    1    2    0  502 -0.29980084988E+02 -0.12814166184E+03  0.35762633284E+03  0.41850290911E+03  0.17300000000E+03 0. -1.
<mgrwt>
<rscale>  2 0.21736626E+03</rscale>
<asrwt>0</asrwt>
<pdfrwt beam="1">  1       21 0.82408382E-01 0.21736626E+03</pdfrwt>
<pdfrwt beam="2">  1       21 0.16995544E-01 0.21736626E+03</pdfrwt>
<totfact> 0.39628136E+04</totfact>
</mgrwt>
</event>
<event>
 4    2  0.3992997E+000  0.1797329E+03  0.7546771E-02  0.1168062E+00
         21   -1    0    0  501  502  0.00000000000E+00  0.00000000000E+00  0.66728118814E+02  0.66728118814E+02  0.00000000000E+00 0. -1.
         21   -1    0    0  502  503 -0.00000000000E+00 -0.00000000000E+00 -0.16125447828E+04  0.16125447828E+04  0.00000000000E+00 0. -1.
          6    1    1    2  501    0 -0.43540713146E+02  0.21889142978E+02 -0.70526759804E+02  0.19307499095E+03  0.17300000000E+03 0. -1.
         -6    1    1    2    0  503  0.43540713146E+02 -0.21889142978E+02 -0.14752899041E+04  0.14861979106E+04  0.17300000000E+03 0. -1.
<mgrwt>
<rscale>  2 0.17973294E+03</rscale>
<asrwt>0</asrwt>
<pdfrwt beam="1">  1       21 0.10265865E-01 0.17973294E+03</pdfrwt>
<pdfrwt beam="2">  1       21 0.24808379E+00 0.17973294E+03</pdfrwt>
<totfact> 0.53591595E+03</totfact>
</mgrwt>
</event>
<event>
 4    2  0.3992997E+000  0.1737749E+03  0.7546771E-02  0.1173967E+00
         21   -1    0    0  503  502  0.00000000000E+00  0.00000000000E+00  0.21518357169E+04  0.21518357169E+04  0.00000000000E+00 0.  1.
         21   -1    0    0  501  503 -0.00000000000E+00 -0.00000000000E+00 -0.17940216001E+02  0.17940216001E+02  0.00000000000E+00 0.  1.
          6    1    1    2  501    0  0.15856821069E+02  0.41560550285E+01  0.56068157164E+03  0.58699364250E+03  0.17300000000E+03 0.  1.
         -6    1    1    2    0  502 -0.15856821069E+02 -0.41560550285E+01  0.15732139293E+04  0.15827822904E+04  0.17300000000E+03 0.  1.
<mgrwt>
<rscale>  2 0.17377489E+03</rscale>
<asrwt>0</asrwt>
<pdfrwt beam="1">  1       21 0.33105144E+00 0.17377489E+03</pdfrwt>
<pdfrwt beam="2">  1       21 0.27600349E-02 0.17377489E+03</pdfrwt>
<totfact> 0.16755555E+04</totfact>
</mgrwt>
</event>
<event>
 4    2  0.3992997E+000  0.1854792E+03  0.7546771E-02  0.1162603E+00
         21   -1    0    0  501  502  0.00000000000E+00  0.00000000000E+00  0.39496944794E+02  0.39496944794E+02  0.00000000000E+00 0. -1.
         21   -1    0    0  502  503 -0.00000000000E+00 -0.00000000000E+00 -0.13861052569E+04  0.13861052569E+04  0.00000000000E+00 0. -1.
          6    1    1    2  501    0  0.61497479594E+02 -0.26298110973E+02 -0.23878306187E+03  0.30235720807E+03  0.17300000000E+03 0. -1.
         -6    1    1    2    0  503 -0.61497479594E+02  0.26298110973E+02 -0.11078252503E+04  0.11232449937E+04  0.17300000000E+03 0. -1.
<mgrwt>
<rscale>  2 0.18547919E+03</rscale>
<asrwt>0</asrwt>
<pdfrwt beam="1">  1       21 0.60764537E-02 0.18547919E+03</pdfrwt>
<pdfrwt beam="2">  1       21 0.21324694E+00 0.18547919E+03</pdfrwt>
<totfact> 0.21489097E+04</totfact>
</mgrwt>
</event>
<event>
 4    2  0.3992997E+000  0.2003651E+03  0.7546771E-02  0.1149431E+00
         21   -1    0    0  503  502  0.00000000000E+00  0.00000000000E+00  0.15088856165E+03  0.15088856165E+03  0.00000000000E+00 0. -1.
         21   -1    0    0  501  503 -0.00000000000E+00 -0.00000000000E+00 -0.26694542321E+03  0.26694542321E+03  0.00000000000E+00 0. -1.
          6    1    1    2  501    0 -0.64318909163E+02 -0.77976034532E+02 -0.46031299759E+02  0.20558468959E+03  0.17300000000E+03 0. -1.
         -6    1    1    2    0  502  0.64318909163E+02  0.77976034532E+02 -0.70025561802E+02  0.21224929527E+03  0.17300000000E+03 0. -1.
<mgrwt>
<rscale>  2 0.20036513E+03</rscale>
<asrwt>0</asrwt>
<pdfrwt beam="1">  1       21 0.23213625E-01 0.20036513E+03</pdfrwt>
<pdfrwt beam="2">  1       21 0.41068526E-01 0.20036513E+03</pdfrwt>
<totfact> 0.99283603E+04</totfact>
</mgrwt>
</event>
<event>
 4    2  0.3992997E+000  0.2019636E+03  0.7546771E-02  0.1148093E+00
         21   -1    0    0  501  502  0.00000000000E+00  0.00000000000E+00  0.92093672565E+02  0.92093672565E+02  0.00000000000E+00 0.  1.
         21   -1    0    0  502  503 -0.00000000000E+00 -0.00000000000E+00 -0.69449474286E+03  0.69449474286E+03  0.00000000000E+00 0.  1.
          6    1    1    2  501    0  0.78334363584E+02  0.68731390643E+02 -0.64486187941E+02  0.21200883239E+03  0.17300000000E+03 0.  1.
         -6    1    1    2    0  503 -0.78334363584E+02 -0.68731390643E+02 -0.53791488235E+03  0.57457958303E+03  0.17300000000E+03 0.  1.
<mgrwt>
<rscale>  2 0.20196355E+03</rscale>
<asrwt>0</asrwt>
<pdfrwt beam="1">  1       21 0.14168258E-01 0.20196355E+03</pdfrwt>
<pdfrwt beam="2">  1       21 0.10684534E+00 0.20196355E+03</pdfrwt>
<totfact> 0.30322343E+04</totfact>
</mgrwt>
</event>
<event>
 4    2  0.3992997E+000  0.1981113E+03  0.7546771E-02  0.1151342E+00
         21   -1    0    0  501  502  0.00000000000E+00  0.00000000000E+00  0.13533414985E+03  0.13533414985E+03  0.00000000000E+00 0.  1.
         21   -1    0    0  502  503 -0.00000000000E+00 -0.00000000000E+00 -0.35682615534E+03  0.35682615534E+03  0.00000000000E+00 0.  1.
          6    1    1    2  501    0 -0.96043006110E+02  0.97371778720E+01 -0.42597770298E+01  0.19815705225E+03  0.17300000000E+03 0.  1.
         -6    1    1    2    0  503  0.96043006110E+02 -0.97371778720E+01 -0.21723222846E+03  0.29400325294E+03  0.17300000000E+03 0.  1.
<mgrwt>
<rscale>  2 0.19811126E+03</rscale>
<asrwt>0</asrwt>
<pdfrwt beam="1">  1       21 0.20820639E-01 0.19811126E+03</pdfrwt>
<pdfrwt beam="2">  1       21 0.54896331E-01 0.19811126E+03</pdfrwt>
<totfact> 0.66882282E+04</totfact>
</mgrwt>
</event>
<event>
 4    2  0.3992997E+000  0.1898442E+03  0.7546771E-02  0.1158602E+00
         21   -1    0    0  503  502  0.00000000000E+00  0.00000000000E+00  0.84052984047E+03  0.84052984047E+03  0.00000000000E+00 0. -1.
         21   -1    0    0  501  503 -0.00000000000E+00 -0.00000000000E+00 -0.54739569481E+02  0.54739569481E+02  0.00000000000E+00 0. -1.
          6    1    1    2  501    0  0.78136482419E+02 -0.25516889159E+01  0.18452692955E+03  0.26474706558E+03  0.17300000000E+03 0. -1.
         -6    1    1    2    0  502 -0.78136482419E+02  0.25516889159E+01  0.60126334144E+03  0.63052234438E+03  0.17300000000E+03 0. -1.
<mgrwt>
<rscale>  2 0.18984420E+03</rscale>
<asrwt>0</asrwt>
<pdfrwt beam="1">  1       21 0.12931227E+00 0.18984420E+03</pdfrwt>
<pdfrwt beam="2">  1       21 0.84214728E-02 0.18984420E+03</pdfrwt>
<totfact> 0.48141023E+04</totfact>
</mgrwt>
</event>
<event>
 4    2  0.3992997E+000  0.2027036E+03  0.7546771E-02  0.1147478E+00
         21   -1    0    0  503  502  0.00000000000E+00  0.00000000000E+00  0.35143187093E+02  0.35143187093E+02  0.00000000000E+00 0.  1.
         21   -1    0    0  501  503 -0.00000000000E+00 -0.00000000000E+00 -0.11899586017E+04  0.11899586017E+04  0.00000000000E+00 0. -1.
          6    1    1    2  501    0  0.42061306260E+02 -0.96905171607E+02 -0.65834865181E+03  0.68884810597E+03  0.17300000000E+03 0.  1.
         -6    1    1    2    0  502 -0.42061306260E+02  0.96905171607E+02 -0.49646676276E+03  0.53625368278E+03  0.17300000000E+03 0.  1.
<mgrwt>
<rscale>  2 0.20270364E+03</rscale>
<asrwt>0</asrwt>
<pdfrwt beam="1">  1       21 0.54066451E-02 0.20270364E+03</pdfrwt>
<pdfrwt beam="2">  1       21 0.18307052E+00 0.20270364E+03</pdfrwt>
<totfact> 0.40590063E+04</totfact>
</mgrwt>
</event>
<event>
 4    2  0.3992997E+000  0.1781462E+03  0.7546771E-02  0.1169609E+00
         21   -1    0    0  501  502  0.00000000000E+00  0.00000000000E+00  0.27350851951E+04  0.27350851951E+04  0.00000000000E+00 0.  1.
         21   -1    0    0  502  503 -0.00000000000E+00 -0.00000000000E+00 -0.28598244875E+02  0.28598244875E+02  0.00000000000E+00 0.  1.
          6    1    1    2  501    0 -0.32112879005E+02  0.27853828731E+02  0.24184853151E+04  0.24250375858E+04  0.17300000000E+03 0.  1.
         -6    1    1    2    0  503  0.32112879005E+02 -0.27853828731E+02  0.28800163513E+03  0.33864585426E+03  0.17300000000E+03 0.  1.
<mgrwt>
<rscale>  2 0.17814621E+03</rscale>
<asrwt>0</asrwt>
<pdfrwt beam="1">  1       21 0.42078213E+00 0.17814621E+03</pdfrwt>
<pdfrwt beam="2">  1       21 0.43997321E-02 0.17814621E+03</pdfrwt>
<totfact> 0.22010006E+03</totfact>
</mgrwt>
</event>
<event>
 4    2  0.3992997E+000  0.2609120E+03  0.7546771E-02  0.1106597E+00
         21   -1    0    0  503  502  0.00000000000E+00  0.00000000000E+00  0.43154673010E+03  0.43154673010E+03  0.00000000000E+00 0. -1.
         21   -1    0    0  501  503 -0.00000000000E+00 -0.00000000000E+00 -0.17774782769E+03  0.17774782769E+03  0.00000000000E+00 0.  1.
          6    1    1    2  501    0 -0.15184167679E+03  0.12284207755E+03  0.22909275450E+03  0.34721543887E+03  0.17300000000E+03 0. -1.
         -6    1    1    2    0  502  0.15184167679E+03 -0.12284207755E+03  0.24706147904E+02  0.26207911892E+03  0.17300000000E+03 0.  1.
<mgrwt>
<rscale>  2 0.26091200E+03</rscale>
<asrwt>0</asrwt>
<pdfrwt beam="1">  1       21 0.66391804E-01 0.26091200E+03</pdfrwt>
<pdfrwt beam="2">  1       21 0.27345820E-01 0.26091200E+03</pdfrwt>
<totfact> 0.25633293E+04</totfact>
</mgrwt>
</event>
<event>
 4    2  0.3992997E+000  0.2386627E+03  0.7546771E-02  0.1120687E+00
         21   -1    0    0  501  502  0.00000000000E+00  0.00000000000E+00  0.41359702497E+03  0.41359702497E+03  0.00000000000E+00 0.  1.
         21   -1    0    0  502  503 -0.00000000000E+00 -0.00000000000E+00 -0.15179782605E+03  0.15179782605E+03  0.00000000000E+00 0.  1.
          6    1    1    2  501    0  0.16144528723E+03  0.31085651099E+02  0.44803718301E+02  0.24283177643E+03  0.17300000000E+03 0.  1.
         -6    1    1    2    0  503 -0.16144528723E+03 -0.31085651099E+02  0.21699548062E+03  0.32256307458E+03  0.17300000000E+03 0.  1.
<mgrwt>
<rscale>  2 0.23866273E+03</rscale>
<asrwt>0</asrwt>
<pdfrwt beam="1">  1       21 0.63630311E-01 0.23866273E+03</pdfrwt>
<pdfrwt beam="2">  1       21 0.23353512E-01 0.23866273E+03</pdfrwt>
<totfact> 0.38485755E+04</totfact>
</mgrwt>
</event>
<event>
 4    2  0.3992997E+000  0.2123418E+03  0.7546771E-02  0.1139725E+00
         21   -1    0    0  501  502  0.00000000000E+00  0.00000000000E+00  0.18283085904E+03  0.18283085904E+03  0.00000000000E+00 0. -1.
         21   -1    0    0  502  503 -0.00000000000E+00 -0.00000000000E+00 -0.65581446771E+03  0.65581446771E+03  0.00000000000E+00 0. -1.
          6    1    1    2  501    0  0.10896956234E+03  0.57320933351E+02  0.94734426717E+02  0.23251594896E+03  0.17300000000E+03 0. -1.
         -6    1    1    2    0  503 -0.10896956234E+03 -0.57320933351E+02 -0.56771803539E+03  0.60612937779E+03  0.17300000000E+03 0. -1.
<mgrwt>
<rscale>  2 0.21234184E+03</rscale>
<asrwt>0</asrwt>
<pdfrwt beam="1">  1       21 0.28127824E-01 0.21234184E+03</pdfrwt>
<pdfrwt beam="2">  1       21 0.10089453E+00 0.21234184E+03</pdfrwt>
<totfact> 0.95739381E+03</totfact>
</mgrwt>
</event>
<event>
 4    2  0.3992997E+000  0.2917673E+03  0.7546771E-02  0.1089430E+00
         21   -1    0    0  501  502  0.00000000000E+00  0.00000000000E+00  0.31828329862E+03  0.31828329862E+03  0.00000000000E+00 0.  1.
         21   -1    0    0  502  503 -0.00000000000E+00 -0.00000000000E+00 -0.31121405810E+03  0.31121405810E+03  0.00000000000E+00 0.  1.
          6    1    1    2  501    0 -0.18115790522E+03  0.14960268305E+03  0.12155090753E+03  0.31607399849E+03  0.17300000000E+03 0.  1.
         -6    1    1    2    0  503  0.18115790522E+03 -0.14960268305E+03 -0.11448166701E+03  0.31342335822E+03  0.17300000000E+03 0.  1.
<mgrwt>
<rscale>  2 0.29176729E+03</rscale>
<asrwt>0</asrwt>
<pdfrwt beam="1">  1       21 0.48966661E-01 0.29176729E+03</pdfrwt>
<pdfrwt beam="2">  1       21 0.47879086E-01 0.29176729E+03</pdfrwt>
<totfact> 0.15753325E+04</totfact>
</mgrwt>
</event>
<event>
 4    2  0.3992997E+000  0.1805517E+03  0.7546771E-02  0.1167270E+00
         21   -1    0    0  501  502  0.00000000000E+00  0.00000000000E+00  0.20558587720E+03  0.20558587720E+03  0.00000000000E+00 0. -1.
         21   -1    0    0  502  503 -0.00000000000E+00 -0.00000000000E+00 -0.17343098361E+03  0.17343098361E+03  0.00000000000E+00 0. -1.
          6    1    1    2  501    0 -0.50598165930E+02  0.10476588483E+02  0.71558818290E+02  0.19421533868E+03  0.17300000000E+03 0. -1.
         -6    1    1    2    0  503  0.50598165930E+02 -0.10476588483E+02 -0.39403924702E+02  0.18480152214E+03  0.17300000000E+03 0. -1.
<mgrwt>
<rscale>  2 0.18055175E+03</rscale>
<asrwt>0</asrwt>
<pdfrwt beam="1">  1       21 0.31628597E-01 0.18055175E+03</pdfrwt>
<pdfrwt beam="2">  1       21 0.26681690E-01 0.18055175E+03</pdfrwt>
<totfact> 0.12902318E+05</totfact>
</mgrwt>
</event>
<event>
 4    2  0.3992997E+000  0.2082052E+03  0.7546771E-02  0.1142995E+00
         21   -1    0    0  501  502  0.00000000000E+00  0.00000000000E+00  0.67584243405E+02  0.67584243405E+02  0.00000000000E+00 0.  1.
         21   -1    0    0  502  503 -0.00000000000E+00 -0.00000000000E+00 -0.71686388192E+03  0.71686388192E+03  0.00000000000E+00 0.  1.
          6    1    1    2  501    0 -0.11567223390E+03  0.63503247010E+01 -0.19739242558E+03  0.28690270475E+03  0.17300000000E+03 0.  1.
         -6    1    1    2    0  503  0.11567223390E+03 -0.63503247010E+01 -0.45188721293E+03  0.49754542057E+03  0.17300000000E+03 0.  1.
<mgrwt>
<rscale>  2 0.20820517E+03</rscale>
<asrwt>0</asrwt>
<pdfrwt beam="1">  1       21 0.10397576E-01 0.20820517E+03</pdfrwt>
<pdfrwt beam="2">  1       21 0.11028675E+00 0.20820517E+03</pdfrwt>
<totfact> 0.48756680E+04</totfact>
</mgrwt>
</event>
<event>
 4    2  0.3992997E+000  0.2577016E+03  0.7546771E-02  0.1108532E+00
         21   -1    0    0  501  502  0.00000000000E+00  0.00000000000E+00  0.89553394268E+02  0.89553394268E+02  0.00000000000E+00 0. -1.
         21   -1    0    0  502  503 -0.00000000000E+00 -0.00000000000E+00 -0.11029363969E+04  0.11029363969E+04  0.00000000000E+00 0.  1.
          6    1    1    2  501    0  0.15155245061E+03 -0.11624533732E+03 -0.16540175993E+03  0.30621539139E+03  0.17300000000E+03 0. -1.
         -6    1    1    2    0  503 -0.15155245061E+03  0.11624533732E+03 -0.84798124271E+03  0.88627439979E+03  0.17300000000E+03 0.  1.
<mgrwt>
<rscale>  2 0.25770162E+03</rscale>
<asrwt>0</asrwt>
<pdfrwt beam="1">  1       21 0.13777445E-01 0.25770162E+03</pdfrwt>
<pdfrwt beam="2">  1       21 0.16968252E+00 0.25770162E+03</pdfrwt>
<totfact> 0.93778275E+03</totfact>
</mgrwt>
</event>
<event>
 4    2  0.3992997E+000  0.1794093E+03  0.7546771E-02  0.1168376E+00
         21   -1    0    0  501  502  0.00000000000E+00  0.00000000000E+00  0.39918906393E+02  0.39918906393E+02  0.00000000000E+00 0.  1.
         21   -1    0    0  502  503 -0.00000000000E+00 -0.00000000000E+00 -0.11986945821E+04  0.11986945821E+04  0.00000000000E+00 0.  1.
          6    1    1    2  501    0 -0.23859121409E+02 -0.41102777391E+02 -0.22506589987E+03  0.28782347936E+03  0.17300000000E+03 0.  1.
         -6    1    1    2    0  503  0.23859121409E+02  0.41102777391E+02 -0.93370977579E+03  0.95079000909E+03  0.17300000000E+03 0.  1.
<mgrwt>
<rscale>  2 0.17940930E+03</rscale>
<asrwt>0</asrwt>
<pdfrwt beam="1">  1       21 0.61413706E-02 0.17940930E+03</pdfrwt>
<pdfrwt beam="2">  1       21 0.18441454E+00 0.17940930E+03</pdfrwt>
<totfact> 0.32479218E+04</totfact>
</mgrwt>
</event>
<event>
 4    2  0.3992997E+000  0.2986349E+03  0.7546771E-02  0.1085925E+00
         21   -1    0    0  503  502  0.00000000000E+00  0.00000000000E+00  0.50034596565E+03  0.50034596565E+03  0.00000000000E+00 0.  1.
         21   -1    0    0  501  503 -0.00000000000E+00 -0.00000000000E+00 -0.75322370875E+03  0.75322370875E+03  0.00000000000E+00 0. -1.
          6    1    1    2  501    0 -0.55491997375E+02  0.23701144271E+03 -0.67406405903E+03  0.73725513997E+03  0.17300000000E+03 0. -1.
         -6    1    1    2    0  502  0.55491997375E+02 -0.23701144271E+03  0.42118631593E+03  0.51631453444E+03  0.17300000000E+03 0.  1.
<mgrwt>
<rscale>  2 0.29863487E+03</rscale>
<asrwt>0</asrwt>
<pdfrwt beam="1">  1       21 0.76976303E-01 0.29863487E+03</pdfrwt>
<pdfrwt beam="2">  1       21 0.11588057E+00 0.29863487E+03</pdfrwt>
<totfact> 0.78952801E+02</totfact>
</mgrwt>
</event>
<event>
 4    2  0.3992997E+000  0.2148272E+03  0.7546771E-02  0.1137799E+00
         21   -1    0    0  501  502  0.00000000000E+00  0.00000000000E+00  0.11509257332E+03  0.11509257332E+03  0.00000000000E+00 0. -1.
         21   -1    0    0  502  503 -0.00000000000E+00 -0.00000000000E+00 -0.73629766975E+03  0.73629766975E+03  0.00000000000E+00 0.  1.
          6    1    1    2  501    0  0.91134137113E+02 -0.88973590126E+02 -0.23329385344E+02  0.21609023788E+03  0.17300000000E+03 0. -1.
         -6    1    1    2    0  503 -0.91134137113E+02  0.88973590126E+02 -0.59787571108E+03  0.63530000518E+03  0.17300000000E+03 0.  1.
<mgrwt>
<rscale>  2 0.21482721E+03</rscale>
<asrwt>0</asrwt>
<pdfrwt beam="1">  1       21 0.17706549E-01 0.21482721E+03</pdfrwt>
<pdfrwt beam="2">  1       21 0.11327657E+00 0.21482721E+03</pdfrwt>
<totfact> 0.17356301E+04</totfact>
</mgrwt>
</event>
<event>
 4    2  0.3992997E+000  0.1814761E+03  0.7546771E-02  0.1166382E+00
         21   -1    0    0  501  502  0.00000000000E+00  0.00000000000E+00  0.81101438250E+02  0.81101438250E+02  0.00000000000E+00 0.  1.
         21   -1    0    0  502  503 -0.00000000000E+00 -0.00000000000E+00 -0.63871804275E+03  0.63871804275E+03  0.00000000000E+00 0.  1.
          6    1    1    2  501    0  0.54811209759E+02  0.56304967664E+00 -0.61598025376E+02  0.19164525163E+03  0.17300000000E+03 0.  1.
         -6    1    1    2    0  503 -0.54811209759E+02 -0.56304967664E+00 -0.49601857912E+03  0.52817422937E+03  0.17300000000E+03 0.  1.
<mgrwt>
<rscale>  2 0.18147613E+03</rscale>
<asrwt>0</asrwt>
<pdfrwt beam="1">  1       21 0.12477145E-01 0.18147613E+03</pdfrwt>
<pdfrwt beam="2">  1       21 0.98264312E-01 0.18147613E+03</pdfrwt>
<totfact> 0.47088217E+04</totfact>
</mgrwt>
</event>
<event>
 4    2  0.3992997E+000  0.1923256E+03  0.7546771E-02  0.1156380E+00
         21   -1    0    0  501  502  0.00000000000E+00  0.00000000000E+00  0.83281453764E+02  0.83281453764E+02  0.00000000000E+00 0.  1.
         21   -1    0    0  502  503 -0.00000000000E+00 -0.00000000000E+00 -0.10714157422E+04  0.10714157422E+04  0.00000000000E+00 0.  1.
          6    1    1    2  501    0 -0.39999135195E+02  0.73893188078E+02 -0.52307302279E+02  0.19931178573E+03  0.17300000000E+03 0.  1.
         -6    1    1    2    0  503  0.39999135195E+02 -0.73893188078E+02 -0.93582698616E+03  0.95538541023E+03  0.17300000000E+03 0.  1.
<mgrwt>
<rscale>  2 0.19232559E+03</rscale>
<asrwt>0</asrwt>
<pdfrwt beam="1">  1       21 0.12812532E-01 0.19232559E+03</pdfrwt>
<pdfrwt beam="2">  1       21 0.16483319E+00 0.19232559E+03</pdfrwt>
<totfact> 0.12118455E+04</totfact>
</mgrwt>
</event>
<event>
 4    2  0.3992997E+000  0.1913754E+03  0.7546771E-02  0.1157227E+00
         21   -1    0    0  503  502  0.00000000000E+00  0.00000000000E+00  0.21993799222E+03  0.21993799222E+03  0.00000000000E+00 0. -1.
         21   -1    0    0  501  503 -0.00000000000E+00 -0.00000000000E+00 -0.18389194338E+03  0.18389194338E+03  0.00000000000E+00 0.  1.
          6    1    1    2  501    0 -0.43993391846E+02 -0.68993651676E+02  0.80079165214E+02  0.20745412794E+03  0.17300000000E+03 0. -1.
         -6    1    1    2    0  502  0.43993391846E+02  0.68993651676E+02 -0.44033116369E+02  0.19637580766E+03  0.17300000000E+03 0. -1.
<mgrwt>
<rscale>  2 0.19137540E+03</rscale>
<asrwt>0</asrwt>
<pdfrwt beam="1">  1       21 0.33836614E-01 0.19137540E+03</pdfrwt>
<pdfrwt beam="2">  1       21 0.28291068E-01 0.19137540E+03</pdfrwt>
<totfact> 0.10053797E+05</totfact>
</mgrwt>
</event>
<event>
 4    2  0.3992997E+000  0.1785779E+03  0.7546771E-02  0.1169187E+00
         21   -1    0    0  503  502  0.00000000000E+00  0.00000000000E+00  0.46963790568E+03  0.46963790568E+03  0.00000000000E+00 0.  1.
         21   -1    0    0  501  503 -0.00000000000E+00 -0.00000000000E+00 -0.69863744057E+02  0.69863744057E+02  0.00000000000E+00 0.  1.
          6    1    1    2  501    0 -0.35457432999E+02  0.26529874148E+02  0.15470247975E+03  0.23626874744E+03  0.17300000000E+03 0.  1.
         -6    1    1    2    0  502  0.35457432999E+02 -0.26529874148E+02  0.24507168188E+03  0.30323290230E+03  0.17300000000E+03 0.  1.
<mgrwt>
<rscale>  2 0.17857789E+03</rscale>
<asrwt>0</asrwt>
<pdfrwt beam="1">  1       21 0.72251984E-01 0.17857789E+03</pdfrwt>
<pdfrwt beam="2">  1       21 0.10748269E-01 0.17857789E+03</pdfrwt>
<totfact> 0.12400165E+05</totfact>
</mgrwt>
</event>
<event>
 4    2  0.3992997E+000  0.1824389E+03  0.7546771E-02  0.1165463E+00
         21   -1    0    0  501  502  0.00000000000E+00  0.00000000000E+00  0.41686287633E+02  0.41686287633E+02  0.00000000000E+00 0. -1.
         21   -1    0    0  502  503 -0.00000000000E+00 -0.00000000000E+00 -0.11312433874E+04  0.11312433874E+04  0.00000000000E+00 0. -1.
          6    1    1    2  501    0 -0.52206503023E+02 -0.25088517046E+02 -0.22668229646E+03  0.29097906484E+03  0.17300000000E+03 0. -1.
         -6    1    1    2    0  503  0.52206503023E+02  0.25088517046E+02 -0.86287480334E+03  0.88195061023E+03  0.17300000000E+03 0. -1.
<mgrwt>
<rscale>  2 0.18243890E+03</rscale>
<asrwt>0</asrwt>
<pdfrwt beam="1">  1       21 0.64132742E-02 0.18243890E+03</pdfrwt>
<pdfrwt beam="2">  1       21 0.17403747E+00 0.18243890E+03</pdfrwt>
<totfact> 0.35406072E+04</totfact>
</mgrwt>
</event>
<event>
 4    2  0.3992997E+000  0.1820742E+03  0.7546771E-02  0.1165811E+00
         21   -1    0    0  501  502  0.00000000000E+00  0.00000000000E+00  0.15792399978E+03  0.15792399978E+03  0.00000000000E+00 0. -1.
         21   -1    0    0  502  503 -0.00000000000E+00 -0.00000000000E+00 -0.63455912335E+03  0.63455912335E+03  0.00000000000E+00 0. -1.
          6    1    1    2  501    0  0.41611777266E+02  0.38606768312E+02  0.85824376095E+02  0.20128796809E+03  0.17300000000E+03 0. -1.
         -6    1    1    2    0  503 -0.41611777266E+02 -0.38606768312E+02 -0.56245949967E+03  0.59119515504E+03  0.17300000000E+03 0. -1.
<mgrwt>
<rscale>  2 0.18207422E+03</rscale>
<asrwt>0</asrwt>
<pdfrwt beam="1">  1       21 0.24296000E-01 0.18207422E+03</pdfrwt>
<pdfrwt beam="2">  1       21 0.97624481E-01 0.18207422E+03</pdfrwt>
<totfact> 0.13995708E+04</totfact>
</mgrwt>
</event>
<event>
 4    2  0.3992997E+000  0.2040892E+03  0.7546771E-02  0.1146334E+00
         21   -1    0    0  503  502  0.00000000000E+00  0.00000000000E+00  0.78904140078E+03  0.78904140078E+03  0.00000000000E+00 0. -1.
         21   -1    0    0  501  503 -0.00000000000E+00 -0.00000000000E+00 -0.60884687689E+02  0.60884687689E+02  0.00000000000E+00 0. -1.
          6    1    1    2  501    0 -0.10789603852E+03  0.90473540146E+01  0.20911319122E+03  0.29219982287E+03  0.17300000000E+03 0. -1.
         -6    1    1    2    0  502  0.10789603852E+03 -0.90473540146E+01  0.51904352188E+03  0.55772626560E+03  0.17300000000E+03 0. -1.
<mgrwt>
<rscale>  2 0.20408922E+03</rscale>
<asrwt>0</asrwt>
<pdfrwt beam="1">  1       21 0.12139098E+00 0.20408922E+03</pdfrwt>
<pdfrwt beam="2">  1       21 0.93668756E-02 0.20408922E+03</pdfrwt>
<totfact> 0.46444356E+04</totfact>
</mgrwt>
</event>
<event>
 4    2  0.3992997E+000  0.1983043E+03  0.7546771E-02  0.1151178E+00
         21   -1    0    0  501  502  0.00000000000E+00  0.00000000000E+00  0.78523708666E+02  0.78523708666E+02  0.00000000000E+00 0.  1.
         21   -1    0    0  502  503 -0.00000000000E+00 -0.00000000000E+00 -0.72229280355E+03  0.72229280355E+03  0.00000000000E+00 0.  1.
          6    1    1    2  501    0  0.86720077668E+02 -0.43303816094E+02 -0.10015314675E+03  0.22216040413E+03  0.17300000000E+03 0.  1.
         -6    1    1    2    0  503 -0.86720077668E+02  0.43303816094E+02 -0.54361594814E+03  0.57865610809E+03  0.17300000000E+03 0.  1.
<mgrwt>
<rscale>  2 0.19830429E+03</rscale>
<asrwt>0</asrwt>
<pdfrwt beam="1">  1       21 0.12080571E-01 0.19830429E+03</pdfrwt>
<pdfrwt beam="2">  1       21 0.11112197E+00 0.19830429E+03</pdfrwt>
<totfact> 0.36833301E+04</totfact>
</mgrwt>
</event>
<event>
 4    2  0.3992997E+000  0.1967595E+03  0.7546771E-02  0.1152502E+00
         21   -1    0    0  503  502  0.00000000000E+00  0.00000000000E+00  0.30107507637E+02  0.30107507637E+02  0.00000000000E+00 0. -1.
         21   -1    0    0  501  503 -0.00000000000E+00 -0.00000000000E+00 -0.13047483111E+04  0.13047483111E+04  0.00000000000E+00 0. -1.
          6    1    1    2  501    0  0.83631276706E+02  0.42321340921E+02 -0.55703374329E+03  0.59076296220E+03  0.17300000000E+03 0. -1.
         -6    1    1    2    0  502 -0.83631276706E+02 -0.42321340921E+02 -0.71760706016E+03  0.74409285653E+03  0.17300000000E+03 0. -1.
<mgrwt>
<rscale>  2 0.19675946E+03</rscale>
<asrwt>0</asrwt>
<pdfrwt beam="1">  1       21 0.46319251E-02 0.19675946E+03</pdfrwt>
<pdfrwt beam="2">  1       21 0.20073047E+00 0.19675946E+03</pdfrwt>
<totfact> 0.40551376E+04</totfact>
</mgrwt>
</event>
<event>
 4    2  0.3992997E+000  0.1926257E+03  0.7546771E-02  0.1156114E+00
         21   -1    0    0  503  502  0.00000000000E+00  0.00000000000E+00  0.14308620790E+04  0.14308620790E+04  0.00000000000E+00 0.  1.
         21   -1    0    0  501  503 -0.00000000000E+00 -0.00000000000E+00 -0.26028032069E+02  0.26028032069E+02  0.00000000000E+00 0.  1.
          6    1    1    2  501    0  0.41600091912E+02 -0.73790916580E+02  0.65809783938E+03  0.68570943790E+03  0.17300000000E+03 0.  1.
         -6    1    1    2    0  502 -0.41600091912E+02  0.73790916580E+02  0.74673620758E+03  0.77118067321E+03  0.17300000000E+03 0.  1.
<mgrwt>
<rscale>  2 0.19262572E+03</rscale>
<asrwt>0</asrwt>
<pdfrwt beam="1">  1       21 0.22013257E+00 0.19262572E+03</pdfrwt>
<pdfrwt beam="2">  1       21 0.40043137E-02 0.19262572E+03</pdfrwt>
<totfact> 0.39275963E+04</totfact>
</mgrwt>
</event>
<event>
 4    2  0.3992997E+000  0.2974319E+03  0.7546771E-02  0.1086531E+00
         21   -1    0    0  503  502  0.00000000000E+00  0.00000000000E+00  0.19053353375E+03  0.19053353375E+03  0.00000000000E+00 0.  1.
         21   -1    0    0  501  503 -0.00000000000E+00 -0.00000000000E+00 -0.66264436923E+03  0.66264436923E+03  0.00000000000E+00 0. -1.
          6    1    1    2  501    0  0.79160743166E+02  0.22862695464E+03 -0.46944077705E+03  0.55573406482E+03  0.17300000000E+03 0. -1.
         -6    1    1    2    0  502 -0.79160743166E+02 -0.22862695464E+03 -0.26700584304E+01  0.29744383816E+03  0.17300000000E+03 0.  1.
<mgrwt>
<rscale>  2 0.29743185E+03</rscale>
<asrwt>0</asrwt>
<pdfrwt beam="1">  1       21 0.29312851E-01 0.29743185E+03</pdfrwt>
<pdfrwt beam="2">  1       21 0.10194529E+00 0.29743185E+03</pdfrwt>
<totfact> 0.82094485E+03</totfact>
</mgrwt>
</event>
<event>
 4    2  0.3992997E+000  0.1773270E+03  0.7546771E-02  0.1170415E+00
         21   -1    0    0  501  502  0.00000000000E+00  0.00000000000E+00  0.15855796845E+04  0.15855796845E+04  0.00000000000E+00 0.  1.
         21   -1    0    0  502  503 -0.00000000000E+00 -0.00000000000E+00 -0.22926250891E+02  0.22926250891E+02  0.00000000000E+00 0.  1.
          6    1    1    2  501    0  0.13579045792E+02  0.36489534749E+02  0.10768004963E+04  0.10913038923E+04  0.17300000000E+03 0. -1.
         -6    1    1    2    0  503 -0.13579045792E+02 -0.36489534749E+02  0.48585293731E+03  0.51720204304E+03  0.17300000000E+03 0. -1.
<mgrwt>
<rscale>  2 0.17732703E+03</rscale>
<asrwt>0</asrwt>
<pdfrwt beam="1">  1       21 0.24393525E+00 0.17732703E+03</pdfrwt>
<pdfrwt beam="2">  1       21 0.35271168E-02 0.17732703E+03</pdfrwt>
<totfact> 0.35353650E+04</totfact>
</mgrwt>
</event>
<event>
 4    2  0.3992997E+000  0.2040485E+03  0.7546771E-02  0.1146368E+00
         21   -1    0    0  503  502  0.00000000000E+00  0.00000000000E+00  0.43317110398E+02  0.43317110398E+02  0.00000000000E+00 0. -1.
         21   -1    0    0  501  503 -0.00000000000E+00 -0.00000000000E+00 -0.13740267298E+04  0.13740267298E+04  0.00000000000E+00 0. -1.
          6    1    1    2  501    0  0.61559397281E+02  0.88978885719E+02 -0.10538081726E+04  0.10733813237E+04  0.17300000000E+03 0. -1.
         -6    1    1    2    0  502 -0.61559397281E+02 -0.88978885719E+02 -0.27690144684E+03  0.34396251650E+03  0.17300000000E+03 0. -1.
<mgrwt>
<rscale>  2 0.20404853E+03</rscale>
<asrwt>0</asrwt>
<pdfrwt beam="1">  1       21 0.66641706E-02 0.20404853E+03</pdfrwt>
<pdfrwt beam="2">  1       21 0.21138874E+00 0.20404853E+03</pdfrwt>
<totfact> 0.18560790E+04</totfact>
</mgrwt>
</event>
<event>
 4    2  0.3992997E+000  0.1852690E+03  0.7546771E-02  0.1162799E+00
         21   -1    0    0  503  502  0.00000000000E+00  0.00000000000E+00  0.12862471959E+04  0.12862471959E+04  0.00000000000E+00 0.  1.
         21   -1    0    0  501  503 -0.00000000000E+00 -0.00000000000E+00 -0.10203565192E+03  0.10203565192E+03  0.00000000000E+00 0. -1.
          6    1    1    2  501    0  0.59801578583E+02 -0.28624579551E+02 -0.43978125920E+01  0.18532117016E+03  0.17300000000E+03 0. -1.
         -6    1    1    2    0  502 -0.59801578583E+02  0.28624579551E+02  0.11886093566E+04  0.12029616777E+04  0.17300000000E+03 0.  1.
<mgrwt>
<rscale>  2 0.18526898E+03</rscale>
<asrwt>0</asrwt>
<pdfrwt beam="1">  1       21 0.19788417E+00 0.18526898E+03</pdfrwt>
<pdfrwt beam="2">  1       21 0.15697794E-01 0.18526898E+03</pdfrwt>
<totfact> 0.50369674E+03</totfact>
</mgrwt>
</event>
<event>
 4    2  0.3992997E+000  0.1816084E+03  0.7546771E-02  0.1166255E+00
         21   -1    0    0  501  502  0.00000000000E+00  0.00000000000E+00  0.33543528857E+02  0.33543528857E+02  0.00000000000E+00 0.  1.
         21   -1    0    0  502  503 -0.00000000000E+00 -0.00000000000E+00 -0.10032666480E+04  0.10032666480E+04  0.00000000000E+00 0.  1.
          6    1    1    2  501    0 -0.55246707867E+02  0.64931607736E+00 -0.55808908178E+03  0.58689440578E+03  0.17300000000E+03 0.  1.
         -6    1    1    2    0  503  0.55246707867E+02 -0.64931607736E+00 -0.41163403737E+03  0.44991577107E+03  0.17300000000E+03 0.  1.
<mgrwt>
<rscale>  2 0.18160843E+03</rscale>
<asrwt>0</asrwt>
<pdfrwt beam="1">  1       21 0.51605435E-02 0.18160843E+03</pdfrwt>
<pdfrwt beam="2">  1       21 0.15434870E+00 0.18160843E+03</pdfrwt>
<totfact> 0.71070733E+04</totfact>
</mgrwt>
</event>
<event>
 4    2  0.3992997E+000  0.1806864E+03  0.7546771E-02  0.1167140E+00
         21   -1    0    0  503  502  0.00000000000E+00  0.00000000000E+00  0.21570668414E+02  0.21570668414E+02  0.00000000000E+00 0. -1.
         21   -1    0    0  501  503 -0.00000000000E+00 -0.00000000000E+00 -0.18351873324E+04  0.18351873324E+04  0.00000000000E+00 0. -1.
          6    1    1    2  501    0 -0.32971836786E+02  0.40390802805E+02 -0.51812934635E+03  0.54873087987E+03  0.17300000000E+03 0.  1.
         -6    1    1    2    0  502  0.32971836786E+02 -0.40390802805E+02 -0.12954873177E+04  0.13080271210E+04  0.17300000000E+03 0.  1.
<mgrwt>
<rscale>  2 0.18068636E+03</rscale>
<asrwt>0</asrwt>
<pdfrwt beam="1">  1       21 0.33185625E-02 0.18068636E+03</pdfrwt>
<pdfrwt beam="2">  1       21 0.28233667E+00 0.18068636E+03</pdfrwt>
<totfact> 0.23357730E+04</totfact>
</mgrwt>
</event>
<event>
 4    2  0.3992997E+000  0.1873537E+03  0.7546771E-02  0.1160870E+00
         21   -1    0    0  503  502  0.00000000000E+00  0.00000000000E+00  0.17220113528E+04  0.17220113528E+04  0.00000000000E+00 0. -1.
         21   -1    0    0  501  503 -0.00000000000E+00 -0.00000000000E+00 -0.25904082704E+02  0.25904082704E+02  0.00000000000E+00 0. -1.
          6    1    1    2  501    0  0.20261126294E+02 -0.69006577508E+02  0.44461225560E+03  0.48247432968E+03  0.17300000000E+03 0. -1.
         -6    1    1    2    0  502 -0.20261126294E+02  0.69006577508E+02  0.12514950145E+04  0.12654411058E+04  0.17300000000E+03 0. -1.
<mgrwt>
<rscale>  2 0.18735373E+03</rscale>
<asrwt>0</asrwt>
<pdfrwt beam="1">  1       21 0.26492473E+00 0.18735373E+03</pdfrwt>
<pdfrwt beam="2">  1       21 0.39852448E-02 0.18735373E+03</pdfrwt>
<totfact> 0.21553228E+04</totfact>
</mgrwt>
</event>
<event>
 4    2  0.3992997E+000  0.1985040E+03  0.7546771E-02  0.1151007E+00
         21   -1    0    0  503  502  0.00000000000E+00  0.00000000000E+00  0.11336194810E+03  0.11336194810E+03  0.00000000000E+00 0. -1.
         21   -1    0    0  501  503 -0.00000000000E+00 -0.00000000000E+00 -0.47196098187E+03  0.47196098187E+03  0.00000000000E+00 0. -1.
          6    1    1    2  501    0 -0.94476078060E+02 -0.23432888965E+02 -0.32953296458E+03  0.38470222817E+03  0.17300000000E+03 0. -1.
         -6    1    1    2    0  502  0.94476078060E+02  0.23432888965E+02 -0.29066069188E+02  0.20062070180E+03  0.17300000000E+03 0. -1.
<mgrwt>
<rscale>  2 0.19850398E+03</rscale>
<asrwt>0</asrwt>
<pdfrwt beam="1">  1       21 0.17440300E-01 0.19850398E+03</pdfrwt>
<pdfrwt beam="2">  1       21 0.72609382E-01 0.19850398E+03</pdfrwt>
<totfact> 0.50710575E+04</totfact>
</mgrwt>
</event>
<event>
 4    2  0.3992997E+000  0.1915034E+03  0.7546771E-02  0.1157112E+00
         21   -1    0    0  503  502  0.00000000000E+00  0.00000000000E+00  0.48936381136E+03  0.48936381136E+03  0.00000000000E+00 0.  1.
         21   -1    0    0  501  503 -0.00000000000E+00 -0.00000000000E+00 -0.86530733924E+02  0.86530733924E+02  0.00000000000E+00 0.  1.
          6    1    1    2  501    0  0.71190818629E+02 -0.40944242294E+02  0.96036402413E+02  0.21423481095E+03  0.17300000000E+03 0.  1.
         -6    1    1    2    0  502 -0.71190818629E+02  0.40944242294E+02  0.30679667502E+03  0.36165973433E+03  0.17300000000E+03 0.  1.
<mgrwt>
<rscale>  2 0.19150343E+03</rscale>
<asrwt>0</asrwt>
<pdfrwt beam="1">  1       21 0.75286739E-01 0.19150343E+03</pdfrwt>
<pdfrwt beam="2">  1       21 0.13312421E-01 0.19150343E+03</pdfrwt>
<totfact> 0.76814747E+04</totfact>
</mgrwt>
</event>
<event>
 4    2  0.3992997E+000  0.1954002E+03  0.7546771E-02  0.1153679E+00
         21   -1    0    0  501  502  0.00000000000E+00  0.00000000000E+00  0.44731994037E+03  0.44731994037E+03  0.00000000000E+00 0. -1.
         21   -1    0    0  502  503 -0.00000000000E+00 -0.00000000000E+00 -0.91197147890E+02  0.91197147890E+02  0.00000000000E+00 0.  1.
          6    1    1    2  501    0  0.57290828451E+01  0.90661017927E+02  0.10991475696E+03  0.22419298910E+03  0.17300000000E+03 0.  1.
         -6    1    1    2    0  503 -0.57290828451E+01 -0.90661017927E+02  0.24620803552E+03  0.31432409916E+03  0.17300000000E+03 0. -1.
<mgrwt>
<rscale>  2 0.19540021E+03</rscale>
<asrwt>0</asrwt>
<pdfrwt beam="1">  1       21 0.68818451E-01 0.19540021E+03</pdfrwt>
<pdfrwt beam="2">  1       21 0.14030331E-01 0.19540021E+03</pdfrwt>
<totfact> 0.85102181E+04</totfact>
</mgrwt>
</event>
<event>
 4    2  0.3992997E+000  0.1790289E+03  0.7546771E-02  0.1168746E+00
         21   -1    0    0  503  502  0.00000000000E+00  0.00000000000E+00  0.23999534369E+03  0.23999534369E+03  0.00000000000E+00 0.  1.
         21   -1    0    0  501  503 -0.00000000000E+00 -0.00000000000E+00 -0.19883567445E+03  0.19883567445E+03  0.00000000000E+00 0.  1.
          6    1    1    2  501    0 -0.22726447110E+02 -0.40073119409E+02 -0.10514745618E+03  0.20762305710E+03  0.17300000000E+03 0.  1.
         -6    1    1    2    0  502  0.22726447110E+02  0.40073119409E+02  0.14630712542E+03  0.23120796104E+03  0.17300000000E+03 0.  1.
<mgrwt>
<rscale>  2 0.17902890E+03</rscale>
<asrwt>0</asrwt>
<pdfrwt beam="1">  1       21 0.36922360E-01 0.17902890E+03</pdfrwt>
<pdfrwt beam="2">  1       21 0.30590104E-01 0.17902890E+03</pdfrwt>
<totfact> 0.72991234E+04</totfact>
</mgrwt>
</event>
<event>
 4    2  0.3992997E+000  0.2276191E+03  0.7546771E-02  0.1128327E+00
         21   -1    0    0  503  502  0.00000000000E+00  0.00000000000E+00  0.46665673270E+02  0.46665673270E+02  0.00000000000E+00 0. -1.
         21   -1    0    0  501  503 -0.00000000000E+00 -0.00000000000E+00 -0.12877213722E+04  0.12877213722E+04  0.00000000000E+00 0.  1.
          6    1    1    2  501    0  0.14755560682E+03  0.10430672920E+02 -0.86821749242E+03  0.89755895081E+03  0.17300000000E+03 0.  1.
         -6    1    1    2    0  502 -0.14755560682E+03 -0.10430672920E+02 -0.37283820647E+03  0.43682809462E+03  0.17300000000E+03 0. -1.
<mgrwt>
<rscale>  2 0.22761910E+03</rscale>
<asrwt>0</asrwt>
<pdfrwt beam="1">  1       21 0.71793363E-02 0.22761910E+03</pdfrwt>
<pdfrwt beam="2">  1       21 0.19811093E+00 0.22761910E+03</pdfrwt>
<totfact> 0.19494859E+04</totfact>
</mgrwt>
</event>
<event>
 4    2  0.3992997E+000  0.1753084E+03  0.7546771E-02  0.1172422E+00
         21   -1    0    0  503  502  0.00000000000E+00  0.00000000000E+00  0.25478343047E+02  0.25478343047E+02  0.00000000000E+00 0. -1.
         21   -1    0    0  501  503 -0.00000000000E+00 -0.00000000000E+00 -0.12980526048E+04  0.12980526048E+04  0.00000000000E+00 0. -1.
          6    1    1    2  501    0 -0.20301274900E+02  0.19796679343E+02 -0.81228366793E+03  0.83098604529E+03  0.17300000000E+03 0. -1.
         -6    1    1    2    0  502  0.20301274900E+02 -0.19796679343E+02 -0.46029059383E+03  0.49254490257E+03  0.17300000000E+03 0. -1.
<mgrwt>
<rscale>  2 0.17530844E+03</rscale>
<asrwt>0</asrwt>
<pdfrwt beam="1">  1       21 0.39197451E-02 0.17530844E+03</pdfrwt>
<pdfrwt beam="2">  1       21 0.19970040E+00 0.17530844E+03</pdfrwt>
<totfact> 0.55295546E+04</totfact>
</mgrwt>
</event>
<event>
 4    2  0.3992997E+000  0.1911714E+03  0.7546771E-02  0.1157409E+00
         21   -1    0    0  501  502  0.00000000000E+00  0.00000000000E+00  0.23417422139E+03  0.23417422139E+03  0.00000000000E+00 0. -1.
         21   -1    0    0  502  503 -0.00000000000E+00 -0.00000000000E+00 -0.18925403107E+03  0.18925403107E+03  0.00000000000E+00 0. -1.
          6    1    1    2  501    0  0.71432373548E+02 -0.38921828277E+02  0.11111891784E+03  0.22111966581E+03  0.17300000000E+03 0. -1.
         -6    1    1    2    0  503 -0.71432373548E+02  0.38921828277E+02 -0.66198727521E+02  0.20230858665E+03  0.17300000000E+03 0. -1.
<mgrwt>
<rscale>  2 0.19117137E+03</rscale>
<asrwt>0</asrwt>
<pdfrwt beam="1">  1       21 0.36026803E-01 0.19117137E+03</pdfrwt>
<pdfrwt beam="2">  1       21 0.29116005E-01 0.19117137E+03</pdfrwt>
<totfact> 0.83969361E+04</totfact>
</mgrwt>
</event>
<event>
 4    2  0.3992997E+000  0.4272925E+03  0.7546771E-02  0.1034719E+00
         21   -1    0    0  503  502  0.00000000000E+00  0.00000000000E+00  0.27217413657E+03  0.27217413657E+03  0.00000000000E+00 0.  1.
         21   -1    0    0  501  503 -0.00000000000E+00 -0.00000000000E+00 -0.74340235024E+03  0.74340235024E+03  0.00000000000E+00 0. -1.
          6    1    1    2  501    0 -0.30432035384E+03  0.24502858686E+03 -0.76943372467E+02  0.43416490958E+03  0.17300000000E+03 0.  1.
         -6    1    1    2    0  502  0.30432035384E+03 -0.24502858686E+03 -0.39428484120E+03  0.58141157723E+03  0.17300000000E+03 0. -1.
<mgrwt>
<rscale>  2 0.42729251E+03</rscale>
<asrwt>0</asrwt>
<pdfrwt beam="1">  1       21 0.41872943E-01 0.42729251E+03</pdfrwt>
<pdfrwt beam="2">  1       21 0.11436959E+00 0.42729251E+03</pdfrwt>
<totfact> 0.28524261E+03</totfact>
</mgrwt>
</event>
<event>
 4    2  0.3992997E+000  0.1833427E+03  0.7546771E-02  0.1164607E+00
         21   -1    0    0  503  502  0.00000000000E+00  0.00000000000E+00  0.15912376105E+03  0.15912376105E+03  0.00000000000E+00 0. -1.
         21   -1    0    0  501  503 -0.00000000000E+00 -0.00000000000E+00 -0.21662240492E+03  0.21662240492E+03  0.00000000000E+00 0. -1.
          6    1    1    2  501    0  0.92629726085E+01  0.59997748247E+02  0.84369164746E+00  0.18334460524E+03  0.17300000000E+03 0. -1.
         -6    1    1    2    0  502 -0.92629726085E+01 -0.59997748247E+02 -0.58342335524E+02  0.19240156073E+03  0.17300000000E+03 0. -1.
<mgrwt>
<rscale>  2 0.18334266E+03</rscale>
<asrwt>0</asrwt>
<pdfrwt beam="1">  1       21 0.24480579E-01 0.18334266E+03</pdfrwt>
<pdfrwt beam="2">  1       21 0.33326524E-01 0.18334266E+03</pdfrwt>
<totfact> 0.13711956E+05</totfact>
</mgrwt>
</event>
<event>
 4    2  0.3992997E+000  0.1934261E+03  0.7546771E-02  0.1155407E+00
         21   -1    0    0  501  502  0.00000000000E+00  0.00000000000E+00  0.53718602360E+03  0.53718602360E+03  0.00000000000E+00 0.  1.
         21   -1    0    0  502  503 -0.00000000000E+00 -0.00000000000E+00 -0.12904094546E+03  0.12904094546E+03  0.00000000000E+00 0.  1.
          6    1    1    2  501    0  0.61378492129E+02  0.60970125478E+02  0.43006691110E+03  0.47156253405E+03  0.17300000000E+03 0.  1.
         -6    1    1    2    0  503 -0.61378492129E+02 -0.60970125478E+02 -0.21921832958E+02  0.19466443501E+03  0.17300000000E+03 0.  1.
<mgrwt>
<rscale>  2 0.19342615E+03</rscale>
<asrwt>0</asrwt>
<pdfrwt beam="1">  1       21 0.82644003E-01 0.19342615E+03</pdfrwt>
<pdfrwt beam="2">  1       21 0.19852453E-01 0.19342615E+03</pdfrwt>
<totfact> 0.29890692E+04</totfact>
</mgrwt>
</event>
<event>
 4    2  0.3992997E+000  0.2318872E+03  0.7546771E-02  0.1125318E+00
         21   -1    0    0  501  502  0.00000000000E+00  0.00000000000E+00  0.12671349488E+04  0.12671349488E+04  0.00000000000E+00 0.  1.
         21   -1    0    0  502  503 -0.00000000000E+00 -0.00000000000E+00 -0.58159347119E+02  0.58159347119E+02  0.00000000000E+00 0.  1.
          6    1    1    2  501    0 -0.53537923763E+02 -0.14483221593E+03  0.94903606914E+03  0.97695503508E+03  0.17300000000E+03 0.  1.
         -6    1    1    2    0  503  0.53537923763E+02  0.14483221593E+03  0.25993953249E+03  0.34833926078E+03  0.17300000000E+03 0.  1.
<mgrwt>
<rscale>  2 0.23188721E+03</rscale>
<asrwt>0</asrwt>
<pdfrwt beam="1">  1       21 0.19494382E+00 0.23188721E+03</pdfrwt>
<pdfrwt beam="2">  1       21 0.89475928E-02 0.23188721E+03</pdfrwt>
<totfact> 0.13873897E+04</totfact>
</mgrwt>
</event>
<event>
 4    2  0.3992997E+000  0.2605871E+03  0.7546771E-02  0.1106791E+00
         21   -1    0    0  501  502  0.00000000000E+00  0.00000000000E+00  0.23841864206E+03  0.23841864206E+03  0.00000000000E+00 0.  1.
         21   -1    0    0  502  503 -0.00000000000E+00 -0.00000000000E+00 -0.45151350682E+03  0.45151350682E+03  0.00000000000E+00 0. -1.
          6    1    1    2  501    0  0.17892534618E+03  0.77216457748E+02 -0.31615375589E+03  0.40970581912E+03  0.17300000000E+03 0. -1.
         -6    1    1    2    0  503 -0.17892534618E+03 -0.77216457748E+02  0.10305889114E+03  0.28022632977E+03  0.17300000000E+03 0.  1.
<mgrwt>
<rscale>  2 0.26058715E+03</rscale>
<asrwt>0</asrwt>
<pdfrwt beam="1">  1       21 0.36679792E-01 0.26058715E+03</pdfrwt>
<pdfrwt beam="2">  1       21 0.69463616E-01 0.26058715E+03</pdfrwt>
<totfact> 0.12985203E+04</totfact>
</mgrwt>
</event>
<event>
 4    2  0.3992997E+000  0.1735855E+03  0.7546771E-02  0.1174159E+00
         21   -1    0    0  501  502  0.00000000000E+00  0.00000000000E+00  0.68009121083E+02  0.68009121083E+02  0.00000000000E+00 0. -1.
         21   -1    0    0  502  503 -0.00000000000E+00 -0.00000000000E+00 -0.49344581158E+03  0.49344581158E+03  0.00000000000E+00 0. -1.
          6    1    1    2  501    0  0.56322859850E+00  0.14234141069E+02 -0.12301026900E+03  0.21275209582E+03  0.17300000000E+03 0.  1.
         -6    1    1    2    0  503 -0.56322859850E+00 -0.14234141069E+02 -0.30242642151E+03  0.34870283684E+03  0.17300000000E+03 0.  1.
<mgrwt>
<rscale>  2 0.17358551E+03</rscale>
<asrwt>0</asrwt>
<pdfrwt beam="1">  1       21 0.10462942E-01 0.17358551E+03</pdfrwt>
<pdfrwt beam="2">  1       21 0.75914738E-01 0.17358551E+03</pdfrwt>
<totfact> 0.11673822E+05</totfact>
</mgrwt>
</event>
<event>
 4    2  0.3992997E+000  0.2003844E+03  0.7546771E-02  0.1149415E+00
         21   -1    0    0  501  502  0.00000000000E+00  0.00000000000E+00  0.11816152256E+03  0.11816152256E+03  0.00000000000E+00 0.  1.
         21   -1    0    0  502  503 -0.00000000000E+00 -0.00000000000E+00 -0.34248017235E+03  0.34248017235E+03  0.00000000000E+00 0.  1.
          6    1    1    2  501    0  0.62281112481E+02  0.79661635420E+02 -0.91869065628E+02  0.22044010150E+03  0.17300000000E+03 0.  1.
         -6    1    1    2    0  503 -0.62281112481E+02 -0.79661635420E+02 -0.13244958416E+03  0.24020159341E+03  0.17300000000E+03 0.  1.
<mgrwt>
<rscale>  2 0.20038441E+03</rscale>
<asrwt>0</asrwt>
<pdfrwt beam="1">  1       21 0.18178696E-01 0.20038441E+03</pdfrwt>
<pdfrwt beam="2">  1       21 0.52689256E-01 0.20038441E+03</pdfrwt>
<totfact> 0.93832122E+04</totfact>
</mgrwt>
</event>
<event>
 4    2  0.3992997E+000  0.1879914E+03  0.7546771E-02  0.1160285E+00
         21   -1    0    0  501  502  0.00000000000E+00  0.00000000000E+00  0.50479895368E+02  0.50479895368E+02  0.00000000000E+00 0.  1.
         21   -1    0    0  502  503 -0.00000000000E+00 -0.00000000000E+00 -0.86062615035E+03  0.86062615035E+03  0.00000000000E+00 0.  1.
          6    1    1    2  501    0  0.73326596959E+02 -0.59151175980E+01 -0.20832535704E+03  0.28060690088E+03  0.17300000000E+03 0.  1.
         -6    1    1    2    0  503 -0.73326596959E+02  0.59151175980E+01 -0.60182089794E+03  0.63049914483E+03  0.17300000000E+03 0.  1.
<mgrwt>
<rscale>  2 0.18799143E+03</rscale>
<asrwt>0</asrwt>
<pdfrwt beam="1">  1       21 0.77661382E-02 0.18799143E+03</pdfrwt>
<pdfrwt beam="2">  1       21 0.13240401E+00 0.18799143E+03</pdfrwt>
<totfact> 0.52273847E+04</totfact>
</mgrwt>
</event>
<event>
 4    2  0.3992997E+000  0.1834979E+03  0.7546771E-02  0.1164460E+00
         21   -1    0    0  503  502  0.00000000000E+00  0.00000000000E+00  0.11932208190E+03  0.11932208190E+03  0.00000000000E+00 0. -1.
         21   -1    0    0  501  503 -0.00000000000E+00 -0.00000000000E+00 -0.29511449192E+03  0.29511449192E+03  0.00000000000E+00 0. -1.
          6    1    1    2  501    0 -0.42754023980E+02  0.43755719067E+02 -0.13126162950E+03  0.22561268780E+03  0.17300000000E+03 0.  1.
         -6    1    1    2    0  502  0.42754023980E+02 -0.43755719067E+02 -0.44530780521E+02  0.18882388602E+03  0.17300000000E+03 0.  1.
<mgrwt>
<rscale>  2 0.18349787E+03</rscale>
<asrwt>0</asrwt>
<pdfrwt beam="1">  1       21 0.18357244E-01 0.18349787E+03</pdfrwt>
<pdfrwt beam="2">  1       21 0.45402229E-01 0.18349787E+03</pdfrwt>
<totfact> 0.12636365E+05</totfact>
</mgrwt>
</event>
<event>
 4    2  0.3992997E+000  0.1804959E+03  0.7546771E-02  0.1167324E+00
         21   -1    0    0  503  502  0.00000000000E+00  0.00000000000E+00  0.63722258466E+02  0.63722258466E+02  0.00000000000E+00 0. -1.
         21   -1    0    0  501  503 -0.00000000000E+00 -0.00000000000E+00 -0.51343317337E+03  0.51343317337E+03  0.00000000000E+00 0.  1.
          6    1    1    2  501    0 -0.39566065726E+02 -0.32928402873E+02 -0.20608852690E+03  0.27395480320E+03  0.17300000000E+03 0. -1.
         -6    1    1    2    0  502  0.39566065726E+02  0.32928402873E+02 -0.24362238800E+03  0.30320062864E+03  0.17300000000E+03 0. -1.
<mgrwt>
<rscale>  2 0.18049585E+03</rscale>
<asrwt>0</asrwt>
<pdfrwt beam="1">  1       21 0.98034245E-02 0.18049585E+03</pdfrwt>
<pdfrwt beam="2">  1       21 0.78989718E-01 0.18049585E+03</pdfrwt>
<totfact> 0.11948521E+05</totfact>
</mgrwt>
</event>
<event>
 4    2  0.3992997E+000  0.1885628E+03  0.7546771E-02  0.1159764E+00
         21   -1    0    0  503  502  0.00000000000E+00  0.00000000000E+00  0.31323829622E+03  0.31323829622E+03  0.00000000000E+00 0. -1.
         21   -1    0    0  501  503 -0.00000000000E+00 -0.00000000000E+00 -0.25459648298E+03  0.25459648298E+03  0.00000000000E+00 0. -1.
          6    1    1    2  501    0 -0.32783223557E+02 -0.67470044429E+02 -0.18203149253E+03  0.26209046323E+03  0.17300000000E+03 0. -1.
         -6    1    1    2    0  502  0.32783223557E+02  0.67470044429E+02  0.24067330577E+03  0.30574431598E+03  0.17300000000E+03 0. -1.
<mgrwt>
<rscale>  2 0.18856285E+03</rscale>
<asrwt>0</asrwt>
<pdfrwt beam="1">  1       21 0.48190507E-01 0.18856285E+03</pdfrwt>
<pdfrwt beam="2">  1       21 0.39168689E-01 0.18856285E+03</pdfrwt>
<totfact> 0.25912234E+04</totfact>
</mgrwt>
</event>
<event>
 4    2  0.3992997E+000  0.2693735E+03  0.7546771E-02  0.1101639E+00
         21   -1    0    0  503  502  0.00000000000E+00  0.00000000000E+00  0.72760078313E+02  0.72760078313E+02  0.00000000000E+00 0. -1.
         21   -1    0    0  501  503 -0.00000000000E+00 -0.00000000000E+00 -0.12960058963E+04  0.12960058963E+04  0.00000000000E+00 0.  1.
          6    1    1    2  501    0 -0.20395254795E+03 -0.32193616793E+02 -0.94019687745E+03  0.97802466183E+03  0.17300000000E+03 0.  1.
         -6    1    1    2    0  502  0.20395254795E+03  0.32193616793E+02 -0.28304894054E+03  0.39074131278E+03  0.17300000000E+03 0. -1.
<mgrwt>
<rscale>  2 0.26937348E+03</rscale>
<asrwt>0</asrwt>
<pdfrwt beam="1">  1       21 0.11193859E-01 0.26937348E+03</pdfrwt>
<pdfrwt beam="2">  1       21 0.19938551E+00 0.26937348E+03</pdfrwt>
<totfact> 0.85040698E+03</totfact>
</mgrwt>
</event>
<event>
 4    2  0.3992997E+000  0.2025409E+03  0.7546771E-02  0.1147613E+00
         21   -1    0    0  501  502  0.00000000000E+00  0.00000000000E+00  0.27410603050E+03  0.27410603050E+03  0.00000000000E+00 0.  1.
         21   -1    0    0  502  503 -0.00000000000E+00 -0.00000000000E+00 -0.14966159450E+03  0.14966159450E+03  0.00000000000E+00 0.  1.
          6    1    1    2  501    0  0.95675280988E+02 -0.44045964113E+02  0.61612909571E+02  0.21170488179E+03  0.17300000000E+03 0.  1.
         -6    1    1    2    0  503 -0.95675280988E+02  0.44045964113E+02  0.62831526432E+02  0.21206274322E+03  0.17300000000E+03 0.  1.
<mgrwt>
<rscale>  2 0.20254088E+03</rscale>
<asrwt>0</asrwt>
<pdfrwt beam="1">  1       21 0.42170159E-01 0.20254088E+03</pdfrwt>
<pdfrwt beam="2">  1       21 0.23024861E-01 0.20254088E+03</pdfrwt>
<totfact> 0.95462945E+04</totfact>
</mgrwt>
</event>
<event>
 4    2  0.3992997E+000  0.3894185E+03  0.7546771E-02  0.1047507E+00
         21   -1    0    0  501  502  0.00000000000E+00  0.00000000000E+00  0.40309435698E+03  0.40309435698E+03  0.00000000000E+00 0. -1.
         21   -1    0    0  502  503 -0.00000000000E+00 -0.00000000000E+00 -0.38831101559E+03  0.38831101559E+03  0.00000000000E+00 0. -1.
          6    1    1    2  501    0  0.66876696319E+01  0.34881665160E+03  0.77255115438E+02  0.39700772564E+03  0.17300000000E+03 0. -1.
         -6    1    1    2    0  503 -0.66876696319E+01 -0.34881665160E+03 -0.62471774045E+02  0.39439764693E+03  0.17300000000E+03 0. -1.
<mgrwt>
<rscale>  2 0.38941852E+03</rscale>
<asrwt>0</asrwt>
<pdfrwt beam="1">  1       21 0.62014516E-01 0.38941852E+03</pdfrwt>
<pdfrwt beam="2">  1       21 0.59740156E-01 0.38941852E+03</pdfrwt>
<totfact> 0.56860666E+03</totfact>
</mgrwt>
</event>
<event>
 4    2  0.3992997E+000  0.1796148E+03  0.7546771E-02  0.1168176E+00
         21   -1    0    0  503  502  0.00000000000E+00  0.00000000000E+00  0.27310170421E+03  0.27310170421E+03  0.00000000000E+00 0.  1.
         21   -1    0    0  501  503 -0.00000000000E+00 -0.00000000000E+00 -0.27673367023E+03  0.27673367023E+03  0.00000000000E+00 0.  1.
          6    1    1    2  501    0  0.46248410841E+02  0.13912575160E+02 -0.20994299172E+03  0.27629248095E+03  0.17300000000E+03 0.  1.
         -6    1    1    2    0  502 -0.46248410841E+02 -0.13912575160E+02  0.20631102571E+03  0.27354289350E+03  0.17300000000E+03 0.  1.
<mgrwt>
<rscale>  2 0.17961480E+03</rscale>
<asrwt>0</asrwt>
<pdfrwt beam="1">  1       21 0.42015647E-01 0.17961480E+03</pdfrwt>
<pdfrwt beam="2">  1       21 0.42574411E-01 0.17961480E+03</pdfrwt>
<totfact> 0.29142537E+04</totfact>
</mgrwt>
</event>
<event>
 4    2  0.3992997E+000  0.1851358E+03  0.7546771E-02  0.1162923E+00
         21   -1    0    0  503  502  0.00000000000E+00  0.00000000000E+00  0.75138861532E+02  0.75138861532E+02  0.00000000000E+00 0.  1.
         21   -1    0    0  501  503 -0.00000000000E+00 -0.00000000000E+00 -0.52804696683E+03  0.52804696683E+03  0.00000000000E+00 0.  1.
          6    1    1    2  501    0 -0.46347179391E+02 -0.46885007437E+02 -0.33773301766E+03  0.38514783678E+03  0.17300000000E+03 0.  1.
         -6    1    1    2    0  502  0.46347179391E+02  0.46885007437E+02 -0.11517508764E+03  0.21803799158E+03  0.17300000000E+03 0.  1.
<mgrwt>
<rscale>  2 0.18513580E+03</rscale>
<asrwt>0</asrwt>
<pdfrwt beam="1">  1       21 0.11559825E-01 0.18513580E+03</pdfrwt>
<pdfrwt beam="2">  1       21 0.81237996E-01 0.18513580E+03</pdfrwt>
<totfact> 0.83594650E+04</totfact>
</mgrwt>
</event>
<event>
 4    2  0.3992997E+000  0.1783290E+03  0.7546771E-02  0.1169430E+00
         21   -1    0    0  503  502  0.00000000000E+00  0.00000000000E+00  0.42821902013E+03  0.42821902013E+03  0.00000000000E+00 0.  1.
         21   -1    0    0  501  503 -0.00000000000E+00 -0.00000000000E+00 -0.97969622826E+02  0.97969622826E+02  0.00000000000E+00 0.  1.
          6    1    1    2  501    0 -0.38016315760E+02  0.20664156783E+02  0.35707603230E+02  0.18186885541E+03  0.17300000000E+03 0.  1.
         -6    1    1    2    0  502  0.38016315760E+02 -0.20664156783E+02  0.29454179407E+03  0.34431978754E+03  0.17300000000E+03 0.  1.
<mgrwt>
<rscale>  2 0.17832904E+03</rscale>
<asrwt>0</asrwt>
<pdfrwt beam="1">  1       21 0.65879848E-01 0.17832904E+03</pdfrwt>
<pdfrwt beam="2">  1       21 0.15072250E-01 0.17832904E+03</pdfrwt>
<totfact> 0.82792573E+04</totfact>
</mgrwt>
</event>
<event>
 4    2  0.3992997E+000  0.1763544E+03  0.7546771E-02  0.1171379E+00
         21   -1    0    0  503  502  0.00000000000E+00  0.00000000000E+00  0.18709620304E+03  0.18709620304E+03  0.00000000000E+00 0.  1.
         21   -1    0    0  501  503 -0.00000000000E+00 -0.00000000000E+00 -0.59562840295E+03  0.59562840295E+03  0.00000000000E+00 0.  1.
          6    1    1    2  501    0  0.34160793566E+02  0.22175111493E+01 -0.53655959585E+03  0.56479826227E+03  0.17300000000E+03 0.  1.
         -6    1    1    2    0  502 -0.34160793566E+02 -0.22175111493E+01  0.12802739594E+03  0.21792634371E+03  0.17300000000E+03 0.  1.
<mgrwt>
<rscale>  2 0.17635441E+03</rscale>
<asrwt>0</asrwt>
<pdfrwt beam="1">  1       21 0.28784031E-01 0.17635441E+03</pdfrwt>
<pdfrwt beam="2">  1       21 0.91635138E-01 0.17635441E+03</pdfrwt>
<totfact> 0.11768520E+04</totfact>
</mgrwt>
</event>
