<event>
 4    5  0.2409888E-007  0.1372027E+04  0.7818608E-02  0.9005729E-01
         -2   -1    0    0    0  501 -0.00000000000E+00  0.00000000000E+00  0.19777031810E+04  0.19777031810E+04  0.25500000000E-02 0.  1.
          2   -1    0    0  501    0  0.00000000000E+00 -0.00000000000E+00 -0.15117270110E+04  0.15117270110E+04  0.25500000000E-02 0. -1.
    8880023    1    1    2    0    0 -0.11056818736E+04  0.47551551077E+03 -0.91656284679E+03  0.16500136560E+04  0.65864270000E+03 0.  0.
    8880022    1    1    2    0    0  0.11056818736E+04 -0.47551551077E+03  0.13825390168E+04  0.18394165359E+04  0.15294330000E+03 0.  0.
<mgrwt>
<rscale>  0 0.13304908E+04</rscale>
<asrwt>0</asrwt>
<pdfrwt beam="1">  1        2 0.23257339E+00 0.13720268E+04</pdfrwt>
<pdfrwt beam="2">  1       -2 0.30426203E+00 0.13720268E+04</pdfrwt>
<totfact> 0.35722387E-01</totfact>
</mgrwt>
</event>
<event>
 4    5  0.2409888E-007  0.7703814E+03  0.7818608E-02  0.9778936E-01
          2   -1    0    0  501    0  0.00000000000E+00  0.00000000000E+00  0.13777379527E+04  0.13777379527E+04  0.25500000000E-02 0. -1.
         -2   -1    0    0    0  501 -0.00000000000E+00 -0.00000000000E+00 -0.10103748190E+04  0.10103748190E+04  0.25500000000E-02 0.  1.
    8880023    1    1    2    0    0  0.43492989162E+01 -0.39957280615E+03  0.12149767021E+04  0.14386298818E+04  0.65864270000E+03 0. -1.
    8880022    1    1    2    0    0 -0.43492989162E+01  0.39957280615E+03 -0.84761356842E+03  0.94948288990E+03  0.15294330000E+03 0.  0.
<mgrwt>
<rscale>  0 0.66505292E+03</rscale>
<asrwt>0</asrwt>
<pdfrwt beam="1">  1        2 0.21195969E+00 0.77038143E+03</pdfrwt>
<pdfrwt beam="2">  1       -2 0.15544228E+00 0.77038143E+03</pdfrwt>
<totfact> 0.41476154E+00</totfact>
</mgrwt>
</event>
<event>
 4    5  0.2409888E-007  0.1165330E+04  0.7818608E-02  0.9191584E-01
         -2   -1    0    0    0  501 -0.00000000000E+00  0.00000000000E+00  0.14030053931E+04  0.14030053931E+04  0.25500000000E-02 0.  1.
          2   -1    0    0  501    0  0.00000000000E+00 -0.00000000000E+00 -0.85403982933E+03  0.85403982933E+03  0.25500000000E-02 0. -1.
    8880023    1    1    2    0    0  0.59498090690E+03 -0.75510307654E+03  0.57915646252E+02  0.11667679136E+04  0.65864270000E+03 0.  0.
    8880022    1    1    2    0    0 -0.59498090690E+03  0.75510307654E+03  0.49104991755E+03  0.10902773089E+04  0.15294330000E+03 0.  0.
<mgrwt>
<rscale>  0 0.11140720E+04</rscale>
<asrwt>0</asrwt>
<pdfrwt beam="1">  1        2 0.13139074E+00 0.11653296E+04</pdfrwt>
<pdfrwt beam="2">  1       -2 0.21584698E+00 0.11653296E+04</pdfrwt>
<totfact> 0.32376368E+00</totfact>
</mgrwt>
</event>
<event>
 4    5  0.2409888E-007  0.7136081E+03  0.7818608E-02  0.9944839E-01
          2   -1    0    0  501    0  0.00000000000E+00  0.00000000000E+00  0.18132816037E+04  0.18132816038E+04  0.25500000000E-02 0. -1.
         -2   -1    0    0    0  501 -0.00000000000E+00 -0.00000000000E+00 -0.14569582664E+03  0.14569582666E+03  0.25500000000E-02 0.  1.
    8880023    1    1    2    0    0  0.27415768116E+03  0.16246486067E+02  0.11517045601E+04  0.13548653005E+04  0.65864270000E+03 0.  0.
    8880022    1    1    2    0    0 -0.27415768116E+03 -0.16246486067E+02  0.51588121698E+03  0.60411212991E+03  0.15294330000E+03 0. -1.
<mgrwt>
<rscale>  0 0.58136566E+03</rscale>
<asrwt>0</asrwt>
<pdfrwt beam="1">  1        2 0.27896642E+00 0.71360815E+03</pdfrwt>
<pdfrwt beam="2">  1       -2 0.22414741E-01 0.71360815E+03</pdfrwt>
<totfact> 0.15157850E+02</totfact>
</mgrwt>
</event>
<event>
 4    5  0.2409888E-007  0.1968147E+04  0.7818608E-02  0.8634817E-01
         -2   -1    0    0    0  501 -0.00000000000E+00  0.00000000000E+00  0.19359119489E+04  0.19359119489E+04  0.25500000000E-02 0.  1.
          2   -1    0    0  501    0  0.00000000000E+00 -0.00000000000E+00 -0.19969993098E+04  0.19969993098E+04  0.25500000000E-02 0. -1.
    8880023    1    1    2    0    0 -0.14313450467E+03 -0.18491365820E+04  0.41629711139E+03  0.20116925900E+04  0.65864270000E+03 0.  0.
    8880022    1    1    2    0    0  0.14313450467E+03  0.18491365820E+04 -0.47738447227E+03  0.19212186686E+04  0.15294330000E+03 0.  0.
<mgrwt>
<rscale>  0 0.19407861E+04</rscale>
<asrwt>0</asrwt>
<pdfrwt beam="1">  1        2 0.30723067E+00 0.19681473E+04</pdfrwt>
<pdfrwt beam="2">  1       -2 0.29783260E+00 0.19681473E+04</pdfrwt>
<totfact> 0.19642652E-01</totfact>
</mgrwt>
</event>
<event>
 4    5  0.2409888E-007  0.1317255E+04  0.7818608E-02  0.9050801E-01
          2   -1    0    0  501    0  0.00000000000E+00  0.00000000000E+00  0.27122480902E+04  0.27122480902E+04  0.25500000000E-02 0. -1.
         -2   -1    0    0    0  501 -0.00000000000E+00 -0.00000000000E+00 -0.73964170438E+03  0.73964170438E+03  0.25500000000E-02 0.  1.
    8880023    1    1    2    0    0 -0.18846914637E+03 -0.11250906398E+04  0.18822220675E+04  0.22973723435E+04  0.65864270000E+03 0.  0.
    8880022    1    1    2    0    0  0.18846914637E+03  0.11250906398E+04  0.90384318278E+02  0.11545174511E+04  0.15294330000E+03 0.  0.
<mgrwt>
<rscale>  0 0.12735579E+04</rscale>
<asrwt>0</asrwt>
<pdfrwt beam="1">  1        2 0.41726894E+00 0.13172546E+04</pdfrwt>
<pdfrwt beam="2">  1       -2 0.11379103E+00 0.13172546E+04</pdfrwt>
<totfact> 0.15333664E+00</totfact>
</mgrwt>
</event>
<event>
 4    5  0.2409888E-007  0.8575556E+03  0.7818608E-02  0.9597926E-01
          2   -1    0    0  501    0  0.00000000000E+00  0.00000000000E+00  0.31469704993E+04  0.31469704993E+04  0.25500000000E-02 0. -1.
         -2   -1    0    0    0  501 -0.00000000000E+00 -0.00000000000E+00 -0.42056245272E+03  0.42056245273E+03  0.25500000000E-02 0.  1.
    8880023    1    1    2    0    0 -0.53750999712E+03  0.11258097861E+03  0.28568025255E+04  0.29827373921E+04  0.65864270000E+03 0. -1.
    8880022    1    1    2    0    0  0.53750999712E+03 -0.11258097861E+03 -0.13039447901E+03  0.58479555993E+03  0.15294330000E+03 0.  0.
<mgrwt>
<rscale>  0 0.77433579E+03</rscale>
<asrwt>0</asrwt>
<pdfrwt beam="1">  1        2 0.48414929E+00 0.85755564E+03</pdfrwt>
<pdfrwt beam="2">  1       -2 0.64701918E-01 0.85755564E+03</pdfrwt>
<totfact> 0.32511416E+00</totfact>
</mgrwt>
</event>
<event>
 4    5  0.2409888E-007  0.8403220E+03  0.7818608E-02  0.9629573E-01
          2   -1    0    0  501    0  0.00000000000E+00  0.00000000000E+00  0.11898328691E+04  0.11898328691E+04  0.25500000000E-02 0. -1.
         -2   -1    0    0    0  501 -0.00000000000E+00 -0.00000000000E+00 -0.55278038300E+03  0.55278038301E+03  0.25500000000E-02 0.  1.
    8880023    1    1    2    0    0 -0.28175809325E+01  0.52184565019E+03  0.81481013234E+03  0.11704941604E+04  0.65864270000E+03 0. -1.
    8880022    1    1    2    0    0  0.28175809325E+01 -0.52184565019E+03 -0.17775764621E+03  0.57211909179E+03  0.15294330000E+03 0.  0.
<mgrwt>
<rscale>  0 0.75369361E+03</rscale>
<asrwt>0</asrwt>
<pdfrwt beam="1">  1        2 0.18305121E+00 0.84032198E+03</pdfrwt>
<pdfrwt beam="2">  1       -2 0.85043136E-01 0.84032198E+03</pdfrwt>
<totfact> 0.23336077E+01</totfact>
</mgrwt>
</event>
<event>
 4    5  0.2409888E-007  0.7925613E+03  0.7818608E-02  0.9727117E-01
          2   -1    0    0  501    0  0.00000000000E+00  0.00000000000E+00  0.62083953828E+03  0.62083953828E+03  0.25500000000E-02 0. -1.
         -2   -1    0    0    0  501 -0.00000000000E+00 -0.00000000000E+00 -0.66842702672E+03  0.66842702673E+03  0.25500000000E-02 0.  1.
    8880023    1    1    2    0    0 -0.25622146803E+03  0.35873907234E+03  0.10236278009E+03  0.79914423461E+03  0.65864270000E+03 0.  1.
    8880022    1    1    2    0    0  0.25622146803E+03 -0.35873907234E+03 -0.14995026853E+03  0.49012233039E+03  0.15294330000E+03 0. -1.
<mgrwt>
<rscale>  0 0.69424957E+03</rscale>
<asrwt>0</asrwt>
<pdfrwt beam="1">  1        2 0.95513775E-01 0.79256127E+03</pdfrwt>
<pdfrwt beam="2">  1       -2 0.10283493E+00 0.79256127E+03</pdfrwt>
<totfact> 0.37111065E+01</totfact>
</mgrwt>
</event>
<event>
 4    5  0.2409888E-007  0.7638053E+03  0.7818608E-02  0.9795354E-01
          2   -1    0    0  501    0  0.00000000000E+00  0.00000000000E+00  0.26226285789E+04  0.26226285789E+04  0.25500000000E-02 0. -1.
         -2   -1    0    0    0  501 -0.00000000000E+00 -0.00000000000E+00 -0.19978111731E+03  0.19978111732E+03  0.25500000000E-02 0.  1.
    8880023    1    1    2    0    0  0.29608079785E+03 -0.24884621041E+03  0.22426343137E+04  0.23691363714E+04  0.65864270000E+03 0.  0.
    8880022    1    1    2    0    0 -0.29608079785E+03  0.24884621041E+03  0.18021314795E+03  0.45327332483E+03  0.15294330000E+03 0.  0.
<mgrwt>
<rscale>  0 0.65612479E+03</rscale>
<asrwt>0</asrwt>
<pdfrwt beam="1">  1        2 0.40348132E+00 0.76380526E+03</pdfrwt>
<pdfrwt beam="2">  1       -2 0.30735557E-01 0.76380526E+03</pdfrwt>
<totfact> 0.30199318E+01</totfact>
</mgrwt>
</event>
<event>
 4    5  0.2409888E-007  0.8280383E+03  0.7818608E-02  0.9653161E-01
          2   -1    0    0  501    0  0.00000000000E+00  0.00000000000E+00  0.21569889851E+04  0.21569889851E+04  0.25500000000E-02 0. -1.
         -2   -1    0    0    0  501 -0.00000000000E+00 -0.00000000000E+00 -0.15834984974E+04  0.15834984974E+04  0.25500000000E-02 0.  1.
    8880023    1    1    2    0    0 -0.47157001725E+03  0.17163598668E+03  0.20299958012E+04  0.21923800656E+04  0.65864270000E+03 0.  0.
    8880022    1    1    2    0    0  0.47157001725E+03 -0.17163598668E+03 -0.14565053135E+04  0.15481074169E+04  0.15294330000E+03 0.  0.
<mgrwt>
<rscale>  0 0.73875351E+03</rscale>
<asrwt>0</asrwt>
<pdfrwt beam="1">  1        2 0.33184446E+00 0.82803828E+03</pdfrwt>
<pdfrwt beam="2">  1       -2 0.24361515E+00 0.82803828E+03</pdfrwt>
<totfact> 0.39886018E-01</totfact>
</mgrwt>
</event>
<event>
 4    5  0.2409888E-007  0.7094402E+03  0.7818608E-02  0.9960086E-01
          2   -1    0    0  501    0  0.00000000000E+00  0.00000000000E+00  0.10370616920E+04  0.10370616920E+04  0.25500000000E-02 0. -1.
         -2   -1    0    0    0  501 -0.00000000000E+00 -0.00000000000E+00 -0.16060108770E+04  0.16060108770E+04  0.25500000000E-02 0.  1.
    8880023    1    1    2    0    0  0.23059059111E+03 -0.12776215342E+03  0.89821126007E+03  0.11445911334E+04  0.65864270000E+03 0.  0.
    8880022    1    1    2    0    0 -0.23059059111E+03  0.12776215342E+03 -0.14671604450E+04  0.14984814357E+04  0.15294330000E+03 0.  0.
<mgrwt>
<rscale>  0 0.57435594E+03</rscale>
<asrwt>0</asrwt>
<pdfrwt beam="1">  1        2 0.15954795E+00 0.70944020E+03</pdfrwt>
<pdfrwt beam="2">  1       -2 0.24707860E+00 0.70944020E+03</pdfrwt>
<totfact> 0.16636691E+00</totfact>
</mgrwt>
</event>
<event>
 4    5  0.2409888E-007  0.1864007E+04  0.7818608E-02  0.8687932E-01
         -2   -1    0    0    0  501 -0.00000000000E+00  0.00000000000E+00  0.20941587439E+04  0.20941587439E+04  0.25500000000E-02 0.  1.
          2   -1    0    0  501    0  0.00000000000E+00 -0.00000000000E+00 -0.29464107251E+04  0.29464107251E+04  0.25500000000E-02 0. -1.
    8880023    1    1    2    0    0 -0.66624337664E+03 -0.16114691464E+04 -0.21618141763E+04  0.28544638351E+04  0.65864270000E+03 0.  0.
    8880022    1    1    2    0    0  0.66624337664E+03  0.16114691464E+04  0.13095621951E+04  0.21861056339E+04  0.15294330000E+03 0.  0.
<mgrwt>
<rscale>  0 0.18349476E+04</rscale>
<asrwt>0</asrwt>
<pdfrwt beam="1">  1        2 0.45329396E+00 0.18640073E+04</pdfrwt>
<pdfrwt beam="2">  1       -2 0.32217827E+00 0.18640073E+04</pdfrwt>
<totfact> 0.39163991E-02</totfact>
</mgrwt>
</event>
<event>
 4    5  0.2409888E-007  0.8669497E+03  0.7818608E-02  0.9581319E-01
          2   -1    0    0  501    0  0.00000000000E+00  0.00000000000E+00  0.18543825925E+04  0.18543825925E+04  0.25500000000E-02 0. -1.
         -2   -1    0    0    0  501 -0.00000000000E+00 -0.00000000000E+00 -0.65284997329E+03  0.65284997330E+03  0.25500000000E-02 0.  1.
    8880023    1    1    2    0    0 -0.33968160419E+03  0.44989767441E+03  0.15863254780E+04  0.18077694096E+04  0.65864270000E+03 0.  0.
    8880022    1    1    2    0    0  0.33968160419E+03 -0.44989767441E+03 -0.38479285884E+03  0.69946315621E+03  0.15294330000E+03 0.  0.
<mgrwt>
<rscale>  0 0.78545057E+03</rscale>
<asrwt>0</asrwt>
<pdfrwt beam="1">  1        2 0.28528963E+00 0.86694966E+03</pdfrwt>
<pdfrwt beam="2">  1       -2 0.10043846E+00 0.86694966E+03</pdfrwt>
<totfact> 0.66797549E+00</totfact>
</mgrwt>
</event>
<event>
 4    5  0.2409888E-007  0.1163816E+04  0.7818608E-02  0.9193124E-01
         -2   -1    0    0    0  501 -0.00000000000E+00  0.00000000000E+00  0.44092341429E+03  0.44092341430E+03  0.25500000000E-02 0.  1.
          2   -1    0    0  501    0  0.00000000000E+00 -0.00000000000E+00 -0.42194426529E+04  0.42194426529E+04  0.25500000000E-02 0. -1.
    8880023    1    1    2    0    0  0.52445986272E+03  0.80349198711E+03 -0.34398764930E+04  0.36314209360E+04  0.65864270000E+03 0. -1.
    8880022    1    1    2    0    0 -0.52445986272E+03 -0.80349198711E+03 -0.33864274565E+03  0.10289451313E+04  0.15294330000E+03 0.  0.
<mgrwt>
<rscale>  0 0.11124681E+04</rscale>
<asrwt>0</asrwt>
<pdfrwt beam="1">  1        2 0.64914500E+00 0.11638160E+04</pdfrwt>
<pdfrwt beam="2">  1       -2 0.67834374E-01 0.11638160E+04</pdfrwt>
<totfact> 0.45919694E-01</totfact>
</mgrwt>
</event>
<event>
 4    5  0.2409888E-007  0.8668225E+03  0.7818608E-02  0.9581541E-01
          2   -1    0    0  501    0  0.00000000000E+00  0.00000000000E+00  0.18105529268E+04  0.18105529268E+04  0.25500000000E-02 0. -1.
         -2   -1    0    0    0  501 -0.00000000000E+00 -0.00000000000E+00 -0.42851018598E+03  0.42851018599E+03  0.25500000000E-02 0.  1.
    8880023    1    1    2    0    0  0.10904988129E+03 -0.55288259007E+03  0.14092617377E+04  0.16545089564E+04  0.65864270000E+03 0. -1.
    8880022    1    1    2    0    0 -0.10904988129E+03  0.55288259007E+03 -0.27218996882E+02  0.58455415645E+03  0.15294330000E+03 0.  0.
<mgrwt>
<rscale>  0 0.78530071E+03</rscale>
<asrwt>0</asrwt>
<pdfrwt beam="1">  1        2 0.27854661E+00 0.86682250E+03</pdfrwt>
<pdfrwt beam="2">  1       -2 0.65924643E-01 0.86682250E+03</pdfrwt>
<totfact> 0.18303601E+01</totfact>
</mgrwt>
</event>
<event>
 4    5  0.2409888E-007  0.1115927E+04  0.7818608E-02  0.9243528E-01
          2   -1    0    0  501    0  0.00000000000E+00  0.00000000000E+00  0.10261888641E+04  0.10261888641E+04  0.25500000000E-02 0. -1.
         -2   -1    0    0    0  501 -0.00000000000E+00 -0.00000000000E+00 -0.17076258141E+04  0.17076258141E+04  0.25500000000E-02 0.  1.
    8880023    1    1    2    0    0 -0.83020997174E+03  0.34961886448E+03  0.51446317828E+03  0.12288061343E+04  0.65864270000E+03 0. -1.
    8880022    1    1    2    0    0  0.83020997174E+03 -0.34961886448E+03 -0.11959001282E+04  0.15050085439E+04  0.15294330000E+03 0.  0.
<mgrwt>
<rscale>  0 0.10615228E+04</rscale>
<asrwt>0</asrwt>
<pdfrwt beam="1">  1        2 0.15787521E+00 0.11159266E+04</pdfrwt>
<pdfrwt beam="2">  1       -2 0.26271166E+00 0.11159266E+04</pdfrwt>
<totfact> 0.12808362E+00</totfact>
</mgrwt>
</event>
<event>
 4    5  0.2497666E-007  0.7421355E+03  0.7818608E-02  0.9853770E-01
         -2   -1    0    0    0  501 -0.00000000000E+00  0.00000000000E+00  0.10795872212E+04  0.10795872212E+04  0.25500000000E-02 0.  1.
          2   -1    0    0  501    0  0.00000000000E+00 -0.00000000000E+00 -0.18273833915E+04  0.18273833915E+04  0.25500000000E-02 0. -1.
    8880023    1    1    2    0    0 -0.14813140812E+02 -0.34166574291E+03 -0.17155738043E+04  0.18692133622E+04  0.65864270000E+03 0. -1.
    8880022    1    1    2    0    0  0.14813140812E+02  0.34166574291E+03  0.96777763405E+03  0.10377572505E+04  0.15294330000E+03 0.  0.
<mgrwt>
<rscale>  0 0.62555087E+03</rscale>
<asrwt>0</asrwt>
<pdfrwt beam="1">  1        2 0.28113591E+00 0.74213551E+03</pdfrwt>
<pdfrwt beam="2">  1       -2 0.16609034E+00 0.74213551E+03</pdfrwt>
<totfact> 0.19635729E+00</totfact>
</mgrwt>
</event>
<event>
 4    5  0.2409888E-007  0.1094481E+04  0.7818608E-02  0.9267226E-01
         -2   -1    0    0    0  501 -0.00000000000E+00  0.00000000000E+00  0.14427890876E+04  0.14427890876E+04  0.25500000000E-02 0.  1.
          2   -1    0    0  501    0  0.00000000000E+00 -0.00000000000E+00 -0.27576686968E+04  0.27576686968E+04  0.25500000000E-02 0. -1.
    8880023    1    1    2    0    0  0.66871004154E+03 -0.56294344891E+03  0.11458741924E+04  0.15845871126E+04  0.65864270000E+03 0.  0.
    8880022    1    1    2    0    0 -0.66871004154E+03  0.56294344891E+03 -0.24607538016E+04  0.26158706718E+04  0.15294330000E+03 0.  0.
<mgrwt>
<rscale>  0 0.10385692E+04</rscale>
<asrwt>0</asrwt>
<pdfrwt beam="1">  1        2 0.42425672E+00 0.10944810E+04</pdfrwt>
<pdfrwt beam="2">  1       -2 0.22196755E+00 0.10944810E+04</pdfrwt>
<totfact> 0.23472284E-01</totfact>
</mgrwt>
</event>
<event>
 4    5  0.2409888E-007  0.1060999E+04  0.7818608E-02  0.9305775E-01
          2   -1    0    0  501    0  0.00000000000E+00  0.00000000000E+00  0.12738097343E+04  0.12738097343E+04  0.25500000000E-02 0. -1.
         -2   -1    0    0    0  501 -0.00000000000E+00 -0.00000000000E+00 -0.13088545014E+04  0.13088545014E+04  0.25500000000E-02 0.  1.
    8880023    1    1    2    0    0 -0.68199046139E+03 -0.47623279025E+03  0.84925591370E+03  0.13590270318E+04  0.65864270000E+03 0. -1.
    8880022    1    1    2    0    0  0.68199046139E+03  0.47623279025E+03 -0.88430068080E+03  0.12236372040E+04  0.15294330000E+03 0.  0.
<mgrwt>
<rscale>  0 0.10025298E+04</rscale>
<asrwt>0</asrwt>
<pdfrwt beam="1">  1        2 0.19597073E+00 0.10609990E+04</pdfrwt>
<pdfrwt beam="2">  1       -2 0.20136223E+00 0.10609990E+04</pdfrwt>
<totfact> 0.21986231E+00</totfact>
</mgrwt>
</event>
<event>
 4    5  0.2409888E-007  0.9819403E+03  0.7818608E-02  0.9405576E-01
          2   -1    0    0  501    0  0.00000000000E+00  0.00000000000E+00  0.12090376758E+04  0.12090376758E+04  0.25500000000E-02 0. -1.
         -2   -1    0    0    0  501 -0.00000000000E+00 -0.00000000000E+00 -0.13533373241E+04  0.13533373241E+04  0.25500000000E-02 0.  1.
    8880023    1    1    2    0    0 -0.33851030738E+03 -0.64483123072E+03  0.86485851058E+03  0.13085056339E+04  0.65864270000E+03 0. -1.
    8880022    1    1    2    0    0  0.33851030738E+03  0.64483123072E+03 -0.10091581589E+04  0.12538693660E+04  0.15294330000E+03 0.  0.
<mgrwt>
<rscale>  0 0.91618204E+03</rscale>
<asrwt>0</asrwt>
<pdfrwt beam="1">  1        2 0.18600580E+00 0.98194030E+03</pdfrwt>
<pdfrwt beam="2">  1       -2 0.20820574E+00 0.98194030E+03</pdfrwt>
<totfact> 0.21889957E+00</totfact>
</mgrwt>
</event>
<event>
 4    5  0.2409888E-007  0.7590442E+03  0.7818608E-02  0.9807588E-01
         -2   -1    0    0    0  501 -0.00000000000E+00  0.00000000000E+00  0.19433691335E+04  0.19433691335E+04  0.25500000000E-02 0.  1.
          2   -1    0    0  501    0  0.00000000000E+00 -0.00000000000E+00 -0.40651259563E+03  0.40651259564E+03  0.25500000000E-02 0. -1.
    8880023    1    1    2    0    0 -0.28377619827E+03 -0.24861418457E+03 -0.10095818189E+01  0.75904490578E+03  0.65864270000E+03 0. -1.
    8880022    1    1    2    0    0  0.28377619827E+03  0.24861418457E+03  0.15378661197E+04  0.15908368233E+04  0.15294330000E+03 0.  0.
<mgrwt>
<rscale>  0 0.64956905E+03</rscale>
<asrwt>0</asrwt>
<pdfrwt beam="1">  1        2 0.62540399E-01 0.75904423E+03</pdfrwt>
<pdfrwt beam="2">  1       -2 0.29897987E+00 0.75904423E+03</pdfrwt>
<totfact> 0.26160606E+00</totfact>
</mgrwt>
</event>
<event>
 4    5  0.2409888E-007  0.8891743E+03  0.7818608E-02  0.9543639E-01
          2   -1    0    0  501    0  0.00000000000E+00  0.00000000000E+00  0.19047657591E+04  0.19047657591E+04  0.25500000000E-02 0. -1.
         -2   -1    0    0    0  501 -0.00000000000E+00 -0.00000000000E+00 -0.65843332216E+03  0.65843332216E+03  0.25500000000E-02 0.  1.
    8880023    1    1    2    0    0  0.14645419402E+03  0.57911300057E+03  0.16158490418E+04  0.18443424385E+04  0.65864270000E+03 0. -1.
    8880022    1    1    2    0    0 -0.14645419402E+03 -0.57911300057E+03 -0.36951660493E+03  0.71885664267E+03  0.15294330000E+03 0.  0.
<mgrwt>
<rscale>  0 0.81141578E+03</rscale>
<asrwt>0</asrwt>
<pdfrwt beam="1">  1        2 0.29304088E+00 0.88917428E+03</pdfrwt>
<pdfrwt beam="2">  1       -2 0.10129744E+00 0.88917428E+03</pdfrwt>
<totfact> 0.61245231E+00</totfact>
</mgrwt>
</event>
<event>
 4    5  0.2409888E-007  0.1148049E+04  0.7818608E-02  0.9209356E-01
         -2   -1    0    0    0  501 -0.00000000000E+00  0.00000000000E+00  0.82570837134E+03  0.82570837134E+03  0.25500000000E-02 0.  1.
          2   -1    0    0  501    0  0.00000000000E+00 -0.00000000000E+00 -0.19673893176E+04  0.19673893176E+04  0.25500000000E-02 0. -1.
    8880023    1    1    2    0    0 -0.16578397383E+03 -0.92559219509E+03 -0.13956308793E+04  0.18071527315E+04  0.65864270000E+03 0. -1.
    8880022    1    1    2    0    0  0.16578397383E+03  0.92559219509E+03  0.25394993302E+03  0.98594495743E+03  0.15294330000E+03 0.  0.
<mgrwt>
<rscale>  0 0.10957382E+04</rscale>
<asrwt>0</asrwt>
<pdfrwt beam="1">  1        2 0.30267528E+00 0.11480485E+04</pdfrwt>
<pdfrwt beam="2">  1       -2 0.12703206E+00 0.11480485E+04</pdfrwt>
<totfact> 0.31458439E+00</totfact>
</mgrwt>
</event>
<event>
 4    5  0.2409888E-007  0.1115163E+04  0.7818608E-02  0.9244359E-01
         -2   -1    0    0    0  501 -0.00000000000E+00  0.00000000000E+00  0.36712502109E+03  0.36712502110E+03  0.25500000000E-02 0.  1.
          2   -1    0    0  501    0  0.00000000000E+00 -0.00000000000E+00 -0.36470251135E+04  0.36470251135E+04  0.25500000000E-02 0. -1.
    8880023    1    1    2    0    0 -0.12367256707E+03  0.89133750632E+03 -0.27288837995E+04  0.29479474981E+04  0.65864270000E+03 0.  0.
    8880022    1    1    2    0    0  0.12367256707E+03 -0.89133750632E+03 -0.55101629289E+03  0.10662026365E+04  0.15294330000E+03 0.  1.
<mgrwt>
<rscale>  0 0.10607067E+04</rscale>
<asrwt>0</asrwt>
<pdfrwt beam="1">  1        2 0.56108076E+00 0.11151626E+04</pdfrwt>
<pdfrwt beam="2">  1       -2 0.56480775E-01 0.11151626E+04</pdfrwt>
<totfact> 0.19206631E+00</totfact>
</mgrwt>
</event>
<event>
 4    5  0.2409888E-007  0.7785455E+03  0.7818608E-02  0.9759265E-01
          2   -1    0    0  501    0  0.00000000000E+00  0.00000000000E+00  0.84436726658E+03  0.84436726658E+03  0.25500000000E-02 0. -1.
         -2   -1    0    0    0  501 -0.00000000000E+00 -0.00000000000E+00 -0.59879695343E+03  0.59879695344E+03  0.25500000000E-02 0.  1.
    8880023    1    1    2    0    0 -0.25807097667E+03  0.32514952063E+03  0.50720920836E+03  0.92919009200E+03  0.65864270000E+03 0. -1.
    8880022    1    1    2    0    0  0.25807097667E+03 -0.32514952063E+03 -0.26163889522E+03  0.51397412802E+03  0.15294330000E+03 0.  1.
<mgrwt>
<rscale>  0 0.67595200E+03</rscale>
<asrwt>0</asrwt>
<pdfrwt beam="1">  1        2 0.12990266E+00 0.77854547E+03</pdfrwt>
<pdfrwt beam="2">  1       -2 0.92122608E-01 0.77854547E+03</pdfrwt>
<totfact> 0.32452207E+01</totfact>
</mgrwt>
</event>
<event>
 4    5  0.2409888E-007  0.8207364E+03  0.7818608E-02  0.9667633E-01
         -2   -1    0    0    0  501 -0.00000000000E+00  0.00000000000E+00  0.60349470079E+03  0.60349470079E+03  0.25500000000E-02 0.  1.
          2   -1    0    0  501    0  0.00000000000E+00 -0.00000000000E+00 -0.28160128592E+04  0.28160128592E+04  0.25500000000E-02 0. -1.
    8880023    1    1    2    0    0  0.18776256558E+03  0.45226451361E+03 -0.26318886210E+04  0.27568906200E+04  0.65864270000E+03 0. -1.
    8880022    1    1    2    0    0 -0.18776256558E+03 -0.45226451361E+03  0.41937046254E+03  0.66261694000E+03  0.15294330000E+03 0.  0.
<mgrwt>
<rscale>  0 0.72977058E+03</rscale>
<asrwt>0</asrwt>
<pdfrwt beam="1">  1        2 0.43323274E+00 0.82073636E+03</pdfrwt>
<pdfrwt beam="2">  1       -2 0.92845340E-01 0.82073636E+03</pdfrwt>
<totfact> 0.23266590E+00</totfact>
</mgrwt>
</event>
<event>
 4    5  0.2409888E-007  0.7205924E+03  0.7818608E-02  0.9920587E-01
         -2   -1    0    0    0  501 -0.00000000000E+00  0.00000000000E+00  0.75866324144E+03  0.75866324144E+03  0.25500000000E-02 0.  1.
          2   -1    0    0  501    0  0.00000000000E+00 -0.00000000000E+00 -0.60407025161E+03  0.60407025162E+03  0.25500000000E-02 0. -1.
    8880023    1    1    2    0    0  0.93966791941E+01 -0.29215561289E+03 -0.31697240534E+03  0.78722608680E+03  0.65864270000E+03 0. -1.
    8880022    1    1    2    0    0 -0.93966791941E+01  0.29215561289E+03  0.47156539517E+03  0.57550740626E+03  0.15294330000E+03 0.  0.
<mgrwt>
<rscale>  0 0.59273866E+03</rscale>
<asrwt>0</asrwt>
<pdfrwt beam="1">  1        2 0.92933885E-01 0.72059240E+03</pdfrwt>
<pdfrwt beam="2">  1       -2 0.11671742E+00 0.72059240E+03</pdfrwt>
<totfact> 0.28402173E+01</totfact>
</mgrwt>
</event>
<event>
 4    5  0.2409888E-007  0.7152317E+03  0.7818608E-02  0.9939063E-01
          2   -1    0    0  501    0  0.00000000000E+00  0.00000000000E+00  0.10977260752E+04  0.10977260752E+04  0.25500000000E-02 0. -1.
         -2   -1    0    0    0  501 -0.00000000000E+00 -0.00000000000E+00 -0.36803779075E+03  0.36803779076E+03  0.25500000000E-02 0.  1.
    8880023    1    1    2    0    0  0.24715923502E+03 -0.12906766153E+03  0.86306193590E+03  0.11209068918E+04  0.65864270000E+03 0. -1.
    8880022    1    1    2    0    0 -0.24715923502E+03  0.12906766153E+03 -0.13337365142E+03  0.34485697415E+03  0.15294330000E+03 0.  0.
<mgrwt>
<rscale>  0 0.58404895E+03</rscale>
<asrwt>0</asrwt>
<pdfrwt beam="1">  1        2 0.16888094E+00 0.71523168E+03</pdfrwt>
<pdfrwt beam="2">  1       -2 0.56621198E-01 0.71523168E+03</pdfrwt>
<totfact> 0.65164885E+01</totfact>
</mgrwt>
</event>
<event>
 4    5  0.2409888E-007  0.7037516E+03  0.7818608E-02  0.9981980E-01
         -2   -1    0    0    0  501 -0.00000000000E+00  0.00000000000E+00  0.45765943126E+03  0.45765943127E+03  0.25500000000E-02 0.  1.
          2   -1    0    0  501    0  0.00000000000E+00 -0.00000000000E+00 -0.16183940364E+04  0.16183940364E+04  0.25500000000E-02 0. -1.
    8880023    1    1    2    0    0  0.19198076995E+03 -0.15684246097E+03 -0.14830875242E+04  0.16415891642E+04  0.65864270000E+03 0. -1.
    8880022    1    1    2    0    0 -0.19198076995E+03  0.15684246097E+03  0.32235291898E+03  0.43446430346E+03  0.15294330000E+03 0.  0.
<mgrwt>
<rscale>  0 0.56447493E+03</rscale>
<asrwt>0</asrwt>
<pdfrwt beam="1">  1        2 0.24898370E+00 0.70375165E+03</pdfrwt>
<pdfrwt beam="2">  1       -2 0.70409144E-01 0.70375165E+03</pdfrwt>
<totfact> 0.20633958E+01</totfact>
</mgrwt>
</event>
<event>
 4    5  0.2409888E-007  0.7996494E+03  0.7818608E-02  0.9711555E-01
          2   -1    0    0  501    0  0.00000000000E+00  0.00000000000E+00  0.35235689816E+03  0.35235689817E+03  0.25500000000E-02 0. -1.
         -2   -1    0    0    0  501 -0.00000000000E+00 -0.00000000000E+00 -0.16451691808E+04  0.16451691808E+04  0.25500000000E-02 0.  1.
    8880023    1    1    2    0    0  0.17475666991E+03 -0.41843653909E+03 -0.12914369909E+04  0.15189630472E+04  0.65864270000E+03 0.  1.
    8880022    1    1    2    0    0 -0.17475666991E+03  0.41843653909E+03 -0.13752916758E+01  0.47856303176E+03  0.15294330000E+03 0.  0.
<mgrwt>
<rscale>  0 0.70332988E+03</rscale>
<asrwt>0</asrwt>
<pdfrwt beam="1">  1        2 0.54208754E-01 0.79964945E+03</pdfrwt>
<pdfrwt beam="2">  1       -2 0.25310295E+00 0.79964945E+03</pdfrwt>
<totfact> 0.57683350E+00</totfact>
</mgrwt>
</event>
<event>
 4    5  0.2409888E-007  0.7416066E+03  0.7818608E-02  0.9855292E-01
         -2   -1    0    0    0  501 -0.00000000000E+00  0.00000000000E+00  0.62372721557E+03  0.62372721557E+03  0.25500000000E-02 0.  1.
          2   -1    0    0  501    0  0.00000000000E+00 -0.00000000000E+00 -0.59222917760E+03  0.59222917760E+03  0.25500000000E-02 0. -1.
    8880023    1    1    2    0    0 -0.24254287601E+03 -0.23946413135E+03 -0.21042874294E+03  0.77088298660E+03  0.65864270000E+03 0.  0.
    8880022    1    1    2    0    0  0.24254287601E+03  0.23946413135E+03  0.24192678091E+03  0.44507340658E+03  0.15294330000E+03 0.  0.
<mgrwt>
<rscale>  0 0.62477838E+03</rscale>
<asrwt>0</asrwt>
<pdfrwt beam="1">  1        2 0.91112182E-01 0.74160658E+03</pdfrwt>
<pdfrwt beam="2">  1       -2 0.95958033E-01 0.74160658E+03</pdfrwt>
<totfact> 0.46461152E+01</totfact>
</mgrwt>
</event>
<event>
 4    5  0.3198446E-007  0.1826092E+04  0.7818608E-02  0.8708239E-01
          2   -1    0    0  501    0  0.00000000000E+00  0.00000000000E+00  0.29133976356E+04  0.29133976356E+04  0.25500000000E-02 0. -1.
         -2   -1    0    0    0  501 -0.00000000000E+00 -0.00000000000E+00 -0.25211132017E+04  0.25211132017E+04  0.25500000000E-02 0.  1.
    8880023    1    1    2    0    0 -0.72539355191E+03 -0.15409756019E+04  0.22577955094E+04  0.29038340826E+04  0.65864270000E+03 0.  0.
    8880022    1    1    2    0    0  0.72539355191E+03  0.15409756019E+04 -0.18655110755E+04  0.25306767547E+04  0.15294330000E+03 0.  0.
<mgrwt>
<rscale>  0 0.17963574E+04</rscale>
<asrwt>0</asrwt>
<pdfrwt beam="1">  1        2 0.44821502E+00 0.18260920E+04</pdfrwt>
<pdfrwt beam="2">  1       -2 0.38786357E+00 0.18260920E+04</pdfrwt>
<totfact> 0.15788203E-02</totfact>
</mgrwt>
</event>
<event>
 4    5  0.2409888E-007  0.1176112E+04  0.7818608E-02  0.9180701E-01
         -2   -1    0    0    0  501 -0.00000000000E+00  0.00000000000E+00  0.92671137931E+03  0.92671137931E+03  0.25500000000E-02 0.  1.
          2   -1    0    0  501    0  0.00000000000E+00 -0.00000000000E+00 -0.24196941268E+04  0.24196941268E+04  0.25500000000E-02 0. -1.
    8880023    1    1    2    0    0 -0.94458446395E+03 -0.23914069743E+03 -0.19359357416E+04  0.22651899445E+04  0.65864270000E+03 0.  0.
    8880022    1    1    2    0    0  0.94458446395E+03  0.23914069743E+03  0.44295299411E+03  0.10812155616E+04  0.15294330000E+03 0.  0.
<mgrwt>
<rscale>  0 0.11254868E+04</rscale>
<asrwt>0</asrwt>
<pdfrwt beam="1">  1        2 0.37226063E+00 0.11761115E+04</pdfrwt>
<pdfrwt beam="2">  1       -2 0.14257098E+00 0.11761115E+04</pdfrwt>
<totfact> 0.13007017E+00</totfact>
</mgrwt>
</event>
<event>
 4    5  0.2409888E-007  0.8118503E+03  0.7818608E-02  0.9685736E-01
         -2   -1    0    0    0  501 -0.00000000000E+00  0.00000000000E+00  0.23547813583E+03  0.23547813584E+03  0.25500000000E-02 0.  1.
          2   -1    0    0  501    0  0.00000000000E+00 -0.00000000000E+00 -0.26014732950E+04  0.26014732950E+04  0.25500000000E-02 0. -1.
    8880023    1    1    2    0    0  0.43495273621E+03  0.19001813068E+03 -0.21412053358E+04  0.22899478747E+04  0.65864270000E+03 0.  0.
    8880022    1    1    2    0    0 -0.43495273621E+03 -0.19001813068E+03 -0.22478982344E+03  0.54700355617E+03  0.15294330000E+03 0.  0.
<mgrwt>
<rscale>  0 0.71872478E+03</rscale>
<asrwt>0</asrwt>
<pdfrwt beam="1">  1        2 0.40022664E+00 0.81185034E+03</pdfrwt>
<pdfrwt beam="2">  1       -2 0.36227407E-01 0.81185034E+03</pdfrwt>
<totfact> 0.22606136E+01</totfact>
</mgrwt>
</event>
<event>
 4    5  0.2409888E-007  0.7837277E+03  0.7818608E-02  0.9747152E-01
         -2   -1    0    0    0  501 -0.00000000000E+00  0.00000000000E+00  0.24713874782E+03  0.24713874783E+03  0.25500000000E-02 0.  1.
          2   -1    0    0  501    0  0.00000000000E+00 -0.00000000000E+00 -0.23391737311E+04  0.23391737311E+04  0.25500000000E-02 0. -1.
    8880023    1    1    2    0    0  0.30211145450E+03  0.29857592390E+03 -0.19677225456E+04  0.21180559804E+04  0.65864270000E+03 0. -1.
    8880022    1    1    2    0    0 -0.30211145450E+03 -0.29857592390E+03 -0.12431243768E+03  0.46825649857E+03  0.15294330000E+03 0.  0.
<mgrwt>
<rscale>  0 0.68277441E+03</rscale>
<asrwt>0</asrwt>
<pdfrwt beam="1">  1        2 0.35987287E+00 0.78372771E+03</pdfrwt>
<pdfrwt beam="2">  1       -2 0.38021347E-01 0.78372771E+03</pdfrwt>
<totfact> 0.29109783E+01</totfact>
</mgrwt>
</event>
<event>
 4    5  0.2409888E-007  0.7130740E+03  0.7818608E-02  0.9946758E-01
          2   -1    0    0  501    0  0.00000000000E+00  0.00000000000E+00  0.13894014622E+04  0.13894014622E+04  0.25500000000E-02 0. -1.
         -2   -1    0    0    0  501 -0.00000000000E+00 -0.00000000000E+00 -0.37350637000E+03  0.37350637001E+03  0.25500000000E-02 0.  1.
    8880023    1    1    2    0    0 -0.22150197851E+03 -0.16000366955E+03  0.12027600884E+04  0.13982511710E+04  0.65864270000E+03 0. -1.
    8880022    1    1    2    0    0  0.22150197851E+03  0.16000366955E+03 -0.18686499618E+03  0.36465666121E+03  0.15294330000E+03 0.  0.
<mgrwt>
<rscale>  0 0.58047723E+03</rscale>
<asrwt>0</asrwt>
<pdfrwt beam="1">  1        2 0.21375407E+00 0.71307398E+03</pdfrwt>
<pdfrwt beam="2">  1       -2 0.57462518E-01 0.71307398E+03</pdfrwt>
<totfact> 0.42658227E+01</totfact>
</mgrwt>
</event>
<event>
 4    5  0.2409888E-007  0.9816410E+03  0.7818608E-02  0.9405981E-01
         -2   -1    0    0    0  501 -0.00000000000E+00  0.00000000000E+00  0.98106278666E+03  0.98106278667E+03  0.25500000000E-02 0.  1.
          2   -1    0    0  501    0  0.00000000000E+00 -0.00000000000E+00 -0.12787459532E+04  0.12787459532E+04  0.25500000000E-02 0. -1.
    8880023    1    1    2    0    0  0.72787280384E+03 -0.31802639766E+01 -0.87754907199E+03  0.13167047933E+04  0.65864270000E+03 0.  0.
    8880022    1    1    2    0    0 -0.72787280384E+03  0.31802639766E+01  0.57986590549E+03  0.94310394655E+03  0.15294330000E+03 0.  0.
<mgrwt>
<rscale>  0 0.91585108E+03</rscale>
<asrwt>0</asrwt>
<pdfrwt beam="1">  1        2 0.19673015E+00 0.98164104E+03</pdfrwt>
<pdfrwt beam="2">  1       -2 0.15093274E+00 0.98164104E+03</pdfrwt>
<totfact> 0.49814418E+00</totfact>
</mgrwt>
</event>
<event>
 4    5  0.2409888E-007  0.1202259E+04  0.7818608E-02  0.9154929E-01
         -2   -1    0    0    0  501 -0.00000000000E+00  0.00000000000E+00  0.93903510428E+03  0.93903510429E+03  0.25500000000E-02 0.  1.
          2   -1    0    0  501    0  0.00000000000E+00 -0.00000000000E+00 -0.24289809633E+04  0.24289809633E+04  0.25500000000E-02 0. -1.
    8880023    1    1    2    0    0  0.83697334491E+03 -0.55775691195E+03 -0.19185006757E+04  0.22640830819E+04  0.65864270000E+03 0.  0.
    8880022    1    1    2    0    0 -0.83697334491E+03  0.55775691195E+03  0.42855481669E+03  0.11039329857E+04  0.15294330000E+03 0.  0.
<mgrwt>
<rscale>  0 0.11530990E+04</rscale>
<asrwt>0</asrwt>
<pdfrwt beam="1">  1        2 0.37368938E+00 0.12022593E+04</pdfrwt>
<pdfrwt beam="2">  1       -2 0.14446694E+00 0.12022593E+04</pdfrwt>
<totfact> 0.12369409E+00</totfact>
</mgrwt>
</event>
<event>
 4    5  0.2409888E-007  0.7232100E+03  0.7818608E-02  0.9911870E-01
         -2   -1    0    0    0  501 -0.00000000000E+00  0.00000000000E+00  0.31655042782E+03  0.31655042783E+03  0.25500000000E-02 0.  1.
          2   -1    0    0  501    0  0.00000000000E+00 -0.00000000000E+00 -0.11111089813E+04  0.11111089813E+04  0.25500000000E-02 0. -1.
    8880023    1    1    2    0    0 -0.28641007554E+03  0.84804296921E+02 -0.81726869707E+03  0.10913115181E+04  0.65864270000E+03 0. -1.
    8880022    1    1    2    0    0  0.28641007554E+03 -0.84804296921E+02  0.22710143589E+02  0.33634789100E+03  0.15294330000E+03 0.  1.
<mgrwt>
<rscale>  0 0.59689431E+03</rscale>
<asrwt>0</asrwt>
<pdfrwt beam="1">  1        2 0.17093984E+00 0.72321000E+03</pdfrwt>
<pdfrwt beam="2">  1       -2 0.48700066E-01 0.72321000E+03</pdfrwt>
<totfact> 0.87101408E+01</totfact>
</mgrwt>
</event>
<event>
 4    5  0.2409888E-007  0.1877049E+04  0.7818608E-02  0.8681072E-01
          2   -1    0    0  501    0  0.00000000000E+00  0.00000000000E+00  0.39231142137E+04  0.39231142137E+04  0.25500000000E-02 0. -1.
         -2   -1    0    0    0  501 -0.00000000000E+00 -0.00000000000E+00 -0.13906777761E+04  0.13906777761E+04  0.25500000000E-02 0.  1.
    8880023    1    1    2    0    0 -0.17563366160E+04  0.69157446812E+02  0.29538795499E+04  0.34998165184E+04  0.65864270000E+03 0.  0.
    8880022    1    1    2    0    0  0.17563366160E+04 -0.69157446812E+02 -0.42144311234E+03  0.18139754714E+04  0.15294330000E+03 0.  0.
<mgrwt>
<rscale>  0 0.18482135E+04</rscale>
<asrwt>0</asrwt>
<pdfrwt beam="1">  1        2 0.60355603E+00 0.18770486E+04</pdfrwt>
<pdfrwt beam="2">  1       -2 0.21395043E+00 0.18770486E+04</pdfrwt>
<totfact> 0.38599297E-02</totfact>
</mgrwt>
</event>
<event>
 4    5  0.2753141E-007  0.1205527E+04  0.7818608E-02  0.9151768E-01
          2   -1    0    0  501    0  0.00000000000E+00  0.00000000000E+00  0.30870185056E+04  0.30870185056E+04  0.25500000000E-02 0. -1.
         -2   -1    0    0    0  501 -0.00000000000E+00 -0.00000000000E+00 -0.99554458027E+03  0.99554458027E+03  0.25500000000E-02 0.  1.
    8880023    1    1    2    0    0 -0.10090400025E+04 -0.36393113010E+02  0.26552226095E+04  0.29160767304E+04  0.65864270000E+03 0.  0.
    8880022    1    1    2    0    0  0.10090400025E+04  0.36393113010E+02 -0.56374868421E+03  0.11664863554E+04  0.15294330000E+03 0.  0.
<mgrwt>
<rscale>  0 0.11565436E+04</rscale>
<asrwt>0</asrwt>
<pdfrwt beam="1">  1        2 0.47492592E+00 0.12055274E+04</pdfrwt>
<pdfrwt beam="2">  1       -2 0.15316071E+00 0.12055274E+04</pdfrwt>
<totfact> 0.42839502E-01</totfact>
</mgrwt>
</event>
<event>
 4    5  0.2409888E-007  0.7529335E+03  0.7818608E-02  0.9823758E-01
          2   -1    0    0  501    0  0.00000000000E+00  0.00000000000E+00  0.28020812395E+04  0.28020812395E+04  0.25500000000E-02 0. -1.
         -2   -1    0    0    0  501 -0.00000000000E+00 -0.00000000000E+00 -0.60042783454E+03  0.60042783454E+03  0.25500000000E-02 0.  1.
    8880023    1    1    2    0    0  0.27307735289E+03  0.24192452646E+03  0.26788579835E+04  0.27826586243E+04  0.65864270000E+03 0. -1.
    8880022    1    1    2    0    0 -0.27307735289E+03 -0.24192452646E+03 -0.47720457860E+03  0.61985044972E+03  0.15294330000E+03 0.  0.
<mgrwt>
<rscale>  0 0.64103012E+03</rscale>
<asrwt>0</asrwt>
<pdfrwt beam="1">  1        2 0.43108941E+00 0.75293355E+03</pdfrwt>
<pdfrwt beam="2">  1       -2 0.92373515E-01 0.75293355E+03</pdfrwt>
<totfact> 0.24310786E+00</totfact>
</mgrwt>
</event>
<event>
 4    5  0.2409888E-007  0.1106096E+04  0.7818608E-02  0.9254299E-01
         -2   -1    0    0    0  501 -0.00000000000E+00  0.00000000000E+00  0.82673859714E+03  0.82673859715E+03  0.25500000000E-02 0.  1.
          2   -1    0    0  501    0  0.00000000000E+00 -0.00000000000E+00 -0.13366308796E+04  0.13366308796E+04  0.25500000000E-02 0. -1.
    8880023    1    1    2    0    0 -0.71328336463E+03  0.52996689701E+03 -0.59799016231E+03  0.12573943338E+04  0.65864270000E+03 0. -1.
    8880022    1    1    2    0    0  0.71328336463E+03 -0.52996689701E+03  0.88097879859E+02  0.90597514294E+03  0.15294330000E+03 0.  0.
<mgrwt>
<rscale>  0 0.10510126E+04</rscale>
<asrwt>0</asrwt>
<pdfrwt beam="1">  1        2 0.20563552E+00 0.11060960E+04</pdfrwt>
<pdfrwt beam="2">  1       -2 0.12719055E+00 0.11060960E+04</pdfrwt>
<totfact> 0.70984500E+00</totfact>
</mgrwt>
</event>
<event>
 4    5  0.2409888E-007  0.1555584E+04  0.7818608E-02  0.8871352E-01
         -2   -1    0    0    0  501 -0.00000000000E+00  0.00000000000E+00  0.15858667993E+04  0.15858667993E+04  0.25500000000E-02 0.  1.
          2   -1    0    0  501    0  0.00000000000E+00 -0.00000000000E+00 -0.22775602514E+04  0.22775602514E+04  0.25500000000E-02 0. -1.
    8880023    1    1    2    0    0 -0.98794382749E+03 -0.10049867482E+04 -0.15584005082E+04  0.22019204619E+04  0.65864270000E+03 0.  0.
    8880022    1    1    2    0    0  0.98794382749E+03  0.10049867482E+04  0.86670705614E+03  0.16615065888E+04  0.15294330000E+03 0.  0.
<mgrwt>
<rscale>  0 0.15198615E+04</rscale>
<asrwt>0</asrwt>
<pdfrwt beam="1">  1        2 0.35039388E+00 0.15555840E+04</pdfrwt>
<pdfrwt beam="2">  1       -2 0.24397951E+00 0.15555840E+04</pdfrwt>
<totfact> 0.30439202E-01</totfact>
</mgrwt>
</event>
<event>
 4    5  0.2409888E-007  0.7086209E+03  0.7818608E-02  0.9963158E-01
          2   -1    0    0  501    0  0.00000000000E+00  0.00000000000E+00  0.58563089537E+03  0.58563089538E+03  0.25500000000E-02 0. -1.
         -2   -1    0    0    0  501 -0.00000000000E+00 -0.00000000000E+00 -0.59479287150E+03  0.59479287151E+03  0.25500000000E-02 0.  1.
    8880023    1    1    2    0    0  0.26128895562E+03  0.78408732341E+01  0.27976725699E+03  0.76184862143E+03  0.65864270000E+03 0. -1.
    8880022    1    1    2    0    0 -0.26128895562E+03 -0.78408732341E+01 -0.28892923312E+03  0.41857514545E+03  0.15294330000E+03 0.  0.
<mgrwt>
<rscale>  0 0.57295626E+03</rscale>
<asrwt>0</asrwt>
<pdfrwt beam="1">  1        2 0.90097061E-01 0.70862092E+03</pdfrwt>
<pdfrwt beam="2">  1       -2 0.91506595E-01 0.70862092E+03</pdfrwt>
<totfact> 0.52724462E+01</totfact>
</mgrwt>
</event>
<event>
 4    5  0.2409888E-007  0.9592996E+03  0.7818608E-02  0.9436858E-01
          2   -1    0    0  501    0  0.00000000000E+00  0.00000000000E+00  0.34363841235E+04  0.34363841235E+04  0.25500000000E-02 0. -1.
         -2   -1    0    0    0  501 -0.00000000000E+00 -0.00000000000E+00 -0.47859851211E+03  0.47859851211E+03  0.25500000000E-02 0.  1.
    8880023    1    1    2    0    0  0.29049465003E+03 -0.63408079037E+03  0.30478893261E+04  0.31952910886E+04  0.65864270000E+03 0.  0.
    8880022    1    1    2    0    0 -0.29049465003E+03  0.63408079037E+03 -0.90103714724E+02  0.71969154701E+03  0.15294330000E+03 0.  0.
<mgrwt>
<rscale>  0 0.89103478E+03</rscale>
<asrwt>0</asrwt>
<pdfrwt beam="1">  1        2 0.52867448E+00 0.95929964E+03</pdfrwt>
<pdfrwt beam="2">  1       -2 0.73630541E-01 0.95929964E+03</pdfrwt>
<totfact> 0.15586149E+00</totfact>
</mgrwt>
</event>
<event>
 4    5  0.2409888E-007  0.9654036E+03  0.7818608E-02  0.9428290E-01
         -2   -1    0    0    0  501 -0.00000000000E+00  0.00000000000E+00  0.66330631635E+03  0.66330631635E+03  0.25500000000E-02 0.  1.
          2   -1    0    0  501    0  0.00000000000E+00 -0.00000000000E+00 -0.11198671308E+04  0.11198671308E+04  0.25500000000E-02 0. -1.
    8880023    1    1    2    0    0  0.66449717358E+03  0.23798605019E+03 -0.43956542051E+03  0.10607647331E+04  0.65864270000E+03 0. -1.
    8880022    1    1    2    0    0 -0.66449717358E+03 -0.23798605019E+03 -0.16995393973E+02  0.72240871410E+03  0.15294330000E+03 0.  0.
<mgrwt>
<rscale>  0 0.89783673E+03</rscale>
<asrwt>0</asrwt>
<pdfrwt beam="1">  1        2 0.17228725E+00 0.96540357E+03</pdfrwt>
<pdfrwt beam="2">  1       -2 0.10204713E+00 0.96540357E+03</pdfrwt>
<totfact> 0.16617787E+01</totfact>
</mgrwt>
</event>
<event>
 4    5  0.2409888E-007  0.8294929E+03  0.7818608E-02  0.9650320E-01
         -2   -1    0    0    0  501 -0.00000000000E+00  0.00000000000E+00  0.45489695438E+03  0.45489695439E+03  0.25500000000E-02 0.  1.
          2   -1    0    0  501    0  0.00000000000E+00 -0.00000000000E+00 -0.29839419534E+04  0.29839419534E+04  0.25500000000E-02 0. -1.
    8880023    1    1    2    0    0  0.48989594378E+03  0.11937457338E+03 -0.27463413938E+04  0.28688760137E+04  0.65864270000E+03 0. -1.
    8880022    1    1    2    0    0 -0.48989594378E+03 -0.11937457338E+03  0.21729639474E+03  0.56996289412E+03  0.15294330000E+03 0.  0.
<mgrwt>
<rscale>  0 0.74053360E+03</rscale>
<asrwt>0</asrwt>
<pdfrwt beam="1">  1        2 0.45906798E+00 0.82949294E+03</pdfrwt>
<pdfrwt beam="2">  1       -2 0.69984149E-01 0.82949294E+03</pdfrwt>
<totfact> 0.34809055E+00</totfact>
</mgrwt>
</event>
<event>
 4    5  0.2409888E-007  0.8598603E+03  0.7818608E-02  0.9593812E-01
          2   -1    0    0  501    0  0.00000000000E+00  0.00000000000E+00  0.13091248390E+04  0.13091248390E+04  0.25500000000E-02 0. -1.
         -2   -1    0    0    0  501 -0.00000000000E+00 -0.00000000000E+00 -0.51007844171E+03  0.51007844172E+03  0.25500000000E-02 0.  1.
    8880023    1    1    2    0    0  0.52791348909E+03  0.16388063484E+03  0.89111819141E+03  0.12383260281E+04  0.65864270000E+03 0.  0.
    8880022    1    1    2    0    0 -0.52791348909E+03 -0.16388063484E+03 -0.92071794075E+02  0.58087725271E+03  0.15294330000E+03 0.  0.
<mgrwt>
<rscale>  0 0.77707100E+03</rscale>
<asrwt>0</asrwt>
<pdfrwt beam="1">  1        2 0.20140382E+00 0.85986029E+03</pdfrwt>
<pdfrwt beam="2">  1       -2 0.78473607E-01 0.85986029E+03</pdfrwt>
<totfact> 0.23780703E+01</totfact>
</mgrwt>
</event>
<event>
 4    5  0.2409888E-007  0.8670739E+03  0.7818608E-02  0.9581102E-01
          2   -1    0    0  501    0  0.00000000000E+00  0.00000000000E+00  0.93457522674E+03  0.93457522674E+03  0.25500000000E-02 0. -1.
         -2   -1    0    0    0  501 -0.00000000000E+00 -0.00000000000E+00 -0.75438856450E+03  0.75438856450E+03  0.25500000000E-02 0.  1.
    8880023    1    1    2    0    0 -0.23884875460E+03 -0.51084068698E+03  0.52195652166E+03  0.10120552118E+04  0.65864270000E+03 0.  0.
    8880022    1    1    2    0    0  0.23884875460E+03  0.51084068698E+03 -0.34176985942E+03  0.67690857940E+03  0.15294330000E+03 0.  0.
<mgrwt>
<rscale>  0 0.78559697E+03</rscale>
<asrwt>0</asrwt>
<pdfrwt beam="1">  1        2 0.14378080E+00 0.86707390E+03</pdfrwt>
<pdfrwt beam="2">  1       -2 0.11605978E+00 0.86707390E+03</pdfrwt>
<totfact> 0.16095414E+01</totfact>
</mgrwt>
</event>
<event>
 4    5  0.3856703E-007  0.1346283E+04  0.7818608E-02  0.9026587E-01
         -2   -1    0    0    0  501 -0.00000000000E+00  0.00000000000E+00  0.16530397172E+04  0.16530397172E+04  0.25500000000E-02 0.  1.
          2   -1    0    0  501    0  0.00000000000E+00 -0.00000000000E+00 -0.31536460906E+04  0.31536460906E+04  0.25500000000E-02 0. -1.
    8880023    1    1    2    0    0 -0.82844750959E+03 -0.83207182459E+03 -0.27644351945E+04  0.30748302308E+04  0.65864270000E+03 0. -1.
    8880022    1    1    2    0    0  0.82844750959E+03  0.83207182459E+03  0.12638288211E+04  0.17318555770E+04  0.15294330000E+03 0.  0.
<mgrwt>
<rscale>  0 0.13037617E+04</rscale>
<asrwt>0</asrwt>
<pdfrwt beam="1">  1        2 0.48517632E+00 0.13462834E+04</pdfrwt>
<pdfrwt beam="2">  1       -2 0.25431380E+00 0.13462834E+04</pdfrwt>
<totfact> 0.80983778E-02</totfact>
</mgrwt>
</event>
<event>
 4    5  0.2409888E-007  0.1071477E+04  0.7818608E-02  0.9293498E-01
          2   -1    0    0  501    0  0.00000000000E+00  0.00000000000E+00  0.25176821544E+04  0.25176821544E+04  0.25500000000E-02 0. -1.
         -2   -1    0    0    0  501 -0.00000000000E+00 -0.00000000000E+00 -0.46364016381E+03  0.46364016382E+03  0.25500000000E-02 0.  1.
    8880023    1    1    2    0    0 -0.79844656048E+03  0.27701225654E+03  0.17839451221E+04  0.20809908950E+04  0.65864270000E+03 0. -1.
    8880022    1    1    2    0    0  0.79844656048E+03 -0.27701225654E+03  0.27009686849E+03  0.90033142320E+03  0.15294330000E+03 0.  0.
<mgrwt>
<rscale>  0 0.10138367E+04</rscale>
<asrwt>0</asrwt>
<pdfrwt beam="1">  1        2 0.38733571E+00 0.10714770E+04</pdfrwt>
<pdfrwt beam="2">  1       -2 0.71329256E-01 0.10714770E+04</pdfrwt>
<totfact> 0.60786862E+00</totfact>
</mgrwt>
</event>
<event>
 4    5  0.2409888E-007  0.1137330E+04  0.7818608E-02  0.9220589E-01
         -2   -1    0    0    0  501 -0.00000000000E+00  0.00000000000E+00  0.13840255227E+04  0.13840255227E+04  0.25500000000E-02 0.  1.
          2   -1    0    0  501    0  0.00000000000E+00 -0.00000000000E+00 -0.87990832060E+03  0.87990832060E+03  0.25500000000E-02 0. -1.
    8880023    1    1    2    0    0 -0.92284683253E+03 -0.89794002023E+02 -0.10796243531E+03  0.11424427044E+04  0.65864270000E+03 0.  0.
    8880022    1    1    2    0    0  0.92284683253E+03  0.89794002023E+02  0.61207963739E+03  0.11214911389E+04  0.15294330000E+03 0.  0.
<mgrwt>
<rscale>  0 0.10843417E+04</rscale>
<asrwt>0</asrwt>
<pdfrwt beam="1">  1        2 0.13537051E+00 0.11373300E+04</pdfrwt>
<pdfrwt beam="2">  1       -2 0.21292700E+00 0.11373300E+04</pdfrwt>
<totfact> 0.32508305E+00</totfact>
</mgrwt>
</event>
<event>
 4    5  0.2409888E-007  0.1095533E+04  0.7818608E-02  0.9266046E-01
         -2   -1    0    0    0  501 -0.00000000000E+00  0.00000000000E+00  0.43735716531E+03  0.43735716532E+03  0.25500000000E-02 0.  1.
          2   -1    0    0  501    0  0.00000000000E+00 -0.00000000000E+00 -0.23822968252E+04  0.23822968252E+04  0.25500000000E-02 0. -1.
    8880023    1    1    2    0    0 -0.48502577675E+03 -0.72878834667E+03 -0.73838157191E+03  0.13211358788E+04  0.65864270000E+03 0.  1.
    8880022    1    1    2    0    0  0.48502577675E+03  0.72878834667E+03 -0.12065580880E+04  0.14985181117E+04  0.15294330000E+03 0.  0.
<mgrwt>
<rscale>  0 0.10396974E+04</rscale>
<asrwt>0</asrwt>
<pdfrwt beam="1">  1        2 0.36650719E+00 0.10955331E+04</pdfrwt>
<pdfrwt beam="2">  1       -2 0.67285719E-01 0.10955331E+04</pdfrwt>
<totfact> 0.82278204E+00</totfact>
</mgrwt>
</event>
<event>
 4    5  0.2409888E-007  0.8834841E+03  0.7818608E-02  0.9553083E-01
          2   -1    0    0  501    0  0.00000000000E+00  0.00000000000E+00  0.17289442853E+04  0.17289442853E+04  0.25500000000E-02 0. -1.
         -2   -1    0    0    0  501 -0.00000000000E+00 -0.00000000000E+00 -0.60960476329E+03  0.60960476330E+03  0.25500000000E-02 0.  1.
    8880023    1    1    2    0    0  0.48540295243E+03  0.33334365801E+03  0.14102952852E+04  0.16641745757E+04  0.65864270000E+03 0. -1.
    8880022    1    1    2    0    0 -0.48540295243E+03 -0.33334365801E+03 -0.29095576321E+03  0.67437447292E+03  0.15294330000E+03 0.  0.
<mgrwt>
<rscale>  0 0.80480881E+03</rscale>
<asrwt>0</asrwt>
<pdfrwt beam="1">  1        2 0.26599143E+00 0.88348414E+03</pdfrwt>
<pdfrwt beam="2">  1       -2 0.93785349E-01 0.88348414E+03</pdfrwt>
<totfact> 0.91778916E+00</totfact>
</mgrwt>
</event>
<event>
 4    5  0.2409888E-007  0.1175525E+04  0.7818608E-02  0.9181288E-01
         -2   -1    0    0    0  501 -0.00000000000E+00  0.00000000000E+00  0.19352992268E+04  0.19352992268E+04  0.25500000000E-02 0.  1.
          2   -1    0    0  501    0  0.00000000000E+00 -0.00000000000E+00 -0.10917462148E+04  0.10917462148E+04  0.25500000000E-02 0. -1.
    8880023    1    1    2    0    0  0.20221884729E+03  0.95244788151E+03 -0.56790591183E+03  0.13055178130E+04  0.65864270000E+03 0.  0.
    8880022    1    1    2    0    0 -0.20221884729E+03 -0.95244788151E+03  0.14114589239E+04  0.17215276286E+04  0.15294330000E+03 0.  0.
<mgrwt>
<rscale>  0 0.11248666E+04</rscale>
<asrwt>0</asrwt>
<pdfrwt beam="1">  1        2 0.16796096E+00 0.11755253E+04</pdfrwt>
<pdfrwt beam="2">  1       -2 0.29773834E+00 0.11755253E+04</pdfrwt>
<totfact> 0.70893842E-01</totfact>
</mgrwt>
</event>
<event>
 4    5  0.2409888E-007  0.7520099E+03  0.7818608E-02  0.9826250E-01
          2   -1    0    0  501    0  0.00000000000E+00  0.00000000000E+00  0.64675993935E+03  0.64675993935E+03  0.25500000000E-02 0. -1.
         -2   -1    0    0    0  501 -0.00000000000E+00 -0.00000000000E+00 -0.78745305138E+03  0.78745305138E+03  0.25500000000E-02 0.  1.
    8880023    1    1    2    0    0 -0.17148908273E+03  0.31984395603E+03 -0.49840682150E+03  0.90217970920E+03  0.65864270000E+03 0.  1.
    8880022    1    1    2    0    0  0.17148908273E+03 -0.31984395603E+03  0.35771370947E+03  0.53203328154E+03  0.15294330000E+03 0.  0.
<mgrwt>
<rscale>  0 0.63972636E+03</rscale>
<asrwt>0</asrwt>
<pdfrwt beam="1">  1        2 0.99501529E-01 0.75200989E+03</pdfrwt>
<pdfrwt beam="2">  1       -2 0.12114662E+00 0.75200989E+03</pdfrwt>
<totfact> 0.23769758E+01</totfact>
</mgrwt>
</event>
<event>
 4    5  0.2409888E-007  0.7238475E+03  0.7818608E-02  0.9909776E-01
          2   -1    0    0  501    0  0.00000000000E+00  0.00000000000E+00  0.51771698279E+03  0.51771698280E+03  0.25500000000E-02 0. -1.
         -2   -1    0    0    0  501 -0.00000000000E+00 -0.00000000000E+00 -0.13601018034E+04  0.13601018034E+04  0.25500000000E-02 0.  1.
    8880023    1    1    2    0    0 -0.16839490520E+03  0.24857230039E+03  0.22540103524E+03  0.75812984744E+03  0.65864270000E+03 0. -1.
    8880022    1    1    2    0    0  0.16839490520E+03 -0.24857230039E+03 -0.10677858559E+04  0.11196889388E+04  0.15294330000E+03 0.  0.
<mgrwt>
<rscale>  0 0.59789834E+03</rscale>
<asrwt>0</asrwt>
<pdfrwt beam="1">  1        2 0.79648767E-01 0.72384752E+03</pdfrwt>
<pdfrwt beam="2">  1       -2 0.20924643E+00 0.72384752E+03</pdfrwt>
<totfact> 0.70119281E+00</totfact>
</mgrwt>
</event>
<event>
 4    5  0.2409888E-007  0.6794890E+03  0.7818608E-02  0.1009614E+00
         -2   -1    0    0    0  501 -0.00000000000E+00  0.00000000000E+00  0.22370624004E+03  0.22370624006E+03  0.25500000000E-02 0.  1.
          2   -1    0    0  501    0  0.00000000000E+00 -0.00000000000E+00 -0.33667779939E+04  0.33667779939E+04  0.25500000000E-02 0. -1.
    8880023    1    1    2    0    0 -0.15677325266E+03 -0.57595199052E+02 -0.32638464085E+04  0.33338264268E+04  0.65864270000E+03 0. -1.
    8880022    1    1    2    0    0  0.15677325266E+03  0.57595199052E+02  0.12077465469E+03  0.25665780708E+03  0.15294330000E+03 0.  0.
<mgrwt>
<rscale>  0 0.51628252E+03</rscale>
<asrwt>0</asrwt>
<pdfrwt beam="1">  1        2 0.51796581E+00 0.67948897E+03</pdfrwt>
<pdfrwt beam="2">  1       -2 0.34416347E-01 0.67948897E+03</pdfrwt>
<totfact> 0.86717854E+00</totfact>
</mgrwt>
</event>
<event>
 4    5  0.2409888E-007  0.7387715E+03  0.7818608E-02  0.9863540E-01
         -2   -1    0    0    0  501 -0.00000000000E+00  0.00000000000E+00  0.60124084779E+03  0.60124084780E+03  0.25500000000E-02 0.  1.
          2   -1    0    0  501    0  0.00000000000E+00 -0.00000000000E+00 -0.77530192484E+03  0.77530192484E+03  0.25500000000E-02 0. -1.
    8880023    1    1    2    0    0 -0.23694288728E+03  0.23628630377E+03 -0.49420929239E+03  0.88883416908E+03  0.65864270000E+03 0.  0.
    8880022    1    1    2    0    0  0.23694288728E+03 -0.23628630377E+03  0.32014821534E+03  0.48770860356E+03  0.15294330000E+03 0.  0.
<mgrwt>
<rscale>  0 0.62061294E+03</rscale>
<asrwt>0</asrwt>
<pdfrwt beam="1">  1        2 0.11927722E+00 0.73877152E+03</pdfrwt>
<pdfrwt beam="2">  1       -2 0.92498592E-01 0.73877152E+03</pdfrwt>
<totfact> 0.36140081E+01</totfact>
</mgrwt>
</event>
<event>
 4    5  0.2409888E-007  0.7438060E+03  0.7818608E-02  0.9848996E-01
         -2   -1    0    0    0  501 -0.00000000000E+00  0.00000000000E+00  0.19163004274E+04  0.19163004274E+04  0.25500000000E-02 0.  1.
          2   -1    0    0  501    0  0.00000000000E+00 -0.00000000000E+00 -0.52890760441E+03  0.52890760442E+03  0.25500000000E-02 0. -1.
    8880023    1    1    2    0    0 -0.33184110269E+02  0.34399997488E+03 -0.23447628514E+03  0.77988877569E+03  0.65864270000E+03 0. -1.
    8880022    1    1    2    0    0  0.33184110269E+02 -0.34399997488E+03  0.16218691081E+04  0.16653192561E+04  0.15294330000E+03 0.  0.
<mgrwt>
<rscale>  0 0.62798134E+03</rscale>
<asrwt>0</asrwt>
<pdfrwt beam="1">  1        2 0.81370401E-01 0.74380601E+03</pdfrwt>
<pdfrwt beam="2">  1       -2 0.29481545E+00 0.74380601E+03</pdfrwt>
<totfact> 0.20530275E+00</totfact>
</mgrwt>
</event>
<event>
 4    5  0.2409888E-007  0.1251568E+04  0.7818608E-02  0.9108555E-01
          2   -1    0    0  501    0  0.00000000000E+00  0.00000000000E+00  0.33381681481E+04  0.33381681481E+04  0.25500000000E-02 0. -1.
         -2   -1    0    0    0  501 -0.00000000000E+00 -0.00000000000E+00 -0.85913304957E+03  0.85913304957E+03  0.25500000000E-02 0.  1.
    8880023    1    1    2    0    0 -0.19106453045E+03  0.10469505630E+04  0.28068645219E+04  0.30732571950E+04  0.65864270000E+03 0.  0.
    8880022    1    1    2    0    0  0.19106453045E+03 -0.10469505630E+04 -0.32782942334E+03  0.11240440027E+04  0.15294330000E+03 0.  0.
<mgrwt>
<rscale>  0 0.12049266E+04</rscale>
<asrwt>0</asrwt>
<pdfrwt beam="1">  1        2 0.51356433E+00 0.12515676E+04</pdfrwt>
<pdfrwt beam="2">  1       -2 0.13217432E+00 0.12515676E+04</pdfrwt>
<totfact> 0.43082818E-01</totfact>
</mgrwt>
</event>
<event>
 4    5  0.2409888E-007  0.6788887E+03  0.7818608E-02  0.1009959E+00
         -2   -1    0    0    0  501 -0.00000000000E+00  0.00000000000E+00  0.19374119885E+03  0.19374119887E+03  0.25500000000E-02 0.  1.
          2   -1    0    0  501    0  0.00000000000E+00 -0.00000000000E+00 -0.27018956593E+04  0.27018956593E+04  0.25500000000E-02 0. -1.
    8880023    1    1    2    0    0 -0.13291242200E+03 -0.97025394457E+02 -0.25736033207E+04  0.26616393253E+04  0.65864270000E+03 0. -1.
    8880022    1    1    2    0    0  0.13291242200E+03  0.97025394457E+02  0.65448860248E+02  0.23399753293E+03  0.15294330000E+03 0.  0.
<mgrwt>
<rscale>  0 0.51490781E+03</rscale>
<asrwt>0</asrwt>
<pdfrwt beam="1">  1        2 0.41567623E+00 0.67888868E+03</pdfrwt>
<pdfrwt beam="2">  1       -2 0.29806340E-01 0.67888868E+03</pdfrwt>
<totfact> 0.29149845E+01</totfact>
</mgrwt>
</event>
<event>
 4    5  0.2409888E-007  0.7989771E+03  0.7818608E-02  0.9713012E-01
          2   -1    0    0  501    0  0.00000000000E+00  0.00000000000E+00  0.25582078665E+04  0.25582078665E+04  0.25500000000E-02 0. -1.
         -2   -1    0    0    0  501 -0.00000000000E+00 -0.00000000000E+00 -0.17354823386E+03  0.17354823388E+03  0.25500000000E-02 0.  1.
    8880023    1    1    2    0    0 -0.38468044282E+03  0.23785533069E+03  0.18488020733E+04  0.20140589649E+04  0.65864270000E+03 0.  0.
    8880022    1    1    2    0    0  0.38468044282E+03 -0.23785533069E+03  0.53585755930E+03  0.71769713550E+03  0.15294330000E+03 0.  0.
<mgrwt>
<rscale>  0 0.70247312E+03</rscale>
<asrwt>0</asrwt>
<pdfrwt beam="1">  1        2 0.39357044E+00 0.79897710E+03</pdfrwt>
<pdfrwt beam="2">  1       -2 0.26699728E-01 0.79897710E+03</pdfrwt>
<totfact> 0.42425408E+01</totfact>
</mgrwt>
</event>
<event>
 4    5  0.2409888E-007  0.7494370E+03  0.7818608E-02  0.9833264E-01
         -2   -1    0    0    0  501 -0.00000000000E+00  0.00000000000E+00  0.47915625609E+03  0.47915625609E+03  0.25500000000E-02 0.  1.
          2   -1    0    0  501    0  0.00000000000E+00 -0.00000000000E+00 -0.22869446260E+04  0.22869446260E+04  0.25500000000E-02 0. -1.
    8880023    1    1    2    0    0 -0.29924044208E+03  0.19570564349E+03 -0.21319402879E+04  0.22598285640E+04  0.65864270000E+03 0. -1.
    8880022    1    1    2    0    0  0.29924044208E+03 -0.19570564349E+03  0.32415191804E+03  0.50627231808E+03  0.15294330000E+03 0.  0.
<mgrwt>
<rscale>  0 0.63607548E+03</rscale>
<asrwt>0</asrwt>
<pdfrwt beam="1">  1        2 0.35183763E+00 0.74943695E+03</pdfrwt>
<pdfrwt beam="2">  1       -2 0.73716348E-01 0.74943695E+03</pdfrwt>
<totfact> 0.79813415E+00</totfact>
</mgrwt>
</event>
<event>
 4    5  0.2409888E-007  0.1427735E+04  0.7818608E-02  0.8962426E-01
         -2   -1    0    0    0  501 -0.00000000000E+00  0.00000000000E+00  0.21340952465E+04  0.21340952465E+04  0.25500000000E-02 0.  1.
          2   -1    0    0  501    0  0.00000000000E+00 -0.00000000000E+00 -0.11510578660E+04  0.11510578660E+04  0.25500000000E-02 0. -1.
    8880023    1    1    2    0    0 -0.12618072128E+04  0.11161702002E+03  0.13422619706E+04  0.19596155759E+04  0.65864270000E+03 0.  1.
    8880022    1    1    2    0    0  0.12618072128E+04 -0.11161702002E+03 -0.35922459009E+03  0.13255375365E+04  0.15294330000E+03 0.  0.
<mgrwt>
<rscale>  0 0.13881700E+04</rscale>
<asrwt>0</asrwt>
<pdfrwt beam="1">  1        2 0.17708583E+00 0.14277346E+04</pdfrwt>
<pdfrwt beam="2">  1       -2 0.32832234E+00 0.14277346E+04</pdfrwt>
<totfact> 0.41094865E-01</totfact>
</mgrwt>
</event>
<event>
 4    5  0.2409888E-007  0.6639181E+03  0.7818608E-02  0.1020459E+00
          2   -1    0    0  501    0  0.00000000000E+00  0.00000000000E+00  0.11943394923E+04  0.11943394923E+04  0.25500000000E-02 0. -1.
         -2   -1    0    0    0  501 -0.00000000000E+00 -0.00000000000E+00 -0.43382240992E+03  0.43382240993E+03  0.25500000000E-02 0.  1.
    8880023    1    1    2    0    0 -0.95290615554E+01 -0.82983445625E+02  0.10779713668E+04  0.12660211409E+04  0.65864270000E+03 0. -1.
    8880022    1    1    2    0    0  0.95290615554E+01  0.82983445625E+02 -0.31745428446E+03  0.36214076131E+03  0.15294330000E+03 0.  0.
<mgrwt>
<rscale>  0 0.47521395E+03</rscale>
<asrwt>0</asrwt>
<pdfrwt beam="1">  1        2 0.18374454E+00 0.66391811E+03</pdfrwt>
<pdfrwt beam="2">  1       -2 0.66741910E-01 0.66391811E+03</pdfrwt>
<totfact> 0.40438605E+01</totfact>
</mgrwt>
</event>
<event>
 4    5  0.2409888E-007  0.7000829E+03  0.7818608E-02  0.9996857E-01
         -2   -1    0    0    0  501 -0.00000000000E+00  0.00000000000E+00  0.19020809077E+04  0.19020809077E+04  0.25500000000E-02 0.  1.
          2   -1    0    0  501    0  0.00000000000E+00 -0.00000000000E+00 -0.23595961590E+03  0.23595961592E+03  0.25500000000E-02 0. -1.
    8880023    1    1    2    0    0  0.45670994952E+02  0.23285200424E+03  0.33279865600E+03  0.77515872398E+03  0.65864270000E+03 0. -1.
    8880022    1    1    2    0    0 -0.45670994952E+02 -0.23285200424E+03  0.13333226358E+04  0.13628817996E+04  0.15294330000E+03 0.  0.
<mgrwt>
<rscale>  0 0.55788249E+03</rscale>
<asrwt>0</asrwt>
<pdfrwt beam="1">  1        2 0.36301479E-01 0.70008293E+03</pdfrwt>
<pdfrwt beam="2">  1       -2 0.29262783E+00 0.70008293E+03</pdfrwt>
<totfact> 0.52833593E+00</totfact>
</mgrwt>
</event>
<event>
 4    5  0.2409888E-007  0.1201848E+04  0.7818608E-02  0.9155328E-01
         -2   -1    0    0    0  501 -0.00000000000E+00  0.00000000000E+00  0.80647744993E+03  0.80647744993E+03  0.25500000000E-02 0.  1.
          2   -1    0    0  501    0  0.00000000000E+00 -0.00000000000E+00 -0.34339120471E+04  0.34339120471E+04  0.25500000000E-02 0. -1.
    8880023    1    1    2    0    0  0.98765406249E+03 -0.18753347323E+03 -0.29403276862E+04  0.31764707553E+04  0.65864270000E+03 0.  0.
    8880022    1    1    2    0    0 -0.98765406249E+03  0.18753347323E+03  0.31289308908E+03  0.10639187417E+04  0.15294330000E+03 0.  0.
<mgrwt>
<rscale>  0 0.11526659E+04</rscale>
<asrwt>0</asrwt>
<pdfrwt beam="1">  1        2 0.52829415E+00 0.12018484E+04</pdfrwt>
<pdfrwt beam="2">  1       -2 0.12407346E+00 0.12018484E+04</pdfrwt>
<totfact> 0.43950207E-01</totfact>
</mgrwt>
</event>
<event>
 4    5  0.2409888E-007  0.9490642E+03  0.7818608E-02  0.9451462E-01
          2   -1    0    0  501    0  0.00000000000E+00  0.00000000000E+00  0.21901176083E+04  0.21901176083E+04  0.25500000000E-02 0. -1.
         -2   -1    0    0    0  501 -0.00000000000E+00 -0.00000000000E+00 -0.49552838410E+03  0.49552838411E+03  0.25500000000E-02 0.  1.
    8880023    1    1    2    0    0  0.44043009917E+03 -0.52243090318E+03  0.17420736233E+04  0.19838204143E+04  0.65864270000E+03 0. -1.
    8880022    1    1    2    0    0 -0.44043009917E+03  0.52243090318E+03 -0.47484399174E+02  0.70182557807E+03  0.15294330000E+03 0.  0.
<mgrwt>
<rscale>  0 0.87958928E+03</rscale>
<asrwt>0</asrwt>
<pdfrwt beam="1">  1        2 0.33694117E+00 0.94906424E+03</pdfrwt>
<pdfrwt beam="2">  1       -2 0.76235136E-01 0.94906424E+03</pdfrwt>
<totfact> 0.81465704E+00</totfact>
</mgrwt>
</event>
<event>
 4    5  0.2409888E-007  0.6791361E+03  0.7818608E-02  0.1009817E+00
          2   -1    0    0  501    0  0.00000000000E+00  0.00000000000E+00  0.13283274793E+04  0.13283274793E+04  0.25500000000E-02 0. -1.
         -2   -1    0    0    0  501 -0.00000000000E+00 -0.00000000000E+00 -0.51224054679E+03  0.51224054680E+03  0.25500000000E-02 0.  1.
    8880023    1    1    2    0    0 -0.58695718468E+02 -0.15482382723E+03  0.12095186245E+04  0.13871413461E+04  0.65864270000E+03 0. -1.
    8880022    1    1    2    0    0  0.58695718468E+02  0.15482382723E+03 -0.39343169199E+03  0.45342667998E+03  0.15294330000E+03 0.  0.
<mgrwt>
<rscale>  0 0.51547585E+03</rscale>
<asrwt>0</asrwt>
<pdfrwt beam="1">  1        2 0.20435807E+00 0.67913608E+03</pdfrwt>
<pdfrwt beam="2">  1       -2 0.78806240E-01 0.67913608E+03</pdfrwt>
<totfact> 0.23428722E+01</totfact>
</mgrwt>
</event>
<event>
 4    5  0.2409888E-007  0.8217611E+03  0.7818608E-02  0.9665581E-01
         -2   -1    0    0    0  501 -0.00000000000E+00  0.00000000000E+00  0.22040279776E+03  0.22040279778E+03  0.25500000000E-02 0.  1.
          2   -1    0    0  501    0  0.00000000000E+00 -0.00000000000E+00 -0.27520010041E+04  0.27520010041E+04  0.25500000000E-02 0. -1.
    8880023    1    1    2    0    0 -0.28392033652E+03 -0.40108638868E+03 -0.22283622683E+04  0.23750557159E+04  0.65864270000E+03 0. -1.
    8880022    1    1    2    0    0  0.28392033652E+03  0.40108638868E+03 -0.30323593806E+03  0.59734808598E+03  0.15294330000E+03 0.  0.
<mgrwt>
<rscale>  0 0.73103610E+03</rscale>
<asrwt>0</asrwt>
<pdfrwt beam="1">  1        2 0.42338475E+00 0.82176107E+03</pdfrwt>
<pdfrwt beam="2">  1       -2 0.33908125E-01 0.82176107E+03</pdfrwt>
<totfact> 0.20934002E+01</totfact>
</mgrwt>
</event>
<event>
 4    5  0.2409888E-007  0.9157881E+03  0.7818608E-02  0.9501148E-01
          2   -1    0    0  501    0  0.00000000000E+00  0.00000000000E+00  0.29497387426E+04  0.29497387426E+04  0.25500000000E-02 0. -1.
         -2   -1    0    0    0  501 -0.00000000000E+00 -0.00000000000E+00 -0.63949564696E+03  0.63949564696E+03  0.25500000000E-02 0.  1.
    8880023    1    1    2    0    0 -0.39915440519E+03  0.49551322441E+03  0.26837779644E+04  0.28357242397E+04  0.65864270000E+03 0. -1.
    8880022    1    1    2    0    0  0.39915440519E+03 -0.49551322441E+03 -0.37353486881E+03  0.75351014989E+03  0.15294330000E+03 0.  0.
<mgrwt>
<rscale>  0 0.84199268E+03</rscale>
<asrwt>0</asrwt>
<pdfrwt beam="1">  1        2 0.45380596E+00 0.91578808E+03</pdfrwt>
<pdfrwt beam="2">  1       -2 0.98383946E-01 0.91578808E+03</pdfrwt>
<totfact> 0.16591302E+00</totfact>
</mgrwt>
</event>
<event>
 4    5  0.2409888E-007  0.6996315E+03  0.7818608E-02  0.9998733E-01
          2   -1    0    0  501    0  0.00000000000E+00  0.00000000000E+00  0.16007717913E+04  0.16007717913E+04  0.25500000000E-02 0. -1.
         -2   -1    0    0    0  501 -0.00000000000E+00 -0.00000000000E+00 -0.33948209365E+03  0.33948209366E+03  0.25500000000E-02 0.  1.
    8880023    1    1    2    0    0  0.82232161499E+02 -0.22116025493E+03  0.14442476513E+04  0.16047851792E+04  0.65864270000E+03 0. -1.
    8880022    1    1    2    0    0 -0.82232161499E+02  0.22116025493E+03 -0.18295795365E+03  0.33546870579E+03  0.15294330000E+03 0.  0.
<mgrwt>
<rscale>  0 0.55705808E+03</rscale>
<asrwt>0</asrwt>
<pdfrwt beam="1">  1        2 0.24627259E+00 0.69963147E+03</pdfrwt>
<pdfrwt beam="2">  1       -2 0.52228013E-01 0.69963147E+03</pdfrwt>
<totfact> 0.39715290E+01</totfact>
</mgrwt>
</event>
<event>
 4    5  0.3126789E-007  0.1224681E+04  0.7818608E-02  0.9133497E-01
         -2   -1    0    0    0  501 -0.00000000000E+00  0.00000000000E+00  0.15625889904E+04  0.15625889904E+04  0.25500000000E-02 0.  1.
          2   -1    0    0  501    0  0.00000000000E+00 -0.00000000000E+00 -0.25953630886E+04  0.25953630886E+04  0.25500000000E-02 0. -1.
    8880023    1    1    2    0    0  0.61512255434E+03 -0.82925070534E+03 -0.22455956978E+04  0.25578394659E+04  0.65864270000E+03 0.  0.
    8880022    1    1    2    0    0 -0.61512255434E+03  0.82925070534E+03  0.12128215995E+04  0.16001126131E+04  0.15294330000E+03 0.  0.
<mgrwt>
<rscale>  0 0.11767027E+04</rscale>
<asrwt>0</asrwt>
<pdfrwt beam="1">  1        2 0.39928663E+00 0.12246807E+04</pdfrwt>
<pdfrwt beam="2">  1       -2 0.24039831E+00 0.12246807E+04</pdfrwt>
<totfact> 0.21976181E-01</totfact>
</mgrwt>
</event>
<event>
 4    5  0.2409888E-007  0.8923436E+03  0.7818608E-02  0.9538436E-01
         -2   -1    0    0    0  501 -0.00000000000E+00  0.00000000000E+00  0.59322661136E+03  0.59322661137E+03  0.25500000000E-02 0.  1.
          2   -1    0    0  501    0  0.00000000000E+00 -0.00000000000E+00 -0.22940896845E+04  0.22940896845E+04  0.25500000000E-02 0. -1.
    8880023    1    1    2    0    0 -0.45493984650E+03 -0.39433057192E+03 -0.20057937876E+04  0.21953327284E+04  0.65864270000E+03 0.  0.
    8880022    1    1    2    0    0  0.45493984650E+03  0.39433057192E+03  0.30493071451E+03  0.69198356740E+03  0.15294330000E+03 0.  0.
<mgrwt>
<rscale>  0 0.81508442E+03</rscale>
<asrwt>0</asrwt>
<pdfrwt beam="1">  1        2 0.35293687E+00 0.89234358E+03</pdfrwt>
<pdfrwt beam="2">  1       -2 0.91265634E-01 0.89234358E+03</pdfrwt>
<totfact> 0.47706632E+00</totfact>
</mgrwt>
</event>
<event>
 4    5  0.2409888E-007  0.9544491E+03  0.7818608E-02  0.9443742E-01
         -2   -1    0    0    0  501 -0.00000000000E+00  0.00000000000E+00  0.10762435753E+04  0.10762435753E+04  0.25500000000E-02 0.  1.
          2   -1    0    0  501    0  0.00000000000E+00 -0.00000000000E+00 -0.13376019824E+04  0.13376019824E+04  0.25500000000E-02 0. -1.
    8880023    1    1    2    0    0 -0.24956139800E+03 -0.64411326322E+03 -0.10059761866E+04  0.13867087227E+04  0.65864270000E+03 0.  0.
    8880022    1    1    2    0    0  0.24956139800E+03  0.64411326322E+03  0.74461777950E+03  0.10271368350E+04  0.15294330000E+03 0.  0.
<mgrwt>
<rscale>  0 0.88561707E+03</rscale>
<asrwt>0</asrwt>
<pdfrwt beam="1">  1        2 0.20578492E+00 0.95444905E+03</pdfrwt>
<pdfrwt beam="2">  1       -2 0.16557594E+00 0.95444905E+03</pdfrwt>
<totfact> 0.35936362E+00</totfact>
</mgrwt>
</event>
<event>
 4    5  0.2409888E-007  0.1277102E+04  0.7818608E-02  0.9085590E-01
          2   -1    0    0  501    0  0.00000000000E+00  0.00000000000E+00  0.37945639499E+04  0.37945639499E+04  0.25500000000E-02 0. -1.
         -2   -1    0    0    0  501 -0.00000000000E+00 -0.00000000000E+00 -0.68531184764E+03  0.68531184765E+03  0.25500000000E-02 0.  1.
    8880023    1    1    2    0    0 -0.80626127847E+03  0.73967742260E+03  0.31240222550E+04  0.33749822511E+04  0.65864270000E+03 0.  0.
    8880022    1    1    2    0    0  0.80626127847E+03 -0.73967742260E+03 -0.14770152781E+02  0.11048935465E+04  0.15294330000E+03 0.  0.
<mgrwt>
<rscale>  0 0.12316567E+04</rscale>
<asrwt>0</asrwt>
<pdfrwt beam="1">  1        2 0.58377906E+00 0.12771022E+04</pdfrwt>
<pdfrwt beam="2">  1       -2 0.10543259E+00 0.12771022E+04</pdfrwt>
<totfact> 0.35909686E-01</totfact>
</mgrwt>
</event>
<event>
 4    5  0.2409888E-007  0.7534399E+03  0.7818608E-02  0.9822397E-01
         -2   -1    0    0    0  501 -0.00000000000E+00  0.00000000000E+00  0.56853401821E+03  0.56853401822E+03  0.25500000000E-02 0.  1.
          2   -1    0    0  501    0  0.00000000000E+00 -0.00000000000E+00 -0.12017220672E+04  0.12017220672E+04  0.25500000000E-02 0. -1.
    8880023    1    1    2    0    0 -0.20786571651E+03  0.30108696753E+03 -0.98501282812E+03  0.12401298303E+04  0.65864270000E+03 0. -1.
    8880022    1    1    2    0    0  0.20786571651E+03 -0.30108696753E+03  0.35182477916E+03  0.53012625512E+03  0.15294330000E+03 0.  0.
<mgrwt>
<rscale>  0 0.64174338E+03</rscale>
<asrwt>0</asrwt>
<pdfrwt beam="1">  1        2 0.18488032E+00 0.75343993E+03</pdfrwt>
<pdfrwt beam="2">  1       -2 0.87466772E-01 0.75343993E+03</pdfrwt>
<totfact> 0.21724164E+01</totfact>
</mgrwt>
</event>
<event>
 4    5  0.2409888E-007  0.7282621E+03  0.7818608E-02  0.9895561E-01
         -2   -1    0    0    0  501 -0.00000000000E+00  0.00000000000E+00  0.18103561319E+03  0.18103561320E+03  0.25500000000E-02 0.  1.
          2   -1    0    0  501    0  0.00000000000E+00 -0.00000000000E+00 -0.22991813112E+04  0.22991813112E+04  0.25500000000E-02 0. -1.
    8880023    1    1    2    0    0  0.25302153939E+03  0.18037638601E+03 -0.19758517160E+04  0.21057910034E+04  0.65864270000E+03 0. -1.
    8880022    1    1    2    0    0 -0.25302153939E+03 -0.18037638601E+03 -0.14229398206E+03  0.37442592107E+03  0.15294330000E+03 0.  0.
<mgrwt>
<rscale>  0 0.60476906E+03</rscale>
<asrwt>0</asrwt>
<pdfrwt beam="1">  1        2 0.35372018E+00 0.72826214E+03</pdfrwt>
<pdfrwt beam="2">  1       -2 0.27851634E-01 0.72826214E+03</pdfrwt>
<totfact> 0.55446157E+01</totfact>
</mgrwt>
</event>
<event>
 4    5  0.2409888E-007  0.9132518E+03  0.7818608E-02  0.9505085E-01
          2   -1    0    0  501    0  0.00000000000E+00  0.00000000000E+00  0.16265030655E+04  0.16265030655E+04  0.25500000000E-02 0. -1.
         -2   -1    0    0    0  501 -0.00000000000E+00 -0.00000000000E+00 -0.78612976713E+03  0.78612976714E+03  0.25500000000E-02 0.  1.
    8880023    1    1    2    0    0 -0.31275252566E+03  0.54991311310E+03  0.13193072443E+04  0.16045561335E+04  0.65864270000E+03 0. -1.
    8880022    1    1    2    0    0  0.31275252566E+03 -0.54991311310E+03 -0.47893394591E+03  0.80807669922E+03  0.15294330000E+03 0.  0.
<mgrwt>
<rscale>  0 0.83909995E+03</rscale>
<asrwt>0</asrwt>
<pdfrwt beam="1">  1        2 0.25023124E+00 0.91325176E+03</pdfrwt>
<pdfrwt beam="2">  1       -2 0.12094304E+00 0.91325176E+03</pdfrwt>
<totfact> 0.56410735E+00</totfact>
</mgrwt>
</event>
<event>
 4    5  0.2409888E-007  0.6654270E+03  0.7818608E-02  0.1019178E+00
         -2   -1    0    0    0  501 -0.00000000000E+00  0.00000000000E+00  0.60888211870E+03  0.60888211870E+03  0.25500000000E-02 0.  1.
          2   -1    0    0  501    0  0.00000000000E+00 -0.00000000000E+00 -0.64205232591E+03  0.64205232592E+03  0.25500000000E-02 0. -1.
    8880023    1    1    2    0    0 -0.36321073150E+02  0.87542046260E+02 -0.44568136064E+03  0.80089007467E+03  0.65864270000E+03 0. -1.
    8880022    1    1    2    0    0  0.36321073150E+02 -0.87542046260E+02  0.41251115342E+03  0.45004436996E+03  0.15294330000E+03 0.  0.
<mgrwt>
<rscale>  0 0.47984464E+03</rscale>
<asrwt>0</asrwt>
<pdfrwt beam="1">  1        2 0.98777280E-01 0.66542696E+03</pdfrwt>
<pdfrwt beam="2">  1       -2 0.93674173E-01 0.66542696E+03</pdfrwt>
<totfact> 0.44824198E+01</totfact>
</mgrwt>
</event>
<event>
 4    5  0.2409888E-007  0.8643814E+03  0.7818608E-02  0.9585817E-01
          2   -1    0    0  501    0  0.00000000000E+00  0.00000000000E+00  0.15900646101E+04  0.15900646102E+04  0.25500000000E-02 0. -1.
         -2   -1    0    0    0  501 -0.00000000000E+00 -0.00000000000E+00 -0.51111569244E+03  0.51111569245E+03  0.25500000000E-02 0.  1.
    8880023    1    1    2    0    0  0.13627822814E+03 -0.54293023368E+03  0.12283200740E+04  0.15019738361E+04  0.65864270000E+03 0.  0.
    8880022    1    1    2    0    0 -0.13627822814E+03  0.54293023368E+03 -0.14937115624E+03  0.59920646646E+03  0.15294330000E+03 0.  0.
<mgrwt>
<rscale>  0 0.78242075E+03</rscale>
<asrwt>0</asrwt>
<pdfrwt beam="1">  1        2 0.24462532E+00 0.86438140E+03</pdfrwt>
<pdfrwt beam="2">  1       -2 0.78633184E-01 0.86438140E+03</pdfrwt>
<totfact> 0.16423778E+01</totfact>
</mgrwt>
</event>
<event>
 4    5  0.2409888E-007  0.7744134E+03  0.7818608E-02  0.9769128E-01
          2   -1    0    0  501    0  0.00000000000E+00  0.00000000000E+00  0.97575287674E+03  0.97575287674E+03  0.25500000000E-02 0. -1.
         -2   -1    0    0    0  501 -0.00000000000E+00 -0.00000000000E+00 -0.12826821035E+04  0.12826821035E+04  0.25500000000E-02 0.  1.
    8880023    1    1    2    0    0 -0.14727239411E+03 -0.37975875291E+03  0.77298129400E+03  0.10941737319E+04  0.65864270000E+03 0. -1.
    8880022    1    1    2    0    0  0.14727239411E+03  0.37975875291E+03 -0.10799105208E+04  0.11642612483E+04  0.15294330000E+03 0.  0.
<mgrwt>
<rscale>  0 0.67045981E+03</rscale>
<asrwt>0</asrwt>
<pdfrwt beam="1">  1        2 0.15011583E+00 0.77441337E+03</pdfrwt>
<pdfrwt beam="2">  1       -2 0.19733571E+00 0.77441337E+03</pdfrwt>
<totfact> 0.36887207E+00</totfact>
</mgrwt>
</event>
<event>
 4    5  0.2409888E-007  0.1001473E+04  0.7818608E-02  0.9379633E-01
         -2   -1    0    0    0  501 -0.00000000000E+00  0.00000000000E+00  0.93423191855E+03  0.93423191855E+03  0.25500000000E-02 0.  1.
          2   -1    0    0  501    0  0.00000000000E+00 -0.00000000000E+00 -0.19864767674E+04  0.19864767674E+04  0.25500000000E-02 0. -1.
    8880023    1    1    2    0    0  0.75350822549E+03 -0.36928648592E+02  0.55042423075E+03  0.11427665602E+04  0.65864270000E+03 0.  0.
    8880022    1    1    2    0    0 -0.75350822549E+03  0.36928648592E+02 -0.16026690796E+04  0.17779421258E+04  0.15294330000E+03 0.  0.
<mgrwt>
<rscale>  0 0.93770946E+03</rscale>
<asrwt>0</asrwt>
<pdfrwt beam="1">  1        2 0.30561181E+00 0.10014732E+04</pdfrwt>
<pdfrwt beam="2">  1       -2 0.14372799E+00 0.10014732E+04</pdfrwt>
<totfact> 0.22740056E+00</totfact>
</mgrwt>
</event>
<event>
 4    5  0.2409888E-007  0.1018132E+04  0.7818608E-02  0.9358211E-01
         -2   -1    0    0    0  501 -0.00000000000E+00  0.00000000000E+00  0.43016599404E+03  0.43016599405E+03  0.25500000000E-02 0.  1.
          2   -1    0    0  501    0  0.00000000000E+00 -0.00000000000E+00 -0.28270627655E+04  0.28270627655E+04  0.25500000000E-02 0. -1.
    8880023    1    1    2    0    0  0.74954363286E+03 -0.20240128624E+03 -0.22258357763E+04  0.24476390762E+04  0.65864270000E+03 0. -1.
    8880022    1    1    2    0    0 -0.74954363286E+03  0.20240128624E+03 -0.17106099516E+03  0.80958968331E+03  0.15294330000E+03 0.  0.
<mgrwt>
<rscale>  0 0.95596020E+03</rscale>
<asrwt>0</asrwt>
<pdfrwt beam="1">  1        2 0.43493272E+00 0.10181317E+04</pdfrwt>
<pdfrwt beam="2">  1       -2 0.66179386E-01 0.10181317E+04</pdfrwt>
<totfact> 0.47492777E+00</totfact>
</mgrwt>
</event>
<event>
 4    5  0.2409888E-007  0.1120929E+04  0.7818608E-02  0.9238104E-01
          2   -1    0    0  501    0  0.00000000000E+00  0.00000000000E+00  0.12058551259E+04  0.12058551259E+04  0.25500000000E-02 0. -1.
         -2   -1    0    0    0  501 -0.00000000000E+00 -0.00000000000E+00 -0.21430097231E+04  0.21430097231E+04  0.25500000000E-02 0.  1.
    8880023    1    1    2    0    0 -0.81952898367E+03 -0.38864457529E+03  0.80415372844E+03  0.13795454999E+04  0.65864270000E+03 0.  0.
    8880022    1    1    2    0    0  0.81952898367E+03  0.38864457529E+03 -0.17413083257E+04  0.19693193492E+04  0.15294330000E+03 0.  0.
<mgrwt>
<rscale>  0 0.10668640E+04</rscale>
<asrwt>0</asrwt>
<pdfrwt beam="1">  1        2 0.18551617E+00 0.11209293E+04</pdfrwt>
<pdfrwt beam="2">  1       -2 0.32969380E+00 0.11209293E+04</pdfrwt>
<totfact> 0.38787637E-01</totfact>
</mgrwt>
</event>
<event>
 4    5  0.2409888E-007  0.1895526E+04  0.7818608E-02  0.8671458E-01
         -2   -1    0    0    0  501 -0.00000000000E+00  0.00000000000E+00  0.10630177410E+04  0.10630177410E+04  0.25500000000E-02 0.  1.
          2   -1    0    0  501    0  0.00000000000E+00 -0.00000000000E+00 -0.37414779915E+04  0.37414779915E+04  0.25500000000E-02 0. -1.
    8880023    1    1    2    0    0 -0.11968135131E+04 -0.13140947289E+04 -0.23006561870E+04  0.29809455947E+04  0.65864270000E+03 0.  0.
    8880022    1    1    2    0    0  0.11968135131E+04  0.13140947289E+04 -0.37780406345E+03  0.18235501378E+04  0.15294330000E+03 0.  0.
<mgrwt>
<rscale>  0 0.18670030E+04</rscale>
<asrwt>0</asrwt>
<pdfrwt beam="1">  1        2 0.57561199E+00 0.18955257E+04</pdfrwt>
<pdfrwt beam="2">  1       -2 0.16354119E+00 0.18955257E+04</pdfrwt>
<totfact> 0.11747249E-01</totfact>
</mgrwt>
</event>
<event>
 4    5  0.2409888E-007  0.8043198E+03  0.7818608E-02  0.9701532E-01
          2   -1    0    0  501    0  0.00000000000E+00  0.00000000000E+00  0.13425455081E+04  0.13425455081E+04  0.25500000000E-02 0. -1.
         -2   -1    0    0    0  501 -0.00000000000E+00 -0.00000000000E+00 -0.41605837143E+03  0.41605837143E+03  0.25500000000E-02 0.  1.
    8880023    1    1    2    0    0 -0.28426967079E+03  0.36374562485E+03  0.98173960525E+03  0.12691504970E+04  0.65864270000E+03 0.  0.
    8880022    1    1    2    0    0  0.28426967079E+03 -0.36374562485E+03 -0.55252468598E+02  0.48945338249E+03  0.15294330000E+03 0.  0.
<mgrwt>
<rscale>  0 0.70925624E+03</rscale>
<asrwt>0</asrwt>
<pdfrwt beam="1">  1        2 0.20654546E+00 0.80431979E+03</pdfrwt>
<pdfrwt beam="2">  1       -2 0.64008981E-01 0.80431979E+03</pdfrwt>
<totfact> 0.35757504E+01</totfact>
</mgrwt>
</event>
<event>
 4    5  0.2409888E-007  0.7317454E+03  0.7818608E-02  0.9884679E-01
          2   -1    0    0  501    0  0.00000000000E+00  0.00000000000E+00  0.16887939460E+04  0.16887939460E+04  0.25500000000E-02 0. -1.
         -2   -1    0    0    0  501 -0.00000000000E+00 -0.00000000000E+00 -0.37845751533E+03  0.37845751534E+03  0.25500000000E-02 0.  1.
    8880023    1    1    2    0    0 -0.83670803222E+02 -0.30763664480E+03  0.14978308600E+04  0.16670178763E+04  0.65864270000E+03 0. -1.
    8880022    1    1    2    0    0  0.83670803222E+02  0.30763664480E+03 -0.18749442932E+03  0.40023358502E+03  0.15294330000E+03 0.  0.
<mgrwt>
<rscale>  0 0.61009571E+03</rscale>
<asrwt>0</asrwt>
<pdfrwt beam="1">  1        2 0.25981446E+00 0.73174539E+03</pdfrwt>
<pdfrwt beam="2">  1       -2 0.58224231E-01 0.73174539E+03</pdfrwt>
<totfact> 0.28251160E+01</totfact>
</mgrwt>
</event>
<event>
 4    5  0.2409888E-007  0.1115644E+04  0.7818608E-02  0.9243835E-01
          2   -1    0    0  501    0  0.00000000000E+00  0.00000000000E+00  0.10183837241E+04  0.10183837241E+04  0.25500000000E-02 0. -1.
         -2   -1    0    0    0  501 -0.00000000000E+00 -0.00000000000E+00 -0.12813906240E+04  0.12813906240E+04  0.25500000000E-02 0.  1.
    8880023    1    1    2    0    0  0.57391307255E+03  0.69388413166E+03  0.38464306083E+03  0.11800897820E+04  0.65864270000E+03 0.  0.
    8880022    1    1    2    0    0 -0.57391307255E+03 -0.69388413166E+03 -0.64764996075E+03  0.11196845662E+04  0.15294330000E+03 0.  0.
<mgrwt>
<rscale>  0 0.10612209E+04</rscale>
<asrwt>0</asrwt>
<pdfrwt beam="1">  1        2 0.15667442E+00 0.11156440E+04</pdfrwt>
<pdfrwt beam="2">  1       -2 0.19713702E+00 0.11156440E+04</pdfrwt>
<totfact> 0.33378767E+00</totfact>
</mgrwt>
</event>
<event>
 4    5  0.2409888E-007  0.7757536E+03  0.7818608E-02  0.9765908E-01
          2   -1    0    0  501    0  0.00000000000E+00  0.00000000000E+00  0.19444862145E+04  0.19444862145E+04  0.25500000000E-02 0. -1.
         -2   -1    0    0    0  501 -0.00000000000E+00 -0.00000000000E+00 -0.50536499257E+03  0.50536499257E+03  0.25500000000E-02 0.  1.
    8880023    1    1    2    0    0 -0.99206437146E+02 -0.39767004485E+03  0.17492908169E+04  0.19135861491E+04  0.65864270000E+03 0. -1.
    8880022    1    1    2    0    0  0.99206437146E+02  0.39767004485E+03 -0.31016959495E+03  0.53626505796E+03  0.15294330000E+03 0.  0.
<mgrwt>
<rscale>  0 0.67224641E+03</rscale>
<asrwt>0</asrwt>
<pdfrwt beam="1">  1        2 0.29915173E+00 0.77575356E+03</pdfrwt>
<pdfrwt beam="2">  1       -2 0.77748460E-01 0.77575356E+03</pdfrwt>
<totfact> 0.10890194E+01</totfact>
</mgrwt>
</event>
<event>
 4    5  0.2409888E-007  0.6821190E+03  0.7818608E-02  0.1008150E+00
         -2   -1    0    0    0  501 -0.00000000000E+00  0.00000000000E+00  0.36652936828E+03  0.36652936829E+03  0.25500000000E-02 0.  1.
          2   -1    0    0  501    0  0.00000000000E+00 -0.00000000000E+00 -0.21904907524E+04  0.21904907525E+04  0.25500000000E-02 0. -1.
    8880023    1    1    2    0    0  0.14195214837E+03  0.10642240513E+03 -0.20923846126E+04  0.22007634389E+04  0.65864270000E+03 0. -1.
    8880022    1    1    2    0    0 -0.14195214837E+03 -0.10642240513E+03  0.26842322845E+03  0.35625668180E+03  0.15294330000E+03 0.  0.
<mgrwt>
<rscale>  0 0.52216746E+03</rscale>
<asrwt>0</asrwt>
<pdfrwt beam="1">  1        2 0.33699857E+00 0.68211901E+03</pdfrwt>
<pdfrwt beam="2">  1       -2 0.56389135E-01 0.68211901E+03</pdfrwt>
<totfact> 0.16202344E+01</totfact>
</mgrwt>
</event>
<event>
 4    5  0.2409888E-007  0.1008378E+04  0.7818608E-02  0.9370678E-01
          2   -1    0    0  501    0  0.00000000000E+00  0.00000000000E+00  0.16354500411E+04  0.16354500411E+04  0.25500000000E-02 0. -1.
         -2   -1    0    0    0  501 -0.00000000000E+00 -0.00000000000E+00 -0.78541645309E+03  0.78541645309E+03  0.25500000000E-02 0.  1.
    8880023    1    1    2    0    0  0.14489427046E+02 -0.76341674636E+03  0.11997393066E+04  0.15672267488E+04  0.65864270000E+03 0. -1.
    8880022    1    1    2    0    0 -0.14489427046E+02  0.76341674636E+03 -0.34970571866E+03  0.85363974532E+03  0.15294330000E+03 0.  0.
<mgrwt>
<rscale>  0 0.94528524E+03</rscale>
<asrwt>0</asrwt>
<pdfrwt beam="1">  1        2 0.25160770E+00 0.10083775E+04</pdfrwt>
<pdfrwt beam="2">  1       -2 0.12083330E+00 0.10083775E+04</pdfrwt>
<totfact> 0.55277814E+00</totfact>
</mgrwt>
</event>
<event>
 4    5  0.2409888E-007  0.1032295E+04  0.7818608E-02  0.9340475E-01
          2   -1    0    0  501    0  0.00000000000E+00  0.00000000000E+00  0.11081848834E+04  0.11081848834E+04  0.25500000000E-02 0. -1.
         -2   -1    0    0    0  501 -0.00000000000E+00 -0.00000000000E+00 -0.86844849581E+03  0.86844849582E+03  0.25500000000E-02 0.  1.
    8880023    1    1    2    0    0  0.33257334445E+03 -0.72195380846E+03  0.47117845308E+03  0.11347429982E+04  0.65864270000E+03 0.  0.
    8880022    1    1    2    0    0 -0.33257334445E+03  0.72195380846E+03 -0.23144206550E+03  0.84189038104E+03  0.15294330000E+03 0.  0.
<mgrwt>
<rscale>  0 0.97140581E+03</rscale>
<asrwt>0</asrwt>
<pdfrwt beam="1">  1        2 0.17048998E+00 0.10322948E+04</pdfrwt>
<pdfrwt beam="2">  1       -2 0.13360746E+00 0.10322948E+04</pdfrwt>
<totfact> 0.86264229E+00</totfact>
</mgrwt>
</event>
<event>
 4    5  0.2409888E-007  0.9786431E+03  0.7818608E-02  0.9410048E-01
          2   -1    0    0  501    0  0.00000000000E+00  0.00000000000E+00  0.13179829324E+04  0.13179829324E+04  0.25500000000E-02 0. -1.
         -2   -1    0    0    0  501 -0.00000000000E+00 -0.00000000000E+00 -0.13320248704E+04  0.13320248704E+04  0.25500000000E-02 0.  1.
    8880023    1    1    2    0    0 -0.69896944901E+03  0.18807940595E+03  0.99709743196E+03  0.13971204847E+04  0.65864270000E+03 0.  0.
    8880022    1    1    2    0    0  0.69896944901E+03 -0.18807940595E+03 -0.10111393699E+04  0.12528873182E+04  0.15294330000E+03 0.  0.
<mgrwt>
<rscale>  0 0.91253347E+03</rscale>
<asrwt>0</asrwt>
<pdfrwt beam="1">  1        2 0.20276660E+00 0.97864312E+03</pdfrwt>
<pdfrwt beam="2">  1       -2 0.20492690E+00 0.97864312E+03</pdfrwt>
<totfact> 0.19842087E+00</totfact>
</mgrwt>
</event>
<event>
 4    5  0.2409888E-007  0.8277958E+03  0.7818608E-02  0.9653636E-01
          2   -1    0    0  501    0  0.00000000000E+00  0.00000000000E+00  0.91158121974E+03  0.91158121975E+03  0.25500000000E-02 0. -1.
         -2   -1    0    0    0  501 -0.00000000000E+00 -0.00000000000E+00 -0.96574914991E+03  0.96574914991E+03  0.25500000000E-02 0.  1.
    8880023    1    1    2    0    0 -0.52608550449E+02 -0.49866621662E+03  0.61211771590E+03  0.10295309415E+04  0.65864270000E+03 0. -1.
    8880022    1    1    2    0    0  0.52608550449E+02  0.49866621662E+03 -0.66628564606E+03  0.84779942813E+03  0.15294330000E+03 0.  0.
<mgrwt>
<rscale>  0 0.73845646E+03</rscale>
<asrwt>0</asrwt>
<pdfrwt beam="1">  1        2 0.14024326E+00 0.82779578E+03</pdfrwt>
<pdfrwt beam="2">  1       -2 0.14857679E+00 0.82779578E+03</pdfrwt>
<totfact> 0.89230739E+00</totfact>
</mgrwt>
</event>
<event>
 4    5  0.2409888E-007  0.8066064E+03  0.7818608E-02  0.9696690E-01
         -2   -1    0    0    0  501 -0.00000000000E+00  0.00000000000E+00  0.14465471608E+04  0.14465471608E+04  0.25500000000E-02 0.  1.
          2   -1    0    0  501    0  0.00000000000E+00 -0.00000000000E+00 -0.78768438800E+03  0.78768438801E+03  0.25500000000E-02 0. -1.
    8880023    1    1    2    0    0  0.86876872917E+02 -0.45744520582E+03 -0.51853643578E+03  0.95890247099E+03  0.65864270000E+03 0. -1.
    8880022    1    1    2    0    0 -0.86876872917E+02  0.45744520582E+03  0.11773992086E+04  0.12753290778E+04  0.15294330000E+03 0.  0.
<mgrwt>
<rscale>  0 0.71214238E+03</rscale>
<asrwt>0</asrwt>
<pdfrwt beam="1">  1        2 0.12118221E+00 0.80660642E+03</pdfrwt>
<pdfrwt beam="2">  1       -2 0.22254572E+00 0.80660642E+03</pdfrwt>
<totfact> 0.34084111E+00</totfact>
</mgrwt>
</event>
<event>
 4    5  0.2409888E-007  0.7454952E+03  0.7818608E-02  0.9844220E-01
         -2   -1    0    0    0  501 -0.00000000000E+00  0.00000000000E+00  0.34328663832E+03  0.34328663833E+03  0.25500000000E-02 0.  1.
          2   -1    0    0  501    0  0.00000000000E+00 -0.00000000000E+00 -0.22828506169E+04  0.22828506169E+04  0.25500000000E-02 0. -1.
    8880023    1    1    2    0    0  0.30370381586E+03  0.17238597652E+03 -0.20879421918E+04  0.22170398587E+04  0.65864270000E+03 0. -1.
    8880022    1    1    2    0    0 -0.30370381586E+03 -0.17238597652E+03  0.14837821319E+03  0.40909739651E+03  0.15294330000E+03 0.  0.
<mgrwt>
<rscale>  0 0.63042512E+03</rscale>
<asrwt>0</asrwt>
<pdfrwt beam="1">  1        2 0.35120778E+00 0.74549523E+03</pdfrwt>
<pdfrwt beam="2">  1       -2 0.52813331E-01 0.74549523E+03</pdfrwt>
<totfact> 0.16337120E+01</totfact>
</mgrwt>
</event>
<event>
 4    5  0.2409888E-007  0.1327569E+04  0.7818608E-02  0.9042110E-01
         -2   -1    0    0    0  501 -0.00000000000E+00  0.00000000000E+00  0.11864131468E+04  0.11864131468E+04  0.25500000000E-02 0.  1.
          2   -1    0    0  501    0  0.00000000000E+00 -0.00000000000E+00 -0.24615140897E+04  0.24615140897E+04  0.25500000000E-02 0. -1.
    8880023    1    1    2    0    0 -0.97045604364E+03 -0.62196853927E+03  0.58783855596E+03  0.14518933055E+04  0.65864270000E+03 0.  1.
    8880022    1    1    2    0    0  0.97045604364E+03  0.62196853927E+03 -0.18629394989E+04  0.21960339310E+04  0.15294330000E+03 0.  0.
<mgrwt>
<rscale>  0 0.12842981E+04</rscale>
<asrwt>0</asrwt>
<pdfrwt beam="1">  1        2 0.37869448E+00 0.13275692E+04</pdfrwt>
<pdfrwt beam="2">  1       -2 0.18252510E+00 0.13275692E+04</pdfrwt>
<totfact> 0.61264333E-01</totfact>
</mgrwt>
</event>
<event>
 4    5  0.2409888E-007  0.1034201E+04  0.7818608E-02  0.9338119E-01
         -2   -1    0    0    0  501 -0.00000000000E+00  0.00000000000E+00  0.13993122503E+04  0.13993122503E+04  0.25500000000E-02 0.  1.
          2   -1    0    0  501    0  0.00000000000E+00 -0.00000000000E+00 -0.91912311545E+03  0.91912311545E+03  0.25500000000E-02 0. -1.
    8880023    1    1    2    0    0 -0.41054129890E+03 -0.68353350367E+03 -0.41100037025E+03  0.11128763271E+04  0.65864270000E+03 0.  0.
    8880022    1    1    2    0    0  0.41054129890E+03  0.68353350367E+03  0.89118950510E+03  0.12055590387E+04  0.15294330000E+03 0.  0.
<mgrwt>
<rscale>  0 0.97348031E+03</rscale>
<asrwt>0</asrwt>
<pdfrwt beam="1">  1        2 0.14140356E+00 0.10342013E+04</pdfrwt>
<pdfrwt beam="2">  1       -2 0.21527881E+00 0.10342013E+04</pdfrwt>
<totfact> 0.29837669E+00</totfact>
</mgrwt>
</event>
<event>
 4    5  0.2409888E-007  0.1018105E+04  0.7818608E-02  0.9358245E-01
          2   -1    0    0  501    0  0.00000000000E+00  0.00000000000E+00  0.15182604646E+04  0.15182604646E+04  0.25500000000E-02 0. -1.
         -2   -1    0    0    0  501 -0.00000000000E+00 -0.00000000000E+00 -0.71053283714E+03  0.71053283715E+03  0.25500000000E-02 0.  1.
    8880023    1    1    2    0    0  0.29507210422E+03  0.71809507981E+03  0.98641955776E+03  0.14175901525E+04  0.65864270000E+03 0.  0.
    8880022    1    1    2    0    0 -0.29507210422E+03 -0.71809507981E+03 -0.17869193030E+03  0.81120314922E+03  0.15294330000E+03 0.  0.
<mgrwt>
<rscale>  0 0.95593130E+03</rscale>
<asrwt>0</asrwt>
<pdfrwt beam="1">  1        2 0.23357853E+00 0.10181052E+04</pdfrwt>
<pdfrwt beam="2">  1       -2 0.10931274E+00 0.10181052E+04</pdfrwt>
<totfact> 0.82114796E+00</totfact>
</mgrwt>
</event>
<event>
 4    5  0.2409888E-007  0.1193465E+04  0.7818608E-02  0.9163501E-01
          2   -1    0    0  501    0  0.00000000000E+00  0.00000000000E+00  0.41032759364E+04  0.41032759364E+04  0.25500000000E-02 0. -1.
         -2   -1    0    0    0  501 -0.00000000000E+00 -0.00000000000E+00 -0.76061133367E+03  0.76061133368E+03  0.25500000000E-02 0.  1.
    8880023    1    1    2    0    0 -0.97714250981E+03  0.18905123059E+03  0.36263921096E+04  0.38177320219E+04  0.65864270000E+03 0. -1.
    8880022    1    1    2    0    0  0.97714250981E+03 -0.18905123059E+03 -0.28372750681E+03  0.10461552482E+04  0.15294330000E+03 0.  0.
<mgrwt>
<rscale>  0 0.11438227E+04</rscale>
<asrwt>0</asrwt>
<pdfrwt beam="1">  1        2 0.63127324E+00 0.11934647E+04</pdfrwt>
<pdfrwt beam="2">  1       -2 0.11701712E+00 0.11934647E+04</pdfrwt>
<totfact> 0.16137202E-01</totfact>
</mgrwt>
</event>
<event>
 4    5  0.2409888E-007  0.9887068E+03  0.7818608E-02  0.9396484E-01
          2   -1    0    0  501    0  0.00000000000E+00  0.00000000000E+00  0.17981588358E+04  0.17981588358E+04  0.25500000000E-02 0. -1.
         -2   -1    0    0    0  501 -0.00000000000E+00 -0.00000000000E+00 -0.57851561099E+03  0.57851561099E+03  0.25500000000E-02 0.  1.
    8880023    1    1    2    0    0 -0.33898995448E+03 -0.65484101864E+03  0.12843412400E+04  0.16208249677E+04  0.65864270000E+03 0.  0.
    8880022    1    1    2    0    0  0.33898995448E+03  0.65484101864E+03 -0.64698015132E+02  0.75584947913E+03  0.15294330000E+03 0.  0.
<mgrwt>
<rscale>  0 0.92365602E+03</rscale>
<asrwt>0</asrwt>
<pdfrwt beam="1">  1        2 0.27663982E+00 0.98870681E+03</pdfrwt>
<pdfrwt beam="2">  1       -2 0.89002402E-01 0.98870681E+03</pdfrwt>
<totfact> 0.93805930E+00</totfact>
</mgrwt>
</event>
<event>
 4    5  0.2409888E-007  0.1212062E+04  0.7818608E-02  0.9145485E-01
         -2   -1    0    0    0  501 -0.00000000000E+00  0.00000000000E+00  0.56969014367E+03  0.56969014367E+03  0.25500000000E-02 0.  1.
          2   -1    0    0  501    0  0.00000000000E+00 -0.00000000000E+00 -0.30180724583E+04  0.30180724583E+04  0.25500000000E-02 0. -1.
    8880023    1    1    2    0    0  0.59127187113E+03  0.82805929113E+03 -0.22267345102E+04  0.25352399099E+04  0.65864270000E+03 0.  0.
    8880022    1    1    2    0    0 -0.59127187113E+03 -0.82805929113E+03 -0.22164780441E+03  0.10525226921E+04  0.15294330000E+03 0.  0.
<mgrwt>
<rscale>  0 0.11634269E+04</rscale>
<asrwt>0</asrwt>
<pdfrwt beam="1">  1        2 0.46431883E+00 0.12120622E+04</pdfrwt>
<pdfrwt beam="2">  1       -2 0.87644639E-01 0.12120622E+04</pdfrwt>
<totfact> 0.18885315E+00</totfact>
</mgrwt>
</event>
<event>
 4    5  0.2409888E-007  0.7122115E+03  0.7818608E-02  0.9949879E-01
          2   -1    0    0  501    0  0.00000000000E+00  0.00000000000E+00  0.22660999772E+04  0.22660999772E+04  0.25500000000E-02 0. -1.
         -2   -1    0    0    0  501 -0.00000000000E+00 -0.00000000000E+00 -0.31803132078E+03  0.31803132079E+03  0.25500000000E-02 0.  1.
    8880023    1    1    2    0    0  0.25700316562E+02  0.26976759548E+03  0.21145182160E+04  0.22312401381E+04  0.65864270000E+03 0. -1.
    8880022    1    1    2    0    0 -0.25700316562E+02 -0.26976759548E+03 -0.16644955957E+03  0.35289115990E+03  0.15294330000E+03 0.  0.
<mgrwt>
<rscale>  0 0.57903678E+03</rscale>
<asrwt>0</asrwt>
<pdfrwt beam="1">  1        2 0.34863076E+00 0.71221153E+03</pdfrwt>
<pdfrwt beam="2">  1       -2 0.48927896E-01 0.71221153E+03</pdfrwt>
<totfact> 0.19606730E+01</totfact>
</mgrwt>
</event>
<event>
 4    5  0.2409888E-007  0.7125233E+03  0.7818608E-02  0.9948748E-01
         -2   -1    0    0    0  501 -0.00000000000E+00  0.00000000000E+00  0.64312867556E+03  0.64312867557E+03  0.25500000000E-02 0.  1.
          2   -1    0    0  501    0  0.00000000000E+00 -0.00000000000E+00 -0.29298702599E+04  0.29298702599E+04  0.25500000000E-02 0. -1.
    8880023    1    1    2    0    0 -0.25919919406E+03 -0.81823199662E+02 -0.28453579885E+04  0.29332152234E+04  0.65864270000E+03 0. -1.
    8880022    1    1    2    0    0  0.25919919406E+03  0.81823199662E+02  0.55861640413E+03  0.63978371203E+03  0.15294330000E+03 0.  0.
<mgrwt>
<rscale>  0 0.57955837E+03</rscale>
<asrwt>0</asrwt>
<pdfrwt beam="1">  1        2 0.45074926E+00 0.71252331E+03</pdfrwt>
<pdfrwt beam="2">  1       -2 0.98942875E-01 0.71252331E+03</pdfrwt>
<totfact> 0.17513526E+00</totfact>
</mgrwt>
</event>
<event>
 4    5  0.2409888E-007  0.1423152E+04  0.7818608E-02  0.8965899E-01
         -2   -1    0    0    0  501 -0.00000000000E+00  0.00000000000E+00  0.21924185646E+04  0.21924185646E+04  0.25500000000E-02 0.  1.
          2   -1    0    0  501    0  0.00000000000E+00 -0.00000000000E+00 -0.16148259885E+04  0.16148259885E+04  0.25500000000E-02 0. -1.
    8880023    1    1    2    0    0  0.71845673469E+03 -0.10370009897E+04  0.16252437886E+04  0.21602728325E+04  0.65864270000E+03 0.  0.
    8880022    1    1    2    0    0 -0.71845673469E+03  0.10370009897E+04 -0.10476512125E+04  0.16469717206E+04  0.15294330000E+03 0.  0.
<mgrwt>
<rscale>  0 0.13834329E+04</rscale>
<asrwt>0</asrwt>
<pdfrwt beam="1">  1        2 0.24843477E+00 0.14231519E+04</pdfrwt>
<pdfrwt beam="2">  1       -2 0.33729516E+00 0.14231519E+04</pdfrwt>
<totfact> 0.19426389E-01</totfact>
</mgrwt>
</event>
<event>
 4    5  0.2409888E-007  0.8060104E+03  0.7818608E-02  0.9697948E-01
         -2   -1    0    0    0  501 -0.00000000000E+00  0.00000000000E+00  0.27042581870E+03  0.27042581871E+03  0.25500000000E-02 0.  1.
          2   -1    0    0  501    0  0.00000000000E+00 -0.00000000000E+00 -0.36895294748E+04  0.36895294748E+04  0.25500000000E-02 0. -1.
    8880023    1    1    2    0    0 -0.45881427125E+03 -0.73021208582E+02 -0.33738030402E+04  0.34687461413E+04  0.65864270000E+03 0.  0.
    8880022    1    1    2    0    0  0.45881427125E+03  0.73021208582E+02 -0.45300615896E+02  0.49120915221E+03  0.15294330000E+03 0.  0.
<mgrwt>
<rscale>  0 0.71139110E+03</rscale>
<asrwt>0</asrwt>
<pdfrwt beam="1">  1        2 0.56761988E+00 0.80601045E+03</pdfrwt>
<pdfrwt beam="2">  1       -2 0.41603975E-01 0.80601045E+03</pdfrwt>
<totfact> 0.35138982E+00</totfact>
</mgrwt>
</event>
<event>
 4    5  0.2409888E-007  0.1431466E+04  0.7818608E-02  0.8959611E-01
         -2   -1    0    0    0  501 -0.00000000000E+00  0.00000000000E+00  0.89876545176E+03  0.89876545176E+03  0.25500000000E-02 0.  1.
          2   -1    0    0  501    0  0.00000000000E+00 -0.00000000000E+00 -0.42531809838E+04  0.42531809838E+04  0.25500000000E-02 0. -1.
    8880023    1    1    2    0    0 -0.33092706980E+03  0.12270984344E+04  0.13239922925E+03  0.14375754086E+04  0.65864270000E+03 0.  0.
    8880022    1    1    2    0    0  0.33092706980E+03 -0.12270984344E+04 -0.34868147613E+04  0.37143710269E+04  0.15294330000E+03 0.  0.
<mgrwt>
<rscale>  0 0.13920257E+04</rscale>
<asrwt>0</asrwt>
<pdfrwt beam="1">  1        2 0.65433552E+00 0.14314655E+04</pdfrwt>
<pdfrwt beam="2">  1       -2 0.13827161E+00 0.14314655E+04</pdfrwt>
<totfact> 0.75754385E-02</totfact>
</mgrwt>
</event>
<event>
 4    5  0.2409888E-007  0.1254473E+04  0.7818608E-02  0.9105907E-01
         -2   -1    0    0    0  501 -0.00000000000E+00  0.00000000000E+00  0.11668507910E+04  0.11668507910E+04  0.25500000000E-02 0.  1.
          2   -1    0    0  501    0  0.00000000000E+00 -0.00000000000E+00 -0.15818588145E+04  0.15818588145E+04  0.25500000000E-02 0. -1.
    8880023    1    1    2    0    0  0.75342119632E+03 -0.75647179401E+03 -0.92208229405E+03  0.15569004584E+04  0.65864270000E+03 0.  0.
    8880022    1    1    2    0    0 -0.75342119632E+03  0.75647179401E+03  0.50707427055E+03  0.11918091471E+04  0.15294330000E+03 0.  0.
<mgrwt>
<rscale>  0 0.12079719E+04</rscale>
<asrwt>0</asrwt>
<pdfrwt beam="1">  1        2 0.24336289E+00 0.12544733E+04</pdfrwt>
<pdfrwt beam="2">  1       -2 0.17951551E+00 0.12544733E+04</pdfrwt>
<totfact> 0.20128346E+00</totfact>
</mgrwt>
</event>
<event>
 4    5  0.2409888E-007  0.7663175E+03  0.7818608E-02  0.9789018E-01
          2   -1    0    0  501    0  0.00000000000E+00  0.00000000000E+00  0.10935876984E+04  0.10935876984E+04  0.25500000000E-02 0. -1.
         -2   -1    0    0    0  501 -0.00000000000E+00 -0.00000000000E+00 -0.59752560505E+03  0.59752560506E+03  0.25500000000E-02 0.  1.
    8880023    1    1    2    0    0 -0.37307794094E+03 -0.11935291100E+03  0.84786366260E+03  0.11428539994E+04  0.65864270000E+03 0.  0.
    8880022    1    1    2    0    0  0.37307794094E+03  0.11935291100E+03 -0.35180156922E+03  0.54825930407E+03  0.15294330000E+03 0.  0.
<mgrwt>
<rscale>  0 0.65955220E+03</rscale>
<asrwt>0</asrwt>
<pdfrwt beam="1">  1        2 0.16824426E+00 0.76631748E+03</pdfrwt>
<pdfrwt beam="2">  1       -2 0.91927017E-01 0.76631748E+03</pdfrwt>
<totfact> 0.22472910E+01</totfact>
</mgrwt>
</event>
<event>
 4    5  0.2409888E-007  0.6669215E+03  0.7818608E-02  0.1017973E+00
          2   -1    0    0  501    0  0.00000000000E+00  0.00000000000E+00  0.31259241590E+04  0.31259241590E+04  0.25500000000E-02 0. -1.
         -2   -1    0    0    0  501 -0.00000000000E+00 -0.00000000000E+00 -0.65156814375E+02  0.65156814425E+02  0.25500000000E-02 0.  1.
    8880023    1    1    2    0    0 -0.97487726754E+02  0.38343931978E+02  0.27455759808E+04  0.28254153300E+04  0.65864270000E+03 0. -1.
    8880022    1    1    2    0    0  0.97487726754E+02 -0.38343931978E+02  0.31519136379E+03  0.36566564347E+03  0.15294330000E+03 0.  0.
<mgrwt>
<rscale>  0 0.48425243E+03</rscale>
<asrwt>0</asrwt>
<pdfrwt beam="1">  1        2 0.48091138E+00 0.66692152E+03</pdfrwt>
<pdfrwt beam="2">  1       -2 0.10024126E-01 0.66692152E+03</pdfrwt>
<totfact> 0.10616820E+02</totfact>
</mgrwt>
</event>
<event>
 4    5  0.2409888E-007  0.9115672E+03  0.7818608E-02  0.9507712E-01
          2   -1    0    0  501    0  0.00000000000E+00  0.00000000000E+00  0.29913989851E+04  0.29913989851E+04  0.25500000000E-02 0. -1.
         -2   -1    0    0    0  501 -0.00000000000E+00 -0.00000000000E+00 -0.52569047315E+03  0.52569047316E+03  0.25500000000E-02 0.  1.
    8880023    1    1    2    0    0 -0.59774092747E+03 -0.19962546706E+03  0.26826348427E+04  0.28332815690E+04  0.65864270000E+03 0.  0.
    8880022    1    1    2    0    0  0.59774092747E+03  0.19962546706E+03 -0.21692633076E+03  0.68380788929E+03  0.15294330000E+03 0.  0.
<mgrwt>
<rscale>  0 0.83717633E+03</rscale>
<asrwt>0</asrwt>
<pdfrwt beam="1">  1        2 0.46021523E+00 0.91156719E+03</pdfrwt>
<pdfrwt beam="2">  1       -2 0.80875457E-01 0.91156719E+03</pdfrwt>
<totfact> 0.24620967E+00</totfact>
</mgrwt>
</event>
<event>
 4    5  0.2409888E-007  0.8020872E+03  0.7818608E-02  0.9706301E-01
          2   -1    0    0  501    0  0.00000000000E+00  0.00000000000E+00  0.26039931514E+03  0.26039931515E+03  0.25500000000E-02 0. -1.
         -2   -1    0    0    0  501 -0.00000000000E+00 -0.00000000000E+00 -0.35020260694E+04  0.35020260694E+04  0.25500000000E-02 0.  1.
    8880023    1    1    2    0    0  0.13987926008E+03 -0.43585261395E+03 -0.43078311044E+03  0.91044934125E+03  0.65864270000E+03 0. -1.
    8880022    1    1    2    0    0 -0.13987926008E+03  0.43585261395E+03 -0.28108436438E+04  0.28519760433E+04  0.15294330000E+03 0.  0.
<mgrwt>
<rscale>  0 0.70642864E+03</rscale>
<asrwt>0</asrwt>
<pdfrwt beam="1">  1        2 0.40061436E-01 0.80208722E+03</pdfrwt>
<pdfrwt beam="2">  1       -2 0.53877321E+00 0.80208722E+03</pdfrwt>
<totfact> 0.12981453E-01</totfact>
</mgrwt>
</event>
<event>
 4    5  0.2409888E-007  0.1439461E+04  0.7818608E-02  0.8953611E-01
         -2   -1    0    0    0  501 -0.00000000000E+00  0.00000000000E+00  0.93906907870E+03  0.93906907870E+03  0.25500000000E-02 0.  1.
          2   -1    0    0  501    0  0.00000000000E+00 -0.00000000000E+00 -0.25265585425E+04  0.25265585425E+04  0.25500000000E-02 0. -1.
    8880023    1    1    2    0    0 -0.29734199833E+03 -0.12449202621E+04 -0.16316210184E+04  0.21758299743E+04  0.65864270000E+03 0.  0.
    8880022    1    1    2    0    0  0.29734199833E+03  0.12449202621E+04  0.44131554603E+02  0.12897976469E+04  0.15294330000E+03 0.  0.
<mgrwt>
<rscale>  0 0.14002862E+04</rscale>
<asrwt>0</asrwt>
<pdfrwt beam="1">  1        2 0.38870131E+00 0.14394613E+04</pdfrwt>
<pdfrwt beam="2">  1       -2 0.14447217E+00 0.14394613E+04</pdfrwt>
<totfact> 0.10578099E+00</totfact>
</mgrwt>
</event>
<event>
 4    5  0.2409888E-007  0.7742653E+03  0.7818608E-02  0.9769485E-01
          2   -1    0    0  501    0  0.00000000000E+00  0.00000000000E+00  0.25569105762E+04  0.25569105762E+04  0.25500000000E-02 0. -1.
         -2   -1    0    0    0  501 -0.00000000000E+00 -0.00000000000E+00 -0.30983781971E+03  0.30983781972E+03  0.25500000000E-02 0.  1.
    8880023    1    1    2    0    0 -0.76255915126E+02  0.39982686155E+03  0.23017680844E+04  0.24285022142E+04  0.65864270000E+03 0. -1.
    8880022    1    1    2    0    0  0.76255915126E+02 -0.39982686155E+03 -0.54695327971E+02  0.43824618165E+03  0.15294330000E+03 0.  0.
<mgrwt>
<rscale>  0 0.67026204E+03</rscale>
<asrwt>0</asrwt>
<pdfrwt beam="1">  1        2 0.39337085E+00 0.77426526E+03</pdfrwt>
<pdfrwt beam="2">  1       -2 0.47667358E-01 0.77426526E+03</pdfrwt>
<totfact> 0.14055011E+01</totfact>
</mgrwt>
</event>
<event>
 4    5  0.2409888E-007  0.1670808E+04  0.7818608E-02  0.8797582E-01
         -2   -1    0    0    0  501 -0.00000000000E+00  0.00000000000E+00  0.14863619359E+04  0.14863619359E+04  0.25500000000E-02 0.  1.
          2   -1    0    0  501    0  0.00000000000E+00 -0.00000000000E+00 -0.25756858302E+04  0.25756858302E+04  0.25500000000E-02 0. -1.
    8880023    1    1    2    0    0  0.65190210422E+03 -0.13902563209E+04 -0.17173681423E+04  0.23960284919E+04  0.65864270000E+03 0.  0.
    8880022    1    1    2    0    0 -0.65190210422E+03  0.13902563209E+04  0.62804424812E+03  0.16660192742E+04  0.15294330000E+03 0.  0.
<mgrwt>
<rscale>  0 0.16379247E+04</rscale>
<asrwt>0</asrwt>
<pdfrwt beam="1">  1        2 0.39625936E+00 0.16708079E+04</pdfrwt>
<pdfrwt beam="2">  1       -2 0.22867107E+00 0.16708079E+04</pdfrwt>
<totfact> 0.25234551E-01</totfact>
</mgrwt>
</event>
<event>
 4    5  0.2409888E-007  0.6649142E+03  0.7818608E-02  0.1019605E+00
         -2   -1    0    0    0  501 -0.00000000000E+00  0.00000000000E+00  0.79707848371E+03  0.79707848371E+03  0.25500000000E-02 0.  1.
          2   -1    0    0  501    0  0.00000000000E+00 -0.00000000000E+00 -0.45836027405E+03  0.45836027406E+03  0.25500000000E-02 0. -1.
    8880023    1    1    2    0    0 -0.89510761696E+02 -0.16986612935E+02 -0.19491447070E+03  0.69289434882E+03  0.65864270000E+03 0. -1.
    8880022    1    1    2    0    0  0.89510761696E+02  0.16986612935E+02  0.53363268036E+03  0.56254440895E+03  0.15294330000E+03 0.  0.
<mgrwt>
<rscale>  0 0.47829249E+03</rscale>
<asrwt>0</asrwt>
<pdfrwt beam="1">  1        2 0.70516965E-01 0.66491423E+03</pdfrwt>
<pdfrwt beam="2">  1       -2 0.12262746E+00 0.66491423E+03</pdfrwt>
<totfact> 0.34893853E+01</totfact>
</mgrwt>
</event>
<event>
 4    5  0.2409888E-007  0.8776831E+03  0.7818608E-02  0.9562851E-01
         -2   -1    0    0    0  501 -0.00000000000E+00  0.00000000000E+00  0.32373538187E+03  0.32373538188E+03  0.25500000000E-02 0.  1.
          2   -1    0    0  501    0  0.00000000000E+00 -0.00000000000E+00 -0.31689351965E+04  0.31689351965E+04  0.25500000000E-02 0. -1.
    8880023    1    1    2    0    0  0.57398273541E+03  0.84031400937E+02 -0.27482076849E+04  0.28849563502E+04  0.65864270000E+03 0. -1.
    8880022    1    1    2    0    0 -0.57398273541E+03 -0.84031400937E+02 -0.96992129710E+02  0.60771422818E+03  0.15294330000E+03 0.  0.
<mgrwt>
<rscale>  0 0.79804506E+03</rscale>
<asrwt>0</asrwt>
<pdfrwt beam="1">  1        2 0.48752847E+00 0.87768312E+03</pdfrwt>
<pdfrwt beam="2">  1       -2 0.49805446E-01 0.87768312E+03</pdfrwt>
<totfact> 0.54261580E+00</totfact>
</mgrwt>
</event>
<event>
 4    5  0.2409888E-007  0.8423166E+03  0.7818608E-02  0.9625827E-01
          2   -1    0    0  501    0  0.00000000000E+00  0.00000000000E+00  0.74352930282E+03  0.74352930283E+03  0.25500000000E-02 0. -1.
         -2   -1    0    0    0  501 -0.00000000000E+00 -0.00000000000E+00 -0.97243852419E+03  0.97243852420E+03  0.25500000000E-02 0.  1.
    8880023    1    1    2    0    0  0.49938269251E+03 -0.16218506230E+03  0.35668002905E+03  0.91472286371E+03  0.65864270000E+03 0.  0.
    8880022    1    1    2    0    0 -0.49938269251E+03  0.16218506230E+03 -0.58558925042E+03  0.80124496331E+03  0.15294330000E+03 0.  0.
<mgrwt>
<rscale>  0 0.75610083E+03</rscale>
<asrwt>0</asrwt>
<pdfrwt beam="1">  1        2 0.11438912E+00 0.84231661E+03</pdfrwt>
<pdfrwt beam="2">  1       -2 0.14960593E+00 0.84231661E+03</pdfrwt>
<totfact> 0.11512433E+01</totfact>
</mgrwt>
</event>
<event>
 4    5  0.2409888E-007  0.7352407E+03  0.7818608E-02  0.9874034E-01
          2   -1    0    0  501    0  0.00000000000E+00  0.00000000000E+00  0.66772637414E+03  0.66772637415E+03  0.25500000000E-02 0. -1.
         -2   -1    0    0    0  501 -0.00000000000E+00 -0.00000000000E+00 -0.99606315183E+03  0.99606315183E+03  0.25500000000E-02 0.  1.
    8880023    1    1    2    0    0 -0.29060715202E+03  0.14938588508E+03  0.41013824746E+03  0.84189800318E+03  0.65864270000E+03 0. -1.
    8880022    1    1    2    0    0  0.29060715202E+03 -0.14938588508E+03 -0.73847502514E+03  0.82189152280E+03  0.15294330000E+03 0.  0.
<mgrwt>
<rscale>  0 0.61536384E+03</rscale>
<asrwt>0</asrwt>
<pdfrwt beam="1">  1        2 0.10272713E+00 0.73524069E+03</pdfrwt>
<pdfrwt beam="2">  1       -2 0.15324049E+00 0.73524069E+03</pdfrwt>
<totfact> 0.12513728E+01</totfact>
</mgrwt>
</event>
<event>
 4    5  0.2409888E-007  0.7959727E+03  0.7818608E-02  0.9719573E-01
          2   -1    0    0  501    0  0.00000000000E+00  0.00000000000E+00  0.14273344792E+04  0.14273344792E+04  0.25500000000E-02 0. -1.
         -2   -1    0    0    0  501 -0.00000000000E+00 -0.00000000000E+00 -0.69815610071E+03  0.69815610071E+03  0.25500000000E-02 0.  1.
    8880023    1    1    2    0    0  0.33959368240E+03  0.29058286798E+03  0.12120043933E+04  0.14500093545E+04  0.65864270000E+03 0. -1.
    8880022    1    1    2    0    0 -0.33959368240E+03 -0.29058286798E+03 -0.48282601485E+03  0.67548122544E+03  0.15294330000E+03 0.  0.
<mgrwt>
<rscale>  0 0.69863314E+03</rscale>
<asrwt>0</asrwt>
<pdfrwt beam="1">  1        2 0.21958991E+00 0.79597266E+03</pdfrwt>
<pdfrwt beam="2">  1       -2 0.10740863E+00 0.79597266E+03</pdfrwt>
<totfact> 0.98841208E+00</totfact>
</mgrwt>
</event>
<event>
 4    5  0.2409888E-007  0.1156808E+04  0.7818608E-02  0.9200296E-01
         -2   -1    0    0    0  501 -0.00000000000E+00  0.00000000000E+00  0.34108971561E+03  0.34108971561E+03  0.25500000000E-02 0.  1.
          2   -1    0    0  501    0  0.00000000000E+00 -0.00000000000E+00 -0.41955442939E+04  0.41955442939E+04  0.25500000000E-02 0. -1.
    8880023    1    1    2    0    0 -0.23431724620E+03 -0.92167785797E+03 -0.31133132955E+04  0.33212835663E+04  0.65864270000E+03 0.  0.
    8880022    1    1    2    0    0  0.23431724620E+03  0.92167785797E+03 -0.74114128286E+03  0.12153504433E+04  0.15294330000E+03 0.  0.
<mgrwt>
<rscale>  0 0.11050374E+04</rscale>
<asrwt>0</asrwt>
<pdfrwt beam="1">  1        2 0.64546832E+00 0.11568080E+04</pdfrwt>
<pdfrwt beam="2">  1       -2 0.52475344E-01 0.11568080E+04</pdfrwt>
<totfact> 0.83124306E-01</totfact>
</mgrwt>
</event>
<event>
 4    5  0.2409888E-007  0.8178213E+03  0.7818608E-02  0.9673510E-01
          2   -1    0    0  501    0  0.00000000000E+00  0.00000000000E+00  0.12447240515E+04  0.12447240515E+04  0.25500000000E-02 0. -1.
         -2   -1    0    0    0  501 -0.00000000000E+00 -0.00000000000E+00 -0.77213109147E+03  0.77213109148E+03  0.25500000000E-02 0.  1.
    8880023    1    1    2    0    0  0.43000671797E+03 -0.22386518001E+03  0.99498024547E+03  0.12879508110E+04  0.65864270000E+03 0.  0.
    8880022    1    1    2    0    0 -0.43000671797E+03  0.22386518001E+03 -0.52238728541E+03  0.72890433206E+03  0.15294330000E+03 0.  0.
<mgrwt>
<rscale>  0 0.72616130E+03</rscale>
<asrwt>0</asrwt>
<pdfrwt beam="1">  1        2 0.19149600E+00 0.81782125E+03</pdfrwt>
<pdfrwt beam="2">  1       -2 0.11878940E+00 0.81782125E+03</pdfrwt>
<totfact> 0.98182194E+00</totfact>
</mgrwt>
</event>
<event>
 4    5  0.2409888E-007  0.9201574E+03  0.7818608E-02  0.9494418E-01
          2   -1    0    0  501    0  0.00000000000E+00  0.00000000000E+00  0.10596363578E+04  0.10596363578E+04  0.25500000000E-02 0. -1.
         -2   -1    0    0    0  501 -0.00000000000E+00 -0.00000000000E+00 -0.11312840886E+04  0.11312840886E+04  0.25500000000E-02 0.  1.
    8880023    1    1    2    0    0 -0.57634871445E+03 -0.28408026192E+03  0.71387651043E+03  0.11646069355E+04  0.65864270000E+03 0. -1.
    8880022    1    1    2    0    0  0.57634871445E+03  0.28408026192E+03 -0.78552424125E+03  0.10263135108E+04  0.15294330000E+03 0.  0.
<mgrwt>
<rscale>  0 0.84696633E+03</rscale>
<asrwt>0</asrwt>
<pdfrwt beam="1">  1        2 0.16302098E+00 0.92015740E+03</pdfrwt>
<pdfrwt beam="2">  1       -2 0.17404371E+00 0.92015740E+03</pdfrwt>
<totfact> 0.46054940E+00</totfact>
</mgrwt>
</event>
<event>
 4    5  0.2409888E-007  0.8978631E+03  0.7818608E-02  0.9529471E-01
          2   -1    0    0  501    0  0.00000000000E+00  0.00000000000E+00  0.19510559347E+04  0.19510559347E+04  0.25500000000E-02 0. -1.
         -2   -1    0    0    0  501 -0.00000000000E+00 -0.00000000000E+00 -0.64108690968E+03  0.64108690969E+03  0.25500000000E-02 0.  1.
    8880023    1    1    2    0    0 -0.60558193889E+03 -0.74956290451E+02  0.16489474956E+04  0.18775478635E+04  0.65864270000E+03 0. -1.
    8880022    1    1    2    0    0  0.60558193889E+03  0.74956290451E+02 -0.33897847059E+03  0.71459498090E+03  0.15294330000E+03 0.  0.
<mgrwt>
<rscale>  0 0.82145500E+03</rscale>
<asrwt>0</asrwt>
<pdfrwt beam="1">  1        2 0.30016244E+00 0.89786309E+03</pdfrwt>
<pdfrwt beam="2">  1       -2 0.98628758E-01 0.89786309E+03</pdfrwt>
<totfact> 0.61483076E+00</totfact>
</mgrwt>
</event>
<event>
 4    5  0.2409888E-007  0.9051642E+03  0.7818608E-02  0.9517792E-01
         -2   -1    0    0    0  501 -0.00000000000E+00  0.00000000000E+00  0.10481270799E+04  0.10481270799E+04  0.25500000000E-02 0.  1.
          2   -1    0    0  501    0  0.00000000000E+00 -0.00000000000E+00 -0.93020095422E+03  0.93020095422E+03  0.25500000000E-02 0. -1.
    8880023    1    1    2    0    0  0.52220597910E+03  0.33587648672E+03 -0.54555184615E+03  0.10568581371E+04  0.65864270000E+03 0. -1.
    8880022    1    1    2    0    0 -0.52220597910E+03 -0.33587648672E+03  0.66347797185E+03  0.92146989700E+03  0.15294330000E+03 0.  0.
<mgrwt>
<rscale>  0 0.82984729E+03</rscale>
<asrwt>0</asrwt>
<pdfrwt beam="1">  1        2 0.14310784E+00 0.90516424E+03</pdfrwt>
<pdfrwt beam="2">  1       -2 0.16125032E+00 0.90516424E+03</pdfrwt>
<totfact> 0.69046830E+00</totfact>
</mgrwt>
</event>
<event>
 4    5  0.2409888E-007  0.7595210E+03  0.7818608E-02  0.9806349E-01
         -2   -1    0    0    0  501 -0.00000000000E+00  0.00000000000E+00  0.30452276804E+03  0.30452276805E+03  0.25500000000E-02 0.  1.
          2   -1    0    0  501    0  0.00000000000E+00 -0.00000000000E+00 -0.18600731065E+04  0.18600731065E+04  0.25500000000E-02 0. -1.
    8880023    1    1    2    0    0  0.26779617606E+03 -0.26710891719E+03 -0.15829038414E+04  0.17556926676E+04  0.65864270000E+03 0.  0.
    8880022    1    1    2    0    0 -0.26779617606E+03  0.26710891719E+03  0.27353502930E+02  0.40890320700E+03  0.15294330000E+03 0.  0.
<mgrwt>
<rscale>  0 0.65022925E+03</rscale>
<asrwt>0</asrwt>
<pdfrwt beam="1">  1        2 0.28616509E+00 0.75952101E+03</pdfrwt>
<pdfrwt beam="2">  1       -2 0.46849658E-01 0.75952101E+03</pdfrwt>
<totfact> 0.35475343E+01</totfact>
</mgrwt>
</event>
<event>
 4    5  0.2409888E-007  0.1112591E+04  0.7818608E-02  0.9247166E-01
         -2   -1    0    0    0  501 -0.00000000000E+00  0.00000000000E+00  0.53798309830E+03  0.53798309830E+03  0.25500000000E-02 0.  1.
          2   -1    0    0  501    0  0.00000000000E+00 -0.00000000000E+00 -0.29878732769E+04  0.29878732769E+04  0.25500000000E-02 0. -1.
    8880023    1    1    2    0    0  0.10982746903E+03  0.88993567362E+03 -0.23633143414E+04  0.26121088144E+04  0.65864270000E+03 0.  0.
    8880022    1    1    2    0    0 -0.10982746903E+03 -0.88993567362E+03 -0.86575837202E+02  0.91374756073E+03  0.15294330000E+03 0.  0.
<mgrwt>
<rscale>  0 0.10579583E+04</rscale>
<asrwt>0</asrwt>
<pdfrwt beam="1">  1        2 0.45967280E+00 0.11125906E+04</pdfrwt>
<pdfrwt beam="2">  1       -2 0.82766632E-01 0.11125906E+04</pdfrwt>
<totfact> 0.22778984E+00</totfact>
</mgrwt>
</event>
<event>
 4    5  0.2409888E-007  0.7587855E+03  0.7818608E-02  0.9808262E-01
         -2   -1    0    0    0  501 -0.00000000000E+00  0.00000000000E+00  0.36970866821E+03  0.36970866822E+03  0.25500000000E-02 0.  1.
          2   -1    0    0  501    0  0.00000000000E+00 -0.00000000000E+00 -0.22710644074E+04  0.22710644074E+04  0.25500000000E-02 0. -1.
    8880023    1    1    2    0    0 -0.18950545310E+03  0.32562698456E+03 -0.20668774370E+04  0.22017578876E+04  0.65864270000E+03 0. -1.
    8880022    1    1    2    0    0  0.18950545310E+03 -0.32562698456E+03  0.16552169781E+03  0.43901518799E+03  0.15294330000E+03 0.  0.
<mgrwt>
<rscale>  0 0.64921044E+03</rscale>
<asrwt>0</asrwt>
<pdfrwt beam="1">  1        2 0.34939452E+00 0.75878551E+03</pdfrwt>
<pdfrwt beam="2">  1       -2 0.56878258E-01 0.75878551E+03</pdfrwt>
<totfact> 0.14192491E+01</totfact>
</mgrwt>
</event>
<event>
 4    5  0.4173044E-007  0.6821372E+03  0.7818608E-02  0.1008140E+00
          2   -1    0    0  501    0  0.00000000000E+00  0.00000000000E+00  0.21864724282E+04  0.21864724282E+04  0.25500000000E-02 0. -1.
         -2   -1    0    0    0  501 -0.00000000000E+00 -0.00000000000E+00 -0.17242163578E+04  0.17242163578E+04  0.25500000000E-02 0.  1.
    8880023    1    1    2    0    0 -0.17747635617E+03  0.17748112054E+01  0.21248549310E+04  0.22316629877E+04  0.65864270000E+03 0. -1.
    8880022    1    1    2    0    0  0.17747635617E+03 -0.17748112054E+01 -0.16625988606E+04  0.16790257983E+04  0.15294330000E+03 0.  0.
<mgrwt>
<rscale>  0 0.52220750E+03</rscale>
<asrwt>0</asrwt>
<pdfrwt beam="1">  1        2 0.33638037E+00 0.68213724E+03</pdfrwt>
<pdfrwt beam="2">  1       -2 0.26526405E+00 0.68213724E+03</pdfrwt>
<totfact> 0.29446950E-01</totfact>
</mgrwt>
</event>
<event>
 4    5  0.2409888E-007  0.1035894E+04  0.7818608E-02  0.9336034E-01
          2   -1    0    0  501    0  0.00000000000E+00  0.00000000000E+00  0.12741590224E+04  0.12741590224E+04  0.25500000000E-02 0. -1.
         -2   -1    0    0    0  501 -0.00000000000E+00 -0.00000000000E+00 -0.96339797250E+03  0.96339797250E+03  0.25500000000E-02 0.  1.
    8880023    1    1    2    0    0 -0.75993190276E+03  0.24853450274E+03  0.78112780285E+03  0.12973961409E+04  0.65864270000E+03 0.  0.
    8880022    1    1    2    0    0  0.75993190276E+03 -0.24853450274E+03 -0.47036675300E+03  0.94016085391E+03  0.15294330000E+03 0.  0.
<mgrwt>
<rscale>  0 0.97532103E+03</rscale>
<asrwt>0</asrwt>
<pdfrwt beam="1">  1        2 0.19602446E+00 0.10358939E+04</pdfrwt>
<pdfrwt beam="2">  1       -2 0.14821507E+00 0.10358939E+04</pdfrwt>
<totfact> 0.52300459E+00</totfact>
</mgrwt>
</event>
<event>
 4    5  0.2409888E-007  0.1184043E+04  0.7818608E-02  0.9172791E-01
         -2   -1    0    0    0  501 -0.00000000000E+00  0.00000000000E+00  0.13831370934E+04  0.13831370935E+04  0.25500000000E-02 0.  1.
          2   -1    0    0  501    0  0.00000000000E+00 -0.00000000000E+00 -0.12114587015E+04  0.12114587015E+04  0.25500000000E-02 0. -1.
    8880023    1    1    2    0    0 -0.95414984223E+03 -0.24030521789E+03  0.78915014125E+03  0.14229253919E+04  0.65864270000E+03 0.  1.
    8880022    1    1    2    0    0  0.95414984223E+03  0.24030521789E+03 -0.61747174925E+03  0.11716704030E+04  0.15294330000E+03 0.  0.
<mgrwt>
<rscale>  0 0.11338732E+04</rscale>
<asrwt>0</asrwt>
<pdfrwt beam="1">  1        2 0.18637826E+00 0.11840434E+04</pdfrwt>
<pdfrwt beam="2">  1       -2 0.21279032E+00 0.11840434E+04</pdfrwt>
<totfact> 0.19926513E+00</totfact>
</mgrwt>
</event>
<event>
 4    5  0.2409888E-007  0.1095652E+04  0.7818608E-02  0.9265912E-01
         -2   -1    0    0    0  501 -0.00000000000E+00  0.00000000000E+00  0.10703479281E+04  0.10703479281E+04  0.25500000000E-02 0.  1.
          2   -1    0    0  501    0  0.00000000000E+00 -0.00000000000E+00 -0.18442299902E+04  0.18442299902E+04  0.25500000000E-02 0. -1.
    8880023    1    1    2    0    0 -0.66375114847E+03 -0.57103215990E+03 -0.14359835496E+04  0.18062398168E+04  0.65864270000E+03 0.  0.
    8880022    1    1    2    0    0  0.66375114847E+03  0.57103215990E+03  0.66210148738E+03  0.11083381016E+04  0.15294330000E+03 0.  0.
<mgrwt>
<rscale>  0 0.10398251E+04</rscale>
<asrwt>0</asrwt>
<pdfrwt beam="1">  1        2 0.28372769E+00 0.10956521E+04</pdfrwt>
<pdfrwt beam="2">  1       -2 0.16466891E+00 0.10956521E+04</pdfrwt>
<totfact> 0.18670844E+00</totfact>
</mgrwt>
</event>
<event>
 4    5  0.2878302E-007  0.8018356E+03  0.7818608E-02  0.9706841E-01
          2   -1    0    0  501    0  0.00000000000E+00  0.00000000000E+00  0.27076434403E+04  0.27076434403E+04  0.25500000000E-02 0. -1.
         -2   -1    0    0    0  501 -0.00000000000E+00 -0.00000000000E+00 -0.10214902349E+04  0.10214902349E+04  0.25500000000E-02 0.  1.
    8880023    1    1    2    0    0 -0.32380052218E+03 -0.32292943219E+03  0.25864190997E+04  0.27078597013E+04  0.65864270000E+03 0. -1.
    8880022    1    1    2    0    0  0.32380052218E+03  0.32292943219E+03 -0.90026589429E+03  0.10212739739E+04  0.15294330000E+03 0.  0.
<mgrwt>
<rscale>  0 0.70610940E+03</rscale>
<asrwt>0</asrwt>
<pdfrwt beam="1">  1        2 0.41656053E+00 0.80183565E+03</pdfrwt>
<pdfrwt beam="2">  1       -2 0.15715235E+00 0.80183565E+03</pdfrwt>
<totfact> 0.72835519E-01</totfact>
</mgrwt>
</event>
<event>
 4    5  0.2409888E-007  0.1235031E+04  0.7818608E-02  0.9123800E-01
          2   -1    0    0  501    0  0.00000000000E+00  0.00000000000E+00  0.10171906187E+04  0.10171906187E+04  0.25500000000E-02 0. -1.
         -2   -1    0    0    0  501 -0.00000000000E+00 -0.00000000000E+00 -0.14293522562E+04  0.14293522562E+04  0.25500000000E-02 0.  1.
    8880023    1    1    2    0    0  0.59183999146E+03  0.86093977146E+03  0.16041726255E+03  0.12454058656E+04  0.65864270000E+03 0.  0.
    8880022    1    1    2    0    0 -0.59183999146E+03 -0.86093977146E+03 -0.57257890004E+03  0.12011370094E+04  0.15294330000E+03 0.  0.
<mgrwt>
<rscale>  0 0.11875780E+04</rscale>
<asrwt>0</asrwt>
<pdfrwt beam="1">  1        2 0.15649086E+00 0.12350312E+04</pdfrwt>
<pdfrwt beam="2">  1       -2 0.21990035E+00 0.12350312E+04</pdfrwt>
<totfact> 0.23564251E+00</totfact>
</mgrwt>
</event>
<event>
 4    5  0.2409888E-007  0.7220887E+03  0.7818608E-02  0.9915581E-01
         -2   -1    0    0    0  501 -0.00000000000E+00  0.00000000000E+00  0.12349967296E+03  0.12349967299E+03  0.25500000000E-02 0.  1.
          2   -1    0    0  501    0  0.00000000000E+00 -0.00000000000E+00 -0.32942423296E+04  0.32942423296E+04  0.25500000000E-02 0. -1.
    8880023    1    1    2    0    0 -0.12552505497E+00  0.29597612511E+03 -0.28997028130E+04  0.29882584380E+04  0.65864270000E+03 0. -1.
    8880022    1    1    2    0    0  0.12552505497E+00 -0.29597612511E+03 -0.27103984364E+03  0.42948356458E+03  0.15294330000E+03 0.  0.
<mgrwt>
<rscale>  0 0.59512079E+03</rscale>
<asrwt>0</asrwt>
<pdfrwt beam="1">  1        2 0.50680645E+00 0.72208870E+03</pdfrwt>
<pdfrwt beam="2">  1       -2 0.18999952E-01 0.72208870E+03</pdfrwt>
<totfact> 0.28139018E+01</totfact>
</mgrwt>
</event>
<event>
 4    5  0.2409888E-007  0.1020432E+04  0.7818608E-02  0.9355302E-01
          2   -1    0    0  501    0  0.00000000000E+00  0.00000000000E+00  0.14331960810E+04  0.14331960810E+04  0.25500000000E-02 0. -1.
         -2   -1    0    0    0  501 -0.00000000000E+00 -0.00000000000E+00 -0.17210087317E+04  0.17210087317E+04  0.25500000000E-02 0.  1.
    8880023    1    1    2    0    0 -0.34429857555E+03 -0.69923470826E+03  0.11340329176E+04  0.15255528673E+04  0.65864270000E+03 0. -1.
    8880022    1    1    2    0    0  0.34429857555E+03  0.69923470826E+03 -0.14218455683E+04  0.16286519455E+04  0.15294330000E+03 0.  0.
<mgrwt>
<rscale>  0 0.95847279E+03</rscale>
<asrwt>0</asrwt>
<pdfrwt beam="1">  1        2 0.22049171E+00 0.10204317E+04</pdfrwt>
<pdfrwt beam="2">  1       -2 0.26477057E+00 0.10204317E+04</pdfrwt>
<totfact> 0.72023932E-01</totfact>
</mgrwt>
</event>
<event>
 4    5  0.2409888E-007  0.7495719E+03  0.7818608E-02  0.9832894E-01
         -2   -1    0    0    0  501 -0.00000000000E+00  0.00000000000E+00  0.17456700340E+04  0.17456700340E+04  0.25500000000E-02 0.  1.
          2   -1    0    0  501    0  0.00000000000E+00 -0.00000000000E+00 -0.80348235319E+03  0.80348235319E+03  0.25500000000E-02 0. -1.
    8880023    1    1    2    0    0 -0.35605459417E+03 -0.35679247270E+02 -0.59905219783E+03  0.95954240381E+03  0.65864270000E+03 0.  0.
    8880022    1    1    2    0    0  0.35605459417E+03  0.35679247270E+02  0.15412398787E+04  0.15896099834E+04  0.15294330000E+03 0.  1.
<mgrwt>
<rscale>  0 0.63626773E+03</rscale>
<asrwt>0</asrwt>
<pdfrwt beam="1">  1        2 0.12361267E+00 0.74957194E+03</pdfrwt>
<pdfrwt beam="2">  1       -2 0.26856462E+00 0.74957194E+03</pdfrwt>
<totfact> 0.17550865E+00</totfact>
</mgrwt>
</event>
<event>
 4    5  0.2409888E-007  0.1087220E+04  0.7818608E-02  0.9275420E-01
          2   -1    0    0  501    0  0.00000000000E+00  0.00000000000E+00  0.28241098275E+04  0.28241098275E+04  0.25500000000E-02 0. -1.
         -2   -1    0    0    0  501 -0.00000000000E+00 -0.00000000000E+00 -0.69636754976E+03  0.69636754976E+03  0.25500000000E-02 0.  1.
    8880023    1    1    2    0    0 -0.82037999198E+03 -0.27425167114E+03  0.23715145261E+04  0.26088558152E+04  0.65864270000E+03 0. -1.
    8880022    1    1    2    0    0  0.82037999198E+03  0.27425167114E+03 -0.24377224841E+03  0.91162156209E+03  0.15294330000E+03 0.  0.
<mgrwt>
<rscale>  0 0.10307757E+04</rscale>
<asrwt>0</asrwt>
<pdfrwt beam="1">  1        2 0.43447844E+00 0.10872201E+04</pdfrwt>
<pdfrwt beam="2">  1       -2 0.10713347E+00 0.10872201E+04</pdfrwt>
<totfact> 0.15686341E+00</totfact>
</mgrwt>
</event>
<event>
 4    5  0.2409888E-007  0.7404483E+03  0.7818608E-02  0.9858643E-01
          2   -1    0    0  501    0  0.00000000000E+00  0.00000000000E+00  0.54984395835E+03  0.54984395836E+03  0.25500000000E-02 0. -1.
         -2   -1    0    0    0  501 -0.00000000000E+00 -0.00000000000E+00 -0.10698637066E+04  0.10698637066E+04  0.25500000000E-02 0.  1.
    8880023    1    1    2    0    0  0.72005402558E+01 -0.33823306917E+03  0.23624459458E+03  0.77722272972E+03  0.65864270000E+03 0.  0.
    8880022    1    1    2    0    0 -0.72005402558E+01  0.33823306917E+03 -0.75626434278E+03  0.84248493520E+03  0.15294330000E+03 0.  0.
<mgrwt>
<rscale>  0 0.62308166E+03</rscale>
<asrwt>0</asrwt>
<pdfrwt beam="1">  1        2 0.84591378E-01 0.74044829E+03</pdfrwt>
<pdfrwt beam="2">  1       -2 0.16459442E+00 0.74044829E+03</pdfrwt>
<totfact> 0.13044849E+01</totfact>
</mgrwt>
</event>
<event>
 4    5  0.2409888E-007  0.9184934E+03  0.7818608E-02  0.9496973E-01
         -2   -1    0    0    0  501 -0.00000000000E+00  0.00000000000E+00  0.10298045755E+04  0.10298045755E+04  0.25500000000E-02 0.  1.
          2   -1    0    0  501    0  0.00000000000E+00 -0.00000000000E+00 -0.74795355101E+03  0.74795355101E+03  0.25500000000E-02 0. -1.
    8880023    1    1    2    0    0  0.48191961714E+03  0.42139467350E+03 -0.22662345695E+03  0.94603825808E+03  0.65864270000E+03 0.  1.
    8880022    1    1    2    0    0 -0.48191961714E+03 -0.42139467350E+03  0.50847448142E+03  0.83171986841E+03  0.15294330000E+03 0.  0.
<mgrwt>
<rscale>  0 0.84507365E+03</rscale>
<asrwt>0</asrwt>
<pdfrwt beam="1">  1        2 0.11506978E+00 0.91849344E+03</pdfrwt>
<pdfrwt beam="2">  1       -2 0.15843147E+00 0.91849344E+03</pdfrwt>
<totfact> 0.97295222E+00</totfact>
</mgrwt>
</event>
<event>
 4    5  0.2409888E-007  0.7545375E+03  0.7818608E-02  0.9819460E-01
          2   -1    0    0  501    0  0.00000000000E+00  0.00000000000E+00  0.70456528814E+03  0.70456528814E+03  0.25500000000E-02 0. -1.
         -2   -1    0    0    0  501 -0.00000000000E+00 -0.00000000000E+00 -0.98681568736E+03  0.98681568736E+03  0.25500000000E-02 0.  1.
    8880023    1    1    2    0    0 -0.36755275974E+03 -0.20531109833E+02  0.43489025776E+03  0.87089396612E+03  0.65864270000E+03 0.  0.
    8880022    1    1    2    0    0  0.36755275974E+03  0.20531109833E+02 -0.71714065698E+03  0.82048700938E+03  0.15294330000E+03 0.  0.
<mgrwt>
<rscale>  0 0.64328569E+03</rscale>
<asrwt>0</asrwt>
<pdfrwt beam="1">  1        2 0.10839466E+00 0.75453745E+03</pdfrwt>
<pdfrwt beam="2">  1       -2 0.15181780E+00 0.75453745E+03</pdfrwt>
<totfact> 0.11967726E+01</totfact>
</mgrwt>
</event>
<event>
 4    5  0.2409888E-007  0.1128393E+04  0.7818608E-02  0.9230084E-01
         -2   -1    0    0    0  501 -0.00000000000E+00  0.00000000000E+00  0.33108645309E+03  0.33108645310E+03  0.25500000000E-02 0.  1.
          2   -1    0    0  501    0  0.00000000000E+00 -0.00000000000E+00 -0.40724863111E+04  0.40724863111E+04  0.25500000000E-02 0. -1.
    8880023    1    1    2    0    0  0.91531113240E+03 -0.40819143906E+02 -0.30308008682E+04  0.32340415552E+04  0.65864270000E+03 0. -1.
    8880022    1    1    2    0    0 -0.91531113240E+03  0.40819143906E+02 -0.71059898983E+03  0.11695312091E+04  0.15294330000E+03 0.  0.
<mgrwt>
<rscale>  0 0.10748240E+04</rscale>
<asrwt>0</asrwt>
<pdfrwt beam="1">  1        2 0.62653632E+00 0.11283931E+04</pdfrwt>
<pdfrwt beam="2">  1       -2 0.50936380E-01 0.11283931E+04</pdfrwt>
<totfact> 0.11246543E+00</totfact>
</mgrwt>
</event>
<event>
 4    5  0.2409888E-007  0.1078839E+04  0.7818608E-02  0.9284990E-01
          2   -1    0    0  501    0  0.00000000000E+00  0.00000000000E+00  0.21474660732E+04  0.21474660732E+04  0.25500000000E-02 0. -1.
         -2   -1    0    0    0  501 -0.00000000000E+00 -0.00000000000E+00 -0.76611450569E+03  0.76611450570E+03  0.25500000000E-02 0.  1.
    8880023    1    1    2    0    0  0.80809276657E+03 -0.27761495241E+03  0.16791779944E+04  0.19958789854E+04  0.65864270000E+03 0.  0.
    8880022    1    1    2    0    0 -0.80809276657E+03  0.27761495241E+03 -0.29782642689E+03  0.91770159352E+03  0.15294330000E+03 0.  0.
<mgrwt>
<rscale>  0 0.10217655E+04</rscale>
<asrwt>0</asrwt>
<pdfrwt beam="1">  1        2 0.33037940E+00 0.10788393E+04</pdfrwt>
<pdfrwt beam="2">  1       -2 0.11786377E+00 0.10788393E+04</pdfrwt>
<totfact> 0.30416382E+00</totfact>
</mgrwt>
</event>
<event>
 4    5  0.2409888E-007  0.8189947E+03  0.7818608E-02  0.9671137E-01
         -2   -1    0    0    0  501 -0.00000000000E+00  0.00000000000E+00  0.72348381901E+03  0.72348381902E+03  0.25500000000E-02 0.  1.
          2   -1    0    0  501    0  0.00000000000E+00 -0.00000000000E+00 -0.31573000289E+04  0.31573000289E+04  0.25500000000E-02 0. -1.
    8880023    1    1    2    0    0  0.19689447545E+03  0.44516806687E+03 -0.30051687364E+04  0.31147698763E+04  0.65864270000E+03 0.  0.
    8880022    1    1    2    0    0 -0.19689447545E+03 -0.44516806687E+03  0.57135252645E+03  0.76601397162E+03  0.15294330000E+03 0.  0.
<mgrwt>
<rscale>  0 0.72761576E+03</rscale>
<asrwt>0</asrwt>
<pdfrwt beam="1">  1        2 0.48573846E+00 0.81899466E+03</pdfrwt>
<pdfrwt beam="2">  1       -2 0.11130520E+00 0.81899466E+03</pdfrwt>
<totfact> 0.93393300E-01</totfact>
</mgrwt>
</event>
<event>
 4    5  0.2409888E-007  0.8143407E+03  0.7818608E-02  0.9680605E-01
          2   -1    0    0  501    0  0.00000000000E+00  0.00000000000E+00  0.13361003347E+04  0.13361003347E+04  0.25500000000E-02 0. -1.
         -2   -1    0    0    0  501 -0.00000000000E+00 -0.00000000000E+00 -0.38201624887E+03  0.38201624888E+03  0.25500000000E-02 0.  1.
    8880023    1    1    2    0    0 -0.21530835276E+03  0.42776506036E+03  0.89803341455E+03  0.12122767232E+04  0.65864270000E+03 0. -1.
    8880022    1    1    2    0    0  0.21530835276E+03 -0.42776506036E+03  0.56050671292E+02  0.50583986043E+03  0.15294330000E+03 0.  1.
<mgrwt>
<rscale>  0 0.72183380E+03</rscale>
<asrwt>0</asrwt>
<pdfrwt beam="1">  1        2 0.20555390E+00 0.81434074E+03</pdfrwt>
<pdfrwt beam="2">  1       -2 0.58771731E-01 0.81434074E+03</pdfrwt>
<totfact> 0.43190494E+01</totfact>
</mgrwt>
</event>
<event>
 4    5  0.2409888E-007  0.1548396E+04  0.7818608E-02  0.8876197E-01
         -2   -1    0    0    0  501 -0.00000000000E+00  0.00000000000E+00  0.26683143858E+04  0.26683143858E+04  0.25500000000E-02 0.  1.
          2   -1    0    0  501    0  0.00000000000E+00 -0.00000000000E+00 -0.12451323661E+04  0.12451323661E+04  0.25500000000E-02 0. -1.
    8880023    1    1    2    0    0  0.97039130556E+03 -0.10109694929E+04 -0.40922404499E+03  0.16015595920E+04  0.65864270000E+03 0.  0.
    8880022    1    1    2    0    0 -0.97039130556E+03  0.10109694929E+04  0.18324060647E+04  0.23118871600E+04  0.15294330000E+03 0.  1.
<mgrwt>
<rscale>  0 0.15124784E+04</rscale>
<asrwt>0</asrwt>
<pdfrwt beam="1">  1        2 0.19155883E+00 0.15483956E+04</pdfrwt>
<pdfrwt beam="2">  1       -2 0.41050991E+00 0.15483956E+04</pdfrwt>
<totfact> 0.10601407E-01</totfact>
</mgrwt>
</event>
<event>
 4    5  0.2409888E-007  0.9756810E+03  0.7818608E-02  0.9414090E-01
          2   -1    0    0  501    0  0.00000000000E+00  0.00000000000E+00  0.14102977996E+04  0.14102977996E+04  0.25500000000E-02 0. -1.
         -2   -1    0    0    0  501 -0.00000000000E+00 -0.00000000000E+00 -0.92405878964E+03  0.92405878965E+03  0.25500000000E-02 0.  1.
    8880023    1    1    2    0    0 -0.35724346241E+03  0.62491618914E+03  0.10304647598E+04  0.14190880742E+04  0.65864270000E+03 0. -1.
    8880022    1    1    2    0    0  0.35724346241E+03 -0.62491618914E+03 -0.54422574983E+03  0.91526851507E+03  0.15294330000E+03 0.  0.
<mgrwt>
<rscale>  0 0.90925180E+03</rscale>
<asrwt>0</asrwt>
<pdfrwt beam="1">  1        2 0.21696889E+00 0.97568096E+03</pdfrwt>
<pdfrwt beam="2">  1       -2 0.14216289E+00 0.97568096E+03</pdfrwt>
<totfact> 0.49020916E+00</totfact>
</mgrwt>
</event>
<event>
 4    5  0.2409888E-007  0.1027538E+04  0.7818608E-02  0.9346384E-01
         -2   -1    0    0    0  501 -0.00000000000E+00  0.00000000000E+00  0.22489262580E+04  0.22489262580E+04  0.25500000000E-02 0.  1.
          2   -1    0    0  501    0  0.00000000000E+00 -0.00000000000E+00 -0.95709171376E+03  0.95709171377E+03  0.25500000000E-02 0. -1.
    8880023    1    1    2    0    0 -0.43084645297E+03 -0.66060259659E+03 -0.57228125683E+03  0.11761549642E+04  0.65864270000E+03 0. -1.
    8880022    1    1    2    0    0  0.43084645297E+03  0.66060259659E+03  0.18641158011E+04  0.20298630076E+04  0.15294330000E+03 0.  0.
<mgrwt>
<rscale>  0 0.96622539E+03</rscale>
<asrwt>0</asrwt>
<pdfrwt beam="1">  1        2 0.14724488E+00 0.10275382E+04</pdfrwt>
<pdfrwt beam="2">  1       -2 0.34598865E+00 0.10275382E+04</pdfrwt>
<totfact> 0.44584559E-01</totfact>
</mgrwt>
</event>
<event>
 4    5  0.2409888E-007  0.1155447E+04  0.7818608E-02  0.9201697E-01
          2   -1    0    0  501    0  0.00000000000E+00  0.00000000000E+00  0.29910022407E+04  0.29910022407E+04  0.25500000000E-02 0. -1.
         -2   -1    0    0    0  501 -0.00000000000E+00 -0.00000000000E+00 -0.54106440070E+03  0.54106440071E+03  0.25500000000E-02 0.  1.
    8880023    1    1    2    0    0  0.89611898503E+03  0.31339713363E+03  0.22793333290E+04  0.25554681820E+04  0.65864270000E+03 0.  0.
    8880022    1    1    2    0    0 -0.89611898503E+03 -0.31339713363E+03  0.17060451109E+03  0.97659845941E+03  0.15294330000E+03 0.  0.
<mgrwt>
<rscale>  0 0.11035931E+04</rscale>
<asrwt>0</asrwt>
<pdfrwt beam="1">  1        2 0.46015419E+00 0.11554468E+04</pdfrwt>
<pdfrwt beam="2">  1       -2 0.83240678E-01 0.11554468E+04</pdfrwt>
<totfact> 0.22257130E+00</totfact>
</mgrwt>
</event>
<event>
 4    5  0.2409888E-007  0.1053103E+04  0.7818608E-02  0.9315160E-01
          2   -1    0    0  501    0  0.00000000000E+00  0.00000000000E+00  0.10596108314E+04  0.10596108314E+04  0.25500000000E-02 0. -1.
         -2   -1    0    0    0  501 -0.00000000000E+00 -0.00000000000E+00 -0.85349752729E+03  0.85349752729E+03  0.25500000000E-02 0.  1.
    8880023    1    1    2    0    0  0.81842497562E+03 -0.73464038316E+02  0.22584342047E+03  0.10770477531E+04  0.65864270000E+03 0.  0.
    8880022    1    1    2    0    0 -0.81842497562E+03  0.73464038316E+02 -0.19730116384E+02  0.83606060555E+03  0.15294330000E+03 0.  0.
<mgrwt>
<rscale>  0 0.99399096E+03</rscale>
<asrwt>0</asrwt>
<pdfrwt beam="1">  1        2 0.16301705E+00 0.10531033E+04</pdfrwt>
<pdfrwt beam="2">  1       -2 0.13130731E+00 0.10531033E+04</pdfrwt>
<totfact> 0.96501109E+00</totfact>
</mgrwt>
</event>
<event>
 4    5  0.2409888E-007  0.1287302E+04  0.7818608E-02  0.9076604E-01
         -2   -1    0    0    0  501 -0.00000000000E+00  0.00000000000E+00  0.12800297166E+04  0.12800297166E+04  0.25500000000E-02 0.  1.
          2   -1    0    0  501    0  0.00000000000E+00 -0.00000000000E+00 -0.17461959144E+04  0.17461959144E+04  0.25500000000E-02 0. -1.
    8880023    1    1    2    0    0  0.27882667228E+03  0.10703227393E+04 -0.11421748105E+04  0.17209615287E+04  0.65864270000E+03 0.  0.
    8880022    1    1    2    0    0 -0.27882667228E+03 -0.10703227393E+04  0.67600861270E+03  0.13052641023E+04  0.15294330000E+03 0.  0.
<mgrwt>
<rscale>  0 0.12423147E+04</rscale>
<asrwt>0</asrwt>
<pdfrwt beam="1">  1        2 0.26864553E+00 0.12873016E+04</pdfrwt>
<pdfrwt beam="2">  1       -2 0.19692765E+00 0.12873016E+04</pdfrwt>
<totfact> 0.12376355E+00</totfact>
</mgrwt>
</event>
<event>
 4    5  0.2409888E-007  0.1340692E+04  0.7818608E-02  0.9031193E-01
         -2   -1    0    0    0  501 -0.00000000000E+00  0.00000000000E+00  0.16884095435E+04  0.16884095435E+04  0.25500000000E-02 0.  1.
          2   -1    0    0  501    0  0.00000000000E+00 -0.00000000000E+00 -0.16983254463E+04  0.16983254463E+04  0.25500000000E-02 0. -1.
    8880023    1    1    2    0    0 -0.83154397378E+03  0.81986509448E+03 -0.11360227098E+04  0.17572711677E+04  0.65864270000E+03 0.  0.
    8880022    1    1    2    0    0  0.83154397378E+03 -0.81986509448E+03  0.11261068070E+04  0.16294638220E+04  0.15294330000E+03 0.  0.
<mgrwt>
<rscale>  0 0.12979491E+04</rscale>
<asrwt>0</asrwt>
<pdfrwt beam="1">  1        2 0.26128084E+00 0.13406917E+04</pdfrwt>
<pdfrwt beam="2">  1       -2 0.25975531E+00 0.13406917E+04</pdfrwt>
<totfact> 0.52577178E-01</totfact>
</mgrwt>
</event>
<event>
 4    5  0.2409888E-007  0.1094225E+04  0.7818608E-02  0.9267514E-01
         -2   -1    0    0    0  501 -0.00000000000E+00  0.00000000000E+00  0.37789560659E+04  0.37789560659E+04  0.25500000000E-02 0.  1.
          2   -1    0    0  501    0  0.00000000000E+00 -0.00000000000E+00 -0.43432733748E+03  0.43432733749E+03  0.25500000000E-02 0. -1.
    8880023    1    1    2    0    0  0.86261661972E+03  0.13931906056E+03  0.44543584830E+03  0.11814146327E+04  0.65864270000E+03 0.  0.
    8880022    1    1    2    0    0 -0.86261661972E+03 -0.13931906056E+03  0.28991928801E+04  0.30318687707E+04  0.15294330000E+03 0.  0.
<mgrwt>
<rscale>  0 0.10382941E+04</rscale>
<asrwt>0</asrwt>
<pdfrwt beam="1">  1        2 0.66819591E-01 0.10942246E+04</pdfrwt>
<pdfrwt beam="2">  1       -2 0.58137785E+00 0.10942246E+04</pdfrwt>
<totfact> 0.42791090E-02</totfact>
</mgrwt>
</event>
<event>
 4    5  0.2409888E-007  0.9826974E+03  0.7818608E-02  0.9404553E-01
          2   -1    0    0  501    0  0.00000000000E+00  0.00000000000E+00  0.13462218855E+04  0.13462218855E+04  0.25500000000E-02 0. -1.
         -2   -1    0    0    0  501 -0.00000000000E+00 -0.00000000000E+00 -0.89191657467E+03  0.89191657468E+03  0.25500000000E-02 0.  1.
    8880023    1    1    2    0    0  0.22773402241E+03  0.69283565711E+03 -0.43775761526E+03  0.10757908573E+04  0.65864270000E+03 0.  0.
    8880022    1    1    2    0    0 -0.22773402241E+03 -0.69283565711E+03  0.89206292608E+03  0.11623476028E+04  0.15294330000E+03 0.  0.
<mgrwt>
<rscale>  0 0.91701924E+03</rscale>
<asrwt>0</asrwt>
<pdfrwt beam="1">  1        2 0.20711106E+00 0.98269743E+03</pdfrwt>
<pdfrwt beam="2">  1       -2 0.13721794E+00 0.98269743E+03</pdfrwt>
<totfact> 0.58447712E+00</totfact>
</mgrwt>
</event>
<event>
 4    5  0.2409888E-007  0.1161298E+04  0.7818608E-02  0.9195693E-01
         -2   -1    0    0    0  501 -0.00000000000E+00  0.00000000000E+00  0.39723607210E+03  0.39723607210E+03  0.25500000000E-02 0.  1.
          2   -1    0    0  501    0  0.00000000000E+00 -0.00000000000E+00 -0.33417042748E+04  0.33417042748E+04  0.25500000000E-02 0. -1.
    8880023    1    1    2    0    0  0.95639031647E+03 -0.10956764278E+02 -0.22969655161E+04  0.25738421234E+04  0.65864270000E+03 0.  0.
    8880022    1    1    2    0    0 -0.95639031647E+03  0.10956764278E+02 -0.64750268665E+03  0.11650982235E+04  0.15294330000E+03 0.  0.
<mgrwt>
<rscale>  0 0.11097989E+04</rscale>
<asrwt>0</asrwt>
<pdfrwt beam="1">  1        2 0.51410833E+00 0.11612978E+04</pdfrwt>
<pdfrwt beam="2">  1       -2 0.61113244E-01 0.11612978E+04</pdfrwt>
<totfact> 0.26223112E+00</totfact>
</mgrwt>
</event>
<event>
 4    5  0.2409888E-007  0.7925925E+03  0.7818608E-02  0.9727047E-01
         -2   -1    0    0    0  501 -0.00000000000E+00  0.00000000000E+00  0.56072375501E+03  0.56072375501E+03  0.25500000000E-02 0.  1.
          2   -1    0    0  501    0  0.00000000000E+00 -0.00000000000E+00 -0.20780361770E+04  0.20780361770E+04  0.25500000000E-02 0. -1.
    8880023    1    1    2    0    0  0.44030961762E+03 -0.22806934168E+02 -0.18848610726E+04  0.20447259437E+04  0.65864270000E+03 0. -1.
    8880022    1    1    2    0    0 -0.44030961762E+03  0.22806934168E+02  0.36754865064E+03  0.59403398827E+03  0.15294330000E+03 0.  0.
<mgrwt>
<rscale>  0 0.69428986E+03</rscale>
<asrwt>0</asrwt>
<pdfrwt beam="1">  1        2 0.31969787E+00 0.79259253E+03</pdfrwt>
<pdfrwt beam="2">  1       -2 0.86265194E-01 0.79259253E+03</pdfrwt>
<totfact> 0.72584775E+00</totfact>
</mgrwt>
</event>
<event>
 4    5  0.2409888E-007  0.1744202E+04  0.7818608E-02  0.8754046E-01
         -2   -1    0    0    0  501 -0.00000000000E+00  0.00000000000E+00  0.27354272900E+04  0.27354272900E+04  0.25500000000E-02 0.  1.
          2   -1    0    0  501    0  0.00000000000E+00 -0.00000000000E+00 -0.17504687089E+04  0.17504687089E+04  0.25500000000E-02 0. -1.
    8880023    1    1    2    0    0  0.36514021079E+03  0.15732462394E+04 -0.92958505207E+03  0.19764538139E+04  0.65864270000E+03 0.  0.
    8880022    1    1    2    0    0 -0.36514021079E+03 -0.15732462394E+04  0.19145436331E+04  0.25094421849E+04  0.15294330000E+03 0.  0.
<mgrwt>
<rscale>  0 0.17128909E+04</rscale>
<asrwt>0</asrwt>
<pdfrwt beam="1">  1        2 0.26930288E+00 0.17442022E+04</pdfrwt>
<pdfrwt beam="2">  1       -2 0.42083496E+00 0.17442022E+04</pdfrwt>
<totfact> 0.45418668E-02</totfact>
</mgrwt>
</event>
<event>
 4    5  0.2409888E-007  0.9020369E+03  0.7818608E-02  0.9522770E-01
          2   -1    0    0  501    0  0.00000000000E+00  0.00000000000E+00  0.29219340704E+04  0.29219340704E+04  0.25500000000E-02 0. -1.
         -2   -1    0    0    0  501 -0.00000000000E+00 -0.00000000000E+00 -0.81172713171E+03  0.81172713172E+03  0.25500000000E-02 0.  1.
    8880023    1    1    2    0    0  0.60844153439E+03  0.98281592864E+02  0.27124319202E+04  0.28584886741E+04  0.65864270000E+03 0. -1.
    8880022    1    1    2    0    0 -0.60844153439E+03 -0.98281592864E+02 -0.60222498154E+03  0.87517252794E+03  0.15294330000E+03 0.  0.
<mgrwt>
<rscale>  0 0.82625728E+03</rscale>
<asrwt>0</asrwt>
<pdfrwt beam="1">  1        2 0.44952832E+00 0.90203691E+03</pdfrwt>
<pdfrwt beam="2">  1       -2 0.12488110E+00 0.90203691E+03</pdfrwt>
<totfact> 0.96712716E-01</totfact>
</mgrwt>
</event>
<event>
 4    5  0.2409888E-007  0.1105668E+04  0.7818608E-02  0.9254771E-01
          2   -1    0    0  501    0  0.00000000000E+00  0.00000000000E+00  0.14501500735E+04  0.14501500735E+04  0.25500000000E-02 0. -1.
         -2   -1    0    0    0  501 -0.00000000000E+00 -0.00000000000E+00 -0.87887746651E+03  0.87887746652E+03  0.25500000000E-02 0.  1.
    8880023    1    1    2    0    0  0.75809377616E+03  0.46258597748E+03  0.84010680211E+03  0.13886257974E+04  0.65864270000E+03 0.  0.
    8880022    1    1    2    0    0 -0.75809377616E+03 -0.46258597748E+03 -0.26883419512E+03  0.94040174261E+03  0.15294330000E+03 0.  0.
<mgrwt>
<rscale>  0 0.10505548E+04</rscale>
<asrwt>0</asrwt>
<pdfrwt beam="1">  1        2 0.22310001E+00 0.11056682E+04</pdfrwt>
<pdfrwt beam="2">  1       -2 0.13521192E+00 0.11056682E+04</pdfrwt>
<totfact> 0.52278972E+00</totfact>
</mgrwt>
</event>
<event>
 4    5  0.2409888E-007  0.1024131E+04  0.7818608E-02  0.9350646E-01
         -2   -1    0    0    0  501 -0.00000000000E+00  0.00000000000E+00  0.61976410357E+03  0.61976410357E+03  0.25500000000E-02 0.  1.
          2   -1    0    0  501    0  0.00000000000E+00 -0.00000000000E+00 -0.22721897831E+04  0.22721897831E+04  0.25500000000E-02 0. -1.
    8880023    1    1    2    0    0 -0.78123318913E+03 -0.68625330314E+02 -0.18080220511E+04  0.20779289389E+04  0.65864270000E+03 0.  0.
    8880022    1    1    2    0    0  0.78123318913E+03  0.68625330314E+02  0.15559637153E+03  0.81402494778E+03  0.15294330000E+03 0.  0.
<mgrwt>
<rscale>  0 0.96251074E+03</rscale>
<asrwt>0</asrwt>
<pdfrwt beam="1">  1        2 0.34956765E+00 0.10241313E+04</pdfrwt>
<pdfrwt beam="2">  1       -2 0.95348325E-01 0.10241313E+04</pdfrwt>
<totfact> 0.43521001E+00</totfact>
</mgrwt>
</event>
<event>
 4    5  0.2409888E-007  0.8245925E+03  0.7818608E-02  0.9659947E-01
          2   -1    0    0  501    0  0.00000000000E+00  0.00000000000E+00  0.36409116865E+04  0.36409116865E+04  0.25500000000E-02 0. -1.
         -2   -1    0    0    0  501 -0.00000000000E+00 -0.00000000000E+00 -0.20063486154E+03  0.20063486156E+03  0.25500000000E-02 0.  1.
    8880023    1    1    2    0    0 -0.28928644943E+03 -0.40305828240E+03  0.31298477246E+04  0.32366494426E+04  0.65864270000E+03 0. -1.
    8880022    1    1    2    0    0  0.28928644943E+03  0.40305828240E+03  0.31042910036E+03  0.60489710546E+03  0.15294330000E+03 0.  0.
<mgrwt>
<rscale>  0 0.73452452E+03</rscale>
<asrwt>0</asrwt>
<pdfrwt beam="1">  1        2 0.56014021E+00 0.82459253E+03</pdfrwt>
<pdfrwt beam="2">  1       -2 0.30866904E-01 0.82459253E+03</pdfrwt>
<totfact> 0.67185824E+00</totfact>
</mgrwt>
</event>
<event>
 4    5  0.2409888E-007  0.1698700E+04  0.7818608E-02  0.8780744E-01
         -2   -1    0    0    0  501 -0.00000000000E+00  0.00000000000E+00  0.19266398258E+04  0.19266398258E+04  0.25500000000E-02 0.  1.
          2   -1    0    0  501    0  0.00000000000E+00 -0.00000000000E+00 -0.21139118522E+04  0.21139118522E+04  0.25500000000E-02 0. -1.
    8880023    1    1    2    0    0  0.14399942057E+04  0.61497016462E+03 -0.12783494844E+04  0.21259725366E+04  0.65864270000E+03 0.  0.
    8880022    1    1    2    0    0 -0.14399942057E+04 -0.61497016462E+03  0.10910774581E+04  0.19145791414E+04  0.15294330000E+03 0.  0.
<mgrwt>
<rscale>  0 0.16664336E+04</rscale>
<asrwt>0</asrwt>
<pdfrwt beam="1">  1        2 0.32521721E+00 0.16987000E+04</pdfrwt>
<pdfrwt beam="2">  1       -2 0.29640613E+00 0.16987000E+04</pdfrwt>
<totfact> 0.17689247E-01</totfact>
</mgrwt>
</event>
<event>
 4    5  0.2409888E-007  0.7092571E+03  0.7818608E-02  0.9960770E-01
         -2   -1    0    0    0  501 -0.00000000000E+00  0.00000000000E+00  0.54270822394E+03  0.54270822394E+03  0.25500000000E-02 0.  1.
          2   -1    0    0  501    0  0.00000000000E+00 -0.00000000000E+00 -0.38623193007E+04  0.38623193007E+04  0.25500000000E-02 0. -1.
    8880023    1    1    2    0    0 -0.25395756625E+03 -0.68855284592E+02 -0.37839437781E+04  0.38498410639E+04  0.65864270000E+03 0. -1.
    8880022    1    1    2    0    0  0.25395756625E+03  0.68855284592E+02  0.46433270129E+03  0.55518646073E+03  0.15294330000E+03 0.  0.
<mgrwt>
<rscale>  0 0.57404386E+03</rscale>
<asrwt>0</asrwt>
<pdfrwt beam="1">  1        2 0.59420295E+00 0.70925715E+03</pdfrwt>
<pdfrwt beam="2">  1       -2 0.83493575E-01 0.70925715E+03</pdfrwt>
<totfact> 0.61725807E-01</totfact>
</mgrwt>
</event>
<event>
 4    5  0.2825400E-007  0.9247617E+03  0.7818608E-02  0.9487396E-01
          2   -1    0    0  501    0  0.00000000000E+00  0.00000000000E+00  0.18400360026E+04  0.18400360026E+04  0.25500000000E-02 0. -1.
         -2   -1    0    0    0  501 -0.00000000000E+00 -0.00000000000E+00 -0.16797311014E+04  0.16797311014E+04  0.25500000000E-02 0.  1.
    8880023    1    1    2    0    0 -0.60278171531E+02  0.64632850883E+03  0.16478300326E+04  0.18895840870E+04  0.65864270000E+03 0. -1.
    8880022    1    1    2    0    0  0.60278171531E+02 -0.64632850883E+03 -0.14875251314E+04  0.16301830170E+04  0.15294330000E+03 0.  0.
<mgrwt>
<rscale>  0 0.85219461E+03</rscale>
<asrwt>0</asrwt>
<pdfrwt beam="1">  1        2 0.28308246E+00 0.92476170E+03</pdfrwt>
<pdfrwt beam="2">  1       -2 0.25842017E+00 0.92476170E+03</pdfrwt>
<totfact> 0.47497677E-01</totfact>
</mgrwt>
</event>
<event>
 4    5  0.2409888E-007  0.1218155E+04  0.7818608E-02  0.9139674E-01
         -2   -1    0    0    0  501 -0.00000000000E+00  0.00000000000E+00  0.92875914208E+03  0.92875914208E+03  0.25500000000E-02 0.  1.
          2   -1    0    0  501    0  0.00000000000E+00 -0.00000000000E+00 -0.19300440783E+04  0.19300440783E+04  0.25500000000E-02 0. -1.
    8880023    1    1    2    0    0  0.10174518827E+04 -0.12199329314E+03 -0.12989732902E+04  0.17807954717E+04  0.65864270000E+03 0.  0.
    8880022    1    1    2    0    0 -0.10174518827E+04  0.12199329314E+03  0.29768835394E+03  0.10780077487E+04  0.15294330000E+03 0.  0.
<mgrwt>
<rscale>  0 0.11698393E+04</rscale>
<asrwt>0</asrwt>
<pdfrwt beam="1">  1        2 0.29692986E+00 0.12181547E+04</pdfrwt>
<pdfrwt beam="2">  1       -2 0.14288602E+00 0.12181547E+04</pdfrwt>
<totfact> 0.24178606E+00</totfact>
</mgrwt>
</event>
<event>
 4    5  0.2409888E-007  0.1030368E+04  0.7818608E-02  0.9342862E-01
          2   -1    0    0  501    0  0.00000000000E+00  0.00000000000E+00  0.11471781456E+04  0.11471781456E+04  0.25500000000E-02 0. -1.
         -2   -1    0    0    0  501 -0.00000000000E+00 -0.00000000000E+00 -0.21187654399E+04  0.21187654399E+04  0.25500000000E-02 0.  1.
    8880023    1    1    2    0    0 -0.70363153218E+03  0.36435044614E+03  0.80965650527E+03  0.13104207124E+04  0.65864270000E+03 0.  0.
    8880022    1    1    2    0    0  0.70363153218E+03 -0.36435044614E+03 -0.17812437996E+04  0.19555228731E+04  0.15294330000E+03 0.  0.
<mgrwt>
<rscale>  0 0.96930848E+03</rscale>
<asrwt>0</asrwt>
<pdfrwt beam="1">  1        2 0.17648895E+00 0.10303683E+04</pdfrwt>
<pdfrwt beam="2">  1       -2 0.32596391E+00 0.10303683E+04</pdfrwt>
<totfact> 0.44962789E-01</totfact>
</mgrwt>
</event>
<event>
 4    5  0.2409888E-007  0.6688696E+03  0.7818608E-02  0.1016487E+00
         -2   -1    0    0    0  501 -0.00000000000E+00  0.00000000000E+00  0.25947828735E+03  0.25947828736E+03  0.25500000000E-02 0.  1.
          2   -1    0    0  501    0  0.00000000000E+00 -0.00000000000E+00 -0.15796610500E+04  0.15796610500E+04  0.25500000000E-02 0. -1.
    8880023    1    1    2    0    0 -0.89559277864E+02  0.74534612085E+02 -0.14569753179E+04  0.16031729651E+04  0.65864270000E+03 0. -1.
    8880022    1    1    2    0    0  0.89559277864E+02 -0.74534612085E+02  0.13679255528E+03  0.23596637228E+03  0.15294330000E+03 0.  0.
<mgrwt>
<rscale>  0 0.48976101E+03</rscale>
<asrwt>0</asrwt>
<pdfrwt beam="1">  1        2 0.24302477E+00 0.66886955E+03</pdfrwt>
<pdfrwt beam="2">  1       -2 0.39919737E-01 0.66886955E+03</pdfrwt>
<totfact> 0.70026935E+01</totfact>
</mgrwt>
</event>
<event>
 4    5  0.2409888E-007  0.9509789E+03  0.7818608E-02  0.9448707E-01
          2   -1    0    0  501    0  0.00000000000E+00  0.00000000000E+00  0.14540099781E+04  0.14540099781E+04  0.25500000000E-02 0. -1.
         -2   -1    0    0    0  501 -0.00000000000E+00 -0.00000000000E+00 -0.57650427861E+03  0.57650427862E+03  0.25500000000E-02 0.  1.
    8880023    1    1    2    0    0  0.33640611464E+03  0.59781398553E+03  0.92428857354E+03  0.13261486375E+04  0.65864270000E+03 0.  1.
    8880022    1    1    2    0    0 -0.33640611464E+03 -0.59781398553E+03 -0.46782874044E+02  0.70436561925E+03  0.15294330000E+03 0.  0.
<mgrwt>
<rscale>  0 0.88173419E+03</rscale>
<asrwt>0</asrwt>
<pdfrwt beam="1">  1        2 0.22369384E+00 0.95097889E+03</pdfrwt>
<pdfrwt beam="2">  1       -2 0.88692965E-01 0.95097889E+03</pdfrwt>
<totfact> 0.14745692E+01</totfact>
</mgrwt>
</event>
<event>
 4    5  0.2409888E-007  0.8869570E+03  0.7818608E-02  0.9547303E-01
         -2   -1    0    0    0  501 -0.00000000000E+00  0.00000000000E+00  0.20077519789E+04  0.20077519789E+04  0.25500000000E-02 0.  1.
          2   -1    0    0  501    0  0.00000000000E+00 -0.00000000000E+00 -0.37057655364E+03  0.37057655365E+03  0.25500000000E-02 0. -1.
    8880023    1    1    2    0    0 -0.23063273713E+03 -0.54744046514E+03  0.35197095224E+03  0.95424120629E+03  0.65864270000E+03 0.  0.
    8880022    1    1    2    0    0  0.23063273713E+03  0.54744046514E+03  0.12852044730E+04  0.14240873262E+04  0.15294330000E+03 0.  0.
<mgrwt>
<rscale>  0 0.80884439E+03</rscale>
<asrwt>0</asrwt>
<pdfrwt beam="1">  1        2 0.57011776E-01 0.88695700E+03</pdfrwt>
<pdfrwt beam="2">  1       -2 0.30888493E+00 0.88695700E+03</pdfrwt>
<totfact> 0.24866571E+00</totfact>
</mgrwt>
</event>
<event>
 4    5  0.2409888E-007  0.7146386E+03  0.7818608E-02  0.9941163E-01
         -2   -1    0    0    0  501 -0.00000000000E+00  0.00000000000E+00  0.16443591362E+04  0.16443591362E+04  0.25500000000E-02 0.  1.
          2   -1    0    0  501    0  0.00000000000E+00 -0.00000000000E+00 -0.91509657416E+03  0.91509657416E+03  0.25500000000E-02 0. -1.
    8880023    1    1    2    0    0 -0.23538758542E+03 -0.14659733239E+03 -0.75629156040E+03  0.10405216114E+04  0.65864270000E+03 0. -1.
    8880022    1    1    2    0    0  0.23538758542E+03  0.14659733239E+03  0.14855541225E+04  0.15189340990E+04  0.15294330000E+03 0.  0.
<mgrwt>
<rscale>  0 0.58307163E+03</rscale>
<asrwt>0</asrwt>
<pdfrwt beam="1">  1        2 0.14078409E+00 0.71463858E+03</pdfrwt>
<pdfrwt beam="2">  1       -2 0.25297832E+00 0.71463858E+03</pdfrwt>
<totfact> 0.18349649E+00</totfact>
</mgrwt>
</event>
<event>
 4    5  0.2409888E-007  0.9962211E+03  0.7818608E-02  0.9386518E-01
         -2   -1    0    0    0  501 -0.00000000000E+00  0.00000000000E+00  0.74531691464E+03  0.74531691464E+03  0.25500000000E-02 0.  1.
          2   -1    0    0  501    0  0.00000000000E+00 -0.00000000000E+00 -0.12730589765E+04  0.12730589765E+04  0.25500000000E-02 0. -1.
    8880023    1    1    2    0    0  0.33576722382E+03  0.66776244584E+03 -0.72293113954E+03  0.12308882774E+04  0.65864270000E+03 0.  0.
    8880022    1    1    2    0    0 -0.33576722382E+03 -0.66776244584E+03  0.19518907771E+03  0.78748761371E+03  0.15294330000E+03 0.  0.
<mgrwt>
<rscale>  0 0.93193521E+03</rscale>
<asrwt>0</asrwt>
<pdfrwt beam="1">  1        2 0.19585523E+00 0.99622112E+03</pdfrwt>
<pdfrwt beam="2">  1       -2 0.11466414E+00 0.99622112E+03</pdfrwt>
<totfact> 0.10115790E+01</totfact>
</mgrwt>
</event>
<event>
 4    5  0.2409888E-007  0.8947244E+03  0.7818608E-02  0.9534554E-01
          2   -1    0    0  501    0  0.00000000000E+00  0.00000000000E+00  0.17003933366E+04  0.17003933366E+04  0.25500000000E-02 0. -1.
         -2   -1    0    0    0  501 -0.00000000000E+00 -0.00000000000E+00 -0.39509283728E+03  0.39509283729E+03  0.25500000000E-02 0.  1.
    8880023    1    1    2    0    0  0.30286493836E+03  0.52439900163E+03  0.36426262708E+03  0.96603258307E+03  0.65864270000E+03 0.  0.
    8880022    1    1    2    0    0 -0.30286493836E+03 -0.52439900163E+03  0.94103787220E+03  0.11294535908E+04  0.15294330000E+03 0.  0.
<mgrwt>
<rscale>  0 0.81783515E+03</rscale>
<asrwt>0</asrwt>
<pdfrwt beam="1">  1        2 0.26159898E+00 0.89472437E+03</pdfrwt>
<pdfrwt beam="2">  1       -2 0.60783513E-01 0.89472437E+03</pdfrwt>
<totfact> 0.24957446E+01</totfact>
</mgrwt>
</event>
<event>
 4    5  0.2409888E-007  0.1611509E+04  0.7818608E-02  0.8834662E-01
          2   -1    0    0  501    0  0.00000000000E+00  0.00000000000E+00  0.23255438742E+04  0.23255438742E+04  0.25500000000E-02 0. -1.
         -2   -1    0    0    0  501 -0.00000000000E+00 -0.00000000000E+00 -0.11945537094E+04  0.11945537094E+04  0.25500000000E-02 0.  1.
    8880023    1    1    2    0    0  0.12354404899E+04  0.79802049093E+03 -0.73105558581E+02  0.16131659980E+04  0.65864270000E+03 0.  0.
    8880022    1    1    2    0    0 -0.12354404899E+04 -0.79802049093E+03  0.12040957234E+04  0.19069315856E+04  0.15294330000E+03 0.  0.
<mgrwt>
<rscale>  0 0.15772270E+04</rscale>
<asrwt>0</asrwt>
<pdfrwt beam="1">  1        2 0.35777598E+00 0.16115086E+04</pdfrwt>
<pdfrwt beam="2">  1       -2 0.18377750E+00 0.16115086E+04</pdfrwt>
<totfact> 0.69657210E-01</totfact>
</mgrwt>
</event>
<event>
 4    5  0.2409888E-007  0.6856410E+03  0.7818608E-02  0.1006297E+00
         -2   -1    0    0    0  501 -0.00000000000E+00  0.00000000000E+00  0.13190776901E+04  0.13190776901E+04  0.25500000000E-02 0.  1.
          2   -1    0    0  501    0  0.00000000000E+00 -0.00000000000E+00 -0.10544392760E+04  0.10544392760E+04  0.25500000000E-02 0. -1.
    8880023    1    1    2    0    0  0.17009366927E+03 -0.85799604166E+02 -0.92928856098E+03  0.11548510139E+04  0.65864270000E+03 0. -1.
    8880022    1    1    2    0    0 -0.17009366927E+03  0.85799604166E+02  0.11939269751E+04  0.12186659523E+04  0.15294330000E+03 0.  0.
<mgrwt>
<rscale>  0 0.52973153E+03</rscale>
<asrwt>0</asrwt>
<pdfrwt beam="1">  1        2 0.16222143E+00 0.68564104E+03</pdfrwt>
<pdfrwt beam="2">  1       -2 0.20293503E+00 0.68564104E+03</pdfrwt>
<totfact> 0.30659742E+00</totfact>
</mgrwt>
</event>
<event>
 4    5  0.2409888E-007  0.7151782E+03  0.7818608E-02  0.9939252E-01
         -2   -1    0    0    0  501 -0.00000000000E+00  0.00000000000E+00  0.32404477262E+03  0.32404477263E+03  0.25500000000E-02 0.  1.
          2   -1    0    0  501    0  0.00000000000E+00 -0.00000000000E+00 -0.86288257696E+03  0.86288257697E+03  0.25500000000E-02 0. -1.
    8880023    1    1    2    0    0  0.27191716022E+03  0.61079800757E+02 -0.48595535809E+03  0.86465744685E+03  0.65864270000E+03 0.  0.
    8880022    1    1    2    0    0 -0.27191716022E+03 -0.61079800757E+02 -0.52882446255E+02  0.32226990275E+03  0.15294330000E+03 0.  0.
<mgrwt>
<rscale>  0 0.58396100E+03</rscale>
<asrwt>0</asrwt>
<pdfrwt beam="1">  1        2 0.13275116E+00 0.71517822E+03</pdfrwt>
<pdfrwt beam="2">  1       -2 0.49853043E-01 0.71517822E+03</pdfrwt>
<totfact> 0.12006301E+02</totfact>
</mgrwt>
</event>
<event>
 4    5  0.2409888E-007  0.9790135E+03  0.7818608E-02  0.9409544E-01
          2   -1    0    0  501    0  0.00000000000E+00  0.00000000000E+00  0.20901817738E+04  0.20901817738E+04  0.25500000000E-02 0. -1.
         -2   -1    0    0    0  501 -0.00000000000E+00 -0.00000000000E+00 -0.82859402374E+03  0.82859402374E+03  0.25500000000E-02 0.  1.
    8880023    1    1    2    0    0  0.22736921366E+03  0.68772127701E+03  0.17686058494E+04  0.20214930549E+04  0.65864270000E+03 0.  0.
    8880022    1    1    2    0    0 -0.22736921366E+03 -0.68772127701E+03 -0.50701809935E+03  0.89728274264E+03  0.15294330000E+03 0.  0.
<mgrwt>
<rscale>  0 0.91294359E+03</rscale>
<asrwt>0</asrwt>
<pdfrwt beam="1">  1        2 0.32156643E+00 0.97901354E+03</pdfrwt>
<pdfrwt beam="2">  1       -2 0.12747600E+00 0.97901354E+03</pdfrwt>
<totfact> 0.27230021E+00</totfact>
</mgrwt>
</event>
<event>
 4    5  0.2409888E-007  0.9443653E+03  0.7818608E-02  0.9458268E-01
         -2   -1    0    0    0  501 -0.00000000000E+00  0.00000000000E+00  0.65166739236E+03  0.65166739237E+03  0.25500000000E-02 0.  1.
          2   -1    0    0  501    0  0.00000000000E+00 -0.00000000000E+00 -0.20794649284E+04  0.20794649284E+04  0.25500000000E-02 0. -1.
    8880023    1    1    2    0    0  0.66522852818E+03  0.12444555917E+03 -0.17326354006E+04  0.19732844016E+04  0.65864270000E+03 0.  0.
    8880022    1    1    2    0    0 -0.66522852818E+03 -0.12444555917E+03  0.30483786457E+03  0.75784791917E+03  0.15294330000E+03 0.  0.
<mgrwt>
<rscale>  0 0.87431739E+03</rscale>
<asrwt>0</asrwt>
<pdfrwt beam="1">  1        2 0.31991768E+00 0.94436534E+03</pdfrwt>
<pdfrwt beam="2">  1       -2 0.10025652E+00 0.94436534E+03</pdfrwt>
<totfact> 0.49963701E+00</totfact>
</mgrwt>
</event>
<event>
 4    5  0.2409888E-007  0.1040615E+04  0.7818608E-02  0.9330249E-01
         -2   -1    0    0    0  501 -0.00000000000E+00  0.00000000000E+00  0.28261799765E+03  0.28261799766E+03  0.25500000000E-02 0.  1.
          2   -1    0    0  501    0  0.00000000000E+00 -0.00000000000E+00 -0.51527636217E+04  0.51527636217E+04  0.25500000000E-02 0. -1.
    8880023    1    1    2    0    0  0.80557413139E+03  0.10957432300E+02 -0.43303470264E+04  0.44536260869E+04  0.65864270000E+03 0.  0.
    8880022    1    1    2    0    0 -0.80557413139E+03 -0.10957432300E+02 -0.53979859764E+03  0.98175553246E+03  0.15294330000E+03 0.  0.
<mgrwt>
<rscale>  0 0.98045132E+03</rscale>
<asrwt>0</asrwt>
<pdfrwt beam="1">  1        2 0.79273279E+00 0.10406152E+04</pdfrwt>
<pdfrwt beam="2">  1       -2 0.43479696E-01 0.10406152E+04</pdfrwt>
<totfact> 0.11930529E-01</totfact>
</mgrwt>
</event>
<event>
 4    5  0.2409888E-007  0.1141576E+04  0.7818608E-02  0.9216120E-01
          2   -1    0    0  501    0  0.00000000000E+00  0.00000000000E+00  0.24458339803E+04  0.24458339803E+04  0.25500000000E-02 0. -1.
         -2   -1    0    0    0  501 -0.00000000000E+00 -0.00000000000E+00 -0.72676315813E+03  0.72676315813E+03  0.25500000000E-02 0.  1.
    8880023    1    1    2    0    0  0.64436410324E+03  0.67392899027E+03  0.18942309870E+04  0.22116298560E+04  0.65864270000E+03 0.  0.
    8880022    1    1    2    0    0 -0.64436410324E+03 -0.67392899027E+03 -0.17516016489E+03  0.96096728240E+03  0.15294330000E+03 0.  0.
<mgrwt>
<rscale>  0 0.10888586E+04</rscale>
<asrwt>0</asrwt>
<pdfrwt beam="1">  1        2 0.37628214E+00 0.11415759E+04</pdfrwt>
<pdfrwt beam="2">  1       -2 0.11180972E+00 0.11415759E+04</pdfrwt>
<totfact> 0.23345712E+00</totfact>
</mgrwt>
</event>
<event>
 4    5  0.2409888E-007  0.8520220E+03  0.7818608E-02  0.9607915E-01
         -2   -1    0    0    0  501 -0.00000000000E+00  0.00000000000E+00  0.25842900910E+03  0.25842900911E+03  0.25500000000E-02 0.  1.
          2   -1    0    0  501    0  0.00000000000E+00 -0.00000000000E+00 -0.24376992825E+04  0.24376992825E+04  0.25500000000E-02 0. -1.
    8880023    1    1    2    0    0 -0.51559034480E+03  0.16216610098E+03 -0.18698755370E+04  0.20548420811E+04  0.65864270000E+03 0. -1.
    8880022    1    1    2    0    0  0.51559034480E+03 -0.16216610098E+03 -0.30939473645E+03  0.64128621061E+03  0.15294330000E+03 0.  0.
<mgrwt>
<rscale>  0 0.76774493E+03</rscale>
<asrwt>0</asrwt>
<pdfrwt beam="1">  1        2 0.37503064E+00 0.85202198E+03</pdfrwt>
<pdfrwt beam="2">  1       -2 0.39758311E-01 0.85202198E+03</pdfrwt>
<totfact> 0.23285836E+01</totfact>
</mgrwt>
</event>
<event>
 4    5  0.2409888E-007  0.9075534E+03  0.7818608E-02  0.9514013E-01
          2   -1    0    0  501    0  0.00000000000E+00  0.00000000000E+00  0.11725879786E+04  0.11725879786E+04  0.25500000000E-02 0. -1.
         -2   -1    0    0    0  501 -0.00000000000E+00 -0.00000000000E+00 -0.12469760498E+04  0.12469760498E+04  0.25500000000E-02 0.  1.
    8880023    1    1    2    0    0  0.29157276614E+03  0.55211261522E+03  0.88309914245E+03  0.12663006434E+04  0.65864270000E+03 0.  0.
    8880022    1    1    2    0    0 -0.29157276614E+03 -0.55211261522E+03 -0.95748721369E+03  0.11532633850E+04  0.15294330000E+03 0.  0.
<mgrwt>
<rscale>  0 0.83258531E+03</rscale>
<asrwt>0</asrwt>
<pdfrwt beam="1">  1        2 0.18039815E+00 0.90755343E+03</pdfrwt>
<pdfrwt beam="2">  1       -2 0.19184247E+00 0.90755343E+03</pdfrwt>
<totfact> 0.29726335E+00</totfact>
</mgrwt>
</event>
<event>
 4    5  0.2409888E-007  0.9316214E+03  0.7818608E-02  0.9477065E-01
          2   -1    0    0  501    0  0.00000000000E+00  0.00000000000E+00  0.11485292488E+04  0.11485292488E+04  0.25500000000E-02 0. -1.
         -2   -1    0    0    0  501 -0.00000000000E+00 -0.00000000000E+00 -0.76452162402E+03  0.76452162403E+03  0.25500000000E-02 0.  1.
    8880023    1    1    2    0    0  0.61969980627E+03 -0.22378644629E+03  0.70116478439E+03  0.11659976349E+04  0.65864270000E+03 0.  0.
    8880022    1    1    2    0    0 -0.61969980627E+03  0.22378644629E+03 -0.31715715960E+03  0.74705323795E+03  0.15294330000E+03 0.  0.
<mgrwt>
<rscale>  0 0.85996042E+03</rscale>
<asrwt>0</asrwt>
<pdfrwt beam="1">  1        2 0.17669681E+00 0.93162140E+03</pdfrwt>
<pdfrwt beam="2">  1       -2 0.11761871E+00 0.93162140E+03</pdfrwt>
<totfact> 0.11342277E+01</totfact>
</mgrwt>
</event>
<event>
 4    5  0.2409888E-007  0.9291009E+03  0.7818608E-02  0.9480843E-01
         -2   -1    0    0    0  501 -0.00000000000E+00  0.00000000000E+00  0.25527872030E+03  0.25527872032E+03  0.25500000000E-02 0.  1.
          2   -1    0    0  501    0  0.00000000000E+00 -0.00000000000E+00 -0.28958145432E+04  0.28958145432E+04  0.25500000000E-02 0. -1.
    8880023    1    1    2    0    0 -0.11317120715E+03  0.64545380217E+03 -0.20696964216E+04  0.22686718177E+04  0.65864270000E+03 0. -1.
    8880022    1    1    2    0    0  0.11317120715E+03 -0.64545380217E+03 -0.57083940136E+03  0.88242144581E+03  0.15294330000E+03 0. -1.
<mgrwt>
<rscale>  0 0.85711021E+03</rscale>
<asrwt>0</asrwt>
<pdfrwt beam="1">  1        2 0.44550991E+00 0.92910093E+03</pdfrwt>
<pdfrwt beam="2">  1       -2 0.39273651E-01 0.92910093E+03</pdfrwt>
<totfact> 0.12761884E+01</totfact>
</mgrwt>
</event>
<event>
 4    5  0.2409888E-007  0.7539706E+03  0.7818608E-02  0.9820975E-01
         -2   -1    0    0    0  501 -0.00000000000E+00  0.00000000000E+00  0.12370472201E+03  0.12370472203E+03  0.25500000000E-02 0.  1.
          2   -1    0    0  501    0  0.00000000000E+00 -0.00000000000E+00 -0.31126899971E+04  0.31126899971E+04  0.25500000000E-02 0. -1.
    8880023    1    1    2    0    0 -0.21932061972E+03  0.29421060243E+03 -0.24707654809E+04  0.25832447969E+04  0.65864270000E+03 0. -1.
    8880022    1    1    2    0    0  0.21932061972E+03 -0.29421060243E+03 -0.51821979419E+03  0.65314992224E+03  0.15294330000E+03 0. -1.
<mgrwt>
<rscale>  0 0.64248969E+03</rscale>
<asrwt>0</asrwt>
<pdfrwt beam="1">  1        2 0.47887532E+00 0.75397057E+03</pdfrwt>
<pdfrwt beam="2">  1       -2 0.19031498E-01 0.75397057E+03</pdfrwt>
<totfact> 0.36431239E+01</totfact>
</mgrwt>
</event>
<event>
 4    5  0.2409888E-007  0.6721095E+03  0.7818608E-02  0.1014194E+00
          2   -1    0    0  501    0  0.00000000000E+00  0.00000000000E+00  0.54226633859E+03  0.54226633859E+03  0.25500000000E-02 0. -1.
         -2   -1    0    0    0  501 -0.00000000000E+00 -0.00000000000E+00 -0.66542811628E+03  0.66542811629E+03  0.25500000000E-02 0.  1.
    8880023    1    1    2    0    0 -0.44387184048E+02  0.12629605968E+03  0.30169865358E+03  0.73671785687E+03  0.65864270000E+03 0. -1.
    8880022    1    1    2    0    0  0.44387184048E+02 -0.12629605968E+03 -0.42486043127E+03  0.47097659801E+03  0.15294330000E+03 0.  0.
<mgrwt>
<rscale>  0 0.49841406E+03</rscale>
<asrwt>0</asrwt>
<pdfrwt beam="1">  1        2 0.83425591E-01 0.67210946E+03</pdfrwt>
<pdfrwt beam="2">  1       -2 0.10237356E+00 0.67210946E+03</pdfrwt>
<totfact> 0.44514453E+01</totfact>
</mgrwt>
</event>
<event>
 4    5  0.2409888E-007  0.7422054E+03  0.7818608E-02  0.9853569E-01
         -2   -1    0    0    0  501 -0.00000000000E+00  0.00000000000E+00  0.12638158923E+04  0.12638158923E+04  0.25500000000E-02 0.  1.
          2   -1    0    0  501    0  0.00000000000E+00 -0.00000000000E+00 -0.10981467584E+04  0.10981467584E+04  0.25500000000E-02 0. -1.
    8880023    1    1    2    0    0 -0.28401944334E+03 -0.19076591161E+03 -0.93815947097E+03  0.11962491699E+04  0.65864270000E+03 0. -1.
    8880022    1    1    2    0    0  0.28401944334E+03  0.19076591161E+03  0.11038286049E+04  0.11657134807E+04  0.15294330000E+03 0.  0.
<mgrwt>
<rscale>  0 0.62565286E+03</rscale>
<asrwt>0</asrwt>
<pdfrwt beam="1">  1        2 0.16894565E+00 0.74220542E+03</pdfrwt>
<pdfrwt beam="2">  1       -2 0.19443322E+00 0.74220542E+03</pdfrwt>
<totfact> 0.32441590E+00</totfact>
</mgrwt>
</event>
<event>
 4    5  0.2409888E-007  0.6628845E+03  0.7818608E-02  0.1021378E+00
          2   -1    0    0  501    0  0.00000000000E+00  0.00000000000E+00  0.10010339340E+04  0.10010339340E+04  0.25500000000E-02 0. -1.
         -2   -1    0    0    0  501 -0.00000000000E+00 -0.00000000000E+00 -0.44225586018E+03  0.44225586018E+03  0.25500000000E-02 0.  1.
    8880023    1    1    2    0    0 -0.54843999527E+02  0.50968427138E+02  0.86686746785E+03  0.10912722199E+04  0.65864270000E+03 0. -1.
    8880022    1    1    2    0    0  0.54843999527E+02 -0.50968427138E+02 -0.30808939405E+03  0.35201757426E+03  0.15294330000E+03 0.  0.
<mgrwt>
<rscale>  0 0.47192511E+03</rscale>
<asrwt>0</asrwt>
<pdfrwt beam="1">  1        2 0.15400522E+00 0.66288449E+03</pdfrwt>
<pdfrwt beam="2">  1       -2 0.68039363E-01 0.66288449E+03</pdfrwt>
<totfact> 0.50915079E+01</totfact>
</mgrwt>
</event>
<event>
 4    5  0.2409888E-007  0.8074029E+03  0.7818608E-02  0.9695012E-01
          2   -1    0    0  501    0  0.00000000000E+00  0.00000000000E+00  0.22208052798E+04  0.22208052798E+04  0.25500000000E-02 0. -1.
         -2   -1    0    0    0  501 -0.00000000000E+00 -0.00000000000E+00 -0.42337332567E+03  0.42337332567E+03  0.25500000000E-02 0.  1.
    8880023    1    1    2    0    0 -0.19075527191E+03  0.42626473285E+03  0.19654610766E+04  0.21248380282E+04  0.65864270000E+03 0.  0.
    8880022    1    1    2    0    0  0.19075527191E+03 -0.42626473285E+03 -0.16802912243E+03  0.51934057730E+03  0.15294330000E+03 0.  0.
<mgrwt>
<rscale>  0 0.71314535E+03</rscale>
<asrwt>0</asrwt>
<pdfrwt beam="1">  1        2 0.34166235E+00 0.80740287E+03</pdfrwt>
<pdfrwt beam="2">  1       -2 0.65134358E-01 0.80740287E+03</pdfrwt>
<totfact> 0.11272011E+01</totfact>
</mgrwt>
</event>
<event>
 4    5  0.2409888E-007  0.1967826E+04  0.7818608E-02  0.8634975E-01
          2   -1    0    0  501    0  0.00000000000E+00  0.00000000000E+00  0.34522837031E+04  0.34522837031E+04  0.25500000000E-02 0. -1.
         -2   -1    0    0    0  501 -0.00000000000E+00 -0.00000000000E+00 -0.18631353276E+04  0.18631353276E+04  0.25500000000E-02 0.  1.
    8880023    1    1    2    0    0  0.14354641367E+04 -0.11738703230E+04  0.25502741528E+04  0.32212167396E+04  0.65864270000E+03 0.  0.
    8880022    1    1    2    0    0 -0.14354641367E+04  0.11738703230E+04 -0.96112577732E+03  0.20942022910E+04  0.15294330000E+03 0.  0.
<mgrwt>
<rscale>  0 0.19404598E+04</rscale>
<asrwt>0</asrwt>
<pdfrwt beam="1">  1        2 0.53112057E+00 0.19678260E+04</pdfrwt>
<pdfrwt beam="2">  1       -2 0.28663621E+00 0.19678260E+04</pdfrwt>
<totfact> 0.29921664E-02</totfact>
</mgrwt>
</event>
<event>
 4    5  0.2409888E-007  0.7312301E+03  0.7818608E-02  0.9886271E-01
         -2   -1    0    0    0  501 -0.00000000000E+00  0.00000000000E+00  0.39104233583E+03  0.39104233583E+03  0.25500000000E-02 0.  1.
          2   -1    0    0  501    0  0.00000000000E+00 -0.00000000000E+00 -0.14265753336E+04  0.14265753336E+04  0.25500000000E-02 0. -1.
    8880023    1    1    2    0    0  0.92192685040E+02  0.30395346027E+03 -0.12180165110E+04  0.14206553503E+04  0.65864270000E+03 0. -1.
    8880022    1    1    2    0    0 -0.92192685040E+02 -0.30395346027E+03  0.18248351319E+03  0.39696231910E+03  0.15294330000E+03 0.  0.
<mgrwt>
<rscale>  0 0.60931263E+03</rscale>
<asrwt>0</asrwt>
<pdfrwt beam="1">  1        2 0.21947313E+00 0.73123006E+03</pdfrwt>
<pdfrwt beam="2">  1       -2 0.60160360E-01 0.73123006E+03</pdfrwt>
<totfact> 0.36838009E+01</totfact>
</mgrwt>
</event>
<event>
 4    5  0.2409888E-007  0.9138494E+03  0.7818608E-02  0.9504155E-01
         -2   -1    0    0    0  501 -0.00000000000E+00  0.00000000000E+00  0.11127011548E+04  0.11127011548E+04  0.25500000000E-02 0.  1.
          2   -1    0    0  501    0  0.00000000000E+00 -0.00000000000E+00 -0.10866042614E+04  0.10866042614E+04  0.25500000000E-02 0. -1.
    8880023    1    1    2    0    0 -0.15686812142E+03 -0.61376133334E+03 -0.75261955143E+03  0.11838737168E+04  0.65864270000E+03 0.  0.
    8880022    1    1    2    0    0  0.15686812142E+03  0.61376133334E+03  0.77871644482E+03  0.10154316995E+04  0.15294330000E+03 0.  0.
<mgrwt>
<rscale>  0 0.83978198E+03</rscale>
<asrwt>0</asrwt>
<pdfrwt beam="1">  1        2 0.16716989E+00 0.91384943E+03</pdfrwt>
<pdfrwt beam="2">  1       -2 0.17118479E+00 0.91384943E+03</pdfrwt>
<totfact> 0.46444871E+00</totfact>
</mgrwt>
</event>
<event>
 4    5  0.2409888E-007  0.1009332E+04  0.7818608E-02  0.9369450E-01
         -2   -1    0    0    0  501 -0.00000000000E+00  0.00000000000E+00  0.33834821098E+03  0.33834821099E+03  0.25500000000E-02 0.  1.
          2   -1    0    0  501    0  0.00000000000E+00 -0.00000000000E+00 -0.31402763428E+04  0.31402763428E+04  0.25500000000E-02 0. -1.
    8880023    1    1    2    0    0  0.44946791819E+03  0.61880416007E+03 -0.23947843742E+04  0.25987963374E+04  0.65864270000E+03 0. -1.
    8880022    1    1    2    0    0 -0.44946791819E+03 -0.61880416007E+03 -0.40714375764E+03  0.87982821642E+03  0.15294330000E+03 0.  0.
<mgrwt>
<rscale>  0 0.94633073E+03</rscale>
<asrwt>0</asrwt>
<pdfrwt beam="1">  1        2 0.48311942E+00 0.10093316E+04</pdfrwt>
<pdfrwt beam="2">  1       -2 0.52053573E-01 0.10093316E+04</pdfrwt>
<totfact> 0.50652691E+00</totfact>
</mgrwt>
</event>
<event>
 4    5  0.2409888E-007  0.8633010E+03  0.7818608E-02  0.9587718E-01
          2   -1    0    0  501    0  0.00000000000E+00  0.00000000000E+00  0.14796447351E+04  0.14796447351E+04  0.25500000000E-02 0. -1.
         -2   -1    0    0    0  501 -0.00000000000E+00 -0.00000000000E+00 -0.63410481260E+03  0.63410481260E+03  0.25500000000E-02 0.  1.
    8880023    1    1    2    0    0  0.25162290020E+03 -0.49816097265E+03  0.11671284520E+04  0.14517153538E+04  0.65864270000E+03 0. -1.
    8880022    1    1    2    0    0 -0.25162290020E+03  0.49816097265E+03 -0.32158852954E+03  0.66203419392E+03  0.15294330000E+03 0.  0.
<mgrwt>
<rscale>  0 0.78114424E+03</rscale>
<asrwt>0</asrwt>
<pdfrwt beam="1">  1        2 0.22763765E+00 0.86330102E+03</pdfrwt>
<pdfrwt beam="2">  1       -2 0.97554587E-01 0.86330102E+03</pdfrwt>
<totfact> 0.11529454E+01</totfact>
</mgrwt>
</event>
<event>
 4    5  0.2409888E-007  0.1001580E+04  0.7818608E-02  0.9379494E-01
          2   -1    0    0  501    0  0.00000000000E+00  0.00000000000E+00  0.83544227285E+03  0.83544227285E+03  0.25500000000E-02 0. -1.
         -2   -1    0    0    0  501 -0.00000000000E+00 -0.00000000000E+00 -0.10759675636E+04  0.10759675636E+04  0.25500000000E-02 0.  1.
    8880023    1    1    2    0    0 -0.74722156751E+03  0.10493559446E+03  0.20436019001E+03  0.10222156541E+04  0.65864270000E+03 0. -1.
    8880022    1    1    2    0    0  0.74722156751E+03 -0.10493559446E+03 -0.44488548075E+03  0.88919418236E+03  0.15294330000E+03 0.  0.
<mgrwt>
<rscale>  0 0.93782636E+03</rscale>
<asrwt>0</asrwt>
<pdfrwt beam="1">  1        2 0.12852958E+00 0.10015796E+04</pdfrwt>
<pdfrwt beam="2">  1       -2 0.16553347E+00 0.10015796E+04</pdfrwt>
<totfact> 0.73931025E+00</totfact>
</mgrwt>
</event>
<event>
 4    5  0.2409888E-007  0.8272737E+03  0.7818608E-02  0.9654660E-01
         -2   -1    0    0    0  501 -0.00000000000E+00  0.00000000000E+00  0.61712114055E+03  0.61712114055E+03  0.25500000000E-02 0.  1.
          2   -1    0    0  501    0  0.00000000000E+00 -0.00000000000E+00 -0.38167255840E+04  0.38167255840E+04  0.25500000000E-02 0. -1.
    8880023    1    1    2    0    0 -0.42533476393E+03 -0.26393554550E+03 -0.36504599625E+04  0.37430254845E+04  0.65864270000E+03 0. -1.
    8880022    1    1    2    0    0  0.42533476393E+03  0.26393554550E+03  0.45085551906E+03  0.69082124003E+03  0.15294330000E+03 0.  0.
<mgrwt>
<rscale>  0 0.73781669E+03</rscale>
<asrwt>0</asrwt>
<pdfrwt beam="1">  1        2 0.58718853E+00 0.82727374E+03</pdfrwt>
<pdfrwt beam="2">  1       -2 0.94941717E-01 0.82727374E+03</pdfrwt>
<totfact> 0.48223953E-01</totfact>
</mgrwt>
</event>
<event>
 4    5  0.2409888E-007  0.8888284E+03  0.7818608E-02  0.9544209E-01
          2   -1    0    0  501    0  0.00000000000E+00  0.00000000000E+00  0.25761965850E+04  0.25761965850E+04  0.25500000000E-02 0. -1.
         -2   -1    0    0    0  501 -0.00000000000E+00 -0.00000000000E+00 -0.50111666823E+03  0.50111666824E+03  0.25500000000E-02 0.  1.
    8880023    1    1    2    0    0  0.26154292632E+03 -0.53647091426E+03  0.22645398673E+04  0.24327261993E+04  0.65864270000E+03 0.  0.
    8880022    1    1    2    0    0 -0.26154292632E+03  0.53647091426E+03 -0.18945995054E+03  0.64458705388E+03  0.15294330000E+03 0.  0.
<mgrwt>
<rscale>  0 0.81101493E+03</rscale>
<asrwt>0</asrwt>
<pdfrwt beam="1">  1        2 0.39633794E+00 0.88882841E+03</pdfrwt>
<pdfrwt beam="2">  1       -2 0.77094871E-01 0.88882841E+03</pdfrwt>
<totfact> 0.48526967E+00</totfact>
</mgrwt>
</event>
<event>
 4    5  0.2409888E-007  0.7426200E+03  0.7818608E-02  0.9852380E-01
          2   -1    0    0  501    0  0.00000000000E+00  0.00000000000E+00  0.89003001157E+03  0.89003001158E+03  0.25500000000E-02 0. -1.
         -2   -1    0    0    0  501 -0.00000000000E+00 -0.00000000000E+00 -0.81044076414E+03  0.81044076415E+03  0.25500000000E-02 0.  1.
    8880023    1    1    2    0    0  0.63940351301E+00 -0.34303619819E+03  0.67034884600E+03  0.10004259211E+04  0.65864270000E+03 0. -1.
    8880022    1    1    2    0    0 -0.63940351301E+00  0.34303619819E+03 -0.59075959857E+03  0.70004485458E+03  0.15294330000E+03 0.  0.
<mgrwt>
<rscale>  0 0.62625720E+03</rscale>
<asrwt>0</asrwt>
<pdfrwt beam="1">  1        2 0.13692769E+00 0.74261999E+03</pdfrwt>
<pdfrwt beam="2">  1       -2 0.12468320E+00 0.74261999E+03</pdfrwt>
<totfact> 0.14610039E+01</totfact>
</mgrwt>
</event>
<event>
 4    5  0.2409888E-007  0.8463054E+03  0.7818608E-02  0.9618404E-01
          2   -1    0    0  501    0  0.00000000000E+00  0.00000000000E+00  0.71617710481E+03  0.71617710481E+03  0.25500000000E-02 0. -1.
         -2   -1    0    0    0  501 -0.00000000000E+00 -0.00000000000E+00 -0.12947748390E+04  0.12947748390E+04  0.25500000000E-02 0.  1.
    8880023    1    1    2    0    0  0.53012776909E+03  0.37245214361E+02  0.36148809796E+03  0.92027523534E+03  0.65864270000E+03 0.  0.
    8880022    1    1    2    0    0 -0.53012776909E+03 -0.37245214361E+02 -0.94008583215E+03  0.10906767085E+04  0.15294330000E+03 0.  0.
<mgrwt>
<rscale>  0 0.76089997E+03</rscale>
<asrwt>0</asrwt>
<pdfrwt beam="1">  1        2 0.11018109E+00 0.84630542E+03</pdfrwt>
<pdfrwt beam="2">  1       -2 0.19919613E+00 0.84630542E+03</pdfrwt>
<totfact> 0.54075396E+00</totfact>
</mgrwt>
</event>
<event>
 4    5  0.2409888E-007  0.1346338E+04  0.7818608E-02  0.9026543E-01
          2   -1    0    0  501    0  0.00000000000E+00  0.00000000000E+00  0.74581299735E+03  0.74581299736E+03  0.25500000000E-02 0. -1.
         -2   -1    0    0    0  501 -0.00000000000E+00 -0.00000000000E+00 -0.22255365859E+04  0.22255365859E+04  0.25500000000E-02 0.  1.
    8880023    1    1    2    0    0 -0.11315511985E+04 -0.31369865673E+03 -0.50606272198E+03  0.14383061729E+04  0.65864270000E+03 0.  0.
    8880022    1    1    2    0    0  0.11315511985E+04  0.31369865673E+03 -0.97366086658E+03  0.15330434104E+04  0.15294330000E+03 0.  0.
<mgrwt>
<rscale>  0 0.13038181E+04</rscale>
<asrwt>0</asrwt>
<pdfrwt beam="1">  1        2 0.11474046E+00 0.13463377E+04</pdfrwt>
<pdfrwt beam="2">  1       -2 0.34239024E+00 0.13463377E+04</pdfrwt>
<totfact> 0.63615301E-01</totfact>
</mgrwt>
</event>
<event>
 4    5  0.2409888E-007  0.1109236E+04  0.7818608E-02  0.9250842E-01
          2   -1    0    0  501    0  0.00000000000E+00  0.00000000000E+00  0.11201856900E+04  0.11201856900E+04  0.25500000000E-02 0. -1.
         -2   -1    0    0    0  501 -0.00000000000E+00 -0.00000000000E+00 -0.17983148859E+04  0.17983148859E+04  0.25500000000E-02 0.  1.
    8880023    1    1    2    0    0  0.58626011011E+03 -0.67297298966E+03  0.66896201454E+03  0.12953431764E+04  0.65864270000E+03 0.  0.
    8880022    1    1    2    0    0 -0.58626011011E+03  0.67297298966E+03 -0.13470912104E+04  0.16231573996E+04  0.15294330000E+03 0.  0.
<mgrwt>
<rscale>  0 0.10543714E+04</rscale>
<asrwt>0</asrwt>
<pdfrwt beam="1">  1        2 0.17233626E+00 0.11092357E+04</pdfrwt>
<pdfrwt beam="2">  1       -2 0.27666383E+00 0.11092357E+04</pdfrwt>
<totfact> 0.92119420E-01</totfact>
</mgrwt>
</event>
<event>
 4    5  0.2409888E-007  0.8641908E+03  0.7818608E-02  0.9586152E-01
          2   -1    0    0  501    0  0.00000000000E+00  0.00000000000E+00  0.39875704975E+04  0.39875704975E+04  0.25500000000E-02 0. -1.
         -2   -1    0    0    0  501 -0.00000000000E+00 -0.00000000000E+00 -0.73640197565E+03  0.73640197566E+03  0.25500000000E-02 0.  1.
    8880023    1    1    2    0    0 -0.15332541009E+03  0.53805846496E+03  0.38170445059E+04  0.39136497747E+04  0.65864270000E+03 0.  0.
    8880022    1    1    2    0    0  0.15332541009E+03 -0.53805846496E+03 -0.56587598410E+03  0.81032269837E+03  0.15294330000E+03 0.  0.
<mgrwt>
<rscale>  0 0.78219567E+03</rscale>
<asrwt>0</asrwt>
<pdfrwt beam="1">  1        2 0.61347238E+00 0.86419084E+03</pdfrwt>
<pdfrwt beam="2">  1       -2 0.11329261E+00 0.86419084E+03</pdfrwt>
<totfact> 0.23157497E-01</totfact>
</mgrwt>
</event>
<event>
 4    5  0.2409888E-007  0.1111861E+04  0.7818608E-02  0.9247964E-01
         -2   -1    0    0    0  501 -0.00000000000E+00  0.00000000000E+00  0.57986127807E+03  0.57986127807E+03  0.25500000000E-02 0.  1.
          2   -1    0    0  501    0  0.00000000000E+00 -0.00000000000E+00 -0.23059901350E+04  0.23059901350E+04  0.25500000000E-02 0. -1.
    8880023    1    1    2    0    0 -0.34877164116E+03  0.82509540763E+03 -0.16285200544E+04  0.19718802862E+04  0.65864270000E+03 0. -1.
    8880022    1    1    2    0    0  0.34877164116E+03 -0.82509540763E+03 -0.97608802529E+02  0.91397112685E+03  0.15294330000E+03 0.  0.
<mgrwt>
<rscale>  0 0.10571782E+04</rscale>
<asrwt>0</asrwt>
<pdfrwt beam="1">  1        2 0.35476771E+00 0.11118607E+04</pdfrwt>
<pdfrwt beam="2">  1       -2 0.89209429E-01 0.11118607E+04</pdfrwt>
<totfact> 0.48148961E+00</totfact>
</mgrwt>
</event>
<event>
 4    5  0.2409888E-007  0.9304704E+03  0.7818608E-02  0.9478788E-01
          2   -1    0    0  501    0  0.00000000000E+00  0.00000000000E+00  0.28942496548E+04  0.28942496548E+04  0.25500000000E-02 0. -1.
         -2   -1    0    0    0  501 -0.00000000000E+00 -0.00000000000E+00 -0.37470505474E+03  0.37470505475E+03  0.25500000000E-02 0.  1.
    8880023    1    1    2    0    0 -0.31676228211E+03 -0.57587026947E+03  0.24124989931E+04  0.25857158600E+04  0.65864270000E+03 0. -1.
    8880022    1    1    2    0    0  0.31676228211E+03  0.57587026947E+03  0.10704560701E+03  0.68323884961E+03  0.15294330000E+03 0.  0.
<mgrwt>
<rscale>  0 0.85865927E+03</rscale>
<asrwt>0</asrwt>
<pdfrwt beam="1">  1        2 0.44526919E+00 0.93047037E+03</pdfrwt>
<pdfrwt beam="2">  1       -2 0.57646930E-01 0.93047037E+03</pdfrwt>
<totfact> 0.58819679E+00</totfact>
</mgrwt>
</event>
<event>
 4    5  0.2409888E-007  0.2353755E+04  0.7818608E-02  0.8465713E-01
          2   -1    0    0  501    0  0.00000000000E+00  0.00000000000E+00  0.28629730709E+04  0.28629730709E+04  0.25500000000E-02 0. -1.
         -2   -1    0    0    0  501 -0.00000000000E+00 -0.00000000000E+00 -0.21902089806E+04  0.21902089806E+04  0.25500000000E-02 0.  1.
    8880023    1    1    2    0    0 -0.35501572083E+03  0.22316620013E+04 -0.63491898535E+03  0.24378851028E+04  0.65864270000E+03 0.  0.
    8880022    1    1    2    0    0  0.35501572083E+03 -0.22316620013E+04  0.13076830757E+04  0.26152969486E+04  0.15294330000E+03 0.  0.
<mgrwt>
<rscale>  0 0.23312179E+04</rscale>
<asrwt>0</asrwt>
<pdfrwt beam="1">  1        2 0.44045739E+00 0.23537548E+04</pdfrwt>
<pdfrwt beam="2">  1       -2 0.33695523E+00 0.23537548E+04</pdfrwt>
<totfact> 0.33901262E-02</totfact>
</mgrwt>
</event>
<event>
 4    5  0.2409888E-007  0.8683048E+03  0.7818608E-02  0.9578958E-01
         -2   -1    0    0    0  501 -0.00000000000E+00  0.00000000000E+00  0.38736013218E+03  0.38736013218E+03  0.25500000000E-02 0.  1.
          2   -1    0    0  501    0  0.00000000000E+00 -0.00000000000E+00 -0.19186796019E+04  0.19186796019E+04  0.25500000000E-02 0. -1.
    8880023    1    1    2    0    0 -0.39184488502E+03  0.40816743488E+03 -0.14822732328E+04  0.17178728741E+04  0.65864270000E+03 0.  0.
    8880022    1    1    2    0    0  0.39184488502E+03 -0.40816743488E+03 -0.49046236981E+02  0.58816685999E+03  0.15294330000E+03 0.  0.
<mgrwt>
<rscale>  0 0.78704668E+03</rscale>
<asrwt>0</asrwt>
<pdfrwt beam="1">  1        2 0.29518147E+00 0.86830483E+03</pdfrwt>
<pdfrwt beam="2">  1       -2 0.59593867E-01 0.86830483E+03</pdfrwt>
<totfact> 0.19810963E+01</totfact>
</mgrwt>
</event>
<event>
 4    5  0.2409888E-007  0.8125163E+03  0.7818608E-02  0.9684359E-01
          2   -1    0    0  501    0  0.00000000000E+00  0.00000000000E+00  0.48168300952E+03  0.48168300952E+03  0.25500000000E-02 0. -1.
         -2   -1    0    0    0  501 -0.00000000000E+00 -0.00000000000E+00 -0.97344487319E+03  0.97344487319E+03  0.25500000000E-02 0.  1.
    8880023    1    1    2    0    0 -0.38876861337E+03  0.27428351368E+03 -0.97052083478E+02  0.81829199788E+03  0.65864270000E+03 0. -1.
    8880022    1    1    2    0    0  0.38876861337E+03 -0.27428351368E+03 -0.39470978019E+03  0.63683588484E+03  0.15294330000E+03 0.  0.
<mgrwt>
<rscale>  0 0.71955718E+03</rscale>
<asrwt>0</asrwt>
<pdfrwt beam="1">  1        2 0.74105078E-01 0.81251627E+03</pdfrwt>
<pdfrwt beam="2">  1       -2 0.14976075E+00 0.81251627E+03</pdfrwt>
<totfact> 0.19509078E+01</totfact>
</mgrwt>
</event>
<event>
 4    5  0.2409888E-007  0.6748784E+03  0.7818608E-02  0.1012383E+00
          2   -1    0    0  501    0  0.00000000000E+00  0.00000000000E+00  0.13860352397E+04  0.13860352397E+04  0.25500000000E-02 0. -1.
         -2   -1    0    0    0  501 -0.00000000000E+00 -0.00000000000E+00 -0.10240912754E+04  0.10240912754E+04  0.25500000000E-02 0.  1.
    8880023    1    1    2    0    0 -0.13008034725E+03 -0.68773221373E+02  0.12912044606E+04  0.14569385087E+04  0.65864270000E+03 0. -1.
    8880022    1    1    2    0    0  0.13008034725E+03  0.68773221373E+02 -0.92926049629E+03  0.95318800648E+03  0.15294330000E+03 0.  0.
<mgrwt>
<rscale>  0 0.50538427E+03</rscale>
<asrwt>0</asrwt>
<pdfrwt beam="1">  1        2 0.21323619E+00 0.67487840E+03</pdfrwt>
<pdfrwt beam="2">  1       -2 0.15755250E+00 0.67487840E+03</pdfrwt>
<totfact> 0.40173220E+00</totfact>
</mgrwt>
</event>
<event>
 4    5  0.2409888E-007  0.7005755E+03  0.7818608E-02  0.9994822E-01
          2   -1    0    0  501    0  0.00000000000E+00  0.00000000000E+00  0.93339203481E+03  0.93339203481E+03  0.25500000000E-02 0. -1.
         -2   -1    0    0    0  501 -0.00000000000E+00 -0.00000000000E+00 -0.44333133759E+03  0.44333133759E+03  0.25500000000E-02 0.  1.
    8880023    1    1    2    0    0 -0.21615436063E+03  0.10135642580E+03  0.72523872714E+03  0.10083537327E+04  0.65864270000E+03 0. -1.
    8880022    1    1    2    0    0  0.21615436063E+03 -0.10135642580E+03 -0.23517802992E+03  0.36836963969E+03  0.15294330000E+03 0.  0.
<mgrwt>
<rscale>  0 0.55877860E+03</rscale>
<asrwt>0</asrwt>
<pdfrwt beam="1">  1        2 0.14359877E+00 0.70057551E+03</pdfrwt>
<pdfrwt beam="2">  1       -2 0.68204821E-01 0.70057551E+03</pdfrwt>
<totfact> 0.55817590E+01</totfact>
</mgrwt>
</event>
<event>
 4    5  0.2409888E-007  0.9222002E+03  0.7818608E-02  0.9491294E-01
         -2   -1    0    0    0  501 -0.00000000000E+00  0.00000000000E+00  0.51327902488E+03  0.51327902489E+03  0.25500000000E-02 0.  1.
          2   -1    0    0  501    0  0.00000000000E+00 -0.00000000000E+00 -0.22406463149E+04  0.22406463149E+04  0.25500000000E-02 0. -1.
    8880023    1    1    2    0    0 -0.58398862353E+03  0.27495509260E+03 -0.18612607217E+04  0.20771963546E+04  0.65864270000E+03 0. -1.
    8880022    1    1    2    0    0  0.58398862353E+03 -0.27495509260E+03  0.13389343162E+03  0.67672898520E+03  0.15294330000E+03 0.  0.
<mgrwt>
<rscale>  0 0.84928758E+03</rscale>
<asrwt>0</asrwt>
<pdfrwt beam="1">  1        2 0.34471481E+00 0.92220021E+03</pdfrwt>
<pdfrwt beam="2">  1       -2 0.78966005E-01 0.92220021E+03</pdfrwt>
<totfact> 0.70820163E+00</totfact>
</mgrwt>
</event>
<event>
 4    5  0.2409888E-007  0.1351996E+04  0.7818608E-02  0.9021910E-01
         -2   -1    0    0    0  501 -0.00000000000E+00  0.00000000000E+00  0.51717801825E+03  0.51717801825E+03  0.25500000000E-02 0.  1.
          2   -1    0    0  501    0  0.00000000000E+00 -0.00000000000E+00 -0.32492848593E+04  0.32492848593E+04  0.25500000000E-02 0. -1.
    8880023    1    1    2    0    0 -0.11298693934E+04 -0.34275047787E+03 -0.18170945458E+04  0.22648897393E+04  0.65864270000E+03 0.  0.
    8880022    1    1    2    0    0  0.11298693934E+04  0.34275047787E+03 -0.91501229525E+03  0.15015731383E+04  0.15294330000E+03 0.  0.
<mgrwt>
<rscale>  0 0.13096973E+04</rscale>
<asrwt>0</asrwt>
<pdfrwt beam="1">  1        2 0.49988997E+00 0.13519959E+04</pdfrwt>
<pdfrwt beam="2">  1       -2 0.79565851E-01 0.13519959E+04</pdfrwt>
<totfact> 0.16496626E+00</totfact>
</mgrwt>
</event>
<event>
 4    5  0.2409888E-007  0.9019222E+03  0.7818608E-02  0.9522953E-01
         -2   -1    0    0    0  501 -0.00000000000E+00  0.00000000000E+00  0.45265645099E+03  0.45265645099E+03  0.25500000000E-02 0.  1.
          2   -1    0    0  501    0  0.00000000000E+00 -0.00000000000E+00 -0.19170683490E+04  0.19170683490E+04  0.25500000000E-02 0. -1.
    8880023    1    1    2    0    0 -0.61586225431E+03 -0.19158618440E+02 -0.14817153311E+04  0.17346307670E+04  0.65864270000E+03 0. -1.
    8880022    1    1    2    0    0  0.61586225431E+03  0.19158618440E+02  0.17303433129E+02  0.63509403301E+03  0.15294330000E+03 0.  0.
<mgrwt>
<rscale>  0 0.82612542E+03</rscale>
<asrwt>0</asrwt>
<pdfrwt beam="1">  1        2 0.29493359E+00 0.90192216E+03</pdfrwt>
<pdfrwt beam="2">  1       -2 0.69639455E-01 0.90192216E+03</pdfrwt>
<totfact> 0.14147735E+01</totfact>
</mgrwt>
</event>
<event>
 4    5  0.2409888E-007  0.7722220E+03  0.7818608E-02  0.9774435E-01
         -2   -1    0    0    0  501 -0.00000000000E+00  0.00000000000E+00  0.14778198674E+04  0.14778198674E+04  0.25500000000E-02 0.  1.
          2   -1    0    0  501    0  0.00000000000E+00 -0.00000000000E+00 -0.10106860841E+04  0.10106860841E+04  0.25500000000E-02 0. -1.
    8880023    1    1    2    0    0  0.33133480908E+03 -0.22963842443E+03 -0.82280055851E+03  0.11284181526E+04  0.65864270000E+03 0. -1.
    8880022    1    1    2    0    0 -0.33133480908E+03  0.22963842443E+03  0.12899343418E+04  0.13600877989E+04  0.15294330000E+03 0.  0.
<mgrwt>
<rscale>  0 0.66752715E+03</rscale>
<asrwt>0</asrwt>
<pdfrwt beam="1">  1        2 0.15549017E+00 0.77222197E+03</pdfrwt>
<pdfrwt beam="2">  1       -2 0.22735690E+00 0.77222197E+03</pdfrwt>
<totfact> 0.22587688E+00</totfact>
</mgrwt>
</event>
<event>
 4    5  0.2409888E-007  0.6976321E+03  0.7818608E-02  0.1000717E+00
          2   -1    0    0  501    0  0.00000000000E+00  0.00000000000E+00  0.10444830825E+04  0.10444830825E+04  0.25500000000E-02 0. -1.
         -2   -1    0    0    0  501 -0.00000000000E+00 -0.00000000000E+00 -0.48105215148E+03  0.48105215149E+03  0.25500000000E-02 0.  1.
    8880023    1    1    2    0    0 -0.18428916342E+03 -0.13754229426E+03  0.86852152343E+03  0.11140108713E+04  0.65864270000E+03 0. -1.
    8880022    1    1    2    0    0  0.18428916342E+03  0.13754229426E+03 -0.30509059243E+03  0.41152436267E+03  0.15294330000E+03 0.  1.
<mgrwt>
<rscale>  0 0.55336988E+03</rscale>
<asrwt>0</asrwt>
<pdfrwt beam="1">  1        2 0.16068970E+00 0.69763213E+03</pdfrwt>
<pdfrwt beam="2">  1       -2 0.74008024E-01 0.69763213E+03</pdfrwt>
<totfact> 0.39641304E+01</totfact>
</mgrwt>
</event>
<event>
 4    5  0.2409888E-007  0.1420776E+04  0.7818608E-02  0.8967705E-01
         -2   -1    0    0    0  501 -0.00000000000E+00  0.00000000000E+00  0.15674496523E+04  0.15674496523E+04  0.25500000000E-02 0.  1.
          2   -1    0    0  501    0  0.00000000000E+00 -0.00000000000E+00 -0.14997795969E+04  0.14997795969E+04  0.25500000000E-02 0. -1.
    8880023    1    1    2    0    0  0.15009939490E+03  0.12499060403E+04 -0.70101376894E+03  0.15843059832E+04  0.65864270000E+03 0.  0.
    8880022    1    1    2    0    0 -0.15009939490E+03 -0.12499060403E+04  0.76868382427E+03  0.14829232660E+04  0.15294330000E+03 0.  0.
<mgrwt>
<rscale>  0 0.13809766E+04</rscale>
<asrwt>0</asrwt>
<pdfrwt beam="1">  1        2 0.23073532E+00 0.14207762E+04</pdfrwt>
<pdfrwt beam="2">  1       -2 0.24114610E+00 0.14207762E+04</pdfrwt>
<totfact> 0.87715316E-01</totfact>
</mgrwt>
</event>
<event>
 4    5  0.2409888E-007  0.9928259E+03  0.7818608E-02  0.9391004E-01
         -2   -1    0    0    0  501 -0.00000000000E+00  0.00000000000E+00  0.69817774724E+03  0.69817774724E+03  0.25500000000E-02 0.  1.
          2   -1    0    0  501    0  0.00000000000E+00 -0.00000000000E+00 -0.24032833736E+04  0.24032833736E+04  0.25500000000E-02 0. -1.
    8880023    1    1    2    0    0  0.38450061773E+03 -0.63565111480E+03 -0.20427402152E+04  0.22712311326E+04  0.65864270000E+03 0.  0.
    8880022    1    1    2    0    0 -0.38450061773E+03  0.63565111480E+03  0.33763458882E+03  0.83022998823E+03  0.15294330000E+03 0.  0.
<mgrwt>
<rscale>  0 0.92819704E+03</rscale>
<asrwt>0</asrwt>
<pdfrwt beam="1">  1        2 0.36973590E+00 0.99282590E+03</pdfrwt>
<pdfrwt beam="2">  1       -2 0.10741196E+00 0.99282590E+03</pdfrwt>
<totfact> 0.27748214E+00</totfact>
</mgrwt>
</event>
<event>
 4    5  0.2409888E-007  0.1024366E+04  0.7818608E-02  0.9350352E-01
         -2   -1    0    0    0  501 -0.00000000000E+00  0.00000000000E+00  0.48117613746E+03  0.48117613746E+03  0.25500000000E-02 0.  1.
          2   -1    0    0  501    0  0.00000000000E+00 -0.00000000000E+00 -0.28637530017E+04  0.28637530017E+04  0.25500000000E-02 0. -1.
    8880023    1    1    2    0    0 -0.45318601564E+03 -0.64041956934E+03 -0.23284092632E+04  0.25437796078E+04  0.65864270000E+03 0. -1.
    8880022    1    1    2    0    0  0.45318601564E+03  0.64041956934E+03 -0.54167600958E+02  0.80114953134E+03  0.15294330000E+03 0.  0.
<mgrwt>
<rscale>  0 0.96276638E+03</rscale>
<asrwt>0</asrwt>
<pdfrwt beam="1">  1        2 0.44057737E+00 0.10243657E+04</pdfrwt>
<pdfrwt beam="2">  1       -2 0.74027100E-01 0.10243657E+04</pdfrwt>
<totfact> 0.35277373E+00</totfact>
</mgrwt>
</event>
<event>
 4    5  0.2409888E-007  0.9746895E+03  0.7818608E-02  0.9415447E-01
         -2   -1    0    0    0  501 -0.00000000000E+00  0.00000000000E+00  0.86031883914E+03  0.86031883914E+03  0.25500000000E-02 0.  1.
          2   -1    0    0  501    0  0.00000000000E+00 -0.00000000000E+00 -0.13963104767E+04  0.13963104767E+04  0.25500000000E-02 0. -1.
    8880023    1    1    2    0    0  0.41919854543E+03 -0.58350835688E+03 -0.99305473229E+03  0.13914658927E+04  0.65864270000E+03 0.  0.
    8880022    1    1    2    0    0 -0.41919854543E+03  0.58350835688E+03  0.45706309475E+03  0.86516342308E+03  0.15294330000E+03 0.  0.
<mgrwt>
<rscale>  0 0.90815257E+03</rscale>
<asrwt>0</asrwt>
<pdfrwt beam="1">  1        2 0.21481700E+00 0.97468950E+03</pdfrwt>
<pdfrwt beam="2">  1       -2 0.13235674E+00 0.97468950E+03</pdfrwt>
<totfact> 0.60060066E+00</totfact>
</mgrwt>
</event>
<event>
 4    5  0.2409888E-007  0.7453148E+03  0.7818608E-02  0.9844727E-01
          2   -1    0    0  501    0  0.00000000000E+00  0.00000000000E+00  0.21971325758E+04  0.21971325758E+04  0.25500000000E-02 0. -1.
         -2   -1    0    0    0  501 -0.00000000000E+00 -0.00000000000E+00 -0.43408106493E+03  0.43408106494E+03  0.25500000000E-02 0.  1.
    8880023    1    1    2    0    0  0.22091516482E+03 -0.26996374655E+03  0.20323744403E+04  0.21647263121E+04  0.65864270000E+03 0. -1.
    8880022    1    1    2    0    0 -0.22091516482E+03  0.26996374655E+03 -0.26932292939E+03  0.46648732867E+03  0.15294330000E+03 0.  0.
<mgrwt>
<rscale>  0 0.63016474E+03</rscale>
<asrwt>0</asrwt>
<pdfrwt beam="1">  1        2 0.33802039E+00 0.74531479E+03</pdfrwt>
<pdfrwt beam="2">  1       -2 0.66781703E-01 0.74531479E+03</pdfrwt>
<totfact> 0.11110372E+01</totfact>
</mgrwt>
</event>
<event>
 4    5  0.2409888E-007  0.8268866E+03  0.7818608E-02  0.9655421E-01
         -2   -1    0    0    0  501 -0.00000000000E+00  0.00000000000E+00  0.84314180181E+03  0.84314180181E+03  0.25500000000E-02 0.  1.
          2   -1    0    0  501    0  0.00000000000E+00 -0.00000000000E+00 -0.60383128614E+03  0.60383128614E+03  0.25500000000E-02 0. -1.
    8880023    1    1    2    0    0  0.26818297352E+03  0.42191137684E+03 -0.85801720987E+02  0.83132632509E+03  0.65864270000E+03 0.  1.
    8880022    1    1    2    0    0 -0.26818297352E+03 -0.42191137684E+03  0.32511223666E+03  0.61564676287E+03  0.15294330000E+03 0.  0.
<mgrwt>
<rscale>  0 0.73734205E+03</rscale>
<asrwt>0</asrwt>
<pdfrwt beam="1">  1        2 0.92897121E-01 0.82688664E+03</pdfrwt>
<pdfrwt beam="2">  1       -2 0.12971412E+00 0.82688664E+03</pdfrwt>
<totfact> 0.21639520E+01</totfact>
</mgrwt>
</event>
<event>
 4    5  0.2409888E-007  0.6988082E+03  0.7818608E-02  0.1000218E+00
          2   -1    0    0  501    0  0.00000000000E+00  0.00000000000E+00  0.10916431144E+04  0.10916431144E+04  0.25500000000E-02 0. -1.
         -2   -1    0    0    0  501 -0.00000000000E+00 -0.00000000000E+00 -0.34440096363E+03  0.34440096364E+03  0.25500000000E-02 0.  1.
    8880023    1    1    2    0    0  0.69813540874E+02  0.22281998728E+03  0.88266024878E+03  0.11257983826E+04  0.65864270000E+03 0. -1.
    8880022    1    1    2    0    0 -0.69813540874E+02 -0.22281998728E+03 -0.13541809805E+03  0.31024569540E+03  0.15294330000E+03 0.  0.
<mgrwt>
<rscale>  0 0.55554681E+03</rscale>
<asrwt>0</asrwt>
<pdfrwt beam="1">  1        2 0.16794510E+00 0.69880819E+03</pdfrwt>
<pdfrwt beam="2">  1       -2 0.52984763E-01 0.69880819E+03</pdfrwt>
<totfact> 0.75525803E+01</totfact>
</mgrwt>
</event>
<event>
 4    5  0.2409888E-007  0.9576949E+03  0.7818608E-02  0.9439128E-01
          2   -1    0    0  501    0  0.00000000000E+00  0.00000000000E+00  0.16107171295E+04  0.16107171295E+04  0.25500000000E-02 0. -1.
         -2   -1    0    0    0  501 -0.00000000000E+00 -0.00000000000E+00 -0.98827729441E+03  0.98827729442E+03  0.25500000000E-02 0.  1.
    8880023    1    1    2    0    0  0.21808359913E+03  0.66015816776E+03  0.13010315727E+04  0.16155069242E+04  0.65864270000E+03 0. -1.
    8880022    1    1    2    0    0 -0.21808359913E+03 -0.66015816776E+03 -0.67859173765E+03  0.98348749971E+03  0.15294330000E+03 0.  0.
<mgrwt>
<rscale>  0 0.88924363E+03</rscale>
<asrwt>0</asrwt>
<pdfrwt beam="1">  1        2 0.24780263E+00 0.95769487E+03</pdfrwt>
<pdfrwt beam="2">  1       -2 0.15204266E+00 0.95769487E+03</pdfrwt>
<totfact> 0.31750260E+00</totfact>
</mgrwt>
</event>
<event>
 4    5  0.2409888E-007  0.9295341E+03  0.7818608E-02  0.9480192E-01
         -2   -1    0    0    0  501 -0.00000000000E+00  0.00000000000E+00  0.39558652149E+03  0.39558652150E+03  0.25500000000E-02 0.  1.
          2   -1    0    0  501    0  0.00000000000E+00 -0.00000000000E+00 -0.29444084106E+04  0.29444084106E+04  0.25500000000E-02 0. -1.
    8880023    1    1    2    0    0 -0.55357320400E+03 -0.35182405990E+03 -0.24971066589E+04  0.26645028305E+04  0.65864270000E+03 0. -1.
    8880022    1    1    2    0    0  0.55357320400E+03  0.35182405990E+03 -0.51715230186E+02  0.67549210162E+03  0.15294330000E+03 0.  0.
<mgrwt>
<rscale>  0 0.85760033E+03</rscale>
<asrwt>0</asrwt>
<pdfrwt beam="1">  1        2 0.45298590E+00 0.92953411E+03</pdfrwt>
<pdfrwt beam="2">  1       -2 0.60859467E-01 0.92953411E+03</pdfrwt>
<totfact> 0.48909596E+00</totfact>
</mgrwt>
</event>
<event>
 4    5  0.2409888E-007  0.7303656E+03  0.7818608E-02  0.9888956E-01
         -2   -1    0    0    0  501 -0.00000000000E+00  0.00000000000E+00  0.21206877520E+03  0.21206877522E+03  0.25500000000E-02 0.  1.
          2   -1    0    0  501    0  0.00000000000E+00 -0.00000000000E+00 -0.16207679669E+04  0.16207679669E+04  0.25500000000E-02 0. -1.
    8880023    1    1    2    0    0  0.25420805211E+03  0.18708817756E+03 -0.12502969878E+04  0.14479904986E+04  0.65864270000E+03 0. -1.
    8880022    1    1    2    0    0 -0.25420805211E+03 -0.18708817756E+03 -0.15840220383E+03  0.38484624350E+03  0.15294330000E+03 0.  0.
<mgrwt>
<rscale>  0 0.60799521E+03</rscale>
<asrwt>0</asrwt>
<pdfrwt beam="1">  1        2 0.24934891E+00 0.73036561E+03</pdfrwt>
<pdfrwt beam="2">  1       -2 0.32625966E-01 0.73036561E+03</pdfrwt>
<totfact> 0.97155247E+01</totfact>
</mgrwt>
</event>
<event>
 4    5  0.2409888E-007  0.1274728E+04  0.7818608E-02  0.9087697E-01
          2   -1    0    0  501    0  0.00000000000E+00  0.00000000000E+00  0.11741704144E+04  0.11741704144E+04  0.25500000000E-02 0. -1.
         -2   -1    0    0    0  501 -0.00000000000E+00 -0.00000000000E+00 -0.23994789863E+04  0.23994789863E+04  0.25500000000E-02 0.  1.
    8880023    1    1    2    0    0  0.68512472028E+03  0.84954484896E+03  0.62523722563E+03  0.14198077783E+04  0.65864270000E+03 0.  0.
    8880022    1    1    2    0    0 -0.68512472028E+03 -0.84954484896E+03 -0.18505457975E+04  0.21538416224E+04  0.15294330000E+03 0.  0.
<mgrwt>
<rscale>  0 0.12291746E+04</rscale>
<asrwt>0</asrwt>
<pdfrwt beam="1">  1        2 0.18064160E+00 0.12747284E+04</pdfrwt>
<pdfrwt beam="2">  1       -2 0.36915061E+00 0.12747284E+04</pdfrwt>
<totfact> 0.22449546E-01</totfact>
</mgrwt>
</event>
<event>
 4    5  0.3315717E-007  0.1370812E+04  0.7818608E-02  0.9006701E-01
         -2   -1    0    0    0  501 -0.00000000000E+00  0.00000000000E+00  0.30831694418E+04  0.30831694418E+04  0.25500000000E-02 0.  1.
          2   -1    0    0  501    0  0.00000000000E+00 -0.00000000000E+00 -0.21225991727E+04  0.21225991727E+04  0.25500000000E-02 0. -1.
    8880023    1    1    2    0    0 -0.87324162392E+03  0.82629507497E+03 -0.17580152852E+04  0.22292919131E+04  0.65864270000E+03 0. -1.
    8880022    1    1    2    0    0  0.87324162392E+03 -0.82629507497E+03  0.27185855543E+04  0.29764767013E+04  0.15294330000E+03 0.  0.
<mgrwt>
<rscale>  0 0.13292302E+04</rscale>
<asrwt>0</asrwt>
<pdfrwt beam="1">  1        2 0.32655372E+00 0.13708117E+04</pdfrwt>
<pdfrwt beam="2">  1       -2 0.47433376E+00 0.13708117E+04</pdfrwt>
<totfact> 0.13076851E-02</totfact>
</mgrwt>
</event>
<event>
 4    5  0.2409888E-007  0.8327641E+03  0.7818608E-02  0.9643978E-01
          2   -1    0    0  501    0  0.00000000000E+00  0.00000000000E+00  0.22222553906E+04  0.22222553906E+04  0.25500000000E-02 0. -1.
         -2   -1    0    0    0  501 -0.00000000000E+00 -0.00000000000E+00 -0.61811798109E+03  0.61811798109E+03  0.25500000000E-02 0.  1.
    8880023    1    1    2    0    0 -0.18845312604E+03  0.47346730206E+03  0.20070634476E+04  0.21729702611E+04  0.65864270000E+03 0. -1.
    8880022    1    1    2    0    0  0.18845312604E+03 -0.47346730206E+03 -0.40292603807E+03  0.66740311057E+03  0.15294330000E+03 0.  0.
<mgrwt>
<rscale>  0 0.74452567E+03</rscale>
<asrwt>0</asrwt>
<pdfrwt beam="1">  1        2 0.34188545E+00 0.83276412E+03</pdfrwt>
<pdfrwt beam="2">  1       -2 0.95095074E-01 0.83276412E+03</pdfrwt>
<totfact> 0.47949988E+00</totfact>
</mgrwt>
</event>
<event>
 4    5  0.2603969E-007  0.7089350E+03  0.7818608E-02  0.9961977E-01
          2   -1    0    0  501    0  0.00000000000E+00  0.00000000000E+00  0.19294959010E+04  0.19294959010E+04  0.25500000000E-02 0. -1.
         -2   -1    0    0    0  501 -0.00000000000E+00 -0.00000000000E+00 -0.93190762451E+03  0.93190762451E+03  0.25500000000E-02 0.  1.
    8880023    1    1    2    0    0 -0.15251469009E+02  0.26181307308E+03  0.18368541872E+04  0.19689139656E+04  0.65864270000E+03 0.  0.
    8880022    1    1    2    0    0  0.15251469009E+02 -0.26181307308E+03 -0.83926591075E+03  0.89248955989E+03  0.15294330000E+03 0.  1.
<mgrwt>
<rscale>  0 0.57349381E+03</rscale>
<asrwt>0</asrwt>
<pdfrwt beam="1">  1        2 0.29684552E+00 0.70893505E+03</pdfrwt>
<pdfrwt beam="2">  1       -2 0.14337040E+00 0.70893505E+03</pdfrwt>
<totfact> 0.25756736E+00</totfact>
</mgrwt>
</event>
<event>
 4    5  0.2409888E-007  0.7549400E+03  0.7818608E-02  0.9818388E-01
         -2   -1    0    0    0  501 -0.00000000000E+00  0.00000000000E+00  0.67127562821E+03  0.67127562821E+03  0.25500000000E-02 0.  1.
          2   -1    0    0  501    0  0.00000000000E+00 -0.00000000000E+00 -0.12968221598E+04  0.12968221598E+04  0.25500000000E-02 0. -1.
    8880023    1    1    2    0    0 -0.24826077276E+03 -0.27292997822E+03 -0.11086461986E+04  0.13412795324E+04  0.65864270000E+03 0. -1.
    8880022    1    1    2    0    0  0.24826077276E+03  0.27292997822E+03  0.48309966696E+03  0.62681825558E+03  0.15294330000E+03 0.  0.
<mgrwt>
<rscale>  0 0.64385015E+03</rscale>
<asrwt>0</asrwt>
<pdfrwt beam="1">  1        2 0.19951110E+00 0.75493999E+03</pdfrwt>
<pdfrwt beam="2">  1       -2 0.10327317E+00 0.75493999E+03</pdfrwt>
<totfact> 0.12957714E+01</totfact>
</mgrwt>
</event>
<event>
 4    5  0.2409888E-007  0.7549898E+03  0.7818608E-02  0.9818255E-01
          2   -1    0    0  501    0  0.00000000000E+00  0.00000000000E+00  0.13430857230E+04  0.13430857230E+04  0.25500000000E-02 0. -1.
         -2   -1    0    0    0  501 -0.00000000000E+00 -0.00000000000E+00 -0.34611452049E+03  0.34611452050E+03  0.25500000000E-02 0.  1.
    8880023    1    1    2    0    0  0.35189925386E+03 -0.11120417522E+03  0.10424480415E+04  0.12871315313E+04  0.65864270000E+03 0. -1.
    8880022    1    1    2    0    0 -0.35189925386E+03  0.11120417522E+03 -0.45476838929E+02  0.40206871223E+03  0.15294330000E+03 0.  0.
<mgrwt>
<rscale>  0 0.64392000E+03</rscale>
<asrwt>0</asrwt>
<pdfrwt beam="1">  1        2 0.20662857E+00 0.75498984E+03</pdfrwt>
<pdfrwt beam="2">  1       -2 0.53248387E-01 0.75498984E+03</pdfrwt>
<totfact> 0.52863500E+01</totfact>
</mgrwt>
</event>
<event>
 4    5  0.2409888E-007  0.6767437E+03  0.7818608E-02  0.1011229E+00
          2   -1    0    0  501    0  0.00000000000E+00  0.00000000000E+00  0.33531247170E+04  0.33531247170E+04  0.25500000000E-02 0. -1.
         -2   -1    0    0    0  501 -0.00000000000E+00 -0.00000000000E+00 -0.10098179792E+03  0.10098179795E+03  0.25500000000E-02 0.  1.
    8880023    1    1    2    0    0 -0.35840532755E+01 -0.15543162448E+03  0.31336754556E+04  0.32059170143E+04  0.65864270000E+03 0.  0.
    8880022    1    1    2    0    0  0.35840532755E+01  0.15543162448E+03  0.11846746353E+03  0.24818950070E+03  0.15294330000E+03 0.  1.
<mgrwt>
<rscale>  0 0.50989104E+03</rscale>
<asrwt>0</asrwt>
<pdfrwt beam="1">  1        2 0.51586531E+00 0.67674370E+03</pdfrwt>
<pdfrwt beam="2">  1       -2 0.15535662E-01 0.67674370E+03</pdfrwt>
<totfact> 0.36670485E+01</totfact>
</mgrwt>
</event>
<event>
 4    5  0.2409888E-007  0.1201508E+04  0.7818608E-02  0.9155658E-01
         -2   -1    0    0    0  501 -0.00000000000E+00  0.00000000000E+00  0.59197664451E+03  0.59197664452E+03  0.25500000000E-02 0.  1.
          2   -1    0    0  501    0  0.00000000000E+00 -0.00000000000E+00 -0.24036196133E+04  0.24036196133E+04  0.25500000000E-02 0. -1.
    8880023    1    1    2    0    0  0.79113707392E+03 -0.61960767750E+03 -0.42112472428E+03  0.12731723306E+04  0.65864270000E+03 0.  0.
    8880022    1    1    2    0    0 -0.79113707392E+03  0.61960767750E+03 -0.13905182445E+04  0.17224239272E+04  0.15294330000E+03 0.  0.
<mgrwt>
<rscale>  0 0.11523071E+04</rscale>
<asrwt>0</asrwt>
<pdfrwt beam="1">  1        2 0.36978763E+00 0.12015081E+04</pdfrwt>
<pdfrwt beam="2">  1       -2 0.91073331E-01 0.12015081E+04</pdfrwt>
<totfact> 0.40006991E+00</totfact>
</mgrwt>
</event>
<event>
 4    5  0.2409888E-007  0.7562419E+03  0.7818608E-02  0.9814936E-01
         -2   -1    0    0    0  501 -0.00000000000E+00  0.00000000000E+00  0.35892212076E+03  0.35892212077E+03  0.25500000000E-02 0.  1.
          2   -1    0    0  501    0  0.00000000000E+00 -0.00000000000E+00 -0.28094506566E+04  0.28094506566E+04  0.25500000000E-02 0. -1.
    8880023    1    1    2    0    0  0.71921787704E+02 -0.36458040858E+03 -0.26239097901E+04  0.27307149999E+04  0.65864270000E+03 0. -1.
    8880022    1    1    2    0    0 -0.71921787704E+02  0.36458040858E+03  0.17338125422E+03  0.43765777749E+03  0.15294330000E+03 0.  0.
<mgrwt>
<rscale>  0 0.64567132E+03</rscale>
<asrwt>0</asrwt>
<pdfrwt beam="1">  1        2 0.43222316E+00 0.75624191E+03</pdfrwt>
<pdfrwt beam="2">  1       -2 0.55218790E-01 0.75624191E+03</pdfrwt>
<totfact> 0.74405865E+00</totfact>
</mgrwt>
</event>
<event>
 4    5  0.2409888E-007  0.7342749E+03  0.7818608E-02  0.9876949E-01
          2   -1    0    0  501    0  0.00000000000E+00  0.00000000000E+00  0.18899695361E+04  0.18899695361E+04  0.25500000000E-02 0. -1.
         -2   -1    0    0    0  501 -0.00000000000E+00 -0.00000000000E+00 -0.46007128886E+03  0.46007128886E+03  0.25500000000E-02 0.  1.
    8880023    1    1    2    0    0 -0.24867849630E+03  0.20858674623E+03  0.17318553125E+04  0.18810854460E+04  0.65864270000E+03 0. -1.
    8880022    1    1    2    0    0  0.24867849630E+03 -0.20858674623E+03 -0.30195706527E+03  0.46895537901E+03  0.15294330000E+03 0.  0.
<mgrwt>
<rscale>  0 0.61391558E+03</rscale>
<asrwt>0</asrwt>
<pdfrwt beam="1">  1        2 0.29076454E+00 0.73427490E+03</pdfrwt>
<pdfrwt beam="2">  1       -2 0.70780198E-01 0.73427490E+03</pdfrwt>
<totfact> 0.14438196E+01</totfact>
</mgrwt>
</event>
<event>
 4    5  0.2409888E-007  0.9300173E+03  0.7818608E-02  0.9479467E-01
          2   -1    0    0  501    0  0.00000000000E+00  0.00000000000E+00  0.57624961490E+03  0.57624961491E+03  0.25500000000E-02 0. -1.
         -2   -1    0    0    0  501 -0.00000000000E+00 -0.00000000000E+00 -0.22682038239E+04  0.22682038239E+04  0.25500000000E-02 0.  1.
    8880023    1    1    2    0    0 -0.27183110170E+03  0.59768704339E+03  0.94707290733E+02  0.93482705720E+03  0.65864270000E+03 0.  0.
    8880022    1    1    2    0    0  0.27183110170E+03 -0.59768704339E+03 -0.17866614997E+04  0.19096263816E+04  0.15294330000E+03 0.  0.
<mgrwt>
<rscale>  0 0.85814688E+03</rscale>
<asrwt>0</asrwt>
<pdfrwt beam="1">  1        2 0.88653788E-01 0.93001729E+03</pdfrwt>
<pdfrwt beam="2">  1       -2 0.34895443E+00 0.93001729E+03</pdfrwt>
<totfact> 0.84206800E-01</totfact>
</mgrwt>
</event>
<event>
 4    5  0.2409888E-007  0.7460154E+03  0.7818608E-02  0.9842759E-01
         -2   -1    0    0    0  501 -0.00000000000E+00  0.00000000000E+00  0.69082573557E+03  0.69082573558E+03  0.25500000000E-02 0.  1.
          2   -1    0    0  501    0  0.00000000000E+00 -0.00000000000E+00 -0.19681594540E+04  0.19681594540E+04  0.25500000000E-02 0. -1.
    8880023    1    1    2    0    0 -0.58996508504E+02  0.34532319605E+03 -0.18361620195E+04  0.19819257972E+04  0.65864270000E+03 0. -1.
    8880022    1    1    2    0    0  0.58996508504E+02 -0.34532319605E+03  0.55882830102E+03  0.67705939236E+03  0.15294330000E+03 0.  0.
<mgrwt>
<rscale>  0 0.63117481E+03</rscale>
<asrwt>0</asrwt>
<pdfrwt beam="1">  1        2 0.30279376E+00 0.74601535E+03</pdfrwt>
<pdfrwt beam="2">  1       -2 0.10628088E+00 0.74601535E+03</pdfrwt>
<totfact> 0.51474108E+00</totfact>
</mgrwt>
</event>
<event>
 4    5  0.2409888E-007  0.9876302E+03  0.7818608E-02  0.9397923E-01
          2   -1    0    0  501    0  0.00000000000E+00  0.00000000000E+00  0.27921018710E+04  0.27921018710E+04  0.25500000000E-02 0. -1.
         -2   -1    0    0    0  501 -0.00000000000E+00 -0.00000000000E+00 -0.68855480821E+03  0.68855480821E+03  0.25500000000E-02 0.  1.
    8880023    1    1    2    0    0  0.24833334472E+03 -0.69277250362E+03  0.24584566327E+04  0.26494192596E+04  0.65864270000E+03 0.  0.
    8880022    1    1    2    0    0 -0.24833334472E+03  0.69277250362E+03 -0.35490956996E+03  0.83123741959E+03  0.15294330000E+03 0.  0.
<mgrwt>
<rscale>  0 0.92246804E+03</rscale>
<asrwt>0</asrwt>
<pdfrwt beam="1">  1        2 0.42955414E+00 0.98763019E+03</pdfrwt>
<pdfrwt beam="2">  1       -2 0.10593151E+00 0.98763019E+03</pdfrwt>
<totfact> 0.17096837E+00</totfact>
</mgrwt>
</event>
<event>
 4    5  0.2409888E-007  0.1243241E+04  0.7818608E-02  0.9116194E-01
          2   -1    0    0  501    0  0.00000000000E+00  0.00000000000E+00  0.35100039928E+04  0.35100039928E+04  0.25500000000E-02 0. -1.
         -2   -1    0    0    0  501 -0.00000000000E+00 -0.00000000000E+00 -0.63578100014E+03  0.63578100014E+03  0.25500000000E-02 0.  1.
    8880023    1    1    2    0    0 -0.77743095228E+03  0.71234674490E+03  0.28165739374E+04  0.30787555476E+04  0.65864270000E+03 0.  0.
    8880022    1    1    2    0    0  0.77743095228E+03 -0.71234674490E+03  0.57649055169E+02  0.10670294453E+04  0.15294330000E+03 0.  0.
<mgrwt>
<rscale>  0 0.11961944E+04</rscale>
<asrwt>0</asrwt>
<pdfrwt beam="1">  1        2 0.54000062E+00 0.12432405E+04</pdfrwt>
<pdfrwt beam="2">  1       -2 0.97812460E-01 0.12432405E+04</pdfrwt>
<totfact> 0.69253687E-01</totfact>
</mgrwt>
</event>
<event>
 4    5  0.2409888E-007  0.8224264E+03  0.7818608E-02  0.9664252E-01
          2   -1    0    0  501    0  0.00000000000E+00  0.00000000000E+00  0.39555866075E+03  0.39555866075E+03  0.25500000000E-02 0. -1.
         -2   -1    0    0    0  501 -0.00000000000E+00 -0.00000000000E+00 -0.19881503013E+04  0.19881503013E+04  0.25500000000E-02 0.  1.
    8880023    1    1    2    0    0  0.49168039087E+03 -0.28728695423E+02 -0.12972072737E+03  0.83259390946E+03  0.65864270000E+03 0.  0.
    8880022    1    1    2    0    0 -0.49168039087E+03  0.28728695423E+02 -0.14628709131E+04  0.15511150525E+04  0.15294330000E+03 0.  0.
<mgrwt>
<rscale>  0 0.73185688E+03</rscale>
<asrwt>0</asrwt>
<pdfrwt beam="1">  1        2 0.60855180E-01 0.82242638E+03</pdfrwt>
<pdfrwt beam="2">  1       -2 0.30586927E+00 0.82242638E+03</pdfrwt>
<totfact> 0.24300645E+00</totfact>
</mgrwt>
</event>
<event>
 4    5  0.2409888E-007  0.1049465E+04  0.7818608E-02  0.9319525E-01
         -2   -1    0    0    0  501 -0.00000000000E+00  0.00000000000E+00  0.16928009140E+04  0.16928009140E+04  0.25500000000E-02 0.  1.
          2   -1    0    0  501    0  0.00000000000E+00 -0.00000000000E+00 -0.80404707555E+03  0.80404707556E+03  0.25500000000E-02 0. -1.
    8880023    1    1    2    0    0 -0.65468369796E+03  0.48883074290E+03 -0.25781013252E+03  0.10806676225E+04  0.65864270000E+03 0.  0.
    8880022    1    1    2    0    0  0.65468369796E+03 -0.48883074290E+03  0.11465639710E+04  0.14161803671E+04  0.15294330000E+03 0.  0.
<mgrwt>
<rscale>  0 0.99005054E+03</rscale>
<asrwt>0</asrwt>
<pdfrwt beam="1">  1        2 0.12369955E+00 0.10494648E+04</pdfrwt>
<pdfrwt beam="2">  1       -2 0.26043091E+00 0.10494648E+04</pdfrwt>
<totfact> 0.18841176E+00</totfact>
</mgrwt>
</event>
<event>
 4    5  0.2409888E-007  0.9345319E+03  0.7818608E-02  0.9472727E-01
          2   -1    0    0  501    0  0.00000000000E+00  0.00000000000E+00  0.29100862972E+04  0.29100862972E+04  0.25500000000E-02 0. -1.
         -2   -1    0    0    0  501 -0.00000000000E+00 -0.00000000000E+00 -0.22581775432E+03  0.22581775434E+03  0.25500000000E-02 0.  1.
    8880023    1    1    2    0    0 -0.65889135419E+03  0.73497513179E+02  0.16888514727E+04  0.19301733612E+04  0.65864270000E+03 0. -1.
    8880022    1    1    2    0    0  0.65889135419E+03 -0.73497513179E+02  0.99541707012E+03  0.12057306903E+04  0.15294330000E+03 0.  1.
<mgrwt>
<rscale>  0 0.86324720E+03</rscale>
<asrwt>0</asrwt>
<pdfrwt beam="1">  1        2 0.44770558E+00 0.93453192E+03</pdfrwt>
<pdfrwt beam="2">  1       -2 0.34741193E-01 0.93453192E+03</pdfrwt>
<totfact> 0.15837749E+01</totfact>
</mgrwt>
</event>
<event>
 4    5  0.2409888E-007  0.7022405E+03  0.7818608E-02  0.9988031E-01
         -2   -1    0    0    0  501 -0.00000000000E+00  0.00000000000E+00  0.13059654499E+04  0.13059654499E+04  0.25500000000E-02 0.  1.
          2   -1    0    0  501    0  0.00000000000E+00 -0.00000000000E+00 -0.91693017030E+03  0.91693017030E+03  0.25500000000E-02 0. -1.
    8880023    1    1    2    0    0 -0.24328663574E+03 -0.11964551786E+02 -0.76213708722E+03  0.10363371477E+04  0.65864270000E+03 0. -1.
    8880022    1    1    2    0    0  0.24328663574E+03  0.11964551786E+02  0.11511723669E+04  0.11865584726E+04  0.15294330000E+03 0.  0.
<mgrwt>
<rscale>  0 0.56178200E+03</rscale>
<asrwt>0</asrwt>
<pdfrwt beam="1">  1        2 0.14106618E+00 0.70224052E+03</pdfrwt>
<pdfrwt beam="2">  1       -2 0.20091776E+00 0.70224052E+03</pdfrwt>
<totfact> 0.38606772E+00</totfact>
</mgrwt>
</event>
<event>
 4    5  0.2409888E-007  0.1090654E+04  0.7818608E-02  0.9271534E-01
          2   -1    0    0  501    0  0.00000000000E+00  0.00000000000E+00  0.21757433577E+04  0.21757433577E+04  0.25500000000E-02 0. -1.
         -2   -1    0    0    0  501 -0.00000000000E+00 -0.00000000000E+00 -0.74267497578E+03  0.74267497579E+03  0.25500000000E-02 0.  1.
    8880023    1    1    2    0    0  0.88902010543E+02 -0.86476089582E+03  0.16789882993E+04  0.20021305876E+04  0.65864270000E+03 0. -1.
    8880022    1    1    2    0    0 -0.88902010543E+02  0.86476089582E+03 -0.24591991740E+03  0.91628774586E+03  0.15294330000E+03 0.  0.
<mgrwt>
<rscale>  0 0.10344624E+04</rscale>
<asrwt>0</asrwt>
<pdfrwt beam="1">  1        2 0.33472974E+00 0.10906536E+04</pdfrwt>
<pdfrwt beam="2">  1       -2 0.11425769E+00 0.10906536E+04</pdfrwt>
<totfact> 0.31619640E+00</totfact>
</mgrwt>
</event>
<event>
 4    5  0.2409888E-007  0.7781424E+03  0.7818608E-02  0.9760219E-01
         -2   -1    0    0    0  501 -0.00000000000E+00  0.00000000000E+00  0.10091474431E+04  0.10091474431E+04  0.25500000000E-02 0.  1.
          2   -1    0    0  501    0  0.00000000000E+00 -0.00000000000E+00 -0.13293533341E+04  0.13293533341E+04  0.25500000000E-02 0. -1.
    8880023    1    1    2    0    0  0.41337780357E+03 -0.28534072704E+02 -0.11558110919E+04  0.13933430620E+04  0.65864270000E+03 0.  0.
    8880022    1    1    2    0    0 -0.41337780357E+03  0.28534072704E+02  0.83560520099E+03  0.94515771526E+03  0.15294330000E+03 0.  1.
<mgrwt>
<rscale>  0 0.67541837E+03</rscale>
<asrwt>0</asrwt>
<pdfrwt beam="1">  1        2 0.20451590E+00 0.77814241E+03</pdfrwt>
<pdfrwt beam="2">  1       -2 0.15525345E+00 0.77814241E+03</pdfrwt>
<totfact> 0.44294283E+00</totfact>
</mgrwt>
</event>
<event>
 4    5  0.2409888E-007  0.1133312E+04  0.7818608E-02  0.9224843E-01
         -2   -1    0    0    0  501 -0.00000000000E+00  0.00000000000E+00  0.41753768104E+04  0.41753768104E+04  0.25500000000E-02 0.  1.
          2   -1    0    0  501    0  0.00000000000E+00 -0.00000000000E+00 -0.32572948777E+03  0.32572948778E+03  0.25500000000E-02 0. -1.
    8880023    1    1    2    0    0 -0.89744705013E+03 -0.21254355417E+03  0.10333226376E+04  0.15336726671E+04  0.65864270000E+03 0.  0.
    8880022    1    1    2    0    0  0.89744705013E+03  0.21254355417E+03  0.28163246851E+04  0.29674336311E+04  0.15294330000E+03 0.  0.
<mgrwt>
<rscale>  0 0.10800644E+04</rscale>
<asrwt>0</asrwt>
<pdfrwt beam="1">  1        2 0.50112235E-01 0.11333120E+04</pdfrwt>
<pdfrwt beam="2">  1       -2 0.64236559E+00 0.11333120E+04</pdfrwt>
<totfact> 0.34745737E-02</totfact>
</mgrwt>
</event>
<event>
 4    5  0.2409888E-007  0.7183167E+03  0.7818608E-02  0.9928323E-01
          2   -1    0    0  501    0  0.00000000000E+00  0.00000000000E+00  0.90056890934E+03  0.90056890934E+03  0.25500000000E-02 0. -1.
         -2   -1    0    0    0  501 -0.00000000000E+00 -0.00000000000E+00 -0.65996795910E+03  0.65996795911E+03  0.25500000000E-02 0.  1.
    8880023    1    1    2    0    0 -0.28347138565E+03 -0.42575983751E+02  0.69660999010E+03  0.10006220193E+04  0.65864270000E+03 0. -1.
    8880022    1    1    2    0    0  0.28347138565E+03  0.42575983751E+02 -0.45600903986E+03  0.55991484918E+03  0.15294330000E+03 0.  0.
<mgrwt>
<rscale>  0 0.58908046E+03</rscale>
<asrwt>0</asrwt>
<pdfrwt beam="1">  1        2 0.13854906E+00 0.71831675E+03</pdfrwt>
<pdfrwt beam="2">  1       -2 0.10153353E+00 0.71831675E+03</pdfrwt>
<totfact> 0.23769022E+01</totfact>
</mgrwt>
</event>
<event>
 4    5  0.2409888E-007  0.2010037E+04  0.7818608E-02  0.8614468E-01
          2   -1    0    0  501    0  0.00000000000E+00  0.00000000000E+00  0.21029518237E+04  0.21029518237E+04  0.25500000000E-02 0. -1.
         -2   -1    0    0    0  501 -0.00000000000E+00 -0.00000000000E+00 -0.18643667960E+04  0.18643667960E+04  0.25500000000E-02 0.  1.
    8880023    1    1    2    0    0 -0.18523714908E+04 -0.41851986502E+03 -0.17530920128E+03  0.20176675989E+04  0.65864270000E+03 0.  0.
    8880022    1    1    2    0    0  0.18523714908E+04  0.41851986502E+03  0.41389422894E+03  0.19496510208E+04  0.15294330000E+03 0.  0.
<mgrwt>
<rscale>  0 0.19833020E+04</rscale>
<asrwt>0</asrwt>
<pdfrwt beam="1">  1        2 0.32353105E+00 0.20100371E+04</pdfrwt>
<pdfrwt beam="2">  1       -2 0.28682566E+00 0.20100371E+04</pdfrwt>
<totfact> 0.19929828E-01</totfact>
</mgrwt>
</event>
<event>
 4    5  0.2409888E-007  0.6653500E+03  0.7818608E-02  0.1019242E+00
          2   -1    0    0  501    0  0.00000000000E+00  0.00000000000E+00  0.12560807192E+04  0.12560807192E+04  0.25500000000E-02 0. -1.
         -2   -1    0    0    0  501 -0.00000000000E+00 -0.00000000000E+00 -0.28268799183E+03  0.28268799184E+03  0.25500000000E-02 0.  1.
    8880023    1    1    2    0    0  0.86767492872E+02  0.36766852552E+02  0.11227876781E+04  0.13051217474E+04  0.65864270000E+03 0. -1.
    8880022    1    1    2    0    0 -0.86767492872E+02 -0.36766852552E+02 -0.14939495076E+03  0.23364696359E+03  0.15294330000E+03 0.  0.
<mgrwt>
<rscale>  0 0.47961299E+03</rscale>
<asrwt>0</asrwt>
<pdfrwt beam="1">  1        2 0.19324319E+00 0.66534999E+03</pdfrwt>
<pdfrwt beam="2">  1       -2 0.43490460E-01 0.66534999E+03</pdfrwt>
<totfact> 0.90051612E+01</totfact>
</mgrwt>
</event>
<event>
 4    5  0.2409888E-007  0.7356712E+03  0.7818608E-02  0.9872741E-01
          2   -1    0    0  501    0  0.00000000000E+00  0.00000000000E+00  0.12690726565E+04  0.12690726565E+04  0.25500000000E-02 0. -1.
         -2   -1    0    0    0  501 -0.00000000000E+00 -0.00000000000E+00 -0.31880798955E+03  0.31880798956E+03  0.25500000000E-02 0.  1.
    8880023    1    1    2    0    0 -0.11473617552E+03  0.30698120984E+03  0.97955007371E+03  0.12250430222E+04  0.65864270000E+03 0. -1.
    8880022    1    1    2    0    0  0.11473617552E+03 -0.30698120984E+03 -0.29285406794E+02  0.36283762379E+03  0.15294330000E+03 0. -1.
<mgrwt>
<rscale>  0 0.61600760E+03</rscale>
<asrwt>0</asrwt>
<pdfrwt beam="1">  1        2 0.19524195E+00 0.73567116E+03</pdfrwt>
<pdfrwt beam="2">  1       -2 0.49047382E-01 0.73567116E+03</pdfrwt>
<totfact> 0.69109047E+01</totfact>
</mgrwt>
</event>
<event>
 4    5  0.2409888E-007  0.9056228E+03  0.7818608E-02  0.9517065E-01
         -2   -1    0    0    0  501 -0.00000000000E+00  0.00000000000E+00  0.56957717038E+03  0.56957717039E+03  0.25500000000E-02 0.  1.
          2   -1    0    0  501    0  0.00000000000E+00 -0.00000000000E+00 -0.22157317674E+04  0.22157317674E+04  0.25500000000E-02 0. -1.
    8880023    1    1    2    0    0  0.61293700443E+03  0.10320232338E+03 -0.18936189426E+04  0.20990343963E+04  0.65864270000E+03 0.  0.
    8880022    1    1    2    0    0 -0.61293700443E+03 -0.10320232338E+03  0.24746434555E+03  0.68627454148E+03  0.15294330000E+03 0.  0.
<mgrwt>
<rscale>  0 0.83037313E+03</rscale>
<asrwt>0</asrwt>
<pdfrwt beam="1">  1        2 0.34088181E+00 0.90562282E+03</pdfrwt>
<pdfrwt beam="2">  1       -2 0.87627258E-01 0.90562282E+03</pdfrwt>
<totfact> 0.57836354E+00</totfact>
</mgrwt>
</event>
<event>
 4    5  0.2409888E-007  0.6635883E+03  0.7818608E-02  0.1020748E+00
          2   -1    0    0  501    0  0.00000000000E+00  0.00000000000E+00  0.10808740384E+04  0.10808740384E+04  0.25500000000E-02 0. -1.
         -2   -1    0    0    0  501 -0.00000000000E+00 -0.00000000000E+00 -0.47018714422E+03  0.47018714423E+03  0.25500000000E-02 0.  1.
    8880023    1    1    2    0    0 -0.77981614590E+02  0.21403836568E+02  0.95663846954E+03  0.11642622660E+04  0.65864270000E+03 0. -1.
    8880022    1    1    2    0    0  0.77981614590E+02 -0.21403836568E+02 -0.34595157532E+03  0.38679891664E+03  0.15294330000E+03 0.  0.
<mgrwt>
<rscale>  0 0.47417542E+03</rscale>
<asrwt>0</asrwt>
<pdfrwt beam="1">  1        2 0.16628831E+00 0.66358832E+03</pdfrwt>
<pdfrwt beam="2">  1       -2 0.72336484E-01 0.66358832E+03</pdfrwt>
<totfact> 0.39719190E+01</totfact>
</mgrwt>
</event>
<event>
 4    5  0.2409888E-007  0.7239992E+03  0.7818608E-02  0.9909279E-01
         -2   -1    0    0    0  501 -0.00000000000E+00  0.00000000000E+00  0.85689683075E+03  0.85689683076E+03  0.25500000000E-02 0.  1.
          2   -1    0    0  501    0  0.00000000000E+00 -0.00000000000E+00 -0.16698972241E+04  0.16698972241E+04  0.25500000000E-02 0. -1.
    8880023    1    1    2    0    0  0.28909821106E+03 -0.82382325678E+02 -0.15530467929E+04  0.17135136913E+04  0.65864270000E+03 0. -1.
    8880022    1    1    2    0    0 -0.28909821106E+03  0.82382325678E+02  0.74004639954E+03  0.81328036353E+03  0.15294330000E+03 0.  0.
<mgrwt>
<rscale>  0 0.59813674E+03</rscale>
<asrwt>0</asrwt>
<pdfrwt beam="1">  1        2 0.25690726E+00 0.72399919E+03</pdfrwt>
<pdfrwt beam="2">  1       -2 0.13183028E+00 0.72399919E+03</pdfrwt>
<totfact> 0.44149717E+00</totfact>
</mgrwt>
</event>
<event>
 4    5  0.2409888E-007  0.1509191E+04  0.7818608E-02  0.8903173E-01
          2   -1    0    0  501    0  0.00000000000E+00  0.00000000000E+00  0.47387373422E+04  0.47387373422E+04  0.25500000000E-02 0. -1.
         -2   -1    0    0    0  501 -0.00000000000E+00 -0.00000000000E+00 -0.77051415688E+03  0.77051415688E+03  0.25500000000E-02 0.  1.
    8880023    1    1    2    0    0 -0.11743850883E+04 -0.68166385000E+03  0.38528895501E+04  0.41379238794E+04  0.65864270000E+03 0.  0.
    8880022    1    1    2    0    0  0.11743850883E+04  0.68166385000E+03  0.11533363516E+03  0.13713276196E+04  0.15294330000E+03 0.  0.
<mgrwt>
<rscale>  0 0.14721702E+04</rscale>
<asrwt>0</asrwt>
<pdfrwt beam="1">  1        2 0.72903649E+00 0.15091906E+04</pdfrwt>
<pdfrwt beam="2">  1       -2 0.11854064E+00 0.15091906E+04</pdfrwt>
<totfact> 0.37423243E-02</totfact>
</mgrwt>
</event>
<event>
 4    5  0.2409888E-007  0.9841396E+03  0.7818608E-02  0.9402608E-01
          2   -1    0    0  501    0  0.00000000000E+00  0.00000000000E+00  0.27098497944E+04  0.27098497944E+04  0.25500000000E-02 0. -1.
         -2   -1    0    0    0  501 -0.00000000000E+00 -0.00000000000E+00 -0.59477269960E+03  0.59477269960E+03  0.25500000000E-02 0.  1.
    8880023    1    1    2    0    0 -0.72695715163E+03 -0.79081061878E+02  0.23282770103E+04  0.25277271525E+04  0.65864270000E+03 0. -1.
    8880022    1    1    2    0    0  0.72695715163E+03  0.79081061878E+02 -0.21319991549E+03  0.77689534149E+03  0.15294330000E+03 0.  0.
<mgrwt>
<rscale>  0 0.91861326E+03</rscale>
<asrwt>0</asrwt>
<pdfrwt beam="1">  1        2 0.41689997E+00 0.98413958E+03</pdfrwt>
<pdfrwt beam="2">  1       -2 0.91503491E-01 0.98413958E+03</pdfrwt>
<totfact> 0.27069520E+00</totfact>
</mgrwt>
</event>
<event>
 4    5  0.2409888E-007  0.1072085E+04  0.7818608E-02  0.9292792E-01
         -2   -1    0    0    0  501 -0.00000000000E+00  0.00000000000E+00  0.12383584136E+04  0.12383584136E+04  0.25500000000E-02 0.  1.
          2   -1    0    0  501    0  0.00000000000E+00 -0.00000000000E+00 -0.11133773204E+04  0.11133773204E+04  0.25500000000E-02 0. -1.
    8880023    1    1    2    0    0  0.52061157905E+03  0.66672262000E+03 -0.59881095498E+03  0.12279821800E+04  0.65864270000E+03 0. -1.
    8880022    1    1    2    0    0 -0.52061157905E+03 -0.66672262000E+03  0.72379204812E+03  0.11237535540E+04  0.15294330000E+03 0.  0.
<mgrwt>
<rscale>  0 0.10144917E+04</rscale>
<asrwt>0</asrwt>
<pdfrwt beam="1">  1        2 0.17128882E+00 0.10720847E+04</pdfrwt>
<pdfrwt beam="2">  1       -2 0.19051668E+00 0.10720847E+04</pdfrwt>
<totfact> 0.32343275E+00</totfact>
</mgrwt>
</event>
<event>
 4    5  0.2409888E-007  0.7932669E+03  0.7818608E-02  0.9725548E-01
         -2   -1    0    0    0  501 -0.00000000000E+00  0.00000000000E+00  0.55453391864E+03  0.55453391865E+03  0.25500000000E-02 0.  1.
          2   -1    0    0  501    0  0.00000000000E+00 -0.00000000000E+00 -0.88644131267E+03  0.88644131267E+03  0.25500000000E-02 0. -1.
    8880023    1    1    2    0    0  0.29196654317E+03 -0.33199055767E+03 -0.50701998033E+03  0.94145720000E+03  0.65864270000E+03 0.  0.
    8880022    1    1    2    0    0 -0.29196654317E+03  0.33199055767E+03  0.17511258630E+03  0.49951803132E+03  0.15294330000E+03 0.  0.
<mgrwt>
<rscale>  0 0.69515841E+03</rscale>
<asrwt>0</asrwt>
<pdfrwt beam="1">  1        2 0.13637559E+00 0.79326692E+03</pdfrwt>
<pdfrwt beam="2">  1       -2 0.85312910E-01 0.79326692E+03</pdfrwt>
<totfact> 0.36180404E+01</totfact>
</mgrwt>
</event>
<event>
 4    5  0.2409888E-007  0.7082837E+03  0.7818608E-02  0.9964430E-01
         -2   -1    0    0    0  501 -0.00000000000E+00  0.00000000000E+00  0.47217168815E+03  0.47217168815E+03  0.25500000000E-02 0.  1.
          2   -1    0    0  501    0  0.00000000000E+00 -0.00000000000E+00 -0.13577490366E+04  0.13577490366E+04  0.25500000000E-02 0. -1.
    8880023    1    1    2    0    0  0.16240810695E+03  0.20366440695E+03 -0.12002965664E+04  0.13936920885E+04  0.65864270000E+03 0. -1.
    8880022    1    1    2    0    0 -0.16240810695E+03 -0.20366440695E+03  0.31471921802E+03  0.43622863623E+03  0.15294330000E+03 0.  0.
<mgrwt>
<rscale>  0 0.57237795E+03</rscale>
<asrwt>0</asrwt>
<pdfrwt beam="1">  1        2 0.20888447E+00 0.70828369E+03</pdfrwt>
<pdfrwt beam="2">  1       -2 0.72641798E-01 0.70828369E+03</pdfrwt>
<totfact> 0.26909445E+01</totfact>
</mgrwt>
</event>
<event>
 4    5  0.2409888E-007  0.7774116E+03  0.7818608E-02  0.9761953E-01
         -2   -1    0    0    0  501 -0.00000000000E+00  0.00000000000E+00  0.64271384250E+03  0.64271384251E+03  0.25500000000E-02 0.  1.
          2   -1    0    0  501    0  0.00000000000E+00 -0.00000000000E+00 -0.14461326344E+04  0.14461326344E+04  0.25500000000E-02 0. -1.
    8880023    1    1    2    0    0 -0.30389379313E+03  0.27965532880E+03 -0.12433331329E+04  0.14663717217E+04  0.65864270000E+03 0. -1.
    8880022    1    1    2    0    0  0.30389379313E+03 -0.27965532880E+03  0.43991434104E+03  0.62247475523E+03  0.15294330000E+03 0.  0.
<mgrwt>
<rscale>  0 0.67444964E+03</rscale>
<asrwt>0</asrwt>
<pdfrwt beam="1">  1        2 0.22248194E+00 0.77741157E+03</pdfrwt>
<pdfrwt beam="2">  1       -2 0.98879053E-01 0.77741157E+03</pdfrwt>
<totfact> 0.11784012E+01</totfact>
</mgrwt>
</event>
<event>
 4    5  0.2409888E-007  0.6715600E+03  0.7818608E-02  0.1014568E+00
          2   -1    0    0  501    0  0.00000000000E+00  0.00000000000E+00  0.14462172713E+04  0.14462172713E+04  0.25500000000E-02 0. -1.
         -2   -1    0    0    0  501 -0.00000000000E+00 -0.00000000000E+00 -0.32384086283E+03  0.32384086284E+03  0.25500000000E-02 0.  1.
    8880023    1    1    2    0    0  0.23180294817E+02  0.12901668361E+03  0.13242993097E+04  0.14848439307E+04  0.65864270000E+03 0. -1.
    8880022    1    1    2    0    0 -0.23180294817E+02 -0.12901668361E+03 -0.20192290128E+03  0.28521420335E+03  0.15294330000E+03 0.  0.
<mgrwt>
<rscale>  0 0.49698694E+03</rscale>
<asrwt>0</asrwt>
<pdfrwt beam="1">  1        2 0.22249497E+00 0.67156000E+03</pdfrwt>
<pdfrwt beam="2">  1       -2 0.49821671E-01 0.67156000E+03</pdfrwt>
<totfact> 0.53433490E+01</totfact>
</mgrwt>
</event>
<event>
 4    5  0.2409888E-007  0.1135033E+04  0.7818608E-02  0.9223019E-01
         -2   -1    0    0    0  501 -0.00000000000E+00  0.00000000000E+00  0.80761988249E+03  0.80761988250E+03  0.25500000000E-02 0.  1.
          2   -1    0    0  501    0  0.00000000000E+00 -0.00000000000E+00 -0.19858181884E+04  0.19858181884E+04  0.25500000000E-02 0. -1.
    8880023    1    1    2    0    0 -0.88892548410E+03 -0.25357459477E+03 -0.14276329747E+04  0.18238516135E+04  0.65864270000E+03 0.  0.
    8880022    1    1    2    0    0  0.88892548410E+03  0.25357459477E+03  0.24943466877E+03  0.96958645741E+03  0.15294330000E+03 0.  0.
<mgrwt>
<rscale>  0 0.10818963E+04</rscale>
<asrwt>0</asrwt>
<pdfrwt beam="1">  1        2 0.30551049E+00 0.11350325E+04</pdfrwt>
<pdfrwt beam="2">  1       -2 0.12424921E+00 0.11350325E+04</pdfrwt>
<totfact> 0.32545311E+00</totfact>
</mgrwt>
</event>
<event>
 4    5  0.2409888E-007  0.9670765E+03  0.7818608E-02  0.9425959E-01
          2   -1    0    0  501    0  0.00000000000E+00  0.00000000000E+00  0.13288353016E+04  0.13288353016E+04  0.25500000000E-02 0. -1.
         -2   -1    0    0    0  501 -0.00000000000E+00 -0.00000000000E+00 -0.20590641956E+04  0.20590641956E+04  0.25500000000E-02 0.  1.
    8880023    1    1    2    0    0  0.70668036496E+03 -0.45051381576E+02  0.10730566630E+04  0.14445371485E+04  0.65864270000E+03 0. -1.
    8880022    1    1    2    0    0 -0.70668036496E+03  0.45051381576E+02 -0.18032855570E+04  0.19433623487E+04  0.15294330000E+03 0.  0.
<mgrwt>
<rscale>  0 0.89969801E+03</rscale>
<asrwt>0</asrwt>
<pdfrwt beam="1">  1        2 0.20443620E+00 0.96707651E+03</pdfrwt>
<pdfrwt beam="2">  1       -2 0.31677911E+00 0.96707651E+03</pdfrwt>
<totfact> 0.40364847E-01</totfact>
</mgrwt>
</event>
<event>
 4    5  0.2409888E-007  0.1742921E+04  0.7818608E-02  0.8754785E-01
          2   -1    0    0  501    0  0.00000000000E+00  0.00000000000E+00  0.15882139259E+04  0.15882139259E+04  0.25500000000E-02 0. -1.
         -2   -1    0    0    0  501 -0.00000000000E+00 -0.00000000000E+00 -0.18803771544E+04  0.18803771544E+04  0.25500000000E-02 0.  1.
    8880023    1    1    2    0    0  0.14566498559E+04 -0.69436034473E+03  0.24705152561E+03  0.17603436465E+04  0.65864270000E+03 0.  0.
    8880022    1    1    2    0    0 -0.14566498559E+04  0.69436034473E+03 -0.53921475408E+03  0.17082474338E+04  0.15294330000E+03 0.  0.
<mgrwt>
<rscale>  0 0.17115841E+04</rscale>
<asrwt>0</asrwt>
<pdfrwt beam="1">  1        2 0.24434060E+00 0.17429215E+04</pdfrwt>
<pdfrwt beam="2">  1       -2 0.28928879E+00 0.17429215E+04</pdfrwt>
<totfact> 0.38397977E-01</totfact>
</mgrwt>
</event>
<event>
 4    5  0.2409888E-007  0.6687215E+03  0.7818608E-02  0.1016596E+00
          2   -1    0    0  501    0  0.00000000000E+00  0.00000000000E+00  0.44103839907E+04  0.44103839907E+04  0.25500000000E-02 0. -1.
         -2   -1    0    0    0  501 -0.00000000000E+00 -0.00000000000E+00 -0.11483484637E+03  0.11483484640E+03  0.25500000000E-02 0.  1.
    8880023    1    1    2    0    0 -0.79447188878E+02  0.84061496211E+02  0.42809982256E+04  0.43329129006E+04  0.65864270000E+03 0. -1.
    8880022    1    1    2    0    0  0.79447188878E+02 -0.84061496211E+02  0.14550918822E+02  0.19230593652E+03  0.15294330000E+03 0.  0.
<mgrwt>
<rscale>  0 0.48935093E+03</rscale>
<asrwt>0</asrwt>
<pdfrwt beam="1">  1        2 0.67852066E+00 0.66872146E+03</pdfrwt>
<pdfrwt beam="2">  1       -2 0.17666898E-01 0.66872146E+03</pdfrwt>
<totfact> 0.45656155E+00</totfact>
</mgrwt>
</event>
<event>
 4    5  0.2409888E-007  0.1313013E+04  0.7818608E-02  0.9054403E-01
         -2   -1    0    0    0  501 -0.00000000000E+00  0.00000000000E+00  0.11360487963E+04  0.11360487963E+04  0.25500000000E-02 0.  1.
          2   -1    0    0  501    0  0.00000000000E+00 -0.00000000000E+00 -0.19287380057E+04  0.19287380057E+04  0.25500000000E-02 0. -1.
    8880023    1    1    2    0    0  0.24190000959E+03  0.11098096773E+04 -0.12667833345E+04  0.18244844087E+04  0.65864270000E+03 0.  0.
    8880022    1    1    2    0    0 -0.24190000959E+03 -0.11098096773E+04  0.47409412513E+03  0.12403023934E+04  0.15294330000E+03 0.  0.
<mgrwt>
<rscale>  0 0.12691386E+04</rscale>
<asrwt>0</asrwt>
<pdfrwt beam="1">  1        2 0.29672892E+00 0.13130131E+04</pdfrwt>
<pdfrwt beam="2">  1       -2 0.17477674E+00 0.13130131E+04</pdfrwt>
<totfact> 0.13846684E+00</totfact>
</mgrwt>
</event>
<event>
 4    5  0.2409888E-007  0.7038449E+03  0.7818608E-02  0.9981610E-01
          2   -1    0    0  501    0  0.00000000000E+00  0.00000000000E+00  0.20931182323E+04  0.20931182323E+04  0.25500000000E-02 0. -1.
         -2   -1    0    0    0  501 -0.00000000000E+00 -0.00000000000E+00 -0.25431690674E+03  0.25431690675E+03  0.25500000000E-02 0.  1.
    8880023    1    1    2    0    0 -0.19313298873E+03  0.15584328623E+03  0.19199018008E+04  0.20448522226E+04  0.65864270000E+03 0. -1.
    8880022    1    1    2    0    0  0.19313298873E+03 -0.15584328623E+03 -0.81100475303E+02  0.30258291642E+03  0.15294330000E+03 0.  0.
<mgrwt>
<rscale>  0 0.56464018E+03</rscale>
<asrwt>0</asrwt>
<pdfrwt beam="1">  1        2 0.32201819E+00 0.70384493E+03</pdfrwt>
<pdfrwt beam="2">  1       -2 0.39125678E-01 0.70384493E+03</pdfrwt>
<totfact> 0.38058453E+01</totfact>
</mgrwt>
</event>
<event>
 4    5  0.2409888E-007  0.1058126E+04  0.7818608E-02  0.9309175E-01
          2   -1    0    0  501    0  0.00000000000E+00  0.00000000000E+00  0.33316788794E+04  0.33316788794E+04  0.25500000000E-02 0. -1.
         -2   -1    0    0    0  501 -0.00000000000E+00 -0.00000000000E+00 -0.48450332549E+03  0.48450332550E+03  0.25500000000E-02 0.  1.
    8880023    1    1    2    0    0 -0.79915771779E+03 -0.21718293112E+03  0.27762419826E+04  0.29710522102E+04  0.65864270000E+03 0.  0.
    8880022    1    1    2    0    0  0.79915771779E+03  0.21718293112E+03  0.70933571359E+02  0.84512999475E+03  0.15294330000E+03 0.  0.
<mgrwt>
<rscale>  0 0.99942519E+03</rscale>
<asrwt>0</asrwt>
<pdfrwt beam="1">  1        2 0.51256594E+00 0.10581265E+04</pdfrwt>
<pdfrwt beam="2">  1       -2 0.74538979E-01 0.10581265E+04</pdfrwt>
<totfact> 0.17533184E+00</totfact>
</mgrwt>
</event>
<event>
 4    5  0.2409888E-007  0.6796092E+03  0.7818608E-02  0.1009546E+00
          2   -1    0    0  501    0  0.00000000000E+00  0.00000000000E+00  0.13204213898E+04  0.13204213898E+04  0.25500000000E-02 0. -1.
         -2   -1    0    0    0  501 -0.00000000000E+00 -0.00000000000E+00 -0.18040545719E+03  0.18040545720E+03  0.25500000000E-02 0.  1.
    8880023    1    1    2    0    0  0.15603220623E+03 -0.60929814515E+02  0.10622334427E+04  0.12610347278E+04  0.65864270000E+03 0. -1.
    8880022    1    1    2    0    0 -0.15603220623E+03  0.60929814515E+02  0.77782489913E+02  0.23979211920E+03  0.15294330000E+03 0.  0.
<mgrwt>
<rscale>  0 0.51655643E+03</rscale>
<asrwt>0</asrwt>
<pdfrwt beam="1">  1        2 0.20314176E+00 0.67960922E+03</pdfrwt>
<pdfrwt beam="2">  1       -2 0.27754685E-01 0.67960922E+03</pdfrwt>
<totfact> 0.19390395E+02</totfact>
</mgrwt>
</event>
<event>
 4    5  0.2409888E-007  0.1348854E+04  0.7818608E-02  0.9024479E-01
         -2   -1    0    0    0  501 -0.00000000000E+00  0.00000000000E+00  0.66460744673E+03  0.66460744673E+03  0.25500000000E-02 0.  1.
          2   -1    0    0  501    0  0.00000000000E+00 -0.00000000000E+00 -0.32317337244E+04  0.32317337244E+04  0.25500000000E-02 0. -1.
    8880023    1    1    2    0    0 -0.10045153862E+04  0.61363410507E+03 -0.36936461730E+03  0.13985129255E+04  0.65864270000E+03 0.  0.
    8880022    1    1    2    0    0  0.10045153862E+04 -0.61363410507E+03 -0.21977616604E+04  0.24978282457E+04  0.15294330000E+03 0.  0.
<mgrwt>
<rscale>  0 0.13064334E+04</rscale>
<asrwt>0</asrwt>
<pdfrwt beam="1">  1        2 0.49718980E+00 0.13488544E+04</pdfrwt>
<pdfrwt beam="2">  1       -2 0.10224730E+00 0.13488544E+04</pdfrwt>
<totfact> 0.94449252E-01</totfact>
</mgrwt>
</event>
<event>
 4    5  0.2409888E-007  0.1086115E+04  0.7818608E-02  0.9276675E-01
          2   -1    0    0  501    0  0.00000000000E+00  0.00000000000E+00  0.91339289277E+03  0.91339289278E+03  0.25500000000E-02 0. -1.
         -2   -1    0    0    0  501 -0.00000000000E+00 -0.00000000000E+00 -0.14207831275E+04  0.14207831275E+04  0.25500000000E-02 0.  1.
    8880023    1    1    2    0    0  0.36475692324E+03  0.78280737413E+03  0.31603127985E+03  0.11311591286E+04  0.65864270000E+03 0.  0.
    8880022    1    1    2    0    0 -0.36475692324E+03 -0.78280737413E+03 -0.82342151457E+03  0.12030168917E+04  0.15294330000E+03 0.  0.
<mgrwt>
<rscale>  0 0.10295882E+04</rscale>
<asrwt>0</asrwt>
<pdfrwt beam="1">  1        2 0.14052198E+00 0.10861147E+04</pdfrwt>
<pdfrwt beam="2">  1       -2 0.21858202E+00 0.10861147E+04</pdfrwt>
<totfact> 0.28531248E+00</totfact>
</mgrwt>
</event>
<event>
 4    5  0.2409888E-007  0.8698783E+03  0.7818608E-02  0.9576228E-01
         -2   -1    0    0    0  501 -0.00000000000E+00  0.00000000000E+00  0.11332261223E+04  0.11332261223E+04  0.25500000000E-02 0.  1.
          2   -1    0    0  501    0  0.00000000000E+00 -0.00000000000E+00 -0.51345323391E+03  0.51345323392E+03  0.25500000000E-02 0. -1.
    8880023    1    1    2    0    0  0.36202300870E+03  0.43796954330E+03  0.12689137275E+03  0.87908452746E+03  0.65864270000E+03 0. -1.
    8880022    1    1    2    0    0 -0.36202300870E+03 -0.43796954330E+03  0.49288151568E+03  0.76759482880E+03  0.15294330000E+03 0.  1.
<mgrwt>
<rscale>  0 0.78889764E+03</rscale>
<asrwt>0</asrwt>
<pdfrwt beam="1">  1        2 0.78992805E-01 0.86987826E+03</pdfrwt>
<pdfrwt beam="2">  1       -2 0.17434248E+00 0.86987826E+03</pdfrwt>
<totfact> 0.11911293E+01</totfact>
</mgrwt>
</event>
<event>
 4    5  0.2409888E-007  0.6744194E+03  0.7818608E-02  0.1012675E+00
         -2   -1    0    0    0  501 -0.00000000000E+00  0.00000000000E+00  0.22130981755E+04  0.22130981755E+04  0.25500000000E-02 0.  1.
          2   -1    0    0  501    0  0.00000000000E+00 -0.00000000000E+00 -0.13874239714E+04  0.13874239714E+04  0.25500000000E-02 0. -1.
    8880023    1    1    2    0    0  0.28336005497E+02 -0.14222665045E+03 -0.12999450732E+04  0.14644790026E+04  0.65864270000E+03 0. -1.
    8880022    1    1    2    0    0 -0.28336005497E+02  0.14222665045E+03  0.21256192774E+04  0.21360431444E+04  0.15294330000E+03 0.  0.
<mgrwt>
<rscale>  0 0.50425306E+03</rscale>
<asrwt>0</asrwt>
<pdfrwt beam="1">  1        2 0.21344984E+00 0.67441942E+03</pdfrwt>
<pdfrwt beam="2">  1       -2 0.34047664E+00 0.67441942E+03</pdfrwt>
<totfact> 0.28461832E-01</totfact>
</mgrwt>
</event>
<event>
 4    5  0.2409888E-007  0.6640859E+03  0.7818608E-02  0.1020313E+00
          2   -1    0    0  501    0  0.00000000000E+00  0.00000000000E+00  0.73888421592E+03  0.73888421593E+03  0.25500000000E-02 0. -1.
         -2   -1    0    0    0  501 -0.00000000000E+00 -0.00000000000E+00 -0.23824988605E+03  0.23824988606E+03  0.25500000000E-02 0.  1.
    8880023    1    1    2    0    0  0.70588858437E+02 -0.47086222171E+02  0.38871197419E+03  0.76948496047E+03  0.65864270000E+03 0. -1.
    8880022    1    1    2    0    0 -0.70588858437E+02  0.47086222171E+02  0.11192235569E+03  0.20764914152E+03  0.15294330000E+03 0.  1.
<mgrwt>
<rscale>  0 0.47573860E+03</rscale>
<asrwt>0</asrwt>
<pdfrwt beam="1">  1        2 0.11367449E+00 0.66408592E+03</pdfrwt>
<pdfrwt beam="2">  1       -2 0.36653829E-01 0.66408592E+03</pdfrwt>
<totfact> 0.27117904E+02</totfact>
</mgrwt>
</event>
<event>
 4    5  0.2409888E-007  0.9986750E+03  0.7818608E-02  0.9383293E-01
          2   -1    0    0  501    0  0.00000000000E+00  0.00000000000E+00  0.24252800378E+04  0.24252800378E+04  0.25500000000E-02 0. -1.
         -2   -1    0    0    0  501 -0.00000000000E+00 -0.00000000000E+00 -0.70135223797E+03  0.70135223797E+03  0.25500000000E-02 0.  1.
    8880023    1    1    2    0    0 -0.26102407869E+03 -0.70385223542E+03  0.20605629084E+04  0.22898190419E+04  0.65864270000E+03 0.  0.
    8880022    1    1    2    0    0  0.26102407869E+03  0.70385223542E+03 -0.33663510860E+03  0.83681323383E+03  0.15294330000E+03 0.  0.
<mgrwt>
<rscale>  0 0.93463430E+03</rscale>
<asrwt>0</asrwt>
<pdfrwt beam="1">  1        2 0.37312001E+00 0.99867499E+03</pdfrwt>
<pdfrwt beam="2">  1       -2 0.10790034E+00 0.99867499E+03</pdfrwt>
<totfact> 0.26646807E+00</totfact>
</mgrwt>
</event>
<event>
 4    5  0.2409888E-007  0.7008292E+03  0.7818608E-02  0.9993779E-01
         -2   -1    0    0    0  501 -0.00000000000E+00  0.00000000000E+00  0.64935705729E+03  0.64935705730E+03  0.25500000000E-02 0.  1.
          2   -1    0    0  501    0  0.00000000000E+00 -0.00000000000E+00 -0.11730886664E+04  0.11730886664E+04  0.25500000000E-02 0. -1.
    8880023    1    1    2    0    0  0.16696877192E+03  0.17167630159E+03 -0.10276840552E+04  0.12439035521E+04  0.65864270000E+03 0. -1.
    8880022    1    1    2    0    0 -0.16696877192E+03 -0.17167630159E+03  0.50395244613E+03  0.57854217158E+03  0.15294330000E+03 0.  0.
<mgrwt>
<rscale>  0 0.55923871E+03</rscale>
<asrwt>0</asrwt>
<pdfrwt beam="1">  1        2 0.18047518E+00 0.70082917E+03</pdfrwt>
<pdfrwt beam="2">  1       -2 0.99901086E-01 0.70082917E+03</pdfrwt>
<totfact> 0.16681588E+01</totfact>
</mgrwt>
</event>
<event>
 4    5  0.2409888E-007  0.7723452E+03  0.7818608E-02  0.9774136E-01
          2   -1    0    0  501    0  0.00000000000E+00  0.00000000000E+00  0.15213632959E+04  0.15213632959E+04  0.25500000000E-02 0. -1.
         -2   -1    0    0    0  501 -0.00000000000E+00 -0.00000000000E+00 -0.55048765092E+03  0.55048765092E+03  0.25500000000E-02 0.  1.
    8880023    1    1    2    0    0 -0.33680181171E+03  0.22197164471E+03  0.13116160256E+04  0.15221214394E+04  0.65864270000E+03 0.  0.
    8880022    1    1    2    0    0  0.33680181171E+03 -0.22197164471E+03 -0.34074038056E+03  0.54972950747E+03  0.15294330000E+03 0.  0.
<mgrwt>
<rscale>  0 0.66769242E+03</rscale>
<asrwt>0</asrwt>
<pdfrwt beam="1">  1        2 0.23405589E+00 0.77234518E+03</pdfrwt>
<pdfrwt beam="2">  1       -2 0.84690410E-01 0.77234518E+03</pdfrwt>
<totfact> 0.15326938E+01</totfact>
</mgrwt>
</event>
<event>
 4    5  0.2409888E-007  0.1015399E+04  0.7818608E-02  0.9361683E-01
         -2   -1    0    0    0  501 -0.00000000000E+00  0.00000000000E+00  0.45891552428E+03  0.45891552429E+03  0.25500000000E-02 0.  1.
          2   -1    0    0  501    0  0.00000000000E+00 -0.00000000000E+00 -0.33165754089E+04  0.33165754089E+04  0.25500000000E-02 0. -1.
    8880023    1    1    2    0    0  0.53197075021E+03  0.56056350806E+03 -0.28082110895E+04  0.29861486994E+04  0.65864270000E+03 0.  0.
    8880022    1    1    2    0    0 -0.53197075021E+03 -0.56056350806E+03 -0.49448795129E+02  0.78934223376E+03  0.15294330000E+03 0.  0.
<mgrwt>
<rscale>  0 0.95297240E+03</rscale>
<asrwt>0</asrwt>
<pdfrwt beam="1">  1        2 0.51024235E+00 0.10153987E+04</pdfrwt>
<pdfrwt beam="2">  1       -2 0.70602391E-01 0.10153987E+04</pdfrwt>
<totfact> 0.20362059E+00</totfact>
</mgrwt>
</event>
<event>
 4    5  0.2409888E-007  0.6744389E+03  0.7818608E-02  0.1012662E+00
         -2   -1    0    0    0  501 -0.00000000000E+00  0.00000000000E+00  0.89309424357E+03  0.89309424357E+03  0.25500000000E-02 0.  1.
          2   -1    0    0  501    0  0.00000000000E+00 -0.00000000000E+00 -0.46899077961E+03  0.46899077961E+03  0.25500000000E-02 0. -1.
    8880023    1    1    2    0    0 -0.11281584454E+03  0.91269859020E+02 -0.19988995456E+03  0.70343713446E+03  0.65864270000E+03 0. -1.
    8880022    1    1    2    0    0  0.11281584454E+03 -0.91269859020E+02  0.62399341852E+03  0.65864788872E+03  0.15294330000E+03 0.  0.
<mgrwt>
<rscale>  0 0.50430121E+03</rscale>
<asrwt>0</asrwt>
<pdfrwt beam="1">  1        2 0.72152428E-01 0.67443888E+03</pdfrwt>
<pdfrwt beam="2">  1       -2 0.13739911E+00 0.67443888E+03</pdfrwt>
<totfact> 0.25485674E+01</totfact>
</mgrwt>
</event>
<event>
 4    5  0.2409888E-007  0.7029368E+03  0.7818608E-02  0.9985229E-01
          2   -1    0    0  501    0  0.00000000000E+00  0.00000000000E+00  0.31208504828E+04  0.31208504828E+04  0.25500000000E-02 0. -1.
         -2   -1    0    0    0  501 -0.00000000000E+00 -0.00000000000E+00 -0.43402419634E+03  0.43402419634E+03  0.25500000000E-02 0.  1.
    8880023    1    1    2    0    0 -0.10691086750E+03 -0.22108836473E+03  0.30274395582E+04  0.31079753029E+04  0.65864270000E+03 0. -1.
    8880022    1    1    2    0    0  0.10691086750E+03  0.22108836473E+03 -0.34061327172E+03  0.44689937626E+03  0.15294330000E+03 0.  0.
<mgrwt>
<rscale>  0 0.56302669E+03</rscale>
<asrwt>0</asrwt>
<pdfrwt beam="1">  1        2 0.48013086E+00 0.70293684E+03</pdfrwt>
<pdfrwt beam="2">  1       -2 0.66772951E-01 0.70293684E+03</pdfrwt>
<totfact> 0.32527348E+00</totfact>
</mgrwt>
</event>
<event>
 4    5  0.2409888E-007  0.7416810E+03  0.7818608E-02  0.9855077E-01
         -2   -1    0    0    0  501 -0.00000000000E+00  0.00000000000E+00  0.16923943992E+04  0.16923943992E+04  0.25500000000E-02 0.  1.
          2   -1    0    0  501    0  0.00000000000E+00 -0.00000000000E+00 -0.35563882038E+03  0.35563882039E+03  0.25500000000E-02 0. -1.
    8880023    1    1    2    0    0  0.33766530159E+03  0.47567541641E+02  0.90780858673E+02  0.74721609825E+03  0.65864270000E+03 0. -1.
    8880022    1    1    2    0    0 -0.33766530159E+03 -0.47567541641E+02  0.12459747202E+04  0.13008171214E+04  0.15294330000E+03 0.  0.
<mgrwt>
<rscale>  0 0.62488718E+03</rscale>
<asrwt>0</asrwt>
<pdfrwt beam="1">  1        2 0.54713665E-01 0.74168102E+03</pdfrwt>
<pdfrwt beam="2">  1       -2 0.26036837E+00 0.74168102E+03</pdfrwt>
<totfact> 0.51962051E+00</totfact>
</mgrwt>
</event>
<event>
 4    5  0.2409888E-007  0.1831203E+04  0.7818608E-02  0.8705470E-01
         -2   -1    0    0    0  501 -0.00000000000E+00  0.00000000000E+00  0.21861980044E+04  0.21861980044E+04  0.25500000000E-02 0.  1.
          2   -1    0    0  501    0  0.00000000000E+00 -0.00000000000E+00 -0.16582436904E+04  0.16582436904E+04  0.25500000000E-02 0. -1.
    8880023    1    1    2    0    0  0.15465378256E+04  0.72643907607E+03 -0.42804190788E+03  0.18805645584E+04  0.65864270000E+03 0.  0.
    8880022    1    1    2    0    0 -0.15465378256E+04 -0.72643907607E+03  0.95599622192E+03  0.19638771363E+04  0.15294330000E+03 0.  0.
<mgrwt>
<rscale>  0 0.18015610E+04</rscale>
<asrwt>0</asrwt>
<pdfrwt beam="1">  1        2 0.25511441E+00 0.18312027E+04</pdfrwt>
<pdfrwt beam="2">  1       -2 0.33633816E+00 0.18312027E+04</pdfrwt>
<totfact> 0.17805450E-01</totfact>
</mgrwt>
</event>
<event>
 4    5  0.2409888E-007  0.9583161E+03  0.7818608E-02  0.9438249E-01
         -2   -1    0    0    0  501 -0.00000000000E+00  0.00000000000E+00  0.50692237128E+03  0.50692237129E+03  0.25500000000E-02 0.  1.
          2   -1    0    0  501    0  0.00000000000E+00 -0.00000000000E+00 -0.24314448067E+04  0.24314448067E+04  0.25500000000E-02 0. -1.
    8880023    1    1    2    0    0 -0.12293031458E+03 -0.68516255633E+03 -0.20038960128E+04  0.22212539313E+04  0.65864270000E+03 0. -1.
    8880022    1    1    2    0    0  0.12293031458E+03  0.68516255633E+03  0.79373577363E+02  0.71711324673E+03  0.15294330000E+03 0.  0.
<mgrwt>
<rscale>  0 0.88993718E+03</rscale>
<asrwt>0</asrwt>
<pdfrwt beam="1">  1        2 0.37406843E+00 0.95831613E+03</pdfrwt>
<pdfrwt beam="2">  1       -2 0.77988058E-01 0.95831613E+03</pdfrwt>
<totfact> 0.56638921E+00</totfact>
</mgrwt>
</event>
<event>
 4    5  0.2844601E-007  0.1537847E+04  0.7818608E-02  0.8883363E-01
          2   -1    0    0  501    0  0.00000000000E+00  0.00000000000E+00  0.20399574039E+04  0.20399574039E+04  0.25500000000E-02 0. -1.
         -2   -1    0    0    0  501 -0.00000000000E+00 -0.00000000000E+00 -0.21442209870E+04  0.21442209870E+04  0.25500000000E-02 0.  1.
    8880023    1    1    2    0    0  0.58442661559E+03  0.12607971880E+04  0.14359870304E+04  0.21040515621E+04  0.65864270000E+03 0.  0.
    8880022    1    1    2    0    0 -0.58442661559E+03 -0.12607971880E+04 -0.15402506135E+04  0.20801268288E+04  0.15294330000E+03 0.  0.
<mgrwt>
<rscale>  0 0.15016403E+04</rscale>
<asrwt>0</asrwt>
<pdfrwt beam="1">  1        2 0.31383960E+00 0.15378473E+04</pdfrwt>
<pdfrwt beam="2">  1       -2 0.32988015E+00 0.15378473E+04</pdfrwt>
<totfact> 0.12330430E-01</totfact>
</mgrwt>
</event>
<event>
 4    5  0.2409888E-007  0.9432493E+03  0.7818608E-02  0.9459894E-01
          2   -1    0    0  501    0  0.00000000000E+00  0.00000000000E+00  0.19402721868E+04  0.19402721868E+04  0.25500000000E-02 0. -1.
         -2   -1    0    0    0  501 -0.00000000000E+00 -0.00000000000E+00 -0.44272260932E+03  0.44272260932E+03  0.25500000000E-02 0.  1.
    8880023    1    1    2    0    0  0.16648742536E+03  0.65436305275E+03  0.28266203387E+03  0.98469137259E+03  0.65864270000E+03 0.  1.
    8880022    1    1    2    0    0 -0.16648742536E+03 -0.65436305275E+03  0.12148875436E+04  0.13983034235E+04  0.15294330000E+03 0. -1.
<mgrwt>
<rscale>  0 0.87306361E+03</rscale>
<asrwt>0</asrwt>
<pdfrwt beam="1">  1        2 0.29850342E+00 0.94324932E+03</pdfrwt>
<pdfrwt beam="2">  1       -2 0.68111169E-01 0.94324932E+03</pdfrwt>
<totfact> 0.14352554E+01</totfact>
</mgrwt>
</event>
<event>
 4    5  0.2409888E-007  0.9991178E+03  0.7818608E-02  0.9382713E-01
         -2   -1    0    0    0  501 -0.00000000000E+00  0.00000000000E+00  0.15817305328E+04  0.15817305328E+04  0.25500000000E-02 0.  1.
          2   -1    0    0  501    0  0.00000000000E+00 -0.00000000000E+00 -0.51930464079E+03  0.51930464080E+03  0.25500000000E-02 0. -1.
    8880023    1    1    2    0    0 -0.33699779068E+03  0.67146013902E+03  0.83281382218E+03  0.13006980041E+04  0.65864270000E+03 0.  1.
    8880022    1    1    2    0    0  0.33699779068E+03 -0.67146013902E+03  0.22961206981E+03  0.80033716947E+03  0.15294330000E+03 0. -1.
<mgrwt>
<rscale>  0 0.93512115E+03</rscale>
<asrwt>0</asrwt>
<pdfrwt beam="1">  1        2 0.79893022E-01 0.99911783E+03</pdfrwt>
<pdfrwt beam="2">  1       -2 0.24334316E+00 0.99911783E+03</pdfrwt>
<totfact> 0.41573291E+00</totfact>
</mgrwt>
</event>
<event>
 4    5  0.2409888E-007  0.1463042E+04  0.7818608E-02  0.8936184E-01
          2   -1    0    0  501    0  0.00000000000E+00  0.00000000000E+00  0.24320833211E+04  0.24320833211E+04  0.25500000000E-02 0. -1.
         -2   -1    0    0    0  501 -0.00000000000E+00 -0.00000000000E+00 -0.10890827669E+04  0.10890827669E+04  0.25500000000E-02 0.  1.
    8880023    1    1    2    0    0  0.75891181673E+03 -0.10633603971E+04  0.16137897103E+04  0.21782584592E+04  0.65864270000E+03 0.  0.
    8880022    1    1    2    0    0 -0.75891181673E+03  0.10633603971E+04 -0.27078915600E+03  0.13429076289E+04  0.15294330000E+03 0.  0.
<mgrwt>
<rscale>  0 0.14246256E+04</rscale>
<asrwt>0</asrwt>
<pdfrwt beam="1">  1        2 0.37416666E+00 0.14630423E+04</pdfrwt>
<pdfrwt beam="2">  1       -2 0.16755120E+00 0.14630423E+04</pdfrwt>
<totfact> 0.79996419E-01</totfact>
</mgrwt>
</event>
<event>
 4    5  0.2409888E-007  0.6757076E+03  0.7818608E-02  0.1011864E+00
         -2   -1    0    0    0  501 -0.00000000000E+00  0.00000000000E+00  0.17383159551E+03  0.17383159553E+03  0.25500000000E-02 0.  1.
          2   -1    0    0  501    0  0.00000000000E+00 -0.00000000000E+00 -0.27671640979E+04  0.27671640979E+04  0.25500000000E-02 0. -1.
    8880023    1    1    2    0    0 -0.15077596354E+03  0.60952367448E+01 -0.26366173127E+04  0.27218250501E+04  0.65864270000E+03 0. -1.
    8880022    1    1    2    0    0  0.15077596354E+03 -0.60952367448E+01  0.43284810337E+02  0.21917064337E+03  0.15294330000E+03 0.  0.
<mgrwt>
<rscale>  0 0.50740519E+03</rscale>
<asrwt>0</asrwt>
<pdfrwt beam="1">  1        2 0.42571752E+00 0.67570759E+03</pdfrwt>
<pdfrwt beam="2">  1       -2 0.26743324E-01 0.67570759E+03</pdfrwt>
<totfact> 0.32600755E+01</totfact>
</mgrwt>
</event>
<event>
 4    5  0.2409888E-007  0.8523935E+03  0.7818608E-02  0.9607240E-01
          2   -1    0    0  501    0  0.00000000000E+00  0.00000000000E+00  0.15629263918E+04  0.15629263918E+04  0.25500000000E-02 0. -1.
         -2   -1    0    0    0  501 -0.00000000000E+00 -0.00000000000E+00 -0.48465022210E+03  0.48465022211E+03  0.25500000000E-02 0.  1.
    8880023    1    1    2    0    0  0.53479172394E+03  0.82232973345E+02  0.12003362432E+04  0.14722030271E+04  0.65864270000E+03 0.  0.
    8880022    1    1    2    0    0 -0.53479172394E+03 -0.82232973345E+02 -0.12206007349E+03  0.57537358686E+03  0.15294330000E+03 0.  0.
<mgrwt>
<rscale>  0 0.76818848E+03</rscale>
<asrwt>0</asrwt>
<pdfrwt beam="1">  1        2 0.24045021E+00 0.85239349E+03</pdfrwt>
<pdfrwt beam="2">  1       -2 0.74561573E-01 0.85239349E+03</pdfrwt>
<totfact> 0.19170238E+01</totfact>
</mgrwt>
</event>
<event>
 4    5  0.2409888E-007  0.1296341E+04  0.7818608E-02  0.9068726E-01
          2   -1    0    0  501    0  0.00000000000E+00  0.00000000000E+00  0.17241683386E+04  0.17241683386E+04  0.25500000000E-02 0. -1.
         -2   -1    0    0    0  501 -0.00000000000E+00 -0.00000000000E+00 -0.10631317000E+04  0.10631317001E+04  0.25500000000E-02 0.  1.
    8880023    1    1    2    0    0 -0.88283548381E+03  0.68358720654E+03  0.96960958898E+03  0.16188399926E+04  0.65864270000E+03 0.  0.
    8880022    1    1    2    0    0  0.88283548381E+03 -0.68358720654E+03 -0.30857295042E+03  0.11684600460E+04  0.15294330000E+03 0.  0.
<mgrwt>
<rscale>  0 0.12517523E+04</rscale>
<asrwt>0</asrwt>
<pdfrwt beam="1">  1        2 0.26525667E+00 0.12963411E+04</pdfrwt>
<pdfrwt beam="2">  1       -2 0.16355872E+00 0.12963411E+04</pdfrwt>
<totfact> 0.21687065E+00</totfact>
</mgrwt>
</event>
<event>
 4    5  0.2409888E-007  0.8169782E+03  0.7818608E-02  0.9675221E-01
          2   -1    0    0  501    0  0.00000000000E+00  0.00000000000E+00  0.15185250014E+04  0.15185250014E+04  0.25500000000E-02 0. -1.
         -2   -1    0    0    0  501 -0.00000000000E+00 -0.00000000000E+00 -0.80787247143E+03  0.80787247144E+03  0.25500000000E-02 0.  1.
    8880023    1    1    2    0    0  0.20566115624E+03  0.43743188689E+03  0.13084511127E+04  0.15425620530E+04  0.65864270000E+03 0.  0.
    8880022    1    1    2    0    0 -0.20566115624E+03 -0.43743188689E+03 -0.59779858272E+03  0.78383541982E+03  0.15294330000E+03 0.  0.
<mgrwt>
<rscale>  0 0.72511493E+03</rscale>
<asrwt>0</asrwt>
<pdfrwt beam="1">  1        2 0.23361923E+00 0.81697820E+03</pdfrwt>
<pdfrwt beam="2">  1       -2 0.12428807E+00 0.81697820E+03</pdfrwt>
<totfact> 0.61240665E+00</totfact>
</mgrwt>
</event>
<event>
 4    5  0.2409888E-007  0.9091256E+03  0.7818608E-02  0.9511538E-01
         -2   -1    0    0    0  501 -0.00000000000E+00  0.00000000000E+00  0.28540057443E+03  0.28540057444E+03  0.25500000000E-02 0.  1.
          2   -1    0    0  501    0  0.00000000000E+00 -0.00000000000E+00 -0.22073813864E+04  0.22073813864E+04  0.25500000000E-02 0. -1.
    8880023    1    1    2    0    0 -0.61909379416E+03  0.97067027839E+02 -0.13677666938E+04  0.16423443819E+04  0.65864270000E+03 0.  0.
    8880022    1    1    2    0    0  0.61909379416E+03 -0.97067027839E+02 -0.55421411818E+03  0.85043757894E+03  0.15294330000E+03 0.  0.
<mgrwt>
<rscale>  0 0.83438488E+03</rscale>
<asrwt>0</asrwt>
<pdfrwt beam="1">  1        2 0.33959713E+00 0.90912559E+03</pdfrwt>
<pdfrwt beam="2">  1       -2 0.43907782E-01 0.90912559E+03</pdfrwt>
<totfact> 0.25586134E+01</totfact>
</mgrwt>
</event>
<event>
 4    5  0.2409888E-007  0.9920711E+03  0.7818608E-02  0.9392005E-01
         -2   -1    0    0    0  501 -0.00000000000E+00  0.00000000000E+00  0.80130774901E+03  0.80130774902E+03  0.25500000000E-02 0.  1.
          2   -1    0    0  501    0  0.00000000000E+00 -0.00000000000E+00 -0.22174099574E+04  0.22174099574E+04  0.25500000000E-02 0. -1.
    8880023    1    1    2    0    0  0.69025272419E+03 -0.27193027923E+03 -0.18833849686E+04  0.21286953859E+04  0.65864270000E+03 0.  0.
    8880022    1    1    2    0    0 -0.69025272419E+03  0.27193027923E+03  0.46728276017E+03  0.89002232050E+03  0.15294330000E+03 0.  0.
<mgrwt>
<rscale>  0 0.92736543E+03</rscale>
<asrwt>0</asrwt>
<pdfrwt beam="1">  1        2 0.34113999E+00 0.99207112E+03</pdfrwt>
<pdfrwt beam="2">  1       -2 0.12327812E+00 0.99207112E+03</pdfrwt>
<totfact> 0.25141020E+00</totfact>
</mgrwt>
</event>
<event>
 4    5  0.2409888E-007  0.1637709E+04  0.7818608E-02  0.8818058E-01
         -2   -1    0    0    0  501 -0.00000000000E+00  0.00000000000E+00  0.20029150390E+04  0.20029150390E+04  0.25500000000E-02 0.  1.
          2   -1    0    0  501    0  0.00000000000E+00 -0.00000000000E+00 -0.16382452245E+04  0.16382452245E+04  0.25500000000E-02 0. -1.
    8880023    1    1    2    0    0  0.14068217666E+04  0.51877937912E+03 -0.71516701484E+03  0.17870516480E+04  0.65864270000E+03 0. -1.
    8880022    1    1    2    0    0 -0.14068217666E+04 -0.51877937912E+03  0.10798368293E+04  0.18541086155E+04  0.15294330000E+03 0.  0.
<mgrwt>
<rscale>  0 0.16040602E+04</rscale>
<asrwt>0</asrwt>
<pdfrwt beam="1">  1        2 0.25203773E+00 0.16377087E+04</pdfrwt>
<pdfrwt beam="2">  1       -2 0.30814078E+00 0.16377087E+04</pdfrwt>
<totfact> 0.27856348E-01</totfact>
</mgrwt>
</event>
<event>
 4    5  0.2409888E-007  0.1731517E+04  0.7818608E-02  0.8761396E-01
          2   -1    0    0  501    0  0.00000000000E+00  0.00000000000E+00  0.28853231205E+04  0.28853231205E+04  0.25500000000E-02 0. -1.
         -2   -1    0    0    0  501 -0.00000000000E+00 -0.00000000000E+00 -0.14299046720E+04  0.14299046720E+04  0.25500000000E-02 0.  1.
    8880023    1    1    2    0    0 -0.14479907074E+04 -0.68385826247E+03 -0.48168964272E+03  0.17972685748E+04  0.65864270000E+03 0.  0.
    8880022    1    1    2    0    0  0.14479907074E+04  0.68385826247E+03  0.19371080912E+04  0.25179592177E+04  0.15294330000E+03 0.  0.
<mgrwt>
<rscale>  0 0.16999450E+04</rscale>
<asrwt>0</asrwt>
<pdfrwt beam="1">  1        2 0.44389586E+00 0.17315165E+04</pdfrwt>
<pdfrwt beam="2">  1       -2 0.21998533E+00 0.17315165E+04</pdfrwt>
<totfact> 0.18568343E-01</totfact>
</mgrwt>
</event>
<event>
 4    5  0.2409888E-007  0.7776870E+03  0.7818608E-02  0.9761299E-01
          2   -1    0    0  501    0  0.00000000000E+00  0.00000000000E+00  0.90725391911E+03  0.90725391911E+03  0.25500000000E-02 0. -1.
         -2   -1    0    0    0  501 -0.00000000000E+00 -0.00000000000E+00 -0.43516180681E+03  0.43516180682E+03  0.25500000000E-02 0.  1.
    8880023    1    1    2    0    0  0.34137236252E+03 -0.23334907881E+03  0.45540487000E+03  0.90121622509E+03  0.65864270000E+03 0. -1.
    8880022    1    1    2    0    0 -0.34137236252E+03  0.23334907881E+03  0.16687242299E+02  0.44119950084E+03  0.15294330000E+03 0.  0.
<mgrwt>
<rscale>  0 0.67481491E+03</rscale>
<asrwt>0</asrwt>
<pdfrwt beam="1">  1        2 0.13957753E+00 0.77768701E+03</pdfrwt>
<pdfrwt beam="2">  1       -2 0.66947970E-01 0.77768701E+03</pdfrwt>
<totfact> 0.60101360E+01</totfact>
</mgrwt>
</event>
<event>
 4    5  0.2409888E-007  0.7099313E+03  0.7818608E-02  0.9958256E-01
          2   -1    0    0  501    0  0.00000000000E+00  0.00000000000E+00  0.16811527955E+04  0.16811527955E+04  0.25500000000E-02 0. -1.
         -2   -1    0    0    0  501 -0.00000000000E+00 -0.00000000000E+00 -0.26343462669E+03  0.26343462670E+03  0.25500000000E-02 0.  1.
    8880023    1    1    2    0    0 -0.26486035213E+03  0.64170717894E+01  0.14716650795E+04  0.16339524159E+04  0.65864270000E+03 0. -1.
    8880022    1    1    2    0    0  0.26486035213E+03 -0.64170717894E+01 -0.53946910706E+02  0.31063500628E+03  0.15294330000E+03 0.  0.
<mgrwt>
<rscale>  0 0.57519133E+03</rscale>
<asrwt>0</asrwt>
<pdfrwt beam="1">  1        2 0.25863890E+00 0.70993126E+03</pdfrwt>
<pdfrwt beam="2">  1       -2 0.40528403E-01 0.70993126E+03</pdfrwt>
<totfact> 0.59536464E+01</totfact>
</mgrwt>
</event>
<event>
 4    5  0.2409888E-007  0.1090796E+04  0.7818608E-02  0.9271374E-01
          2   -1    0    0  501    0  0.00000000000E+00  0.00000000000E+00  0.13825613976E+04  0.13825613976E+04  0.25500000000E-02 0. -1.
         -2   -1    0    0    0  501 -0.00000000000E+00 -0.00000000000E+00 -0.86735163468E+03  0.86735163468E+03  0.25500000000E-02 0.  1.
    8880023    1    1    2    0    0  0.67633536354E+03 -0.54643935817E+03  0.76511303684E+03  0.13323789482E+04  0.65864270000E+03 0.  0.
    8880022    1    1    2    0    0 -0.67633536354E+03  0.54643935817E+03 -0.24990327394E+03  0.91753408409E+03  0.15294330000E+03 0.  0.
<mgrwt>
<rscale>  0 0.10346152E+04</rscale>
<asrwt>0</asrwt>
<pdfrwt beam="1">  1        2 0.21270175E+00 0.10907959E+04</pdfrwt>
<pdfrwt beam="2">  1       -2 0.13343871E+00 0.10907959E+04</pdfrwt>
<totfact> 0.59190586E+00</totfact>
</mgrwt>
</event>
<event>
 4    5  0.2409888E-007  0.8121148E+03  0.7818608E-02  0.9685189E-01
         -2   -1    0    0    0  501 -0.00000000000E+00  0.00000000000E+00  0.14582453852E+04  0.14582453853E+04  0.25500000000E-02 0.  1.
          2   -1    0    0  501    0  0.00000000000E+00 -0.00000000000E+00 -0.51610554961E+03  0.51610554961E+03  0.25500000000E-02 0. -1.
    8880023    1    1    2    0    0 -0.21883266877E+03  0.42170194499E+03 -0.10059354381E+03  0.81832116840E+03  0.65864270000E+03 0. -1.
    8880022    1    1    2    0    0  0.21883266877E+03 -0.42170194499E+03  0.10427333794E+04  0.11560297665E+04  0.15294330000E+03 0.  1.
<mgrwt>
<rscale>  0 0.71905546E+03</rscale>
<asrwt>0</asrwt>
<pdfrwt beam="1">  1        2 0.79400853E-01 0.81211482E+03</pdfrwt>
<pdfrwt beam="2">  1       -2 0.22434545E+00 0.81211482E+03</pdfrwt>
<totfact> 0.55955636E+00</totfact>
</mgrwt>
</event>
<event>
 4    5  0.2409888E-007  0.8886791E+03  0.7818608E-02  0.9544455E-01
         -2   -1    0    0    0  501 -0.00000000000E+00  0.00000000000E+00  0.41464321751E+03  0.41464321752E+03  0.25500000000E-02 0.  1.
          2   -1    0    0  501    0  0.00000000000E+00 -0.00000000000E+00 -0.23615760618E+04  0.23615760618E+04  0.25500000000E-02 0. -1.
    8880023    1    1    2    0    0 -0.18571837814E+03 -0.56696480356E+03 -0.19686487665E+04  0.21599371696E+04  0.65864270000E+03 0.  0.
    8880022    1    1    2    0    0  0.18571837814E+03  0.56696480356E+03  0.21715922235E+02  0.61628210971E+03  0.15294330000E+03 0.  0.
<mgrwt>
<rscale>  0 0.81084190E+03</rscale>
<asrwt>0</asrwt>
<pdfrwt beam="1">  1        2 0.36331939E+00 0.88867914E+03</pdfrwt>
<pdfrwt beam="2">  1       -2 0.63791266E-01 0.88867914E+03</pdfrwt>
<totfact> 0.97280939E+00</totfact>
</mgrwt>
</event>
<event>
 4    5  0.2409888E-007  0.1118301E+04  0.7818608E-02  0.9240948E-01
         -2   -1    0    0    0  501 -0.00000000000E+00  0.00000000000E+00  0.14807921659E+04  0.14807921659E+04  0.25500000000E-02 0.  1.
          2   -1    0    0  501    0  0.00000000000E+00 -0.00000000000E+00 -0.15687410929E+04  0.15687410929E+04  0.25500000000E-02 0. -1.
    8880023    1    1    2    0    0 -0.60291770671E+03  0.67325937585E+03 -0.11786965239E+04  0.16247841856E+04  0.65864270000E+03 0.  0.
    8880022    1    1    2    0    0  0.60291770671E+03 -0.67325937585E+03  0.10907475969E+04  0.14247490731E+04  0.15294330000E+03 0.  0.
<mgrwt>
<rscale>  0 0.10640589E+04</rscale>
<asrwt>0</asrwt>
<pdfrwt beam="1">  1        2 0.24134478E+00 0.11183015E+04</pdfrwt>
<pdfrwt beam="2">  1       -2 0.22781418E+00 0.11183015E+04</pdfrwt>
<totfact> 0.10044855E+00</totfact>
</mgrwt>
</event>
<event>
 4    5  0.2409888E-007  0.9182200E+03  0.7818608E-02  0.9497394E-01
         -2   -1    0    0    0  501 -0.00000000000E+00  0.00000000000E+00  0.10761885151E+04  0.10761885151E+04  0.25500000000E-02 0.  1.
          2   -1    0    0  501    0  0.00000000000E+00 -0.00000000000E+00 -0.85418597036E+03  0.85418597036E+03  0.25500000000E-02 0. -1.
    8880023    1    1    2    0    0 -0.62517218702E+03 -0.13593227426E+03 -0.42133223492E+03  0.10102716986E+04  0.65864270000E+03 0.  0.
    8880022    1    1    2    0    0  0.62517218702E+03  0.13593227426E+03  0.64333477965E+03  0.92010278683E+03  0.15294330000E+03 0.  0.
<mgrwt>
<rscale>  0 0.84476251E+03</rscale>
<asrwt>0</asrwt>
<pdfrwt beam="1">  1        2 0.13141323E+00 0.91822005E+03</pdfrwt>
<pdfrwt beam="2">  1       -2 0.16556746E+00 0.91822005E+03</pdfrwt>
<totfact> 0.72251844E+00</totfact>
</mgrwt>
</event>
<event>
 4    5  0.2409888E-007  0.8595380E+03  0.7818608E-02  0.9594386E-01
          2   -1    0    0  501    0  0.00000000000E+00  0.00000000000E+00  0.72726537215E+03  0.72726537215E+03  0.25500000000E-02 0. -1.
         -2   -1    0    0    0  501 -0.00000000000E+00 -0.00000000000E+00 -0.71186145660E+03  0.71186145661E+03  0.25500000000E-02 0.  1.
    8880023    1    1    2    0    0  0.25797910125E+03  0.48830534445E+03 -0.57491224676E+02  0.86145851512E+03  0.65864270000E+03 0.  1.
    8880022    1    1    2    0    0 -0.25797910125E+03 -0.48830534445E+03  0.72895140220E+02  0.57766831364E+03  0.15294330000E+03 0. -1.
<mgrwt>
<rscale>  0 0.77668880E+03</rscale>
<asrwt>0</asrwt>
<pdfrwt beam="1">  1        2 0.11188698E+00 0.85953798E+03</pdfrwt>
<pdfrwt beam="2">  1       -2 0.10951715E+00 0.85953798E+03</pdfrwt>
<totfact> 0.26030932E+01</totfact>
</mgrwt>
</event>
<event>
 4    5  0.2409888E-007  0.7689512E+03  0.7818608E-02  0.9782462E-01
         -2   -1    0    0    0  501 -0.00000000000E+00  0.00000000000E+00  0.20423757342E+03  0.20423757344E+03  0.25500000000E-02 0.  1.
          2   -1    0    0  501    0  0.00000000000E+00 -0.00000000000E+00 -0.19598108953E+04  0.19598108953E+04  0.25500000000E-02 0. -1.
    8880023    1    1    2    0    0  0.32394179470E+03 -0.22921044706E+03 -0.14469484747E+04  0.16385804253E+04  0.65864270000E+03 0.  0.
    8880022    1    1    2    0    0 -0.32394179470E+03  0.22921044706E+03 -0.30862484719E+03  0.52546804348E+03  0.15294330000E+03 0.  0.
<mgrwt>
<rscale>  0 0.66312302E+03</rscale>
<asrwt>0</asrwt>
<pdfrwt beam="1">  1        2 0.30150936E+00 0.76895118E+03</pdfrwt>
<pdfrwt beam="2">  1       -2 0.31421167E-01 0.76895118E+03</pdfrwt>
<totfact> 0.67795221E+01</totfact>
</mgrwt>
</event>
<event>
 4    5  0.2409888E-007  0.8143560E+03  0.7818608E-02  0.9680574E-01
         -2   -1    0    0    0  501 -0.00000000000E+00  0.00000000000E+00  0.81407203186E+03  0.81407203187E+03  0.25500000000E-02 0.  1.
          2   -1    0    0  501    0  0.00000000000E+00 -0.00000000000E+00 -0.11074818516E+04  0.11074818516E+04  0.25500000000E-02 0. -1.
    8880023    1    1    2    0    0 -0.46796969860E+03  0.10183219743E+03 -0.84615210783E+03  0.11743717602E+04  0.65864270000E+03 0. -1.
    8880022    1    1    2    0    0  0.46796969860E+03 -0.10183219743E+03  0.55274228812E+03  0.74718212327E+03  0.15294330000E+03 0.  0.
<mgrwt>
<rscale>  0 0.72185277E+03</rscale>
<asrwt>0</asrwt>
<pdfrwt beam="1">  1        2 0.17038182E+00 0.81435597E+03</pdfrwt>
<pdfrwt beam="2">  1       -2 0.12524185E+00 0.81435597E+03</pdfrwt>
<totfact> 0.10398317E+01</totfact>
</mgrwt>
</event>
<event>
 4    5  0.2409888E-007  0.1492544E+04  0.7818608E-02  0.8914919E-01
          2   -1    0    0  501    0  0.00000000000E+00  0.00000000000E+00  0.21038291306E+04  0.21038291306E+04  0.25500000000E-02 0. -1.
         -2   -1    0    0    0  501 -0.00000000000E+00 -0.00000000000E+00 -0.18315730335E+04  0.18315730335E+04  0.25500000000E-02 0.  1.
    8880023    1    1    2    0    0 -0.11748024067E+03 -0.13341949675E+04  0.14970986900E+04  0.21139991751E+04  0.65864270000E+03 0.  0.
    8880022    1    1    2    0    0  0.11748024067E+03  0.13341949675E+04 -0.12248425930E+04  0.18214029891E+04  0.15294330000E+03 0.  0.
<mgrwt>
<rscale>  0 0.14550329E+04</rscale>
<asrwt>0</asrwt>
<pdfrwt beam="1">  1        2 0.32366602E+00 0.14925441E+04</pdfrwt>
<pdfrwt beam="2">  1       -2 0.28178047E+00 0.14925441E+04</pdfrwt>
<totfact> 0.22533491E-01</totfact>
</mgrwt>
</event>
<event>
 4    5  0.2409888E-007  0.1126043E+04  0.7818608E-02  0.9232600E-01
         -2   -1    0    0    0  501 -0.00000000000E+00  0.00000000000E+00  0.10149976297E+04  0.10149976297E+04  0.25500000000E-02 0.  1.
          2   -1    0    0  501    0  0.00000000000E+00 -0.00000000000E+00 -0.23760455698E+04  0.23760455698E+04  0.25500000000E-02 0. -1.
    8880023    1    1    2    0    0  0.90328555940E+03  0.13504751496E+03 -0.19795759674E+04  0.22774314150E+04  0.65864270000E+03 0.  0.
    8880022    1    1    2    0    0 -0.90328555940E+03 -0.13504751496E+03  0.61852802726E+03  0.11136117845E+04  0.15294330000E+03 0.  0.
<mgrwt>
<rscale>  0 0.10723188E+04</rscale>
<asrwt>0</asrwt>
<pdfrwt beam="1">  1        2 0.36554547E+00 0.11260430E+04</pdfrwt>
<pdfrwt beam="2">  1       -2 0.15615348E+00 0.11260430E+04</pdfrwt>
<totfact> 0.10880046E+00</totfact>
</mgrwt>
</event>
<event>
 4    5  0.2409888E-007  0.1490164E+04  0.7818608E-02  0.8916613E-01
         -2   -1    0    0    0  501 -0.00000000000E+00  0.00000000000E+00  0.18938175530E+04  0.18938175530E+04  0.25500000000E-02 0.  1.
          2   -1    0    0  501    0  0.00000000000E+00 -0.00000000000E+00 -0.25545666240E+04  0.25545666240E+04  0.25500000000E-02 0. -1.
    8880023    1    1    2    0    0 -0.37431333208E+03 -0.12832255460E+04 -0.20369128726E+04  0.25238071497E+04  0.65864270000E+03 0.  0.
    8880022    1    1    2    0    0  0.37431333208E+03  0.12832255460E+04  0.13761638016E+04  0.19245770273E+04  0.15294330000E+03 0.  0.
<mgrwt>
<rscale>  0 0.14525813E+04</rscale>
<asrwt>0</asrwt>
<pdfrwt beam="1">  1        2 0.39301025E+00 0.14901639E+04</pdfrwt>
<pdfrwt beam="2">  1       -2 0.29135655E+00 0.14901639E+04</pdfrwt>
<totfact> 0.10912629E-01</totfact>
</mgrwt>
</event>
<event>
 4    5  0.2409888E-007  0.1014356E+04  0.7818608E-02  0.9363012E-01
         -2   -1    0    0    0  501 -0.00000000000E+00  0.00000000000E+00  0.56749300606E+03  0.56749300606E+03  0.25500000000E-02 0.  1.
          2   -1    0    0  501    0  0.00000000000E+00 -0.00000000000E+00 -0.32199965503E+04  0.32199965503E+04  0.25500000000E-02 0. -1.
    8880023    1    1    2    0    0  0.51576115267E+03  0.57367154911E+03 -0.28081945898E+04  0.29857789056E+04  0.65864270000E+03 0. -1.
    8880022    1    1    2    0    0 -0.51576115267E+03 -0.57367154911E+03  0.15569104554E+03  0.80171065075E+03  0.15294330000E+03 0.  0.
<mgrwt>
<rscale>  0 0.95183222E+03</rscale>
<asrwt>0</asrwt>
<pdfrwt beam="1">  1        2 0.49538407E+00 0.10143564E+04</pdfrwt>
<pdfrwt beam="2">  1       -2 0.87306618E-01 0.10143564E+04</pdfrwt>
<totfact> 0.14602226E+00</totfact>
</mgrwt>
</event>
<event>
 4    5  0.2409888E-007  0.1389460E+04  0.7818608E-02  0.8991916E-01
         -2   -1    0    0    0  501 -0.00000000000E+00  0.00000000000E+00  0.10587240828E+04  0.10587240828E+04  0.25500000000E-02 0.  1.
          2   -1    0    0  501    0  0.00000000000E+00 -0.00000000000E+00 -0.17083130236E+04  0.17083130236E+04  0.25500000000E-02 0. -1.
    8880023    1    1    2    0    0  0.11760240977E+04 -0.33727779481E+03 -0.36205925512E+02  0.13899316762E+04  0.65864270000E+03 0.  0.
    8880022    1    1    2    0    0 -0.11760240977E+04  0.33727779481E+03 -0.61338301536E+03  0.13771054302E+04  0.15294330000E+03 0.  0.
<mgrwt>
<rscale>  0 0.13485636E+04</rscale>
<asrwt>0</asrwt>
<pdfrwt beam="1">  1        2 0.26281739E+00 0.13894600E+04</pdfrwt>
<pdfrwt beam="2">  1       -2 0.16288063E+00 0.13894600E+04</pdfrwt>
<totfact> 0.22192332E+00</totfact>
</mgrwt>
</event>
<event>
 4    5  0.2409888E-007  0.7163912E+03  0.7818608E-02  0.9934992E-01
         -2   -1    0    0    0  501 -0.00000000000E+00  0.00000000000E+00  0.64160308436E+03  0.64160308436E+03  0.25500000000E-02 0.  1.
          2   -1    0    0  501    0  0.00000000000E+00 -0.00000000000E+00 -0.15513417124E+04  0.15513417124E+04  0.25500000000E-02 0. -1.
    8880023    1    1    2    0    0 -0.11221068758E+02  0.28156734083E+03 -0.14199061906E+04  0.15903929942E+04  0.65864270000E+03 0. -1.
    8880022    1    1    2    0    0  0.11221068758E+02 -0.28156734083E+03  0.51016756256E+03  0.60255180251E+03  0.15294330000E+03 0.  0.
<mgrwt>
<rscale>  0 0.58595006E+03</rscale>
<asrwt>0</asrwt>
<pdfrwt beam="1">  1        2 0.23866796E+00 0.71639115E+03</pdfrwt>
<pdfrwt beam="2">  1       -2 0.98708167E-01 0.71639115E+03</pdfrwt>
<totfact> 0.10423196E+01</totfact>
</mgrwt>
</event>
<event>
 4    5  0.2409888E-007  0.7900166E+03  0.7818608E-02  0.9732813E-01
          2   -1    0    0  501    0  0.00000000000E+00  0.00000000000E+00  0.31682430579E+03  0.31682430581E+03  0.25500000000E-02 0. -1.
         -2   -1    0    0    0  501 -0.00000000000E+00 -0.00000000000E+00 -0.28354340163E+04  0.28354340163E+04  0.25500000000E-02 0.  1.
    8880023    1    1    2    0    0  0.41297474954E+03  0.14059852815E+03 -0.23774124923E+03  0.82501345305E+03  0.65864270000E+03 0. -1.
    8880022    1    1    2    0    0 -0.41297474954E+03 -0.14059852815E+03 -0.22808684612E+04  0.23272448690E+04  0.15294330000E+03 0.  0.
<mgrwt>
<rscale>  0 0.69096287E+03</rscale>
<asrwt>0</asrwt>
<pdfrwt beam="1">  1        2 0.48742203E-01 0.79001664E+03</pdfrwt>
<pdfrwt beam="2">  1       -2 0.43622060E+00 0.79001664E+03</pdfrwt>
<totfact> 0.46778740E-01</totfact>
</mgrwt>
</event>
<event>
 4    5  0.2409888E-007  0.6668009E+03  0.7818608E-02  0.1018068E+00
         -2   -1    0    0    0  501 -0.00000000000E+00  0.00000000000E+00  0.70073238091E+03  0.70073238091E+03  0.25500000000E-02 0.  1.
          2   -1    0    0  501    0  0.00000000000E+00 -0.00000000000E+00 -0.32602381217E+04  0.32602381217E+04  0.25500000000E-02 0. -1.
    8880023    1    1    2    0    0  0.88821936487E+02  0.54073255308E+02 -0.32131790353E+04  0.32816372396E+04  0.65864270000E+03 0. -1.
    8880022    1    1    2    0    0 -0.88821936487E+02 -0.54073255308E+02  0.65367329447E+03  0.67933326303E+03  0.15294330000E+03 0.  0.
<mgrwt>
<rscale>  0 0.48390286E+03</rscale>
<asrwt>0</asrwt>
<pdfrwt beam="1">  1        2 0.50157509E+00 0.66680091E+03</pdfrwt>
<pdfrwt beam="2">  1       -2 0.10780498E+00 0.66680091E+03</pdfrwt>
<totfact> 0.89914978E-01</totfact>
</mgrwt>
</event>
<event>
 4    5  0.2409888E-007  0.1235429E+04  0.7818608E-02  0.9123429E-01
         -2   -1    0    0    0  501 -0.00000000000E+00  0.00000000000E+00  0.15280044195E+04  0.15280044196E+04  0.25500000000E-02 0.  1.
          2   -1    0    0  501    0  0.00000000000E+00 -0.00000000000E+00 -0.17994004309E+04  0.17994004309E+04  0.25500000000E-02 0. -1.
    8880023    1    1    2    0    0  0.10171116080E+04 -0.24074617380E+03 -0.13415271804E+04  0.18237269876E+04  0.65864270000E+03 0.  0.
    8880022    1    1    2    0    0 -0.10171116080E+04  0.24074617380E+03  0.10701311691E+04  0.15036778629E+04  0.15294330000E+03 0.  0.
<mgrwt>
<rscale>  0 0.11879957E+04</rscale>
<asrwt>0</asrwt>
<pdfrwt beam="1">  1        2 0.27683084E+00 0.12354291E+04</pdfrwt>
<pdfrwt beam="2">  1       -2 0.23507760E+00 0.12354291E+04</pdfrwt>
<totfact> 0.66360311E-01</totfact>
</mgrwt>
</event>
<event>
 4    5  0.2409888E-007  0.7176171E+03  0.7818608E-02  0.9930733E-01
          2   -1    0    0  501    0  0.00000000000E+00  0.00000000000E+00  0.31114018154E+04  0.31114018154E+04  0.25500000000E-02 0. -1.
         -2   -1    0    0    0  501 -0.00000000000E+00 -0.00000000000E+00 -0.44907264395E+03  0.44907264396E+03  0.25500000000E-02 0.  1.
    8880023    1    1    2    0    0  0.10599202464E+03 -0.26444229230E+03  0.30048998671E+04  0.30894008242E+04  0.65864270000E+03 0. -1.
    8880022    1    1    2    0    0 -0.10599202464E+03  0.26444229230E+03 -0.34257069561E+03  0.47107363517E+03  0.15294330000E+03 0.  0.
<mgrwt>
<rscale>  0 0.58794679E+03</rscale>
<asrwt>0</asrwt>
<pdfrwt beam="1">  1        2 0.47867722E+00 0.71761706E+03</pdfrwt>
<pdfrwt beam="2">  1       -2 0.69088097E-01 0.71761706E+03</pdfrwt>
<totfact> 0.30525540E+00</totfact>
</mgrwt>
</event>
<event>
 4    5  0.2409888E-007  0.1142499E+04  0.7818608E-02  0.9215151E-01
         -2   -1    0    0    0  501 -0.00000000000E+00  0.00000000000E+00  0.23567296181E+04  0.23567296181E+04  0.25500000000E-02 0.  1.
          2   -1    0    0  501    0  0.00000000000E+00 -0.00000000000E+00 -0.16871905746E+04  0.16871905746E+04  0.25500000000E-02 0. -1.
    8880023    1    1    2    0    0  0.91475045511E+03 -0.18634707338E+03 -0.13770407985E+04  0.17892862247E+04  0.65864270000E+03 0.  0.
    8880022    1    1    2    0    0 -0.91475045511E+03  0.18634707338E+03  0.20465798420E+04  0.22546339680E+04  0.15294330000E+03 0.  0.
<mgrwt>
<rscale>  0 0.10898401E+04</rscale>
<asrwt>0</asrwt>
<pdfrwt beam="1">  1        2 0.25956778E+00 0.11424989E+04</pdfrwt>
<pdfrwt beam="2">  1       -2 0.36257379E+00 0.11424989E+04</pdfrwt>
<totfact> 0.12787804E-01</totfact>
</mgrwt>
</event>
<event>
 4    5  0.2409888E-007  0.9325952E+03  0.7818608E-02  0.9475611E-01
         -2   -1    0    0    0  501 -0.00000000000E+00  0.00000000000E+00  0.35072756585E+03  0.35072756586E+03  0.25500000000E-02 0.  1.
          2   -1    0    0  501    0  0.00000000000E+00 -0.00000000000E+00 -0.30512918350E+04  0.30512918350E+04  0.25500000000E-02 0. -1.
    8880023    1    1    2    0    0 -0.38870324016E+03  0.53369788213E+03 -0.25396251008E+04  0.27054444177E+04  0.65864270000E+03 0. -1.
    8880022    1    1    2    0    0  0.38870324016E+03 -0.53369788213E+03 -0.16093916839E+03  0.69657498321E+03  0.15294330000E+03 0.  0.
<mgrwt>
<rscale>  0 0.86106067E+03</rscale>
<asrwt>0</asrwt>
<pdfrwt beam="1">  1        2 0.46942949E+00 0.93259522E+03</pdfrwt>
<pdfrwt beam="2">  1       -2 0.53958089E-01 0.93259522E+03</pdfrwt>
<totfact> 0.54092156E+00</totfact>
</mgrwt>
</event>
<event>
 4    5  0.2409888E-007  0.9463699E+03  0.7818608E-02  0.9455356E-01
         -2   -1    0    0    0  501 -0.00000000000E+00  0.00000000000E+00  0.26544530496E+04  0.26544530496E+04  0.25500000000E-02 0.  1.
          2   -1    0    0  501    0  0.00000000000E+00 -0.00000000000E+00 -0.59558290223E+03  0.59558290224E+03  0.25500000000E-02 0. -1.
    8880023    1    1    2    0    0  0.37761459503E+03  0.56498939893E+03 -0.12793015853E+03  0.95497755733E+03  0.65864270000E+03 0. -1.
    8880022    1    1    2    0    0 -0.37761459503E+03 -0.56498939893E+03  0.21868003058E+04  0.22950583945E+04  0.15294330000E+03 0.  0.
<mgrwt>
<rscale>  0 0.87656779E+03</rscale>
<asrwt>0</asrwt>
<pdfrwt beam="1">  1        2 0.91628138E-01 0.94636991E+03</pdfrwt>
<pdfrwt beam="2">  1       -2 0.40837740E+00 0.94636991E+03</pdfrwt>
<totfact> 0.33657503E-01</totfact>
</mgrwt>
</event>
<event>
 4    5  0.2409888E-007  0.1173274E+04  0.7818608E-02  0.9183549E-01
          2   -1    0    0  501    0  0.00000000000E+00  0.00000000000E+00  0.10750224567E+04  0.10750224567E+04  0.25500000000E-02 0. -1.
         -2   -1    0    0    0  501 -0.00000000000E+00 -0.00000000000E+00 -0.13914945863E+04  0.13914945863E+04  0.25500000000E-02 0.  1.
    8880023    1    1    2    0    0 -0.73553041214E+03 -0.63384367344E+03  0.41152361417E+03  0.12433521950E+04  0.65864270000E+03 0.  0.
    8880022    1    1    2    0    0  0.73553041214E+03  0.63384367344E+03 -0.72799574380E+03  0.12231648481E+04  0.15294330000E+03 0.  0.
<mgrwt>
<rscale>  0 0.11224850E+04</rscale>
<asrwt>0</asrwt>
<pdfrwt beam="1">  1        2 0.16538807E+00 0.11732745E+04</pdfrwt>
<pdfrwt beam="2">  1       -2 0.21407609E+00 0.11732745E+04</pdfrwt>
<totfact> 0.23724028E+00</totfact>
</mgrwt>
</event>
<event>
 4    5  0.2409888E-007  0.6697451E+03  0.7818608E-02  0.1015846E+00
         -2   -1    0    0    0  501 -0.00000000000E+00  0.00000000000E+00  0.10596689688E+04  0.10596689688E+04  0.25500000000E-02 0.  1.
          2   -1    0    0  501    0  0.00000000000E+00 -0.00000000000E+00 -0.88365404744E+03  0.88365404744E+03  0.25500000000E-02 0. -1.
    8880023    1    1    2    0    0 -0.68184893065E+02  0.10049464073E+03 -0.74502331480E+03  0.10018075156E+04  0.65864270000E+03 0. -1.
    8880022    1    1    2    0    0  0.68184893065E+02 -0.10049464073E+03  0.92103823613E+03  0.94151550061E+03  0.15294330000E+03 0.  0.
<mgrwt>
<rscale>  0 0.49215826E+03</rscale>
<asrwt>0</asrwt>
<pdfrwt beam="1">  1        2 0.13594678E+00 0.66974514E+03</pdfrwt>
<pdfrwt beam="2">  1       -2 0.16302599E+00 0.66974514E+03</pdfrwt>
<totfact> 0.74072030E+00</totfact>
</mgrwt>
</event>
<event>
 4    5  0.2409888E-007  0.8029372E+03  0.7818608E-02  0.9704481E-01
          2   -1    0    0  501    0  0.00000000000E+00  0.00000000000E+00  0.12049738648E+04  0.12049738648E+04  0.25500000000E-02 0. -1.
         -2   -1    0    0    0  501 -0.00000000000E+00 -0.00000000000E+00 -0.63552301978E+03  0.63552301978E+03  0.25500000000E-02 0.  1.
    8880023    1    1    2    0    0 -0.33571301279E+03 -0.31336029057E+03  0.93609117989E+03  0.12332780716E+04  0.65864270000E+03 0.  0.
    8880022    1    1    2    0    0  0.33571301279E+03  0.31336029057E+03 -0.36664033485E+03  0.60721881296E+03  0.15294330000E+03 0.  0.
<mgrwt>
<rscale>  0 0.70750626E+03</rscale>
<asrwt>0</asrwt>
<pdfrwt beam="1">  1        2 0.18538059E+00 0.80293717E+03</pdfrwt>
<pdfrwt beam="2">  1       -2 0.97772773E-01 0.80293717E+03</pdfrwt>
<totfact> 0.16606384E+01</totfact>
</mgrwt>
</event>
<event>
 4    5  0.2409888E-007  0.8389774E+03  0.7818608E-02  0.9632112E-01
          2   -1    0    0  501    0  0.00000000000E+00  0.00000000000E+00  0.11988897263E+04  0.11988897263E+04  0.25500000000E-02 0. -1.
         -2   -1    0    0    0  501 -0.00000000000E+00 -0.00000000000E+00 -0.12555173449E+04  0.12555173449E+04  0.25500000000E-02 0.  1.
    8880023    1    1    2    0    0 -0.24266788759E+03  0.45954883002E+03  0.97677502959E+03  0.12876228079E+04  0.65864270000E+03 0.  0.
    8880022    1    1    2    0    0  0.24266788759E+03 -0.45954883002E+03 -0.10334026481E+04  0.11667842633E+04  0.15294330000E+03 0.  0.
<mgrwt>
<rscale>  0 0.75206804E+03</rscale>
<asrwt>0</asrwt>
<pdfrwt beam="1">  1        2 0.18444457E+00 0.83897738E+03</pdfrwt>
<pdfrwt beam="2">  1       -2 0.19315652E+00 0.83897738E+03</pdfrwt>
<totfact> 0.28357020E+00</totfact>
</mgrwt>
</event>
<event>
 4    5  0.2409888E-007  0.9758548E+03  0.7818608E-02  0.9413852E-01
         -2   -1    0    0    0  501 -0.00000000000E+00  0.00000000000E+00  0.53993935375E+03  0.53993935375E+03  0.25500000000E-02 0.  1.
          2   -1    0    0  501    0  0.00000000000E+00 -0.00000000000E+00 -0.16474901458E+04  0.16474901458E+04  0.25500000000E-02 0. -1.
    8880023    1    1    2    0    0 -0.70908875376E+03 -0.12520215248E+03 -0.10731607422E+04  0.14505056444E+04  0.65864270000E+03 0.  0.
    8880022    1    1    2    0    0  0.70908875376E+03  0.12520215248E+03 -0.34390049854E+02  0.73692385512E+03  0.15294330000E+03 0.  0.
<mgrwt>
<rscale>  0 0.90944452E+03</rscale>
<asrwt>0</asrwt>
<pdfrwt beam="1">  1        2 0.25346002E+00 0.97585483E+03</pdfrwt>
<pdfrwt beam="2">  1       -2 0.83067594E-01 0.97585483E+03</pdfrwt>
<totfact> 0.13324737E+01</totfact>
</mgrwt>
</event>
<event>
 4    5  0.2409888E-007  0.6716289E+03  0.7818608E-02  0.1014521E+00
         -2   -1    0    0    0  501 -0.00000000000E+00  0.00000000000E+00  0.84596722233E+03  0.84596722233E+03  0.25500000000E-02 0.  1.
          2   -1    0    0  501    0  0.00000000000E+00 -0.00000000000E+00 -0.12773156546E+04  0.12773156546E+04  0.25500000000E-02 0. -1.
    8880023    1    1    2    0    0 -0.12729473596E+03  0.32728717241E+02 -0.11746545775E+04  0.13531070546E+04  0.65864270000E+03 0. -1.
    8880022    1    1    2    0    0  0.12729473596E+03 -0.32728717241E+02  0.74330614519E+03  0.77017582228E+03  0.15294330000E+03 0.  0.
<mgrwt>
<rscale>  0 0.49716663E+03</rscale>
<asrwt>0</asrwt>
<pdfrwt beam="1">  1        2 0.19651010E+00 0.67162886E+03</pdfrwt>
<pdfrwt beam="2">  1       -2 0.13014880E+00 0.67162886E+03</pdfrwt>
<totfact> 0.76240408E+00</totfact>
</mgrwt>
</event>
<event>
 4    5  0.2409888E-007  0.9014693E+03  0.7818608E-02  0.9523677E-01
         -2   -1    0    0    0  501 -0.00000000000E+00  0.00000000000E+00  0.46461350563E+03  0.46461350564E+03  0.25500000000E-02 0.  1.
          2   -1    0    0  501    0  0.00000000000E+00 -0.00000000000E+00 -0.24586867887E+04  0.24586867888E+04  0.25500000000E-02 0. -1.
    8880023    1    1    2    0    0  0.34982143695E+03 -0.50642047559E+03 -0.20953603493E+04  0.22810484290E+04  0.65864270000E+03 0. -1.
    8880022    1    1    2    0    0 -0.34982143695E+03  0.50642047559E+03  0.10128706614E+03  0.64225186542E+03  0.15294330000E+03 0.  0.
<mgrwt>
<rscale>  0 0.82560498E+03</rscale>
<asrwt>0</asrwt>
<pdfrwt beam="1">  1        2 0.37825950E+00 0.90146932E+03</pdfrwt>
<pdfrwt beam="2">  1       -2 0.71479002E-01 0.90146932E+03</pdfrwt>
<totfact> 0.66855558E+00</totfact>
</mgrwt>
</event>
<event>
 4    5  0.2409888E-007  0.6617467E+03  0.7818608E-02  0.1022434E+00
         -2   -1    0    0    0  501 -0.00000000000E+00  0.00000000000E+00  0.32282724033E+03  0.32282724034E+03  0.25500000000E-02 0.  1.
          2   -1    0    0  501    0  0.00000000000E+00 -0.00000000000E+00 -0.81007426791E+03  0.81007426792E+03  0.25500000000E-02 0. -1.
    8880023    1    1    2    0    0 -0.59378804632E+02 -0.23929694260E+02 -0.63032332156E+03  0.91390161871E+03  0.65864270000E+03 0. -1.
    8880022    1    1    2    0    0  0.59378804632E+02  0.23929694260E+02  0.14307629398E+03  0.21899988955E+03  0.15294330000E+03 0.  0.
<mgrwt>
<rscale>  0 0.46818330E+03</rscale>
<asrwt>0</asrwt>
<pdfrwt beam="1">  1        2 0.12462681E+00 0.66174669E+03</pdfrwt>
<pdfrwt beam="2">  1       -2 0.49665729E-01 0.66174669E+03</pdfrwt>
<totfact> 0.13219694E+02</totfact>
</mgrwt>
</event>
<event>
 4    5  0.2409888E-007  0.8994246E+03  0.7818608E-02  0.9526956E-01
         -2   -1    0    0    0  501 -0.00000000000E+00  0.00000000000E+00  0.10766986706E+04  0.10766986706E+04  0.25500000000E-02 0.  1.
          2   -1    0    0  501    0  0.00000000000E+00 -0.00000000000E+00 -0.15194150258E+04  0.15194150258E+04  0.25500000000E-02 0. -1.
    8880023    1    1    2    0    0  0.32140574158E+03 -0.52139508992E+03 -0.12695241348E+04  0.15558458232E+04  0.65864270000E+03 0. -1.
    8880022    1    1    2    0    0 -0.32140574158E+03  0.52139508992E+03  0.82680777967E+03  0.10402678732E+04  0.15294330000E+03 0.  0.
<mgrwt>
<rscale>  0 0.82325318E+03</rscale>
<asrwt>0</asrwt>
<pdfrwt beam="1">  1        2 0.23375616E+00 0.89942465E+03</pdfrwt>
<pdfrwt beam="2">  1       -2 0.16564595E+00 0.89942465E+03</pdfrwt>
<totfact> 0.28508007E+00</totfact>
</mgrwt>
</event>
<event>
 4    5  0.2409888E-007  0.1430427E+04  0.7818608E-02  0.8960394E-01
          2   -1    0    0  501    0  0.00000000000E+00  0.00000000000E+00  0.85879919079E+03  0.85879919080E+03  0.25500000000E-02 0. -1.
         -2   -1    0    0    0  501 -0.00000000000E+00 -0.00000000000E+00 -0.21808267697E+04  0.21808267697E+04  0.25500000000E-02 0.  1.
    8880023    1    1    2    0    0 -0.36402796002E+03  0.12164682651E+04 -0.48188236423E+03  0.15094145272E+04  0.65864270000E+03 0.  0.
    8880022    1    1    2    0    0  0.36402796002E+03 -0.12164682651E+04 -0.84014521466E+03  0.15302114333E+04  0.15294330000E+03 0.  0.
<mgrwt>
<rscale>  0 0.13909527E+04</rscale>
<asrwt>0</asrwt>
<pdfrwt beam="1">  1        2 0.13212295E+00 0.14304271E+04</pdfrwt>
<pdfrwt beam="2">  1       -2 0.33551181E+00 0.14304271E+04</pdfrwt>
<totfact> 0.57529660E-01</totfact>
</mgrwt>
</event>
<event>
 4    5  0.2409888E-007  0.1009457E+04  0.7818608E-02  0.9369288E-01
         -2   -1    0    0    0  501 -0.00000000000E+00  0.00000000000E+00  0.12354806389E+04  0.12354806389E+04  0.25500000000E-02 0.  1.
          2   -1    0    0  501    0  0.00000000000E+00 -0.00000000000E+00 -0.14379221727E+04  0.14379221727E+04  0.25500000000E-02 0. -1.
    8880023    1    1    2    0    0 -0.73006825597E+03  0.22845877673E+03 -0.10941045910E+04  0.14886464098E+04  0.65864270000E+03 0.  0.
    8880022    1    1    2    0    0  0.73006825597E+03 -0.22845877673E+03  0.89166305719E+03  0.11847564018E+04  0.15294330000E+03 0.  0.
<mgrwt>
<rscale>  0 0.94646808E+03</rscale>
<asrwt>0</asrwt>
<pdfrwt beam="1">  1        2 0.22121880E+00 0.10094569E+04</pdfrwt>
<pdfrwt beam="2">  1       -2 0.19007394E+00 0.10094569E+04</pdfrwt>
<totfact> 0.21133221E+00</totfact>
</mgrwt>
</event>
<event>
 4    5  0.2409888E-007  0.1175669E+04  0.7818608E-02  0.9181144E-01
          2   -1    0    0  501    0  0.00000000000E+00  0.00000000000E+00  0.24489372590E+04  0.24489372590E+04  0.25500000000E-02 0. -1.
         -2   -1    0    0    0  501 -0.00000000000E+00 -0.00000000000E+00 -0.96994924343E+03  0.96994924343E+03  0.25500000000E-02 0.  1.
    8880023    1    1    2    0    0  0.96063647577E+03 -0.15988982429E+03  0.19878639266E+04  0.23095021956E+04  0.65864270000E+03 0. -1.
    8880022    1    1    2    0    0 -0.96063647577E+03  0.15988982429E+03 -0.50887591101E+03  0.11093843069E+04  0.15294330000E+03 0.  0.
<mgrwt>
<rscale>  0 0.11250186E+04</rscale>
<asrwt>0</asrwt>
<pdfrwt beam="1">  1        2 0.37675958E+00 0.11756689E+04</pdfrwt>
<pdfrwt beam="2">  1       -2 0.14922296E+00 0.11756689E+04</pdfrwt>
<totfact> 0.11095930E+00</totfact>
</mgrwt>
</event>
<event>
 4    5  0.2409888E-007  0.7708232E+03  0.7818608E-02  0.9777852E-01
         -2   -1    0    0    0  501 -0.00000000000E+00  0.00000000000E+00  0.21861175057E+04  0.21861175057E+04  0.25500000000E-02 0.  1.
          2   -1    0    0  501    0  0.00000000000E+00 -0.00000000000E+00 -0.25016909373E+03  0.25016909374E+03  0.25500000000E-02 0. -1.
    8880023    1    1    2    0    0 -0.27866752391E+03 -0.28758063659E+03  0.45620902686E+03  0.89570926861E+03  0.65864270000E+03 0. -1.
    8880022    1    1    2    0    0  0.27866752391E+03  0.28758063659E+03  0.14797393852E+04  0.15405773309E+04  0.15294330000E+03 0.  0.
<mgrwt>
<rscale>  0 0.66564774E+03</rscale>
<asrwt>0</asrwt>
<pdfrwt beam="1">  1        2 0.38487554E-01 0.77082321E+03</pdfrwt>
<pdfrwt beam="2">  1       -2 0.33632576E+00 0.77082321E+03</pdfrwt>
<totfact> 0.26641072E+00</totfact>
</mgrwt>
</event>
<event>
 4    5  0.2409888E-007  0.7438791E+03  0.7818608E-02  0.9848788E-01
          2   -1    0    0  501    0  0.00000000000E+00  0.00000000000E+00  0.17490641552E+04  0.17490641552E+04  0.25500000000E-02 0. -1.
         -2   -1    0    0    0  501 -0.00000000000E+00 -0.00000000000E+00 -0.24821585645E+03  0.24821585646E+03  0.25500000000E-02 0.  1.
    8880023    1    1    2    0    0  0.82872191712E+02 -0.33567555062E+03  0.14310187566E+04  0.16128145472E+04  0.65864270000E+03 0.  0.
    8880022    1    1    2    0    0 -0.82872191712E+02  0.33567555062E+03  0.69829542155E+02  0.38446546453E+03  0.15294330000E+03 0.  0.
<mgrwt>
<rscale>  0 0.62808734E+03</rscale>
<asrwt>0</asrwt>
<pdfrwt beam="1">  1        2 0.26908680E+00 0.74387908E+03</pdfrwt>
<pdfrwt beam="2">  1       -2 0.38187055E-01 0.74387908E+03</pdfrwt>
<totfact> 0.61131617E+01</totfact>
</mgrwt>
</event>
<event>
 4    5  0.2409888E-007  0.9590900E+03  0.7818608E-02  0.9437154E-01
         -2   -1    0    0    0  501 -0.00000000000E+00  0.00000000000E+00  0.12162283578E+04  0.12162283578E+04  0.25500000000E-02 0.  1.
          2   -1    0    0  501    0  0.00000000000E+00 -0.00000000000E+00 -0.14221348953E+04  0.14221348953E+04  0.25500000000E-02 0. -1.
    8880023    1    1    2    0    0 -0.69043055531E+03  0.96690358135E+02 -0.11226386180E+04  0.14765402297E+04  0.65864270000E+03 0. -1.
    8880022    1    1    2    0    0  0.69043055531E+03 -0.96690358135E+02  0.91673208054E+03  0.11618230233E+04  0.15294330000E+03 0.  0.
<mgrwt>
<rscale>  0 0.89080083E+03</rscale>
<asrwt>0</asrwt>
<pdfrwt beam="1">  1        2 0.21878998E+00 0.95908998E+03</pdfrwt>
<pdfrwt beam="2">  1       -2 0.18711205E+00 0.95908998E+03</pdfrwt>
<totfact> 0.22732074E+00</totfact>
</mgrwt>
</event>
<event>
 4    5  0.2879968E-007  0.1346002E+04  0.7818608E-02  0.9026818E-01
         -2   -1    0    0    0  501 -0.00000000000E+00  0.00000000000E+00  0.20146562071E+04  0.20146562071E+04  0.25500000000E-02 0.  1.
          2   -1    0    0  501    0  0.00000000000E+00 -0.00000000000E+00 -0.18482191404E+04  0.18482191404E+04  0.25500000000E-02 0. -1.
    8880023    1    1    2    0    0  0.26157602932E+03 -0.11443294330E+04 -0.13718089290E+04  0.19218693541E+04  0.65864270000E+03 0.  0.
    8880022    1    1    2    0    0 -0.26157602932E+03  0.11443294330E+04  0.15382459957E+04  0.19410059935E+04  0.15294330000E+03 0.  0.
<mgrwt>
<rscale>  0 0.13034695E+04</rscale>
<asrwt>0</asrwt>
<pdfrwt beam="1">  1        2 0.28434141E+00 0.13460023E+04</pdfrwt>
<pdfrwt beam="2">  1       -2 0.30994711E+00 0.13460023E+04</pdfrwt>
<totfact> 0.21444555E-01</totfact>
</mgrwt>
</event>
<event>
 4    5  0.2409888E-007  0.8363010E+03  0.7818608E-02  0.9637195E-01
          2   -1    0    0  501    0  0.00000000000E+00  0.00000000000E+00  0.34796367119E+04  0.34796367119E+04  0.25500000000E-02 0. -1.
         -2   -1    0    0    0  501 -0.00000000000E+00 -0.00000000000E+00 -0.53892047641E+03  0.53892047641E+03  0.25500000000E-02 0.  1.
    8880023    1    1    2    0    0  0.39844424354E+03  0.32685073307E+03  0.32786257116E+04  0.33836054705E+04  0.65864270000E+03 0. -1.
    8880022    1    1    2    0    0 -0.39844424354E+03 -0.32685073307E+03 -0.33790947610E+03  0.63495171783E+03  0.15294330000E+03 0.  0.
<mgrwt>
<rscale>  0 0.74882548E+03</rscale>
<asrwt>0</asrwt>
<pdfrwt beam="1">  1        2 0.53532872E+00 0.83630104E+03</pdfrwt>
<pdfrwt beam="2">  1       -2 0.82910843E-01 0.83630104E+03</pdfrwt>
<totfact> 0.11427180E+00</totfact>
</mgrwt>
</event>
<event>
 4    5  0.2409888E-007  0.1118703E+04  0.7818608E-02  0.9240513E-01
          2   -1    0    0  501    0  0.00000000000E+00  0.00000000000E+00  0.12027595604E+04  0.12027595604E+04  0.25500000000E-02 0. -1.
         -2   -1    0    0    0  501 -0.00000000000E+00 -0.00000000000E+00 -0.95598255384E+03  0.95598255384E+03  0.25500000000E-02 0.  1.
    8880023    1    1    2    0    0 -0.32682454779E+03 -0.84313194616E+03  0.47230229096E+03  0.12143168549E+04  0.65864270000E+03 0.  1.
    8880022    1    1    2    0    0  0.32682454779E+03  0.84313194616E+03 -0.22552528438E+03  0.94442525940E+03  0.15294330000E+03 0.  0.
<mgrwt>
<rscale>  0 0.10644874E+04</rscale>
<asrwt>0</asrwt>
<pdfrwt beam="1">  1        2 0.18503993E+00 0.11187028E+04</pdfrwt>
<pdfrwt beam="2">  1       -2 0.14707424E+00 0.11187028E+04</pdfrwt>
<totfact> 0.58381081E+00</totfact>
</mgrwt>
</event>
<event>
 4    5  0.2634547E-007  0.7302521E+03  0.7818608E-02  0.9889310E-01
          2   -1    0    0  501    0  0.00000000000E+00  0.00000000000E+00  0.25788374215E+04  0.25788374215E+04  0.25500000000E-02 0. -1.
         -2   -1    0    0    0  501 -0.00000000000E+00 -0.00000000000E+00 -0.68190401834E+03  0.68190401835E+03  0.25500000000E-02 0.  1.
    8880023    1    1    2    0    0 -0.21045872269E+03  0.23487228803E+03  0.24773324891E+04  0.25827203359E+04  0.65864270000E+03 0. -1.
    8880022    1    1    2    0    0  0.21045872269E+03 -0.23487228803E+03 -0.58039908586E+03  0.67802110404E+03  0.15294330000E+03 0.  0.
<mgrwt>
<rscale>  0 0.60782180E+03</rscale>
<asrwt>0</asrwt>
<pdfrwt beam="1">  1        2 0.39674422E+00 0.73025206E+03</pdfrwt>
<pdfrwt beam="2">  1       -2 0.10490831E+00 0.73025206E+03</pdfrwt>
<totfact> 0.24385186E+00</totfact>
</mgrwt>
</event>
<event>
 4    5  0.2409888E-007  0.8656408E+03  0.7818608E-02  0.9583607E-01
         -2   -1    0    0    0  501 -0.00000000000E+00  0.00000000000E+00  0.53379140623E+03  0.53379140624E+03  0.25500000000E-02 0.  1.
          2   -1    0    0  501    0  0.00000000000E+00 -0.00000000000E+00 -0.10458042789E+04  0.10458042789E+04  0.25500000000E-02 0. -1.
    8880023    1    1    2    0    0 -0.26119295115E+03  0.49729463278E+03 -0.49501563321E+03  0.99718322936E+03  0.65864270000E+03 0.  0.
    8880022    1    1    2    0    0  0.26119295115E+03 -0.49729463278E+03 -0.16997239485E+02  0.58241245581E+03  0.15294330000E+03 0.  0.
<mgrwt>
<rscale>  0 0.78390724E+03</rscale>
<asrwt>0</asrwt>
<pdfrwt beam="1">  1        2 0.16089297E+00 0.86564075E+03</pdfrwt>
<pdfrwt beam="2">  1       -2 0.82121755E-01 0.86564075E+03</pdfrwt>
<totfact> 0.30871275E+01</totfact>
</mgrwt>
</event>
<event>
 4    5  0.2409888E-007  0.1152714E+04  0.7818608E-02  0.9204517E-01
          2   -1    0    0  501    0  0.00000000000E+00  0.00000000000E+00  0.21949997273E+04  0.21949997273E+04  0.25500000000E-02 0. -1.
         -2   -1    0    0    0  501 -0.00000000000E+00 -0.00000000000E+00 -0.83060760647E+03  0.83060760647E+03  0.25500000000E-02 0.  1.
    8880023    1    1    2    0    0 -0.16221355129E+03  0.93200068124E+03  0.16615909950E+04  0.20222841905E+04  0.65864270000E+03 0.  0.
    8880022    1    1    2    0    0  0.16221355129E+03 -0.93200068124E+03 -0.29719887418E+03  0.10033231433E+04  0.15294330000E+03 0.  0.
<mgrwt>
<rscale>  0 0.11006923E+04</rscale>
<asrwt>0</asrwt>
<pdfrwt beam="1">  1        2 0.33769227E+00 0.11527136E+04</pdfrwt>
<pdfrwt beam="2">  1       -2 0.12778579E+00 0.11527136E+04</pdfrwt>
<totfact> 0.23154579E+00</totfact>
</mgrwt>
</event>
<event>
 4    5  0.2409888E-007  0.7329672E+03  0.7818608E-02  0.9880928E-01
          2   -1    0    0  501    0  0.00000000000E+00  0.00000000000E+00  0.58575096769E+03  0.58575096770E+03  0.25500000000E-02 0. -1.
         -2   -1    0    0    0  501 -0.00000000000E+00 -0.00000000000E+00 -0.12708373817E+04  0.12708373817E+04  0.25500000000E-02 0.  1.
    8880023    1    1    2    0    0  0.12059762757E+03  0.29813900745E+03  0.31290365923E+03  0.79696271040E+03  0.65864270000E+03 0.  0.
    8880022    1    1    2    0    0 -0.12059762757E+03 -0.29813900745E+03 -0.99799007322E+03  0.10596256390E+04  0.15294330000E+03 0.  0.
<mgrwt>
<rscale>  0 0.61194564E+03</rscale>
<asrwt>0</asrwt>
<pdfrwt beam="1">  1        2 0.90115534E-01 0.73296716E+03</pdfrwt>
<pdfrwt beam="2">  1       -2 0.19551344E+00 0.73296716E+03</pdfrwt>
<totfact> 0.74257581E+00</totfact>
</mgrwt>
</event>
<event>
 4    5  0.2409888E-007  0.6721670E+03  0.7818608E-02  0.1014155E+00
          2   -1    0    0  501    0  0.00000000000E+00  0.00000000000E+00  0.56891566892E+03  0.56891566892E+03  0.25500000000E-02 0. -1.
         -2   -1    0    0    0  501 -0.00000000000E+00 -0.00000000000E+00 -0.38705455602E+03  0.38705455602E+03  0.25500000000E-02 0.  1.
    8880023    1    1    2    0    0  0.13113936328E+03 -0.28296975930E+02  0.28234963766E+03  0.72906088607E+03  0.65864270000E+03 0.  0.
    8880022    1    1    2    0    0 -0.13113936328E+03  0.28296975930E+02 -0.10048852475E+03  0.22690933888E+03  0.15294330000E+03 0.  0.
<mgrwt>
<rscale>  0 0.49856259E+03</rscale>
<asrwt>0</asrwt>
<pdfrwt beam="1">  1        2 0.87525487E-01 0.67216699E+03</pdfrwt>
<pdfrwt beam="2">  1       -2 0.59546855E-01 0.67216699E+03</pdfrwt>
<totfact> 0.14120803E+02</totfact>
</mgrwt>
</event>
<event>
 4    5  0.2409888E-007  0.1200416E+04  0.7818608E-02  0.9156718E-01
         -2   -1    0    0    0  501 -0.00000000000E+00  0.00000000000E+00  0.10656891067E+04  0.10656891067E+04  0.25500000000E-02 0.  1.
          2   -1    0    0  501    0  0.00000000000E+00 -0.00000000000E+00 -0.21782196100E+04  0.21782196100E+04  0.25500000000E-02 0. -1.
    8880023    1    1    2    0    0 -0.17688295391E+03 -0.98787647116E+03 -0.16923186479E+04  0.20748349607E+04  0.65864270000E+03 0.  0.
    8880022    1    1    2    0    0  0.17688295391E+03  0.98787647116E+03  0.57978814460E+03  0.11690737561E+04  0.15294330000E+03 0.  0.
<mgrwt>
<rscale>  0 0.11511553E+04</rscale>
<asrwt>0</asrwt>
<pdfrwt beam="1">  1        2 0.33511071E+00 0.12004156E+04</pdfrwt>
<pdfrwt beam="2">  1       -2 0.16395217E+00 0.12004156E+04</pdfrwt>
<totfact> 0.12184468E+00</totfact>
</mgrwt>
</event>
<event>
 4    5  0.2409888E-007  0.8952701E+03  0.7818608E-02  0.9533668E-01
         -2   -1    0    0    0  501 -0.00000000000E+00  0.00000000000E+00  0.24118295990E+03  0.24118295991E+03  0.25500000000E-02 0.  1.
          2   -1    0    0  501    0  0.00000000000E+00 -0.00000000000E+00 -0.30334239956E+04  0.30334239956E+04  0.25500000000E-02 0. -1.
    8880023    1    1    2    0    0 -0.57990943846E+03  0.17720995958E+03 -0.23325492746E+04  0.24984584550E+04  0.65864270000E+03 0.  0.
    8880022    1    1    2    0    0  0.57990943846E+03 -0.17720995958E+03 -0.45969176104E+03  0.77614850047E+03  0.15294330000E+03 0.  0.
<mgrwt>
<rscale>  0 0.81846506E+03</rscale>
<asrwt>0</asrwt>
<pdfrwt beam="1">  1        2 0.46668059E+00 0.89527009E+03</pdfrwt>
<pdfrwt beam="2">  1       -2 0.37105073E-01 0.89527009E+03</pdfrwt>
<totfact> 0.11794988E+01</totfact>
</mgrwt>
</event>
<event>
 4    5  0.2409888E-007  0.1330372E+04  0.7818608E-02  0.9039765E-01
          2   -1    0    0  501    0  0.00000000000E+00  0.00000000000E+00  0.17389807158E+04  0.17389807158E+04  0.25500000000E-02 0. -1.
         -2   -1    0    0    0  501 -0.00000000000E+00 -0.00000000000E+00 -0.25112842129E+04  0.25112842129E+04  0.25500000000E-02 0.  1.
    8880023    1    1    2    0    0  0.97378385162E+03 -0.62275637126E+03  0.13078826855E+04  0.18655958332E+04  0.65864270000E+03 0. -1.
    8880022    1    1    2    0    0 -0.97378385162E+03  0.62275637126E+03 -0.20801861826E+04  0.23846690955E+04  0.15294330000E+03 0.  0.
<mgrwt>
<rscale>  0 0.12872153E+04</rscale>
<asrwt>0</asrwt>
<pdfrwt beam="1">  1        2 0.26753549E+00 0.13303724E+04</pdfrwt>
<pdfrwt beam="2">  1       -2 0.38635142E+00 0.13303724E+04</pdfrwt>
<totfact> 0.81851075E-02</totfact>
</mgrwt>
</event>
<event>
 4    5  0.2409888E-007  0.1936561E+04  0.7818608E-02  0.8650535E-01
         -2   -1    0    0    0  501 -0.00000000000E+00  0.00000000000E+00  0.27503121487E+04  0.27503121487E+04  0.25500000000E-02 0.  1.
          2   -1    0    0  501    0  0.00000000000E+00 -0.00000000000E+00 -0.16151780396E+04  0.16151780396E+04  0.25500000000E-02 0. -1.
    8880023    1    1    2    0    0 -0.89295294317E+03  0.15871647428E+04 -0.40155969752E+03  0.19777556160E+04  0.65864270000E+03 0.  0.
    8880022    1    1    2    0    0  0.89295294317E+03 -0.15871647428E+04  0.15366938066E+04  0.23877345723E+04  0.15294330000E+03 0.  0.
<mgrwt>
<rscale>  0 0.19087066E+04</rscale>
<asrwt>0</asrwt>
<pdfrwt beam="1">  1        2 0.24848893E+00 0.19365606E+04</pdfrwt>
<pdfrwt beam="2">  1       -2 0.42312494E+00 0.19365606E+04</pdfrwt>
<totfact> 0.51221249E-02</totfact>
</mgrwt>
</event>
<event>
 4    5  0.2409888E-007  0.1385815E+04  0.7818608E-02  0.8994784E-01
         -2   -1    0    0    0  501 -0.00000000000E+00  0.00000000000E+00  0.21315903144E+04  0.21315903144E+04  0.25500000000E-02 0.  1.
          2   -1    0    0  501    0  0.00000000000E+00 -0.00000000000E+00 -0.93113989275E+03  0.93113989275E+03  0.25500000000E-02 0. -1.
    8880023    1    1    2    0    0  0.61912869336E+03  0.10504055649E+04  0.61405581562E+02  0.13871744813E+04  0.65864270000E+03 0.  0.
    8880022    1    1    2    0    0 -0.61912869336E+03 -0.10504055649E+04  0.11390448401E+04  0.16755557259E+04  0.15294330000E+03 0.  0.
<mgrwt>
<rscale>  0 0.13447863E+04</rscale>
<asrwt>0</asrwt>
<pdfrwt beam="1">  1        2 0.14325229E+00 0.13858147E+04</pdfrwt>
<pdfrwt beam="2">  1       -2 0.32793697E+00 0.13858147E+04</pdfrwt>
<totfact> 0.57419643E-01</totfact>
</mgrwt>
</event>
<event>
 4    5  0.2409888E-007  0.1554572E+04  0.7818608E-02  0.8872032E-01
          2   -1    0    0  501    0  0.00000000000E+00  0.00000000000E+00  0.31646019958E+04  0.31646019958E+04  0.25500000000E-02 0. -1.
         -2   -1    0    0    0  501 -0.00000000000E+00 -0.00000000000E+00 -0.11352428958E+04  0.11352428958E+04  0.25500000000E-02 0.  1.
    8880023    1    1    2    0    0 -0.44450711498E+03 -0.13361500743E+04  0.23780797254E+04  0.28411189667E+04  0.65864270000E+03 0.  0.
    8880022    1    1    2    0    0  0.44450711498E+03  0.13361500743E+04 -0.34872062546E+03  0.14587259249E+04  0.15294330000E+03 0.  0.
<mgrwt>
<rscale>  0 0.15188222E+04</rscale>
<asrwt>0</asrwt>
<pdfrwt beam="1">  1        2 0.48686184E+00 0.15545719E+04</pdfrwt>
<pdfrwt beam="2">  1       -2 0.17465276E+00 0.15545719E+04</pdfrwt>
<totfact> 0.25396902E-01</totfact>
</mgrwt>
</event>
<event>
 4    5  0.2409888E-007  0.9022226E+03  0.7818608E-02  0.9522473E-01
         -2   -1    0    0    0  501 -0.00000000000E+00  0.00000000000E+00  0.80273879934E+03  0.80273879934E+03  0.25500000000E-02 0.  1.
          2   -1    0    0  501    0  0.00000000000E+00 -0.00000000000E+00 -0.93916063249E+03  0.93916063249E+03  0.25500000000E-02 0. -1.
    8880023    1    1    2    0    0 -0.60435962104E+03  0.12224933837E+03 -0.47755720121E+03  0.10208166040E+04  0.65864270000E+03 0.  0.
    8880022    1    1    2    0    0  0.60435962104E+03 -0.12224933837E+03  0.34113536806E+03  0.72108282785E+03  0.15294330000E+03 0.  0.
<mgrwt>
<rscale>  0 0.82647067E+03</rscale>
<asrwt>0</asrwt>
<pdfrwt beam="1">  1        2 0.14448625E+00 0.90222262E+03</pdfrwt>
<pdfrwt beam="2">  1       -2 0.12349828E+00 0.90222262E+03</pdfrwt>
<totfact> 0.13654788E+01</totfact>
</mgrwt>
</event>
<event>
 4    5  0.2409888E-007  0.6943704E+03  0.7818608E-02  0.1002141E+00
         -2   -1    0    0    0  501 -0.00000000000E+00  0.00000000000E+00  0.55801346490E+03  0.55801346491E+03  0.25500000000E-02 0.  1.
          2   -1    0    0  501    0  0.00000000000E+00 -0.00000000000E+00 -0.64794986659E+03  0.64794986660E+03  0.25500000000E-02 0. -1.
    8880023    1    1    2    0    0  0.35234402376E+02 -0.21702209312E+03 -0.39592590648E+03  0.79931694696E+03  0.65864270000E+03 0. -1.
    8880022    1    1    2    0    0 -0.35234402376E+02  0.21702209312E+03  0.30598950479E+03  0.40664638455E+03  0.15294330000E+03 0.  0.
<mgrwt>
<rscale>  0 0.54721412E+03</rscale>
<asrwt>0</asrwt>
<pdfrwt beam="1">  1        2 0.99684596E-01 0.69437040E+03</pdfrwt>
<pdfrwt beam="2">  1       -2 0.85848225E-01 0.69437040E+03</pdfrwt>
<totfact> 0.54057316E+01</totfact>
</mgrwt>
</event>
<event>
 4    5  0.2409888E-007  0.8559945E+03  0.7818608E-02  0.9600729E-01
          2   -1    0    0  501    0  0.00000000000E+00  0.00000000000E+00  0.84065387762E+03  0.84065387763E+03  0.25500000000E-02 0. -1.
         -2   -1    0    0    0  501 -0.00000000000E+00 -0.00000000000E+00 -0.70727564093E+03  0.70727564093E+03  0.25500000000E-02 0.  1.
    8880023    1    1    2    0    0 -0.54643922929E+03 -0.17905149230E+02  0.37042519063E+03  0.93270652072E+03  0.65864270000E+03 0.  1.
    8880022    1    1    2    0    0  0.54643922929E+03  0.17905149230E+02 -0.23704695394E+03  0.61522299784E+03  0.15294330000E+03 0.  0.
<mgrwt>
<rscale>  0 0.77247982E+03</rscale>
<asrwt>0</asrwt>
<pdfrwt beam="1">  1        2 0.12933137E+00 0.85599453E+03</pdfrwt>
<pdfrwt beam="2">  1       -2 0.10881164E+00 0.85599453E+03</pdfrwt>
<totfact> 0.21845610E+01</totfact>
</mgrwt>
</event>
<event>
 4    5  0.2409888E-007  0.8039625E+03  0.7818608E-02  0.9702293E-01
          2   -1    0    0  501    0  0.00000000000E+00  0.00000000000E+00  0.13439821854E+04  0.13439821854E+04  0.25500000000E-02 0. -1.
         -2   -1    0    0    0  501 -0.00000000000E+00 -0.00000000000E+00 -0.37456917432E+03  0.37456917433E+03  0.25500000000E-02 0.  1.
    8880023    1    1    2    0    0  0.43737454490E+03  0.14577026384E+03  0.93278368437E+03  0.12314386182E+04  0.65864270000E+03 0.  0.
    8880022    1    1    2    0    0 -0.43737454490E+03 -0.14577026384E+03  0.36629326698E+02  0.48711274150E+03  0.15294330000E+03 0.  0.
<mgrwt>
<rscale>  0 0.70880434E+03</rscale>
<asrwt>0</asrwt>
<pdfrwt beam="1">  1        2 0.20676649E+00 0.80396248E+03</pdfrwt>
<pdfrwt beam="2">  1       -2 0.57626026E-01 0.80396248E+03</pdfrwt>
<totfact> 0.44591834E+01</totfact>
</mgrwt>
</event>
<event>
 4    5  0.3170225E-007  0.1168213E+04  0.7818608E-02  0.9188658E-01
          2   -1    0    0  501    0  0.00000000000E+00  0.00000000000E+00  0.19991609188E+04  0.19991609188E+04  0.25500000000E-02 0. -1.
         -2   -1    0    0    0  501 -0.00000000000E+00 -0.00000000000E+00 -0.20320711706E+04  0.20320711706E+04  0.25500000000E-02 0.  1.
    8880023    1    1    2    0    0 -0.91152662394E+03  0.31627745314E+03  0.16877433777E+04  0.20526081284E+04  0.65864270000E+03 0. -1.
    8880022    1    1    2    0    0  0.91152662394E+03 -0.31627745314E+03 -0.17206536294E+04  0.19786239610E+04  0.15294330000E+03 0.  0.
<mgrwt>
<rscale>  0 0.11171268E+04</rscale>
<asrwt>0</asrwt>
<pdfrwt beam="1">  1        2 0.30756322E+00 0.11682133E+04</pdfrwt>
<pdfrwt beam="2">  1       -2 0.31262634E+00 0.11682133E+04</pdfrwt>
<totfact> 0.17481502E-01</totfact>
</mgrwt>
</event>
<event>
 4    5  0.2409888E-007  0.1440938E+04  0.7818608E-02  0.8952509E-01
          2   -1    0    0  501    0  0.00000000000E+00  0.00000000000E+00  0.24883640046E+04  0.24883640046E+04  0.25500000000E-02 0. -1.
         -2   -1    0    0    0  501 -0.00000000000E+00 -0.00000000000E+00 -0.13039180613E+04  0.13039180613E+04  0.25500000000E-02 0.  1.
    8880023    1    1    2    0    0 -0.11832314670E+03 -0.12761232843E+04  0.18461019429E+04  0.23418782192E+04  0.65864270000E+03 0.  0.
    8880022    1    1    2    0    0  0.11832314670E+03  0.12761232843E+04 -0.66165599957E+03  0.14504038467E+04  0.15294330000E+03 0.  0.
<mgrwt>
<rscale>  0 0.14018109E+04</rscale>
<asrwt>0</asrwt>
<pdfrwt beam="1">  1        2 0.38282523E+00 0.14409376E+04</pdfrwt>
<pdfrwt beam="2">  1       -2 0.20060278E+00 0.14409376E+04</pdfrwt>
<totfact> 0.44080154E-01</totfact>
</mgrwt>
</event>
<event>
 4    5  0.2409888E-007  0.1663740E+04  0.7818608E-02  0.8801909E-01
         -2   -1    0    0    0  501 -0.00000000000E+00  0.00000000000E+00  0.16948711210E+04  0.16948711210E+04  0.25500000000E-02 0.  1.
          2   -1    0    0  501    0  0.00000000000E+00 -0.00000000000E+00 -0.16582876427E+04  0.16582876427E+04  0.25500000000E-02 0. -1.
    8880023    1    1    2    0    0  0.38614117582E+03 -0.14782140267E+04 -0.48257500728E+03  0.17323136438E+04  0.65864270000E+03 0. -1.
    8880022    1    1    2    0    0 -0.38614117582E+03  0.14782140267E+04  0.51915848558E+03  0.16208451199E+04  0.15294330000E+03 0.  0.
<mgrwt>
<rscale>  0 0.16306969E+04</rscale>
<asrwt>0</asrwt>
<pdfrwt beam="1">  1        2 0.25512118E+00 0.16637403E+04</pdfrwt>
<pdfrwt beam="2">  1       -2 0.26074940E+00 0.16637403E+04</pdfrwt>
<totfact> 0.52790702E-01</totfact>
</mgrwt>
</event>
<event>
 4    5  0.2409888E-007  0.8489865E+03  0.7818608E-02  0.9613463E-01
          2   -1    0    0  501    0  0.00000000000E+00  0.00000000000E+00  0.33589927806E+04  0.33589927806E+04  0.25500000000E-02 0. -1.
         -2   -1    0    0    0  501 -0.00000000000E+00 -0.00000000000E+00 -0.10220157392E+04  0.10220157392E+04  0.25500000000E-02 0.  1.
    8880023    1    1    2    0    0 -0.18758024484E+03  0.50177828646E+03  0.32238017268E+04  0.33337179810E+04  0.65864270000E+03 0. -1.
    8880022    1    1    2    0    0  0.18758024484E+03 -0.50177828646E+03 -0.88682468540E+03  0.10472905388E+04  0.15294330000E+03 0.  0.
<mgrwt>
<rscale>  0 0.76411494E+03</rscale>
<asrwt>0</asrwt>
<pdfrwt beam="1">  1        2 0.51676812E+00 0.84898646E+03</pdfrwt>
<pdfrwt beam="2">  1       -2 0.15723319E+00 0.84898646E+03</pdfrwt>
<totfact> 0.28440508E-01</totfact>
</mgrwt>
</event>
<event>
 4    5  0.2409888E-007  0.1497743E+04  0.7818608E-02  0.8911231E-01
         -2   -1    0    0    0  501 -0.00000000000E+00  0.00000000000E+00  0.14467816151E+04  0.14467816151E+04  0.25500000000E-02 0.  1.
          2   -1    0    0  501    0  0.00000000000E+00 -0.00000000000E+00 -0.16706038439E+04  0.16706038439E+04  0.25500000000E-02 0. -1.
    8880023    1    1    2    0    0 -0.89829667283E+03  0.10012424560E+04 -0.73740064939E+03  0.16694290318E+04  0.65864270000E+03 0.  0.
    8880022    1    1    2    0    0  0.89829667283E+03 -0.10012424560E+04  0.51357842062E+03  0.14479564273E+04  0.15294330000E+03 0.  0.
<mgrwt>
<rscale>  0 0.14603864E+04</rscale>
<asrwt>0</asrwt>
<pdfrwt beam="1">  1        2 0.25701598E+00 0.14977428E+04</pdfrwt>
<pdfrwt beam="2">  1       -2 0.22258179E+00 0.14977428E+04</pdfrwt>
<totfact> 0.91111973E-01</totfact>
</mgrwt>
</event>
<event>
 4    5  0.2409888E-007  0.6962168E+03  0.7818608E-02  0.1001327E+00
         -2   -1    0    0    0  501 -0.00000000000E+00  0.00000000000E+00  0.18471954859E+03  0.18471954861E+03  0.25500000000E-02 0.  1.
          2   -1    0    0  501    0  0.00000000000E+00 -0.00000000000E+00 -0.43680299852E+04  0.43680299852E+04  0.25500000000E-02 0. -1.
    8880023    1    1    2    0    0  0.21802368444E+03  0.58079835208E+02 -0.42205949786E+04  0.42776324963E+04  0.65864270000E+03 0. -1.
    8880022    1    1    2    0    0 -0.21802368444E+03 -0.58079835208E+02  0.37284541959E+02  0.27511703749E+03  0.15294330000E+03 0.  0.
<mgrwt>
<rscale>  0 0.55072072E+03</rscale>
<asrwt>0</asrwt>
<pdfrwt beam="1">  1        2 0.67200453E+00 0.69621678E+03</pdfrwt>
<pdfrwt beam="2">  1       -2 0.28418395E-01 0.69621678E+03</pdfrwt>
<totfact> 0.21292788E+00</totfact>
</mgrwt>
</event>
<event>
 4    5  0.2409888E-007  0.8822668E+03  0.7818608E-02  0.9555120E-01
          2   -1    0    0  501    0  0.00000000000E+00  0.00000000000E+00  0.77737553903E+03  0.77737553903E+03  0.25500000000E-02 0. -1.
         -2   -1    0    0    0  501 -0.00000000000E+00 -0.00000000000E+00 -0.17566335553E+04  0.17566335553E+04  0.25500000000E-02 0.  1.
    8880023    1    1    2    0    0 -0.43825704657E+03  0.39053211397E+03  0.44340133316E+03  0.98742063956E+03  0.65864270000E+03 0. -1.
    8880022    1    1    2    0    0  0.43825704657E+03 -0.39053211397E+03 -0.14226593495E+04  0.15465884548E+04  0.15294330000E+03 0.  0.
<mgrwt>
<rscale>  0 0.80339188E+03</rscale>
<asrwt>0</asrwt>
<pdfrwt beam="1">  1        2 0.11959624E+00 0.88226684E+03</pdfrwt>
<pdfrwt beam="2">  1       -2 0.27025132E+00 0.88226684E+03</pdfrwt>
<totfact> 0.17552827E+00</totfact>
</mgrwt>
</event>
<event>
 4    5  0.2409888E-007  0.7538404E+03  0.7818608E-02  0.9821323E-01
         -2   -1    0    0    0  501 -0.00000000000E+00  0.00000000000E+00  0.36646635134E+03  0.36646635135E+03  0.25500000000E-02 0.  1.
          2   -1    0    0  501    0  0.00000000000E+00 -0.00000000000E+00 -0.13294563911E+04  0.13294563911E+04  0.25500000000E-02 0. -1.
    8880023    1    1    2    0    0 -0.34345816195E+03 -0.12845862172E+03 -0.10466828844E+04  0.12898916207E+04  0.65864270000E+03 0.  0.
    8880022    1    1    2    0    0  0.34345816195E+03  0.12845862172E+03  0.83692844677E+02  0.40603112167E+03  0.15294330000E+03 0.  0.
<mgrwt>
<rscale>  0 0.64230671E+03</rscale>
<asrwt>0</asrwt>
<pdfrwt beam="1">  1        2 0.20453175E+00 0.75384039E+03</pdfrwt>
<pdfrwt beam="2">  1       -2 0.56379439E-01 0.75384039E+03</pdfrwt>
<totfact> 0.47812866E+01</totfact>
</mgrwt>
</event>
<event>
 4    5  0.2409888E-007  0.7265975E+03  0.7818608E-02  0.9900863E-01
         -2   -1    0    0    0  501 -0.00000000000E+00  0.00000000000E+00  0.59342407006E+03  0.59342407007E+03  0.25500000000E-02 0.  1.
          2   -1    0    0  501    0  0.00000000000E+00 -0.00000000000E+00 -0.18671322547E+04  0.18671322547E+04  0.25500000000E-02 0. -1.
    8880023    1    1    2    0    0  0.86220400229E+02  0.29444822677E+03 -0.17377945971E+04  0.18835800975E+04  0.65864270000E+03 0. -1.
    8880022    1    1    2    0    0 -0.86220400229E+02 -0.29444822677E+03  0.46408641243E+03  0.57697622731E+03  0.15294330000E+03 0.  0.
<mgrwt>
<rscale>  0 0.60219463E+03</rscale>
<asrwt>0</asrwt>
<pdfrwt beam="1">  1        2 0.28725111E+00 0.72659750E+03</pdfrwt>
<pdfrwt beam="2">  1       -2 0.91296012E-01 0.72659750E+03</pdfrwt>
<totfact> 0.83894681E+00</totfact>
</mgrwt>
</event>
<event>
 4    5  0.2409888E-007  0.7442489E+03  0.7818608E-02  0.9847739E-01
          2   -1    0    0  501    0  0.00000000000E+00  0.00000000000E+00  0.11133987133E+04  0.11133987133E+04  0.25500000000E-02 0. -1.
         -2   -1    0    0    0  501 -0.00000000000E+00 -0.00000000000E+00 -0.40763174549E+03  0.40763174550E+03  0.25500000000E-02 0.  1.
    8880023    1    1    2    0    0  0.34545352811E+03  0.27534430517E+02  0.83710251490E+03  0.11201103123E+04  0.65864270000E+03 0. -1.
    8880022    1    1    2    0    0 -0.34545352811E+03 -0.27534430517E+02 -0.13133554709E+03  0.40092014653E+03  0.15294330000E+03 0.  0.
<mgrwt>
<rscale>  0 0.62862347E+03</rscale>
<asrwt>0</asrwt>
<pdfrwt beam="1">  1        2 0.17129211E+00 0.74424894E+03</pdfrwt>
<pdfrwt beam="2">  1       -2 0.62712577E-01 0.74424894E+03</pdfrwt>
<totfact> 0.51258065E+01</totfact>
</mgrwt>
</event>
<event>
 4    5  0.2409888E-007  0.2149246E+04  0.7818608E-02  0.8550573E-01
          2   -1    0    0  501    0  0.00000000000E+00  0.00000000000E+00  0.28603673087E+04  0.28603673087E+04  0.25500000000E-02 0. -1.
         -2   -1    0    0    0  501 -0.00000000000E+00 -0.00000000000E+00 -0.16849409529E+04  0.16849409529E+04  0.25500000000E-02 0.  1.
    8880023    1    1    2    0    0 -0.19337110941E+04  0.66798998572E+03 -0.60760549970E+02  0.21501049433E+04  0.65864270000E+03 0.  0.
    8880022    1    1    2    0    0  0.19337110941E+04 -0.66798998572E+03  0.12361869058E+04  0.23952033182E+04  0.15294330000E+03 0.  0.
<mgrwt>
<rscale>  0 0.21243934E+04</rscale>
<asrwt>0</asrwt>
<pdfrwt beam="1">  1        2 0.44005651E+00 0.21492462E+04</pdfrwt>
<pdfrwt beam="2">  1       -2 0.25922168E+00 0.21492462E+04</pdfrwt>
<totfact> 0.10490511E-01</totfact>
</mgrwt>
</event>
<event>
 4    5  0.2409888E-007  0.1090639E+04  0.7818608E-02  0.9271551E-01
         -2   -1    0    0    0  501 -0.00000000000E+00  0.00000000000E+00  0.15119936546E+04  0.15119936546E+04  0.25500000000E-02 0.  1.
          2   -1    0    0  501    0  0.00000000000E+00 -0.00000000000E+00 -0.12579768139E+04  0.12579768139E+04  0.25500000000E-02 0. -1.
    8880023    1    1    2    0    0 -0.43605586544E+03  0.75202285474E+03 -0.83109322993E+03  0.13712072254E+04  0.65864270000E+03 0. -1.
    8880022    1    1    2    0    0  0.43605586544E+03 -0.75202285474E+03  0.10851100706E+04  0.13987632431E+04  0.15294330000E+03 0.  0.
<mgrwt>
<rscale>  0 0.10344468E+04</rscale>
<asrwt>0</asrwt>
<pdfrwt beam="1">  1        2 0.19353490E+00 0.10906389E+04</pdfrwt>
<pdfrwt beam="2">  1       -2 0.23261441E+00 0.10906389E+04</pdfrwt>
<totfact> 0.14172810E+00</totfact>
</mgrwt>
</event>
<event>
 4    5  0.2409888E-007  0.1210720E+04  0.7818608E-02  0.9146771E-01
         -2   -1    0    0    0  501 -0.00000000000E+00  0.00000000000E+00  0.64325386492E+03  0.64325386492E+03  0.25500000000E-02 0.  1.
          2   -1    0    0  501    0  0.00000000000E+00 -0.00000000000E+00 -0.25753132626E+04  0.25753132626E+04  0.25500000000E-02 0. -1.
    8880023    1    1    2    0    0 -0.81312196951E+01 -0.10158578935E+04 -0.18189156965E+04  0.21850166805E+04  0.65864270000E+03 0.  0.
    8880022    1    1    2    0    0  0.81312196951E+01  0.10158578935E+04 -0.11314370122E+03  0.10335504471E+04  0.15294330000E+03 0.  0.
<mgrwt>
<rscale>  0 0.11620138E+04</rscale>
<asrwt>0</asrwt>
<pdfrwt beam="1">  1        2 0.39620203E+00 0.12107203E+04</pdfrwt>
<pdfrwt beam="2">  1       -2 0.98962135E-01 0.12107203E+04</pdfrwt>
<totfact> 0.26191662E+00</totfact>
</mgrwt>
</event>
<event>
 4    5  0.2714727E-007  0.8585053E+03  0.7818608E-02  0.9596228E-01
          2   -1    0    0  501    0  0.00000000000E+00  0.00000000000E+00  0.19249083463E+04  0.19249083463E+04  0.25500000000E-02 0. -1.
         -2   -1    0    0    0  501 -0.00000000000E+00 -0.00000000000E+00 -0.17616801959E+04  0.17616801959E+04  0.25500000000E-02 0.  1.
    8880023    1    1    2    0    0  0.44633132717E+03 -0.32250515257E+03  0.17775939395E+04  0.19740495554E+04  0.65864270000E+03 0.  0.
    8880022    1    1    2    0    0 -0.44633132717E+03  0.32250515257E+03 -0.16143657891E+04  0.17125389868E+04  0.15294330000E+03 0.  0.
<mgrwt>
<rscale>  0 0.77546360E+03</rscale>
<asrwt>0</asrwt>
<pdfrwt beam="1">  1        2 0.29613974E+00 0.85850535E+03</pdfrwt>
<pdfrwt beam="2">  1       -2 0.27102772E+00 0.85850535E+03</pdfrwt>
<totfact> 0.36267236E-01</totfact>
</mgrwt>
</event>
<event>
 4    5  0.2409888E-007  0.7156633E+03  0.7818608E-02  0.9937543E-01
          2   -1    0    0  501    0  0.00000000000E+00  0.00000000000E+00  0.49312912444E+03  0.49312912445E+03  0.25500000000E-02 0. -1.
         -2   -1    0    0    0  501 -0.00000000000E+00 -0.00000000000E+00 -0.76770212213E+03  0.76770212213E+03  0.25500000000E-02 0.  1.
    8880023    1    1    2    0    0 -0.27566501372E+03 -0.48708637419E+02  0.14856851192E+03  0.73092170589E+03  0.65864270000E+03 0. -1.
    8880022    1    1    2    0    0  0.27566501372E+03  0.48708637419E+02 -0.42314150961E+03  0.52990954069E+03  0.15294330000E+03 0.  0.
<mgrwt>
<rscale>  0 0.58475808E+03</rscale>
<asrwt>0</asrwt>
<pdfrwt beam="1">  1        2 0.75866019E-01 0.71566328E+03</pdfrwt>
<pdfrwt beam="2">  1       -2 0.11810802E+00 0.71566328E+03</pdfrwt>
<totfact> 0.35073055E+01</totfact>
</mgrwt>
</event>
<event>
 4    5  0.2409888E-007  0.1524474E+04  0.7818608E-02  0.8892544E-01
         -2   -1    0    0    0  501 -0.00000000000E+00  0.00000000000E+00  0.91834608644E+03  0.91834608645E+03  0.25500000000E-02 0.  1.
          2   -1    0    0  501    0  0.00000000000E+00 -0.00000000000E+00 -0.27358554987E+04  0.27358554987E+04  0.25500000000E-02 0. -1.
    8880023    1    1    2    0    0 -0.70514827141E+03 -0.11802447794E+04 -0.21881252977E+03  0.15400977090E+04  0.65864270000E+03 0.  0.
    8880022    1    1    2    0    0  0.70514827141E+03  0.11802447794E+04 -0.15986968825E+04  0.21141038761E+04  0.15294330000E+03 0.  0.
<mgrwt>
<rscale>  0 0.14878926E+04</rscale>
<asrwt>0</asrwt>
<pdfrwt beam="1">  1        2 0.42090084E+00 0.15244743E+04</pdfrwt>
<pdfrwt beam="2">  1       -2 0.14128401E+00 0.15244743E+04</pdfrwt>
<totfact> 0.83751982E-01</totfact>
</mgrwt>
</event>
<event>
 4    5  0.2409888E-007  0.7122796E+03  0.7818608E-02  0.9949631E-01
          2   -1    0    0  501    0  0.00000000000E+00  0.00000000000E+00  0.94853008741E+03  0.94853008742E+03  0.25500000000E-02 0. -1.
         -2   -1    0    0    0  501 -0.00000000000E+00 -0.00000000000E+00 -0.45918369668E+03  0.45918369669E+03  0.25500000000E-02 0.  1.
    8880023    1    1    2    0    0 -0.54456250034E+02  0.26564371785E+03  0.72568854386E+03  0.10168412545E+04  0.65864270000E+03 0. -1.
    8880022    1    1    2    0    0  0.54456250034E+02 -0.26564371785E+03 -0.23634215313E+03  0.39087252956E+03  0.15294330000E+03 0.  0.
<mgrwt>
<rscale>  0 0.57915079E+03</rscale>
<asrwt>0</asrwt>
<pdfrwt beam="1">  1        2 0.14592770E+00 0.71227963E+03</pdfrwt>
<pdfrwt beam="2">  1       -2 0.70643646E-01 0.71227963E+03</pdfrwt>
<totfact> 0.50485606E+01</totfact>
</mgrwt>
</event>
<event>
 4    5  0.2409888E-007  0.6719433E+03  0.7818608E-02  0.1014306E+00
          2   -1    0    0  501    0  0.00000000000E+00  0.00000000000E+00  0.90708743840E+03  0.90708743841E+03  0.25500000000E-02 0. -1.
         -2   -1    0    0    0  501 -0.00000000000E+00 -0.00000000000E+00 -0.12486279078E+04  0.12486279078E+04  0.25500000000E-02 0.  1.
    8880023    1    1    2    0    0 -0.45275043339E+02  0.12509084823E+03  0.77223299646E+03  0.10236462069E+04  0.65864270000E+03 0.  0.
    8880022    1    1    2    0    0  0.45275043339E+02 -0.12509084823E+03 -0.11137734658E+04  0.11320691393E+04  0.15294330000E+03 0.  0.
<mgrwt>
<rscale>  0 0.49798404E+03</rscale>
<asrwt>0</asrwt>
<pdfrwt beam="1">  1        2 0.13955191E+00 0.67194327E+03</pdfrwt>
<pdfrwt beam="2">  1       -2 0.19209660E+00 0.67194327E+03</pdfrwt>
<totfact> 0.44980771E+00</totfact>
</mgrwt>
</event>
<event>
 4    5  0.2409888E-007  0.1290172E+04  0.7818608E-02  0.9074094E-01
          2   -1    0    0  501    0  0.00000000000E+00  0.00000000000E+00  0.21215223140E+04  0.21215223140E+04  0.25500000000E-02 0. -1.
         -2   -1    0    0    0  501 -0.00000000000E+00 -0.00000000000E+00 -0.10770223873E+04  0.10770223873E+04  0.25500000000E-02 0.  1.
    8880023    1    1    2    0    0  0.96426103933E+03  0.54857520808E+03 -0.41829939801E+03  0.13562885768E+04  0.65864270000E+03 0.  0.
    8880022    1    1    2    0    0 -0.96426103933E+03 -0.54857520808E+03  0.14627993247E+04  0.18422561245E+04  0.15294330000E+03 0.  0.
<mgrwt>
<rscale>  0 0.12453126E+04</rscale>
<asrwt>0</asrwt>
<pdfrwt beam="1">  1        2 0.32638804E+00 0.12901722E+04</pdfrwt>
<pdfrwt beam="2">  1       -2 0.16569575E+00 0.12901722E+04</pdfrwt>
<totfact> 0.12594528E+00</totfact>
</mgrwt>
</event>
<event>
 4    5  0.2409888E-007  0.7653271E+03  0.7818608E-02  0.9791506E-01
          2   -1    0    0  501    0  0.00000000000E+00  0.00000000000E+00  0.18071047143E+04  0.18071047143E+04  0.25500000000E-02 0. -1.
         -2   -1    0    0    0  501 -0.00000000000E+00 -0.00000000000E+00 -0.53337812230E+03  0.53337812230E+03  0.25500000000E-02 0.  1.
    8880023    1    1    2    0    0  0.35900890976E+03 -0.15174982770E+03  0.16235411036E+04  0.17948847676E+04  0.65864270000E+03 0. -1.
    8880022    1    1    2    0    0 -0.35900890976E+03  0.15174982770E+03 -0.34981451154E+03  0.54559806909E+03  0.15294330000E+03 0.  0.
<mgrwt>
<rscale>  0 0.65820361E+03</rscale>
<asrwt>0</asrwt>
<pdfrwt beam="1">  1        2 0.27801611E+00 0.76532713E+03</pdfrwt>
<pdfrwt beam="2">  1       -2 0.82058172E-01 0.76532713E+03</pdfrwt>
<totfact> 0.11479637E+01</totfact>
</mgrwt>
</event>
<event>
 4    5  0.2409888E-007  0.9240411E+03  0.7818608E-02  0.9488490E-01
          2   -1    0    0  501    0  0.00000000000E+00  0.00000000000E+00  0.38472456951E+04  0.38472456951E+04  0.25500000000E-02 0. -1.
         -2   -1    0    0    0  501 -0.00000000000E+00 -0.00000000000E+00 -0.28542996872E+03  0.28542996873E+03  0.25500000000E-02 0.  1.
    8880023    1    1    2    0    0 -0.45347172322E+03  0.46303902380E+03  0.32833301565E+04  0.34108809514E+04  0.65864270000E+03 0. -1.
    8880022    1    1    2    0    0  0.45347172322E+03 -0.46303902380E+03  0.27848556986E+03  0.72179471248E+03  0.15294330000E+03 0.  0.
<mgrwt>
<rscale>  0 0.85137720E+03</rscale>
<asrwt>0</asrwt>
<pdfrwt beam="1">  1        2 0.59188392E+00 0.92404110E+03</pdfrwt>
<pdfrwt beam="2">  1       -2 0.43912305E-01 0.92404110E+03</pdfrwt>
<totfact> 0.23623500E+00</totfact>
</mgrwt>
</event>
<event>
 4    5  0.2409888E-007  0.9151132E+03  0.7818608E-02  0.9502193E-01
          2   -1    0    0  501    0  0.00000000000E+00  0.00000000000E+00  0.48278237187E+03  0.48278237188E+03  0.25500000000E-02 0. -1.
         -2   -1    0    0    0  501 -0.00000000000E+00 -0.00000000000E+00 -0.17247660191E+04  0.17247660191E+04  0.25500000000E-02 0.  1.
    8880023    1    1    2    0    0 -0.15355386364E+02 -0.63512684662E+03 -0.13912049341E+03  0.92562768819E+03  0.65864270000E+03 0.  0.
    8880022    1    1    2    0    0  0.15355386364E+02  0.63512684662E+03 -0.11028631538E+04  0.12819207028E+04  0.15294330000E+03 0.  0.
<mgrwt>
<rscale>  0 0.84122333E+03</rscale>
<asrwt>0</asrwt>
<pdfrwt beam="1">  1        2 0.74274212E-01 0.91511317E+03</pdfrwt>
<pdfrwt beam="2">  1       -2 0.26534862E+00 0.91511317E+03</pdfrwt>
<totfact> 0.33569916E+00</totfact>
</mgrwt>
</event>
<event>
 4    5  0.2409888E-007  0.1131396E+04  0.7818608E-02  0.9226881E-01
          2   -1    0    0  501    0  0.00000000000E+00  0.00000000000E+00  0.10070316205E+04  0.10070316205E+04  0.25500000000E-02 0. -1.
         -2   -1    0    0    0  501 -0.00000000000E+00 -0.00000000000E+00 -0.16046901668E+04  0.16046901668E+04  0.25500000000E-02 0.  1.
    8880023    1    1    2    0    0 -0.56457187983E+03  0.72629484837E+03  0.44239732514E+03  0.12148132424E+04  0.65864270000E+03 0.  0.
    8880022    1    1    2    0    0  0.56457187983E+03 -0.72629484837E+03 -0.10400558714E+04  0.13969085449E+04  0.15294330000E+03 0.  0.
<mgrwt>
<rscale>  0 0.10780232E+04</rscale>
<asrwt>0</asrwt>
<pdfrwt beam="1">  1        2 0.15492794E+00 0.11313955E+04</pdfrwt>
<pdfrwt beam="2">  1       -2 0.24687541E+00 0.11313955E+04</pdfrwt>
<totfact> 0.16429757E+00</totfact>
</mgrwt>
</event>
<event>
 4    5  0.2409888E-007  0.8079931E+03  0.7818608E-02  0.9693773E-01
          2   -1    0    0  501    0  0.00000000000E+00  0.00000000000E+00  0.14810500274E+04  0.14810500274E+04  0.25500000000E-02 0. -1.
         -2   -1    0    0    0  501 -0.00000000000E+00 -0.00000000000E+00 -0.62896417457E+03  0.62896417458E+03  0.25500000000E-02 0.  1.
    8880023    1    1    2    0    0  0.21072077686E+03 -0.41789871760E+03  0.12421740797E+04  0.14818398140E+04  0.65864270000E+03 0. -1.
    8880022    1    1    2    0    0 -0.21072077686E+03  0.41789871760E+03 -0.39008822683E+03  0.62817438797E+03  0.15294330000E+03 0.  0.
<mgrwt>
<rscale>  0 0.71388781E+03</rscale>
<asrwt>0</asrwt>
<pdfrwt beam="1">  1        2 0.22785385E+00 0.80799306E+03</pdfrwt>
<pdfrwt beam="2">  1       -2 0.96763719E-01 0.80799306E+03</pdfrwt>
<totfact> 0.11808333E+01</totfact>
</mgrwt>
</event>
<event>
 4    5  0.2409888E-007  0.1539205E+04  0.7818608E-02  0.8882437E-01
          2   -1    0    0  501    0  0.00000000000E+00  0.00000000000E+00  0.40140125226E+04  0.40140125226E+04  0.25500000000E-02 0. -1.
         -2   -1    0    0    0  501 -0.00000000000E+00 -0.00000000000E+00 -0.15349932192E+04  0.15349932192E+04  0.25500000000E-02 0.  1.
    8880023    1    1    2    0    0  0.12136398243E+04  0.68001392575E+03  0.34954301035E+04  0.38193170040E+04  0.65864270000E+03 0.  0.
    8880022    1    1    2    0    0 -0.12136398243E+04 -0.68001392575E+03 -0.10164108001E+04  0.17296887379E+04  0.15294330000E+03 0.  0.
<mgrwt>
<rscale>  0 0.15030352E+04</rscale>
<asrwt>0</asrwt>
<pdfrwt beam="1">  1        2 0.61754038E+00 0.15392046E+04</pdfrwt>
<pdfrwt beam="2">  1       -2 0.23615281E+00 0.15392046E+04</pdfrwt>
<totfact> 0.24740406E-02</totfact>
</mgrwt>
</event>
<event>
 4    5  0.2409888E-007  0.1676648E+04  0.7818608E-02  0.8794026E-01
          2   -1    0    0  501    0  0.00000000000E+00  0.00000000000E+00  0.21268969415E+04  0.21268969415E+04  0.25500000000E-02 0. -1.
         -2   -1    0    0    0  501 -0.00000000000E+00 -0.00000000000E+00 -0.15929564406E+04  0.15929564406E+04  0.25500000000E-02 0.  1.
    8880023    1    1    2    0    0  0.97472476077E+03  0.11946755958E+04  0.11704550514E+04  0.20447770959E+04  0.65864270000E+03 0.  0.
    8880022    1    1    2    0    0 -0.97472476077E+03 -0.11946755958E+04 -0.63651455046E+03  0.16750762861E+04  0.15294330000E+03 0.  0.
<mgrwt>
<rscale>  0 0.16438959E+04</rscale>
<asrwt>0</asrwt>
<pdfrwt beam="1">  1        2 0.32721491E+00 0.16766479E+04</pdfrwt>
<pdfrwt beam="2">  1       -2 0.24507022E+00 0.16766479E+04</pdfrwt>
<totfact> 0.35992657E-01</totfact>
</mgrwt>
</event>
<event>
 4    5  0.2409888E-007  0.1388964E+04  0.7818608E-02  0.8992305E-01
          2   -1    0    0  501    0  0.00000000000E+00  0.00000000000E+00  0.31286665755E+04  0.31286665755E+04  0.25500000000E-02 0. -1.
         -2   -1    0    0    0  501 -0.00000000000E+00 -0.00000000000E+00 -0.85219746423E+03  0.85219746424E+03  0.25500000000E-02 0.  1.
    8880023    1    1    2    0    0 -0.94211517761E+03  0.77963501129E+03  0.23677619086E+04  0.27450898748E+04  0.65864270000E+03 0.  0.
    8880022    1    1    2    0    0  0.94211517761E+03 -0.77963501129E+03 -0.91292797387E+02  0.12357741649E+04  0.15294330000E+03 0.  0.
<mgrwt>
<rscale>  0 0.13480501E+04</rscale>
<asrwt>0</asrwt>
<pdfrwt beam="1">  1        2 0.48133332E+00 0.13889643E+04</pdfrwt>
<pdfrwt beam="2">  1       -2 0.13110730E+00 0.13889643E+04</pdfrwt>
<totfact> 0.59133344E-01</totfact>
</mgrwt>
</event>
<event>
 4    5  0.2409888E-007  0.1387232E+04  0.7818608E-02  0.8993668E-01
         -2   -1    0    0    0  501 -0.00000000000E+00  0.00000000000E+00  0.10479489108E+04  0.10479489108E+04  0.25500000000E-02 0.  1.
          2   -1    0    0  501    0  0.00000000000E+00 -0.00000000000E+00 -0.21013990441E+04  0.21013990441E+04  0.25500000000E-02 0. -1.
    8880023    1    1    2    0    0  0.71727716613E+03  0.98798558937E+03 -0.12923361575E+04  0.18959285345E+04  0.65864270000E+03 0.  0.
    8880022    1    1    2    0    0 -0.71727716613E+03 -0.98798558937E+03  0.23888602409E+03  0.12534194204E+04  0.15294330000E+03 0.  0.
<mgrwt>
<rscale>  0 0.13462549E+04</rscale>
<asrwt>0</asrwt>
<pdfrwt beam="1">  1        2 0.32329216E+00 0.13872319E+04</pdfrwt>
<pdfrwt beam="2">  1       -2 0.16122291E+00 0.13872319E+04</pdfrwt>
<totfact> 0.13796447E+00</totfact>
</mgrwt>
</event>
<event>
 4    5  0.2409888E-007  0.7261689E+03  0.7818608E-02  0.9902240E-01
          2   -1    0    0  501    0  0.00000000000E+00  0.00000000000E+00  0.13397443447E+04  0.13397443447E+04  0.25500000000E-02 0. -1.
         -2   -1    0    0    0  501 -0.00000000000E+00 -0.00000000000E+00 -0.24764748988E+03  0.24764748989E+03  0.25500000000E-02 0.  1.
    8880023    1    1    2    0    0  0.10784673696E+03  0.28614701922E+03  0.99529110825E+03  0.12320412459E+04  0.65864270000E+03 0.  0.
    8880022    1    1    2    0    0 -0.10784673696E+03 -0.28614701922E+03  0.96805746606E+02  0.35535058868E+03  0.15294330000E+03 0.  0.
<mgrwt>
<rscale>  0 0.60152861E+03</rscale>
<asrwt>0</asrwt>
<pdfrwt beam="1">  1        2 0.20611452E+00 0.72616888E+03</pdfrwt>
<pdfrwt beam="2">  1       -2 0.38099613E-01 0.72616888E+03</pdfrwt>
<totfact> 0.10381302E+02</totfact>
</mgrwt>
</event>
<event>
 4    5  0.2409888E-007  0.8220168E+03  0.7818608E-02  0.9665069E-01
         -2   -1    0    0    0  501 -0.00000000000E+00  0.00000000000E+00  0.94894657101E+03  0.94894657102E+03  0.25500000000E-02 0.  1.
          2   -1    0    0  501    0  0.00000000000E+00 -0.00000000000E+00 -0.30891362526E+04  0.30891362526E+04  0.25500000000E-02 0. -1.
    8880023    1    1    2    0    0  0.12752230815E+02 -0.49166947179E+03 -0.29588271853E+04  0.30708907515E+04  0.65864270000E+03 0. -1.
    8880022    1    1    2    0    0 -0.12752230815E+02  0.49166947179E+03  0.81863750371E+03  0.96719207213E+03  0.15294330000E+03 0.  0.
<mgrwt>
<rscale>  0 0.73135173E+03</rscale>
<asrwt>0</asrwt>
<pdfrwt beam="1">  1        2 0.47525173E+00 0.82201685E+03</pdfrwt>
<pdfrwt beam="2">  1       -2 0.14599178E+00 0.82201685E+03</pdfrwt>
<totfact> 0.51943857E-01</totfact>
</mgrwt>
</event>
<event>
 4    5  0.2409888E-007  0.8831756E+03  0.7818608E-02  0.9553598E-01
          2   -1    0    0  501    0  0.00000000000E+00  0.00000000000E+00  0.20958082991E+04  0.20958082991E+04  0.25500000000E-02 0. -1.
         -2   -1    0    0    0  501 -0.00000000000E+00 -0.00000000000E+00 -0.33104829829E+03  0.33104829830E+03  0.25500000000E-02 0.  1.
    8880023    1    1    2    0    0 -0.50989744737E+03 -0.29358743651E+03  0.15465310987E+04  0.17809429062E+04  0.65864270000E+03 0. -1.
    8880022    1    1    2    0    0  0.50989744737E+03  0.29358743651E+03  0.21822890209E+03  0.64591369116E+03  0.15294330000E+03 0.  0.
<mgrwt>
<rscale>  0 0.80444982E+03</rscale>
<asrwt>0</asrwt>
<pdfrwt beam="1">  1        2 0.32243204E+00 0.88317563E+03</pdfrwt>
<pdfrwt beam="2">  1       -2 0.50930508E-01 0.88317563E+03</pdfrwt>
<totfact> 0.21921930E+01</totfact>
</mgrwt>
</event>
<event>
 4    5  0.2409888E-007  0.7324961E+03  0.7818608E-02  0.9882370E-01
         -2   -1    0    0    0  501 -0.00000000000E+00  0.00000000000E+00  0.22294362302E+03  0.22294362304E+03  0.25500000000E-02 0.  1.
          2   -1    0    0  501    0  0.00000000000E+00 -0.00000000000E+00 -0.43965730920E+04  0.43965730920E+04  0.25500000000E-02 0. -1.
    8880023    1    1    2    0    0 -0.15541687329E+03  0.28033182281E+03 -0.41999922392E+04  0.42633889514E+04  0.65864270000E+03 0. -1.
    8880022    1    1    2    0    0  0.15541687329E+03 -0.28033182281E+03  0.26362770194E+02  0.35612776366E+03  0.15294330000E+03 0.  0.
<mgrwt>
<rscale>  0 0.61123349E+03</rscale>
<asrwt>0</asrwt>
<pdfrwt beam="1">  1        2 0.67639579E+00 0.73249610E+03</pdfrwt>
<pdfrwt beam="2">  1       -2 0.34299022E-01 0.73249610E+03</pdfrwt>
<totfact> 0.13986060E+00</totfact>
</mgrwt>
</event>
<event>
 4    5  0.2409888E-007  0.2397550E+04  0.7818608E-02  0.8448751E-01
          2   -1    0    0  501    0  0.00000000000E+00  0.00000000000E+00  0.21393321962E+04  0.21393321962E+04  0.25500000000E-02 0. -1.
         -2   -1    0    0    0  501 -0.00000000000E+00 -0.00000000000E+00 -0.30113849693E+04  0.30113849693E+04  0.25500000000E-02 0.  1.
    8880023    1    1    2    0    0  0.12497633507E+03  0.23019163930E+04  0.52011568204E+03  0.24533178949E+04  0.65864270000E+03 0.  0.
    8880022    1    1    2    0    0 -0.12497633507E+03 -0.23019163930E+04 -0.13921684551E+04  0.26973992706E+04  0.15294330000E+03 0.  0.
<mgrwt>
<rscale>  0 0.23754528E+04</rscale>
<asrwt>0</asrwt>
<pdfrwt beam="1">  1        2 0.32912803E+00 0.23975505E+04</pdfrwt>
<pdfrwt beam="2">  1       -2 0.46329000E+00 0.23975505E+04</pdfrwt>
<totfact> 0.13413920E-02</totfact>
</mgrwt>
</event>
<event>
 4    5  0.2409888E-007  0.8165796E+03  0.7818608E-02  0.9676031E-01
         -2   -1    0    0    0  501 -0.00000000000E+00  0.00000000000E+00  0.54643270040E+03  0.54643270040E+03  0.25500000000E-02 0.  1.
          2   -1    0    0  501    0  0.00000000000E+00 -0.00000000000E+00 -0.16973505040E+04  0.16973505040E+04  0.25500000000E-02 0. -1.
    8880023    1    1    2    0    0  0.36694062720E+03  0.31360252670E+03 -0.14438824818E+04  0.16587943803E+04  0.65864270000E+03 0. -1.
    8880022    1    1    2    0    0 -0.36694062720E+03 -0.31360252670E+03  0.29296467819E+03  0.58498882410E+03  0.15294330000E+03 0.  0.
<mgrwt>
<rscale>  0 0.72461974E+03</rscale>
<asrwt>0</asrwt>
<pdfrwt beam="1">  1        2 0.26113085E+00 0.81657956E+03</pdfrwt>
<pdfrwt beam="2">  1       -2 0.84066570E-01 0.81657956E+03</pdfrwt>
<totfact> 0.12393821E+01</totfact>
</mgrwt>
</event>
<event>
 4    5  0.2409888E-007  0.1346754E+04  0.7818608E-02  0.9026201E-01
          2   -1    0    0  501    0  0.00000000000E+00  0.00000000000E+00  0.24203180271E+04  0.24203180271E+04  0.25500000000E-02 0. -1.
         -2   -1    0    0    0  501 -0.00000000000E+00 -0.00000000000E+00 -0.93163857399E+03  0.93163857400E+03  0.25500000000E-02 0.  1.
    8880023    1    1    2    0    0  0.12534093869E+03  0.11680010695E+04 -0.12231657653E+03  0.13522974527E+04  0.65864270000E+03 0.  0.
    8880022    1    1    2    0    0 -0.12534093869E+03 -0.11680010695E+04  0.16109960296E+04  0.19996591484E+04  0.15294330000E+03 0.  0.
<mgrwt>
<rscale>  0 0.13042510E+04</rscale>
<asrwt>0</asrwt>
<pdfrwt beam="1">  1        2 0.37235662E+00 0.13467543E+04</pdfrwt>
<pdfrwt beam="2">  1       -2 0.14332901E+00 0.13467543E+04</pdfrwt>
<totfact> 0.12560804E+00</totfact>
</mgrwt>
</event>
<event>
 4    5  0.2409888E-007  0.7016148E+03  0.7818608E-02  0.9990567E-01
          2   -1    0    0  501    0  0.00000000000E+00  0.00000000000E+00  0.67490245308E+03  0.67490245309E+03  0.25500000000E-02 0. -1.
         -2   -1    0    0    0  501 -0.00000000000E+00 -0.00000000000E+00 -0.10598750123E+04  0.10598750123E+04  0.25500000000E-02 0.  1.
    8880023    1    1    2    0    0 -0.11145157326E+03  0.21455007782E+03  0.46248715293E+03  0.84033193558E+03  0.65864270000E+03 0. -1.
    8880022    1    1    2    0    0  0.11145157326E+03 -0.21455007782E+03 -0.84745971214E+03  0.89444552981E+03  0.15294330000E+03 0.  0.
<mgrwt>
<rscale>  0 0.56065796E+03</rscale>
<asrwt>0</asrwt>
<pdfrwt beam="1">  1        2 0.10383115E+00 0.70161485E+03</pdfrwt>
<pdfrwt beam="2">  1       -2 0.16305770E+00 0.70161485E+03</pdfrwt>
<totfact> 0.10483995E+01</totfact>
</mgrwt>
</event>
<event>
 4    5  0.2409888E-007  0.1552713E+04  0.7818608E-02  0.8873283E-01
          2   -1    0    0  501    0  0.00000000000E+00  0.00000000000E+00  0.21306701257E+04  0.21306701257E+04  0.25500000000E-02 0. -1.
         -2   -1    0    0    0  501 -0.00000000000E+00 -0.00000000000E+00 -0.11113975651E+04  0.11113975651E+04  0.25500000000E-02 0.  1.
    8880023    1    1    2    0    0  0.12754081223E+04 -0.59198093963E+03  0.96189235668E+03  0.18265142823E+04  0.65864270000E+03 0.  0.
    8880022    1    1    2    0    0 -0.12754081223E+04  0.59198093963E+03  0.57380203941E+02  0.14155534085E+04  0.15294330000E+03 0.  0.
<mgrwt>
<rscale>  0 0.15169130E+04</rscale>
<asrwt>0</asrwt>
<pdfrwt beam="1">  1        2 0.32779540E+00 0.15527130E+04</pdfrwt>
<pdfrwt beam="2">  1       -2 0.17098424E+00 0.15527130E+04</pdfrwt>
<totfact> 0.11100238E+00</totfact>
</mgrwt>
</event>
<event>
 4    5  0.2409888E-007  0.7303659E+03  0.7818608E-02  0.9888955E-01
          2   -1    0    0  501    0  0.00000000000E+00  0.00000000000E+00  0.78340934576E+03  0.78340934576E+03  0.25500000000E-02 0. -1.
         -2   -1    0    0    0  501 -0.00000000000E+00 -0.00000000000E+00 -0.15534598216E+04  0.15534598216E+04  0.25500000000E-02 0.  1.
    8880023    1    1    2    0    0  0.26835818702E+03 -0.16615647572E+03  0.58587618197E+03  0.93631468953E+03  0.65864270000E+03 0. -1.
    8880022    1    1    2    0    0 -0.26835818702E+03  0.16615647572E+03 -0.13559266578E+04  0.14005544778E+04  0.15294330000E+03 0.  0.
<mgrwt>
<rscale>  0 0.60799560E+03</rscale>
<asrwt>0</asrwt>
<pdfrwt beam="1">  1        2 0.12052452E+00 0.73036587E+03</pdfrwt>
<pdfrwt beam="2">  1       -2 0.23899382E+00 0.73036587E+03</pdfrwt>
<totfact> 0.27472210E+00</totfact>
</mgrwt>
</event>
<event>
 4    5  0.2409888E-007  0.7681055E+03  0.7818608E-02  0.9784558E-01
         -2   -1    0    0    0  501 -0.00000000000E+00  0.00000000000E+00  0.62289902192E+03  0.62289902193E+03  0.25500000000E-02 0.  1.
          2   -1    0    0  501    0  0.00000000000E+00 -0.00000000000E+00 -0.70187114313E+03  0.70187114313E+03  0.25500000000E-02 0. -1.
    8880023    1    1    2    0    0 -0.38854029035E+03  0.72195949720E+02 -0.32582889072E+03  0.83435632956E+03  0.65864270000E+03 0.  0.
    8880022    1    1    2    0    0  0.38854029035E+03 -0.72195949720E+02  0.24685676952E+03  0.49041383550E+03  0.15294330000E+03 0.  0.
<mgrwt>
<rscale>  0 0.66197883E+03</rscale>
<asrwt>0</asrwt>
<pdfrwt beam="1">  1        2 0.10798018E+00 0.76810547E+03</pdfrwt>
<pdfrwt beam="2">  1       -2 0.95830619E-01 0.76810547E+03</pdfrwt>
<totfact> 0.37727871E+01</totfact>
</mgrwt>
</event>
<event>
 4    5  0.2409888E-007  0.9060348E+03  0.7818608E-02  0.9516412E-01
          2   -1    0    0  501    0  0.00000000000E+00  0.00000000000E+00  0.36715169300E+04  0.36715169300E+04  0.25500000000E-02 0. -1.
         -2   -1    0    0    0  501 -0.00000000000E+00 -0.00000000000E+00 -0.48024920550E+03  0.48024920551E+03  0.25500000000E-02 0.  1.
    8880023    1    1    2    0    0  0.79403184502E+02 -0.61707699787E+03  0.33675215101E+04  0.34872769053E+04  0.65864270000E+03 0.  0.
    8880022    1    1    2    0    0 -0.79403184502E+02  0.61707699787E+03 -0.17625378567E+03  0.66448923015E+03  0.15294330000E+03 0.  0.
<mgrwt>
<rscale>  0 0.83084543E+03</rscale>
<asrwt>0</asrwt>
<pdfrwt beam="1">  1        2 0.56484875E+00 0.90603482E+03</pdfrwt>
<pdfrwt beam="2">  1       -2 0.73884495E-01 0.90603482E+03</pdfrwt>
<totfact> 0.10715636E+00</totfact>
</mgrwt>
</event>
<event>
 4    5  0.2409888E-007  0.1041760E+04  0.7818608E-02  0.9328853E-01
         -2   -1    0    0    0  501 -0.00000000000E+00  0.00000000000E+00  0.44656399251E+03  0.44656399252E+03  0.25500000000E-02 0.  1.
          2   -1    0    0  501    0  0.00000000000E+00 -0.00000000000E+00 -0.25625644764E+04  0.25625644764E+04  0.25500000000E-02 0. -1.
    8880023    1    1    2    0    0  0.73641551349E+03  0.33037177005E+03 -0.18884018264E+04  0.21566930656E+04  0.65864270000E+03 0.  0.
    8880022    1    1    2    0    0 -0.73641551349E+03 -0.33037177005E+03 -0.22759865749E+03  0.85243540334E+03  0.15294330000E+03 0.  0.
<mgrwt>
<rscale>  0 0.98169415E+03</rscale>
<asrwt>0</asrwt>
<pdfrwt beam="1">  1        2 0.39424068E+00 0.10417598E+04</pdfrwt>
<pdfrwt beam="2">  1       -2 0.68702154E-01 0.10417598E+04</pdfrwt>
<totfact> 0.62416028E+00</totfact>
</mgrwt>
</event>
<event>
 4    5  0.2409888E-007  0.7649324E+03  0.7818608E-02  0.9792501E-01
          2   -1    0    0  501    0  0.00000000000E+00  0.00000000000E+00  0.19619679773E+03  0.19619679775E+03  0.25500000000E-02 0. -1.
         -2   -1    0    0    0  501 -0.00000000000E+00 -0.00000000000E+00 -0.23605133256E+04  0.23605133256E+04  0.25500000000E-02 0.  1.
    8880023    1    1    2    0    0 -0.10594578321E+03 -0.37428181265E+03 -0.71048537702E+03  0.10439880562E+04  0.65864270000E+03 0. -1.
    8880022    1    1    2    0    0  0.10594578321E+03  0.37428181265E+03 -0.14538311508E+04  0.15127220671E+04  0.15294330000E+03 0.  0.
<mgrwt>
<rscale>  0 0.65766519E+03</rscale>
<asrwt>0</asrwt>
<pdfrwt beam="1">  1        2 0.30184125E-01 0.76493241E+03</pdfrwt>
<pdfrwt beam="2">  1       -2 0.36315587E+00 0.76493241E+03</pdfrwt>
<totfact> 0.23866803E+00</totfact>
</mgrwt>
</event>
<event>
 4    5  0.2409888E-007  0.6806536E+03  0.7818608E-02  0.1008956E+00
          2   -1    0    0  501    0  0.00000000000E+00  0.00000000000E+00  0.16090038979E+04  0.16090038979E+04  0.25500000000E-02 0. -1.
         -2   -1    0    0    0  501 -0.00000000000E+00 -0.00000000000E+00 -0.17105433758E+03  0.17105433760E+03  0.25500000000E-02 0.  1.
    8880023    1    1    2    0    0 -0.17166822023E+03  0.30134239984E+01  0.13863147503E+04  0.15443956267E+04  0.65864270000E+03 0.  0.
    8880022    1    1    2    0    0  0.17166822023E+03 -0.30134239984E+01  0.51634809976E+02  0.23566260878E+03  0.15294330000E+03 0.  0.
<mgrwt>
<rscale>  0 0.51891531E+03</rscale>
<asrwt>0</asrwt>
<pdfrwt beam="1">  1        2 0.24753906E+00 0.68065356E+03</pdfrwt>
<pdfrwt beam="2">  1       -2 0.26316052E-01 0.68065356E+03</pdfrwt>
<totfact> 0.14738837E+02</totfact>
</mgrwt>
</event>
<event>
 4    5  0.2409888E-007  0.2380233E+04  0.7818608E-02  0.8455411E-01
          2   -1    0    0  501    0  0.00000000000E+00  0.00000000000E+00  0.26697842879E+04  0.26697842879E+04  0.25500000000E-02 0. -1.
         -2   -1    0    0    0  501 -0.00000000000E+00 -0.00000000000E+00 -0.27641185941E+04  0.27641185941E+04  0.25500000000E-02 0.  1.
    8880023    1    1    2    0    0  0.17432082845E+04  0.14808521210E+04  0.13382892238E+04  0.27306640914E+04  0.65864270000E+03 0.  0.
    8880022    1    1    2    0    0 -0.17432082845E+04 -0.14808521210E+04 -0.14326235299E+04  0.27032387906E+04  0.15294330000E+03 0.  0.
<mgrwt>
<rscale>  0 0.23579636E+04</rscale>
<asrwt>0</asrwt>
<pdfrwt beam="1">  1        2 0.41073605E+00 0.23802328E+04</pdfrwt>
<pdfrwt beam="2">  1       -2 0.42524901E+00 0.23802328E+04</pdfrwt>
<totfact> 0.11838232E-02</totfact>
</mgrwt>
</event>
<event>
 4    5  0.2409888E-007  0.1811217E+04  0.7818608E-02  0.8716357E-01
          2   -1    0    0  501    0  0.00000000000E+00  0.00000000000E+00  0.26848102644E+04  0.26848102644E+04  0.25500000000E-02 0. -1.
         -2   -1    0    0    0  501 -0.00000000000E+00 -0.00000000000E+00 -0.14785008884E+04  0.14785008884E+04  0.25500000000E-02 0.  1.
    8880023    1    1    2    0    0  0.79538887550E+02  0.16853398214E+04  0.16082112703E+04  0.24221582204E+04  0.65864270000E+03 0.  0.
    8880022    1    1    2    0    0 -0.79538887550E+02 -0.16853398214E+04 -0.40190189434E+03  0.17411529324E+04  0.15294330000E+03 0.  0.
<mgrwt>
<rscale>  0 0.17812085E+04</rscale>
<asrwt>0</asrwt>
<pdfrwt beam="1">  1        2 0.41304773E+00 0.18112170E+04</pdfrwt>
<pdfrwt beam="2">  1       -2 0.22746168E+00 0.18112170E+04</pdfrwt>
<totfact> 0.21820025E-01</totfact>
</mgrwt>
</event>
<event>
 4    5  0.2409888E-007  0.8146680E+03  0.7818608E-02  0.9679934E-01
         -2   -1    0    0    0  501 -0.00000000000E+00  0.00000000000E+00  0.51188567044E+03  0.51188567045E+03  0.25500000000E-02 0.  1.
          2   -1    0    0  501    0  0.00000000000E+00 -0.00000000000E+00 -0.29440623580E+04  0.29440623580E+04  0.25500000000E-02 0. -1.
    8880023    1    1    2    0    0 -0.16841509201E+03  0.44889880841E+03 -0.27450351078E+04  0.28633724404E+04  0.65864270000E+03 0. -1.
    8880022    1    1    2    0    0  0.16841509201E+03 -0.44889880841E+03  0.31285842021E+03  0.59257558803E+03  0.15294330000E+03 0.  0.
<mgrwt>
<rscale>  0 0.72224159E+03</rscale>
<asrwt>0</asrwt>
<pdfrwt beam="1">  1        2 0.45293266E+00 0.81466802E+03</pdfrwt>
<pdfrwt beam="2">  1       -2 0.78751643E-01 0.81466802E+03</pdfrwt>
<totfact> 0.28422373E+00</totfact>
</mgrwt>
</event>
<event>
 4    5  0.2409888E-007  0.8881408E+03  0.7818608E-02  0.9545344E-01
          2   -1    0    0  501    0  0.00000000000E+00  0.00000000000E+00  0.14209178197E+04  0.14209178197E+04  0.25500000000E-02 0. -1.
         -2   -1    0    0    0  501 -0.00000000000E+00 -0.00000000000E+00 -0.18420801687E+04  0.18420801687E+04  0.25500000000E-02 0.  1.
    8880023    1    1    2    0    0 -0.41349917492E+03 -0.42895486234E+03  0.12207498386E+04  0.15096437382E+04  0.65864270000E+03 0. -1.
    8880022    1    1    2    0    0  0.41349917492E+03  0.42895486234E+03 -0.16419121877E+04  0.17533542502E+04  0.15294330000E+03 0.  0.
<mgrwt>
<rscale>  0 0.81021771E+03</rscale>
<asrwt>0</asrwt>
<pdfrwt beam="1">  1        2 0.21860274E+00 0.88814078E+03</pdfrwt>
<pdfrwt beam="2">  1       -2 0.28339695E+00 0.88814078E+03</pdfrwt>
<totfact> 0.57716822E-01</totfact>
</mgrwt>
</event>
<event>
 4    5  0.2409888E-007  0.1093889E+04  0.7818608E-02  0.9267891E-01
         -2   -1    0    0    0  501 -0.00000000000E+00  0.00000000000E+00  0.28765589682E+04  0.28765589682E+04  0.25500000000E-02 0.  1.
          2   -1    0    0  501    0  0.00000000000E+00 -0.00000000000E+00 -0.35540367123E+03  0.35540367124E+03  0.25500000000E-02 0. -1.
    8880023    1    1    2    0    0 -0.18825099012E+03 -0.85284486209E+03  0.10624768170E+04  0.15249426176E+04  0.65864270000E+03 0.  0.
    8880022    1    1    2    0    0  0.18825099012E+03  0.85284486209E+03  0.14586784800E+04  0.17070200218E+04  0.15294330000E+03 0.  0.
<mgrwt>
<rscale>  0 0.10379341E+04</rscale>
<asrwt>0</asrwt>
<pdfrwt beam="1">  1        2 0.54677490E-01 0.10938889E+04</pdfrwt>
<pdfrwt beam="2">  1       -2 0.44254752E+00 0.10938889E+04</pdfrwt>
<totfact> 0.35679275E-01</totfact>
</mgrwt>
</event>
<event>
 4    5  0.2409888E-007  0.8699526E+03  0.7818608E-02  0.9576099E-01
          2   -1    0    0  501    0  0.00000000000E+00  0.00000000000E+00  0.77552895200E+03  0.77552895200E+03  0.25500000000E-02 0. -1.
         -2   -1    0    0    0  501 -0.00000000000E+00 -0.00000000000E+00 -0.23230900692E+04  0.23230900692E+04  0.25500000000E-02 0.  1.
    8880023    1    1    2    0    0  0.37002180026E+03 -0.43138289037E+03  0.47568187401E+03  0.99150934554E+03  0.65864270000E+03 0. -1.
    8880022    1    1    2    0    0 -0.37002180026E+03  0.43138289037E+03 -0.20232429912E+04  0.21071096757E+04  0.15294330000E+03 0.  0.
<mgrwt>
<rscale>  0 0.78898504E+03</rscale>
<asrwt>0</asrwt>
<pdfrwt beam="1">  1        2 0.11931215E+00 0.86995261E+03</pdfrwt>
<pdfrwt beam="2">  1       -2 0.35739847E+00 0.86995261E+03</pdfrwt>
<totfact> 0.51871332E-01</totfact>
</mgrwt>
</event>
<event>
 4    5  0.2409888E-007  0.1212855E+04  0.7818608E-02  0.9144727E-01
          2   -1    0    0  501    0  0.00000000000E+00  0.00000000000E+00  0.23406277183E+04  0.23406277183E+04  0.25500000000E-02 0. -1.
         -2   -1    0    0    0  501 -0.00000000000E+00 -0.00000000000E+00 -0.85458232802E+03  0.85458232802E+03  0.25500000000E-02 0.  1.
    8880023    1    1    2    0    0 -0.10272694857E+03 -0.10132389428E+04  0.17526718933E+04  0.21314021096E+04  0.65864270000E+03 0.  0.
    8880022    1    1    2    0    0  0.10272694857E+03  0.10132389428E+04 -0.26662650298E+03  0.10638079367E+04  0.15294330000E+03 0.  0.
<mgrwt>
<rscale>  0 0.11642611E+04</rscale>
<asrwt>0</asrwt>
<pdfrwt beam="1">  1        2 0.36009656E+00 0.12128546E+04</pdfrwt>
<pdfrwt beam="2">  1       -2 0.13147421E+00 0.12128546E+04</pdfrwt>
<totfact> 0.17711518E+00</totfact>
</mgrwt>
</event>
<event>
 4    5  0.2409888E-007  0.1183506E+04  0.7818608E-02  0.9173324E-01
         -2   -1    0    0    0  501 -0.00000000000E+00  0.00000000000E+00  0.74560419900E+03  0.74560419901E+03  0.25500000000E-02 0.  1.
          2   -1    0    0  501    0  0.00000000000E+00 -0.00000000000E+00 -0.39040650880E+04  0.39040650880E+04  0.25500000000E-02 0. -1.
    8880023    1    1    2    0    0  0.95976890964E+03  0.21382334439E+03 -0.34214685072E+04  0.36203775680E+04  0.65864270000E+03 0. -1.
    8880022    1    1    2    0    0 -0.95976890964E+03 -0.21382334439E+03  0.26300761826E+03  0.10292917190E+04  0.15294330000E+03 0.  0.
<mgrwt>
<rscale>  0 0.11333056E+04</rscale>
<asrwt>0</asrwt>
<pdfrwt beam="1">  1        2 0.60062539E+00 0.11835062E+04</pdfrwt>
<pdfrwt beam="2">  1       -2 0.11470834E+00 0.11835062E+04</pdfrwt>
<totfact> 0.24491920E-01</totfact>
</mgrwt>
</event>
<event>
 4    5  0.2409888E-007  0.1095610E+04  0.7818608E-02  0.9265959E-01
          2   -1    0    0  501    0  0.00000000000E+00  0.00000000000E+00  0.33181996750E+04  0.33181996750E+04  0.25500000000E-02 0. -1.
         -2   -1    0    0    0  501 -0.00000000000E+00 -0.00000000000E+00 -0.47368847486E+03  0.47368847487E+03  0.25500000000E-02 0.  1.
    8880023    1    1    2    0    0 -0.62282354467E+02 -0.87331122046E+03  0.26701149333E+04  0.28861523769E+04  0.65864270000E+03 0.  0.
    8880022    1    1    2    0    0  0.62282354467E+02  0.87331122046E+03  0.17439626680E+03  0.90573577292E+03  0.15294330000E+03 0.  0.
<mgrwt>
<rscale>  0 0.10397802E+04</rscale>
<asrwt>0</asrwt>
<pdfrwt beam="1">  1        2 0.51049222E+00 0.10956102E+04</pdfrwt>
<pdfrwt beam="2">  1       -2 0.72875155E-01 0.10956102E+04</pdfrwt>
<totfact> 0.18711674E+00</totfact>
</mgrwt>
</event>
<event>
 4    5  0.2409888E-007  0.1338514E+04  0.7818608E-02  0.9032994E-01
          2   -1    0    0  501    0  0.00000000000E+00  0.00000000000E+00  0.89012179880E+03  0.89012179880E+03  0.25500000000E-02 0. -1.
         -2   -1    0    0    0  501 -0.00000000000E+00 -0.00000000000E+00 -0.22533840706E+04  0.22533840706E+04  0.25500000000E-02 0.  1.
    8880023    1    1    2    0    0  0.11298607430E+04 -0.28500063080E+03 -0.14396753329E+04  0.19657787079E+04  0.65864270000E+03 0.  1.
    8880022    1    1    2    0    0 -0.11298607430E+04  0.28500063080E+03  0.76413061059E+02  0.11777271615E+04  0.15294330000E+03 0.  0.
<mgrwt>
<rscale>  0 0.12956851E+04</rscale>
<asrwt>0</asrwt>
<pdfrwt beam="1">  1        2 0.13694182E+00 0.13385144E+04</pdfrwt>
<pdfrwt beam="2">  1       -2 0.34667447E+00 0.13385144E+04</pdfrwt>
<totfact> 0.47051829E-01</totfact>
</mgrwt>
</event>
<event>
 4    5  0.2409888E-007  0.1281280E+04  0.7818608E-02  0.9081897E-01
         -2   -1    0    0    0  501 -0.00000000000E+00  0.00000000000E+00  0.55025652887E+03  0.55025652888E+03  0.25500000000E-02 0.  1.
          2   -1    0    0  501    0  0.00000000000E+00 -0.00000000000E+00 -0.38503818218E+04  0.38503818218E+04  0.25500000000E-02 0. -1.
    8880023    1    1    2    0    0  0.10825435118E+04 -0.18965064463E+03 -0.29830905468E+04  0.32466147352E+04  0.65864270000E+03 0.  0.
    8880022    1    1    2    0    0 -0.10825435118E+04  0.18965064463E+03 -0.31703474614E+03  0.11540236155E+04  0.15294330000E+03 0.  0.
<mgrwt>
<rscale>  0 0.12360234E+04</rscale>
<asrwt>0</asrwt>
<pdfrwt beam="1">  1        2 0.59236642E+00 0.12812798E+04</pdfrwt>
<pdfrwt beam="2">  1       -2 0.84654853E-01 0.12812798E+04</pdfrwt>
<totfact> 0.54602793E-01</totfact>
</mgrwt>
</event>
<event>
 4    5  0.2409888E-007  0.7398364E+03  0.7818608E-02  0.9860424E-01
          2   -1    0    0  501    0  0.00000000000E+00  0.00000000000E+00  0.32217985291E+04  0.32217985291E+04  0.25500000000E-02 0. -1.
         -2   -1    0    0    0  501 -0.00000000000E+00 -0.00000000000E+00 -0.45934108643E+03  0.45934108644E+03  0.25500000000E-02 0.  1.
    8880023    1    1    2    0    0 -0.98831608946E+02  0.32214907517E+03  0.30958675316E+04  0.31830415789E+04  0.65864270000E+03 0. -1.
    8880022    1    1    2    0    0  0.98831608946E+02 -0.32214907517E+03 -0.33341008901E+03  0.49809803656E+03  0.15294330000E+03 0.  0.
<mgrwt>
<rscale>  0 0.62218254E+03</rscale>
<asrwt>0</asrwt>
<pdfrwt beam="1">  1        2 0.49566130E+00 0.73983641E+03</pdfrwt>
<pdfrwt beam="2">  1       -2 0.70667862E-01 0.73983641E+03</pdfrwt>
<totfact> 0.24629242E+00</totfact>
</mgrwt>
</event>
<event>
 4    5  0.2409888E-007  0.9299816E+03  0.7818608E-02  0.9479521E-01
         -2   -1    0    0    0  501 -0.00000000000E+00  0.00000000000E+00  0.51505855223E+03  0.51505855224E+03  0.25500000000E-02 0.  1.
          2   -1    0    0  501    0  0.00000000000E+00 -0.00000000000E+00 -0.21756923365E+04  0.21756923365E+04  0.25500000000E-02 0. -1.
    8880023    1    1    2    0    0 -0.36694646689E+03  0.54443167430E+03 -0.17779589422E+04  0.20064904097E+04  0.65864270000E+03 0. -1.
    8880022    1    1    2    0    0  0.36694646689E+03 -0.54443167430E+03  0.11732515796E+03  0.68426047909E+03  0.15294330000E+03 0.  0.
<mgrwt>
<rscale>  0 0.85810651E+03</rscale>
<asrwt>0</asrwt>
<pdfrwt beam="1">  1        2 0.33472189E+00 0.92998159E+03</pdfrwt>
<pdfrwt beam="2">  1       -2 0.79239778E-01 0.92998159E+03</pdfrwt>
<totfact> 0.76277834E+00</totfact>
</mgrwt>
</event>
<event>
 4    5  0.2409888E-007  0.7566793E+03  0.7818608E-02  0.9813781E-01
         -2   -1    0    0    0  501 -0.00000000000E+00  0.00000000000E+00  0.50485479579E+03  0.50485479579E+03  0.25500000000E-02 0.  1.
          2   -1    0    0  501    0  0.00000000000E+00 -0.00000000000E+00 -0.17903297355E+04  0.17903297355E+04  0.25500000000E-02 0. -1.
    8880023    1    1    2    0    0  0.24718454401E+03  0.27866327115E+03 -0.16093913773E+04  0.17783993447E+04  0.65864270000E+03 0. -1.
    8880022    1    1    2    0    0 -0.24718454401E+03 -0.27866327115E+03  0.32391643764E+03  0.51678518659E+03  0.15294330000E+03 0.  0.
<mgrwt>
<rscale>  0 0.64628173E+03</rscale>
<asrwt>0</asrwt>
<pdfrwt beam="1">  1        2 0.27543534E+00 0.75667934E+03</pdfrwt>
<pdfrwt beam="2">  1       -2 0.77669969E-01 0.75667934E+03</pdfrwt>
<totfact> 0.13281937E+01</totfact>
</mgrwt>
</event>
<event>
 4    5  0.2409888E-007  0.7453465E+03  0.7818608E-02  0.9844638E-01
         -2   -1    0    0    0  501 -0.00000000000E+00  0.00000000000E+00  0.12462086322E+04  0.12462086322E+04  0.25500000000E-02 0.  1.
          2   -1    0    0  501    0  0.00000000000E+00 -0.00000000000E+00 -0.17779811198E+04  0.17779811199E+04  0.25500000000E-02 0. -1.
    8880023    1    1    2    0    0  0.34883890178E+03 -0.65297708210E+01 -0.16673797498E+04  0.18263889656E+04  0.65864270000E+03 0. -1.
    8880022    1    1    2    0    0 -0.34883890178E+03  0.65297708210E+01  0.11356072621E+04  0.11978007865E+04  0.15294330000E+03 0.  0.
<mgrwt>
<rscale>  0 0.63021052E+03</rscale>
<asrwt>0</asrwt>
<pdfrwt beam="1">  1        2 0.27353556E+00 0.74534651E+03</pdfrwt>
<pdfrwt beam="2">  1       -2 0.19172441E+00 0.74534651E+03</pdfrwt>
<totfact> 0.13904590E+00</totfact>
</mgrwt>
</event>
<event>
 4    5  0.2409888E-007  0.1209582E+04  0.7818608E-02  0.9147864E-01
         -2   -1    0    0    0  501 -0.00000000000E+00  0.00000000000E+00  0.16086539010E+04  0.16086539010E+04  0.25500000000E-02 0.  1.
          2   -1    0    0  501    0  0.00000000000E+00 -0.00000000000E+00 -0.80486639815E+03  0.80486639816E+03  0.25500000000E-02 0. -1.
    8880023    1    1    2    0    0 -0.76891404792E+03 -0.66185257341E+03  0.65872724755E+03  0.13773196561E+04  0.65864270000E+03 0.  0.
    8880022    1    1    2    0    0  0.76891404792E+03  0.66185257341E+03  0.14506025525E+03  0.10362006431E+04  0.15294330000E+03 0.  0.
<mgrwt>
<rscale>  0 0.11608147E+04</rscale>
<asrwt>0</asrwt>
<pdfrwt beam="1">  1        2 0.12382560E+00 0.12095817E+04</pdfrwt>
<pdfrwt beam="2">  1       -2 0.24748521E+00 0.12095817E+04</pdfrwt>
<totfact> 0.22197895E+00</totfact>
</mgrwt>
</event>
<event>
 4    5  0.2409888E-007  0.1392739E+04  0.7818608E-02  0.8989346E-01
          2   -1    0    0  501    0  0.00000000000E+00  0.00000000000E+00  0.25570078715E+04  0.25570078715E+04  0.25500000000E-02 0. -1.
         -2   -1    0    0    0  501 -0.00000000000E+00 -0.00000000000E+00 -0.15377779376E+04  0.15377779376E+04  0.25500000000E-02 0.  1.
    8880023    1    1    2    0    0  0.70105556953E+03  0.10071899540E+04  0.20544479659E+04  0.24820308551E+04  0.65864270000E+03 0.  0.
    8880022    1    1    2    0    0 -0.70105556953E+03 -0.10071899540E+04 -0.10352180320E+04  0.16127549540E+04  0.15294330000E+03 0.  0.
<mgrwt>
<rscale>  0 0.13519601E+04</rscale>
<asrwt>0</asrwt>
<pdfrwt beam="1">  1        2 0.39338582E+00 0.13927386E+04</pdfrwt>
<pdfrwt beam="2">  1       -2 0.23658122E+00 0.13927386E+04</pdfrwt>
<totfact> 0.23857869E-01</totfact>
</mgrwt>
</event>
<event>
 4    5  0.2409888E-007  0.1181686E+04  0.7818608E-02  0.9175133E-01
          2   -1    0    0  501    0  0.00000000000E+00  0.00000000000E+00  0.25608347207E+04  0.25608347207E+04  0.25500000000E-02 0. -1.
         -2   -1    0    0    0  501 -0.00000000000E+00 -0.00000000000E+00 -0.51982149321E+03  0.51982149321E+03  0.25500000000E-02 0.  1.
    8880023    1    1    2    0    0  0.87813028731E+03  0.43756125819E+03  0.58571681235E+03  0.13188809828E+04  0.65864270000E+03 0.  0.
    8880022    1    1    2    0    0 -0.87813028731E+03 -0.43756125819E+03  0.14552964151E+04  0.17617752311E+04  0.15294330000E+03 0.  0.
<mgrwt>
<rscale>  0 0.11313822E+04</rscale>
<asrwt>0</asrwt>
<pdfrwt beam="1">  1        2 0.39397456E+00 0.11816864E+04</pdfrwt>
<pdfrwt beam="2">  1       -2 0.79972540E-01 0.11816864E+04</pdfrwt>
<totfact> 0.43899423E+00</totfact>
</mgrwt>
</event>
<event>
 4    5  0.2409888E-007  0.1031546E+04  0.7818608E-02  0.9341402E-01
          2   -1    0    0  501    0  0.00000000000E+00  0.00000000000E+00  0.18832097842E+04  0.18832097842E+04  0.25500000000E-02 0. -1.
         -2   -1    0    0    0  501 -0.00000000000E+00 -0.00000000000E+00 -0.13278944194E+04  0.13278944194E+04  0.25500000000E-02 0.  1.
    8880023    1    1    2    0    0 -0.66462303768E+03  0.43422693012E+03  0.15916556418E+04  0.18966957314E+04  0.65864270000E+03 0.  0.
    8880022    1    1    2    0    0  0.66462303768E+03 -0.43422693012E+03 -0.10363402770E+04  0.13144084722E+04  0.15294330000E+03 0.  0.
<mgrwt>
<rscale>  0 0.97059069E+03</rscale>
<asrwt>0</asrwt>
<pdfrwt beam="1">  1        2 0.28972458E+00 0.10315459E+04</pdfrwt>
<pdfrwt beam="2">  1       -2 0.20429145E+00 0.10315459E+04</pdfrwt>
<totfact> 0.96028106E-01</totfact>
</mgrwt>
</event>
<event>
 4    5  0.2409888E-007  0.8507879E+03  0.7818608E-02  0.9610165E-01
          2   -1    0    0  501    0  0.00000000000E+00  0.00000000000E+00  0.18382101766E+04  0.18382101766E+04  0.25500000000E-02 0. -1.
         -2   -1    0    0    0  501 -0.00000000000E+00 -0.00000000000E+00 -0.46655782070E+03  0.46655782071E+03  0.25500000000E-02 0.  1.
    8880023    1    1    2    0    0 -0.49090624869E+03 -0.22145168570E+03  0.15053919428E+04  0.17291746303E+04  0.65864270000E+03 0.  0.
    8880022    1    1    2    0    0  0.49090624869E+03  0.22145168570E+03 -0.13373958692E+03  0.57559336708E+03  0.15294330000E+03 0.  0.
<mgrwt>
<rscale>  0 0.76627041E+03</rscale>
<asrwt>0</asrwt>
<pdfrwt beam="1">  1        2 0.28280156E+00 0.85078787E+03</pdfrwt>
<pdfrwt beam="2">  1       -2 0.71778127E-01 0.85078787E+03</pdfrwt>
<totfact> 0.14713745E+01</totfact>
</mgrwt>
</event>
<event>
 4    5  0.2409888E-007  0.1256932E+04  0.7818608E-02  0.9103673E-01
          2   -1    0    0  501    0  0.00000000000E+00  0.00000000000E+00  0.37708149805E+04  0.37708149805E+04  0.25500000000E-02 0. -1.
         -2   -1    0    0    0  501 -0.00000000000E+00 -0.00000000000E+00 -0.43819406870E+03  0.43819406870E+03  0.25500000000E-02 0.  1.
    8880023    1    1    2    0    0 -0.21368824858E+03 -0.10490023665E+04  0.26423451332E+04  0.29260667528E+04  0.65864270000E+03 0.  0.
    8880022    1    1    2    0    0  0.21368824858E+03  0.10490023665E+04  0.69027577855E+03  0.12829422964E+04  0.15294330000E+03 0.  0.
<mgrwt>
<rscale>  0 0.12105482E+04</rscale>
<asrwt>0</asrwt>
<pdfrwt beam="1">  1        2 0.58012538E+00 0.12569323E+04</pdfrwt>
<pdfrwt beam="2">  1       -2 0.67414472E-01 0.12569323E+04</pdfrwt>
<totfact> 0.10466834E+00</totfact>
</mgrwt>
</event>
<event>
 4    5  0.2409888E-007  0.1267000E+04  0.7818608E-02  0.9094595E-01
         -2   -1    0    0    0  501 -0.00000000000E+00  0.00000000000E+00  0.10679063957E+04  0.10679063957E+04  0.25500000000E-02 0.  1.
          2   -1    0    0  501    0  0.00000000000E+00 -0.00000000000E+00 -0.25865232932E+04  0.25865232932E+04  0.25500000000E-02 0. -1.
    8880023    1    1    2    0    0 -0.97661106470E+03  0.46659330506E+03 -0.20724271788E+04  0.24290416015E+04  0.65864270000E+03 0. -1.
    8880022    1    1    2    0    0  0.97661106470E+03 -0.46659330506E+03  0.55381028130E+03  0.12253880874E+04  0.15294330000E+03 0.  0.
<mgrwt>
<rscale>  0 0.12210896E+04</rscale>
<asrwt>0</asrwt>
<pdfrwt beam="1">  1        2 0.39792666E+00 0.12669999E+04</pdfrwt>
<pdfrwt beam="2">  1       -2 0.16429329E+00 0.12669999E+04</pdfrwt>
<totfact> 0.70370475E-01</totfact>
</mgrwt>
</event>
<event>
 4    5  0.2564520E-007  0.8366257E+03  0.7818608E-02  0.9636576E-01
          2   -1    0    0  501    0  0.00000000000E+00  0.00000000000E+00  0.26203883972E+04  0.26203883972E+04  0.25500000000E-02 0. -1.
         -2   -1    0    0    0  501 -0.00000000000E+00 -0.00000000000E+00 -0.77739448591E+03  0.77739448592E+03  0.25500000000E-02 0.  1.
    8880023    1    1    2    0    0 -0.31395363898E+03  0.40934760637E+03  0.24486515593E+04  0.25876315455E+04  0.65864270000E+03 0. -1.
    8880022    1    1    2    0    0  0.31395363898E+03 -0.40934760637E+03 -0.60565764798E+03  0.81015133762E+03  0.15294330000E+03 0.  0.
<mgrwt>
<rscale>  0 0.74921933E+03</rscale>
<asrwt>0</asrwt>
<pdfrwt beam="1">  1        2 0.40313668E+00 0.83662570E+03</pdfrwt>
<pdfrwt beam="2">  1       -2 0.11959915E+00 0.83662570E+03</pdfrwt>
<totfact> 0.16440627E+00</totfact>
</mgrwt>
</event>
<event>
 4    5  0.2409888E-007  0.7533662E+03  0.7818608E-02  0.9822595E-01
         -2   -1    0    0    0  501 -0.00000000000E+00  0.00000000000E+00  0.19728647958E+03  0.19728647959E+03  0.25500000000E-02 0.  1.
          2   -1    0    0  501    0  0.00000000000E+00 -0.00000000000E+00 -0.20653225733E+04  0.20653225733E+04  0.25500000000E-02 0. -1.
    8880023    1    1    2    0    0  0.55775758283E+02 -0.36144079309E+03 -0.16412829093E+04  0.18059264041E+04  0.65864270000E+03 0.  0.
    8880022    1    1    2    0    0 -0.55775758283E+02  0.36144079309E+03 -0.22675318442E+03  0.45668264887E+03  0.15294330000E+03 0.  0.
<mgrwt>
<rscale>  0 0.64163956E+03</rscale>
<asrwt>0</asrwt>
<pdfrwt beam="1">  1        2 0.31774192E+00 0.75336617E+03</pdfrwt>
<pdfrwt beam="2">  1       -2 0.30351768E-01 0.75336617E+03</pdfrwt>
<totfact> 0.63440022E+01</totfact>
</mgrwt>
</event>
<event>
 4    5  0.2409888E-007  0.7723720E+03  0.7818608E-02  0.9774070E-01
         -2   -1    0    0    0  501 -0.00000000000E+00  0.00000000000E+00  0.11673852305E+04  0.11673852305E+04  0.25500000000E-02 0.  1.
          2   -1    0    0  501    0  0.00000000000E+00 -0.00000000000E+00 -0.79424987743E+03  0.79424987743E+03  0.25500000000E-02 0. -1.
    8880023    1    1    2    0    0  0.14465527314E+03  0.37659421776E+03 -0.54627367128E+03  0.94603038170E+03  0.65864270000E+03 0. -1.
    8880022    1    1    2    0    0 -0.14465527314E+03 -0.37659421776E+03  0.91940902436E+03  0.10156047263E+04  0.15294330000E+03 0.  0.
<mgrwt>
<rscale>  0 0.66772843E+03</rscale>
<asrwt>0</asrwt>
<pdfrwt beam="1">  1        2 0.12219229E+00 0.77237203E+03</pdfrwt>
<pdfrwt beam="2">  1       -2 0.17959773E+00 0.77237203E+03</pdfrwt>
<totfact> 0.64496836E+00</totfact>
</mgrwt>
</event>
<event>
 4    5  0.2409888E-007  0.7370995E+03  0.7818608E-02  0.9868478E-01
         -2   -1    0    0    0  501 -0.00000000000E+00  0.00000000000E+00  0.53290778584E+03  0.53290778585E+03  0.25500000000E-02 0.  1.
          2   -1    0    0  501    0  0.00000000000E+00 -0.00000000000E+00 -0.12412051517E+04  0.12412051517E+04  0.25500000000E-02 0. -1.
    8880023    1    1    2    0    0  0.25623697851E+03  0.20939942735E+03 -0.10443691643E+04  0.12782889606E+04  0.65864270000E+03 0. -1.
    8880022    1    1    2    0    0 -0.25623697851E+03 -0.20939942735E+03  0.33607179845E+03  0.49582397689E+03  0.15294330000E+03 0.  0.
<mgrwt>
<rscale>  0 0.61813604E+03</rscale>
<asrwt>0</asrwt>
<pdfrwt beam="1">  1        2 0.19095464E+00 0.73709953E+03</pdfrwt>
<pdfrwt beam="2">  1       -2 0.81985814E-01 0.73709953E+03</pdfrwt>
<totfact> 0.23903151E+01</totfact>
</mgrwt>
</event>
<event>
 4    5  0.2409888E-007  0.1468066E+04  0.7818608E-02  0.8932521E-01
          2   -1    0    0  501    0  0.00000000000E+00  0.00000000000E+00  0.11025313985E+04  0.11025313985E+04  0.25500000000E-02 0. -1.
         -2   -1    0    0    0  501 -0.00000000000E+00 -0.00000000000E+00 -0.20271726521E+04  0.20271726521E+04  0.25500000000E-02 0.  1.
    8880023    1    1    2    0    0 -0.12790589103E+04  0.29225866286E+03 -0.10469549181E+04  0.18031449273E+04  0.65864270000E+03 0.  0.
    8880022    1    1    2    0    0  0.12790589103E+04 -0.29225866286E+03  0.12231366450E+03  0.13265591233E+04  0.15294330000E+03 0.  0.
<mgrwt>
<rscale>  0 0.14298066E+04</rscale>
<asrwt>0</asrwt>
<pdfrwt beam="1">  1        2 0.16962022E+00 0.14680657E+04</pdfrwt>
<pdfrwt beam="2">  1       -2 0.31187272E+00 0.14680657E+04</pdfrwt>
<totfact> 0.55385309E-01</totfact>
</mgrwt>
</event>
<event>
 4    5  0.2409888E-007  0.1137424E+04  0.7818608E-02  0.9220490E-01
          2   -1    0    0  501    0  0.00000000000E+00  0.00000000000E+00  0.14753987406E+04  0.14753987406E+04  0.25500000000E-02 0. -1.
         -2   -1    0    0    0  501 -0.00000000000E+00 -0.00000000000E+00 -0.11733511624E+04  0.11733511624E+04  0.25500000000E-02 0.  1.
    8880023    1    1    2    0    0  0.23897806744E+03  0.89599854349E+03  0.97069317985E+03  0.14953191507E+04  0.65864270000E+03 0.  0.
    8880022    1    1    2    0    0 -0.23897806744E+03 -0.89599854349E+03 -0.66864560168E+03  0.11534307523E+04  0.15294330000E+03 0.  0.
<mgrwt>
<rscale>  0 0.10844421E+04</rscale>
<asrwt>0</asrwt>
<pdfrwt beam="1">  1        2 0.22698442E+00 0.11374243E+04</pdfrwt>
<pdfrwt beam="2">  1       -2 0.18051556E+00 0.11374243E+04</pdfrwt>
<totfact> 0.23028349E+00</totfact>
</mgrwt>
</event>
<event>
 4    5  0.2409888E-007  0.8462430E+03  0.7818608E-02  0.9618519E-01
         -2   -1    0    0    0  501 -0.00000000000E+00  0.00000000000E+00  0.87542247168E+03  0.87542247168E+03  0.25500000000E-02 0.  1.
          2   -1    0    0  501    0  0.00000000000E+00 -0.00000000000E+00 -0.63735339831E+03  0.63735339832E+03  0.25500000000E-02 0. -1.
    8880023    1    1    2    0    0 -0.39339355655E+03  0.35715324753E+03 -0.11903276122E+03  0.85457354105E+03  0.65864270000E+03 0.  0.
    8880022    1    1    2    0    0  0.39339355655E+03 -0.35715324753E+03  0.35710183459E+03  0.65820232895E+03  0.15294330000E+03 0.  0.
<mgrwt>
<rscale>  0 0.76082496E+03</rscale>
<asrwt>0</asrwt>
<pdfrwt beam="1">  1        2 0.98054369E-01 0.84624295E+03</pdfrwt>
<pdfrwt beam="2">  1       -2 0.13468038E+00 0.84624295E+03</pdfrwt>
<totfact> 0.18381336E+01</totfact>
</mgrwt>
</event>
<event>
 4    5  0.2409888E-007  0.7230281E+03  0.7818608E-02  0.9912470E-01
          2   -1    0    0  501    0  0.00000000000E+00  0.00000000000E+00  0.19837360533E+04  0.19837360533E+04  0.25500000000E-02 0. -1.
         -2   -1    0    0    0  501 -0.00000000000E+00 -0.00000000000E+00 -0.44252833479E+03  0.44252833479E+03  0.25500000000E-02 0.  1.
    8880023    1    1    2    0    0 -0.29200432447E+03  0.60769359000E+02  0.18401720985E+04  0.19771198746E+04  0.65864270000E+03 0. -1.
    8880022    1    1    2    0    0  0.29200432447E+03 -0.60769359000E+02 -0.29896437993E+03  0.44914451347E+03  0.15294330000E+03 0.  0.
<mgrwt>
<rscale>  0 0.59660728E+03</rscale>
<asrwt>0</asrwt>
<pdfrwt beam="1">  1        2 0.30519017E+00 0.72302811E+03</pdfrwt>
<pdfrwt beam="2">  1       -2 0.68081281E-01 0.72302811E+03</pdfrwt>
<totfact> 0.13993667E+01</totfact>
</mgrwt>
</event>
<event>
 4    5  0.2409888E-007  0.1300652E+04  0.7818608E-02  0.9064997E-01
         -2   -1    0    0    0  501 -0.00000000000E+00  0.00000000000E+00  0.22755463315E+04  0.22755463315E+04  0.25500000000E-02 0.  1.
          2   -1    0    0  501    0  0.00000000000E+00 -0.00000000000E+00 -0.18531471376E+04  0.18531471376E+04  0.25500000000E-02 0. -1.
    8880023    1    1    2    0    0  0.10253632786E+03  0.11168575100E+04 -0.14455404736E+04  0.19445518413E+04  0.65864270000E+03 0.  0.
    8880022    1    1    2    0    0 -0.10253632786E+03 -0.11168575100E+04  0.18679396675E+04  0.21841416279E+04  0.15294330000E+03 0.  0.
<mgrwt>
<rscale>  0 0.12562500E+04</rscale>
<asrwt>0</asrwt>
<pdfrwt beam="1">  1        2 0.28509956E+00 0.13006516E+04</pdfrwt>
<pdfrwt beam="2">  1       -2 0.35008405E+00 0.13006516E+04</pdfrwt>
<totfact> 0.12097963E-01</totfact>
</mgrwt>
</event>
<event>
 4    5  0.2409888E-007  0.7087737E+03  0.7818608E-02  0.9962583E-01
          2   -1    0    0  501    0  0.00000000000E+00  0.00000000000E+00  0.10773887294E+04  0.10773887294E+04  0.25500000000E-02 0. -1.
         -2   -1    0    0    0  501 -0.00000000000E+00 -0.00000000000E+00 -0.90038959942E+03  0.90038959942E+03  0.25500000000E-02 0.  1.
    8880023    1    1    2    0    0 -0.10337397803E+03 -0.24054902994E+03  0.92809621508E+03  0.11677854280E+04  0.65864270000E+03 0. -1.
    8880022    1    1    2    0    0  0.10337397803E+03  0.24054902994E+03 -0.75109708510E+03  0.80999290083E+03  0.15294330000E+03 0.  0.
<mgrwt>
<rscale>  0 0.57321793E+03</rscale>
<asrwt>0</asrwt>
<pdfrwt beam="1">  1        2 0.16575211E+00 0.70877374E+03</pdfrwt>
<pdfrwt beam="2">  1       -2 0.13852148E+00 0.70877374E+03</pdfrwt>
<totfact> 0.85085927E+00</totfact>
</mgrwt>
</event>
<event>
 4    5  0.2409888E-007  0.1038275E+04  0.7818608E-02  0.9333111E-01
          2   -1    0    0  501    0  0.00000000000E+00  0.00000000000E+00  0.11247783742E+04  0.11247783742E+04  0.25500000000E-02 0. -1.
         -2   -1    0    0    0  501 -0.00000000000E+00 -0.00000000000E+00 -0.15504545515E+04  0.15504545515E+04  0.25500000000E-02 0.  1.
    8880023    1    1    2    0    0  0.78782513449E+03  0.15341725192E+03  0.72328750560E+03  0.12653696368E+04  0.65864270000E+03 0.  0.
    8880022    1    1    2    0    0 -0.78782513449E+03 -0.15341725192E+03 -0.11489636829E+04  0.14098632889E+04  0.15294330000E+03 0.  0.
<mgrwt>
<rscale>  0 0.97790951E+03</rscale>
<asrwt>0</asrwt>
<pdfrwt beam="1">  1        2 0.17304283E+00 0.10382753E+04</pdfrwt>
<pdfrwt beam="2">  1       -2 0.23853147E+00 0.10382753E+04</pdfrwt>
<totfact> 0.15762762E+00</totfact>
</mgrwt>
</event>
<event>
 4    5  0.2409888E-007  0.6886244E+03  0.7818608E-02  0.1004813E+00
          2   -1    0    0  501    0  0.00000000000E+00  0.00000000000E+00  0.78400591953E+03  0.78400591954E+03  0.25500000000E-02 0. -1.
         -2   -1    0    0    0  501 -0.00000000000E+00 -0.00000000000E+00 -0.62279576376E+03  0.62279576377E+03  0.25500000000E-02 0.  1.
    8880023    1    1    2    0    0  0.19415776261E+03 -0.51923713108E+02  0.59155437159E+03  0.90782161770E+03  0.65864270000E+03 0. -1.
    8880022    1    1    2    0    0 -0.19415776261E+03  0.51923713108E+02 -0.43034421582E+03  0.49898006560E+03  0.15294330000E+03 0.  0.
<mgrwt>
<rscale>  0 0.53589114E+03</rscale>
<asrwt>0</asrwt>
<pdfrwt beam="1">  1        2 0.12061630E+00 0.68862436E+03</pdfrwt>
<pdfrwt beam="2">  1       -2 0.95814733E-01 0.68862436E+03</pdfrwt>
<totfact> 0.32957087E+01</totfact>
</mgrwt>
</event>
<event>
 4    5  0.2409888E-007  0.8887269E+03  0.7818608E-02  0.9544376E-01
          2   -1    0    0  501    0  0.00000000000E+00  0.00000000000E+00  0.17564880649E+04  0.17564880649E+04  0.25500000000E-02 0. -1.
         -2   -1    0    0    0  501 -0.00000000000E+00 -0.00000000000E+00 -0.59574381546E+03  0.59574381547E+03  0.25500000000E-02 0.  1.
    8880023    1    1    2    0    0 -0.18301395843E+03  0.56791835897E+03  0.14270490217E+04  0.16811616484E+04  0.65864270000E+03 0.  0.
    8880022    1    1    2    0    0  0.18301395843E+03 -0.56791835897E+03 -0.26630477230E+03  0.67107023194E+03  0.15294330000E+03 0.  0.
<mgrwt>
<rscale>  0 0.81089731E+03</rscale>
<asrwt>0</asrwt>
<pdfrwt beam="1">  1        2 0.27022892E+00 0.88872694E+03</pdfrwt>
<pdfrwt beam="2">  1       -2 0.91652898E-01 0.88872694E+03</pdfrwt>
<totfact> 0.93455428E+00</totfact>
</mgrwt>
</event>
<event>
 4    5  0.2409888E-007  0.1283674E+04  0.7818608E-02  0.9079788E-01
          2   -1    0    0  501    0  0.00000000000E+00  0.00000000000E+00  0.10112146987E+04  0.10112146987E+04  0.25500000000E-02 0. -1.
         -2   -1    0    0    0  501 -0.00000000000E+00 -0.00000000000E+00 -0.24615162353E+04  0.24615162353E+04  0.25500000000E-02 0.  1.
    8880023    1    1    2    0    0  0.44537994750E+02 -0.11009205637E+04 -0.18831896058E+04  0.22790838111E+04  0.65864270000E+03 0.  0.
    8880022    1    1    2    0    0 -0.44537994750E+02  0.11009205637E+04  0.43288806922E+03  0.11936471229E+04  0.15294330000E+03 0.  0.
<mgrwt>
<rscale>  0 0.12385256E+04</rscale>
<asrwt>0</asrwt>
<pdfrwt beam="1">  1        2 0.15557149E+00 0.12836744E+04</pdfrwt>
<pdfrwt beam="2">  1       -2 0.37869480E+00 0.12836744E+04</pdfrwt>
<totfact> 0.24630444E-01</totfact>
</mgrwt>
</event>
<event>
 4    5  0.2409888E-007  0.9301690E+03  0.7818608E-02  0.9479240E-01
         -2   -1    0    0    0  501 -0.00000000000E+00  0.00000000000E+00  0.13381780299E+04  0.13381780299E+04  0.25500000000E-02 0.  1.
          2   -1    0    0  501    0  0.00000000000E+00 -0.00000000000E+00 -0.85183684174E+03  0.85183684175E+03  0.25500000000E-02 0. -1.
    8880023    1    1    2    0    0  0.17579130717E+03  0.63285190437E+03 -0.45223737837E+03  0.10342789610E+04  0.65864270000E+03 0. -1.
    8880022    1    1    2    0    0 -0.17579130717E+03 -0.63285190437E+03  0.93857856648E+03  0.11557359106E+04  0.15294330000E+03 0.  0.
<mgrwt>
<rscale>  0 0.85831843E+03</rscale>
<asrwt>0</asrwt>
<pdfrwt beam="1">  1        2 0.13105182E+00 0.93016898E+03</pdfrwt>
<pdfrwt beam="2">  1       -2 0.20587354E+00 0.93016898E+03</pdfrwt>
<totfact> 0.38551012E+00</totfact>
</mgrwt>
</event>
<event>
 4    5  0.2409888E-007  0.8606342E+03  0.7818608E-02  0.9592436E-01
          2   -1    0    0  501    0  0.00000000000E+00  0.00000000000E+00  0.16848629710E+04  0.16848629710E+04  0.25500000000E-02 0. -1.
         -2   -1    0    0    0  501 -0.00000000000E+00 -0.00000000000E+00 -0.52226399923E+03  0.52226399924E+03  0.25500000000E-02 0.  1.
    8880023    1    1    2    0    0 -0.41756523062E+03 -0.36403325961E+03  0.13514324061E+04  0.16022049465E+04  0.65864270000E+03 0. -1.
    8880022    1    1    2    0    0  0.41756523062E+03  0.36403325961E+03 -0.18883343433E+03  0.60492202379E+03  0.15294330000E+03 0.  0.
<mgrwt>
<rscale>  0 0.77798818E+03</rscale>
<asrwt>0</asrwt>
<pdfrwt beam="1">  1        2 0.25920969E+00 0.86063415E+03</pdfrwt>
<pdfrwt beam="2">  1       -2 0.80348306E-01 0.86063415E+03</pdfrwt>
<totfact> 0.13875014E+01</totfact>
</mgrwt>
</event>
<event>
 4    5  0.2409888E-007  0.9988709E+03  0.7818608E-02  0.9383036E-01
          2   -1    0    0  501    0  0.00000000000E+00  0.00000000000E+00  0.15500500821E+04  0.15500500821E+04  0.25500000000E-02 0. -1.
         -2   -1    0    0    0  501 -0.00000000000E+00 -0.00000000000E+00 -0.10921108115E+04  0.10921108115E+04  0.25500000000E-02 0.  1.
    8880023    1    1    2    0    0  0.44015067467E+03  0.60844082830E+03  0.12095879463E+04  0.15687084063E+04  0.65864270000E+03 0.  0.
    8880022    1    1    2    0    0 -0.44015067467E+03 -0.60844082830E+03 -0.75164867562E+03  0.10734524873E+04  0.15294330000E+03 0.  0.
<mgrwt>
<rscale>  0 0.93484968E+03</rscale>
<asrwt>0</asrwt>
<pdfrwt beam="1">  1        2 0.23846924E+00 0.99887089E+03</pdfrwt>
<pdfrwt beam="2">  1       -2 0.16801705E+00 0.99887089E+03</pdfrwt>
<totfact> 0.26012264E+00</totfact>
</mgrwt>
</event>
<event>
 4    5  0.2409888E-007  0.1638993E+04  0.7818608E-02  0.8817253E-01
         -2   -1    0    0    0  501 -0.00000000000E+00  0.00000000000E+00  0.19029828541E+04  0.19029828541E+04  0.25500000000E-02 0.  1.
          2   -1    0    0  501    0  0.00000000000E+00 -0.00000000000E+00 -0.19956609941E+04  0.19956609941E+04  0.25500000000E-02 0. -1.
    8880023    1    1    2    0    0 -0.56220660322E+03  0.13915495127E+04  0.11013822228E+04  0.19746744841E+04  0.65864270000E+03 0.  0.
    8880022    1    1    2    0    0  0.56220660322E+03 -0.13915495127E+04 -0.11940603627E+04  0.19239693641E+04  0.15294330000E+03 0.  0.
<mgrwt>
<rscale>  0 0.16053745E+04</rscale>
<asrwt>0</asrwt>
<pdfrwt beam="1">  1        2 0.30702477E+00 0.16389925E+04</pdfrwt>
<pdfrwt beam="2">  1       -2 0.29276659E+00 0.16389925E+04</pdfrwt>
<totfact> 0.21830017E-01</totfact>
</mgrwt>
</event>
<event>
 4    5  0.2409888E-007  0.1466901E+04  0.7818608E-02  0.8933369E-01
         -2   -1    0    0    0  501 -0.00000000000E+00  0.00000000000E+00  0.16267424974E+04  0.16267424974E+04  0.25500000000E-02 0.  1.
          2   -1    0    0  501    0  0.00000000000E+00 -0.00000000000E+00 -0.13594107296E+04  0.13594107296E+04  0.25500000000E-02 0. -1.
    8880023    1    1    2    0    0  0.59445867038E+03  0.11681643226E+04 -0.38143830008E+03  0.15156828093E+04  0.65864270000E+03 0.  0.
    8880022    1    1    2    0    0 -0.59445867038E+03 -0.11681643226E+04  0.64877006784E+03  0.14704704177E+04  0.15294330000E+03 0.  0.
<mgrwt>
<rscale>  0 0.14286057E+04</rscale>
<asrwt>0</asrwt>
<pdfrwt beam="1">  1        2 0.20914011E+00 0.14669012E+04</pdfrwt>
<pdfrwt beam="2">  1       -2 0.25026808E+00 0.14669012E+04</pdfrwt>
<totfact> 0.92369688E-01</totfact>
</mgrwt>
</event>
<event>
 4    5  0.2409888E-007  0.2620540E+04  0.7818608E-02  0.8368055E-01
         -2   -1    0    0    0  501 -0.00000000000E+00  0.00000000000E+00  0.23759874077E+04  0.23759874077E+04  0.25500000000E-02 0.  1.
          2   -1    0    0  501    0  0.00000000000E+00 -0.00000000000E+00 -0.30849982205E+04  0.30849982205E+04  0.25500000000E-02 0. -1.
    8880023    1    1    2    0    0  0.13288459544E+04 -0.21604605878E+04 -0.11845778836E+04  0.28758401364E+04  0.65864270000E+03 0.  0.
    8880022    1    1    2    0    0 -0.13288459544E+04  0.21604605878E+04  0.47556707076E+03  0.25851454918E+04  0.15294330000E+03 0.  0.
<mgrwt>
<rscale>  0 0.26004315E+04</rscale>
<asrwt>0</asrwt>
<pdfrwt beam="1">  1        2 0.47461511E+00 0.26205404E+04</pdfrwt>
<pdfrwt beam="2">  1       -2 0.36553652E+00 0.26205404E+04</pdfrwt>
<totfact> 0.15790410E-02</totfact>
</mgrwt>
</event>
<event>
 4    5  0.2409888E-007  0.1278747E+04  0.7818608E-02  0.9084134E-01
         -2   -1    0    0    0  501 -0.00000000000E+00  0.00000000000E+00  0.23955973291E+04  0.23955973292E+04  0.25500000000E-02 0.  1.
          2   -1    0    0  501    0  0.00000000000E+00 -0.00000000000E+00 -0.13029546443E+04  0.13029546443E+04  0.25500000000E-02 0. -1.
    8880023    1    1    2    0    0  0.54478781576E+03 -0.95109974906E+03 -0.79836270872E+03  0.15075071203E+04  0.65864270000E+03 0. -1.
    8880022    1    1    2    0    0 -0.54478781576E+03  0.95109974906E+03  0.18910053936E+04  0.21910448531E+04  0.15294330000E+03 0.  0.
<mgrwt>
<rscale>  0 0.12333764E+04</rscale>
<asrwt>0</asrwt>
<pdfrwt beam="1">  1        2 0.20045456E+00 0.12787473E+04</pdfrwt>
<pdfrwt beam="2">  1       -2 0.36855343E+00 0.12787473E+04</pdfrwt>
<totfact> 0.18967085E-01</totfact>
</mgrwt>
</event>
<event>
 4    5  0.2569382E-007  0.7208884E+03  0.7818608E-02  0.9919591E-01
          2   -1    0    0  501    0  0.00000000000E+00  0.00000000000E+00  0.14326913210E+04  0.14326913210E+04  0.25500000000E-02 0. -1.
         -2   -1    0    0    0  501 -0.00000000000E+00 -0.00000000000E+00 -0.14369941677E+04  0.14369941678E+04  0.25500000000E-02 0.  1.
    8880023    1    1    2    0    0 -0.48526683983E+02 -0.28898979474E+03  0.13203961584E+04  0.15043690245E+04  0.65864270000E+03 0. -1.
    8880022    1    1    2    0    0  0.48526683983E+02  0.28898979474E+03 -0.13246990051E+04  0.13653164643E+04  0.15294330000E+03 0.  0.
<mgrwt>
<rscale>  0 0.59321140E+03</rscale>
<asrwt>0</asrwt>
<pdfrwt beam="1">  1        2 0.22041405E+00 0.72088844E+03</pdfrwt>
<pdfrwt beam="2">  1       -2 0.22107602E+00 0.72088844E+03</pdfrwt>
<totfact> 0.14032100E+00</totfact>
</mgrwt>
</event>
<event>
 4    5  0.2409888E-007  0.1412311E+04  0.7818608E-02  0.8974175E-01
          2   -1    0    0  501    0  0.00000000000E+00  0.00000000000E+00  0.20786908456E+04  0.20786908456E+04  0.25500000000E-02 0. -1.
         -2   -1    0    0    0  501 -0.00000000000E+00 -0.00000000000E+00 -0.11325912843E+04  0.11325912843E+04  0.25500000000E-02 0.  1.
    8880023    1    1    2    0    0 -0.12444994244E+04  0.10969961898E+03  0.12832754893E+04  0.19082502487E+04  0.65864270000E+03 0.  0.
    8880022    1    1    2    0    0  0.12444994244E+04 -0.10969961898E+03 -0.33717592808E+03  0.13030318812E+04  0.15294330000E+03 0.  0.
<mgrwt>
<rscale>  0 0.13722215E+04</rscale>
<asrwt>0</asrwt>
<pdfrwt beam="1">  1        2 0.31979859E+00 0.14123112E+04</pdfrwt>
<pdfrwt beam="2">  1       -2 0.17424482E+00 0.14123112E+04</pdfrwt>
<totfact> 0.11407981E+00</totfact>
</mgrwt>
</event>
<event>
 4    5  0.2409888E-007  0.7578730E+03  0.7818608E-02  0.9810645E-01
         -2   -1    0    0    0  501 -0.00000000000E+00  0.00000000000E+00  0.27189497125E+03  0.27189497126E+03  0.25500000000E-02 0.  1.
          2   -1    0    0  501    0  0.00000000000E+00 -0.00000000000E+00 -0.30651189534E+04  0.30651189534E+04  0.25500000000E-02 0. -1.
    8880023    1    1    2    0    0 -0.35177932155E+03 -0.12966335539E+03 -0.28306754978E+04  0.29303745933E+04  0.65864270000E+03 0.  0.
    8880022    1    1    2    0    0  0.35177932155E+03  0.12966335539E+03  0.37451515646E+02  0.40663933140E+03  0.15294330000E+03 0.  0.
<mgrwt>
<rscale>  0 0.64794363E+03</rscale>
<asrwt>0</asrwt>
<pdfrwt beam="1">  1        2 0.47155674E+00 0.75787300E+03</pdfrwt>
<pdfrwt beam="2">  1       -2 0.41829998E-01 0.75787300E+03</pdfrwt>
<totfact> 0.91286396E+00</totfact>
</mgrwt>
</event>
<event>
 4    5  0.2409888E-007  0.1238952E+04  0.7818608E-02  0.9120158E-01
         -2   -1    0    0    0  501 -0.00000000000E+00  0.00000000000E+00  0.15507934717E+04  0.15507934717E+04  0.25500000000E-02 0.  1.
          2   -1    0    0  501    0  0.00000000000E+00 -0.00000000000E+00 -0.95061071871E+03  0.95061071871E+03  0.25500000000E-02 0. -1.
    8880023    1    1    2    0    0 -0.10493702542E+04 -0.36094251388E+01 -0.80031060023E+02  0.12415337833E+04  0.65864270000E+03 0.  1.
    8880022    1    1    2    0    0  0.10493702542E+04  0.36094251388E+01  0.68021381302E+03  0.12598704071E+04  0.15294330000E+03 0.  0.
<mgrwt>
<rscale>  0 0.11916938E+04</rscale>
<asrwt>0</asrwt>
<pdfrwt beam="1">  1        2 0.14624780E+00 0.12389516E+04</pdfrwt>
<pdfrwt beam="2">  1       -2 0.23858361E+00 0.12389516E+04</pdfrwt>
<totfact> 0.19896212E+00</totfact>
</mgrwt>
</event>
<event>
 4    5  0.2409888E-007  0.8465928E+03  0.7818608E-02  0.9617872E-01
          2   -1    0    0  501    0  0.00000000000E+00  0.00000000000E+00  0.11412630069E+04  0.11412630069E+04  0.25500000000E-02 0. -1.
         -2   -1    0    0    0  501 -0.00000000000E+00 -0.00000000000E+00 -0.53974447080E+03  0.53974447081E+03  0.25500000000E-02 0.  1.
    8880023    1    1    2    0    0 -0.23222360147E+03  0.47851996523E+03  0.72425062607E+03  0.11141177379E+04  0.65864270000E+03 0. -1.
    8880022    1    1    2    0    0  0.23222360147E+03 -0.47851996523E+03 -0.12273208998E+03  0.56688973984E+03  0.15294330000E+03 0.  0.
<mgrwt>
<rscale>  0 0.76124499E+03</rscale>
<asrwt>0</asrwt>
<pdfrwt beam="1">  1        2 0.17557892E+00 0.84659280E+03</pdfrwt>
<pdfrwt beam="2">  1       -2 0.83037612E-01 0.84659280E+03</pdfrwt>
<totfact> 0.26334289E+01</totfact>
</mgrwt>
</event>
<event>
 4    5  0.2409888E-007  0.1509364E+04  0.7818608E-02  0.8903052E-01
         -2   -1    0    0    0  501 -0.00000000000E+00  0.00000000000E+00  0.11552312096E+04  0.11552312096E+04  0.25500000000E-02 0.  1.
          2   -1    0    0  501    0  0.00000000000E+00 -0.00000000000E+00 -0.33656924476E+04  0.33656924476E+04  0.25500000000E-02 0. -1.
    8880023    1    1    2    0    0 -0.13192122775E+04  0.32256530983E+03 -0.26800401186E+04  0.30758404796E+04  0.65864270000E+03 0.  0.
    8880022    1    1    2    0    0  0.13192122775E+04 -0.32256530983E+03  0.46957888069E+03  0.14450831776E+04  0.15294330000E+03 0.  0.
<mgrwt>
<rscale>  0 0.14723486E+04</rscale>
<asrwt>0</asrwt>
<pdfrwt beam="1">  1        2 0.51779883E+00 0.15093640E+04</pdfrwt>
<pdfrwt beam="2">  1       -2 0.17772788E+00 0.15093640E+04</pdfrwt>
<totfact> 0.17913293E-01</totfact>
</mgrwt>
</event>
<event>
 4    5  0.2409888E-007  0.7147430E+03  0.7818608E-02  0.9940793E-01
         -2   -1    0    0    0  501 -0.00000000000E+00  0.00000000000E+00  0.95820943285E+03  0.95820943285E+03  0.25500000000E-02 0.  1.
          2   -1    0    0  501    0  0.00000000000E+00 -0.00000000000E+00 -0.86732500235E+03  0.86732500235E+03  0.25500000000E-02 0. -1.
    8880023    1    1    2    0    0 -0.83240157682E+02  0.26479872746E+03 -0.68341011741E+03  0.98889174572E+03  0.65864270000E+03 0. -1.
    8880022    1    1    2    0    0  0.83240157682E+02 -0.26479872746E+03  0.77429454791E+03  0.83664268948E+03  0.15294330000E+03 0.  0.
<mgrwt>
<rscale>  0 0.58324387E+03</rscale>
<asrwt>0</asrwt>
<pdfrwt beam="1">  1        2 0.13343462E+00 0.71474296E+03</pdfrwt>
<pdfrwt beam="2">  1       -2 0.14741684E+00 0.71474296E+03</pdfrwt>
<totfact> 0.98875360E+00</totfact>
</mgrwt>
</event>
<event>
 4    5  0.2409888E-007  0.8119959E+03  0.7818608E-02  0.9685434E-01
          2   -1    0    0  501    0  0.00000000000E+00  0.00000000000E+00  0.16601274284E+04  0.16601274284E+04  0.25500000000E-02 0. -1.
         -2   -1    0    0    0  501 -0.00000000000E+00 -0.00000000000E+00 -0.50659242239E+03  0.50659242240E+03  0.25500000000E-02 0.  1.
    8880023    1    1    2    0    0  0.47270269015E+03 -0.45600252661E+02  0.13937128902E+04  0.16130012532E+04  0.65864270000E+03 0. -1.
    8880022    1    1    2    0    0 -0.47270269015E+03  0.45600252661E+02 -0.24017788414E+03  0.55371859763E+03  0.15294330000E+03 0.  0.
<mgrwt>
<rscale>  0 0.71890685E+03</rscale>
<asrwt>0</asrwt>
<pdfrwt beam="1">  1        2 0.25540422E+00 0.81199595E+03</pdfrwt>
<pdfrwt beam="2">  1       -2 0.77937296E-01 0.81199595E+03</pdfrwt>
<totfact> 0.15420888E+01</totfact>
</mgrwt>
</event>
<event>
 4    5  0.2409888E-007  0.7378520E+03  0.7818608E-02  0.9866249E-01
          2   -1    0    0  501    0  0.00000000000E+00  0.00000000000E+00  0.10267895106E+04  0.10267895106E+04  0.25500000000E-02 0. -1.
         -2   -1    0    0    0  501 -0.00000000000E+00 -0.00000000000E+00 -0.12365777710E+04  0.12365777710E+04  0.25500000000E-02 0.  1.
    8880023    1    1    2    0    0 -0.31595365012E+03 -0.10386851655E+03  0.85972514972E+03  0.11329399442E+04  0.65864270000E+03 0. -1.
    8880022    1    1    2    0    0  0.31595365012E+03  0.10386851655E+03 -0.10695134102E+04  0.11304273375E+04  0.15294330000E+03 0.  0.
<mgrwt>
<rscale>  0 0.61925268E+03</rscale>
<asrwt>0</asrwt>
<pdfrwt beam="1">  1        2 0.15796762E+00 0.73785201E+03</pdfrwt>
<pdfrwt beam="2">  1       -2 0.19024273E+00 0.73785201E+03</pdfrwt>
<totfact> 0.38321387E+00</totfact>
</mgrwt>
</event>
<event>
 4    5  0.2409888E-007  0.6858025E+03  0.7818608E-02  0.1006215E+00
         -2   -1    0    0    0  501 -0.00000000000E+00  0.00000000000E+00  0.35373418245E+03  0.35373418246E+03  0.25500000000E-02 0.  1.
          2   -1    0    0  501    0  0.00000000000E+00 -0.00000000000E+00 -0.16136694925E+04  0.16136694925E+04  0.25500000000E-02 0. -1.
    8880023    1    1    2    0    0  0.17666686762E+03  0.72826295508E+02 -0.14844863516E+04  0.16352445645E+04  0.65864270000E+03 0. -1.
    8880022    1    1    2    0    0 -0.17666686762E+03 -0.72826295508E+02  0.22455104149E+03  0.33215911049E+03  0.15294330000E+03 0.  0.
<mgrwt>
<rscale>  0 0.53007039E+03</rscale>
<asrwt>0</asrwt>
<pdfrwt beam="1">  1        2 0.24825684E+00 0.68580249E+03</pdfrwt>
<pdfrwt beam="2">  1       -2 0.54420644E-01 0.68580249E+03</pdfrwt>
<totfact> 0.35961067E+01</totfact>
</mgrwt>
</event>
<event>
 4    5  0.2409888E-007  0.9729237E+03  0.7818608E-02  0.9417872E-01
          2   -1    0    0  501    0  0.00000000000E+00  0.00000000000E+00  0.17517859019E+04  0.17517859019E+04  0.25500000000E-02 0. -1.
         -2   -1    0    0    0  501 -0.00000000000E+00 -0.00000000000E+00 -0.43795852846E+03  0.43795852847E+03  0.25500000000E-02 0.  1.
    8880023    1    1    2    0    0  0.70078408537E+03  0.14721380163E+03  0.99338831861E+03  0.13904678333E+04  0.65864270000E+03 0.  0.
    8880022    1    1    2    0    0 -0.70078408537E+03 -0.14721380163E+03  0.32043905482E+03  0.79927659703E+03  0.15294330000E+03 0.  0.
<mgrwt>
<rscale>  0 0.90619376E+03</rscale>
<asrwt>0</asrwt>
<pdfrwt beam="1">  1        2 0.26950552E+00 0.97292366E+03</pdfrwt>
<pdfrwt beam="2">  1       -2 0.67378236E-01 0.97292366E+03</pdfrwt>
<totfact> 0.18593787E+01</totfact>
</mgrwt>
</event>
<event>
 4    5  0.2409888E-007  0.8289031E+03  0.7818608E-02  0.9651470E-01
         -2   -1    0    0    0  501 -0.00000000000E+00  0.00000000000E+00  0.11671667423E+04  0.11671667423E+04  0.25500000000E-02 0.  1.
          2   -1    0    0  501    0  0.00000000000E+00 -0.00000000000E+00 -0.11757066084E+04  0.11757066084E+04  0.25500000000E-02 0. -1.
    8880023    1    1    2    0    0  0.14013969525E+03 -0.48335388864E+03 -0.95224864684E+03  0.12624808147E+04  0.65864270000E+03 0.  0.
    8880022    1    1    2    0    0 -0.14013969525E+03  0.48335388864E+03  0.94370878078E+03  0.10803925360E+04  0.15294330000E+03 0.  0.
<mgrwt>
<rscale>  0 0.73981215E+03</rscale>
<asrwt>0</asrwt>
<pdfrwt beam="1">  1        2 0.18087794E+00 0.82890308E+03</pdfrwt>
<pdfrwt beam="2">  1       -2 0.17956411E+00 0.82890308E+03</pdfrwt>
<totfact> 0.36208523E+00</totfact>
</mgrwt>
</event>
<event>
 4    5  0.2409888E-007  0.8752926E+03  0.7818608E-02  0.9566919E-01
          2   -1    0    0  501    0  0.00000000000E+00  0.00000000000E+00  0.10832096704E+04  0.10832096704E+04  0.25500000000E-02 0. -1.
         -2   -1    0    0    0  501 -0.00000000000E+00 -0.00000000000E+00 -0.93616560562E+03  0.93616560563E+03  0.25500000000E-02 0.  1.
    8880023    1    1    2    0    0 -0.27227684281E+03 -0.50812627915E+03  0.76359440450E+03  0.11615565486E+04  0.65864270000E+03 0.  0.
    8880022    1    1    2    0    0  0.27227684281E+03  0.50812627915E+03 -0.61655033974E+03  0.85781872744E+03  0.15294330000E+03 0.  0.
<mgrwt>
<rscale>  0 0.79524928E+03</rscale>
<asrwt>0</asrwt>
<pdfrwt beam="1">  1        2 0.16664764E+00 0.87529264E+03</pdfrwt>
<pdfrwt beam="2">  1       -2 0.14402548E+00 0.87529264E+03</pdfrwt>
<totfact> 0.74731780E+00</totfact>
</mgrwt>
</event>
<event>
 4    5  0.2409888E-007  0.1618736E+04  0.7818608E-02  0.8830046E-01
         -2   -1    0    0    0  501 -0.00000000000E+00  0.00000000000E+00  0.27424682187E+04  0.27424682187E+04  0.25500000000E-02 0.  1.
          2   -1    0    0  501    0  0.00000000000E+00 -0.00000000000E+00 -0.13673077702E+04  0.13673077702E+04  0.25500000000E-02 0. -1.
    8880023    1    1    2    0    0 -0.93850062085E+03  0.11426773047E+04 -0.52085478636E+03  0.17004689802E+04  0.65864270000E+03 0. -1.
    8880022    1    1    2    0    0  0.93850062085E+03 -0.11426773047E+04  0.18960152348E+04  0.24093070086E+04  0.15294330000E+03 0.  0.
<mgrwt>
<rscale>  0 0.15846312E+04</rscale>
<asrwt>0</asrwt>
<pdfrwt beam="1">  1        2 0.21035504E+00 0.16187356E+04</pdfrwt>
<pdfrwt beam="2">  1       -2 0.42191818E+00 0.16187356E+04</pdfrwt>
<totfact> 0.74877130E-02</totfact>
</mgrwt>
</event>
<event>
 4    5  0.2409888E-007  0.8307870E+03  0.7818608E-02  0.9647803E-01
          2   -1    0    0  501    0  0.00000000000E+00  0.00000000000E+00  0.10341885142E+04  0.10341885142E+04  0.25500000000E-02 0. -1.
         -2   -1    0    0    0  501 -0.00000000000E+00 -0.00000000000E+00 -0.18880738153E+04  0.18880738153E+04  0.25500000000E-02 0.  1.
    8880023    1    1    2    0    0 -0.49630000451E+03 -0.10041479792E+03  0.81968787524E+03  0.11670883622E+04  0.65864270000E+03 0. -1.
    8880022    1    1    2    0    0  0.49630000451E+03  0.10041479792E+03 -0.16735731763E+04  0.17551739673E+04  0.15294330000E+03 0.  0.
<mgrwt>
<rscale>  0 0.74211463E+03</rscale>
<asrwt>0</asrwt>
<pdfrwt beam="1">  1        2 0.15910593E+00 0.83078700E+03</pdfrwt>
<pdfrwt beam="2">  1       -2 0.29047289E+00 0.83078700E+03</pdfrwt>
<totfact> 0.89605237E-01</totfact>
</mgrwt>
</event>
<event>
 4    5  0.2409888E-007  0.1895729E+04  0.7818608E-02  0.8671352E-01
         -2   -1    0    0    0  501 -0.00000000000E+00  0.00000000000E+00  0.21446725341E+04  0.21446725341E+04  0.25500000000E-02 0.  1.
          2   -1    0    0  501    0  0.00000000000E+00 -0.00000000000E+00 -0.33224965023E+04  0.33224965023E+04  0.25500000000E-02 0. -1.
    8880023    1    1    2    0    0 -0.39035162878E+03  0.17342447934E+04  0.13826398729E+04  0.23463764876E+04  0.65864270000E+03 0.  0.
    8880022    1    1    2    0    0  0.39035162878E+03 -0.17342447934E+04 -0.25604638411E+04  0.31207925488E+04  0.15294330000E+03 0.  0.
<mgrwt>
<rscale>  0 0.18672099E+04</rscale>
<asrwt>0</asrwt>
<pdfrwt beam="1">  1        2 0.51115331E+00 0.18957293E+04</pdfrwt>
<pdfrwt beam="2">  1       -2 0.32994962E+00 0.18957293E+04</pdfrwt>
<totfact> 0.19982586E-02</totfact>
</mgrwt>
</event>
<event>
 4    5  0.2409888E-007  0.8946567E+03  0.7818608E-02  0.9534664E-01
         -2   -1    0    0    0  501 -0.00000000000E+00  0.00000000000E+00  0.16326149041E+04  0.16326149041E+04  0.25500000000E-02 0.  1.
          2   -1    0    0  501    0  0.00000000000E+00 -0.00000000000E+00 -0.58843978468E+03  0.58843978469E+03  0.25500000000E-02 0. -1.
    8880023    1    1    2    0    0  0.60536098207E+03 -0.11765250076E+02 -0.11732311014E+03  0.90231660638E+03  0.65864270000E+03 0.  0.
    8880022    1    1    2    0    0 -0.60536098207E+03  0.11765250076E+02  0.11614982296E+04  0.13187380824E+04  0.15294330000E+03 0.  0.
<mgrwt>
<rscale>  0 0.81775698E+03</rscale>
<asrwt>0</asrwt>
<pdfrwt beam="1">  1        2 0.90529198E-01 0.89465666E+03</pdfrwt>
<pdfrwt beam="2">  1       -2 0.25117152E+00 0.89465666E+03</pdfrwt>
<totfact> 0.32447268E+00</totfact>
</mgrwt>
</event>
<event>
 4    5  0.2409888E-007  0.9983879E+03  0.7818608E-02  0.9383670E-01
         -2   -1    0    0    0  501 -0.00000000000E+00  0.00000000000E+00  0.14926697384E+04  0.14926697384E+04  0.25500000000E-02 0.  1.
          2   -1    0    0  501    0  0.00000000000E+00 -0.00000000000E+00 -0.63604700372E+03  0.63604700373E+03  0.25500000000E-02 0. -1.
    8880023    1    1    2    0    0  0.73697528732E+03  0.14083924585E+03  0.25635683556E+02  0.99871700788E+03  0.65864270000E+03 0.  0.
    8880022    1    1    2    0    0 -0.73697528732E+03 -0.14083924585E+03  0.83098705116E+03  0.11299997343E+04  0.15294330000E+03 0.  0.
<mgrwt>
<rscale>  0 0.93431867E+03</rscale>
<asrwt>0</asrwt>
<pdfrwt beam="1">  1        2 0.97853385E-01 0.99838794E+03</pdfrwt>
<pdfrwt beam="2">  1       -2 0.22964150E+00 0.99838794E+03</pdfrwt>
<totfact> 0.39554913E+00</totfact>
</mgrwt>
</event>
<event>
 4    5  0.2409888E-007  0.7712918E+03  0.7818608E-02  0.9776705E-01
          2   -1    0    0  501    0  0.00000000000E+00  0.00000000000E+00  0.13217471686E+04  0.13217471686E+04  0.25500000000E-02 0. -1.
         -2   -1    0    0    0  501 -0.00000000000E+00 -0.00000000000E+00 -0.29218317229E+03  0.29218317230E+03  0.25500000000E-02 0.  1.
    8880023    1    1    2    0    0  0.24724356026E+03  0.31615109460E+03  0.45134595792E+03  0.89364661511E+03  0.65864270000E+03 0.  0.
    8880022    1    1    2    0    0 -0.24724356026E+03 -0.31615109460E+03  0.57821803837E+03  0.72028372578E+03  0.15294330000E+03 0.  0.
<mgrwt>
<rscale>  0 0.66627807E+03</rscale>
<asrwt>0</asrwt>
<pdfrwt beam="1">  1        2 0.20334572E+00 0.77129184E+03</pdfrwt>
<pdfrwt beam="2">  1       -2 0.44951256E-01 0.77129184E+03</pdfrwt>
<totfact> 0.76539316E+01</totfact>
</mgrwt>
</event>
<event>
 4    5  0.2409888E-007  0.7009793E+03  0.7818608E-02  0.9993163E-01
          2   -1    0    0  501    0  0.00000000000E+00  0.00000000000E+00  0.12488761875E+04  0.12488761875E+04  0.25500000000E-02 0. -1.
         -2   -1    0    0    0  501 -0.00000000000E+00 -0.00000000000E+00 -0.22119386911E+03  0.22119386912E+03  0.25500000000E-02 0.  1.
    8880023    1    1    2    0    0 -0.13149207542E+03  0.20067790022E+03  0.93950745565E+03  0.11721971895E+04  0.65864270000E+03 0.  0.
    8880022    1    1    2    0    0  0.13149207542E+03 -0.20067790022E+03  0.88174862713E+02  0.29787286711E+03  0.15294330000E+03 0. -1.
<mgrwt>
<rscale>  0 0.55951059E+03</rscale>
<asrwt>0</asrwt>
<pdfrwt beam="1">  1        2 0.19213480E+00 0.70097931E+03</pdfrwt>
<pdfrwt beam="2">  1       -2 0.34029826E-01 0.70097931E+03</pdfrwt>
<totfact> 0.14567490E+02</totfact>
</mgrwt>
</event>
<event>
 4    5  0.2409888E-007  0.1306139E+04  0.7818608E-02  0.9060277E-01
          2   -1    0    0  501    0  0.00000000000E+00  0.00000000000E+00  0.32361472618E+04  0.32361472618E+04  0.25500000000E-02 0. -1.
         -2   -1    0    0    0  501 -0.00000000000E+00 -0.00000000000E+00 -0.87848458670E+03  0.87848458670E+03  0.25500000000E-02 0.  1.
    8880023    1    1    2    0    0 -0.10759186168E+04  0.33850827334E+03  0.26368876183E+04  0.29426476579E+04  0.65864270000E+03 0.  0.
    8880022    1    1    2    0    0  0.10759186168E+04 -0.33850827334E+03 -0.27922494314E+03  0.11719841906E+04  0.15294330000E+03 0.  0.
<mgrwt>
<rscale>  0 0.12619730E+04</rscale>
<asrwt>0</asrwt>
<pdfrwt beam="1">  1        2 0.49786881E+00 0.13061389E+04</pdfrwt>
<pdfrwt beam="2">  1       -2 0.13515147E+00 0.13061389E+04</pdfrwt>
<totfact> 0.47131421E-01</totfact>
</mgrwt>
</event>
<event>
 4    5  0.2409888E-007  0.1063143E+04  0.7818608E-02  0.9303246E-01
         -2   -1    0    0    0  501 -0.00000000000E+00  0.00000000000E+00  0.11263157896E+04  0.11263157896E+04  0.25500000000E-02 0.  1.
          2   -1    0    0  501    0  0.00000000000E+00 -0.00000000000E+00 -0.83266392479E+03  0.83266392480E+03  0.25500000000E-02 0. -1.
    8880023    1    1    2    0    0 -0.49576798292E+03 -0.67132437757E+03  0.61841873242E+01  0.10631607420E+04  0.65864270000E+03 0.  0.
    8880022    1    1    2    0    0  0.49576798292E+03  0.67132437757E+03  0.28746767751E+03  0.89581897247E+03  0.15294330000E+03 0.  0.
<mgrwt>
<rscale>  0 0.10048454E+04</rscale>
<asrwt>0</asrwt>
<pdfrwt beam="1">  1        2 0.12810214E+00 0.10631428E+04</pdfrwt>
<pdfrwt beam="2">  1       -2 0.17327935E+00 0.10631428E+04</pdfrwt>
<totfact> 0.65032515E+00</totfact>
</mgrwt>
</event>
<event>
 4    5  0.2409888E-007  0.1116988E+04  0.7818608E-02  0.9242374E-01
         -2   -1    0    0    0  501 -0.00000000000E+00  0.00000000000E+00  0.11451471800E+04  0.11451471800E+04  0.25500000000E-02 0.  1.
          2   -1    0    0  501    0  0.00000000000E+00 -0.00000000000E+00 -0.20103062093E+04  0.20103062093E+04  0.25500000000E-02 0. -1.
    8880023    1    1    2    0    0 -0.36393405148E+02 -0.90140306756E+03 -0.16210379888E+04  0.19686102554E+04  0.65864270000E+03 0.  0.
    8880022    1    1    2    0    0  0.36393405148E+02  0.90140306756E+03  0.75587895952E+03  0.11868431340E+04  0.15294330000E+03 0.  0.
<mgrwt>
<rscale>  0 0.10626564E+04</rscale>
<asrwt>0</asrwt>
<pdfrwt beam="1">  1        2 0.30927788E+00 0.11169880E+04</pdfrwt>
<pdfrwt beam="2">  1       -2 0.17617649E+00 0.11169880E+04</pdfrwt>
<totfact> 0.12482206E+00</totfact>
</mgrwt>
</event>
<event>
 4    5  0.2906592E-007  0.9287245E+03  0.7818608E-02  0.9481409E-01
         -2   -1    0    0    0  501 -0.00000000000E+00  0.00000000000E+00  0.14104486405E+04  0.14104486405E+04  0.25500000000E-02 0.  1.
          2   -1    0    0  501    0  0.00000000000E+00 -0.00000000000E+00 -0.14715630967E+04  0.14715630967E+04  0.25500000000E-02 0. -1.
    8880023    1    1    2    0    0  0.38417012521E+03  0.53021909556E+03 -0.12253644205E+04  0.15375458184E+04  0.65864270000E+03 0. -1.
    8880022    1    1    2    0    0 -0.38417012521E+03 -0.53021909556E+03  0.11642499643E+04  0.13444659188E+04  0.15294330000E+03 0.  0.
<mgrwt>
<rscale>  0 0.85668421E+03</rscale>
<asrwt>0</asrwt>
<pdfrwt beam="1">  1        2 0.22639432E+00 0.92872449E+03</pdfrwt>
<pdfrwt beam="2">  1       -2 0.21699210E+00 0.92872449E+03</pdfrwt>
<totfact> 0.13670389E+00</totfact>
</mgrwt>
</event>
<event>
 4    5  0.2409888E-007  0.6898520E+03  0.7818608E-02  0.1004223E+00
          2   -1    0    0  501    0  0.00000000000E+00  0.00000000000E+00  0.16066668432E+04  0.16066668432E+04  0.25500000000E-02 0. -1.
         -2   -1    0    0    0  501 -0.00000000000E+00 -0.00000000000E+00 -0.14177426992E+03  0.14177426995E+03  0.25500000000E-02 0.  1.
    8880023    1    1    2    0    0 -0.19086527550E+03 -0.75206682873E+02  0.11678449101E+04  0.13563766214E+04  0.65864270000E+03 0. -1.
    8880022    1    1    2    0    0  0.19086527550E+03  0.75206682873E+02  0.29704766312E+03  0.39206449179E+03  0.15294330000E+03 0.  1.
<mgrwt>
<rscale>  0 0.53836679E+03</rscale>
<asrwt>0</asrwt>
<pdfrwt beam="1">  1        2 0.24717952E+00 0.68985202E+03</pdfrwt>
<pdfrwt beam="2">  1       -2 0.21811426E-01 0.68985202E+03</pdfrwt>
<totfact> 0.20673313E+02</totfact>
</mgrwt>
</event>
<event>
 4    5  0.2409888E-007  0.7186166E+03  0.7818608E-02  0.9927295E-01
          2   -1    0    0  501    0  0.00000000000E+00  0.00000000000E+00  0.98239353502E+03  0.98239353503E+03  0.25500000000E-02 0. -1.
         -2   -1    0    0    0  501 -0.00000000000E+00 -0.00000000000E+00 -0.46623467956E+03  0.46623467956E+03  0.25500000000E-02 0.  1.
    8880023    1    1    2    0    0  0.69749110896E+02  0.27880927752E+03  0.75691895233E+03  0.10437126321E+04  0.65864270000E+03 0.  0.
    8880022    1    1    2    0    0 -0.69749110896E+02 -0.27880927752E+03 -0.24076009687E+03  0.40491558251E+03  0.15294330000E+03 0.  0.
<mgrwt>
<rscale>  0 0.58956493E+03</rscale>
<asrwt>0</asrwt>
<pdfrwt beam="1">  1        2 0.15113746E+00 0.71861656E+03</pdfrwt>
<pdfrwt beam="2">  1       -2 0.71728413E-01 0.71861656E+03</pdfrwt>
<totfact> 0.46396019E+01</totfact>
</mgrwt>
</event>
<event>
 4    5  0.2409888E-007  0.8752606E+03  0.7818608E-02  0.9566974E-01
          2   -1    0    0  501    0  0.00000000000E+00  0.00000000000E+00  0.75967802246E+03  0.75967802246E+03  0.25500000000E-02 0. -1.
         -2   -1    0    0    0  501 -0.00000000000E+00 -0.00000000000E+00 -0.75595500582E+03  0.75595500582E+03  0.25500000000E-02 0.  1.
    8880023    1    1    2    0    0 -0.44615387221E+02  0.57470030601E+03 -0.17597052828E+03  0.89277477988E+03  0.65864270000E+03 0.  0.
    8880022    1    1    2    0    0  0.44615387221E+02 -0.57470030601E+03  0.17969354492E+03  0.62285824840E+03  0.15294330000E+03 0.  0.
<mgrwt>
<rscale>  0 0.79521182E+03</rscale>
<asrwt>0</asrwt>
<pdfrwt beam="1">  1        2 0.11687354E+00 0.87526064E+03</pdfrwt>
<pdfrwt beam="2">  1       -2 0.11630077E+00 0.87526064E+03</pdfrwt>
<totfact> 0.21221974E+01</totfact>
</mgrwt>
</event>
<event>
 4    5  0.2409888E-007  0.8697293E+03  0.7818608E-02  0.9576486E-01
          2   -1    0    0  501    0  0.00000000000E+00  0.00000000000E+00  0.45108310949E+03  0.45108310950E+03  0.25500000000E-02 0. -1.
         -2   -1    0    0    0  501 -0.00000000000E+00 -0.00000000000E+00 -0.21007926425E+04  0.21007926425E+04  0.25500000000E-02 0.  1.
    8880023    1    1    2    0    0 -0.18754270158E+03  0.53614042168E+03 -0.77436205442E+02  0.87316973656E+03  0.65864270000E+03 0. -1.
    8880022    1    1    2    0    0  0.18754270158E+03 -0.53614042168E+03 -0.15722733276E+04  0.16787060155E+04  0.15294330000E+03 0.  0.
<mgrwt>
<rscale>  0 0.78872249E+03</rscale>
<asrwt>0</asrwt>
<pdfrwt beam="1">  1        2 0.69397402E-01 0.86972928E+03</pdfrwt>
<pdfrwt beam="2">  1       -2 0.32319886E+00 0.86972928E+03</pdfrwt>
<totfact> 0.16316977E+00</totfact>
</mgrwt>
</event>
<event>
 4    5  0.2409888E-007  0.6876488E+03  0.7818608E-02  0.1005291E+00
         -2   -1    0    0    0  501 -0.00000000000E+00  0.00000000000E+00  0.17446841528E+03  0.17446841530E+03  0.25500000000E-02 0.  1.
          2   -1    0    0  501    0  0.00000000000E+00 -0.00000000000E+00 -0.18808809852E+04  0.18808809852E+04  0.25500000000E-02 0. -1.
    8880023    1    1    2    0    0  0.20988765690E+02  0.19649479912E+03 -0.16658447989E+04  0.18021930626E+04  0.65864270000E+03 0. -1.
    8880022    1    1    2    0    0 -0.20988765690E+02 -0.19649479912E+03 -0.40567770957E+02  0.25315633790E+03  0.15294330000E+03 0.  0.
<mgrwt>
<rscale>  0 0.53390007E+03</rscale>
<asrwt>0</asrwt>
<pdfrwt beam="1">  1        2 0.28936629E+00 0.68764885E+03</pdfrwt>
<pdfrwt beam="2">  1       -2 0.26841296E-01 0.68764885E+03</pdfrwt>
<totfact> 0.10100754E+02</totfact>
</mgrwt>
</event>
<event>
 4    5  0.2409888E-007  0.8872824E+03  0.7818608E-02  0.9546764E-01
         -2   -1    0    0    0  501 -0.00000000000E+00  0.00000000000E+00  0.55756705536E+03  0.55756705537E+03  0.25500000000E-02 0.  1.
          2   -1    0    0  501    0  0.00000000000E+00 -0.00000000000E+00 -0.23096552606E+04  0.23096552606E+04  0.25500000000E-02 0. -1.
    8880023    1    1    2    0    0 -0.47292592135E+03  0.36027895723E+03 -0.20132462670E+04  0.22000978596E+04  0.65864270000E+03 0. -1.
    8880022    1    1    2    0    0  0.47292592135E+03 -0.36027895723E+03  0.26115806171E+03  0.66712445639E+03  0.15294330000E+03 0.  0.
<mgrwt>
<rscale>  0 0.80922200E+03</rscale>
<asrwt>0</asrwt>
<pdfrwt beam="1">  1        2 0.35533157E+00 0.88728240E+03</pdfrwt>
<pdfrwt beam="2">  1       -2 0.85779548E-01 0.88728240E+03</pdfrwt>
<totfact> 0.53980040E+00</totfact>
</mgrwt>
</event>
<event>
 4    5  0.2409888E-007  0.9259423E+03  0.7818608E-02  0.9485607E-01
          2   -1    0    0  501    0  0.00000000000E+00  0.00000000000E+00  0.61606555989E+03  0.61606555989E+03  0.25500000000E-02 0. -1.
         -2   -1    0    0    0  501 -0.00000000000E+00 -0.00000000000E+00 -0.14821521578E+04  0.14821521578E+04  0.25500000000E-02 0.  1.
    8880023    1    1    2    0    0 -0.66762491525E+02  0.64738063974E+03  0.91385074552E+02  0.93044094982E+03  0.65864270000E+03 0.  0.
    8880022    1    1    2    0    0  0.66762491525E+02 -0.64738063974E+03 -0.95747167245E+03  0.11677767679E+04  0.15294330000E+03 0.  0.
<mgrwt>
<rscale>  0 0.85353312E+03</rscale>
<asrwt>0</asrwt>
<pdfrwt beam="1">  1        2 0.94779317E-01 0.92594229E+03</pdfrwt>
<pdfrwt beam="2">  1       -2 0.22802341E+00 0.92594229E+03</pdfrwt>
<totfact> 0.42422033E+00</totfact>
</mgrwt>
</event>
<event>
 4    5  0.2409888E-007  0.1028433E+04  0.7818608E-02  0.9345268E-01
         -2   -1    0    0    0  501 -0.00000000000E+00  0.00000000000E+00  0.16475045101E+04  0.16475045101E+04  0.25500000000E-02 0.  1.
          2   -1    0    0  501    0  0.00000000000E+00 -0.00000000000E+00 -0.71970348441E+03  0.71970348441E+03  0.25500000000E-02 0. -1.
    8880023    1    1    2    0    0 -0.69165527974E+03  0.38141559301E+03 -0.13174156355E+03  0.10368369816E+04  0.65864270000E+03 0. -1.
    8880022    1    1    2    0    0  0.69165527974E+03 -0.38141559301E+03  0.10595425893E+04  0.13303710129E+04  0.15294330000E+03 0.  0.
<mgrwt>
<rscale>  0 0.96720083E+03</rscale>
<asrwt>0</asrwt>
<pdfrwt beam="1">  1        2 0.11072361E+00 0.10284333E+04</pdfrwt>
<pdfrwt beam="2">  1       -2 0.25346223E+00 0.10284333E+04</pdfrwt>
<totfact> 0.24084107E+00</totfact>
</mgrwt>
</event>
<event>
 4    5  0.2409888E-007  0.7878240E+03  0.7818608E-02  0.9737769E-01
         -2   -1    0    0    0  501 -0.00000000000E+00  0.00000000000E+00  0.12949500688E+04  0.12949500688E+04  0.25500000000E-02 0.  1.
          2   -1    0    0  501    0  0.00000000000E+00 -0.00000000000E+00 -0.10537466453E+04  0.10537466453E+04  0.25500000000E-02 0. -1.
    8880023    1    1    2    0    0 -0.94802793560E+02 -0.42174508696E+03 -0.85369433860E+03  0.11616629107E+04  0.65864270000E+03 0. -1.
    8880022    1    1    2    0    0  0.94802793560E+02  0.42174508696E+03  0.10948977621E+04  0.11870338035E+04  0.15294330000E+03 0.  0.
<mgrwt>
<rscale>  0 0.68811882E+03</rscale>
<asrwt>0</asrwt>
<pdfrwt beam="1">  1        2 0.16211487E+00 0.78782402E+03</pdfrwt>
<pdfrwt beam="2">  1       -2 0.19922309E+00 0.78782402E+03</pdfrwt>
<totfact> 0.31929567E+00</totfact>
</mgrwt>
</event>
<event>
 4    5  0.2409888E-007  0.1746425E+04  0.7818608E-02  0.8752766E-01
         -2   -1    0    0    0  501 -0.00000000000E+00  0.00000000000E+00  0.16447169371E+04  0.16447169371E+04  0.25500000000E-02 0.  1.
          2   -1    0    0  501    0  0.00000000000E+00 -0.00000000000E+00 -0.27715924304E+04  0.27715924304E+04  0.25500000000E-02 0. -1.
    8880023    1    1    2    0    0 -0.14910419835E+04 -0.62688494574E+03  0.77868951853E+03  0.19121606900E+04  0.65864270000E+03 0.  0.
    8880022    1    1    2    0    0  0.14910419835E+04  0.62688494574E+03 -0.19055650119E+04  0.25041486776E+04  0.15294330000E+03 0.  0.
<mgrwt>
<rscale>  0 0.17151591E+04</rscale>
<asrwt>0</asrwt>
<pdfrwt beam="1">  1        2 0.42639884E+00 0.17464252E+04</pdfrwt>
<pdfrwt beam="2">  1       -2 0.25303337E+00 0.17464252E+04</pdfrwt>
<totfact> 0.13503911E-01</totfact>
</mgrwt>
</event>
<event>
 4    5  0.2409888E-007  0.8819357E+03  0.7818608E-02  0.9555676E-01
         -2   -1    0    0    0  501 -0.00000000000E+00  0.00000000000E+00  0.74315441799E+03  0.74315441799E+03  0.25500000000E-02 0.  1.
          2   -1    0    0  501    0  0.00000000000E+00 -0.00000000000E+00 -0.37143328837E+04  0.37143328837E+04  0.25500000000E-02 0. -1.
    8880023    1    1    2    0    0 -0.26507542471E+03  0.52319721629E+03 -0.35266970096E+04  0.36352994804E+04  0.65864270000E+03 0. -1.
    8880022    1    1    2    0    0  0.26507542471E+03 -0.52319721629E+03  0.55551854391E+03  0.82218782134E+03  0.15294330000E+03 0.  0.
<mgrwt>
<rscale>  0 0.80300617E+03</rscale>
<asrwt>0</asrwt>
<pdfrwt beam="1">  1        2 0.57143582E+00 0.88193566E+03</pdfrwt>
<pdfrwt beam="2">  1       -2 0.11433145E+00 0.88193566E+03</pdfrwt>
<totfact> 0.36282910E-01</totfact>
</mgrwt>
</event>
<event>
 4    5  0.2409888E-007  0.8928390E+03  0.7818608E-02  0.9537626E-01
          2   -1    0    0  501    0  0.00000000000E+00  0.00000000000E+00  0.97425476856E+03  0.97425476856E+03  0.25500000000E-02 0. -1.
         -2   -1    0    0    0  501 -0.00000000000E+00 -0.00000000000E+00 -0.91839295204E+03  0.91839295205E+03  0.25500000000E-02 0.  1.
    8880023    1    1    2    0    0  0.57936436119E+03  0.16639777927E+03  0.59223713281E+03  0.10714038976E+04  0.65864270000E+03 0.  0.
    8880022    1    1    2    0    0 -0.57936436119E+03 -0.16639777927E+03 -0.53637531629E+03  0.82124382305E+03  0.15294330000E+03 0.  0.
<mgrwt>
<rscale>  0 0.81565718E+03</rscale>
<asrwt>0</asrwt>
<pdfrwt beam="1">  1        2 0.14988535E+00 0.89283901E+03</pdfrwt>
<pdfrwt beam="2">  1       -2 0.14129122E+00 0.89283901E+03</pdfrwt>
<totfact> 0.91942337E+00</totfact>
</mgrwt>
</event>
<event>
 4    5  0.2409888E-007  0.8290050E+03  0.7818608E-02  0.9651271E-01
         -2   -1    0    0    0  501 -0.00000000000E+00  0.00000000000E+00  0.49362876714E+03  0.49362876715E+03  0.25500000000E-02 0.  1.
          2   -1    0    0  501    0  0.00000000000E+00 -0.00000000000E+00 -0.26035708684E+04  0.26035708684E+04  0.25500000000E-02 0. -1.
    8880023    1    1    2    0    0 -0.41148852203E+03  0.29002814456E+03 -0.23696287862E+04  0.25104561177E+04  0.65864270000E+03 0. -1.
    8880022    1    1    2    0    0  0.41148852203E+03 -0.29002814456E+03  0.25968668492E+03  0.58674351785E+03  0.15294330000E+03 0.  0.
<mgrwt>
<rscale>  0 0.73993687E+03</rscale>
<asrwt>0</asrwt>
<pdfrwt beam="1">  1        2 0.40054936E+00 0.82900503E+03</pdfrwt>
<pdfrwt beam="2">  1       -2 0.75942889E-01 0.82900503E+03</pdfrwt>
<totfact> 0.48857445E+00</totfact>
</mgrwt>
</event>
<event>
 4    5  0.2409888E-007  0.1341838E+04  0.7818608E-02  0.9030247E-01
         -2   -1    0    0    0  501 -0.00000000000E+00  0.00000000000E+00  0.69877330321E+03  0.69877330322E+03  0.25500000000E-02 0.  1.
          2   -1    0    0  501    0  0.00000000000E+00 -0.00000000000E+00 -0.34155467403E+04  0.34155467403E+04  0.25500000000E-02 0. -1.
    8880023    1    1    2    0    0 -0.53410816549E+03 -0.10399268883E+04 -0.22891866940E+03  0.13612249737E+04  0.65864270000E+03 0.  0.
    8880022    1    1    2    0    0  0.53410816549E+03  0.10399268883E+04 -0.24878547677E+04  0.27530950699E+04  0.15294330000E+03 0.  0.
<mgrwt>
<rscale>  0 0.12991410E+04</rscale>
<asrwt>0</asrwt>
<pdfrwt beam="1">  1        2 0.52546872E+00 0.13418382E+04</pdfrwt>
<pdfrwt beam="2">  1       -2 0.10750359E+00 0.13418382E+04</pdfrwt>
<totfact> 0.63205715E-01</totfact>
</mgrwt>
</event>
<event>
 4    5  0.2409888E-007  0.1390060E+04  0.7818608E-02  0.8991445E-01
          2   -1    0    0  501    0  0.00000000000E+00  0.00000000000E+00  0.23538774833E+04  0.23538774833E+04  0.25500000000E-02 0. -1.
         -2   -1    0    0    0  501 -0.00000000000E+00 -0.00000000000E+00 -0.90271787498E+03  0.90271787498E+03  0.25500000000E-02 0.  1.
    8880023    1    1    2    0    0  0.78199606958E+03  0.94177423957E+03  0.14695438988E+04  0.20228262525E+04  0.65864270000E+03 0.  0.
    8880022    1    1    2    0    0 -0.78199606958E+03 -0.94177423957E+03 -0.18384290470E+02  0.12337691058E+04  0.15294330000E+03 0.  0.
<mgrwt>
<rscale>  0 0.13491852E+04</rscale>
<asrwt>0</asrwt>
<pdfrwt beam="1">  1        2 0.36213500E+00 0.13900600E+04</pdfrwt>
<pdfrwt beam="2">  1       -2 0.13887967E+00 0.13900600E+04</pdfrwt>
<totfact> 0.14820414E+00</totfact>
</mgrwt>
</event>
<event>
 4    5  0.2409888E-007  0.7274306E+03  0.7818608E-02  0.9898201E-01
         -2   -1    0    0    0  501 -0.00000000000E+00  0.00000000000E+00  0.12824487262E+03  0.12824487265E+03  0.25500000000E-02 0.  1.
          2   -1    0    0  501    0  0.00000000000E+00 -0.00000000000E+00 -0.30108945549E+04  0.30108945549E+04  0.25500000000E-02 0. -1.
    8880023    1    1    2    0    0  0.30240078766E+03 -0.62440103200E+02 -0.25797670283E+04  0.26803643651E+04  0.65864270000E+03 0. -1.
    8880022    1    1    2    0    0 -0.30240078766E+03  0.62440103200E+02 -0.30288265393E+03  0.45877506246E+03  0.15294330000E+03 0.  0.
<mgrwt>
<rscale>  0 0.60348538E+03</rscale>
<asrwt>0</asrwt>
<pdfrwt beam="1">  1        2 0.46321449E+00 0.72743055E+03</pdfrwt>
<pdfrwt beam="2">  1       -2 0.19729983E-01 0.72743055E+03</pdfrwt>
<totfact> 0.39713462E+01</totfact>
</mgrwt>
</event>
<event>
 4    5  0.2409888E-007  0.1917498E+04  0.7818608E-02  0.8660182E-01
         -2   -1    0    0    0  501 -0.00000000000E+00  0.00000000000E+00  0.13753308381E+04  0.13753308381E+04  0.25500000000E-02 0.  1.
          2   -1    0    0  501    0  0.00000000000E+00 -0.00000000000E+00 -0.28650816864E+04  0.28650816864E+04  0.25500000000E-02 0. -1.
    8880023    1    1    2    0    0  0.63484793997E+03  0.16852165564E+04 -0.14976961918E+04  0.24330825794E+04  0.65864270000E+03 0.  0.
    8880022    1    1    2    0    0 -0.63484793997E+03 -0.16852165564E+04  0.79453434879E+01  0.18073299451E+04  0.15294330000E+03 0.  0.
<mgrwt>
<rscale>  0 0.18893370E+04</rscale>
<asrwt>0</asrwt>
<pdfrwt beam="1">  1        2 0.44078180E+00 0.19174976E+04</pdfrwt>
<pdfrwt beam="2">  1       -2 0.21158936E+00 0.19174976E+04</pdfrwt>
<totfact> 0.21233707E-01</totfact>
</mgrwt>
</event>
<event>
 4    5  0.2409888E-007  0.1212373E+04  0.7818608E-02  0.9145188E-01
          2   -1    0    0  501    0  0.00000000000E+00  0.00000000000E+00  0.30656249218E+04  0.30656249218E+04  0.25500000000E-02 0. -1.
         -2   -1    0    0    0  501 -0.00000000000E+00 -0.00000000000E+00 -0.10215347037E+04  0.10215347037E+04  0.25500000000E-02 0.  1.
    8880023    1    1    2    0    0  0.76676165308E+03 -0.66941388350E+03 -0.52378345893E+03  0.13206807707E+04  0.65864270000E+03 0.  0.
    8880022    1    1    2    0    0 -0.76676165308E+03  0.66941388350E+03  0.25678736769E+04  0.27664788548E+04  0.15294330000E+03 0.  0.
<mgrwt>
<rscale>  0 0.11637542E+04</rscale>
<asrwt>0</asrwt>
<pdfrwt beam="1">  1        2 0.47163460E+00 0.12123731E+04</pdfrwt>
<pdfrwt beam="2">  1       -2 0.15715919E+00 0.12123731E+04</pdfrwt>
<totfact> 0.41174428E-01</totfact>
</mgrwt>
</event>
<event>
 4    5  0.2409888E-007  0.7568991E+03  0.7818608E-02  0.9813202E-01
         -2   -1    0    0    0  501 -0.00000000000E+00  0.00000000000E+00  0.30052078324E+03  0.30052078325E+03  0.25500000000E-02 0.  1.
          2   -1    0    0  501    0  0.00000000000E+00 -0.00000000000E+00 -0.13877704605E+04  0.13877704605E+04  0.25500000000E-02 0. -1.
    8880023    1    1    2    0    0 -0.36463567408E+03  0.78274594627E+02 -0.10344109646E+04  0.12817575188E+04  0.65864270000E+03 0.  0.
    8880022    1    1    2    0    0  0.36463567408E+03 -0.78274594627E+02 -0.52838712657E+02  0.40653372498E+03  0.15294330000E+03 0.  0.
<mgrwt>
<rscale>  0 0.64658815E+03</rscale>
<asrwt>0</asrwt>
<pdfrwt beam="1">  1        2 0.21350315E+00 0.75689913E+03</pdfrwt>
<pdfrwt beam="2">  1       -2 0.46233967E-01 0.75689913E+03</pdfrwt>
<totfact> 0.66428365E+01</totfact>
</mgrwt>
</event>
<event>
 4    5  0.2409888E-007  0.1422942E+04  0.7818608E-02  0.8966058E-01
          2   -1    0    0  501    0  0.00000000000E+00  0.00000000000E+00  0.26463096792E+04  0.26463096792E+04  0.25500000000E-02 0. -1.
         -2   -1    0    0    0  501 -0.00000000000E+00 -0.00000000000E+00 -0.10089842267E+04  0.10089842267E+04  0.25500000000E-02 0.  1.
    8880023    1    1    2    0    0  0.10784928074E+04  0.65406919293E+03  0.18840231159E+04  0.23609969404E+04  0.65864270000E+03 0.  0.
    8880022    1    1    2    0    0 -0.10784928074E+04 -0.65406919293E+03 -0.24669766341E+03  0.12942969655E+04  0.15294330000E+03 0.  0.
<mgrwt>
<rscale>  0 0.13832157E+04</rscale>
<asrwt>0</asrwt>
<pdfrwt beam="1">  1        2 0.40712456E+00 0.14229418E+04</pdfrwt>
<pdfrwt beam="2">  1       -2 0.15522834E+00 0.14229418E+04</pdfrwt>
<totfact> 0.74453537E-01</totfact>
</mgrwt>
</event>
<event>
 4    5  0.2409888E-007  0.1128126E+04  0.7818608E-02  0.9230369E-01
          2   -1    0    0  501    0  0.00000000000E+00  0.00000000000E+00  0.23472748638E+04  0.23472748638E+04  0.25500000000E-02 0. -1.
         -2   -1    0    0    0  501 -0.00000000000E+00 -0.00000000000E+00 -0.64310735507E+03  0.64310735507E+03  0.25500000000E-02 0.  1.
    8880023    1    1    2    0    0  0.58374699779E+03 -0.70575991078E+03  0.17255072545E+04  0.20615632662E+04  0.65864270000E+03 0.  0.
    8880022    1    1    2    0    0 -0.58374699779E+03  0.70575991078E+03 -0.21339745728E+02  0.92881895268E+03  0.15294330000E+03 0.  0.
<mgrwt>
<rscale>  0 0.10745392E+04</rscale>
<asrwt>0</asrwt>
<pdfrwt beam="1">  1        2 0.36111921E+00 0.11281258E+04</pdfrwt>
<pdfrwt beam="2">  1       -2 0.98939594E-01 0.11281258E+04</pdfrwt>
<totfact> 0.35734224E+00</totfact>
</mgrwt>
</event>
<event>
 4    5  0.2409888E-007  0.1539093E+04  0.7818608E-02  0.8882513E-01
         -2   -1    0    0    0  501 -0.00000000000E+00  0.00000000000E+00  0.13377991642E+04  0.13377991642E+04  0.25500000000E-02 0.  1.
          2   -1    0    0  501    0  0.00000000000E+00 -0.00000000000E+00 -0.29609159573E+04  0.29609159573E+04  0.25500000000E-02 0. -1.
    8880023    1    1    2    0    0 -0.11938907553E+04 -0.71387730151E+03 -0.22815426885E+04  0.27521342960E+04  0.65864270000E+03 0. -1.
    8880022    1    1    2    0    0  0.11938907553E+04  0.71387730151E+03  0.65842589541E+03  0.15465808255E+04  0.15294330000E+03 0.  0.
<mgrwt>
<rscale>  0 0.15029201E+04</rscale>
<asrwt>0</asrwt>
<pdfrwt beam="1">  1        2 0.45552553E+00 0.15390926E+04</pdfrwt>
<pdfrwt beam="2">  1       -2 0.20581526E+00 0.15390926E+04</pdfrwt>
<totfact> 0.21039548E-01</totfact>
</mgrwt>
</event>
<event>
 4    5  0.2409888E-007  0.6704225E+03  0.7818608E-02  0.1015362E+00
         -2   -1    0    0    0  501 -0.00000000000E+00  0.00000000000E+00  0.11772442643E+04  0.11772442644E+04  0.25500000000E-02 0.  1.
          2   -1    0    0  501    0  0.00000000000E+00 -0.00000000000E+00 -0.12117446416E+04  0.12117446416E+04  0.25500000000E-02 0. -1.
    8880023    1    1    2    0    0  0.94587318421E+02  0.81910704072E+02 -0.11093119707E+04  0.12961633303E+04  0.65864270000E+03 0. -1.
    8880022    1    1    2    0    0 -0.94587318421E+02 -0.81910704072E+02  0.10748115935E+04  0.10928255756E+04  0.15294330000E+03 0.  0.
<mgrwt>
<rscale>  0 0.49398183E+03</rscale>
<asrwt>0</asrwt>
<pdfrwt beam="1">  1        2 0.18642225E+00 0.67042250E+03</pdfrwt>
<pdfrwt beam="2">  1       -2 0.18111450E+00 0.67042250E+03</pdfrwt>
<totfact> 0.34458695E+00</totfact>
</mgrwt>
</event>
<event>
 4    5  0.2409888E-007  0.9857276E+03  0.7818608E-02  0.9400473E-01
         -2   -1    0    0    0  501 -0.00000000000E+00  0.00000000000E+00  0.47413179214E+03  0.47413179215E+03  0.25500000000E-02 0.  1.
          2   -1    0    0  501    0  0.00000000000E+00 -0.00000000000E+00 -0.25017018983E+04  0.25017018983E+04  0.25500000000E-02 0. -1.
    8880023    1    1    2    0    0  0.11920741717E+03  0.72362854589E+03 -0.19958531436E+04  0.22260028432E+04  0.65864270000E+03 0. -1.
    8880022    1    1    2    0    0 -0.11920741717E+03 -0.72362854589E+03 -0.31716962523E+02  0.74983084724E+03  0.15294330000E+03 0.  0.
<mgrwt>
<rscale>  0 0.92036754E+03</rscale>
<asrwt>0</asrwt>
<pdfrwt beam="1">  1        2 0.38487721E+00 0.98572759E+03</pdfrwt>
<pdfrwt beam="2">  1       -2 0.72943354E-01 0.98572759E+03</pdfrwt>
<totfact> 0.59734030E+00</totfact>
</mgrwt>
</event>
<event>
 4    5  0.2409888E-007  0.8596069E+03  0.7818608E-02  0.9594263E-01
          2   -1    0    0  501    0  0.00000000000E+00  0.00000000000E+00  0.24936139656E+04  0.24936139656E+04  0.25500000000E-02 0. -1.
         -2   -1    0    0    0  501 -0.00000000000E+00 -0.00000000000E+00 -0.71892422746E+03  0.71892422747E+03  0.25500000000E-02 0.  1.
    8880023    1    1    2    0    0  0.33689775030E+03 -0.43773702857E+03  0.22873622684E+04  0.24435527728E+04  0.65864270000E+03 0.  0.
    8880022    1    1    2    0    0 -0.33689775030E+03  0.43773702857E+03 -0.51267253024E+03  0.76898542029E+03  0.15294330000E+03 0.  0.
<mgrwt>
<rscale>  0 0.77677053E+03</rscale>
<asrwt>0</asrwt>
<pdfrwt beam="1">  1        2 0.38363292E+00 0.85960689E+03</pdfrwt>
<pdfrwt beam="2">  1       -2 0.11060373E+00 0.85960689E+03</pdfrwt>
<totfact> 0.23441321E+00</totfact>
</mgrwt>
</event>
<event>
 4    5  0.2409888E-007  0.1371634E+04  0.7818608E-02  0.9006043E-01
         -2   -1    0    0    0  501 -0.00000000000E+00  0.00000000000E+00  0.62383207796E+03  0.62383207796E+03  0.25500000000E-02 0.  1.
          2   -1    0    0  501    0  0.00000000000E+00 -0.00000000000E+00 -0.48326254672E+04  0.48326254672E+04  0.25500000000E-02 0. -1.
    8880023    1    1    2    0    0 -0.19074635286E+03  0.11879336204E+04 -0.39963164517E+04  0.42251539435E+04  0.65864270000E+03 0. -1.
    8880022    1    1    2    0    0  0.19074635286E+03 -0.11879336204E+04 -0.21247693749E+03  0.12313036017E+04  0.15294330000E+03 0.  0.
<mgrwt>
<rscale>  0 0.13300836E+04</rscale>
<asrwt>0</asrwt>
<pdfrwt beam="1">  1        2 0.74348082E+00 0.13716343E+04</pdfrwt>
<pdfrwt beam="2">  1       -2 0.95974169E-01 0.13716343E+04</pdfrwt>
<totfact> 0.50297358E-02</totfact>
</mgrwt>
</event>
<event>
 4    5  0.2409888E-007  0.6997610E+03  0.7818608E-02  0.9998194E-01
         -2   -1    0    0    0  501 -0.00000000000E+00  0.00000000000E+00  0.15908476883E+03  0.15908476885E+03  0.25500000000E-02 0.  1.
          2   -1    0    0  501    0  0.00000000000E+00 -0.00000000000E+00 -0.21819329234E+04  0.21819329234E+04  0.25500000000E-02 0. -1.
    8880023    1    1    2    0    0 -0.31437516291E+02  0.23423690663E+03 -0.19162211958E+04  0.20399924322E+04  0.65864270000E+03 0. -1.
    8880022    1    1    2    0    0  0.31437516291E+02 -0.23423690663E+03 -0.10662695878E+03  0.30102526009E+03  0.15294330000E+03 0.  0.
<mgrwt>
<rscale>  0 0.55729492E+03</rscale>
<asrwt>0</asrwt>
<pdfrwt beam="1">  1        2 0.33568197E+00 0.69976100E+03</pdfrwt>
<pdfrwt beam="2">  1       -2 0.24474581E-01 0.69976100E+03</pdfrwt>
<totfact> 0.81664248E+01</totfact>
</mgrwt>
</event>
<event>
 4    5  0.2409888E-007  0.9350303E+03  0.7818608E-02  0.9471987E-01
         -2   -1    0    0    0  501 -0.00000000000E+00  0.00000000000E+00  0.13197265714E+04  0.13197265715E+04  0.25500000000E-02 0.  1.
          2   -1    0    0  501    0  0.00000000000E+00 -0.00000000000E+00 -0.10227424512E+04  0.10227424512E+04  0.25500000000E-02 0. -1.
    8880023    1    1    2    0    0 -0.79477838275E+02 -0.65890415579E+03 -0.67670951155E+03  0.11542172164E+04  0.65864270000E+03 0.  0.
    8880022    1    1    2    0    0  0.79477838275E+02  0.65890415579E+03  0.97369363184E+03  0.11882518062E+04  0.15294330000E+03 0.  0.
<mgrwt>
<rscale>  0 0.86380951E+03</rscale>
<asrwt>0</asrwt>
<pdfrwt beam="1">  1        2 0.15734499E+00 0.93503028E+03</pdfrwt>
<pdfrwt beam="2">  1       -2 0.20303485E+00 0.93503028E+03</pdfrwt>
<totfact> 0.30941847E+00</totfact>
</mgrwt>
</event>
<event>
 4    5  0.2409888E-007  0.1264341E+04  0.7818608E-02  0.9096982E-01
          2   -1    0    0  501    0  0.00000000000E+00  0.00000000000E+00  0.93481891300E+03  0.93481891300E+03  0.25500000000E-02 0. -1.
         -2   -1    0    0    0  501 -0.00000000000E+00 -0.00000000000E+00 -0.16498089306E+04  0.16498089306E+04  0.25500000000E-02 0.  1.
    8880023    1    1    2    0    0  0.73406348271E+03  0.79113748942E+03  0.29399580916E+02  0.12646826738E+04  0.65864270000E+03 0.  0.
    8880022    1    1    2    0    0 -0.73406348271E+03 -0.79113748942E+03 -0.74438959849E+03  0.13199451698E+04  0.15294330000E+03 0.  0.
<mgrwt>
<rscale>  0 0.12183065E+04</rscale>
<asrwt>0</asrwt>
<pdfrwt beam="1">  1        2 0.14381829E+00 0.12643409E+04</pdfrwt>
<pdfrwt beam="2">  1       -2 0.25381676E+00 0.12643409E+04</pdfrwt>
<totfact> 0.16389394E+00</totfact>
</mgrwt>
</event>
<event>
 4    5  0.2409888E-007  0.7758198E+03  0.7818608E-02  0.9765750E-01
         -2   -1    0    0    0  501 -0.00000000000E+00  0.00000000000E+00  0.39917738187E+03  0.39917738188E+03  0.25500000000E-02 0.  1.
          2   -1    0    0  501    0  0.00000000000E+00 -0.00000000000E+00 -0.16967198224E+04  0.16967198224E+04  0.25500000000E-02 0. -1.
    8880023    1    1    2    0    0 -0.11233660030E+03  0.39429261735E+03 -0.14400133045E+04  0.16357061788E+04  0.65864270000E+03 0. -1.
    8880022    1    1    2    0    0  0.11233660030E+03 -0.39429261735E+03  0.14247086397E+03  0.46019102551E+03  0.15294330000E+03 0.  0.
<mgrwt>
<rscale>  0 0.67233460E+03</rscale>
<asrwt>0</asrwt>
<pdfrwt beam="1">  1        2 0.26103381E+00 0.77581982E+03</pdfrwt>
<pdfrwt beam="2">  1       -2 0.61411906E-01 0.77581982E+03</pdfrwt>
<totfact> 0.24860112E+01</totfact>
</mgrwt>
</event>
<event>
 4    5  0.2409888E-007  0.7423903E+03  0.7818608E-02  0.9853038E-01
          2   -1    0    0  501    0  0.00000000000E+00  0.00000000000E+00  0.15222688681E+04  0.15222688681E+04  0.25500000000E-02 0. -1.
         -2   -1    0    0    0  501 -0.00000000000E+00 -0.00000000000E+00 -0.22325062281E+04  0.22325062281E+04  0.25500000000E-02 0.  1.
    8880023    1    1    2    0    0  0.15359266400E+03 -0.30617393157E+03  0.14143355841E+04  0.15973379522E+04  0.65864270000E+03 0. -1.
    8880022    1    1    2    0    0 -0.15359266400E+03  0.30617393157E+03 -0.21245729441E+04  0.21574371441E+04  0.15294330000E+03 0.  0.
<mgrwt>
<rscale>  0 0.62592251E+03</rscale>
<asrwt>0</asrwt>
<pdfrwt beam="1">  1        2 0.23419521E+00 0.74239032E+03</pdfrwt>
<pdfrwt beam="2">  1       -2 0.34346250E+00 0.74239032E+03</pdfrwt>
<totfact> 0.22534157E-01</totfact>
</mgrwt>
</event>
<event>
 4    5  0.3342827E-007  0.9093925E+03  0.7818608E-02  0.9511119E-01
          2   -1    0    0  501    0  0.00000000000E+00  0.00000000000E+00  0.40557363307E+04  0.40557363307E+04  0.25500000000E-02 0. -1.
         -2   -1    0    0    0  501 -0.00000000000E+00 -0.00000000000E+00 -0.16041239555E+04  0.16041239555E+04  0.25500000000E-02 0.  1.
    8880023    1    1    2    0    0  0.23871081461E+03 -0.57982906112E+03  0.39368114089E+04  0.40404800295E+04  0.65864270000E+03 0.  0.
    8880022    1    1    2    0    0 -0.23871081461E+03  0.57982906112E+03 -0.14851990337E+04  0.16193802568E+04  0.15294330000E+03 0.  0.
<mgrwt>
<rscale>  0 0.83469028E+03</rscale>
<asrwt>0</asrwt>
<pdfrwt beam="1">  1        2 0.62395942E+00 0.90939254E+03</pdfrwt>
<pdfrwt beam="2">  1       -2 0.24678831E+00 0.90939254E+03</pdfrwt>
<totfact> 0.22405247E-02</totfact>
</mgrwt>
</event>
<event>
 4    5  0.2409888E-007  0.9233874E+03  0.7818608E-02  0.9489484E-01
         -2   -1    0    0    0  501 -0.00000000000E+00  0.00000000000E+00  0.29005354630E+03  0.29005354631E+03  0.25500000000E-02 0.  1.
          2   -1    0    0  501    0  0.00000000000E+00 -0.00000000000E+00 -0.31736859389E+04  0.31736859389E+04  0.25500000000E-02 0. -1.
    8880023    1    1    2    0    0 -0.44606725074E+03  0.46889030970E+03 -0.25653896062E+04  0.27265120855E+04  0.65864270000E+03 0. -1.
    8880022    1    1    2    0    0  0.44606725074E+03 -0.46889030970E+03 -0.31824278637E+03  0.73722739965E+03  0.15294330000E+03 0.  0.
<mgrwt>
<rscale>  0 0.85063543E+03</rscale>
<asrwt>0</asrwt>
<pdfrwt beam="1">  1        2 0.48825935E+00 0.92338742E+03</pdfrwt>
<pdfrwt beam="2">  1       -2 0.44623625E-01 0.92338742E+03</pdfrwt>
<totfact> 0.66773062E+00</totfact>
</mgrwt>
</event>
<event>
 4    5  0.2409888E-007  0.8689232E+03  0.7818608E-02  0.9577884E-01
         -2   -1    0    0    0  501 -0.00000000000E+00  0.00000000000E+00  0.38124937786E+03  0.38124937787E+03  0.25500000000E-02 0.  1.
          2   -1    0    0  501    0  0.00000000000E+00 -0.00000000000E+00 -0.19653897514E+04  0.19653897514E+04  0.25500000000E-02 0. -1.
    8880023    1    1    2    0    0 -0.54031732245E+03 -0.17109805647E+03 -0.15268884737E+04  0.17568198460E+04  0.65864270000E+03 0.  0.
    8880022    1    1    2    0    0  0.54031732245E+03  0.17109805647E+03 -0.57251899823E+02  0.58981928327E+03  0.15294330000E+03 0.  0.
<mgrwt>
<rscale>  0 0.78777443E+03</rscale>
<asrwt>0</asrwt>
<pdfrwt beam="1">  1        2 0.30236765E+00 0.86892322E+03</pdfrwt>
<pdfrwt beam="2">  1       -2 0.58653752E-01 0.86892322E+03</pdfrwt>
<totfact> 0.19313263E+01</totfact>
</mgrwt>
</event>
<event>
 4    5  0.2409888E-007  0.1546853E+04  0.7818608E-02  0.8877241E-01
          2   -1    0    0  501    0  0.00000000000E+00  0.00000000000E+00  0.17116144070E+04  0.17116144070E+04  0.25500000000E-02 0. -1.
         -2   -1    0    0    0  501 -0.00000000000E+00 -0.00000000000E+00 -0.23562765011E+04  0.23562765011E+04  0.25500000000E-02 0.  1.
    8880023    1    1    2    0    0 -0.13602181932E+04 -0.32977417826E+03  0.10463169758E+04  0.18674940326E+04  0.65864270000E+03 0. -1.
    8880022    1    1    2    0    0  0.13602181932E+04  0.32977417826E+03 -0.16909790700E+04  0.22003968755E+04  0.15294330000E+03 0.  0.
<mgrwt>
<rscale>  0 0.15108940E+04</rscale>
<asrwt>0</asrwt>
<pdfrwt beam="1">  1        2 0.26332529E+00 0.15468532E+04</pdfrwt>
<pdfrwt beam="2">  1       -2 0.36250408E+00 0.15468532E+04</pdfrwt>
<totfact> 0.11715705E-01</totfact>
</mgrwt>
</event>
<event>
 4    5  0.2409888E-007  0.6793873E+03  0.7818608E-02  0.1009672E+00
         -2   -1    0    0    0  501 -0.00000000000E+00  0.00000000000E+00  0.16191695225E+03  0.16191695227E+03  0.25500000000E-02 0.  1.
          2   -1    0    0  501    0  0.00000000000E+00 -0.00000000000E+00 -0.35746384038E+04  0.35746384038E+04  0.25500000000E-02 0. -1.
    8880023    1    1    2    0    0 -0.69107066002E+02  0.15159510344E+03 -0.34420892568E+04  0.35084961906E+04  0.65864270000E+03 0. -1.
    8880022    1    1    2    0    0  0.69107066002E+02 -0.15159510344E+03  0.29367805181E+02  0.22805916547E+03  0.15294330000E+03 0.  1.
<mgrwt>
<rscale>  0 0.51605048E+03</rscale>
<asrwt>0</asrwt>
<pdfrwt beam="1">  1        2 0.54994431E+00 0.67938727E+03</pdfrwt>
<pdfrwt beam="2">  1       -2 0.24910303E-01 0.67938727E+03</pdfrwt>
<totfact> 0.11400079E+01</totfact>
</mgrwt>
</event>
<event>
 4    5  0.2409888E-007  0.1308865E+04  0.7818608E-02  0.9057942E-01
         -2   -1    0    0    0  501 -0.00000000000E+00  0.00000000000E+00  0.85780220153E+03  0.85780220153E+03  0.25500000000E-02 0.  1.
          2   -1    0    0  501    0  0.00000000000E+00 -0.00000000000E+00 -0.23744263871E+04  0.23744263871E+04  0.25500000000E-02 0. -1.
    8880023    1    1    2    0    0  0.48212287703E+03  0.10231691176E+04 -0.16240458066E+04  0.20858217805E+04  0.65864270000E+03 0.  0.
    8880022    1    1    2    0    0 -0.48212287703E+03 -0.10231691176E+04  0.10742162111E+03  0.11464068081E+04  0.15294330000E+03 0.  0.
<mgrwt>
<rscale>  0 0.12648152E+04</rscale>
<asrwt>0</asrwt>
<pdfrwt beam="1">  1        2 0.36529637E+00 0.13088650E+04</pdfrwt>
<pdfrwt beam="2">  1       -2 0.13196957E+00 0.13088650E+04</pdfrwt>
<totfact> 0.16602791E+00</totfact>
</mgrwt>
</event>
<event>
 4    5  0.2409888E-007  0.7062011E+03  0.7818608E-02  0.9972388E-01
          2   -1    0    0  501    0  0.00000000000E+00  0.00000000000E+00  0.39700653465E+03  0.39700653466E+03  0.25500000000E-02 0. -1.
         -2   -1    0    0    0  501 -0.00000000000E+00 -0.00000000000E+00 -0.97812477589E+03  0.97812477590E+03  0.25500000000E-02 0.  1.
    8880023    1    1    2    0    0  0.13293609724E+03  0.21734250654E+03  0.17932439346E+02  0.70642872942E+03  0.65864270000E+03 0.  0.
    8880022    1    1    2    0    0 -0.13293609724E+03 -0.21734250654E+03 -0.59905068059E+03  0.66870258114E+03  0.15294330000E+03 0.  0.
<mgrwt>
<rscale>  0 0.56877729E+03</rscale>
<asrwt>0</asrwt>
<pdfrwt beam="1">  1        2 0.61077929E-01 0.70620109E+03</pdfrwt>
<pdfrwt beam="2">  1       -2 0.15048073E+00 0.70620109E+03</pdfrwt>
<totfact> 0.24217949E+01</totfact>
</mgrwt>
</event>
<event>
 4    5  0.2409888E-007  0.7082731E+03  0.7818608E-02  0.9964470E-01
         -2   -1    0    0    0  501 -0.00000000000E+00  0.00000000000E+00  0.14282965903E+03  0.14282965905E+03  0.25500000000E-02 0.  1.
          2   -1    0    0  501    0  0.00000000000E+00 -0.00000000000E+00 -0.24330239591E+04  0.24330239591E+04  0.25500000000E-02 0. -1.
    8880023    1    1    2    0    0  0.25721098202E+03  0.41026152317E+02 -0.21063827064E+04  0.22222733735E+04  0.65864270000E+03 0.  0.
    8880022    1    1    2    0    0 -0.25721098202E+03 -0.41026152317E+02 -0.18381159370E+03  0.35358024470E+03  0.15294330000E+03 0.  0.
<mgrwt>
<rscale>  0 0.57235983E+03</rscale>
<asrwt>0</asrwt>
<pdfrwt beam="1">  1        2 0.37431135E+00 0.70827314E+03</pdfrwt>
<pdfrwt beam="2">  1       -2 0.21973796E-01 0.70827314E+03</pdfrwt>
<totfact> 0.71725820E+01</totfact>
</mgrwt>
</event>
<event>
 4    5  0.2409888E-007  0.1509993E+04  0.7818608E-02  0.8902612E-01
         -2   -1    0    0    0  501 -0.00000000000E+00  0.00000000000E+00  0.16391963614E+04  0.16391963614E+04  0.25500000000E-02 0.  1.
          2   -1    0    0  501    0  0.00000000000E+00 -0.00000000000E+00 -0.23973700178E+04  0.23973700178E+04  0.25500000000E-02 0. -1.
    8880023    1    1    2    0    0 -0.13095934624E+04  0.36226071637E+03 -0.17766083765E+04  0.23316121876E+04  0.65864270000E+03 0.  0.
    8880022    1    1    2    0    0  0.13095934624E+04 -0.36226071637E+03  0.10184347201E+04  0.17049541917E+04  0.15294330000E+03 0.  0.
<mgrwt>
<rscale>  0 0.14729956E+04</rscale>
<asrwt>0</asrwt>
<pdfrwt beam="1">  1        2 0.36882616E+00 0.15099927E+04</pdfrwt>
<pdfrwt beam="2">  1       -2 0.25218406E+00 0.15099927E+04</pdfrwt>
<totfact> 0.23273836E-01</totfact>
</mgrwt>
</event>
<event>
 4    5  0.2409888E-007  0.7389704E+03  0.7818608E-02  0.9862956E-01
         -2   -1    0    0    0  501 -0.00000000000E+00  0.00000000000E+00  0.21295084157E+03  0.21295084158E+03  0.25500000000E-02 0.  1.
          2   -1    0    0  501    0  0.00000000000E+00 -0.00000000000E+00 -0.32997696312E+04  0.32997696312E+04  0.25500000000E-02 0. -1.
    8880023    1    1    2    0    0 -0.17926438151E+03 -0.28307488695E+03 -0.30549163039E+04  0.31430225803E+04  0.65864270000E+03 0.  0.
    8880022    1    1    2    0    0  0.17926438151E+03  0.28307488695E+03 -0.31902485722E+02  0.36969789249E+03  0.15294330000E+03 0.  0.
<mgrwt>
<rscale>  0 0.62090661E+03</rscale>
<asrwt>0</asrwt>
<pdfrwt beam="1">  1        2 0.50765683E+00 0.73897044E+03</pdfrwt>
<pdfrwt beam="2">  1       -2 0.32761670E-01 0.73897044E+03</pdfrwt>
<totfact> 0.10403655E+01</totfact>
</mgrwt>
</event>
<event>
 4    5  0.2409888E-007  0.1397473E+04  0.7818608E-02  0.8985649E-01
          2   -1    0    0  501    0  0.00000000000E+00  0.00000000000E+00  0.12341422815E+04  0.12341422815E+04  0.25500000000E-02 0. -1.
         -2   -1    0    0    0  501 -0.00000000000E+00 -0.00000000000E+00 -0.25927827025E+04  0.25927827025E+04  0.25500000000E-02 0.  1.
    8880023    1    1    2    0    0 -0.82507154406E+03 -0.91562978348E+03  0.58937359788E+03  0.15166714863E+04  0.65864270000E+03 0.  0.
    8880022    1    1    2    0    0  0.82507154406E+03  0.91562978348E+03 -0.19480140189E+04  0.23102534978E+04  0.15294330000E+03 0.  0.
<mgrwt>
<rscale>  0 0.13568636E+04</rscale>
<asrwt>0</asrwt>
<pdfrwt beam="1">  1        2 0.18986804E+00 0.13974731E+04</pdfrwt>
<pdfrwt beam="2">  1       -2 0.39888964E+00 0.13974731E+04</pdfrwt>
<totfact> 0.13066546E-01</totfact>
</mgrwt>
</event>
<event>
 4    5  0.2409888E-007  0.9323971E+03  0.7818608E-02  0.9475906E-01
          2   -1    0    0  501    0  0.00000000000E+00  0.00000000000E+00  0.15461060169E+04  0.15461060169E+04  0.25500000000E-02 0. -1.
         -2   -1    0    0    0  501 -0.00000000000E+00 -0.00000000000E+00 -0.75263874601E+03  0.75263874602E+03  0.25500000000E-02 0.  1.
    8880023    1    1    2    0    0 -0.33419571394E+03  0.56909345302E+03  0.11915431516E+04  0.15129902253E+04  0.65864270000E+03 0.  0.
    8880022    1    1    2    0    0  0.33419571394E+03 -0.56909345302E+03 -0.39807588075E+03  0.78575453758E+03  0.15294330000E+03 0.  0.
<mgrwt>
<rscale>  0 0.86083686E+03</rscale>
<asrwt>0</asrwt>
<pdfrwt beam="1">  1        2 0.23786246E+00 0.93239709E+03</pdfrwt>
<pdfrwt beam="2">  1       -2 0.11579058E+00 0.93239709E+03</pdfrwt>
<totfact> 0.69475405E+00</totfact>
</mgrwt>
</event>
<event>
 4    5  0.2409888E-007  0.7351176E+03  0.7818608E-02  0.9874404E-01
         -2   -1    0    0    0  501 -0.00000000000E+00  0.00000000000E+00  0.87886931443E+03  0.87886931443E+03  0.25500000000E-02 0.  1.
          2   -1    0    0  501    0  0.00000000000E+00 -0.00000000000E+00 -0.18051112875E+04  0.18051112875E+04  0.25500000000E-02 0. -1.
    8880023    1    1    2    0    0  0.32630277608E+03 -0.10684664241E+02 -0.16880490970E+04  0.18411701779E+04  0.65864270000E+03 0. -1.
    8880022    1    1    2    0    0 -0.32630277608E+03  0.10684664241E+02  0.76180712396E+03  0.84281042403E+03  0.15294330000E+03 0.  0.
<mgrwt>
<rscale>  0 0.61517955E+03</rscale>
<asrwt>0</asrwt>
<pdfrwt beam="1">  1        2 0.27770943E+00 0.73511759E+03</pdfrwt>
<pdfrwt beam="2">  1       -2 0.13521066E+00 0.73511759E+03</pdfrwt>
<totfact> 0.34859404E+00</totfact>
</mgrwt>
</event>
<event>
 4    5  0.2409888E-007  0.7918181E+03  0.7818608E-02  0.9728774E-01
         -2   -1    0    0    0  501 -0.00000000000E+00  0.00000000000E+00  0.82658484352E+03  0.82658484353E+03  0.25500000000E-02 0.  1.
          2   -1    0    0  501    0  0.00000000000E+00 -0.00000000000E+00 -0.28642011210E+04  0.28642011210E+04  0.25500000000E-02 0. -1.
    8880023    1    1    2    0    0 -0.31554825678E+03 -0.30593289629E+03 -0.27378329001E+04  0.28500359357E+04  0.65864270000E+03 0.  0.
    8880022    1    1    2    0    0  0.31554825678E+03  0.30593289629E+03  0.70021662264E+03  0.84075002886E+03  0.15294330000E+03 0.  1.
<mgrwt>
<rscale>  0 0.69329115E+03</rscale>
<asrwt>0</asrwt>
<pdfrwt beam="1">  1        2 0.44064632E+00 0.79181806E+03</pdfrwt>
<pdfrwt beam="2">  1       -2 0.12716690E+00 0.79181806E+03</pdfrwt>
<totfact> 0.10228613E+00</totfact>
</mgrwt>
</event>
<event>
 4    5  0.2409888E-007  0.1154393E+04  0.7818608E-02  0.9202783E-01
          2   -1    0    0  501    0  0.00000000000E+00  0.00000000000E+00  0.20373733667E+04  0.20373733667E+04  0.25500000000E-02 0. -1.
         -2   -1    0    0    0  501 -0.00000000000E+00 -0.00000000000E+00 -0.75626876115E+03  0.75626876116E+03  0.25500000000E-02 0.  1.
    8880023    1    1    2    0    0  0.88136488447E+03  0.34929653585E+03  0.14126761422E+04  0.18243563847E+04  0.65864270000E+03 0.  0.
    8880022    1    1    2    0    0 -0.88136488447E+03 -0.34929653585E+03 -0.13157153665E+03  0.96928574312E+03  0.15294330000E+03 0.  0.
<mgrwt>
<rscale>  0 0.11024744E+04</rscale>
<asrwt>0</asrwt>
<pdfrwt beam="1">  1        2 0.31344205E+00 0.11543926E+04</pdfrwt>
<pdfrwt beam="2">  1       -2 0.11634904E+00 0.11543926E+04</pdfrwt>
<totfact> 0.35830848E+00</totfact>
</mgrwt>
</event>
<event>
 4    5  0.2409888E-007  0.1379507E+04  0.7818608E-02  0.8999772E-01
         -2   -1    0    0    0  501 -0.00000000000E+00  0.00000000000E+00  0.12889594407E+04  0.12889594407E+04  0.25500000000E-02 0.  1.
          2   -1    0    0  501    0  0.00000000000E+00 -0.00000000000E+00 -0.17484325580E+04  0.17484325580E+04  0.25500000000E-02 0. -1.
    8880023    1    1    2    0    0  0.68580162144E+02  0.12101764501E+04 -0.99757654046E+03  0.17024098917E+04  0.65864270000E+03 0.  0.
    8880022    1    1    2    0    0 -0.68580162144E+02 -0.12101764501E+04  0.53810342314E+03  0.13349821070E+04  0.15294330000E+03 0.  0.
<mgrwt>
<rscale>  0 0.13382484E+04</rscale>
<asrwt>0</asrwt>
<pdfrwt beam="1">  1        2 0.26898963E+00 0.13795073E+04</pdfrwt>
<pdfrwt beam="2">  1       -2 0.19830145E+00 0.13795073E+04</pdfrwt>
<totfact> 0.11969713E+00</totfact>
</mgrwt>
</event>
<event>
 4    5  0.2409888E-007  0.1089670E+04  0.7818608E-02  0.9272645E-01
         -2   -1    0    0    0  501 -0.00000000000E+00  0.00000000000E+00  0.29183750742E+04  0.29183750742E+04  0.25500000000E-02 0.  1.
          2   -1    0    0  501    0  0.00000000000E+00 -0.00000000000E+00 -0.47447480294E+03  0.47447480295E+03  0.25500000000E-02 0. -1.
    8880023    1    1    2    0    0 -0.73546192470E+03  0.46115854411E+03  0.38925222317E+03  0.11571080092E+04  0.65864270000E+03 0. -1.
    8880022    1    1    2    0    0  0.73546192470E+03 -0.46115854411E+03  0.20546480481E+04  0.22357418679E+04  0.15294330000E+03 0.  1.
<mgrwt>
<rscale>  0 0.10334071E+04</rscale>
<asrwt>0</asrwt>
<pdfrwt beam="1">  1        2 0.72996122E-01 0.10896704E+04</pdfrwt>
<pdfrwt beam="2">  1       -2 0.44898079E+00 0.10896704E+04</pdfrwt>
<totfact> 0.23256990E-01</totfact>
</mgrwt>
</event>
<event>
 4    5  0.2409888E-007  0.7477962E+03  0.7818608E-02  0.9837793E-01
          2   -1    0    0  501    0  0.00000000000E+00  0.00000000000E+00  0.45166301585E+03  0.45166301585E+03  0.25500000000E-02 0. -1.
         -2   -1    0    0    0  501 -0.00000000000E+00 -0.00000000000E+00 -0.10905314778E+04  0.10905314778E+04  0.25500000000E-02 0.  1.
    8880023    1    1    2    0    0 -0.30922906212E+03  0.17252921158E+03  0.53420468518E+02  0.74970187037E+03  0.65864270000E+03 0.  0.
    8880022    1    1    2    0    0  0.30922906212E+03 -0.17252921158E+03 -0.69228893050E+03  0.79249262332E+03  0.15294330000E+03 0.  1.
<mgrwt>
<rscale>  0 0.63373213E+03</rscale>
<asrwt>0</asrwt>
<pdfrwt beam="1">  1        2 0.69486618E-01 0.74779619E+03</pdfrwt>
<pdfrwt beam="2">  1       -2 0.16777407E+00 0.74779619E+03</pdfrwt>
<totfact> 0.15541783E+01</totfact>
</mgrwt>
</event>
<event>
 4    5  0.2409888E-007  0.1396894E+04  0.7818608E-02  0.8986100E-01
         -2   -1    0    0    0  501 -0.00000000000E+00  0.00000000000E+00  0.12987502487E+04  0.12987502487E+04  0.25500000000E-02 0.  1.
          2   -1    0    0  501    0  0.00000000000E+00 -0.00000000000E+00 -0.15987032218E+04  0.15987032218E+04  0.25500000000E-02 0. -1.
    8880023    1    1    2    0    0 -0.11720080203E+04  0.37934026260E+03 -0.73955273904E+03  0.15805854278E+04  0.65864270000E+03 0.  0.
    8880022    1    1    2    0    0  0.11720080203E+04 -0.37934026260E+03  0.43959976596E+03  0.13168680426E+04  0.15294330000E+03 0.  0.
<mgrwt>
<rscale>  0 0.13562636E+04</rscale>
<asrwt>0</asrwt>
<pdfrwt beam="1">  1        2 0.24595434E+00 0.13968937E+04</pdfrwt>
<pdfrwt beam="2">  1       -2 0.19980773E+00 0.13968937E+04</pdfrwt>
<totfact> 0.14162549E+00</totfact>
</mgrwt>
</event>
<event>
 4    5  0.2409888E-007  0.8868498E+03  0.7818608E-02  0.9547480E-01
          2   -1    0    0  501    0  0.00000000000E+00  0.00000000000E+00  0.10524266050E+04  0.10524266051E+04  0.25500000000E-02 0. -1.
         -2   -1    0    0    0  501 -0.00000000000E+00 -0.00000000000E+00 -0.27882303845E+04  0.27882303845E+04  0.25500000000E-02 0.  1.
    8880023    1    1    2    0    0  0.16473728713E+03 -0.57057343662E+03  0.82269858453E+03  0.12096840859E+04  0.65864270000E+03 0. -1.
    8880022    1    1    2    0    0 -0.16473728713E+03  0.57057343662E+03 -0.25585023639E+04  0.26309729036E+04  0.15294330000E+03 0.  0.
<mgrwt>
<rscale>  0 0.80872000E+03</rscale>
<asrwt>0</asrwt>
<pdfrwt beam="1">  1        2 0.16191179E+00 0.88684983E+03</pdfrwt>
<pdfrwt beam="2">  1       -2 0.42895852E+00 0.88684983E+03</pdfrwt>
<totfact> 0.11607432E-01</totfact>
</mgrwt>
</event>
<event>
 4    5  0.2409888E-007  0.1663605E+04  0.7818608E-02  0.8801991E-01
         -2   -1    0    0    0  501 -0.00000000000E+00  0.00000000000E+00  0.11609045023E+04  0.11609045023E+04  0.25500000000E-02 0.  1.
          2   -1    0    0  501    0  0.00000000000E+00 -0.00000000000E+00 -0.23797622275E+04  0.23797622275E+04  0.25500000000E-02 0. -1.
    8880023    1    1    2    0    0  0.84332967317E+03  0.12738006358E+04 -0.15086255220E+03  0.16704318943E+04  0.65864270000E+03 0.  0.
    8880022    1    1    2    0    0 -0.84332967317E+03 -0.12738006358E+04 -0.10679951730E+04  0.18702348355E+04  0.15294330000E+03 0.  0.
<mgrwt>
<rscale>  0 0.16305589E+04</rscale>
<asrwt>0</asrwt>
<pdfrwt beam="1">  1        2 0.36611727E+00 0.16636055E+04</pdfrwt>
<pdfrwt beam="2">  1       -2 0.17860069E+00 0.16636055E+04</pdfrwt>
<totfact> 0.70115306E-01</totfact>
</mgrwt>
</event>
<event>
 4    5  0.2409888E-007  0.1148965E+04  0.7818608E-02  0.9208403E-01
          2   -1    0    0  501    0  0.00000000000E+00  0.00000000000E+00  0.87900185761E+03  0.87900185761E+03  0.25500000000E-02 0. -1.
         -2   -1    0    0    0  501 -0.00000000000E+00 -0.00000000000E+00 -0.14220244294E+04  0.14220244294E+04  0.25500000000E-02 0.  1.
    8880023    1    1    2    0    0  0.85259577870E+03  0.39923735273E+03 -0.68358721548E+03  0.13369411779E+04  0.65864270000E+03 0.  0.
    8880022    1    1    2    0    0 -0.85259577870E+03 -0.39923735273E+03  0.14056464366E+03  0.96408510917E+03  0.15294330000E+03 0.  0.
<mgrwt>
<rscale>  0 0.10967116E+04</rscale>
<asrwt>0</asrwt>
<pdfrwt beam="1">  1        2 0.13523105E+00 0.11489649E+04</pdfrwt>
<pdfrwt beam="2">  1       -2 0.21877299E+00 0.11489649E+04</pdfrwt>
<totfact> 0.29848379E+00</totfact>
</mgrwt>
</event>
<event>
 4    5  0.2409888E-007  0.6667656E+03  0.7818608E-02  0.1018096E+00
          2   -1    0    0  501    0  0.00000000000E+00  0.00000000000E+00  0.16199671943E+04  0.16199671943E+04  0.25500000000E-02 0. -1.
         -2   -1    0    0    0  501 -0.00000000000E+00 -0.00000000000E+00 -0.25203681237E+03  0.25203681238E+03  0.25500000000E-02 0.  1.
    8880023    1    1    2    0    0  0.10064857936E+03  0.25218595581E+02  0.15022227670E+04  0.16435478582E+04  0.65864270000E+03 0. -1.
    8880022    1    1    2    0    0 -0.10064857936E+03 -0.25218595581E+02 -0.13429238508E+03  0.22845614852E+03  0.15294330000E+03 0.  0.
<mgrwt>
<rscale>  0 0.48380021E+03</rscale>
<asrwt>0</asrwt>
<pdfrwt beam="1">  1        2 0.24922571E+00 0.66676557E+03</pdfrwt>
<pdfrwt beam="2">  1       -2 0.38774895E-01 0.66676557E+03</pdfrwt>
<totfact> 0.70431775E+01</totfact>
</mgrwt>
</event>
<event>
 4    5  0.2409888E-007  0.8092819E+03  0.7818608E-02  0.9691075E-01
         -2   -1    0    0    0  501 -0.00000000000E+00  0.00000000000E+00  0.79817980686E+03  0.79817980687E+03  0.25500000000E-02 0.  1.
          2   -1    0    0  501    0  0.00000000000E+00 -0.00000000000E+00 -0.76663060277E+03  0.76663060278E+03  0.25500000000E-02 0. -1.
    8880023    1    1    2    0    0  0.19080722975E+03 -0.42979010186E+03 -0.40520616277E+03  0.90505755131E+03  0.65864270000E+03 0. -1.
    8880022    1    1    2    0    0 -0.19080722975E+03  0.42979010186E+03  0.43675536686E+03  0.65975285833E+03  0.15294330000E+03 0.  0.
<mgrwt>
<rscale>  0 0.71550692E+03</rscale>
<asrwt>0</asrwt>
<pdfrwt beam="1">  1        2 0.11794317E+00 0.80928186E+03</pdfrwt>
<pdfrwt beam="2">  1       -2 0.12279689E+00 0.80928186E+03</pdfrwt>
<totfact> 0.18430666E+01</totfact>
</mgrwt>
</event>
<event>
 4    5  0.2409888E-007  0.9176444E+03  0.7818608E-02  0.9498280E-01
          2   -1    0    0  501    0  0.00000000000E+00  0.00000000000E+00  0.72284389723E+03  0.72284389723E+03  0.25500000000E-02 0. -1.
         -2   -1    0    0    0  501 -0.00000000000E+00 -0.00000000000E+00 -0.24828840756E+04  0.24828840756E+04  0.25500000000E-02 0.  1.
    8880023    1    1    2    0    0 -0.14145075835E+03 -0.62309934344E+03  0.36036682746E+03  0.98586792494E+03  0.65864270000E+03 0.  0.
    8880022    1    1    2    0    0  0.14145075835E+03  0.62309934344E+03 -0.21204070059E+04  0.22198600479E+04  0.15294330000E+03 0.  0.
<mgrwt>
<rscale>  0 0.84410727E+03</rscale>
<asrwt>0</asrwt>
<pdfrwt beam="1">  1        2 0.11120675E+00 0.91764444E+03</pdfrwt>
<pdfrwt beam="2">  1       -2 0.38198216E+00 0.91764444E+03</pdfrwt>
<totfact> 0.39380171E-01</totfact>
</mgrwt>
</event>
<event>
 4    5  0.2409888E-007  0.9001845E+03  0.7818608E-02  0.9525736E-01
          2   -1    0    0  501    0  0.00000000000E+00  0.00000000000E+00  0.19958302485E+04  0.19958302485E+04  0.25500000000E-02 0. -1.
         -2   -1    0    0    0  501 -0.00000000000E+00 -0.00000000000E+00 -0.34046157407E+03  0.34046157408E+03  0.25500000000E-02 0.  1.
    8880023    1    1    2    0    0 -0.82878996342E+02 -0.60799090085E+03  0.13774971237E+04  0.16455486610E+04  0.65864270000E+03 0. -1.
    8880022    1    1    2    0    0  0.82878996342E+02  0.60799090085E+03  0.27787155065E+03  0.69074316155E+03  0.15294330000E+03 0.  1.
<mgrwt>
<rscale>  0 0.82412748E+03</rscale>
<asrwt>0</asrwt>
<pdfrwt beam="1">  1        2 0.30705080E+00 0.90018446E+03</pdfrwt>
<pdfrwt beam="2">  1       -2 0.52378705E-01 0.90018446E+03</pdfrwt>
<totfact> 0.23442030E+01</totfact>
</mgrwt>
</event>
<event>
 4    5  0.2409888E-007  0.9988228E+03  0.7818608E-02  0.9383099E-01
          2   -1    0    0  501    0  0.00000000000E+00  0.00000000000E+00  0.64246357865E+03  0.64246357866E+03  0.25500000000E-02 0. -1.
         -2   -1    0    0    0  501 -0.00000000000E+00 -0.00000000000E+00 -0.14239570276E+04  0.14239570276E+04  0.25500000000E-02 0.  1.
    8880023    1    1    2    0    0  0.34334391157E+03  0.66779613947E+03 -0.39274268973E+02  0.99959461782E+03  0.65864270000E+03 0.  0.
    8880022    1    1    2    0    0 -0.34334391157E+03 -0.66779613947E+03 -0.74221917999E+03  0.10668259885E+04  0.15294330000E+03 0. -1.
<mgrwt>
<rscale>  0 0.93479678E+03</rscale>
<asrwt>0</asrwt>
<pdfrwt beam="1">  1        2 0.98840551E-01 0.99882277E+03</pdfrwt>
<pdfrwt beam="2">  1       -2 0.21907031E+00 0.99882277E+03</pdfrwt>
<totfact> 0.45493871E+00</totfact>
</mgrwt>
</event>
<event>
 4    5  0.2409888E-007  0.7481514E+03  0.7818608E-02  0.9836809E-01
          2   -1    0    0  501    0  0.00000000000E+00  0.00000000000E+00  0.26523275572E+04  0.26523275572E+04  0.25500000000E-02 0. -1.
         -2   -1    0    0    0  501 -0.00000000000E+00 -0.00000000000E+00 -0.65295323382E+03  0.65295323383E+03  0.25500000000E-02 0.  1.
    8880023    1    1    2    0    0  0.10909300146E+03 -0.33766698968E+03  0.25359746280E+04  0.26440305972E+04  0.65864270000E+03 0. -1.
    8880022    1    1    2    0    0 -0.10909300146E+03  0.33766698968E+03 -0.53660030462E+03  0.66125019381E+03  0.15294330000E+03 0.  0.
<mgrwt>
<rscale>  0 0.63424043E+03</rscale>
<asrwt>0</asrwt>
<pdfrwt beam="1">  1        2 0.40805041E+00 0.74815138E+03</pdfrwt>
<pdfrwt beam="2">  1       -2 0.10045434E+00 0.74815138E+03</pdfrwt>
<totfact> 0.24452617E+00</totfact>
</mgrwt>
</event>
<event>
 4    5  0.2409888E-007  0.2192619E+04  0.7818608E-02  0.8531741E-01
         -2   -1    0    0    0  501 -0.00000000000E+00  0.00000000000E+00  0.24710337667E+04  0.24710337667E+04  0.25500000000E-02 0.  1.
          2   -1    0    0  501    0  0.00000000000E+00 -0.00000000000E+00 -0.22131571670E+04  0.22131571670E+04  0.25500000000E-02 0. -1.
    8880023    1    1    2    0    0  0.81692458954E+02  0.20897589534E+04  0.10646225712E+04  0.24374161660E+04  0.65864270000E+03 0.  0.
    8880022    1    1    2    0    0 -0.81692458954E+02 -0.20897589534E+04 -0.80674597148E+03  0.22467747677E+04  0.15294330000E+03 0.  0.
<mgrwt>
<rscale>  0 0.21682973E+04</rscale>
<asrwt>0</asrwt>
<pdfrwt beam="1">  1        2 0.34048572E+00 0.21926186E+04</pdfrwt>
<pdfrwt beam="2">  1       -2 0.38015904E+00 0.21926186E+04</pdfrwt>
<totfact> 0.44031395E-02</totfact>
</mgrwt>
</event>
<event>
 4    5  0.2409888E-007  0.1127252E+04  0.7818608E-02  0.9231304E-01
          2   -1    0    0  501    0  0.00000000000E+00  0.00000000000E+00  0.21302963735E+04  0.21302963735E+04  0.25500000000E-02 0. -1.
         -2   -1    0    0    0  501 -0.00000000000E+00 -0.00000000000E+00 -0.12105177149E+04  0.12105177149E+04  0.25500000000E-02 0.  1.
    8880023    1    1    2    0    0  0.91316874280E+03 -0.54863570074E+02  0.17595159527E+04  0.20896396240E+04  0.65864270000E+03 0.  0.
    8880022    1    1    2    0    0 -0.91316874280E+03  0.54863570074E+02 -0.83973729410E+03  0.12511744644E+04  0.15294330000E+03 0.  0.
<mgrwt>
<rscale>  0 0.10736079E+04</rscale>
<asrwt>0</asrwt>
<pdfrwt beam="1">  1        2 0.32773790E+00 0.11272521E+04</pdfrwt>
<pdfrwt beam="2">  1       -2 0.18623349E+00 0.11272521E+04</pdfrwt>
<totfact> 0.91170870E-01</totfact>
</mgrwt>
</event>
<event>
 4    5  0.2409888E-007  0.1481146E+04  0.7818608E-02  0.8923065E-01
          2   -1    0    0  501    0  0.00000000000E+00  0.00000000000E+00  0.19878173374E+04  0.19878173374E+04  0.25500000000E-02 0. -1.
         -2   -1    0    0    0  501 -0.00000000000E+00 -0.00000000000E+00 -0.18025238322E+04  0.18025238322E+04  0.25500000000E-02 0.  1.
    8880023    1    1    2    0    0 -0.13251557063E+04 -0.62815259313E+02  0.13607122264E+04  0.20113009154E+04  0.65864270000E+03 0.  0.
    8880022    1    1    2    0    0  0.13251557063E+04  0.62815259313E+02 -0.11754187213E+04  0.17790402542E+04  0.15294330000E+03 0.  0.
<mgrwt>
<rscale>  0 0.14432905E+04</rscale>
<asrwt>0</asrwt>
<pdfrwt beam="1">  1        2 0.30581805E+00 0.14811460E+04</pdfrwt>
<pdfrwt beam="2">  1       -2 0.27731136E+00 0.14811460E+04</pdfrwt>
<totfact> 0.27889537E-01</totfact>
</mgrwt>
</event>
<event>
 4    5  0.2409888E-007  0.1521379E+04  0.7818608E-02  0.8894685E-01
         -2   -1    0    0    0  501 -0.00000000000E+00  0.00000000000E+00  0.74690777464E+03  0.74690777464E+03  0.25500000000E-02 0.  1.
          2   -1    0    0  501    0  0.00000000000E+00 -0.00000000000E+00 -0.37411952667E+04  0.37411952667E+04  0.25500000000E-02 0. -1.
    8880023    1    1    2    0    0 -0.11988778462E+04 -0.66593879826E+03 -0.43804607027E+03  0.15831857563E+04  0.65864270000E+03 0.  0.
    8880022    1    1    2    0    0  0.11988778462E+04  0.66593879826E+03 -0.25562414218E+04  0.29049172850E+04  0.15294330000E+03 0.  0.
<mgrwt>
<rscale>  0 0.14847089E+04</rscale>
<asrwt>0</asrwt>
<pdfrwt beam="1">  1        2 0.57556849E+00 0.15213786E+04</pdfrwt>
<pdfrwt beam="2">  1       -2 0.11490889E+00 0.15213786E+04</pdfrwt>
<totfact> 0.30847111E-01</totfact>
</mgrwt>
</event>
<event>
 4    5  0.2409888E-007  0.6646510E+03  0.7818608E-02  0.1019828E+00
         -2   -1    0    0    0  501 -0.00000000000E+00  0.00000000000E+00  0.82909242381E+02  0.82909242420E+02  0.25500000000E-02 0.  1.
          2   -1    0    0  501    0  0.00000000000E+00 -0.00000000000E+00 -0.29419240468E+04  0.29419240468E+04  0.25500000000E-02 0. -1.
    8880023    1    1    2    0    0  0.73473476171E+02 -0.50520963476E+02 -0.27191782061E+04  0.27992304375E+04  0.65864270000E+03 0.  0.
    8880022    1    1    2    0    0 -0.73473476171E+02  0.50520963476E+02 -0.13983659827E+03  0.22560285167E+03  0.15294330000E+03 0.  0.
<mgrwt>
<rscale>  0 0.47748719E+03</rscale>
<asrwt>0</asrwt>
<pdfrwt beam="1">  1        2 0.45260362E+00 0.66465098E+03</pdfrwt>
<pdfrwt beam="2">  1       -2 0.12755270E-01 0.66465098E+03</pdfrwt>
<totfact> 0.92730569E+01</totfact>
</mgrwt>
</event>
<event>
 4    5  0.2409888E-007  0.7076756E+03  0.7818608E-02  0.9966736E-01
          2   -1    0    0  501    0  0.00000000000E+00  0.00000000000E+00  0.23453597469E+04  0.23453597469E+04  0.25500000000E-02 0. -1.
         -2   -1    0    0    0  501 -0.00000000000E+00 -0.00000000000E+00 -0.73745043459E+03  0.73745043460E+03  0.25500000000E-02 0.  1.
    8880023    1    1    2    0    0  0.67379713430E+02 -0.24990899378E+03  0.22581442698E+04  0.23664361982E+04  0.65864270000E+03 0. -1.
    8880022    1    1    2    0    0 -0.67379713430E+02  0.24990899378E+03 -0.65023495747E+03  0.71637398325E+03  0.15294330000E+03 0.  0.
<mgrwt>
<rscale>  0 0.57133183E+03</rscale>
<asrwt>0</asrwt>
<pdfrwt beam="1">  1        2 0.36082457E+00 0.70767559E+03</pdfrwt>
<pdfrwt beam="2">  1       -2 0.11345391E+00 0.70767559E+03</pdfrwt>
<totfact> 0.27453967E+00</totfact>
</mgrwt>
</event>
<event>
 4    5  0.3067258E-007  0.1216833E+04  0.7818608E-02  0.9140930E-01
         -2   -1    0    0    0  501 -0.00000000000E+00  0.00000000000E+00  0.17353159074E+04  0.17353159074E+04  0.25500000000E-02 0.  1.
          2   -1    0    0  501    0  0.00000000000E+00 -0.00000000000E+00 -0.17403237502E+04  0.17403237502E+04  0.25500000000E-02 0. -1.
    8880023    1    1    2    0    0  0.67971722610E+03 -0.76475994565E+03 -0.13247186713E+04  0.17987670906E+04  0.65864270000E+03 0.  0.
    8880022    1    1    2    0    0 -0.67971722610E+03  0.76475994565E+03  0.13197108285E+04  0.16768725670E+04  0.15294330000E+03 0.  0.
<mgrwt>
<rscale>  0 0.11684490E+04</rscale>
<asrwt>0</asrwt>
<pdfrwt beam="1">  1        2 0.26774211E+00 0.12168334E+04</pdfrwt>
<pdfrwt beam="2">  1       -2 0.26697168E+00 0.12168334E+04</pdfrwt>
<totfact> 0.45729338E-01</totfact>
</mgrwt>
</event>
<event>
 4    5  0.2409888E-007  0.7367868E+03  0.7818608E-02  0.9869408E-01
          2   -1    0    0  501    0  0.00000000000E+00  0.00000000000E+00  0.19362817192E+04  0.19362817192E+04  0.25500000000E-02 0. -1.
         -2   -1    0    0    0  501 -0.00000000000E+00 -0.00000000000E+00 -0.40918160703E+03  0.40918160704E+03  0.25500000000E-02 0.  1.
    8880023    1    1    2    0    0  0.31855248817E+03 -0.86998973442E+02  0.17636887486E+04  0.19114007213E+04  0.65864270000E+03 0. -1.
    8880022    1    1    2    0    0 -0.31855248817E+03  0.86998973442E+02 -0.23658863645E+03  0.43406260494E+03  0.15294330000E+03 0.  0.
<mgrwt>
<rscale>  0 0.61767095E+03</rscale>
<asrwt>0</asrwt>
<pdfrwt beam="1">  1        2 0.29788949E+00 0.73678675E+03</pdfrwt>
<pdfrwt beam="2">  1       -2 0.62951018E-01 0.73678675E+03</pdfrwt>
<totfact> 0.17542819E+01</totfact>
</mgrwt>
</event>
<event>
 4    5  0.2409888E-007  0.1144481E+04  0.7818608E-02  0.9213077E-01
         -2   -1    0    0    0  501 -0.00000000000E+00  0.00000000000E+00  0.97538717324E+03  0.97538717324E+03  0.25500000000E-02 0.  1.
          2   -1    0    0  501    0  0.00000000000E+00 -0.00000000000E+00 -0.13298877927E+04  0.13298877927E+04  0.25500000000E-02 0. -1.
    8880023    1    1    2    0    0 -0.14878818225E+03 -0.92406046847E+03 -0.64459690928E+03  0.13135223844E+04  0.65864270000E+03 0.  0.
    8880022    1    1    2    0    0  0.14878818225E+03  0.92406046847E+03  0.29009628985E+03  0.99175258153E+03  0.15294330000E+03 0.  0.
<mgrwt>
<rscale>  0 0.10919468E+04</rscale>
<asrwt>0</asrwt>
<pdfrwt beam="1">  1        2 0.20459812E+00 0.11444806E+04</pdfrwt>
<pdfrwt beam="2">  1       -2 0.15005957E+00 0.11444806E+04</pdfrwt>
<totfact> 0.46462245E+00</totfact>
</mgrwt>
</event>
<event>
 4    5  0.2409888E-007  0.6916333E+03  0.7818608E-02  0.1003386E+00
         -2   -1    0    0    0  501 -0.00000000000E+00  0.00000000000E+00  0.12476423110E+04  0.12476423110E+04  0.25500000000E-02 0.  1.
          2   -1    0    0  501    0  0.00000000000E+00 -0.00000000000E+00 -0.28429310906E+03  0.28429310907E+03  0.25500000000E-02 0. -1.
    8880023    1    1    2    0    0 -0.14626447993E+03 -0.15216130605E+03  0.19207467607E+03  0.71780864344E+03  0.65864270000E+03 0. -1.
    8880022    1    1    2    0    0  0.14626447993E+03  0.15216130605E+03  0.77127452587E+03  0.81412677662E+03  0.15294330000E+03 0.  0.
<mgrwt>
<rscale>  0 0.54190232E+03</rscale>
<asrwt>0</asrwt>
<pdfrwt beam="1">  1        2 0.43737402E-01 0.69163326E+03</pdfrwt>
<pdfrwt beam="2">  1       -2 0.19194497E+00 0.69163326E+03</pdfrwt>
<totfact> 0.17909345E+01</totfact>
</mgrwt>
</event>
<event>
 4    5  0.2409888E-007  0.1450850E+04  0.7818608E-02  0.8945146E-01
          2   -1    0    0  501    0  0.00000000000E+00  0.00000000000E+00  0.24303881770E+04  0.24303881770E+04  0.25500000000E-02 0. -1.
         -2   -1    0    0    0  501 -0.00000000000E+00 -0.00000000000E+00 -0.14062692305E+04  0.14062692305E+04  0.25500000000E-02 0.  1.
    8880023    1    1    2    0    0 -0.70786704976E+03  0.10817017055E+04  0.18071979658E+04  0.23175264904E+04  0.65864270000E+03 0.  0.
    8880022    1    1    2    0    0  0.70786704976E+03 -0.10817017055E+04 -0.78307901932E+03  0.15191309171E+04  0.15294330000E+03 0.  0.
<mgrwt>
<rscale>  0 0.14120448E+04</rscale>
<asrwt>0</asrwt>
<pdfrwt beam="1">  1        2 0.37390587E+00 0.14508496E+04</pdfrwt>
<pdfrwt beam="2">  1       -2 0.21634911E+00 0.14508496E+04</pdfrwt>
<totfact> 0.37583329E-01</totfact>
</mgrwt>
</event>
<event>
 4    5  0.2409888E-007  0.1261724E+04  0.7818608E-02  0.9099339E-01
          2   -1    0    0  501    0  0.00000000000E+00  0.00000000000E+00  0.18990223789E+04  0.18990223789E+04  0.25500000000E-02 0. -1.
         -2   -1    0    0    0  501 -0.00000000000E+00 -0.00000000000E+00 -0.13788614141E+04  0.13788614141E+04  0.25500000000E-02 0.  1.
    8880023    1    1    2    0    0 -0.10748096883E+04 -0.54041763516E+02  0.13961912162E+04  0.18818332808E+04  0.65864270000E+03 0.  0.
    8880022    1    1    2    0    0  0.10748096883E+04  0.54041763516E+02 -0.87603025141E+03  0.13960505122E+04  0.15294330000E+03 0.  0.
<mgrwt>
<rscale>  0 0.12155664E+04</rscale>
<asrwt>0</asrwt>
<pdfrwt beam="1">  1        2 0.29215729E+00 0.12617237E+04</pdfrwt>
<pdfrwt beam="2">  1       -2 0.21213253E+00 0.12617237E+04</pdfrwt>
<totfact> 0.81280179E-01</totfact>
</mgrwt>
</event>
<event>
 4    5  0.2409888E-007  0.1781570E+04  0.7818608E-02  0.8732800E-01
         -2   -1    0    0    0  501 -0.00000000000E+00  0.00000000000E+00  0.29392901151E+04  0.29392901151E+04  0.25500000000E-02 0.  1.
          2   -1    0    0  501    0  0.00000000000E+00 -0.00000000000E+00 -0.22220629304E+04  0.22220629304E+04  0.25500000000E-02 0. -1.
    8880023    1    1    2    0    0 -0.10604067198E+04 -0.12711097151E+04 -0.15421354302E+04  0.23563052032E+04  0.65864270000E+03 0. -1.
    8880022    1    1    2    0    0  0.10604067198E+04  0.12711097151E+04  0.22593626149E+04  0.28050478424E+04  0.15294330000E+03 0.  0.
<mgrwt>
<rscale>  0 0.17509998E+04</rscale>
<asrwt>0</asrwt>
<pdfrwt beam="1">  1        2 0.34185584E+00 0.17815702E+04</pdfrwt>
<pdfrwt beam="2">  1       -2 0.45219848E+00 0.17815702E+04</pdfrwt>
<totfact> 0.15201065E-02</totfact>
</mgrwt>
</event>
<event>
 4    5  0.2409888E-007  0.7188472E+03  0.7818608E-02  0.9926506E-01
         -2   -1    0    0    0  501 -0.00000000000E+00  0.00000000000E+00  0.50898953559E+03  0.50898953559E+03  0.25500000000E-02 0.  1.
          2   -1    0    0  501    0  0.00000000000E+00 -0.00000000000E+00 -0.68781900860E+03  0.68781900860E+03  0.25500000000E-02 0. -1.
    8880023    1    1    2    0    0  0.14629368715E+02 -0.28760573200E+03 -0.38057162573E+03  0.81337325016E+03  0.65864270000E+03 0.  0.
    8880022    1    1    2    0    0 -0.14629368715E+02  0.28760573200E+03  0.20174215272E+03  0.38343529403E+03  0.15294330000E+03 0.  0.
<mgrwt>
<rscale>  0 0.58993709E+03</rscale>
<asrwt>0</asrwt>
<pdfrwt beam="1">  1        2 0.10581831E+00 0.71884719E+03</pdfrwt>
<pdfrwt beam="2">  1       -2 0.78306082E-01 0.71884719E+03</pdfrwt>
<totfact> 0.61664795E+01</totfact>
</mgrwt>
</event>
<event>
 4    5  0.2409888E-007  0.1332306E+04  0.7818608E-02  0.9038152E-01
          2   -1    0    0  501    0  0.00000000000E+00  0.00000000000E+00  0.16641599264E+04  0.16641599264E+04  0.25500000000E-02 0. -1.
         -2   -1    0    0    0  501 -0.00000000000E+00 -0.00000000000E+00 -0.94821608132E+03  0.94821608132E+03  0.25500000000E-02 0.  1.
    8880023    1    1    2    0    0  0.86577829707E+03 -0.76919187146E+03  0.50785650137E+03  0.14258178800E+04  0.65864270000E+03 0.  1.
    8880022    1    1    2    0    0 -0.86577829707E+03  0.76919187146E+03  0.20808734373E+03  0.11865581277E+04  0.15294330000E+03 0.  0.
<mgrwt>
<rscale>  0 0.12892269E+04</rscale>
<asrwt>0</asrwt>
<pdfrwt beam="1">  1        2 0.25602460E+00 0.13323057E+04</pdfrwt>
<pdfrwt beam="2">  1       -2 0.14587940E+00 0.13323057E+04</pdfrwt>
<totfact> 0.31801211E+00</totfact>
</mgrwt>
</event>
<event>
 4    5  0.2409888E-007  0.1185753E+04  0.7818608E-02  0.9171097E-01
          2   -1    0    0  501    0  0.00000000000E+00  0.00000000000E+00  0.12788505572E+04  0.12788505572E+04  0.25500000000E-02 0. -1.
         -2   -1    0    0    0  501 -0.00000000000E+00 -0.00000000000E+00 -0.26028883015E+04  0.26028883015E+04  0.25500000000E-02 0.  1.
    8880023    1    1    2    0    0 -0.98388636720E+03 -0.64558377824E+02  0.87052389549E+03  0.14709936188E+04  0.65864270000E+03 0. -1.
    8880022    1    1    2    0    0  0.98388636720E+03  0.64558377824E+02 -0.21945616398E+04  0.24107452399E+04  0.15294330000E+03 0.  0.
<mgrwt>
<rscale>  0 0.11356797E+04</rscale>
<asrwt>0</asrwt>
<pdfrwt beam="1">  1        2 0.19674624E+00 0.11857531E+04</pdfrwt>
<pdfrwt beam="2">  1       -2 0.40044435E+00 0.11857531E+04</pdfrwt>
<totfact> 0.12366822E-01</totfact>
</mgrwt>
</event>
<event>
 4    5  0.2409888E-007  0.1148260E+04  0.7818608E-02  0.9209136E-01
         -2   -1    0    0    0  501 -0.00000000000E+00  0.00000000000E+00  0.83383242821E+03  0.83383242822E+03  0.25500000000E-02 0.  1.
          2   -1    0    0  501    0  0.00000000000E+00 -0.00000000000E+00 -0.18420487741E+04  0.18420487741E+04  0.25500000000E-02 0. -1.
    8880023    1    1    2    0    0 -0.89761002872E+03  0.28104507904E+03  0.16973891798E+03  0.11607375270E+04  0.65864270000E+03 0.  1.
    8880022    1    1    2    0    0  0.89761002872E+03 -0.28104507904E+03 -0.11779552639E+04  0.15151436753E+04  0.15294330000E+03 0.  0.
<mgrwt>
<rscale>  0 0.10959625E+04</rscale>
<asrwt>0</asrwt>
<pdfrwt beam="1">  1        2 0.28339212E+00 0.11482597E+04</pdfrwt>
<pdfrwt beam="2">  1       -2 0.12828191E+00 0.11482597E+04</pdfrwt>
<totfact> 0.35991011E+00</totfact>
</mgrwt>
</event>
<event>
 4    5  0.2409888E-007  0.1234354E+04  0.7818608E-02  0.9124430E-01
         -2   -1    0    0    0  501 -0.00000000000E+00  0.00000000000E+00  0.82503400353E+03  0.82503400353E+03  0.25500000000E-02 0.  1.
          2   -1    0    0  501    0  0.00000000000E+00 -0.00000000000E+00 -0.23062800019E+04  0.23062800019E+04  0.25500000000E-02 0. -1.
    8880023    1    1    2    0    0  0.63405670764E+03 -0.82933200122E+03 -0.16522935367E+04  0.20624508756E+04  0.65864270000E+03 0.  0.
    8880022    1    1    2    0    0 -0.63405670764E+03  0.82933200122E+03  0.17104753837E+03  0.10688631298E+04  0.15294330000E+03 0.  0.
<mgrwt>
<rscale>  0 0.11868668E+04</rscale>
<asrwt>0</asrwt>
<pdfrwt beam="1">  1        2 0.35481231E+00 0.12343540E+04</pdfrwt>
<pdfrwt beam="2">  1       -2 0.12692831E+00 0.12343540E+04</pdfrwt>
<totfact> 0.20206317E+00</totfact>
</mgrwt>
</event>
<event>
 4    5  0.2409888E-007  0.2015744E+04  0.7818608E-02  0.8611738E-01
         -2   -1    0    0    0  501 -0.00000000000E+00  0.00000000000E+00  0.15254264691E+04  0.15254264691E+04  0.25500000000E-02 0.  1.
          2   -1    0    0  501    0  0.00000000000E+00 -0.00000000000E+00 -0.26800504882E+04  0.26800504882E+04  0.25500000000E-02 0. -1.
    8880023    1    1    2    0    0  0.62966348474E+03 -0.17980368869E+04 -0.90045514760E+02  0.20177539869E+04  0.65864270000E+03 0.  0.
    8880022    1    1    2    0    0 -0.62966348474E+03  0.17980368869E+04 -0.10645785044E+04  0.21877229705E+04  0.15294330000E+03 0.  0.
<mgrwt>
<rscale>  0 0.19890917E+04</rscale>
<asrwt>0</asrwt>
<pdfrwt beam="1">  1        2 0.41231546E+00 0.20157438E+04</pdfrwt>
<pdfrwt beam="2">  1       -2 0.23468100E+00 0.20157438E+04</pdfrwt>
<totfact> 0.19400908E-01</totfact>
</mgrwt>
</event>
<event>
 4    5  0.2409888E-007  0.1380856E+04  0.7818608E-02  0.8998702E-01
          2   -1    0    0  501    0  0.00000000000E+00  0.00000000000E+00  0.29507999511E+04  0.29507999511E+04  0.25500000000E-02 0. -1.
         -2   -1    0    0    0  501 -0.00000000000E+00 -0.00000000000E+00 -0.13354757058E+04  0.13354757058E+04  0.25500000000E-02 0.  1.
    8880023    1    1    2    0    0 -0.12008314714E+04 -0.17594813028E+03  0.24451489995E+04  0.28081164155E+04  0.65864270000E+03 0.  0.
    8880022    1    1    2    0    0  0.12008314714E+04  0.17594813028E+03 -0.82982475423E+03  0.14781592414E+04  0.15294330000E+03 0.  0.
<mgrwt>
<rscale>  0 0.13396469E+04</rscale>
<asrwt>0</asrwt>
<pdfrwt beam="1">  1        2 0.45396921E+00 0.13808563E+04</pdfrwt>
<pdfrwt beam="2">  1       -2 0.20545780E+00 0.13808563E+04</pdfrwt>
<totfact> 0.21901194E-01</totfact>
</mgrwt>
</event>
<event>
 4    5  0.2409888E-007  0.8828926E+03  0.7818608E-02  0.9554072E-01
          2   -1    0    0  501    0  0.00000000000E+00  0.00000000000E+00  0.31937625610E+04  0.31937625610E+04  0.25500000000E-02 0. -1.
         -2   -1    0    0    0  501 -0.00000000000E+00 -0.00000000000E+00 -0.19794614032E+03  0.19794614034E+03  0.25500000000E-02 0.  1.
    8880023    1    1    2    0    0  0.11818246147E+03 -0.57595318062E+03  0.11586416528E+04  0.14566914040E+04  0.65864270000E+03 0.  1.
    8880022    1    1    2    0    0 -0.11818246147E+03  0.57595318062E+03  0.18371747679E+04  0.19350172974E+04  0.15294330000E+03 0.  0.
<mgrwt>
<rscale>  0 0.80412043E+03</rscale>
<asrwt>0</asrwt>
<pdfrwt beam="1">  1        2 0.49134807E+00 0.88289261E+03</pdfrwt>
<pdfrwt beam="2">  1       -2 0.30453253E-01 0.88289261E+03</pdfrwt>
<totfact> 0.13628768E+01</totfact>
</mgrwt>
</event>
<event>
 4    5  0.2409888E-007  0.1388349E+04  0.7818608E-02  0.8992790E-01
          2   -1    0    0  501    0  0.00000000000E+00  0.00000000000E+00  0.28627045829E+04  0.28627045829E+04  0.25500000000E-02 0. -1.
         -2   -1    0    0    0  501 -0.00000000000E+00 -0.00000000000E+00 -0.11896539931E+04  0.11896539931E+04  0.25500000000E-02 0.  1.
    8880023    1    1    2    0    0 -0.10298302017E+04 -0.65814223261E+03  0.22875383613E+04  0.26758817992E+04  0.65864270000E+03 0.  0.
    8880022    1    1    2    0    0  0.10298302017E+04  0.65814223261E+03 -0.61448777154E+03  0.13764767768E+04  0.15294330000E+03 0.  0.
<mgrwt>
<rscale>  0 0.13474120E+04</rscale>
<asrwt>0</asrwt>
<pdfrwt beam="1">  1        2 0.44041609E+00 0.13883485E+04</pdfrwt>
<pdfrwt beam="2">  1       -2 0.18302369E+00 0.13883485E+04</pdfrwt>
<totfact> 0.34991007E-01</totfact>
</mgrwt>
</event>
<event>
 4    5  0.2409888E-007  0.6905917E+03  0.7818608E-02  0.1003873E+00
         -2   -1    0    0    0  501 -0.00000000000E+00  0.00000000000E+00  0.20803916103E+04  0.20803916103E+04  0.25500000000E-02 0.  1.
          2   -1    0    0  501    0  0.00000000000E+00 -0.00000000000E+00 -0.24235576075E+03  0.24235576076E+03  0.25500000000E-02 0. -1.
    8880023    1    1    2    0    0 -0.15776795006E+03 -0.13496664225E+03  0.28275865062E+03  0.74623681318E+03  0.65864270000E+03 0. -1.
    8880022    1    1    2    0    0  0.15776795006E+03  0.13496664225E+03  0.15552771989E+04  0.15765105579E+04  0.15294330000E+03 0.  0.
<mgrwt>
<rscale>  0 0.53984291E+03</rscale>
<asrwt>0</asrwt>
<pdfrwt beam="1">  1        2 0.37285503E-01 0.69059172E+03</pdfrwt>
<pdfrwt beam="2">  1       -2 0.32006024E+00 0.69059172E+03</pdfrwt>
<totfact> 0.35099110E+00</totfact>
</mgrwt>
</event>
<event>
 4    5  0.2409888E-007  0.8643094E+03  0.7818608E-02  0.9585943E-01
          2   -1    0    0  501    0  0.00000000000E+00  0.00000000000E+00  0.20063618837E+04  0.20063618837E+04  0.25500000000E-02 0. -1.
         -2   -1    0    0    0  501 -0.00000000000E+00 -0.00000000000E+00 -0.67804366887E+03  0.67804366887E+03  0.25500000000E-02 0.  1.
    8880023    1    1    2    0    0  0.47814409340E+03 -0.29085873147E+03  0.17603156825E+04  0.19610563694E+04  0.65864270000E+03 0.  0.
    8880022    1    1    2    0    0 -0.47814409340E+03  0.29085873147E+03 -0.43199746765E+03  0.72334918317E+03  0.15294330000E+03 0.  1.
<mgrwt>
<rscale>  0 0.78233574E+03</rscale>
<asrwt>0</asrwt>
<pdfrwt beam="1">  1        2 0.30867106E+00 0.86430942E+03</pdfrwt>
<pdfrwt beam="2">  1       -2 0.10431441E+00 0.86430942E+03</pdfrwt>
<totfact> 0.50387931E+00</totfact>
</mgrwt>
</event>
<event>
 4    5  0.2409888E-007  0.1249584E+04  0.7818608E-02  0.9110368E-01
          2   -1    0    0  501    0  0.00000000000E+00  0.00000000000E+00  0.77653007872E+03  0.77653007873E+03  0.25500000000E-02 0. -1.
         -2   -1    0    0    0  501 -0.00000000000E+00 -0.00000000000E+00 -0.31680050484E+04  0.31680050484E+04  0.25500000000E-02 0.  1.
    8880023    1    1    2    0    0  0.84946470625E+03  0.63722799514E+03  0.78059014708E+02  0.12520196568E+04  0.65864270000E+03 0.  0.
    8880022    1    1    2    0    0 -0.84946470625E+03 -0.63722799514E+03 -0.24695339844E+04  0.26925154703E+04  0.15294330000E+03 0.  0.
<mgrwt>
<rscale>  0 0.12028472E+04</rscale>
<asrwt>0</asrwt>
<pdfrwt beam="1">  1        2 0.11946617E+00 0.12495839E+04</pdfrwt>
<pdfrwt beam="2">  1       -2 0.48738539E+00 0.12495839E+04</pdfrwt>
<totfact> 0.69292553E-02</totfact>
</mgrwt>
</event>
<event>
 4    5  0.2409888E-007  0.7378743E+03  0.7818608E-02  0.9866183E-01
          2   -1    0    0  501    0  0.00000000000E+00  0.00000000000E+00  0.25452053580E+04  0.25452053580E+04  0.25500000000E-02 0. -1.
         -2   -1    0    0    0  501 -0.00000000000E+00 -0.00000000000E+00 -0.39257634189E+03  0.39257634190E+03  0.25500000000E-02 0.  1.
    8880023    1    1    2    0    0 -0.11449178568E+03 -0.31231388013E+03  0.23900927452E+04  0.25013999812E+04  0.65864270000E+03 0. -1.
    8880022    1    1    2    0    0  0.11449178568E+03  0.31231388013E+03 -0.23746372918E+03  0.43638171868E+03  0.15294330000E+03 0.  0.
<mgrwt>
<rscale>  0 0.61928577E+03</rscale>
<asrwt>0</asrwt>
<pdfrwt beam="1">  1        2 0.39157004E+00 0.73787434E+03</pdfrwt>
<pdfrwt beam="2">  1       -2 0.60396363E-01 0.73787434E+03</pdfrwt>
<totfact> 0.88066420E+00</totfact>
</mgrwt>
</event>
<event>
 4    5  0.2409888E-007  0.1559729E+04  0.7818608E-02  0.8868571E-01
          2   -1    0    0  501    0  0.00000000000E+00  0.00000000000E+00  0.30405364354E+04  0.30405364354E+04  0.25500000000E-02 0. -1.
         -2   -1    0    0    0  501 -0.00000000000E+00 -0.00000000000E+00 -0.79598549433E+03  0.79598549433E+03  0.25500000000E-02 0.  1.
    8880023    1    1    2    0    0 -0.12531952234E+04 -0.65455881938E+03  0.17171750670E+04  0.23197943730E+04  0.65864270000E+03 0.  1.
    8880022    1    1    2    0    0  0.12531952234E+04  0.65455881938E+03  0.52737587411E+03  0.15167275568E+04  0.15294330000E+03 0.  0.
<mgrwt>
<rscale>  0 0.15241181E+04</rscale>
<asrwt>0</asrwt>
<pdfrwt beam="1">  1        2 0.46777483E+00 0.15597294E+04</pdfrwt>
<pdfrwt beam="2">  1       -2 0.12245931E+00 0.15597294E+04</pdfrwt>
<totfact> 0.78440687E-01</totfact>
</mgrwt>
</event>
<event>
 4    5  0.2409888E-007  0.1124265E+04  0.7818608E-02  0.9234509E-01
          2   -1    0    0  501    0  0.00000000000E+00  0.00000000000E+00  0.10017833532E+04  0.10017833532E+04  0.25500000000E-02 0. -1.
         -2   -1    0    0    0  501 -0.00000000000E+00 -0.00000000000E+00 -0.13725866805E+04  0.13725866805E+04  0.25500000000E-02 0.  1.
    8880023    1    1    2    0    0 -0.78789353710E+03 -0.45758750506E+03  0.37697984979E+03  0.11857852099E+04  0.65864270000E+03 0. -1.
    8880022    1    1    2    0    0  0.78789353710E+03  0.45758750506E+03 -0.74778317704E+03  0.11885848238E+04  0.15294330000E+03 0.  0.
<mgrwt>
<rscale>  0 0.10704232E+04</rscale>
<asrwt>0</asrwt>
<pdfrwt beam="1">  1        2 0.15412052E+00 0.11242654E+04</pdfrwt>
<pdfrwt beam="2">  1       -2 0.21116718E+00 0.11242654E+04</pdfrwt>
<totfact> 0.27704099E+00</totfact>
</mgrwt>
</event>
<event>
 4    5  0.2409888E-007  0.7705821E+03  0.7818608E-02  0.9778444E-01
         -2   -1    0    0    0  501 -0.00000000000E+00  0.00000000000E+00  0.24598480823E+03  0.24598480824E+03  0.25500000000E-02 0.  1.
          2   -1    0    0  501    0  0.00000000000E+00 -0.00000000000E+00 -0.29494909118E+04  0.29494909118E+04  0.25500000000E-02 0. -1.
    8880023    1    1    2    0    0  0.81411434503E+01  0.39990034365E+03 -0.26549352060E+04  0.27645031593E+04  0.65864270000E+03 0. -1.
    8880022    1    1    2    0    0 -0.81411434503E+01 -0.39990034365E+03 -0.48570897577E+02  0.43097256081E+03  0.15294330000E+03 0.  0.
<mgrwt>
<rscale>  0 0.66532318E+03</rscale>
<asrwt>0</asrwt>
<pdfrwt beam="1">  1        2 0.45376781E+00 0.77058210E+03</pdfrwt>
<pdfrwt beam="2">  1       -2 0.37843819E-01 0.77058210E+03</pdfrwt>
<totfact> 0.13034635E+01</totfact>
</mgrwt>
</event>
<event>
 4    5  0.2409888E-007  0.1276741E+04  0.7818608E-02  0.9085911E-01
          2   -1    0    0  501    0  0.00000000000E+00  0.00000000000E+00  0.88852127791E+03  0.88852127791E+03  0.25500000000E-02 0. -1.
         -2   -1    0    0    0  501 -0.00000000000E+00 -0.00000000000E+00 -0.18741683245E+04  0.18741683245E+04  0.25500000000E-02 0.  1.
    8880023    1    1    2    0    0  0.10374400755E+04  0.34637309676E+03  0.84921594303E+01  0.12767687948E+04  0.65864270000E+03 0.  0.
    8880022    1    1    2    0    0 -0.10374400755E+04 -0.34637309676E+03 -0.99413920598E+03  0.14859208075E+04  0.15294330000E+03 0.  0.
<mgrwt>
<rscale>  0 0.12312785E+04</rscale>
<asrwt>0</asrwt>
<pdfrwt beam="1">  1        2 0.13669558E+00 0.12767406E+04</pdfrwt>
<pdfrwt beam="2">  1       -2 0.28833359E+00 0.12767406E+04</pdfrwt>
<totfact> 0.10850741E+00</totfact>
</mgrwt>
</event>
<event>
 4    5  0.2409888E-007  0.1275876E+04  0.7818608E-02  0.9086678E-01
         -2   -1    0    0    0  501 -0.00000000000E+00  0.00000000000E+00  0.64820798509E+03  0.64820798510E+03  0.25500000000E-02 0.  1.
          2   -1    0    0  501    0  0.00000000000E+00 -0.00000000000E+00 -0.25326544798E+04  0.25326544798E+04  0.25500000000E-02 0. -1.
    8880023    1    1    2    0    0  0.96641905126E+03 -0.50998368704E+03 -0.15904903929E+04  0.20389995193E+04  0.65864270000E+03 0. -1.
    8880022    1    1    2    0    0 -0.96641905126E+03  0.50998368704E+03 -0.29395610184E+03  0.11418629456E+04  0.15294330000E+03 0.  0.
<mgrwt>
<rscale>  0 0.12303745E+04</rscale>
<asrwt>0</asrwt>
<pdfrwt beam="1">  1        2 0.38963915E+00 0.12758759E+04</pdfrwt>
<pdfrwt beam="2">  1       -2 0.99724307E-01 0.12758759E+04</pdfrwt>
<totfact> 0.27023419E+00</totfact>
</mgrwt>
</event>
<event>
 4    5  0.2409888E-007  0.7764305E+03  0.7818608E-02  0.9764290E-01
         -2   -1    0    0    0  501 -0.00000000000E+00  0.00000000000E+00  0.18349405041E+04  0.18349405041E+04  0.25500000000E-02 0.  1.
          2   -1    0    0  501    0  0.00000000000E+00 -0.00000000000E+00 -0.14613062437E+04  0.14613062437E+04  0.25500000000E-02 0. -1.
    8880023    1    1    2    0    0 -0.18039060367E+03  0.36945005864E+03 -0.13283605799E+04  0.15386312593E+04  0.65864270000E+03 0. -1.
    8880022    1    1    2    0    0  0.18039060367E+03 -0.36945005864E+03  0.17019948403E+04  0.17576154884E+04  0.15294330000E+03 0.  0.
<mgrwt>
<rscale>  0 0.67314689E+03</rscale>
<asrwt>0</asrwt>
<pdfrwt beam="1">  1        2 0.22481634E+00 0.77643050E+03</pdfrwt>
<pdfrwt beam="2">  1       -2 0.28229854E+00 0.77643050E+03</pdfrwt>
<totfact> 0.56814897E-01</totfact>
</mgrwt>
</event>
<event>
 4    5  0.2409888E-007  0.7230942E+03  0.7818608E-02  0.9912252E-01
          2   -1    0    0  501    0  0.00000000000E+00  0.00000000000E+00  0.11695230929E+04  0.11695230929E+04  0.25500000000E-02 0. -1.
         -2   -1    0    0    0  501 -0.00000000000E+00 -0.00000000000E+00 -0.63262710009E+03  0.63262710009E+03  0.25500000000E-02 0.  1.
    8880023    1    1    2    0    0  0.93850898915E+02  0.28327910582E+03  0.99774207334E+03  0.12322152792E+04  0.65864270000E+03 0. -1.
    8880022    1    1    2    0    0 -0.93850898915E+02 -0.28327910582E+03 -0.46084608055E+03  0.56993491382E+03  0.15294330000E+03 0.  0.
<mgrwt>
<rscale>  0 0.59671163E+03</rscale>
<asrwt>0</asrwt>
<pdfrwt beam="1">  1        2 0.17992663E+00 0.72309422E+03</pdfrwt>
<pdfrwt beam="2">  1       -2 0.97327247E-01 0.72309422E+03</pdfrwt>
<totfact> 0.17778999E+01</totfact>
</mgrwt>
</event>
<event>
 4    5  0.2409888E-007  0.9361479E+03  0.7818608E-02  0.9470331E-01
         -2   -1    0    0    0  501 -0.00000000000E+00  0.00000000000E+00  0.63566453791E+03  0.63566453792E+03  0.25500000000E-02 0.  1.
          2   -1    0    0  501    0  0.00000000000E+00 -0.00000000000E+00 -0.18479263557E+04  0.18479263557E+04  0.25500000000E-02 0. -1.
    8880023    1    1    2    0    0  0.62266414936E+03 -0.23420516112E+03 -0.14792828532E+04  0.17506143683E+04  0.65864270000E+03 0.  0.
    8880022    1    1    2    0    0 -0.62266414936E+03  0.23420516112E+03  0.26702103538E+03  0.73297652537E+03  0.15294330000E+03 0.  0.
<mgrwt>
<rscale>  0 0.86507005E+03</rscale>
<asrwt>0</asrwt>
<pdfrwt beam="1">  1        2 0.28429636E+00 0.93614791E+03</pdfrwt>
<pdfrwt beam="2">  1       -2 0.97794545E-01 0.93614791E+03</pdfrwt>
<totfact> 0.71113382E+00</totfact>
</mgrwt>
</event>
<event>
 4    5  0.2409888E-007  0.9688266E+03  0.7818608E-02  0.9423529E-01
          2   -1    0    0  501    0  0.00000000000E+00  0.00000000000E+00  0.14870384264E+04  0.14870384264E+04  0.25500000000E-02 0. -1.
         -2   -1    0    0    0  501 -0.00000000000E+00 -0.00000000000E+00 -0.57012400387E+03  0.57012400388E+03  0.25500000000E-02 0.  1.
    8880023    1    1    2    0    0 -0.53009082874E+03 -0.47309452680E+03  0.91172823438E+03  0.13303658510E+04  0.65864270000E+03 0.  0.
    8880022    1    1    2    0    0  0.53009082874E+03  0.47309452680E+03  0.51861881336E+01  0.72679657922E+03  0.15294330000E+03 0.  0.
<mgrwt>
<rscale>  0 0.90164377E+03</rscale>
<asrwt>0</asrwt>
<pdfrwt beam="1">  1        2 0.22877514E+00 0.96882657E+03</pdfrwt>
<pdfrwt beam="2">  1       -2 0.87711387E-01 0.96882657E+03</pdfrwt>
<totfact> 0.14468388E+01</totfact>
</mgrwt>
</event>
<event>
 4    5  0.2409888E-007  0.9663909E+03  0.7818608E-02  0.9426913E-01
         -2   -1    0    0    0  501 -0.00000000000E+00  0.00000000000E+00  0.46797114925E+03  0.46797114926E+03  0.25500000000E-02 0.  1.
          2   -1    0    0  501    0  0.00000000000E+00 -0.00000000000E+00 -0.18732433042E+04  0.18732433042E+04  0.25500000000E-02 0. -1.
    8880023    1    1    2    0    0 -0.45327946451E+03  0.54280648329E+03 -0.12848774981E+04  0.16077380205E+04  0.65864270000E+03 0.  0.
    8880022    1    1    2    0    0  0.45327946451E+03 -0.54280648329E+03 -0.12039465683E+03  0.73347643293E+03  0.15294330000E+03 0.  0.
<mgrwt>
<rscale>  0 0.89893535E+03</rscale>
<asrwt>0</asrwt>
<pdfrwt beam="1">  1        2 0.28819127E+00 0.96639089E+03</pdfrwt>
<pdfrwt beam="2">  1       -2 0.71995563E-01 0.96639089E+03</pdfrwt>
<totfact> 0.13799704E+01</totfact>
</mgrwt>
</event>
<event>
 4    5  0.2409888E-007  0.7771048E+03  0.7818608E-02  0.9762682E-01
         -2   -1    0    0    0  501 -0.00000000000E+00  0.00000000000E+00  0.46158123130E+03  0.46158123130E+03  0.25500000000E-02 0.  1.
          2   -1    0    0  501    0  0.00000000000E+00 -0.00000000000E+00 -0.19055387075E+04  0.19055387075E+04  0.25500000000E-02 0. -1.
    8880023    1    1    2    0    0  0.24555048618E+03  0.33134058311E+03 -0.16921597708E+04  0.18620678075E+04  0.65864270000E+03 0.  0.
    8880022    1    1    2    0    0 -0.24555048618E+03 -0.33134058311E+03  0.24820229464E+03  0.50505213133E+03  0.15294330000E+03 0.  0.
<mgrwt>
<rscale>  0 0.67404254E+03</rscale>
<asrwt>0</asrwt>
<pdfrwt beam="1">  1        2 0.29315980E+00 0.77710477E+03</pdfrwt>
<pdfrwt beam="2">  1       -2 0.71012498E-01 0.77710477E+03</pdfrwt>
<totfact> 0.13973589E+01</totfact>
</mgrwt>
</event>
<event>
 4    5  0.2409888E-007  0.1071224E+04  0.7818608E-02  0.9293792E-01
         -2   -1    0    0    0  501 -0.00000000000E+00  0.00000000000E+00  0.23084673500E+04  0.23084673500E+04  0.25500000000E-02 0.  1.
          2   -1    0    0  501    0  0.00000000000E+00 -0.00000000000E+00 -0.13655643533E+04  0.13655643533E+04  0.25500000000E-02 0. -1.
    8880023    1    1    2    0    0  0.84413924114E+03 -0.33757434397E+02 -0.10525053532E+04  0.15017617480E+04  0.65864270000E+03 0. -1.
    8880022    1    1    2    0    0 -0.84413924114E+03  0.33757434397E+02  0.19954083499E+04  0.21722699553E+04  0.15294330000E+03 0.  0.
<mgrwt>
<rscale>  0 0.10135640E+04</rscale>
<asrwt>0</asrwt>
<pdfrwt beam="1">  1        2 0.21008682E+00 0.10712240E+04</pdfrwt>
<pdfrwt beam="2">  1       -2 0.35514882E+00 0.10712240E+04</pdfrwt>
<totfact> 0.21873762E-01</totfact>
</mgrwt>
</event>
<event>
 4    5  0.2409888E-007  0.7976813E+03  0.7818608E-02  0.9715832E-01
          2   -1    0    0  501    0  0.00000000000E+00  0.00000000000E+00  0.12221304886E+04  0.12221304886E+04  0.25500000000E-02 0. -1.
         -2   -1    0    0    0  501 -0.00000000000E+00 -0.00000000000E+00 -0.93819156739E+03  0.93819156740E+03  0.25500000000E-02 0.  1.
    8880023    1    1    2    0    0  0.11045957118E+03  0.43621546251E+03  0.10134095077E+04  0.12896876688E+04  0.65864270000E+03 0. -1.
    8880022    1    1    2    0    0 -0.11045957118E+03 -0.43621546251E+03 -0.72947058647E+03  0.87063438718E+03  0.15294330000E+03 0.  0.
<mgrwt>
<rscale>  0 0.70081927E+03</rscale>
<asrwt>0</asrwt>
<pdfrwt beam="1">  1        2 0.18802008E+00 0.79768130E+03</pdfrwt>
<pdfrwt beam="2">  1       -2 0.14433716E+00 0.79768130E+03</pdfrwt>
<totfact> 0.61837865E+00</totfact>
</mgrwt>
</event>
<event>
 4    5  0.2409888E-007  0.1048480E+04  0.7818608E-02  0.9320711E-01
          2   -1    0    0  501    0  0.00000000000E+00  0.00000000000E+00  0.41428526389E+04  0.41428526389E+04  0.25500000000E-02 0. -1.
         -2   -1    0    0    0  501 -0.00000000000E+00 -0.00000000000E+00 -0.45354635110E+03  0.45354635110E+03  0.25500000000E-02 0.  1.
    8880023    1    1    2    0    0  0.75217124218E+03  0.31581334507E+03  0.36139732656E+04  0.37629925083E+04  0.65864270000E+03 0.  0.
    8880022    1    1    2    0    0 -0.75217124218E+03 -0.31581334507E+03  0.75333022158E+02  0.83340648170E+03  0.15294330000E+03 0.  0.
<mgrwt>
<rscale>  0 0.98898313E+03</rscale>
<asrwt>0</asrwt>
<pdfrwt beam="1">  1        2 0.63736196E+00 0.10484798E+04</pdfrwt>
<pdfrwt beam="2">  1       -2 0.69776360E-01 0.10484798E+04</pdfrwt>
<totfact> 0.51155576E-01</totfact>
</mgrwt>
</event>
<event>
 4    5  0.2409888E-007  0.8070501E+03  0.7818608E-02  0.9695755E-01
         -2   -1    0    0    0  501 -0.00000000000E+00  0.00000000000E+00  0.21331690322E+03  0.21331690324E+03  0.25500000000E-02 0.  1.
          2   -1    0    0  501    0  0.00000000000E+00 -0.00000000000E+00 -0.25281209213E+04  0.25281209213E+04  0.25500000000E-02 0. -1.
    8880023    1    1    2    0    0 -0.27965701112E+03  0.37324466457E+03 -0.20041967439E+04  0.21605865912E+04  0.65864270000E+03 0. -1.
    8880022    1    1    2    0    0  0.27965701112E+03 -0.37324466457E+03 -0.31060727418E+03  0.58085123335E+03  0.15294330000E+03 0.  0.
<mgrwt>
<rscale>  0 0.71270122E+03</rscale>
<asrwt>0</asrwt>
<pdfrwt beam="1">  1        2 0.38894166E+00 0.80705008E+03</pdfrwt>
<pdfrwt beam="2">  1       -2 0.32817987E-01 0.80705008E+03</pdfrwt>
<totfact> 0.30072547E+01</totfact>
</mgrwt>
</event>
<event>
 4    5  0.2409888E-007  0.6829238E+03  0.7818608E-02  0.1007716E+00
          2   -1    0    0  501    0  0.00000000000E+00  0.00000000000E+00  0.73787149295E+03  0.73787149295E+03  0.25500000000E-02 0. -1.
         -2   -1    0    0    0  501 -0.00000000000E+00 -0.00000000000E+00 -0.28846506816E+03  0.28846506817E+03  0.25500000000E-02 0.  1.
    8880023    1    1    2    0    0  0.97671867214E+01  0.18022023029E+03  0.37049755390E+03  0.77695133249E+03  0.65864270000E+03 0.  0.
    8880022    1    1    2    0    0 -0.97671867214E+01 -0.18022023029E+03  0.78908870890E+02  0.24938522864E+03  0.15294330000E+03 0.  1.
<mgrwt>
<rscale>  0 0.52392618E+03</rscale>
<asrwt>0</asrwt>
<pdfrwt beam="1">  1        2 0.11351869E+00 0.68292381E+03</pdfrwt>
<pdfrwt beam="2">  1       -2 0.44379241E-01 0.68292381E+03</pdfrwt>
<totfact> 0.18689714E+02</totfact>
</mgrwt>
</event>
<event>
 4    5  0.2409888E-007  0.7267184E+03  0.7818608E-02  0.9900476E-01
          2   -1    0    0  501    0  0.00000000000E+00  0.00000000000E+00  0.16126032549E+04  0.16126032549E+04  0.25500000000E-02 0. -1.
         -2   -1    0    0    0  501 -0.00000000000E+00 -0.00000000000E+00 -0.54100394192E+03  0.54100394193E+03  0.25500000000E-02 0.  1.
    8880023    1    1    2    0    0  0.25553810867E+03 -0.17032226678E+03  0.14627450678E+04  0.16333226072E+04  0.65864270000E+03 0. -1.
    8880022    1    1    2    0    0 -0.25553810867E+03  0.17032226678E+03 -0.39114575489E+03  0.52028458956E+03  0.15294330000E+03 0.  0.
<mgrwt>
<rscale>  0 0.60238223E+03</rscale>
<asrwt>0</asrwt>
<pdfrwt beam="1">  1        2 0.24809281E+00 0.72671838E+03</pdfrwt>
<pdfrwt beam="2">  1       -2 0.83231376E-01 0.72671838E+03</pdfrwt>
<totfact> 0.14279749E+01</totfact>
</mgrwt>
</event>
<event>
 4    5  0.2409888E-007  0.8452125E+03  0.7818608E-02  0.9620429E-01
         -2   -1    0    0    0  501 -0.00000000000E+00  0.00000000000E+00  0.84122460860E+03  0.84122460860E+03  0.25500000000E-02 0.  1.
          2   -1    0    0  501    0  0.00000000000E+00 -0.00000000000E+00 -0.11888354004E+04  0.11888354004E+04  0.25500000000E-02 0. -1.
    8880023    1    1    2    0    0 -0.29801549162E+03  0.43790483968E+03 -0.91036936383E+03  0.12422384903E+04  0.65864270000E+03 0. -1.
    8880022    1    1    2    0    0  0.29801549162E+03 -0.43790483968E+03  0.56275857207E+03  0.78782151869E+03  0.15294330000E+03 0.  0.
<mgrwt>
<rscale>  0 0.75958689E+03</rscale>
<asrwt>0</asrwt>
<pdfrwt beam="1">  1        2 0.18289775E+00 0.84521245E+03</pdfrwt>
<pdfrwt beam="2">  1       -2 0.12941917E+00 0.84521245E+03</pdfrwt>
<totfact> 0.85190002E+00</totfact>
</mgrwt>
</event>
<event>
 4    5  0.2409888E-007  0.6836645E+03  0.7818608E-02  0.1007322E+00
         -2   -1    0    0    0  501 -0.00000000000E+00  0.00000000000E+00  0.12308649262E+03  0.12308649264E+03  0.25500000000E-02 0.  1.
          2   -1    0    0  501    0  0.00000000000E+00 -0.00000000000E+00 -0.20380446583E+04  0.20380446583E+04  0.25500000000E-02 0. -1.
    8880023    1    1    2    0    0 -0.61426623811E+02  0.17266663658E+03 -0.17267198375E+04  0.18571372057E+04  0.65864270000E+03 0. -1.
    8880022    1    1    2    0    0  0.61426623811E+02 -0.17266663658E+03 -0.18823832819E+03  0.30399394520E+03  0.15294330000E+03 0. -1.
<mgrwt>
<rscale>  0 0.52552855E+03</rscale>
<asrwt>0</asrwt>
<pdfrwt beam="1">  1        2 0.31354531E+00 0.68366454E+03</pdfrwt>
<pdfrwt beam="2">  1       -2 0.18936385E-01 0.68366454E+03</pdfrwt>
<totfact> 0.15424404E+02</totfact>
</mgrwt>
</event>
<event>
 4    5  0.2409888E-007  0.8648170E+03  0.7818608E-02  0.9585052E-01
         -2   -1    0    0    0  501 -0.00000000000E+00  0.00000000000E+00  0.41136442592E+03  0.41136442593E+03  0.25500000000E-02 0.  1.
          2   -1    0    0  501    0  0.00000000000E+00 -0.00000000000E+00 -0.16113774598E+04  0.16113774598E+04  0.25500000000E-02 0. -1.
    8880023    1    1    2    0    0 -0.72392423036E+02 -0.55574958397E+03 -0.11510676365E+04  0.14397448292E+04  0.65864270000E+03 0. -1.
    8880022    1    1    2    0    0  0.72392423036E+02  0.55574958397E+03 -0.48945397332E+02  0.58299705654E+03  0.15294330000E+03 0.  0.
<mgrwt>
<rscale>  0 0.78293511E+03</rscale>
<asrwt>0</asrwt>
<pdfrwt beam="1">  1        2 0.24790422E+00 0.86481701E+03</pdfrwt>
<pdfrwt beam="2">  1       -2 0.63286835E-01 0.86481701E+03</pdfrwt>
<totfact> 0.25721752E+01</totfact>
</mgrwt>
</event>
<event>
 4    5  0.2852296E-007  0.9257205E+03  0.7818608E-02  0.9485943E-01
         -2   -1    0    0    0  501 -0.00000000000E+00  0.00000000000E+00  0.12848487560E+04  0.12848487560E+04  0.25500000000E-02 0.  1.
          2   -1    0    0  501    0  0.00000000000E+00 -0.00000000000E+00 -0.15608798540E+04  0.15608798540E+04  0.25500000000E-02 0. -1.
    8880023    1    1    2    0    0 -0.62706572055E+03  0.17302235193E+03 -0.13163591682E+04  0.16092730714E+04  0.65864270000E+03 0. -1.
    8880022    1    1    2    0    0  0.62706572055E+03 -0.17302235193E+03  0.10403280702E+04  0.12364555386E+04  0.15294330000E+03 0.  0.
<mgrwt>
<rscale>  0 0.85328167E+03</rscale>
<asrwt>0</asrwt>
<pdfrwt beam="1">  1        2 0.24013536E+00 0.92572045E+03</pdfrwt>
<pdfrwt beam="2">  1       -2 0.19766904E+00 0.92572045E+03</pdfrwt>
<totfact> 0.16231234E+00</totfact>
</mgrwt>
</event>
<event>
 4    5  0.2409888E-007  0.7833492E+03  0.7818608E-02  0.9748028E-01
          2   -1    0    0  501    0  0.00000000000E+00  0.00000000000E+00  0.80201982007E+03  0.80201982007E+03  0.25500000000E-02 0. -1.
         -2   -1    0    0    0  501 -0.00000000000E+00 -0.00000000000E+00 -0.72290263958E+03  0.72290263959E+03  0.25500000000E-02 0.  1.
    8880023    1    1    2    0    0  0.11775003524E+03 -0.40738272199E+03  0.48247802153E+03  0.92001141324E+03  0.65864270000E+03 0. -1.
    8880022    1    1    2    0    0 -0.11775003524E+03  0.40738272199E+03 -0.40336084104E+03  0.60491104642E+03  0.15294330000E+03 0.  0.
<mgrwt>
<rscale>  0 0.68227846E+03</rscale>
<asrwt>0</asrwt>
<pdfrwt beam="1">  1        2 0.12338766E+00 0.78334919E+03</pdfrwt>
<pdfrwt beam="2">  1       -2 0.11121579E+00 0.78334919E+03</pdfrwt>
<totfact> 0.22211300E+01</totfact>
</mgrwt>
</event>
<event>
 4    5  0.2409888E-007  0.6756744E+03  0.7818608E-02  0.1011885E+00
          2   -1    0    0  501    0  0.00000000000E+00  0.00000000000E+00  0.16943949996E+04  0.16943949996E+04  0.25500000000E-02 0. -1.
         -2   -1    0    0    0  501 -0.00000000000E+00 -0.00000000000E+00 -0.82198659396E+03  0.82198659396E+03  0.25500000000E-02 0.  1.
    8880023    1    1    2    0    0  0.14067123059E+03 -0.54196692114E+02  0.16111312567E+04  0.17470775052E+04  0.65864270000E+03 0. -1.
    8880022    1    1    2    0    0 -0.14067123059E+03  0.54196692114E+02 -0.73872285111E+03  0.76930408833E+03  0.15294330000E+03 0.  0.
<mgrwt>
<rscale>  0 0.50732482E+03</rscale>
<asrwt>0</asrwt>
<pdfrwt beam="1">  1        2 0.26067615E+00 0.67567439E+03</pdfrwt>
<pdfrwt beam="2">  1       -2 0.12645948E+00 0.67567439E+03</pdfrwt>
<totfact> 0.47939204E+00</totfact>
</mgrwt>
</event>
<event>
 4    5  0.2409888E-007  0.6942436E+03  0.7818608E-02  0.1002197E+00
         -2   -1    0    0    0  501 -0.00000000000E+00  0.00000000000E+00  0.35533606248E+03  0.35533606249E+03  0.25500000000E-02 0.  1.
          2   -1    0    0  501    0  0.00000000000E+00 -0.00000000000E+00 -0.14869148049E+04  0.14869148049E+04  0.25500000000E-02 0. -1.
    8880023    1    1    2    0    0  0.14411445133E+03 -0.16551414736E+03 -0.13359816447E+04  0.15055965825E+04  0.65864270000E+03 0. -1.
    8880022    1    1    2    0    0 -0.14411445133E+03  0.16551414736E+03  0.20440290227E+03  0.33665428488E+03  0.15294330000E+03 0.  0.
<mgrwt>
<rscale>  0 0.54697102E+03</rscale>
<asrwt>0</asrwt>
<pdfrwt beam="1">  1        2 0.22875612E+00 0.69424356E+03</pdfrwt>
<pdfrwt beam="2">  1       -2 0.54667087E-01 0.69424356E+03</pdfrwt>
<totfact> 0.41815269E+01</totfact>
</mgrwt>
</event>
<event>
 4    5  0.2409888E-007  0.7144402E+03  0.7818608E-02  0.9941868E-01
         -2   -1    0    0    0  501 -0.00000000000E+00  0.00000000000E+00  0.13960841082E+03  0.13960841084E+03  0.25500000000E-02 0.  1.
          2   -1    0    0  501    0  0.00000000000E+00 -0.00000000000E+00 -0.26972390351E+04  0.26972390351E+04  0.25500000000E-02 0. -1.
    8880023    1    1    2    0    0 -0.25761646199E+03  0.10123413461E+03 -0.23556581598E+04  0.24616153566E+04  0.65864270000E+03 0. -1.
    8880022    1    1    2    0    0  0.25761646199E+03 -0.10123413461E+03 -0.20197246451E+03  0.37523208942E+03  0.15294330000E+03 0. -1.
<mgrwt>
<rscale>  0 0.58274399E+03</rscale>
<asrwt>0</asrwt>
<pdfrwt beam="1">  1        2 0.41495981E+00 0.71444020E+03</pdfrwt>
<pdfrwt beam="2">  1       -2 0.21478219E-01 0.71444020E+03</pdfrwt>
<totfact> 0.52721104E+01</totfact>
</mgrwt>
</event>
<event>
 4    5  0.2409888E-007  0.1182371E+04  0.7818608E-02  0.9174453E-01
         -2   -1    0    0    0  501 -0.00000000000E+00  0.00000000000E+00  0.10646745812E+04  0.10646745812E+04  0.25500000000E-02 0.  1.
          2   -1    0    0  501    0  0.00000000000E+00 -0.00000000000E+00 -0.17852175045E+04  0.17852175045E+04  0.25500000000E-02 0. -1.
    8880023    1    1    2    0    0  0.13994438664E+03 -0.97190831060E+03 -0.12527278663E+04  0.17225932512E+04  0.65864270000E+03 0.  0.
    8880022    1    1    2    0    0 -0.13994438664E+03  0.97190831060E+03  0.53218494306E+03  0.11272988345E+04  0.15294330000E+03 0.  0.
<mgrwt>
<rscale>  0 0.11321054E+04</rscale>
<asrwt>0</asrwt>
<pdfrwt beam="1">  1        2 0.27464885E+00 0.11823707E+04</pdfrwt>
<pdfrwt beam="2">  1       -2 0.16379609E+00 0.11823707E+04</pdfrwt>
<totfact> 0.20219257E+00</totfact>
</mgrwt>
</event>
<event>
 4    5  0.2409888E-007  0.9082028E+03  0.7818608E-02  0.9512990E-01
         -2   -1    0    0    0  501 -0.00000000000E+00  0.00000000000E+00  0.49444271693E+03  0.49444271694E+03  0.25500000000E-02 0.  1.
          2   -1    0    0  501    0  0.00000000000E+00 -0.00000000000E+00 -0.14249413945E+04  0.14249413945E+04  0.25500000000E-02 0. -1.
    8880023    1    1    2    0    0 -0.62320229319E+03  0.51391038212E+02 -0.17168105796E+03  0.92428714638E+03  0.65864270000E+03 0. -1.
    8880022    1    1    2    0    0  0.62320229319E+03 -0.51391038212E+02 -0.75881761961E+03  0.99509696507E+03  0.15294330000E+03 0.  0.
<mgrwt>
<rscale>  0 0.83332883E+03</rscale>
<asrwt>0</asrwt>
<pdfrwt beam="1">  1        2 0.21922175E+00 0.90820281E+03</pdfrwt>
<pdfrwt beam="2">  1       -2 0.76068111E-01 0.90820281E+03</pdfrwt>
<totfact> 0.21786001E+01</totfact>
</mgrwt>
</event>
<event>
 4    5  0.2409888E-007  0.8512129E+03  0.7818608E-02  0.9609389E-01
         -2   -1    0    0    0  501 -0.00000000000E+00  0.00000000000E+00  0.26510852870E+04  0.26510852870E+04  0.25500000000E-02 0.  1.
          2   -1    0    0  501    0  0.00000000000E+00 -0.00000000000E+00 -0.20963623110E+04  0.20963623110E+04  0.25500000000E-02 0. -1.
    8880023    1    1    2    0    0 -0.47411113611E+03  0.25684979271E+03 -0.19780359903E+04  0.21534135159E+04  0.65864270000E+03 0. -1.
    8880022    1    1    2    0    0  0.47411113611E+03 -0.25684979271E+03  0.25327589662E+04  0.25940340822E+04  0.15294330000E+03 0.  0.
<mgrwt>
<rscale>  0 0.76677843E+03</rscale>
<asrwt>0</asrwt>
<pdfrwt beam="1">  1        2 0.32251728E+00 0.85121289E+03</pdfrwt>
<pdfrwt beam="2">  1       -2 0.40785928E+00 0.85121289E+03</pdfrwt>
<totfact> 0.41346335E-02</totfact>
</mgrwt>
</event>
<event>
 4    5  0.2409888E-007  0.7263782E+03  0.7818608E-02  0.9901567E-01
          2   -1    0    0  501    0  0.00000000000E+00  0.00000000000E+00  0.41382702201E+04  0.41382702201E+04  0.25500000000E-02 0. -1.
         -2   -1    0    0    0  501 -0.00000000000E+00 -0.00000000000E+00 -0.25806738855E+03  0.25806738856E+03  0.25500000000E-02 0.  1.
    8880023    1    1    2    0    0  0.12342873575E+03  0.28032197015E+03  0.39752220835E+04  0.40410414350E+04  0.65864270000E+03 0. -1.
    8880022    1    1    2    0    0 -0.12342873575E+03 -0.28032197015E+03 -0.95019251979E+02  0.35529617366E+03  0.15294330000E+03 0.  0.
<mgrwt>
<rscale>  0 0.60185400E+03</rscale>
<asrwt>0</asrwt>
<pdfrwt beam="1">  1        2 0.63665697E+00 0.72637818E+03</pdfrwt>
<pdfrwt beam="2">  1       -2 0.39702674E-01 0.72637818E+03</pdfrwt>
<totfact> 0.17710391E+00</totfact>
</mgrwt>
</event>
<event>
 4    5  0.2409888E-007  0.6924677E+03  0.7818608E-02  0.1003001E+00
          2   -1    0    0  501    0  0.00000000000E+00  0.00000000000E+00  0.19664299268E+04  0.19664299268E+04  0.25500000000E-02 0. -1.
         -2   -1    0    0    0  501 -0.00000000000E+00 -0.00000000000E+00 -0.19705406843E+03  0.19705406845E+03  0.25500000000E-02 0.  1.
    8880023    1    1    2    0    0  0.11728546200E+03  0.17873281651E+03  0.17699928992E+04  0.19006278881E+04  0.65864270000E+03 0. -1.
    8880022    1    1    2    0    0 -0.11728546200E+03 -0.17873281651E+03 -0.61704093038E+00  0.26285610712E+03  0.15294330000E+03 0.  0.
<mgrwt>
<rscale>  0 0.54353668E+03</rscale>
<asrwt>0</asrwt>
<pdfrwt beam="1">  1        2 0.30252769E+00 0.69246769E+03</pdfrwt>
<pdfrwt beam="2">  1       -2 0.30316010E-01 0.69246769E+03</pdfrwt>
<totfact> 0.72507776E+01</totfact>
</mgrwt>
</event>
<event>
 4    5  0.2409888E-007  0.1427835E+04  0.7818608E-02  0.8962351E-01
          2   -1    0    0  501    0  0.00000000000E+00  0.00000000000E+00  0.25949227840E+04  0.25949227840E+04  0.25500000000E-02 0. -1.
         -2   -1    0    0    0  501 -0.00000000000E+00 -0.00000000000E+00 -0.10280441498E+04  0.10280441498E+04  0.25500000000E-02 0.  1.
    8880023    1    1    2    0    0  0.81619696700E+03 -0.96887762909E+03  0.18289419821E+04  0.23202888461E+04  0.65864270000E+03 0.  0.
    8880022    1    1    2    0    0 -0.81619696700E+03  0.96887762909E+03 -0.26206334789E+03  0.13026780878E+04  0.15294330000E+03 0.  0.
<mgrwt>
<rscale>  0 0.13882734E+04</rscale>
<asrwt>0</asrwt>
<pdfrwt beam="1">  1        2 0.39921888E+00 0.14278346E+04</pdfrwt>
<pdfrwt beam="2">  1       -2 0.15816064E+00 0.14278346E+04</pdfrwt>
<totfact> 0.75795120E-01</totfact>
</mgrwt>
</event>
<event>
 4    5  0.2409888E-007  0.6856715E+03  0.7818608E-02  0.1006282E+00
          2   -1    0    0  501    0  0.00000000000E+00  0.00000000000E+00  0.53453146835E+03  0.53453146835E+03  0.25500000000E-02 0. -1.
         -2   -1    0    0    0  501 -0.00000000000E+00 -0.00000000000E+00 -0.19702882125E+04  0.19702882125E+04  0.25500000000E-02 0.  1.
    8880023    1    1    2    0    0 -0.14278443656E+03  0.12628463456E+03  0.30252344380E+03  0.74944369005E+03  0.65864270000E+03 0. -1.
    8880022    1    1    2    0    0  0.14278443656E+03 -0.12628463456E+03 -0.17382801879E+04  0.17553759908E+04  0.15294330000E+03 0.  0.
<mgrwt>
<rscale>  0 0.52979552E+03</rscale>
<asrwt>0</asrwt>
<pdfrwt beam="1">  1        2 0.82235611E-01 0.68567150E+03</pdfrwt>
<pdfrwt beam="2">  1       -2 0.30312126E+00 0.68567150E+03</pdfrwt>
<totfact> 0.18253275E+00</totfact>
</mgrwt>
</event>
<event>
 4    5  0.2409888E-007  0.9405754E+03  0.7818608E-02  0.9463806E-01
         -2   -1    0    0    0  501 -0.00000000000E+00  0.00000000000E+00  0.33108244020E+03  0.33108244021E+03  0.25500000000E-02 0.  1.
          2   -1    0    0  501    0  0.00000000000E+00 -0.00000000000E+00 -0.33030873525E+04  0.33030873525E+04  0.25500000000E-02 0. -1.
    8880023    1    1    2    0    0  0.53848632117E+03  0.40112888721E+03 -0.27565241191E+04  0.29125774372E+04  0.65864270000E+03 0.  0.
    8880022    1    1    2    0    0 -0.53848632117E+03 -0.40112888721E+03 -0.21548079318E+03  0.72159235548E+03  0.15294330000E+03 0.  0.
<mgrwt>
<rscale>  0 0.87005696E+03</rscale>
<asrwt>0</asrwt>
<pdfrwt beam="1">  1        2 0.50816726E+00 0.94057541E+03</pdfrwt>
<pdfrwt beam="2">  1       -2 0.50935762E-01 0.94057541E+03</pdfrwt>
<totfact> 0.42037358E+00</totfact>
</mgrwt>
</event>
<event>
 4    5  0.2409888E-007  0.6631994E+03  0.7818608E-02  0.1021094E+00
          2   -1    0    0  501    0  0.00000000000E+00  0.00000000000E+00  0.52011507974E+03  0.52011507974E+03  0.25500000000E-02 0. -1.
         -2   -1    0    0    0  501 -0.00000000000E+00 -0.00000000000E+00 -0.12735272142E+04  0.12735272142E+04  0.25500000000E-02 0.  1.
    8880023    1    1    2    0    0  0.32256547012E+00  0.77608720867E+02  0.29890110949E+03  0.72744436016E+03  0.65864270000E+03 0. -1.
    8880022    1    1    2    0    0 -0.32256547012E+00 -0.77608720867E+02 -0.10523132440E+04  0.10661979338E+04  0.15294330000E+03 0.  0.
<mgrwt>
<rscale>  0 0.47293772E+03</rscale>
<asrwt>0</asrwt>
<pdfrwt beam="1">  1        2 0.80017705E-01 0.66319938E+03</pdfrwt>
<pdfrwt beam="2">  1       -2 0.19592726E+00 0.66319938E+03</pdfrwt>
<totfact> 0.85649237E+00</totfact>
</mgrwt>
</event>
<event>
 4    5  0.2409888E-007  0.8579242E+03  0.7818608E-02  0.9597267E-01
         -2   -1    0    0    0  501 -0.00000000000E+00  0.00000000000E+00  0.63000383483E+03  0.63000383483E+03  0.25500000000E-02 0.  1.
          2   -1    0    0  501    0  0.00000000000E+00 -0.00000000000E+00 -0.16697879474E+04  0.16697879474E+04  0.25500000000E-02 0. -1.
    8880023    1    1    2    0    0  0.18934030697E+03  0.51611434265E+03 -0.13876848689E+04  0.16314727298E+04  0.65864270000E+03 0.  0.
    8880022    1    1    2    0    0 -0.18934030697E+03 -0.51611434265E+03  0.34790075633E+03  0.66831905240E+03  0.15294330000E+03 0.  1.
<mgrwt>
<rscale>  0 0.77477361E+03</rscale>
<asrwt>0</asrwt>
<pdfrwt beam="1">  1        2 0.25689045E+00 0.85792422E+03</pdfrwt>
<pdfrwt beam="2">  1       -2 0.96923668E-01 0.85792422E+03</pdfrwt>
<totfact> 0.91862812E+00</totfact>
</mgrwt>
</event>
<event>
 4    5  0.2409888E-007  0.9069948E+03  0.7818608E-02  0.9514895E-01
          2   -1    0    0  501    0  0.00000000000E+00  0.00000000000E+00  0.12902478137E+04  0.12902478137E+04  0.25500000000E-02 0. -1.
         -2   -1    0    0    0  501 -0.00000000000E+00 -0.00000000000E+00 -0.52837359642E+03  0.52837359642E+03  0.25500000000E-02 0.  1.
    8880023    1    1    2    0    0  0.35118616945E+03 -0.51526454562E+03  0.74926828245E+03  0.11764533322E+04  0.65864270000E+03 0.  0.
    8880022    1    1    2    0    0 -0.35118616945E+03  0.51526454562E+03  0.12605934789E+02  0.64216807784E+03  0.15294330000E+03 0.  0.
<mgrwt>
<rscale>  0 0.83194542E+03</rscale>
<asrwt>0</asrwt>
<pdfrwt beam="1">  1        2 0.19849966E+00 0.90699475E+03</pdfrwt>
<pdfrwt beam="2">  1       -2 0.81288245E-01 0.90699475E+03</pdfrwt>
<totfact> 0.22426036E+01</totfact>
</mgrwt>
</event>
<event>
 4    5  0.2409888E-007  0.6973921E+03  0.7818608E-02  0.1000820E+00
          2   -1    0    0  501    0  0.00000000000E+00  0.00000000000E+00  0.11240605254E+04  0.11240605254E+04  0.25500000000E-02 0. -1.
         -2   -1    0    0    0  501 -0.00000000000E+00 -0.00000000000E+00 -0.46374566183E+03  0.46374566184E+03  0.25500000000E-02 0.  1.
    8880023    1    1    2    0    0 -0.22418819843E+03  0.47803065067E+02  0.95618209207E+03  0.11834863247E+04  0.65864270000E+03 0. -1.
    8880022    1    1    2    0    0  0.22418819843E+03 -0.47803065067E+02 -0.29586722847E+03  0.40431986254E+03  0.15294330000E+03 0.  0.
<mgrwt>
<rscale>  0 0.55292283E+03</rscale>
<asrwt>0</asrwt>
<pdfrwt beam="1">  1        2 0.17293239E+00 0.69739206E+03</pdfrwt>
<pdfrwt beam="2">  1       -2 0.71345487E-01 0.69739206E+03</pdfrwt>
<totfact> 0.38394460E+01</totfact>
</mgrwt>
</event>
<event>
 4    5  0.2409888E-007  0.1387265E+04  0.7818608E-02  0.8993642E-01
         -2   -1    0    0    0  501 -0.00000000000E+00  0.00000000000E+00  0.10857652068E+04  0.10857652068E+04  0.25500000000E-02 0.  1.
          2   -1    0    0  501    0  0.00000000000E+00 -0.00000000000E+00 -0.18127797138E+04  0.18127797138E+04  0.25500000000E-02 0. -1.
    8880023    1    1    2    0    0 -0.10336811575E+04  0.64976733460E+03  0.13848404121E+03  0.13941600914E+04  0.65864270000E+03 0.  1.
    8880022    1    1    2    0    0  0.10336811575E+04 -0.64976733460E+03 -0.86549854825E+03  0.15043848293E+04  0.15294330000E+03 0.  0.
<mgrwt>
<rscale>  0 0.13462894E+04</rscale>
<asrwt>0</asrwt>
<pdfrwt beam="1">  1        2 0.27888919E+00 0.13872651E+04</pdfrwt>
<pdfrwt beam="2">  1       -2 0.16704080E+00 0.13872651E+04</pdfrwt>
<totfact> 0.18102614E+00</totfact>
</mgrwt>
</event>
<event>
 4    5  0.2409888E-007  0.7463192E+03  0.7818608E-02  0.9841908E-01
          2   -1    0    0  501    0  0.00000000000E+00  0.00000000000E+00  0.10061046630E+04  0.10061046630E+04  0.25500000000E-02 0. -1.
         -2   -1    0    0    0  501 -0.00000000000E+00 -0.00000000000E+00 -0.18562999951E+04  0.18562999951E+04  0.25500000000E-02 0.  1.
    8880023    1    1    2    0    0 -0.33102285732E+03 -0.11664509929E+03  0.84333047800E+03  0.11261432913E+04  0.65864270000E+03 0. -1.
    8880022    1    1    2    0    0  0.33102285732E+03  0.11664509929E+03 -0.16935258101E+04  0.17362613667E+04  0.15294330000E+03 0.  0.
<mgrwt>
<rscale>  0 0.63161226E+03</rscale>
<asrwt>0</asrwt>
<pdfrwt beam="1">  1        2 0.15478533E+00 0.74631925E+03</pdfrwt>
<pdfrwt beam="2">  1       -2 0.28558461E+00 0.74631925E+03</pdfrwt>
<totfact> 0.10141595E+00</totfact>
</mgrwt>
</event>
<event>
 4    5  0.2409888E-007  0.7743918E+03  0.7818608E-02  0.9769180E-01
          2   -1    0    0  501    0  0.00000000000E+00  0.00000000000E+00  0.11052598776E+04  0.11052598776E+04  0.25500000000E-02 0. -1.
         -2   -1    0    0    0  501 -0.00000000000E+00 -0.00000000000E+00 -0.55238393234E+03  0.55238393234E+03  0.25500000000E-02 0.  1.
    8880023    1    1    2    0    0 -0.15964943254E+03  0.37467914434E+03  0.83524271160E+03  0.11389964864E+04  0.65864270000E+03 0.  0.
    8880022    1    1    2    0    0  0.15964943254E+03 -0.37467914434E+03 -0.28236676631E+03  0.51864732357E+03  0.15294330000E+03 0.  0.
<mgrwt>
<rscale>  0 0.67043096E+03</rscale>
<asrwt>0</asrwt>
<pdfrwt beam="1">  1        2 0.17003998E+00 0.77439177E+03</pdfrwt>
<pdfrwt beam="2">  1       -2 0.84982143E-01 0.77439177E+03</pdfrwt>
<totfact> 0.26459177E+01</totfact>
</mgrwt>
</event>
<event>
 4    5  0.2409888E-007  0.9760377E+03  0.7818608E-02  0.9413602E-01
         -2   -1    0    0    0  501 -0.00000000000E+00  0.00000000000E+00  0.12079257351E+04  0.12079257351E+04  0.25500000000E-02 0.  1.
          2   -1    0    0  501    0  0.00000000000E+00 -0.00000000000E+00 -0.13637171872E+04  0.13637171872E+04  0.25500000000E-02 0. -1.
    8880023    1    1    2    0    0  0.43149169616E+03 -0.57676193804E+03 -0.10364550836E+04  0.14236884363E+04  0.65864270000E+03 0.  0.
    8880022    1    1    2    0    0 -0.43149169616E+03  0.57676193804E+03  0.88066363148E+03  0.11479544860E+04  0.15294330000E+03 0.  0.
<mgrwt>
<rscale>  0 0.90964723E+03</rscale>
<asrwt>0</asrwt>
<pdfrwt beam="1">  1        2 0.20980265E+00 0.97603772E+03</pdfrwt>
<pdfrwt beam="2">  1       -2 0.18583473E+00 0.97603772E+03</pdfrwt>
<totfact> 0.24985550E+00</totfact>
</mgrwt>
</event>
<event>
 4    5  0.2409888E-007  0.6897395E+03  0.7818608E-02  0.1004277E+00
          2   -1    0    0  501    0  0.00000000000E+00  0.00000000000E+00  0.44385170192E+03  0.44385170193E+03  0.25500000000E-02 0. -1.
         -2   -1    0    0    0  501 -0.00000000000E+00 -0.00000000000E+00 -0.99629914518E+03  0.99629914518E+03  0.25500000000E-02 0.  1.
    8880023    1    1    2    0    0  0.16364830833E+03  0.12308352257E+03  0.13844802205E+03  0.70349725189E+03  0.65864270000E+03 0. -1.
    8880022    1    1    2    0    0 -0.16364830833E+03 -0.12308352257E+03 -0.69089546531E+03  0.73665359522E+03  0.15294330000E+03 0.  0.
<mgrwt>
<rscale>  0 0.53814117E+03</rscale>
<asrwt>0</asrwt>
<pdfrwt beam="1">  1        2 0.68284877E-01 0.68973946E+03</pdfrwt>
<pdfrwt beam="2">  1       -2 0.15327679E+00 0.68973946E+03</pdfrwt>
<totfact> 0.20362337E+01</totfact>
</mgrwt>
</event>
<event>
 4    5  0.2409888E-007  0.9284254E+03  0.7818608E-02  0.9481859E-01
          2   -1    0    0  501    0  0.00000000000E+00  0.00000000000E+00  0.53398348410E+03  0.53398348411E+03  0.25500000000E-02 0. -1.
         -2   -1    0    0    0  501 -0.00000000000E+00 -0.00000000000E+00 -0.25092930777E+04  0.25092930777E+04  0.25500000000E-02 0.  1.
    8880023    1    1    2    0    0  0.52864483257E+03 -0.38561394961E+03  0.29451077365E+02  0.92889237771E+03  0.65864270000E+03 0.  0.
    8880022    1    1    2    0    0 -0.52864483257E+03  0.38561394961E+03 -0.20047606709E+04  0.21143841841E+04  0.15294330000E+03 0.  0.
<mgrwt>
<rscale>  0 0.85634566E+03</rscale>
<asrwt>0</asrwt>
<pdfrwt beam="1">  1        2 0.82151307E-01 0.92842538E+03</pdfrwt>
<pdfrwt beam="2">  1       -2 0.38604508E+00 0.92842538E+03</pdfrwt>
<totfact> 0.53707696E-01</totfact>
</mgrwt>
</event>
<event>
 4    5  0.2409888E-007  0.6714503E+03  0.7818608E-02  0.1014644E+00
          2   -1    0    0  501    0  0.00000000000E+00  0.00000000000E+00  0.12159120047E+04  0.12159120047E+04  0.25500000000E-02 0. -1.
         -2   -1    0    0    0  501 -0.00000000000E+00 -0.00000000000E+00 -0.53854795734E+03  0.53854795734E+03  0.25500000000E-02 0.  1.
    8880023    1    1    2    0    0  0.55699201403E+02 -0.11803762484E+03  0.10986882180E+04  0.12876184561E+04  0.65864270000E+03 0. -1.
    8880022    1    1    2    0    0 -0.55699201403E+02  0.11803762484E+03 -0.42132417061E+03  0.46684150594E+03  0.15294330000E+03 0.  0.
<mgrwt>
<rscale>  0 0.49670010E+03</rscale>
<asrwt>0</asrwt>
<pdfrwt beam="1">  1        2 0.18706339E+00 0.67145029E+03</pdfrwt>
<pdfrwt beam="2">  1       -2 0.82853532E-01 0.67145029E+03</pdfrwt>
<totfact> 0.24336884E+01</totfact>
</mgrwt>
</event>
<event>
 4    5  0.2409888E-007  0.7801730E+03  0.7818608E-02  0.9755431E-01
          2   -1    0    0  501    0  0.00000000000E+00  0.00000000000E+00  0.95205450336E+03  0.95205450336E+03  0.25500000000E-02 0. -1.
         -2   -1    0    0    0  501 -0.00000000000E+00 -0.00000000000E+00 -0.79992838127E+03  0.79992838127E+03  0.25500000000E-02 0.  1.
    8880023    1    1    2    0    0 -0.30226390047E+02 -0.41706835715E+03  0.69849051121E+03  0.10471670591E+04  0.65864270000E+03 0. -1.
    8880022    1    1    2    0    0  0.30226390047E+02  0.41706835715E+03 -0.54636438912E+03  0.70481582552E+03  0.15294330000E+03 0.  0.
<mgrwt>
<rscale>  0 0.67810224E+03</rscale>
<asrwt>0</asrwt>
<pdfrwt beam="1">  1        2 0.14646992E+00 0.78017297E+03</pdfrwt>
<pdfrwt beam="2">  1       -2 0.12306591E+00 0.78017297E+03</pdfrwt>
<totfact> 0.13672060E+01</totfact>
</mgrwt>
</event>
<event>
 4    5  0.2409888E-007  0.1253268E+04  0.7818608E-02  0.9107005E-01
         -2   -1    0    0    0  501 -0.00000000000E+00  0.00000000000E+00  0.33780539399E+04  0.33780539399E+04  0.25500000000E-02 0.  1.
          2   -1    0    0  501    0  0.00000000000E+00 -0.00000000000E+00 -0.51433586315E+03  0.51433586316E+03  0.25500000000E-02 0. -1.
    8880023    1    1    2    0    0  0.10638279560E+04  0.71698254419E+02  0.60859696265E+03  0.13932232516E+04  0.65864270000E+03 0.  0.
    8880022    1    1    2    0    0 -0.10638279560E+04 -0.71698254419E+02  0.22551211141E+04  0.24991665515E+04  0.15294330000E+03 0.  0.
<mgrwt>
<rscale>  0 0.12067088E+04</rscale>
<asrwt>0</asrwt>
<pdfrwt beam="1">  1        2 0.79128589E-01 0.12532680E+04</pdfrwt>
<pdfrwt beam="2">  1       -2 0.51970064E+00 0.12532680E+04</pdfrwt>
<totfact> 0.72762622E-02</totfact>
</mgrwt>
</event>
<event>
 4    5  0.2409888E-007  0.8110929E+03  0.7818608E-02  0.9687305E-01
         -2   -1    0    0    0  501 -0.00000000000E+00  0.00000000000E+00  0.62548474184E+03  0.62548474185E+03  0.25500000000E-02 0.  1.
          2   -1    0    0  501    0  0.00000000000E+00 -0.00000000000E+00 -0.12143583462E+04  0.12143583462E+04  0.25500000000E-02 0. -1.
    8880023    1    1    2    0    0 -0.30470073321E+03  0.36224151280E+03 -0.93201528311E+03  0.12355258575E+04  0.65864270000E+03 0.  0.
    8880022    1    1    2    0    0  0.30470073321E+03 -0.36224151280E+03  0.34314167874E+03  0.60431723053E+03  0.15294330000E+03 0.  0.
<mgrwt>
<rscale>  0 0.71777703E+03</rscale>
<asrwt>0</asrwt>
<pdfrwt beam="1">  1        2 0.18682436E+00 0.81109288E+03</pdfrwt>
<pdfrwt beam="2">  1       -2 0.96228422E-01 0.81109288E+03</pdfrwt>
<totfact> 0.17005943E+01</totfact>
</mgrwt>
</event>
<event>
 4    5  0.2409888E-007  0.1094657E+04  0.7818608E-02  0.9267028E-01
          2   -1    0    0  501    0  0.00000000000E+00  0.00000000000E+00  0.74036514810E+03  0.74036514811E+03  0.25500000000E-02 0. -1.
         -2   -1    0    0    0  501 -0.00000000000E+00 -0.00000000000E+00 -0.14029365406E+04  0.14029365406E+04  0.25500000000E-02 0.  1.
    8880023    1    1    2    0    0 -0.76921480518E+03  0.41565991682E+03 -0.11572364952E+03  0.11007573540E+04  0.65864270000E+03 0.  0.
    8880022    1    1    2    0    0  0.76921480518E+03 -0.41565991682E+03 -0.54684774300E+03  0.10425443348E+04  0.15294330000E+03 0.  0.
<mgrwt>
<rscale>  0 0.10387584E+04</rscale>
<asrwt>0</asrwt>
<pdfrwt beam="1">  1        2 0.11390233E+00 0.10946574E+04</pdfrwt>
<pdfrwt beam="2">  1       -2 0.21583639E+00 0.10946574E+04</pdfrwt>
<totfact> 0.39468143E+00</totfact>
</mgrwt>
</event>
<event>
 4    5  0.2409888E-007  0.8777804E+03  0.7818608E-02  0.9562686E-01
         -2   -1    0    0    0  501 -0.00000000000E+00  0.00000000000E+00  0.28747516811E+03  0.28747516813E+03  0.25500000000E-02 0.  1.
          2   -1    0    0  501    0  0.00000000000E+00 -0.00000000000E+00 -0.24954527469E+04  0.24954527469E+04  0.25500000000E-02 0. -1.
    8880023    1    1    2    0    0  0.92454918421E+02  0.57283529374E+03 -0.59099782538E+03  0.10581950773E+04  0.65864270000E+03 0.  1.
    8880022    1    1    2    0    0 -0.92454918421E+02 -0.57283529374E+03 -0.16169797534E+04  0.17247328377E+04  0.15294330000E+03 0.  0.
<mgrwt>
<rscale>  0 0.79815870E+03</rscale>
<asrwt>0</asrwt>
<pdfrwt beam="1">  1        2 0.38391579E+00 0.87778038E+03</pdfrwt>
<pdfrwt beam="2">  1       -2 0.44226951E-01 0.87778038E+03</pdfrwt>
<totfact> 0.17444243E+01</totfact>
</mgrwt>
</event>
<event>
 4    5  0.2409888E-007  0.9546658E+03  0.7818608E-02  0.9443433E-01
          2   -1    0    0  501    0  0.00000000000E+00  0.00000000000E+00  0.30532129896E+04  0.30532129896E+04  0.25500000000E-02 0. -1.
         -2   -1    0    0    0  501 -0.00000000000E+00 -0.00000000000E+00 -0.28766239707E+03  0.28766239708E+03  0.25500000000E-02 0.  1.
    8880023    1    1    2    0    0  0.19659255856E+03  0.66251632340E+03  0.23091032627E+04  0.24986685649E+04  0.65864270000E+03 0.  0.
    8880022    1    1    2    0    0 -0.19659255856E+03 -0.66251632340E+03  0.45644732986E+03  0.84220682187E+03  0.15294330000E+03 0.  0.
<mgrwt>
<rscale>  0 0.88585936E+03</rscale>
<asrwt>0</asrwt>
<pdfrwt beam="1">  1        2 0.46972505E+00 0.95466576E+03</pdfrwt>
<pdfrwt beam="2">  1       -2 0.44255756E-01 0.95466576E+03</pdfrwt>
<totfact> 0.80460445E+00</totfact>
</mgrwt>
</event>
<event>
 4    5  0.2409888E-007  0.8173212E+03  0.7818608E-02  0.9674524E-01
         -2   -1    0    0    0  501 -0.00000000000E+00  0.00000000000E+00  0.26767920719E+03  0.26767920720E+03  0.25500000000E-02 0.  1.
          2   -1    0    0  501    0  0.00000000000E+00 -0.00000000000E+00 -0.19811611655E+04  0.19811611655E+04  0.25500000000E-02 0. -1.
    8880023    1    1    2    0    0 -0.27242588620E+03  0.39998490648E+03 -0.14788796395E+04  0.16897038152E+04  0.65864270000E+03 0.  0.
    8880022    1    1    2    0    0  0.27242588620E+03 -0.39998490648E+03 -0.23460231883E+03  0.55913655747E+03  0.15294330000E+03 0. -1.
<mgrwt>
<rscale>  0 0.72554083E+03</rscale>
<asrwt>0</asrwt>
<pdfrwt beam="1">  1        2 0.30479402E+00 0.81732123E+03</pdfrwt>
<pdfrwt beam="2">  1       -2 0.41181418E-01 0.81732123E+03</pdfrwt>
<totfact> 0.39094890E+01</totfact>
</mgrwt>
</event>
<event>
 4    5  0.2409888E-007  0.1833902E+04  0.7818608E-02  0.8704012E-01
          2   -1    0    0  501    0  0.00000000000E+00  0.00000000000E+00  0.23781498132E+04  0.23781498132E+04  0.25500000000E-02 0. -1.
         -2   -1    0    0    0  501 -0.00000000000E+00 -0.00000000000E+00 -0.13559683772E+04  0.13559683772E+04  0.25500000000E-02 0.  1.
    8880023    1    1    2    0    0  0.16975245518E+04  0.21862100008E+03  0.80238597442E+03  0.20017537820E+04  0.65864270000E+03 0.  0.
    8880022    1    1    2    0    0 -0.16975245518E+04 -0.21862100008E+03  0.21979546153E+03  0.17323644084E+04  0.15294330000E+03 0.  0.
<mgrwt>
<rscale>  0 0.18043087E+04</rscale>
<asrwt>0</asrwt>
<pdfrwt beam="1">  1        2 0.36586920E+00 0.18339016E+04</pdfrwt>
<pdfrwt beam="2">  1       -2 0.20861052E+00 0.18339016E+04</pdfrwt>
<totfact> 0.43439647E-01</totfact>
</mgrwt>
</event>
<event>
 4    5  0.2409888E-007  0.9391461E+03  0.7818608E-02  0.9465905E-01
         -2   -1    0    0    0  501 -0.00000000000E+00  0.00000000000E+00  0.35058844789E+03  0.35058844790E+03  0.25500000000E-02 0.  1.
          2   -1    0    0  501    0  0.00000000000E+00 -0.00000000000E+00 -0.21986659662E+04  0.21986659662E+04  0.25500000000E-02 0. -1.
    8880023    1    1    2    0    0  0.44305287762E+03 -0.50188579038E+03 -0.15234787855E+04  0.17896879659E+04  0.65864270000E+03 0. -1.
    8880022    1    1    2    0    0 -0.44305287762E+03  0.50188579038E+03 -0.32459873276E+03  0.75956644822E+03  0.15294330000E+03 0.  0.
<mgrwt>
<rscale>  0 0.86844822E+03</rscale>
<asrwt>0</asrwt>
<pdfrwt beam="1">  1        2 0.33825629E+00 0.93914610E+03</pdfrwt>
<pdfrwt beam="2">  1       -2 0.53936686E-01 0.93914610E+03</pdfrwt>
<totfact> 0.16977354E+01</totfact>
</mgrwt>
</event>
<event>
 4    5  0.3315969E-007  0.7986867E+03  0.7818608E-02  0.9713643E-01
         -2   -1    0    0    0  501 -0.00000000000E+00  0.00000000000E+00  0.10598225449E+04  0.10598225449E+04  0.25500000000E-02 0.  1.
          2   -1    0    0  501    0  0.00000000000E+00 -0.00000000000E+00 -0.19548146484E+04  0.19548146484E+04  0.25500000000E-02 0. -1.
    8880023    1    1    2    0    0 -0.45128827291E+03 -0.20715817344E+02 -0.18124420278E+04  0.19806177220E+04  0.65864270000E+03 0. -1.
    8880022    1    1    2    0    0  0.45128827291E+03  0.20715817344E+02  0.91744992431E+03  0.10340194713E+04  0.15294330000E+03 0.  0.
<mgrwt>
<rscale>  0 0.70210279E+03</rscale>
<asrwt>0</asrwt>
<pdfrwt beam="1">  1        2 0.30074071E+00 0.79868671E+03</pdfrwt>
<pdfrwt beam="2">  1       -2 0.16304962E+00 0.79868671E+03</pdfrwt>
<totfact> 0.17422493E+00</totfact>
</mgrwt>
</event>
<event>
 4    5  0.2409888E-007  0.8445403E+03  0.7818608E-02  0.9621678E-01
          2   -1    0    0  501    0  0.00000000000E+00  0.00000000000E+00  0.29066795558E+04  0.29066795558E+04  0.25500000000E-02 0. -1.
         -2   -1    0    0    0  501 -0.00000000000E+00 -0.00000000000E+00 -0.44165873855E+03  0.44165873856E+03  0.25500000000E-02 0.  1.
    8880023    1    1    2    0    0 -0.43342748103E+02  0.52683910365E+03  0.26392781191E+04  0.27711075820E+04  0.65864270000E+03 0. -1.
    8880022    1    1    2    0    0  0.43342748103E+02 -0.52683910365E+03 -0.17425730188E+03  0.57723071230E+03  0.15294330000E+03 0.  0.
<mgrwt>
<rscale>  0 0.75877860E+03</rscale>
<asrwt>0</asrwt>
<pdfrwt beam="1">  1        2 0.44718148E+00 0.84454025E+03</pdfrwt>
<pdfrwt beam="2">  1       -2 0.67947497E-01 0.84454025E+03</pdfrwt>
<totfact> 0.41251320E+00</totfact>
</mgrwt>
</event>
<event>
 4    5  0.2409888E-007  0.9562289E+03  0.7818608E-02  0.9441208E-01
         -2   -1    0    0    0  501 -0.00000000000E+00  0.00000000000E+00  0.26874931182E+03  0.26874931183E+03  0.25500000000E-02 0.  1.
          2   -1    0    0  501    0  0.00000000000E+00 -0.00000000000E+00 -0.33580907137E+04  0.33580907137E+04  0.25500000000E-02 0. -1.
    8880023    1    1    2    0    0  0.35370682454E+03 -0.59620052064E+03 -0.25845373021E+04  0.27557588521E+04  0.65864270000E+03 0. -1.
    8880022    1    1    2    0    0 -0.35370682454E+03  0.59620052064E+03 -0.50480409970E+03  0.87108117338E+03  0.15294330000E+03 0.  0.
<mgrwt>
<rscale>  0 0.88760636E+03</rscale>
<asrwt>0</asrwt>
<pdfrwt beam="1">  1        2 0.51662931E+00 0.95622894E+03</pdfrwt>
<pdfrwt beam="2">  1       -2 0.41346050E-01 0.95622894E+03</pdfrwt>
<totfact> 0.58653218E+00</totfact>
</mgrwt>
</event>
<event>
 4    5  0.2409888E-007  0.7190826E+03  0.7818608E-02  0.9925702E-01
          2   -1    0    0  501    0  0.00000000000E+00  0.00000000000E+00  0.75321143343E+03  0.75321143343E+03  0.25500000000E-02 0. -1.
         -2   -1    0    0    0  501 -0.00000000000E+00 -0.00000000000E+00 -0.37041900464E+03  0.37041900465E+03  0.25500000000E-02 0.  1.
    8880023    1    1    2    0    0  0.28015967388E+03 -0.69138553570E+02  0.33598188290E+03  0.79370247219E+03  0.65864270000E+03 0.  0.
    8880022    1    1    2    0    0 -0.28015967388E+03  0.69138553570E+02  0.46810545890E+02  0.32992796589E+03  0.15294330000E+03 0.  1.
<mgrwt>
<rscale>  0 0.59031649E+03</rscale>
<asrwt>0</asrwt>
<pdfrwt beam="1">  1        2 0.11587868E+00 0.71908260E+03</pdfrwt>
<pdfrwt beam="2">  1       -2 0.56987540E-01 0.71908260E+03</pdfrwt>
<totfact> 0.10914467E+02</totfact>
</mgrwt>
</event>
<event>
 4    5  0.2409888E-007  0.8318568E+03  0.7818608E-02  0.9645730E-01
          2   -1    0    0  501    0  0.00000000000E+00  0.00000000000E+00  0.18253728665E+04  0.18253728665E+04  0.25500000000E-02 0. -1.
         -2   -1    0    0    0  501 -0.00000000000E+00 -0.00000000000E+00 -0.41679504983E+03  0.41679504984E+03  0.25500000000E-02 0.  1.
    8880023    1    1    2    0    0 -0.49492909196E+03  0.11498123053E+03  0.14888716720E+04  0.17054983293E+04  0.65864270000E+03 0.  0.
    8880022    1    1    2    0    0  0.49492909196E+03 -0.11498123053E+03 -0.80293855288E+02  0.53666958704E+03  0.15294330000E+03 0.  0.
<mgrwt>
<rscale>  0 0.74341987E+03</rscale>
<asrwt>0</asrwt>
<pdfrwt beam="1">  1        2 0.28082660E+00 0.83185678E+03</pdfrwt>
<pdfrwt beam="2">  1       -2 0.64122315E-01 0.83185678E+03</pdfrwt>
<totfact> 0.19148303E+01</totfact>
</mgrwt>
</event>
<event>
 4    5  0.2409888E-007  0.8810660E+03  0.7818608E-02  0.9557137E-01
         -2   -1    0    0    0  501 -0.00000000000E+00  0.00000000000E+00  0.54520315653E+03  0.54520315654E+03  0.25500000000E-02 0.  1.
          2   -1    0    0  501    0  0.00000000000E+00 -0.00000000000E+00 -0.14965893430E+04  0.14965893430E+04  0.25500000000E-02 0. -1.
    8880023    1    1    2    0    0 -0.24924555257E+02 -0.58467585695E+03 -0.11093309164E+04  0.14166482907E+04  0.65864270000E+03 0.  0.
    8880022    1    1    2    0    0  0.24924555257E+02  0.58467585695E+03  0.15794472992E+03  0.62514420887E+03  0.15294330000E+03 0.  0.
<mgrwt>
<rscale>  0 0.80199288E+03</rscale>
<asrwt>0</asrwt>
<pdfrwt beam="1">  1        2 0.23024451E+00 0.88106600E+03</pdfrwt>
<pdfrwt beam="2">  1       -2 0.83877409E-01 0.88106600E+03</pdfrwt>
<totfact> 0.15972405E+01</totfact>
</mgrwt>
</event>
<event>
 4    5  0.2409888E-007  0.1446149E+04  0.7818608E-02  0.8948629E-01
         -2   -1    0    0    0  501 -0.00000000000E+00  0.00000000000E+00  0.15177073844E+04  0.15177073844E+04  0.25500000000E-02 0.  1.
          2   -1    0    0  501    0  0.00000000000E+00 -0.00000000000E+00 -0.18546651870E+04  0.18546651870E+04  0.25500000000E-02 0. -1.
    8880023    1    1    2    0    0 -0.36461825665E+03  0.12347432056E+04  0.79586617768E+03  0.16506818094E+04  0.65864270000E+03 0.  0.
    8880022    1    1    2    0    0  0.36461825665E+03 -0.12347432056E+04 -0.11328239803E+04  0.17216907620E+04  0.15294330000E+03 0.  0.
<mgrwt>
<rscale>  0 0.14071924E+04</rscale>
<asrwt>0</asrwt>
<pdfrwt beam="1">  1        2 0.28533310E+00 0.14461492E+04</pdfrwt>
<pdfrwt beam="2">  1       -2 0.23349344E+00 0.14461492E+04</pdfrwt>
<totfact> 0.61738086E-01</totfact>
</mgrwt>
</event>
<event>
 4    5  0.2409888E-007  0.1501262E+04  0.7818608E-02  0.8908745E-01
         -2   -1    0    0    0  501 -0.00000000000E+00  0.00000000000E+00  0.12946681115E+04  0.12946681115E+04  0.25500000000E-02 0.  1.
          2   -1    0    0  501    0  0.00000000000E+00 -0.00000000000E+00 -0.24830991625E+04  0.24830991625E+04  0.25500000000E-02 0. -1.
    8880023    1    1    2    0    0 -0.10209939866E+04  0.88178711816E+03 -0.17524501990E+04  0.23075677994E+04  0.65864270000E+03 0.  0.
    8880022    1    1    2    0    0  0.10209939866E+04 -0.88178711816E+03  0.56401914807E+03  0.14701994745E+04  0.15294330000E+03 0.  0.
<mgrwt>
<rscale>  0 0.14640095E+04</rscale>
<asrwt>0</asrwt>
<pdfrwt beam="1">  1        2 0.38201525E+00 0.15012620E+04</pdfrwt>
<pdfrwt beam="2">  1       -2 0.19917971E+00 0.15012620E+04</pdfrwt>
<totfact> 0.45047813E-01</totfact>
</mgrwt>
</event>
<event>
 4    5  0.2409888E-007  0.6883314E+03  0.7818608E-02  0.1004956E+00
          2   -1    0    0  501    0  0.00000000000E+00  0.00000000000E+00  0.70774201051E+03  0.70774201051E+03  0.25500000000E-02 0. -1.
         -2   -1    0    0    0  501 -0.00000000000E+00 -0.00000000000E+00 -0.68995106913E+03  0.68995106913E+03  0.25500000000E-02 0.  1.
    8880023    1    1    2    0    0 -0.12549641333E+03 -0.15569385644E+03  0.50200304916E+03  0.85194318726E+03  0.65864270000E+03 0. -1.
    8880022    1    1    2    0    0  0.12549641333E+03  0.15569385644E+03 -0.48421210778E+03  0.54574989238E+03  0.15294330000E+03 0.  0.
<mgrwt>
<rscale>  0 0.53529548E+03</rscale>
<asrwt>0</asrwt>
<pdfrwt beam="1">  1        2 0.10888339E+00 0.68833141E+03</pdfrwt>
<pdfrwt beam="2">  1       -2 0.10614632E+00 0.68833141E+03</pdfrwt>
<totfact> 0.29487955E+01</totfact>
</mgrwt>
</event>
<event>
 4    5  0.2409888E-007  0.7103322E+03  0.7818608E-02  0.9956769E-01
         -2   -1    0    0    0  501 -0.00000000000E+00  0.00000000000E+00  0.32272808346E+03  0.32272808347E+03  0.25500000000E-02 0.  1.
          2   -1    0    0  501    0  0.00000000000E+00 -0.00000000000E+00 -0.15791169173E+04  0.15791169173E+04  0.25500000000E-02 0. -1.
    8880023    1    1    2    0    0 -0.12728420602E+03  0.23358165057E+03 -0.13947754695E+04  0.15652381522E+04  0.65864270000E+03 0. -1.
    8880022    1    1    2    0    0  0.12728420602E+03 -0.23358165057E+03  0.13838663561E+03  0.33660684859E+03  0.15294330000E+03 0.  0.
<mgrwt>
<rscale>  0 0.57587150E+03</rscale>
<asrwt>0</asrwt>
<pdfrwt beam="1">  1        2 0.24294106E+00 0.71033222E+03</pdfrwt>
<pdfrwt beam="2">  1       -2 0.49650475E-01 0.71033222E+03</pdfrwt>
<totfact> 0.45205407E+01</totfact>
</mgrwt>
</event>
<event>
 4    5  0.2409888E-007  0.8210421E+03  0.7818608E-02  0.9667020E-01
         -2   -1    0    0    0  501 -0.00000000000E+00  0.00000000000E+00  0.55033302363E+03  0.55033302364E+03  0.25500000000E-02 0.  1.
          2   -1    0    0  501    0  0.00000000000E+00 -0.00000000000E+00 -0.14634049894E+04  0.14634049894E+04  0.25500000000E-02 0. -1.
    8880023    1    1    2    0    0  0.22658932070E+03 -0.43469202240E+03 -0.11780164452E+04  0.14359083627E+04  0.65864270000E+03 0. -1.
    8880022    1    1    2    0    0 -0.22658932070E+03  0.43469202240E+03  0.26494447946E+03  0.57782965033E+03  0.15294330000E+03 0.  0.
<mgrwt>
<rscale>  0 0.73014830E+03</rscale>
<asrwt>0</asrwt>
<pdfrwt beam="1">  1        2 0.22513923E+00 0.82104207E+03</pdfrwt>
<pdfrwt beam="2">  1       -2 0.84666620E-01 0.82104207E+03</pdfrwt>
<totfact> 0.16428586E+01</totfact>
</mgrwt>
</event>
<event>
 4    5  0.2655922E-007  0.7357651E+03  0.7818608E-02  0.9872459E-01
         -2   -1    0    0    0  501 -0.00000000000E+00  0.00000000000E+00  0.12789981273E+04  0.12789981273E+04  0.25500000000E-02 0.  1.
          2   -1    0    0  501    0  0.00000000000E+00 -0.00000000000E+00 -0.17815601833E+04  0.17815601833E+04  0.25500000000E-02 0. -1.
    8880023    1    1    2    0    0  0.32431094868E+03  0.48605438624E+02 -0.16771796898E+04  0.18314699010E+04  0.65864270000E+03 0. -1.
    8880022    1    1    2    0    0 -0.32431094868E+03 -0.48605438624E+02  0.11746176338E+04  0.12290884096E+04  0.15294330000E+03 0.  0.
<mgrwt>
<rscale>  0 0.61614794E+03</rscale>
<asrwt>0</asrwt>
<pdfrwt beam="1">  1        2 0.27408618E+00 0.73576510E+03</pdfrwt>
<pdfrwt beam="2">  1       -2 0.19676894E+00 0.73576510E+03</pdfrwt>
<totfact> 0.12844811E+00</totfact>
</mgrwt>
</event>
<event>
 4    5  0.2409888E-007  0.1297554E+04  0.7818608E-02  0.9067675E-01
         -2   -1    0    0    0  501 -0.00000000000E+00  0.00000000000E+00  0.46388173751E+04  0.46388173751E+04  0.25500000000E-02 0.  1.
          2   -1    0    0  501    0  0.00000000000E+00 -0.00000000000E+00 -0.10391612509E+04  0.10391612509E+04  0.25500000000E-02 0. -1.
    8880023    1    1    2    0    0  0.76217848599E+03 -0.81787491666E+03 -0.52651039248E+03  0.14003066891E+04  0.65864270000E+03 0.  0.
    8880022    1    1    2    0    0 -0.76217848599E+03  0.81787491666E+03  0.41261665167E+04  0.42776719369E+04  0.15294330000E+03 0.  0.
<mgrwt>
<rscale>  0 0.12530178E+04</rscale>
<asrwt>0</asrwt>
<pdfrwt beam="1">  1        2 0.15987096E+00 0.12975537E+04</pdfrwt>
<pdfrwt beam="2">  1       -2 0.71366424E+00 0.12975537E+04</pdfrwt>
<totfact> 0.46530619E-03</totfact>
</mgrwt>
</event>
<event>
 4    5  0.2409888E-007  0.7388194E+03  0.7818608E-02  0.9863399E-01
         -2   -1    0    0    0  501 -0.00000000000E+00  0.00000000000E+00  0.29745829431E+03  0.29745829432E+03  0.25500000000E-02 0.  1.
          2   -1    0    0  501    0  0.00000000000E+00 -0.00000000000E+00 -0.12627959010E+04  0.12627959010E+04  0.25500000000E-02 0. -1.
    8880023    1    1    2    0    0 -0.29598794448E+03 -0.15631724446E+03 -0.93402904519E+03  0.11909090678E+04  0.65864270000E+03 0. -1.
    8880022    1    1    2    0    0  0.29598794448E+03  0.15631724446E+03 -0.31308561480E+02  0.36934512753E+03  0.15294330000E+03 0.  1.
<mgrwt>
<rscale>  0 0.62068369E+03</rscale>
<asrwt>0</asrwt>
<pdfrwt beam="1">  1        2 0.19427629E+00 0.73881943E+03</pdfrwt>
<pdfrwt beam="2">  1       -2 0.45762815E-01 0.73881943E+03</pdfrwt>
<totfact> 0.80107159E+01</totfact>
</mgrwt>
</event>
<event>
 4    5  0.2409888E-007  0.1452530E+04  0.7818608E-02  0.8943904E-01
          2   -1    0    0  501    0  0.00000000000E+00  0.00000000000E+00  0.36593650686E+04  0.36593650686E+04  0.25500000000E-02 0. -1.
         -2   -1    0    0    0  501 -0.00000000000E+00 -0.00000000000E+00 -0.12340049265E+04  0.12340049265E+04  0.25500000000E-02 0.  1.
    8880023    1    1    2    0    0 -0.11180882035E+04  0.65262024142E+03  0.31015381450E+04  0.34248187517E+04  0.65864270000E+03 0.  0.
    8880022    1    1    2    0    0  0.11180882035E+04 -0.65262024142E+03 -0.67617800294E+03  0.14685512435E+04  0.15294330000E+03 0.  0.
<mgrwt>
<rscale>  0 0.14137796E+04</rscale>
<asrwt>0</asrwt>
<pdfrwt beam="1">  1        2 0.56297924E+00 0.14525304E+04</pdfrwt>
<pdfrwt beam="2">  1       -2 0.18984691E+00 0.14525304E+04</pdfrwt>
<totfact> 0.93001985E-02</totfact>
</mgrwt>
</event>
<event>
 4    5  0.2409888E-007  0.1286581E+04  0.7818608E-02  0.9077235E-01
          2   -1    0    0  501    0  0.00000000000E+00  0.00000000000E+00  0.20027930813E+04  0.20027930813E+04  0.25500000000E-02 0. -1.
         -2   -1    0    0    0  501 -0.00000000000E+00 -0.00000000000E+00 -0.76138371124E+03  0.76138371124E+03  0.25500000000E-02 0.  1.
    8880023    1    1    2    0    0 -0.92888267196E+03  0.59888049521E+03  0.98241066398E+03  0.16187716901E+04  0.65864270000E+03 0. -1.
    8880022    1    1    2    0    0  0.92888267196E+03 -0.59888049521E+03  0.25899870605E+03  0.11454051024E+04  0.15294330000E+03 0.  0.
<mgrwt>
<rscale>  0 0.12415623E+04</rscale>
<asrwt>0</asrwt>
<pdfrwt beam="1">  1        2 0.30812201E+00 0.12865812E+04</pdfrwt>
<pdfrwt beam="2">  1       -2 0.11713596E+00 0.12865812E+04</pdfrwt>
<totfact> 0.36332641E+00</totfact>
</mgrwt>
</event>
<event>
 4    5  0.2409888E-007  0.6599799E+03  0.7818608E-02  0.1024177E+00
          2   -1    0    0  501    0  0.00000000000E+00  0.00000000000E+00  0.19081887936E+03  0.19081887938E+03  0.25500000000E-02 0. -1.
         -2   -1    0    0    0  501 -0.00000000000E+00 -0.00000000000E+00 -0.21005714720E+04  0.21005714720E+04  0.25500000000E-02 0.  1.
    8880023    1    1    2    0    0 -0.57355603189E+01  0.41597275218E+02 -0.39666024316E+03  0.77000830172E+03  0.65864270000E+03 0. -1.
    8880022    1    1    2    0    0  0.57355603189E+01 -0.41597275218E+02 -0.15130923495E+04  0.15213820497E+04  0.15294330000E+03 0.  0.
<mgrwt>
<rscale>  0 0.46208919E+03</rscale>
<asrwt>0</asrwt>
<pdfrwt beam="1">  1        2 0.29356752E-01 0.65997988E+03</pdfrwt>
<pdfrwt beam="2">  1       -2 0.32316483E+00 0.65997988E+03</pdfrwt>
<totfact> 0.44157386E+00</totfact>
</mgrwt>
</event>
<event>
 4    5  0.2409888E-007  0.7730211E+03  0.7818608E-02  0.9772493E-01
          2   -1    0    0  501    0  0.00000000000E+00  0.00000000000E+00  0.22968939575E+04  0.22968939575E+04  0.25500000000E-02 0. -1.
         -2   -1    0    0    0  501 -0.00000000000E+00 -0.00000000000E+00 -0.30497177958E+03  0.30497177959E+03  0.25500000000E-02 0.  1.
    8880023    1    1    2    0    0 -0.17818649445E+03  0.36331937250E+03  0.20254674126E+04  0.21679667523E+04  0.65864270000E+03 0. -1.
    8880022    1    1    2    0    0  0.17818649445E+03 -0.36331937250E+03 -0.33545234676E+02  0.43389898481E+03  0.15294330000E+03 0.  0.
<mgrwt>
<rscale>  0 0.66859822E+03</rscale>
<asrwt>0</asrwt>
<pdfrwt beam="1">  1        2 0.35336830E+00 0.77302109E+03</pdfrwt>
<pdfrwt beam="2">  1       -2 0.46918735E-01 0.77302109E+03</pdfrwt>
<totfact> 0.20332327E+01</totfact>
</mgrwt>
</event>
<event>
 4    5  0.2409888E-007  0.1271963E+04  0.7818608E-02  0.9090157E-01
          2   -1    0    0  501    0  0.00000000000E+00  0.00000000000E+00  0.11773662128E+04  0.11773662128E+04  0.25500000000E-02 0. -1.
         -2   -1    0    0    0  501 -0.00000000000E+00 -0.00000000000E+00 -0.12249441027E+04  0.12249441027E+04  0.25500000000E-02 0.  1.
    8880023    1    1    2    0    0  0.66063644926E+03 -0.86466170507E+03  0.16645781130E+03  0.12828089458E+04  0.65864270000E+03 0.  0.
    8880022    1    1    2    0    0 -0.66063644926E+03  0.86466170507E+03 -0.21403570127E+03  0.11195013697E+04  0.15294330000E+03 0.  0.
<mgrwt>
<rscale>  0 0.12262826E+04</rscale>
<asrwt>0</asrwt>
<pdfrwt beam="1">  1        2 0.18113326E+00 0.12719633E+04</pdfrwt>
<pdfrwt beam="2">  1       -2 0.18845294E+00 0.12719633E+04</pdfrwt>
<totfact> 0.29938406E+00</totfact>
</mgrwt>
</event>
<event>
 4    5  0.2409888E-007  0.1097374E+04  0.7818608E-02  0.9263985E-01
         -2   -1    0    0    0  501 -0.00000000000E+00  0.00000000000E+00  0.12505217760E+04  0.12505217760E+04  0.25500000000E-02 0.  1.
          2   -1    0    0  501    0  0.00000000000E+00 -0.00000000000E+00 -0.11429892088E+04  0.11429892088E+04  0.25500000000E-02 0. -1.
    8880023    1    1    2    0    0  0.53264243131E+03  0.69764754024E+03 -0.60461468526E+03  0.12529122770E+04  0.65864270000E+03 0.  0.
    8880022    1    1    2    0    0 -0.53264243131E+03 -0.69764754024E+03  0.71214725242E+03  0.11405987078E+04  0.15294330000E+03 0.  0.
<mgrwt>
<rscale>  0 0.10416715E+04</rscale>
<asrwt>0</asrwt>
<pdfrwt beam="1">  1        2 0.17584449E+00 0.10973743E+04</pdfrwt>
<pdfrwt beam="2">  1       -2 0.19238796E+00 0.10973743E+04</pdfrwt>
<totfact> 0.30059232E+00</totfact>
</mgrwt>
</event>
<event>
 4    5  0.2409888E-007  0.1236146E+04  0.7818608E-02  0.9122762E-01
          2   -1    0    0  501    0  0.00000000000E+00  0.00000000000E+00  0.10334080138E+04  0.10334080138E+04  0.25500000000E-02 0. -1.
         -2   -1    0    0    0  501 -0.00000000000E+00 -0.00000000000E+00 -0.13147963613E+04  0.13147963613E+04  0.25500000000E-02 0.  1.
    8880023    1    1    2    0    0  0.71267542039E+03  0.76572917815E+03  0.59053489057E+02  0.12375560391E+04  0.65864270000E+03 0.  0.
    8880022    1    1    2    0    0 -0.71267542039E+03 -0.76572917815E+03 -0.34044183663E+03  0.11106483360E+04  0.15294330000E+03 0.  0.
<mgrwt>
<rscale>  0 0.11887488E+04</rscale>
<asrwt>0</asrwt>
<pdfrwt beam="1">  1        2 0.15898585E+00 0.12361463E+04</pdfrwt>
<pdfrwt beam="2">  1       -2 0.20227636E+00 0.12361463E+04</pdfrwt>
<totfact> 0.29864453E+00</totfact>
</mgrwt>
</event>
<event>
 4    5  0.2409888E-007  0.9707652E+03  0.7818608E-02  0.9420847E-01
         -2   -1    0    0    0  501 -0.00000000000E+00  0.00000000000E+00  0.94453055559E+03  0.94453055560E+03  0.25500000000E-02 0.  1.
          2   -1    0    0  501    0  0.00000000000E+00 -0.00000000000E+00 -0.13070304940E+04  0.13070304940E+04  0.25500000000E-02 0. -1.
    8880023    1    1    2    0    0 -0.70602161682E+03  0.10054052475E+03 -0.91696926137E+03  0.13353717659E+04  0.65864270000E+03 0.  0.
    8880022    1    1    2    0    0  0.70602161682E+03 -0.10054052475E+03  0.55446932295E+03  0.91618928374E+03  0.15294330000E+03 0.  0.
<mgrwt>
<rscale>  0 0.90379764E+03</rscale>
<asrwt>0</asrwt>
<pdfrwt beam="1">  1        2 0.20108161E+00 0.97076523E+03</pdfrwt>
<pdfrwt beam="2">  1       -2 0.14531239E+00 0.97076523E+03</pdfrwt>
<totfact> 0.53088786E+00</totfact>
</mgrwt>
</event>
<event>
 4    5  0.2409888E-007  0.1161012E+04  0.7818608E-02  0.9195986E-01
          2   -1    0    0  501    0  0.00000000000E+00  0.00000000000E+00  0.47625987198E+04  0.47625987198E+04  0.25500000000E-02 0. -1.
         -2   -1    0    0    0  501 -0.00000000000E+00 -0.00000000000E+00 -0.80848985441E+03  0.80848985442E+03  0.25500000000E-02 0.  1.
    8880023    1    1    2    0    0 -0.85156010126E+03  0.43472257801E+03  0.43668305789E+04  0.45185349215E+04  0.65864270000E+03 0.  0.
    8880022    1    1    2    0    0  0.85156010126E+03 -0.43472257801E+03 -0.41272171355E+03  0.10525536527E+04  0.15294330000E+03 0.  0.
<mgrwt>
<rscale>  0 0.11094957E+04</rscale>
<asrwt>0</asrwt>
<pdfrwt beam="1">  1        2 0.73270751E+00 0.11610119E+04</pdfrwt>
<pdfrwt beam="2">  1       -2 0.12438305E+00 0.11610119E+04</pdfrwt>
<totfact> 0.33278642E-02</totfact>
</mgrwt>
</event>
<event>
 4    5  0.2409888E-007  0.6933291E+03  0.7818608E-02  0.1002609E+00
         -2   -1    0    0    0  501 -0.00000000000E+00  0.00000000000E+00  0.34112636468E+03  0.34112636469E+03  0.25500000000E-02 0.  1.
          2   -1    0    0  501    0  0.00000000000E+00 -0.00000000000E+00 -0.17091380099E+04  0.17091380099E+04  0.25500000000E-02 0. -1.
    8880023    1    1    2    0    0 -0.37812555912E+02 -0.21322589595E+03 -0.15704549560E+04  0.17166927644E+04  0.65864270000E+03 0. -1.
    8880022    1    1    2    0    0  0.37812555912E+02  0.21322589595E+03  0.20244331076E+03  0.33357161027E+03  0.15294330000E+03 0.  0.
<mgrwt>
<rscale>  0 0.54520992E+03</rscale>
<asrwt>0</asrwt>
<pdfrwt beam="1">  1        2 0.26294430E+00 0.69332913E+03</pdfrwt>
<pdfrwt beam="2">  1       -2 0.52480980E-01 0.69332913E+03</pdfrwt>
<totfact> 0.34328955E+01</totfact>
</mgrwt>
</event>
<event>
 4    5  0.2409888E-007  0.1187169E+04  0.7818608E-02  0.9169696E-01
         -2   -1    0    0    0  501 -0.00000000000E+00  0.00000000000E+00  0.85911740750E+03  0.85911740751E+03  0.25500000000E-02 0.  1.
          2   -1    0    0  501    0  0.00000000000E+00 -0.00000000000E+00 -0.27382059669E+04  0.27382059669E+04  0.25500000000E-02 0. -1.
    8880023    1    1    2    0    0  0.77654863314E+03  0.61035508233E+03 -0.22396184312E+04  0.25348100579E+04  0.65864270000E+03 0.  0.
    8880022    1    1    2    0    0 -0.77654863314E+03 -0.61035508233E+03  0.36052987183E+03  0.10625133165E+04  0.15294330000E+03 0.  0.
<mgrwt>
<rscale>  0 0.11371759E+04</rscale>
<asrwt>0</asrwt>
<pdfrwt beam="1">  1        2 0.42126245E+00 0.11871695E+04</pdfrwt>
<pdfrwt beam="2">  1       -2 0.13217191E+00 0.11871695E+04</pdfrwt>
<totfact> 0.10324820E+00</totfact>
</mgrwt>
</event>
<event>
 4    5  0.2409888E-007  0.8404105E+03  0.7818608E-02  0.9629407E-01
         -2   -1    0    0    0  501 -0.00000000000E+00  0.00000000000E+00  0.54122889473E+03  0.54122889473E+03  0.25500000000E-02 0.  1.
          2   -1    0    0  501    0  0.00000000000E+00 -0.00000000000E+00 -0.11400496332E+04  0.11400496332E+04  0.25500000000E-02 0. -1.
    8880023    1    1    2    0    0 -0.29416255408E+03  0.43121682045E+03 -0.73949864506E+03  0.11194409349E+04  0.65864270000E+03 0. -1.
    8880022    1    1    2    0    0  0.29416255408E+03 -0.43121682045E+03  0.14067790662E+03  0.56183759298E+03  0.15294330000E+03 0.  0.
<mgrwt>
<rscale>  0 0.75380051E+03</rscale>
<asrwt>0</asrwt>
<pdfrwt beam="1">  1        2 0.17539225E+00 0.84041047E+03</pdfrwt>
<pdfrwt beam="2">  1       -2 0.83265984E-01 0.84041047E+03</pdfrwt>
<totfact> 0.26230009E+01</totfact>
</mgrwt>
</event>
<event>
 4    5  0.2409888E-007  0.1321931E+04  0.7818608E-02  0.9046849E-01
          2   -1    0    0  501    0  0.00000000000E+00  0.00000000000E+00  0.11253364470E+04  0.11253364470E+04  0.25500000000E-02 0. -1.
         -2   -1    0    0    0  501 -0.00000000000E+00 -0.00000000000E+00 -0.15219273164E+04  0.15219273164E+04  0.25500000000E-02 0.  1.
    8880023    1    1    2    0    0 -0.10670893485E+04 -0.41834385457E+03  0.21478144216E+03  0.13392656691E+04  0.65864270000E+03 0.  0.
    8880022    1    1    2    0    0  0.10670893485E+04  0.41834385457E+03 -0.61137231157E+03  0.13079980943E+04  0.15294330000E+03 0.  0.
<mgrwt>
<rscale>  0 0.12784283E+04</rscale>
<asrwt>0</asrwt>
<pdfrwt beam="1">  1        2 0.17312868E+00 0.13219310E+04</pdfrwt>
<pdfrwt beam="2">  1       -2 0.23414267E+00 0.13219310E+04</pdfrwt>
<totfact> 0.16263285E+00</totfact>
</mgrwt>
</event>
<event>
 4    5  0.2409888E-007  0.7667381E+03  0.7818608E-02  0.9787966E-01
          2   -1    0    0  501    0  0.00000000000E+00  0.00000000000E+00  0.20386283688E+04  0.20386283688E+04  0.25500000000E-02 0. -1.
         -2   -1    0    0    0  501 -0.00000000000E+00 -0.00000000000E+00 -0.48074674312E+03  0.48074674313E+03  0.25500000000E-02 0.  1.
    8880023    1    1    2    0    0  0.19584641078E+03 -0.34017825697E+03  0.18527668371E+04  0.20051514212E+04  0.65864270000E+03 0. -1.
    8880022    1    1    2    0    0 -0.19584641078E+03  0.34017825697E+03 -0.29488521143E+03  0.51422369069E+03  0.15294330000E+03 0.  0.
<mgrwt>
<rscale>  0 0.66012396E+03</rscale>
<asrwt>0</asrwt>
<pdfrwt beam="1">  1        2 0.31363513E+00 0.76673807E+03</pdfrwt>
<pdfrwt beam="2">  1       -2 0.73961038E-01 0.76673807E+03</pdfrwt>
<totfact> 0.10824059E+01</totfact>
</mgrwt>
</event>
<event>
 4    5  0.2409888E-007  0.9274486E+03  0.7818608E-02  0.9483331E-01
          2   -1    0    0  501    0  0.00000000000E+00  0.00000000000E+00  0.17666594023E+04  0.17666594023E+04  0.25500000000E-02 0. -1.
         -2   -1    0    0    0  501 -0.00000000000E+00 -0.00000000000E+00 -0.43715551292E+03  0.43715551293E+03  0.25500000000E-02 0.  1.
    8880023    1    1    2    0    0  0.57613081839E+03  0.30728484096E+03  0.12068642034E+04  0.15220650792E+04  0.65864270000E+03 0.  0.
    8880022    1    1    2    0    0 -0.57613081839E+03 -0.30728484096E+03  0.12263968592E+03  0.68174983605E+03  0.15294330000E+03 0.  0.
<mgrwt>
<rscale>  0 0.85523971E+03</rscale>
<asrwt>0</asrwt>
<pdfrwt beam="1">  1        2 0.27179375E+00 0.92744860E+03</pdfrwt>
<pdfrwt beam="2">  1       -2 0.67254695E-01 0.92744860E+03</pdfrwt>
<totfact> 0.18405667E+01</totfact>
</mgrwt>
</event>
<event>
 4    5  0.2409888E-007  0.1385779E+04  0.7818608E-02  0.8994813E-01
         -2   -1    0    0    0  501 -0.00000000000E+00  0.00000000000E+00  0.15614720388E+04  0.15614720388E+04  0.25500000000E-02 0.  1.
          2   -1    0    0  501    0  0.00000000000E+00 -0.00000000000E+00 -0.21449355199E+04  0.21449355199E+04  0.25500000000E-02 0. -1.
    8880023    1    1    2    0    0  0.94255227958E+02  0.12156019171E+04 -0.15963658516E+04  0.21139456490E+04  0.65864270000E+03 0.  0.
    8880022    1    1    2    0    0 -0.94255227958E+02 -0.12156019171E+04  0.10129023704E+04  0.15924619097E+04  0.15294330000E+03 0.  0.
<mgrwt>
<rscale>  0 0.13447489E+04</rscale>
<asrwt>0</asrwt>
<pdfrwt beam="1">  1        2 0.32999008E+00 0.13857786E+04</pdfrwt>
<pdfrwt beam="2">  1       -2 0.24022647E+00 0.13857786E+04</pdfrwt>
<totfact> 0.38898680E-01</totfact>
</mgrwt>
</event>
<event>
 4    5  0.2409888E-007  0.7244804E+03  0.7818608E-02  0.9907707E-01
          2   -1    0    0  501    0  0.00000000000E+00  0.00000000000E+00  0.22019823547E+04  0.22019823547E+04  0.25500000000E-02 0. -1.
         -2   -1    0    0    0  501 -0.00000000000E+00 -0.00000000000E+00 -0.28109009621E+03  0.28109009622E+03  0.25500000000E-02 0.  1.
    8880023    1    1    2    0    0 -0.20757924168E+03 -0.21902629686E+03  0.20071846124E+04  0.21339310989E+04  0.65864270000E+03 0. -1.
    8880022    1    1    2    0    0  0.20757924168E+03  0.21902629686E+03 -0.86292353971E+02  0.34914135198E+03  0.15294330000E+03 0.  0.
<mgrwt>
<rscale>  0 0.59889203E+03</rscale>
<asrwt>0</asrwt>
<pdfrwt beam="1">  1        2 0.33876653E+00 0.72448041E+03</pdfrwt>
<pdfrwt beam="2">  1       -2 0.43244629E-01 0.72448041E+03</pdfrwt>
<totfact> 0.27183601E+01</totfact>
</mgrwt>
</event>
<event>
 4    5  0.2409888E-007  0.8168435E+03  0.7818608E-02  0.9675495E-01
          2   -1    0    0  501    0  0.00000000000E+00  0.00000000000E+00  0.17279254503E+04  0.17279254503E+04  0.25500000000E-02 0. -1.
         -2   -1    0    0    0  501 -0.00000000000E+00 -0.00000000000E+00 -0.59084038774E+03  0.59084038774E+03  0.25500000000E-02 0.  1.
    8880023    1    1    2    0    0 -0.47037102956E+03 -0.11033687591E+03  0.14913826820E+04  0.17004280761E+04  0.65864270000E+03 0. -1.
    8880022    1    1    2    0    0  0.47037102956E+03  0.11033687591E+03 -0.35429761945E+03  0.61833776191E+03  0.15294330000E+03 0.  0.
<mgrwt>
<rscale>  0 0.72494766E+03</rscale>
<asrwt>0</asrwt>
<pdfrwt beam="1">  1        2 0.26583468E+00 0.81684352E+03</pdfrwt>
<pdfrwt beam="2">  1       -2 0.90898524E-01 0.81684352E+03</pdfrwt>
<totfact> 0.99665730E+00</totfact>
</mgrwt>
</event>
<event>
 4    5  0.2409888E-007  0.7213280E+03  0.7818608E-02  0.9918118E-01
          2   -1    0    0  501    0  0.00000000000E+00  0.00000000000E+00  0.14793031494E+04  0.14793031494E+04  0.25500000000E-02 0. -1.
         -2   -1    0    0    0  501 -0.00000000000E+00 -0.00000000000E+00 -0.24397204557E+03  0.24397204558E+03  0.25500000000E-02 0.  1.
    8880023    1    1    2    0    0  0.15499278944E+03  0.24996213123E+03  0.11859831605E+04  0.13881174645E+04  0.65864270000E+03 0. -1.
    8880022    1    1    2    0    0 -0.15499278944E+03 -0.24996213123E+03  0.49347943345E+02  0.33515773056E+03  0.15294330000E+03 0.  1.
<mgrwt>
<rscale>  0 0.59391194E+03</rscale>
<asrwt>0</asrwt>
<pdfrwt beam="1">  1        2 0.22758510E+00 0.72132797E+03</pdfrwt>
<pdfrwt beam="2">  1       -2 0.37534161E-01 0.72132797E+03</pdfrwt>
<totfact> 0.89179646E+01</totfact>
</mgrwt>
</event>
<event>
 4    5  0.2409888E-007  0.7100981E+03  0.7818608E-02  0.9957637E-01
          2   -1    0    0  501    0  0.00000000000E+00  0.00000000000E+00  0.22094502649E+04  0.22094502649E+04  0.25500000000E-02 0. -1.
         -2   -1    0    0    0  501 -0.00000000000E+00 -0.00000000000E+00 -0.36572468826E+03  0.36572468827E+03  0.25500000000E-02 0.  1.
    8880023    1    1    2    0    0 -0.24614801817E+03 -0.99198364737E+02  0.20738541498E+04  0.21920562045E+04  0.65864270000E+03 0. -1.
    8880022    1    1    2    0    0  0.24614801817E+03  0.99198364737E+02 -0.23012857319E+03  0.38311874873E+03  0.15294330000E+03 0.  0.
<mgrwt>
<rscale>  0 0.57547463E+03</rscale>
<asrwt>0</asrwt>
<pdfrwt beam="1">  1        2 0.33991542E+00 0.71009814E+03</pdfrwt>
<pdfrwt beam="2">  1       -2 0.56265337E-01 0.71009814E+03</pdfrwt>
<totfact> 0.15818634E+01</totfact>
</mgrwt>
</event>
<event>
 4    5  0.2409888E-007  0.1066079E+04  0.7818608E-02  0.9299798E-01
         -2   -1    0    0    0  501 -0.00000000000E+00  0.00000000000E+00  0.17740210076E+04  0.17740210076E+04  0.25500000000E-02 0.  1.
          2   -1    0    0  501    0  0.00000000000E+00 -0.00000000000E+00 -0.10186181613E+04  0.10186181613E+04  0.25500000000E-02 0. -1.
    8880023    1    1    2    0    0  0.46282090063E+03 -0.69893525459E+03 -0.57612518185E+03  0.12117937562E+04  0.65864270000E+03 0.  0.
    8880022    1    1    2    0    0 -0.46282090063E+03  0.69893525459E+03  0.13315280281E+04  0.15808454127E+04  0.15294330000E+03 0.  0.
<mgrwt>
<rscale>  0 0.10080148E+04</rscale>
<asrwt>0</asrwt>
<pdfrwt beam="1">  1        2 0.15671049E+00 0.10660787E+04</pdfrwt>
<pdfrwt beam="2">  1       -2 0.27292631E+00 0.10660787E+04</pdfrwt>
<totfact> 0.11298483E+00</totfact>
</mgrwt>
</event>
<event>
 4    5  0.2409888E-007  0.7479895E+03  0.7818608E-02  0.9837257E-01
          2   -1    0    0  501    0  0.00000000000E+00  0.00000000000E+00  0.28494300699E+04  0.28494300699E+04  0.25500000000E-02 0. -1.
         -2   -1    0    0    0  501 -0.00000000000E+00 -0.00000000000E+00 -0.19777874303E+03  0.19777874305E+03  0.25500000000E-02 0.  1.
    8880023    1    1    2    0    0  0.71236291925E+02  0.34728007334E+03  0.25362306363E+04  0.26442303427E+04  0.65864270000E+03 0. -1.
    8880022    1    1    2    0    0 -0.71236291925E+02 -0.34728007334E+03  0.11542069055E+03  0.40297847020E+03  0.15294330000E+03 0.  0.
<mgrwt>
<rscale>  0 0.63400881E+03</rscale>
<asrwt>0</asrwt>
<pdfrwt beam="1">  1        2 0.43837385E+00 0.74798948E+03</pdfrwt>
<pdfrwt beam="2">  1       -2 0.30427499E-01 0.74798948E+03</pdfrwt>
<totfact> 0.22717870E+01</totfact>
</mgrwt>
</event>
<event>
 4    5  0.2409888E-007  0.1608875E+04  0.7818608E-02  0.8836351E-01
          2   -1    0    0  501    0  0.00000000000E+00  0.00000000000E+00  0.13837659702E+04  0.13837659702E+04  0.25500000000E-02 0. -1.
         -2   -1    0    0    0  501 -0.00000000000E+00 -0.00000000000E+00 -0.25432837979E+04  0.25432837979E+04  0.25500000000E-02 0.  1.
    8880023    1    1    2    0    0  0.14049709574E+04 -0.42511909096E+03  0.52039535696E+03  0.16909438685E+04  0.65864270000E+03 0. -1.
    8880022    1    1    2    0    0 -0.14049709574E+04  0.42511909096E+03 -0.16799131847E+04  0.22361058995E+04  0.15294330000E+03 0.  0.
<mgrwt>
<rscale>  0 0.15745286E+04</rscale>
<asrwt>0</asrwt>
<pdfrwt beam="1">  1        2 0.21288707E+00 0.16088753E+04</pdfrwt>
<pdfrwt beam="2">  1       -2 0.39127443E+00 0.16088753E+04</pdfrwt>
<totfact> 0.11662236E-01</totfact>
</mgrwt>
</event>
<event>
 4    5  0.2409888E-007  0.1185212E+04  0.7818608E-02  0.9171633E-01
         -2   -1    0    0    0  501 -0.00000000000E+00  0.00000000000E+00  0.14585580347E+04  0.14585580347E+04  0.25500000000E-02 0.  1.
          2   -1    0    0  501    0  0.00000000000E+00 -0.00000000000E+00 -0.83784353078E+03  0.83784353078E+03  0.25500000000E-02 0. -1.
    8880023    1    1    2    0    0  0.98527733406E+03 -0.12102723450E+02  0.15312909976E+03  0.11950634412E+04  0.65864270000E+03 0.  0.
    8880022    1    1    2    0    0 -0.98527733406E+03  0.12102723450E+02  0.46758540419E+03  0.11013381244E+04  0.15294330000E+03 0.  0.
<mgrwt>
<rscale>  0 0.11351083E+04</rscale>
<asrwt>0</asrwt>
<pdfrwt beam="1">  1        2 0.12889901E+00 0.11852123E+04</pdfrwt>
<pdfrwt beam="2">  1       -2 0.22439354E+00 0.11852123E+04</pdfrwt>
<totfact> 0.29296959E+00</totfact>
</mgrwt>
</event>
<event>
 4    5  0.2409888E-007  0.9380001E+03  0.7818608E-02  0.9467594E-01
         -2   -1    0    0    0  501 -0.00000000000E+00  0.00000000000E+00  0.15872010132E+04  0.15872010132E+04  0.25500000000E-02 0.  1.
          2   -1    0    0  501    0  0.00000000000E+00 -0.00000000000E+00 -0.97408511897E+03  0.97408511897E+03  0.25500000000E-02 0. -1.
    8880023    1    1    2    0    0 -0.47414583433E+03 -0.47033992666E+03 -0.63830585004E+03  0.11345829557E+04  0.65864270000E+03 0.  0.
    8880022    1    1    2    0    0  0.47414583433E+03  0.47033992666E+03  0.12514217443E+04  0.14267031765E+04  0.15294330000E+03 0.  0.
<mgrwt>
<rscale>  0 0.86715752E+03</rscale>
<asrwt>0</asrwt>
<pdfrwt beam="1">  1        2 0.14985925E+00 0.93800007E+03</pdfrwt>
<pdfrwt beam="2">  1       -2 0.24418477E+00 0.93800007E+03</pdfrwt>
<totfact> 0.18346486E+00</totfact>
</mgrwt>
</event>
<event>
 4    5  0.2409888E-007  0.7398358E+03  0.7818608E-02  0.9860426E-01
         -2   -1    0    0    0  501 -0.00000000000E+00  0.00000000000E+00  0.30637385400E+03  0.30637385401E+03  0.25500000000E-02 0.  1.
          2   -1    0    0  501    0  0.00000000000E+00 -0.00000000000E+00 -0.11605393178E+04  0.11605393178E+04  0.25500000000E-02 0. -1.
    8880023    1    1    2    0    0  0.12328333411E+03  0.31360484216E+03 -0.80545300199E+03  0.10936688357E+04  0.65864270000E+03 0.  0.
    8880022    1    1    2    0    0 -0.12328333411E+03 -0.31360484216E+03 -0.48712461816E+02  0.37324433612E+03  0.15294330000E+03 0.  0.
<mgrwt>
<rscale>  0 0.62218161E+03</rscale>
<asrwt>0</asrwt>
<pdfrwt beam="1">  1        2 0.17854451E+00 0.73983578E+03</pdfrwt>
<pdfrwt beam="2">  1       -2 0.47134440E-01 0.73983578E+03</pdfrwt>
<totfact> 0.86740452E+01</totfact>
</mgrwt>
</event>
<event>
 4    5  0.2409888E-007  0.9574807E+03  0.7818608E-02  0.9439432E-01
         -2   -1    0    0    0  501 -0.00000000000E+00  0.00000000000E+00  0.12715232985E+04  0.12715232985E+04  0.25500000000E-02 0.  1.
          2   -1    0    0  501    0  0.00000000000E+00 -0.00000000000E+00 -0.13383628328E+04  0.13383628328E+04  0.25500000000E-02 0. -1.
    8880023    1    1    2    0    0 -0.27251011793E+03  0.63929440099E+03 -0.10339535594E+04  0.14091945447E+04  0.65864270000E+03 0.  0.
    8880022    1    1    2    0    0  0.27251011793E+03 -0.63929440099E+03  0.96711402517E+03  0.12006915866E+04  0.15294330000E+03 0.  0.
<mgrwt>
<rscale>  0 0.88900449E+03</rscale>
<asrwt>0</asrwt>
<pdfrwt beam="1">  1        2 0.20590198E+00 0.95748071E+03</pdfrwt>
<pdfrwt beam="2">  1       -2 0.19561897E+00 0.95748071E+03</pdfrwt>
<totfact> 0.22276985E+00</totfact>
</mgrwt>
</event>
<event>
 4    5  0.2409888E-007  0.1075685E+04  0.7818608E-02  0.9288623E-01
          2   -1    0    0  501    0  0.00000000000E+00  0.00000000000E+00  0.10545496392E+04  0.10545496392E+04  0.25500000000E-02 0. -1.
         -2   -1    0    0    0  501 -0.00000000000E+00 -0.00000000000E+00 -0.97913151539E+03  0.97913151540E+03  0.25500000000E-02 0.  1.
    8880023    1    1    2    0    0 -0.80835719740E+03  0.26428633964E+03 -0.26016313775E+03  0.11066994589E+04  0.65864270000E+03 0.  0.
    8880022    1    1    2    0    0  0.80835719740E+03 -0.26428633964E+03  0.33558126151E+03  0.92698169561E+03  0.15294330000E+03 0.  0.
<mgrwt>
<rscale>  0 0.10183704E+04</rscale>
<asrwt>0</asrwt>
<pdfrwt beam="1">  1        2 0.16223840E+00 0.10756853E+04</pdfrwt>
<pdfrwt beam="2">  1       -2 0.15063562E+00 0.10756853E+04</pdfrwt>
<totfact> 0.67814854E+00</totfact>
</mgrwt>
</event>
<event>
 4    5  0.2409888E-007  0.1160220E+04  0.7818608E-02  0.9196796E-01
         -2   -1    0    0    0  501 -0.00000000000E+00  0.00000000000E+00  0.72059536347E+03  0.72059536348E+03  0.25500000000E-02 0.  1.
          2   -1    0    0  501    0  0.00000000000E+00 -0.00000000000E+00 -0.20815831618E+04  0.20815831618E+04  0.25500000000E-02 0. -1.
    8880023    1    1    2    0    0 -0.13277317033E+03  0.94587035884E+03 -0.14192263311E+04  0.18331156635E+04  0.65864270000E+03 0.  0.
    8880022    1    1    2    0    0  0.13277317033E+03 -0.94587035884E+03  0.58238532737E+02  0.96906286185E+03  0.15294330000E+03 0.  0.
<mgrwt>
<rscale>  0 0.11086558E+04</rscale>
<asrwt>0</asrwt>
<pdfrwt beam="1">  1        2 0.32024356E+00 0.11602197E+04</pdfrwt>
<pdfrwt beam="2">  1       -2 0.11086083E+00 0.11602197E+04</pdfrwt>
<totfact> 0.38099441E+00</totfact>
</mgrwt>
</event>
<event>
 4    5  0.2409888E-007  0.1901726E+04  0.7818608E-02  0.8668259E-01
         -2   -1    0    0    0  501 -0.00000000000E+00  0.00000000000E+00  0.13301651887E+04  0.13301651887E+04  0.25500000000E-02 0.  1.
          2   -1    0    0  501    0  0.00000000000E+00 -0.00000000000E+00 -0.34260383520E+04  0.34260383520E+04  0.25500000000E-02 0. -1.
    8880023    1    1    2    0    0  0.38538695800E+03  0.17419032627E+04 -0.22651944585E+04  0.29576453853E+04  0.65864270000E+03 0.  0.
    8880022    1    1    2    0    0 -0.38538695800E+03 -0.17419032627E+04  0.16932129522E+03  0.17985581553E+04  0.15294330000E+03 0.  0.
<mgrwt>
<rscale>  0 0.18733060E+04</rscale>
<asrwt>0</asrwt>
<pdfrwt beam="1">  1        2 0.52708282E+00 0.19017256E+04</pdfrwt>
<pdfrwt beam="2">  1       -2 0.20464080E+00 0.19017256E+04</pdfrwt>
<totfact> 0.10239336E-01</totfact>
</mgrwt>
</event>
<event>
 4    5  0.2409888E-007  0.8837228E+03  0.7818608E-02  0.9552684E-01
         -2   -1    0    0    0  501 -0.00000000000E+00  0.00000000000E+00  0.16076474034E+04  0.16076474034E+04  0.25500000000E-02 0.  1.
          2   -1    0    0  501    0  0.00000000000E+00 -0.00000000000E+00 -0.69811903590E+03  0.69811903590E+03  0.25500000000E-02 0. -1.
    8880023    1    1    2    0    0  0.39250922974E+03  0.43942270262E+03 -0.31507777961E+03  0.93821107458E+03  0.65864270000E+03 0. -1.
    8880022    1    1    2    0    0 -0.39250922974E+03 -0.43942270262E+03  0.12246061471E+04  0.13675553647E+04  0.15294330000E+03 0.  0.
<mgrwt>
<rscale>  0 0.80508647E+03</rscale>
<asrwt>0</asrwt>
<pdfrwt beam="1">  1        2 0.10740293E+00 0.88372281E+03</pdfrwt>
<pdfrwt beam="2">  1       -2 0.24733037E+00 0.88372281E+03</pdfrwt>
<totfact> 0.27756291E+00</totfact>
</mgrwt>
</event>
<event>
 4    5  0.2409888E-007  0.1620051E+04  0.7818608E-02  0.8829208E-01
         -2   -1    0    0    0  501 -0.00000000000E+00  0.00000000000E+00  0.68607981852E+03  0.68607981852E+03  0.25500000000E-02 0.  1.
          2   -1    0    0  501    0  0.00000000000E+00 -0.00000000000E+00 -0.44503107311E+04  0.44503107311E+04  0.25500000000E-02 0. -1.
    8880023    1    1    2    0    0  0.24044603023E+03 -0.14604594090E+04 -0.77198610997E+03  0.17945831658E+04  0.65864270000E+03 0.  0.
    8880022    1    1    2    0    0 -0.24044603023E+03  0.14604594090E+04 -0.29922448026E+04  0.33418073838E+04  0.15294330000E+03 0.  0.
<mgrwt>
<rscale>  0 0.15859789E+04</rscale>
<asrwt>0</asrwt>
<pdfrwt beam="1">  1        2 0.68466317E+00 0.16200513E+04</pdfrwt>
<pdfrwt beam="2">  1       -2 0.10555074E+00 0.16200513E+04</pdfrwt>
<totfact> 0.96021155E-02</totfact>
</mgrwt>
</event>
<event>
 4    5  0.2409888E-007  0.1496827E+04  0.7818608E-02  0.8911880E-01
          2   -1    0    0  501    0  0.00000000000E+00  0.00000000000E+00  0.26215820332E+04  0.26215820332E+04  0.25500000000E-02 0. -1.
         -2   -1    0    0    0  501 -0.00000000000E+00 -0.00000000000E+00 -0.12128569972E+04  0.12128569972E+04  0.25500000000E-02 0.  1.
    8880023    1    1    2    0    0 -0.53979134138E+03  0.12309772734E+04  0.18789186380E+04  0.24022541902E+04  0.65864270000E+03 0.  0.
    8880022    1    1    2    0    0  0.53979134138E+03 -0.12309772734E+04 -0.47019360203E+03  0.14321848401E+04  0.15294330000E+03 0.  0.
<mgrwt>
<rscale>  0 0.14594430E+04</rscale>
<asrwt>0</asrwt>
<pdfrwt beam="1">  1        2 0.40332031E+00 0.14968266E+04</pdfrwt>
<pdfrwt beam="2">  1       -2 0.18659338E+00 0.14968266E+04</pdfrwt>
<totfact> 0.45476231E-01</totfact>
</mgrwt>
</event>
<event>
 4    5  0.2409888E-007  0.7412573E+03  0.7818608E-02  0.9856300E-01
          2   -1    0    0  501    0  0.00000000000E+00  0.00000000000E+00  0.31521593782E+04  0.31521593782E+04  0.25500000000E-02 0. -1.
         -2   -1    0    0    0  501 -0.00000000000E+00 -0.00000000000E+00 -0.19122880134E+03  0.19122880136E+03  0.25500000000E-02 0.  1.
    8880023    1    1    2    0    0  0.11776201865E+03 -0.31903650645E+03  0.28636354662E+04  0.29580179977E+04  0.65864270000E+03 0. -1.
    8880022    1    1    2    0    0 -0.11776201865E+03  0.31903650645E+03  0.97295110714E+02  0.38537018186E+03  0.15294330000E+03 0.  0.
<mgrwt>
<rscale>  0 0.62426747E+03</rscale>
<asrwt>0</asrwt>
<pdfrwt beam="1">  1        2 0.48494758E+00 0.74125730E+03</pdfrwt>
<pdfrwt beam="2">  1       -2 0.29419816E-01 0.74125730E+03</pdfrwt>
<totfact> 0.15800477E+01</totfact>
</mgrwt>
</event>
<event>
 4    5  0.2409888E-007  0.1031455E+04  0.7818608E-02  0.9341515E-01
         -2   -1    0    0    0  501 -0.00000000000E+00  0.00000000000E+00  0.25988841160E+04  0.25988841160E+04  0.25500000000E-02 0.  1.
          2   -1    0    0  501    0  0.00000000000E+00 -0.00000000000E+00 -0.83651918756E+03  0.83651918756E+03  0.25500000000E-02 0. -1.
    8880023    1    1    2    0    0 -0.78373670851E+03 -0.12587821709E+03 -0.41576876008E+03  0.11120982070E+04  0.65864270000E+03 0. -1.
    8880022    1    1    2    0    0  0.78373670851E+03  0.12587821709E+03  0.21781336885E+04  0.23233050966E+04  0.15294330000E+03 0.  0.
<mgrwt>
<rscale>  0 0.97049135E+03</rscale>
<asrwt>0</asrwt>
<pdfrwt beam="1">  1        2 0.12869526E+00 0.10314547E+04</pdfrwt>
<pdfrwt beam="2">  1       -2 0.39982831E+00 0.10314547E+04</pdfrwt>
<totfact> 0.24435029E-01</totfact>
</mgrwt>
</event>
<event>
 4    5  0.2968597E-007  0.9308757E+03  0.7818608E-02  0.9478181E-01
          2   -1    0    0  501    0  0.00000000000E+00  0.00000000000E+00  0.24976494926E+04  0.24976494926E+04  0.25500000000E-02 0. -1.
         -2   -1    0    0    0  501 -0.00000000000E+00 -0.00000000000E+00 -0.76803835739E+03  0.76803835740E+03  0.25500000000E-02 0.  1.
    8880023    1    1    2    0    0  0.18286845856E+03  0.63188488454E+03  0.22356962200E+04  0.24217487844E+04  0.65864270000E+03 0.  0.
    8880022    1    1    2    0    0 -0.18286845856E+03 -0.63188488454E+03 -0.50608508476E+03  0.84393906562E+03  0.15294330000E+03 0.  0.
<mgrwt>
<rscale>  0 0.85911756E+03</rscale>
<asrwt>0</asrwt>
<pdfrwt beam="1">  1        2 0.38425377E+00 0.93087571E+03</pdfrwt>
<pdfrwt beam="2">  1       -2 0.11815975E+00 0.93087571E+03</pdfrwt>
<totfact> 0.19610764E+00</totfact>
</mgrwt>
</event>
<event>
 4    5  0.2409888E-007  0.1054049E+04  0.7818608E-02  0.9314030E-01
          2   -1    0    0  501    0  0.00000000000E+00  0.00000000000E+00  0.16859913519E+04  0.16859913519E+04  0.25500000000E-02 0. -1.
         -2   -1    0    0    0  501 -0.00000000000E+00 -0.00000000000E+00 -0.29195736138E+04  0.29195736138E+04  0.25500000000E-02 0.  1.
    8880023    1    1    2    0    0 -0.61660182864E+03 -0.54498687405E+03  0.14510480079E+04  0.17934768009E+04  0.65864270000E+03 0.  0.
    8880022    1    1    2    0    0  0.61660182864E+03  0.54498687405E+03 -0.26846302698E+04  0.28120881647E+04  0.15294330000E+03 0.  0.
<mgrwt>
<rscale>  0 0.99501424E+03</rscale>
<asrwt>0</asrwt>
<pdfrwt beam="1">  1        2 0.25938329E+00 0.10540487E+04</pdfrwt>
<pdfrwt beam="2">  1       -2 0.44916517E+00 0.10540487E+04</pdfrwt>
<totfact> 0.35426722E-02</totfact>
</mgrwt>
</event>
<event>
 4    5  0.2409888E-007  0.8373589E+03  0.7818608E-02  0.9635181E-01
          2   -1    0    0  501    0  0.00000000000E+00  0.00000000000E+00  0.15596954647E+04  0.15596954647E+04  0.25500000000E-02 0. -1.
         -2   -1    0    0    0  501 -0.00000000000E+00 -0.00000000000E+00 -0.74042387497E+03  0.74042387497E+03  0.25500000000E-02 0.  1.
    8880023    1    1    2    0    0 -0.43423657513E+03 -0.28071024685E+03  0.13207039844E+04  0.15637867075E+04  0.65864270000E+03 0. -1.
    8880022    1    1    2    0    0  0.43423657513E+03  0.28071024685E+03 -0.50143239462E+03  0.73633263222E+03  0.15294330000E+03 0.  0.
<mgrwt>
<rscale>  0 0.75010821E+03</rscale>
<asrwt>0</asrwt>
<pdfrwt beam="1">  1        2 0.23995315E+00 0.83735886E+03</pdfrwt>
<pdfrwt beam="2">  1       -2 0.11391137E+00 0.83735886E+03</pdfrwt>
<totfact> 0.71889828E+00</totfact>
</mgrwt>
</event>
<event>
 4    5  0.2409888E-007  0.7155875E+03  0.7818608E-02  0.9937809E-01
         -2   -1    0    0    0  501 -0.00000000000E+00  0.00000000000E+00  0.25175540444E+03  0.25175540446E+03  0.25500000000E-02 0.  1.
          2   -1    0    0  501    0  0.00000000000E+00 -0.00000000000E+00 -0.15792597474E+04  0.15792597474E+04  0.25500000000E-02 0. -1.
    8880023    1    1    2    0    0  0.24706766133E+03 -0.13119760640E+03 -0.13321276310E+04  0.15121605314E+04  0.65864270000E+03 0. -1.
    8880022    1    1    2    0    0 -0.24706766133E+03  0.13119760640E+03  0.46232880196E+01  0.31885462048E+03  0.15294330000E+03 0.  0.
<mgrwt>
<rscale>  0 0.58463366E+03</rscale>
<asrwt>0</asrwt>
<pdfrwt beam="1">  1        2 0.24296303E+00 0.71558748E+03</pdfrwt>
<pdfrwt beam="2">  1       -2 0.38731602E-01 0.71558748E+03</pdfrwt>
<totfact> 0.73919410E+01</totfact>
</mgrwt>
</event>
<event>
 4    5  0.2409888E-007  0.6590015E+03  0.7818608E-02  0.1025203E+00
          2   -1    0    0  501    0  0.00000000000E+00  0.00000000000E+00  0.27260177791E+04  0.27260177791E+04  0.25500000000E-02 0. -1.
         -2   -1    0    0    0  501 -0.00000000000E+00 -0.00000000000E+00 -0.52623880783E+03  0.52623880784E+03  0.25500000000E-02 0.  1.
    8880023    1    1    2    0    0 -0.13855970969E+02  0.16758344187E+02  0.26737399613E+04  0.27537553299E+04  0.65864270000E+03 0. -1.
    8880022    1    1    2    0    0  0.13855970969E+02 -0.16758344187E+02 -0.47396099011E+03  0.49850125696E+03  0.15294330000E+03 0.  0.
<mgrwt>
<rscale>  0 0.45854697E+03</rscale>
<asrwt>0</asrwt>
<pdfrwt beam="1">  1        2 0.41938735E+00 0.65900154E+03</pdfrwt>
<pdfrwt beam="2">  1       -2 0.80959816E-01 0.65900154E+03</pdfrwt>
<totfact> 0.37144277E+00</totfact>
</mgrwt>
</event>
<event>
 4    5  0.2409888E-007  0.1685785E+04  0.7818608E-02  0.8788494E-01
          2   -1    0    0  501    0  0.00000000000E+00  0.00000000000E+00  0.16730056609E+04  0.16730056609E+04  0.25500000000E-02 0. -1.
         -2   -1    0    0    0  501 -0.00000000000E+00 -0.00000000000E+00 -0.17738841055E+04  0.17738841055E+04  0.25500000000E-02 0.  1.
    8880023    1    1    2    0    0  0.56723027779E+03  0.14444067215E+04  0.52651416438E+03  0.17660940906E+04  0.65864270000E+03 0.  0.
    8880022    1    1    2    0    0 -0.56723027779E+03 -0.14444067215E+04 -0.62739260898E+03  0.16807956759E+04  0.15294330000E+03 0.  0.
<mgrwt>
<rscale>  0 0.16532361E+04</rscale>
<asrwt>0</asrwt>
<pdfrwt beam="1">  1        2 0.25738549E+00 0.16857850E+04</pdfrwt>
<pdfrwt beam="2">  1       -2 0.27290525E+00 0.16857850E+04</pdfrwt>
<totfact> 0.43544843E-01</totfact>
</mgrwt>
</event>
<event>
 4    5  0.2409888E-007  0.1542279E+04  0.7818608E-02  0.8880344E-01
         -2   -1    0    0    0  501 -0.00000000000E+00  0.00000000000E+00  0.22856516913E+04  0.22856516913E+04  0.25500000000E-02 0.  1.
          2   -1    0    0  501    0  0.00000000000E+00 -0.00000000000E+00 -0.16336056294E+04  0.16336056294E+04  0.25500000000E-02 0. -1.
    8880023    1    1    2    0    0 -0.46856372316E+03 -0.13134929026E+04 -0.93299176930E+03  0.18025258433E+04  0.65864270000E+03 0.  0.
    8880022    1    1    2    0    0  0.46856372316E+03  0.13134929026E+04  0.15850378313E+04  0.21167314774E+04  0.15294330000E+03 0.  0.
<mgrwt>
<rscale>  0 0.15061948E+04</rscale>
<asrwt>0</asrwt>
<pdfrwt beam="1">  1        2 0.25132394E+00 0.15422794E+04</pdfrwt>
<pdfrwt beam="2">  1       -2 0.35163872E+00 0.15422794E+04</pdfrwt>
<totfact> 0.15191942E-01</totfact>
</mgrwt>
</event>
<event>
 4    5  0.2409888E-007  0.7251062E+03  0.7818608E-02  0.9905673E-01
          2   -1    0    0  501    0  0.00000000000E+00  0.00000000000E+00  0.19069941082E+03  0.19069941084E+03  0.25500000000E-02 0. -1.
         -2   -1    0    0    0  501 -0.00000000000E+00 -0.00000000000E+00 -0.18660778419E+04  0.18660778419E+04  0.25500000000E-02 0.  1.
    8880023    1    1    2    0    0  0.13341737494E+03  0.27233902252E+03 -0.64012909688E+03  0.96723534161E+03  0.65864270000E+03 0.  0.
    8880022    1    1    2    0    0 -0.13341737494E+03 -0.27233902252E+03 -0.10352493342E+04  0.10895419111E+04  0.15294330000E+03 0.  0.
<mgrwt>
<rscale>  0 0.59987158E+03</rscale>
<asrwt>0</asrwt>
<pdfrwt beam="1">  1        2 0.29338372E-01 0.72510616E+03</pdfrwt>
<pdfrwt beam="2">  1       -2 0.28708889E+00 0.72510616E+03</pdfrwt>
<totfact> 0.72236595E+00</totfact>
</mgrwt>
</event>
<event>
 4    5  0.2409888E-007  0.8330336E+03  0.7818608E-02  0.9643459E-01
          2   -1    0    0  501    0  0.00000000000E+00  0.00000000000E+00  0.27103174864E+04  0.27103174864E+04  0.25500000000E-02 0. -1.
         -2   -1    0    0    0  501 -0.00000000000E+00 -0.00000000000E+00 -0.18954382688E+03  0.18954382689E+03  0.25500000000E-02 0.  1.
    8880023    1    1    2    0    0  0.29581215021E+03  0.41548762884E+03  0.19435381601E+04  0.21145414595E+04  0.65864270000E+03 0. -1.
    8880022    1    1    2    0    0 -0.29581215021E+03 -0.41548762884E+03  0.57723549937E+03  0.78531985374E+03  0.15294330000E+03 0.  0.
<mgrwt>
<rscale>  0 0.74485389E+03</rscale>
<asrwt>0</asrwt>
<pdfrwt beam="1">  1        2 0.41697193E+00 0.83303362E+03</pdfrwt>
<pdfrwt beam="2">  1       -2 0.29160588E-01 0.83303362E+03</pdfrwt>
<totfact> 0.29332403E+01</totfact>
</mgrwt>
</event>
<event>
 4    5  0.2409888E-007  0.1065442E+04  0.7818608E-02  0.9300544E-01
         -2   -1    0    0    0  501 -0.00000000000E+00  0.00000000000E+00  0.23559750811E+04  0.23559750811E+04  0.25500000000E-02 0.  1.
          2   -1    0    0  501    0  0.00000000000E+00 -0.00000000000E+00 -0.15235804774E+04  0.15235804774E+04  0.25500000000E-02 0. -1.
    8880023    1    1    2    0    0 -0.12756395379E+03 -0.82769855472E+03 -0.12425275374E+04  0.16367780385E+04  0.65864270000E+03 0.  0.
    8880022    1    1    2    0    0  0.12756395379E+03  0.82769855472E+03  0.20749221411E+04  0.22427775200E+04  0.15294330000E+03 0.  0.
<mgrwt>
<rscale>  0 0.10073281E+04</rscale>
<asrwt>0</asrwt>
<pdfrwt beam="1">  1        2 0.23439700E+00 0.10654425E+04</pdfrwt>
<pdfrwt beam="2">  1       -2 0.36245770E+00 0.10654425E+04</pdfrwt>
<totfact> 0.16013678E-01</totfact>
</mgrwt>
</event>
<event>
 4    5  0.2409888E-007  0.1135053E+04  0.7818608E-02  0.9222997E-01
          2   -1    0    0  501    0  0.00000000000E+00  0.00000000000E+00  0.40592533770E+04  0.40592533770E+04  0.25500000000E-02 0. -1.
         -2   -1    0    0    0  501 -0.00000000000E+00 -0.00000000000E+00 -0.42247707731E+03  0.42247707732E+03  0.25500000000E-02 0.  1.
    8880023    1    1    2    0    0  0.33535736554E+03 -0.86143548710E+03  0.56045342660E+03  0.12658806858E+04  0.65864270000E+03 0.  0.
    8880022    1    1    2    0    0 -0.33535736554E+03  0.86143548710E+03  0.30763228731E+04  0.32158497685E+04  0.15294330000E+03 0.  0.
<mgrwt>
<rscale>  0 0.10819184E+04</rscale>
<asrwt>0</asrwt>
<pdfrwt beam="1">  1        2 0.62450049E+00 0.11350532E+04</pdfrwt>
<pdfrwt beam="2">  1       -2 0.64996477E-01 0.11350532E+04</pdfrwt>
<totfact> 0.68911167E-01</totfact>
</mgrwt>
</event>
<event>
 4    5  0.2409888E-007  0.7488387E+03  0.7818608E-02  0.9834910E-01
          2   -1    0    0  501    0  0.00000000000E+00  0.00000000000E+00  0.11335262569E+04  0.11335262569E+04  0.25500000000E-02 0. -1.
         -2   -1    0    0    0  501 -0.00000000000E+00 -0.00000000000E+00 -0.65737151285E+03  0.65737151286E+03  0.25500000000E-02 0.  1.
    8880023    1    1    2    0    0 -0.35614465439E+03  0.10494811475E+02  0.92997765616E+03  0.11939923798E+04  0.65864270000E+03 0.  0.
    8880022    1    1    2    0    0  0.35614465439E+03 -0.10494811475E+02 -0.45382291212E+03  0.59690538990E+03  0.15294330000E+03 0.  0.
<mgrwt>
<rscale>  0 0.63522241E+03</rscale>
<asrwt>0</asrwt>
<pdfrwt beam="1">  1        2 0.17438866E+00 0.74883868E+03</pdfrwt>
<pdfrwt beam="2">  1       -2 0.10113408E+00 0.74883868E+03</pdfrwt>
<totfact> 0.17016056E+01</totfact>
</mgrwt>
</event>
<event>
 4    5  0.2409888E-007  0.1070755E+04  0.7818608E-02  0.9294337E-01
          2   -1    0    0  501    0  0.00000000000E+00  0.00000000000E+00  0.30886256291E+04  0.30886256291E+04  0.25500000000E-02 0. -1.
         -2   -1    0    0    0  501 -0.00000000000E+00 -0.00000000000E+00 -0.41731276746E+03  0.41731276747E+03  0.25500000000E-02 0.  1.
    8880023    1    1    2    0    0 -0.21493982351E+02 -0.84394612335E+03  0.23629677944E+04  0.25942501911E+04  0.65864270000E+03 0.  0.
    8880022    1    1    2    0    0  0.21493982351E+02  0.84394612335E+03  0.30834506716E+03  0.91168820539E+03  0.15294330000E+03 0.  0.
<mgrwt>
<rscale>  0 0.10130590E+04</rscale>
<asrwt>0</asrwt>
<pdfrwt beam="1">  1        2 0.47517318E+00 0.10707555E+04</pdfrwt>
<pdfrwt beam="2">  1       -2 0.64201964E-01 0.10707555E+04</pdfrwt>
<totfact> 0.34798775E+00</totfact>
</mgrwt>
</event>
<event>
 4    5  0.2409888E-007  0.1165039E+04  0.7818608E-02  0.9191880E-01
         -2   -1    0    0    0  501 -0.00000000000E+00  0.00000000000E+00  0.14099355266E+04  0.14099355266E+04  0.25500000000E-02 0.  1.
          2   -1    0    0  501    0  0.00000000000E+00 -0.00000000000E+00 -0.12481033737E+04  0.12481033737E+04  0.25500000000E-02 0. -1.
    8880023    1    1    2    0    0 -0.89267486453E+03 -0.35586004427E+03 -0.69916224916E+03  0.13587283915E+04  0.65864270000E+03 0.  0.
    8880022    1    1    2    0    0  0.89267486453E+03  0.35586004427E+03  0.86099440212E+03  0.12993105088E+04  0.15294330000E+03 0.  0.
<mgrwt>
<rscale>  0 0.11137637E+04</rscale>
<asrwt>0</asrwt>
<pdfrwt beam="1">  1        2 0.19201590E+00 0.11650386E+04</pdfrwt>
<pdfrwt beam="2">  1       -2 0.21691316E+00 0.11650386E+04</pdfrwt>
<totfact> 0.17871549E+00</totfact>
</mgrwt>
</event>
<event>
 4    5  0.2409888E-007  0.1295522E+04  0.7818608E-02  0.9069436E-01
         -2   -1    0    0    0  501 -0.00000000000E+00  0.00000000000E+00  0.12029339194E+04  0.12029339194E+04  0.25500000000E-02 0.  1.
          2   -1    0    0  501    0  0.00000000000E+00 -0.00000000000E+00 -0.12696823713E+04  0.12696823713E+04  0.25500000000E-02 0. -1.
    8880023    1    1    2    0    0  0.89003518929E+03  0.67261104876E+03 -0.28282498933E+03  0.13260348570E+04  0.65864270000E+03 0.  0.
    8880022    1    1    2    0    0 -0.89003518929E+03 -0.67261104876E+03  0.21607653750E+03  0.11465814337E+04  0.15294330000E+03 0.  0.
<mgrwt>
<rscale>  0 0.12508980E+04</rscale>
<asrwt>0</asrwt>
<pdfrwt beam="1">  1        2 0.19533575E+00 0.12955225E+04</pdfrwt>
<pdfrwt beam="2">  1       -2 0.18506676E+00 0.12955225E+04</pdfrwt>
<totfact> 0.27738060E+00</totfact>
</mgrwt>
</event>
<event>
 4    5  0.2409888E-007  0.1223364E+04  0.7818608E-02  0.9134739E-01
         -2   -1    0    0    0  501 -0.00000000000E+00  0.00000000000E+00  0.62517836993E+03  0.62517836994E+03  0.25500000000E-02 0.  1.
          2   -1    0    0  501    0  0.00000000000E+00 -0.00000000000E+00 -0.24015491493E+04  0.24015491493E+04  0.25500000000E-02 0. -1.
    8880023    1    1    2    0    0 -0.51638064764E+02 -0.10296327053E+04 -0.15242215372E+04  0.19544491547E+04  0.65864270000E+03 0.  0.
    8880022    1    1    2    0    0  0.51638064764E+02  0.10296327053E+04 -0.25214924215E+03  0.10722783645E+04  0.15294330000E+03 0.  0.
<mgrwt>
<rscale>  0 0.11753187E+04</rscale>
<asrwt>0</asrwt>
<pdfrwt beam="1">  1        2 0.36946910E+00 0.12233643E+04</pdfrwt>
<pdfrwt beam="2">  1       -2 0.96181288E-01 0.12233643E+04</pdfrwt>
<totfact> 0.35212364E+00</totfact>
</mgrwt>
</event>
<event>
 4    5  0.2409888E-007  0.1908106E+04  0.7818608E-02  0.8664981E-01
         -2   -1    0    0    0  501 -0.00000000000E+00  0.00000000000E+00  0.18127093785E+04  0.18127093785E+04  0.25500000000E-02 0.  1.
          2   -1    0    0  501    0  0.00000000000E+00 -0.00000000000E+00 -0.21381490657E+04  0.21381490658E+04  0.25500000000E-02 0. -1.
    8880023    1    1    2    0    0  0.52575567158E+03  0.17119109083E+04 -0.83480430160E+03  0.20827305184E+04  0.65864270000E+03 0.  0.
    8880022    1    1    2    0    0 -0.52575567158E+03 -0.17119109083E+04  0.50936461434E+03  0.18681279259E+04  0.15294330000E+03 0.  0.
<mgrwt>
<rscale>  0 0.18797917E+04</rscale>
<asrwt>0</asrwt>
<pdfrwt beam="1">  1        2 0.32894601E+00 0.19081059E+04</pdfrwt>
<pdfrwt beam="2">  1       -2 0.27887837E+00 0.19081059E+04</pdfrwt>
<totfact> 0.21494537E-01</totfact>
</mgrwt>
</event>
<event>
 4    5  0.2409888E-007  0.1223275E+04  0.7818608E-02  0.9134822E-01
         -2   -1    0    0    0  501 -0.00000000000E+00  0.00000000000E+00  0.83257215107E+03  0.83257215108E+03  0.25500000000E-02 0.  1.
          2   -1    0    0  501    0  0.00000000000E+00 -0.00000000000E+00 -0.27614335016E+04  0.27614335016E+04  0.25500000000E-02 0. -1.
    8880023    1    1    2    0    0 -0.10307741618E+04 -0.98605491208E+01 -0.21999852468E+04  0.25172083536E+04  0.65864270000E+03 0.  0.
    8880022    1    1    2    0    0  0.10307741618E+04  0.98605491208E+01  0.27112389633E+03  0.10767972990E+04  0.15294330000E+03 0.  1.
<mgrwt>
<rscale>  0 0.11752253E+04</rscale>
<asrwt>0</asrwt>
<pdfrwt beam="1">  1        2 0.42483592E+00 0.12232754E+04</pdfrwt>
<pdfrwt beam="2">  1       -2 0.12808803E+00 0.12232754E+04</pdfrwt>
<totfact> 0.10783550E+00</totfact>
</mgrwt>
</event>
<event>
 4    5  0.2461670E-007  0.1004405E+04  0.7818608E-02  0.9375817E-01
         -2   -1    0    0    0  501 -0.00000000000E+00  0.00000000000E+00  0.10324646425E+04  0.10324646425E+04  0.25500000000E-02 0.  1.
          2   -1    0    0  501    0  0.00000000000E+00 -0.00000000000E+00 -0.18443966553E+04  0.18443966553E+04  0.25500000000E-02 0. -1.
    8880023    1    1    2    0    0 -0.75808629259E+03  0.18030373047E+02 -0.15241602492E+04  0.18253478005E+04  0.65864270000E+03 0.  0.
    8880022    1    1    2    0    0  0.75808629259E+03 -0.18030373047E+02  0.71222823636E+03  0.10515134973E+04  0.15294330000E+03 0.  0.
<mgrwt>
<rscale>  0 0.94092881E+03</rscale>
<asrwt>0</asrwt>
<pdfrwt beam="1">  1        2 0.28375333E+00 0.10044054E+04</pdfrwt>
<pdfrwt beam="2">  1       -2 0.15884071E+00 0.10044054E+04</pdfrwt>
<totfact> 0.20844144E+00</totfact>
</mgrwt>
</event>
<event>
 4    5  0.2409888E-007  0.7607360E+03  0.7818608E-02  0.9803206E-01
          2   -1    0    0  501    0  0.00000000000E+00  0.00000000000E+00  0.27661684675E+04  0.27661684675E+04  0.25500000000E-02 0. -1.
         -2   -1    0    0    0  501 -0.00000000000E+00 -0.00000000000E+00 -0.38252879275E+03  0.38252879276E+03  0.25500000000E-02 0.  1.
    8880023    1    1    2    0    0  0.34512288761E+03  0.16062153841E+03  0.25829155567E+04  0.26926143551E+04  0.65864270000E+03 0.  0.
    8880022    1    1    2    0    0 -0.34512288761E+03 -0.16062153841E+03 -0.19927588199E+03  0.45608290509E+03  0.15294330000E+03 0.  0.
<mgrwt>
<rscale>  0 0.65190789E+03</rscale>
<asrwt>0</asrwt>
<pdfrwt beam="1">  1        2 0.42556438E+00 0.76073602E+03</pdfrwt>
<pdfrwt beam="2">  1       -2 0.58850583E-01 0.76073602E+03</pdfrwt>
<totfact> 0.69019691E+00</totfact>
</mgrwt>
</event>
<event>
 4    5  0.2409888E-007  0.7159634E+03  0.7818608E-02  0.9936489E-01
         -2   -1    0    0    0  501 -0.00000000000E+00  0.00000000000E+00  0.46896457051E+03  0.46896457052E+03  0.25500000000E-02 0.  1.
          2   -1    0    0  501    0  0.00000000000E+00 -0.00000000000E+00 -0.13261477153E+04  0.13261477153E+04  0.25500000000E-02 0. -1.
    8880023    1    1    2    0    0  0.54496362497E+02  0.27536066929E+03 -0.11545475321E+04  0.13585225658E+04  0.65864270000E+03 0.  0.
    8880022    1    1    2    0    0 -0.54496362497E+02 -0.27536066929E+03  0.29736438734E+03  0.43658971998E+03  0.15294330000E+03 0.  0.
<mgrwt>
<rscale>  0 0.58525011E+03</rscale>
<asrwt>0</asrwt>
<pdfrwt beam="1">  1        2 0.20402272E+00 0.71596338E+03</pdfrwt>
<pdfrwt beam="2">  1       -2 0.72148396E-01 0.71596338E+03</pdfrwt>
<totfact> 0.28447723E+01</totfact>
</mgrwt>
</event>
<event>
 4    5  0.2409888E-007  0.8508679E+03  0.7818608E-02  0.9610019E-01
          2   -1    0    0  501    0  0.00000000000E+00  0.00000000000E+00  0.26855730373E+04  0.26855730373E+04  0.25500000000E-02 0. -1.
         -2   -1    0    0    0  501 -0.00000000000E+00 -0.00000000000E+00 -0.26330292677E+03  0.26330292678E+03  0.25500000000E-02 0.  1.
    8880023    1    1    2    0    0 -0.48826242434E+03 -0.22752100982E+03  0.21773433597E+04  0.23376912365E+04  0.65864270000E+03 0.  0.
    8880022    1    1    2    0    0  0.48826242434E+03  0.22752100982E+03  0.24492675082E+03  0.61118472757E+03  0.15294330000E+03 0.  0.
<mgrwt>
<rscale>  0 0.76636610E+03</rscale>
<asrwt>0</asrwt>
<pdfrwt beam="1">  1        2 0.41316507E+00 0.85086792E+03</pdfrwt>
<pdfrwt beam="2">  1       -2 0.40508144E-01 0.85086792E+03</pdfrwt>
<totfact> 0.16184187E+01</totfact>
</mgrwt>
</event>
<event>
 4    5  0.2409888E-007  0.8467171E+03  0.7818608E-02  0.9617642E-01
         -2   -1    0    0    0  501 -0.00000000000E+00  0.00000000000E+00  0.16899986632E+04  0.16899986632E+04  0.25500000000E-02 0.  1.
          2   -1    0    0  501    0  0.00000000000E+00 -0.00000000000E+00 -0.50212878651E+03  0.50212878652E+03  0.25500000000E-02 0. -1.
    8880023    1    1    2    0    0 -0.51873252645E+03 -0.11847485308E+03 -0.37442969036E+02  0.84754463423E+03  0.65864270000E+03 0.  0.
    8880022    1    1    2    0    0  0.51873252645E+03  0.11847485308E+03  0.12253128457E+04  0.13445828155E+04  0.15294330000E+03 0.  0.
<mgrwt>
<rscale>  0 0.76139425E+03</rscale>
<asrwt>0</asrwt>
<pdfrwt beam="1">  1        2 0.77250581E-01 0.84671715E+03</pdfrwt>
<pdfrwt beam="2">  1       -2 0.25999980E+00 0.84671715E+03</pdfrwt>
<totfact> 0.34824026E+00</totfact>
</mgrwt>
</event>
<event>
 4    5  0.2409888E-007  0.1027959E+04  0.7818608E-02  0.9345859E-01
          2   -1    0    0  501    0  0.00000000000E+00  0.00000000000E+00  0.23577573819E+04  0.23577573819E+04  0.25500000000E-02 0. -1.
         -2   -1    0    0    0  501 -0.00000000000E+00 -0.00000000000E+00 -0.77147164103E+03  0.77147164103E+03  0.25500000000E-02 0.  1.
    8880023    1    1    2    0    0  0.66426569426E+03  0.42619345636E+03  0.19823621552E+04  0.22330382208E+04  0.65864270000E+03 0.  0.
    8880022    1    1    2    0    0 -0.66426569426E+03 -0.42619345636E+03 -0.39607641434E+03  0.89619080213E+03  0.15294330000E+03 0.  0.
<mgrwt>
<rscale>  0 0.96668415E+03</rscale>
<asrwt>0</asrwt>
<pdfrwt beam="1">  1        2 0.36273190E+00 0.10279591E+04</pdfrwt>
<pdfrwt beam="2">  1       -2 0.11868795E+00 0.10279591E+04</pdfrwt>
<totfact> 0.22952107E+00</totfact>
</mgrwt>
</event>
<event>
 4    5  0.2509902E-007  0.8993043E+03  0.7818608E-02  0.9527149E-01
          2   -1    0    0  501    0  0.00000000000E+00  0.00000000000E+00  0.15646159907E+04  0.15646159907E+04  0.25500000000E-02 0. -1.
         -2   -1    0    0    0  501 -0.00000000000E+00 -0.00000000000E+00 -0.12787579938E+04  0.12787579938E+04  0.25500000000E-02 0.  1.
    8880023    1    1    2    0    0 -0.57897813093E+03 -0.19930456495E+03  0.13405562911E+04  0.16142612433E+04  0.65864270000E+03 0. -1.
    8880022    1    1    2    0    0  0.57897813093E+03  0.19930456495E+03 -0.10546982943E+04  0.12291127412E+04  0.15294330000E+03 0.  0.
<mgrwt>
<rscale>  0 0.82311464E+03</rscale>
<asrwt>0</asrwt>
<pdfrwt beam="1">  1        2 0.24071015E+00 0.89930428E+03</pdfrwt>
<pdfrwt beam="2">  1       -2 0.19673200E+00 0.89930428E+03</pdfrwt>
<totfact> 0.16448179E+00</totfact>
</mgrwt>
</event>
<event>
 4    5  0.2409888E-007  0.1478330E+04  0.7818608E-02  0.8925091E-01
         -2   -1    0    0    0  501 -0.00000000000E+00  0.00000000000E+00  0.15943092147E+04  0.15943092147E+04  0.25500000000E-02 0.  1.
          2   -1    0    0  501    0  0.00000000000E+00 -0.00000000000E+00 -0.21855949240E+04  0.21855949240E+04  0.25500000000E-02 0. -1.
    8880023    1    1    2    0    0 -0.67772858488E+03  0.11368084473E+04 -0.15473661707E+04  0.21400471381E+04  0.65864270000E+03 0. -1.
    8880022    1    1    2    0    0  0.67772858488E+03 -0.11368084473E+04  0.95608046146E+03  0.16398570006E+04  0.15294330000E+03 0.  0.
<mgrwt>
<rscale>  0 0.14403884E+04</rscale>
<asrwt>0</asrwt>
<pdfrwt beam="1">  1        2 0.33624537E+00 0.14783300E+04</pdfrwt>
<pdfrwt beam="2">  1       -2 0.24527834E+00 0.14783300E+04</pdfrwt>
<totfact> 0.33972178E-01</totfact>
</mgrwt>
</event>
<event>
 4    5  0.2409888E-007  0.8989303E+03  0.7818608E-02  0.9527751E-01
          2   -1    0    0  501    0  0.00000000000E+00  0.00000000000E+00  0.29829171407E+04  0.29829171407E+04  0.25500000000E-02 0. -1.
         -2   -1    0    0    0  501 -0.00000000000E+00 -0.00000000000E+00 -0.72424640458E+03  0.72424640459E+03  0.25500000000E-02 0.  1.
    8880023    1    1    2    0    0 -0.16109267974E+03  0.59018187088E+03  0.27592777947E+04  0.29020147565E+04  0.65864270000E+03 0. -1.
    8880022    1    1    2    0    0  0.16109267974E+03 -0.59018187088E+03 -0.50060705852E+03  0.80514878888E+03  0.15294330000E+03 0.  0.
<mgrwt>
<rscale>  0 0.82268412E+03</rscale>
<asrwt>0</asrwt>
<pdfrwt beam="1">  1        2 0.45891034E+00 0.89893031E+03</pdfrwt>
<pdfrwt beam="2">  1       -2 0.11142252E+00 0.89893031E+03</pdfrwt>
<totfact> 0.11775046E+00</totfact>
</mgrwt>
</event>
<event>
 4    5  0.2409888E-007  0.7846050E+03  0.7818608E-02  0.9745129E-01
         -2   -1    0    0    0  501 -0.00000000000E+00  0.00000000000E+00  0.29469519402E+03  0.29469519403E+03  0.25500000000E-02 0.  1.
          2   -1    0    0  501    0  0.00000000000E+00 -0.00000000000E+00 -0.16045766802E+04  0.16045766802E+04  0.25500000000E-02 0. -1.
    8880023    1    1    2    0    0 -0.42502998919E+03  0.33828251101E+02 -0.11990364064E+04  0.14329317334E+04  0.65864270000E+03 0.  0.
    8880022    1    1    2    0    0  0.42502998919E+03 -0.33828251101E+02 -0.11084507977E+03  0.46634014089E+03  0.15294330000E+03 0.  0.
<mgrwt>
<rscale>  0 0.68392253E+03</rscale>
<asrwt>0</asrwt>
<pdfrwt beam="1">  1        2 0.24685794E+00 0.78460503E+03</pdfrwt>
<pdfrwt beam="2">  1       -2 0.45337723E-01 0.78460503E+03</pdfrwt>
<totfact> 0.52138258E+01</totfact>
</mgrwt>
</event>
<event>
 4    5  0.2409888E-007  0.7675635E+03  0.7818608E-02  0.9785906E-01
          2   -1    0    0  501    0  0.00000000000E+00  0.00000000000E+00  0.47337665155E+03  0.47337665156E+03  0.25500000000E-02 0. -1.
         -2   -1    0    0    0  501 -0.00000000000E+00 -0.00000000000E+00 -0.77120883490E+03  0.77120883490E+03  0.25500000000E-02 0.  1.
    8880023    1    1    2    0    0 -0.22405873191E+03  0.32425494378E+03 -0.87956949611E+02  0.77258670398E+03  0.65864270000E+03 0. -1.
    8880022    1    1    2    0    0  0.22405873191E+03 -0.32425494378E+03 -0.20987523374E+03  0.47199878248E+03  0.15294330000E+03 0.  1.
<mgrwt>
<rscale>  0 0.66124443E+03</rscale>
<asrwt>0</asrwt>
<pdfrwt beam="1">  1        2 0.72827177E-01 0.76756354E+03</pdfrwt>
<pdfrwt beam="2">  1       -2 0.11864751E+00 0.76756354E+03</pdfrwt>
<totfact> 0.36217552E+01</totfact>
</mgrwt>
</event>
<event>
 4    5  0.2409888E-007  0.1650928E+04  0.7818608E-02  0.8809815E-01
         -2   -1    0    0    0  501 -0.00000000000E+00  0.00000000000E+00  0.14750560283E+04  0.14750560283E+04  0.25500000000E-02 0.  1.
          2   -1    0    0  501    0  0.00000000000E+00 -0.00000000000E+00 -0.23157374346E+04  0.23157374346E+04  0.25500000000E-02 0. -1.
    8880023    1    1    2    0    0  0.77307759922E+03 -0.13015769678E+04 -0.14051042331E+04  0.21679205912E+04  0.65864270000E+03 0.  0.
    8880022    1    1    2    0    0 -0.77307759922E+03  0.13015769678E+04  0.56442282680E+03  0.16228728718E+04  0.15294330000E+03 0.  0.
<mgrwt>
<rscale>  0 0.16175892E+04</rscale>
<asrwt>0</asrwt>
<pdfrwt beam="1">  1        2 0.35626730E+00 0.16509276E+04</pdfrwt>
<pdfrwt beam="2">  1       -2 0.22693170E+00 0.16509276E+04</pdfrwt>
<totfact> 0.36630745E-01</totfact>
</mgrwt>
</event>
<event>
 4    5  0.2409888E-007  0.6944544E+03  0.7818608E-02  0.1002103E+00
         -2   -1    0    0    0  501 -0.00000000000E+00  0.00000000000E+00  0.20239671991E+03  0.20239671993E+03  0.25500000000E-02 0.  1.
          2   -1    0    0  501    0  0.00000000000E+00 -0.00000000000E+00 -0.18084482624E+04  0.18084482624E+04  0.25500000000E-02 0. -1.
    8880023    1    1    2    0    0 -0.21720938693E+03  0.35733046919E+02 -0.15983417893E+04  0.17426885695E+04  0.65864270000E+03 0. -1.
    8880022    1    1    2    0    0  0.21720938693E+03 -0.35733046919E+02 -0.77097530988E+01  0.26815641279E+03  0.15294330000E+03 0.  0.
<mgrwt>
<rscale>  0 0.54737502E+03</rscale>
<asrwt>0</asrwt>
<pdfrwt beam="1">  1        2 0.27822280E+00 0.69445444E+03</pdfrwt>
<pdfrwt beam="2">  1       -2 0.31137958E-01 0.69445444E+03</pdfrwt>
<totfact> 0.84051749E+01</totfact>
</mgrwt>
</event>
<event>
 4    5  0.2409888E-007  0.7760721E+03  0.7818608E-02  0.9765146E-01
          2   -1    0    0  501    0  0.00000000000E+00  0.00000000000E+00  0.10271165158E+04  0.10271165158E+04  0.25500000000E-02 0. -1.
         -2   -1    0    0    0  501 -0.00000000000E+00 -0.00000000000E+00 -0.37556970637E+03  0.37556970638E+03  0.25500000000E-02 0.  1.
    8880023    1    1    2    0    0 -0.31869862208E+03  0.25866744667E+03  0.55510992127E+03  0.95416711882E+03  0.65864270000E+03 0. -1.
    8880022    1    1    2    0    0  0.31869862208E+03 -0.25866744667E+03  0.96436888174E+02  0.44851910338E+03  0.15294330000E+03 0. -1.
<mgrwt>
<rscale>  0 0.67267027E+03</rscale>
<asrwt>0</asrwt>
<pdfrwt beam="1">  1        2 0.15801793E+00 0.77607208E+03</pdfrwt>
<pdfrwt beam="2">  1       -2 0.57779955E-01 0.77607208E+03</pdfrwt>
<totfact> 0.68744606E+01</totfact>
</mgrwt>
</event>
<event>
 4    5  0.3152237E-007  0.8420714E+03  0.7818608E-02  0.9626287E-01
          2   -1    0    0  501    0  0.00000000000E+00  0.00000000000E+00  0.19975147633E+04  0.19975147633E+04  0.25500000000E-02 0. -1.
         -2   -1    0    0    0  501 -0.00000000000E+00 -0.00000000000E+00 -0.18402684079E+04  0.18402684079E+04  0.25500000000E-02 0.  1.
    8880023    1    1    2    0    0 -0.32490993096E+03 -0.41195574418E+03  0.18641548872E+04  0.20455213634E+04  0.65864270000E+03 0. -1.
    8880022    1    1    2    0    0  0.32490993096E+03  0.41195574418E+03 -0.17069085319E+04  0.17922618078E+04  0.15294330000E+03 0.  0.
<mgrwt>
<rscale>  0 0.75580514E+03</rscale>
<asrwt>0</asrwt>
<pdfrwt beam="1">  1        2 0.30730996E+00 0.84207138E+03</pdfrwt>
<pdfrwt beam="2">  1       -2 0.28311822E+00 0.84207138E+03</pdfrwt>
<totfact> 0.28088815E-01</totfact>
</mgrwt>
</event>
<event>
 4    5  0.4293168E-007  0.1470761E+04  0.7818608E-02  0.8930564E-01
         -2   -1    0    0    0  501 -0.00000000000E+00  0.00000000000E+00  0.19761449584E+04  0.19761449584E+04  0.25500000000E-02 0.  1.
          2   -1    0    0  501    0  0.00000000000E+00 -0.00000000000E+00 -0.25418153875E+04  0.25418153875E+04  0.25500000000E-02 0. -1.
    8880023    1    1    2    0    0 -0.93002835659E+03  0.92971712866E+03 -0.20538354234E+04  0.25261387207E+04  0.65864270000E+03 0. -1.
    8880022    1    1    2    0    0  0.93002835659E+03 -0.92971712866E+03  0.14881649943E+04  0.19918216252E+04  0.15294330000E+03 0.  0.
<mgrwt>
<rscale>  0 0.14325854E+04</rscale>
<asrwt>0</asrwt>
<pdfrwt beam="1">  1        2 0.39104852E+00 0.14707607E+04</pdfrwt>
<pdfrwt beam="2">  1       -2 0.30402230E+00 0.14707607E+04</pdfrwt>
<totfact> 0.93138856E-02</totfact>
</mgrwt>
</event>
<event>
 4    5  0.2409888E-007  0.7309282E+03  0.7818608E-02  0.9887207E-01
         -2   -1    0    0    0  501 -0.00000000000E+00  0.00000000000E+00  0.43497216377E+03  0.43497216378E+03  0.25500000000E-02 0.  1.
          2   -1    0    0  501    0  0.00000000000E+00 -0.00000000000E+00 -0.12263155218E+04  0.12263155218E+04  0.25500000000E-02 0. -1.
    8880023    1    1    2    0    0  0.24800008564E+03 -0.19733656935E+03 -0.10101832071E+04  0.12468865555E+04  0.65864270000E+03 0. -1.
    8880022    1    1    2    0    0 -0.24800008564E+03  0.19733656935E+03  0.21883984906E+03  0.41440113010E+03  0.15294330000E+03 0.  0.
<mgrwt>
<rscale>  0 0.60885308E+03</rscale>
<asrwt>0</asrwt>
<pdfrwt beam="1">  1        2 0.18866393E+00 0.73092816E+03</pdfrwt>
<pdfrwt beam="2">  1       -2 0.66918795E-01 0.73092816E+03</pdfrwt>
<totfact> 0.38227117E+01</totfact>
</mgrwt>
</event>
<event>
 4    5  0.2409888E-007  0.7623354E+03  0.7818608E-02  0.9799098E-01
          2   -1    0    0  501    0  0.00000000000E+00  0.00000000000E+00  0.16875118479E+04  0.16875118479E+04  0.25500000000E-02 0. -1.
         -2   -1    0    0    0  501 -0.00000000000E+00 -0.00000000000E+00 -0.13954852736E+04  0.13954852736E+04  0.25500000000E-02 0.  1.
    8880023    1    1    2    0    0  0.37347489705E+03  0.88665441680E+02  0.15670763142E+04  0.17426656134E+04  0.65864270000E+03 0. -1.
    8880022    1    1    2    0    0 -0.37347489705E+03 -0.88665441680E+02 -0.12750497399E+04  0.13403315081E+04  0.15294330000E+03 0.  0.
<mgrwt>
<rscale>  0 0.65410946E+03</rscale>
<asrwt>0</asrwt>
<pdfrwt beam="1">  1        2 0.25961721E+00 0.76233540E+03</pdfrwt>
<pdfrwt beam="2">  1       -2 0.21469004E+00 0.76233540E+03</pdfrwt>
<totfact> 0.11033829E+00</totfact>
</mgrwt>
</event>
<event>
 4    5  0.2409888E-007  0.1067497E+04  0.7818608E-02  0.9298137E-01
         -2   -1    0    0    0  501 -0.00000000000E+00  0.00000000000E+00  0.74941867422E+03  0.74941867422E+03  0.25500000000E-02 0.  1.
          2   -1    0    0  501    0  0.00000000000E+00 -0.00000000000E+00 -0.25569421163E+04  0.25569421163E+04  0.25500000000E-02 0. -1.
    8880023    1    1    2    0    0  0.53265853152E+03 -0.64962686230E+03 -0.21388463951E+04  0.23904422769E+04  0.65864270000E+03 0. -1.
    8880022    1    1    2    0    0 -0.53265853152E+03  0.64962686230E+03  0.33132295295E+03  0.91591851362E+03  0.15294330000E+03 0.  0.
<mgrwt>
<rscale>  0 0.10095453E+04</rscale>
<asrwt>0</asrwt>
<pdfrwt beam="1">  1        2 0.39337570E+00 0.10674972E+04</pdfrwt>
<pdfrwt beam="2">  1       -2 0.11529518E+00 0.10674972E+04</pdfrwt>
<totfact> 0.18878063E+00</totfact>
</mgrwt>
</event>
<event>
 4    5  0.2409888E-007  0.1671103E+04  0.7818608E-02  0.8797402E-01
          2   -1    0    0  501    0  0.00000000000E+00  0.00000000000E+00  0.29414592991E+04  0.29414592991E+04  0.25500000000E-02 0. -1.
         -2   -1    0    0    0  501 -0.00000000000E+00 -0.00000000000E+00 -0.10588339211E+04  0.10588339212E+04  0.25500000000E-02 0.  1.
    8880023    1    1    2    0    0  0.15341801932E+04 -0.71166287165E+02  0.17978259069E+04  0.24545390002E+04  0.65864270000E+03 0.  0.
    8880022    1    1    2    0    0 -0.15341801932E+04  0.71166287165E+02  0.84799471052E+02  0.15457542201E+04  0.15294330000E+03 0.  0.
<mgrwt>
<rscale>  0 0.16382260E+04</rscale>
<asrwt>0</asrwt>
<pdfrwt beam="1">  1        2 0.45253219E+00 0.16711025E+04</pdfrwt>
<pdfrwt beam="2">  1       -2 0.16289753E+00 0.16711025E+04</pdfrwt>
<totfact> 0.42164085E-01</totfact>
</mgrwt>
</event>
<event>
 4    5  0.2409888E-007  0.1163975E+04  0.7818608E-02  0.9192962E-01
         -2   -1    0    0    0  501 -0.00000000000E+00  0.00000000000E+00  0.20996413798E+04  0.20996413798E+04  0.25500000000E-02 0.  1.
          2   -1    0    0  501    0  0.00000000000E+00 -0.00000000000E+00 -0.71486670046E+03  0.71486670046E+03  0.25500000000E-02 0. -1.
    8880023    1    1    2    0    0 -0.86188303586E+03 -0.42211938641E+03  0.52110445102E+02  0.11651406991E+04  0.65864270000E+03 0.  0.
    8880022    1    1    2    0    0  0.86188303586E+03  0.42211938641E+03  0.13326642342E+04  0.16493673812E+04  0.15294330000E+03 0.  0.
<mgrwt>
<rscale>  0 0.11126364E+04</rscale>
<asrwt>0</asrwt>
<pdfrwt beam="1">  1        2 0.10997949E+00 0.11639748E+04</pdfrwt>
<pdfrwt beam="2">  1       -2 0.32302174E+00 0.11639748E+04</pdfrwt>
<totfact> 0.90407525E-01</totfact>
</mgrwt>
</event>
<event>
 4    5  0.2409888E-007  0.1046062E+04  0.7818608E-02  0.9323630E-01
          2   -1    0    0  501    0  0.00000000000E+00  0.00000000000E+00  0.38885495660E+04  0.38885495660E+04  0.25500000000E-02 0. -1.
         -2   -1    0    0    0  501 -0.00000000000E+00 -0.00000000000E+00 -0.33199848050E+03  0.33199848051E+03  0.25500000000E-02 0.  1.
    8880023    1    1    2    0    0 -0.69084599760E+03  0.42798161110E+03  0.31090058920E+04  0.32802689363E+04  0.65864270000E+03 0.  0.
    8880022    1    1    2    0    0  0.69084599760E+03 -0.42798161110E+03  0.44754519351E+03  0.94027911020E+03  0.15294330000E+03 0.  0.
<mgrwt>
<rscale>  0 0.98636256E+03</rscale>
<asrwt>0</asrwt>
<pdfrwt beam="1">  1        2 0.59823838E+00 0.10460625E+04</pdfrwt>
<pdfrwt beam="2">  1       -2 0.51076690E-01 0.10460625E+04</pdfrwt>
<totfact> 0.15843532E+00</totfact>
</mgrwt>
</event>
<event>
 4    5  0.2409888E-007  0.7275545E+03  0.7818608E-02  0.9897807E-01
          2   -1    0    0  501    0  0.00000000000E+00  0.00000000000E+00  0.33592153250E+04  0.33592153250E+04  0.25500000000E-02 0. -1.
         -2   -1    0    0    0  501 -0.00000000000E+00 -0.00000000000E+00 -0.14128267295E+03  0.14128267297E+03  0.25500000000E-02 0.  1.
    8880023    1    1    2    0    0  0.18279520972E+03  0.24922123356E+03  0.30124773267E+04  0.30990894085E+04  0.65864270000E+03 0.  0.
    8880022    1    1    2    0    0 -0.18279520972E+03 -0.24922123356E+03  0.20545532539E+03  0.40140858947E+03  0.15294330000E+03 0.  0.
<mgrwt>
<rscale>  0 0.60367698E+03</rscale>
<asrwt>0</asrwt>
<pdfrwt beam="1">  1        2 0.51680233E+00 0.72755448E+03</pdfrwt>
<pdfrwt beam="2">  1       -2 0.21735797E-01 0.72755448E+03</pdfrwt>
<totfact> 0.20137116E+01</totfact>
</mgrwt>
</event>
<event>
 4    5  0.2409888E-007  0.1327469E+04  0.7818608E-02  0.9042194E-01
          2   -1    0    0  501    0  0.00000000000E+00  0.00000000000E+00  0.40837867406E+04  0.40837867406E+04  0.25500000000E-02 0. -1.
         -2   -1    0    0    0  501 -0.00000000000E+00 -0.00000000000E+00 -0.46639552407E+03  0.46639552408E+03  0.25500000000E-02 0.  1.
    8880023    1    1    2    0    0 -0.71027461241E+03  0.90767527816E+03  0.28858774259E+04  0.31765489386E+04  0.65864270000E+03 0.  0.
    8880022    1    1    2    0    0  0.71027461241E+03 -0.90767527816E+03  0.73151379059E+03  0.13736333261E+04  0.15294330000E+03 0.  0.
<mgrwt>
<rscale>  0 0.12841940E+04</rscale>
<asrwt>0</asrwt>
<pdfrwt beam="1">  1        2 0.62827486E+00 0.13274693E+04</pdfrwt>
<pdfrwt beam="2">  1       -2 0.71753161E-01 0.13274693E+04</pdfrwt>
<totfact> 0.51458159E-01</totfact>
</mgrwt>
</event>
<event>
 4    5  0.2409888E-007  0.1555176E+04  0.7818608E-02  0.8871626E-01
         -2   -1    0    0    0  501 -0.00000000000E+00  0.00000000000E+00  0.33133745043E+04  0.33133745043E+04  0.25500000000E-02 0.  1.
          2   -1    0    0  501    0  0.00000000000E+00 -0.00000000000E+00 -0.10830381842E+04  0.10830381842E+04  0.25500000000E-02 0. -1.
    8880023    1    1    2    0    0  0.84608045192E+03  0.11264592164E+04  0.25092783334E+04  0.29521264298E+04  0.65864270000E+03 0.  0.
    8880022    1    1    2    0    0 -0.84608045192E+03 -0.11264592164E+04 -0.27894201322E+03  0.14442862587E+04  0.15294330000E+03 0.  0.
<mgrwt>
<rscale>  0 0.15194426E+04</rscale>
<asrwt>0</asrwt>
<pdfrwt beam="1">  1        2 0.16662126E+00 0.15551761E+04</pdfrwt>
<pdfrwt beam="2">  1       -2 0.50974992E+00 0.15551761E+04</pdfrwt>
<totfact> 0.29875224E-02</totfact>
</mgrwt>
</event>
<event>
 4    5  0.2409888E-007  0.1685095E+04  0.7818608E-02  0.8788911E-01
         -2   -1    0    0    0  501 -0.00000000000E+00  0.00000000000E+00  0.29340242761E+04  0.29340242761E+04  0.25500000000E-02 0.  1.
          2   -1    0    0  501    0  0.00000000000E+00 -0.00000000000E+00 -0.10910286254E+04  0.10910286254E+04  0.25500000000E-02 0. -1.
    8880023    1    1    2    0    0  0.95903504821E+03 -0.12190102833E+04  0.10175388926E+03  0.16881641966E+04  0.65864270000E+03 0.  0.
    8880022    1    1    2    0    0 -0.95903504821E+03  0.12190102833E+04  0.17412417614E+04  0.23368887049E+04  0.15294330000E+03 0.  0.
<mgrwt>
<rscale>  0 0.16525306E+04</rscale>
<asrwt>0</asrwt>
<pdfrwt beam="1">  1        2 0.16785056E+00 0.16850948E+04</pdfrwt>
<pdfrwt beam="2">  1       -2 0.45138835E+00 0.16850948E+04</pdfrwt>
<totfact> 0.69501535E-02</totfact>
</mgrwt>
</event>
<event>
 4    5  0.3225578E-007  0.8353653E+03  0.7818608E-02  0.9638982E-01
         -2   -1    0    0    0  501 -0.00000000000E+00  0.00000000000E+00  0.21282886215E+04  0.21282886215E+04  0.25500000000E-02 0.  1.
          2   -1    0    0  501    0  0.00000000000E+00 -0.00000000000E+00 -0.17767335292E+04  0.17767335292E+04  0.25500000000E-02 0. -1.
    8880023    1    1    2    0    0  0.51260627567E+03 -0.35492319996E+02 -0.16411156761E+04  0.18414928094E+04  0.65864270000E+03 0.  0.
    8880022    1    1    2    0    0 -0.51260627567E+03  0.35492319996E+02  0.19926707683E+04  0.20635293413E+04  0.15294330000E+03 0.  0.
<mgrwt>
<rscale>  0 0.74768949E+03</rscale>
<asrwt>0</asrwt>
<pdfrwt beam="1">  1        2 0.27334362E+00 0.83536525E+03</pdfrwt>
<pdfrwt beam="2">  1       -2 0.32742902E+00 0.83536525E+03</pdfrwt>
<totfact> 0.20034979E-01</totfact>
</mgrwt>
</event>
<event>
 4    5  0.2409888E-007  0.7518622E+03  0.7818608E-02  0.9826650E-01
         -2   -1    0    0    0  501 -0.00000000000E+00  0.00000000000E+00  0.17691844001E+03  0.17691844003E+03  0.25500000000E-02 0.  1.
          2   -1    0    0  501    0  0.00000000000E+00 -0.00000000000E+00 -0.41408609899E+04  0.41408609899E+04  0.25500000000E-02 0. -1.
    8880023    1    1    2    0    0  0.35866827472E+03  0.53326261802E+02 -0.38284234125E+04  0.39015538767E+04  0.65864270000E+03 0.  0.
    8880022    1    1    2    0    0 -0.35866827472E+03 -0.53326261802E+02 -0.13551913735E+03  0.41622555314E+03  0.15294330000E+03 0.  0.
<mgrwt>
<rscale>  0 0.63951763E+03</rscale>
<asrwt>0</asrwt>
<pdfrwt beam="1">  1        2 0.63705546E+00 0.75186224E+03</pdfrwt>
<pdfrwt beam="2">  1       -2 0.27218225E-01 0.75186224E+03</pdfrwt>
<totfact> 0.35689538E+00</totfact>
</mgrwt>
</event>
<event>
 4    5  0.2409888E-007  0.1322413E+04  0.7818608E-02  0.9046443E-01
          2   -1    0    0  501    0  0.00000000000E+00  0.00000000000E+00  0.12319061581E+04  0.12319061581E+04  0.25500000000E-02 0. -1.
         -2   -1    0    0    0  501 -0.00000000000E+00 -0.00000000000E+00 -0.20003820331E+04  0.20003820331E+04  0.25500000000E-02 0.  1.
    8880023    1    1    2    0    0  0.11044465391E+04 -0.30848461468E+03  0.58991853306E+03  0.14480258965E+04  0.65864270000E+03 0. -1.
    8880022    1    1    2    0    0 -0.11044465391E+04  0.30848461468E+03 -0.13583944081E+04  0.17842622947E+04  0.15294330000E+03 0.  0.
<mgrwt>
<rscale>  0 0.12789298E+04</rscale>
<asrwt>0</asrwt>
<pdfrwt beam="1">  1        2 0.18952402E+00 0.13224126E+04</pdfrwt>
<pdfrwt beam="2">  1       -2 0.30775108E+00 0.13224126E+04</pdfrwt>
<totfact> 0.49717915E-01</totfact>
</mgrwt>
</event>
<event>
 4    5  0.2409888E-007  0.1385410E+04  0.7818608E-02  0.8995103E-01
          2   -1    0    0  501    0  0.00000000000E+00  0.00000000000E+00  0.15418294702E+04  0.15418294702E+04  0.25500000000E-02 0. -1.
         -2   -1    0    0    0  501 -0.00000000000E+00 -0.00000000000E+00 -0.30924938255E+04  0.30924938255E+04  0.25500000000E-02 0.  1.
    8880023    1    1    2    0    0  0.84222639313E+03  0.88102505754E+03  0.10631008899E+04  0.17462944075E+04  0.65864270000E+03 0.  0.
    8880022    1    1    2    0    0 -0.84222639313E+03 -0.88102505754E+03 -0.26137652452E+04  0.28880288883E+04  0.15294330000E+03 0.  0.
<mgrwt>
<rscale>  0 0.13443668E+04</rscale>
<asrwt>0</asrwt>
<pdfrwt beam="1">  1        2 0.23720453E+00 0.13854099E+04</pdfrwt>
<pdfrwt beam="2">  1       -2 0.47576828E+00 0.13854099E+04</pdfrwt>
<totfact> 0.26924002E-02</totfact>
</mgrwt>
</event>
<event>
 4    5  0.2718341E-007  0.1021945E+04  0.7818608E-02  0.9353394E-01
          2   -1    0    0  501    0  0.00000000000E+00  0.00000000000E+00  0.18645444581E+04  0.18645444581E+04  0.25500000000E-02 0. -1.
         -2   -1    0    0    0  501 -0.00000000000E+00 -0.00000000000E+00 -0.15329922986E+04  0.15329922986E+04  0.25500000000E-02 0.  1.
    8880023    1    1    2    0    0  0.51263486364E+03  0.58971722813E+03  0.16008183982E+04  0.18992079041E+04  0.65864270000E+03 0. -1.
    8880022    1    1    2    0    0 -0.51263486364E+03 -0.58971722813E+03 -0.12692662388E+04  0.14983288526E+04  0.15294330000E+03 0.  0.
<mgrwt>
<rscale>  0 0.96012475E+03</rscale>
<asrwt>0</asrwt>
<pdfrwt beam="1">  1        2 0.28685299E+00 0.10219448E+04</pdfrwt>
<pdfrwt beam="2">  1       -2 0.23584497E+00 0.10219448E+04</pdfrwt>
<totfact> 0.62240413E-01</totfact>
</mgrwt>
</event>
<event>
 4    5  0.2409888E-007  0.1092437E+04  0.7818608E-02  0.9269524E-01
         -2   -1    0    0    0  501 -0.00000000000E+00  0.00000000000E+00  0.10220515300E+04  0.10220515300E+04  0.25500000000E-02 0.  1.
          2   -1    0    0  501    0  0.00000000000E+00 -0.00000000000E+00 -0.14475761850E+04  0.14475761850E+04  0.25500000000E-02 0. -1.
    8880023    1    1    2    0    0 -0.63568565121E+03 -0.59624819588E+03 -0.94421395036E+03  0.14439384850E+04  0.65864270000E+03 0. -1.
    8880022    1    1    2    0    0  0.63568565121E+03  0.59624819588E+03  0.51868929538E+03  0.10256892299E+04  0.15294330000E+03 0.  0.
<mgrwt>
<rscale>  0 0.10363763E+04</rscale>
<asrwt>0</asrwt>
<pdfrwt beam="1">  1        2 0.22270403E+00 0.10924369E+04</pdfrwt>
<pdfrwt beam="2">  1       -2 0.15723870E+00 0.10924369E+04</pdfrwt>
<totfact> 0.35258223E+00</totfact>
</mgrwt>
</event>
<event>
 4    5  0.2409888E-007  0.1234226E+04  0.7818608E-02  0.9124549E-01
         -2   -1    0    0    0  501 -0.00000000000E+00  0.00000000000E+00  0.35206806708E+03  0.35206806709E+03  0.25500000000E-02 0.  1.
          2   -1    0    0  501    0  0.00000000000E+00 -0.00000000000E+00 -0.40546559404E+04  0.40546559404E+04  0.25500000000E-02 0. -1.
    8880023    1    1    2    0    0  0.94809401467E+03 -0.43660216990E+03 -0.26145740055E+04  0.28912473350E+04  0.65864270000E+03 0.  0.
    8880022    1    1    2    0    0 -0.94809401467E+03  0.43660216990E+03 -0.10880138679E+04  0.15154766726E+04  0.15294330000E+03 0.  0.
<mgrwt>
<rscale>  0 0.11867325E+04</rscale>
<asrwt>0</asrwt>
<pdfrwt beam="1">  1        2 0.62379319E+00 0.12342260E+04</pdfrwt>
<pdfrwt beam="2">  1       -2 0.54164321E-01 0.12342260E+04</pdfrwt>
<totfact> 0.10074327E+00</totfact>
</mgrwt>
</event>
<event>
 4    5  0.2409888E-007  0.7532744E+03  0.7818608E-02  0.9822841E-01
          2   -1    0    0  501    0  0.00000000000E+00  0.00000000000E+00  0.17074493473E+04  0.17074493473E+04  0.25500000000E-02 0. -1.
         -2   -1    0    0    0  501 -0.00000000000E+00 -0.00000000000E+00 -0.35178935232E+03  0.35178935233E+03  0.25500000000E-02 0.  1.
    8880023    1    1    2    0    0 -0.36292385362E+03 -0.43569803019E+02  0.14657588237E+04  0.16479900445E+04  0.65864270000E+03 0. -1.
    8880022    1    1    2    0    0  0.36292385362E+03  0.43569803019E+02 -0.11009882870E+03  0.41124865514E+03  0.15294330000E+03 0.  0.
<mgrwt>
<rscale>  0 0.64151029E+03</rscale>
<asrwt>0</asrwt>
<pdfrwt beam="1">  1        2 0.26268451E+00 0.75327436E+03</pdfrwt>
<pdfrwt beam="2">  1       -2 0.54121440E-01 0.75327436E+03</pdfrwt>
<totfact> 0.32048505E+01</totfact>
</mgrwt>
</event>
<event>
 4    5  0.2409888E-007  0.9535182E+03  0.7818608E-02  0.9445070E-01
         -2   -1    0    0    0  501 -0.00000000000E+00  0.00000000000E+00  0.22189329014E+03  0.22189329015E+03  0.25500000000E-02 0.  1.
          2   -1    0    0  501    0  0.00000000000E+00 -0.00000000000E+00 -0.34713617398E+04  0.34713617398E+04  0.25500000000E-02 0. -1.
    8880023    1    1    2    0    0  0.85780343395E+02  0.68412602212E+03 -0.12462205966E+04  0.15691598590E+04  0.65864270000E+03 0.  0.
    8880022    1    1    2    0    0 -0.85780343395E+02 -0.68412602212E+03 -0.20032478531E+04  0.21240951710E+04  0.15294330000E+03 0.  0.
<mgrwt>
<rscale>  0 0.88457605E+03</rscale>
<asrwt>0</asrwt>
<pdfrwt beam="1">  1        2 0.53405561E+00 0.95351816E+03</pdfrwt>
<pdfrwt beam="2">  1       -2 0.34137432E-01 0.95351816E+03</pdfrwt>
<totfact> 0.71343180E+00</totfact>
</mgrwt>
</event>
<event>
 4    5  0.2772158E-007  0.6986910E+03  0.7818608E-02  0.1000268E+00
         -2   -1    0    0    0  501 -0.00000000000E+00  0.00000000000E+00  0.12162349687E+04  0.12162349687E+04  0.25500000000E-02 0.  1.
          2   -1    0    0  501    0  0.00000000000E+00 -0.00000000000E+00 -0.15345276091E+04  0.15345276091E+04  0.25500000000E-02 0. -1.
    8880023    1    1    2    0    0  0.17965723572E+03  0.14860054823E+03 -0.14369863302E+04  0.15978419085E+04  0.65864270000E+03 0. -1.
    8880022    1    1    2    0    0 -0.17965723572E+03 -0.14860054823E+03  0.11186936897E+04  0.11529206693E+04  0.15294330000E+03 0.  0.
<mgrwt>
<rscale>  0 0.55533077E+03</rscale>
<asrwt>0</asrwt>
<pdfrwt beam="1">  1        2 0.23608117E+00 0.69869096E+03</pdfrwt>
<pdfrwt beam="2">  1       -2 0.18711307E+00 0.69869096E+03</pdfrwt>
<totfact> 0.20477822E+00</totfact>
</mgrwt>
</event>
<event>
 4    5  0.2409888E-007  0.1032739E+04  0.7818608E-02  0.9339925E-01
          2   -1    0    0  501    0  0.00000000000E+00  0.00000000000E+00  0.16529631963E+04  0.16529631963E+04  0.25500000000E-02 0. -1.
         -2   -1    0    0    0  501 -0.00000000000E+00 -0.00000000000E+00 -0.11559503860E+04  0.11559503860E+04  0.25500000000E-02 0.  1.
    8880023    1    1    2    0    0 -0.51506906150E+03 -0.60617091779E+03  0.13054062869E+04  0.16645224840E+04  0.65864270000E+03 0.  0.
    8880022    1    1    2    0    0  0.51506906150E+03  0.60617091779E+03 -0.80839347663E+03  0.11443910982E+04  0.15294330000E+03 0.  0.
<mgrwt>
<rscale>  0 0.97188908E+03</rscale>
<asrwt>0</asrwt>
<pdfrwt beam="1">  1        2 0.25430203E+00 0.10327388E+04</pdfrwt>
<pdfrwt beam="2">  1       -2 0.17783852E+00 0.10327388E+04</pdfrwt>
<totfact> 0.19351051E+00</totfact>
</mgrwt>
</event>
<event>
 4    5  0.2409888E-007  0.1564230E+04  0.7818608E-02  0.8865564E-01
          2   -1    0    0  501    0  0.00000000000E+00  0.00000000000E+00  0.30530416252E+04  0.30530416252E+04  0.25500000000E-02 0. -1.
         -2   -1    0    0    0  501 -0.00000000000E+00 -0.00000000000E+00 -0.95293267534E+03  0.95293267535E+03  0.25500000000E-02 0.  1.
    8880023    1    1    2    0    0  0.46192856821E+03  0.13415017205E+04  0.20492687640E+04  0.25780452947E+04  0.65864270000E+03 0.  0.
    8880022    1    1    2    0    0 -0.46192856821E+03 -0.13415017205E+04  0.50840185904E+02  0.14279290059E+04  0.15294330000E+03 0.  0.
<mgrwt>
<rscale>  0 0.15287386E+04</rscale>
<asrwt>0</asrwt>
<pdfrwt beam="1">  1        2 0.46969871E+00 0.15642299E+04</pdfrwt>
<pdfrwt beam="2">  1       -2 0.14660503E+00 0.15642299E+04</pdfrwt>
<totfact> 0.48335922E-01</totfact>
</mgrwt>
</event>
<event>
 4    5  0.2409888E-007  0.1674025E+04  0.7818608E-02  0.8795621E-01
         -2   -1    0    0    0  501 -0.00000000000E+00  0.00000000000E+00  0.10773237236E+04  0.10773237236E+04  0.25500000000E-02 0.  1.
          2   -1    0    0  501    0  0.00000000000E+00 -0.00000000000E+00 -0.31543611769E+04  0.31543611769E+04  0.25500000000E-02 0. -1.
    8880023    1    1    2    0    0  0.10898585353E+04 -0.10866264828E+04 -0.20991725775E+04  0.26849365833E+04  0.65864270000E+03 0.  0.
    8880022    1    1    2    0    0 -0.10898585353E+04  0.10866264828E+04  0.22135124200E+02  0.15467483172E+04  0.15294330000E+03 0.  0.
<mgrwt>
<rscale>  0 0.16412140E+04</rscale>
<asrwt>0</asrwt>
<pdfrwt beam="1">  1        2 0.48528633E+00 0.16740248E+04</pdfrwt>
<pdfrwt beam="2">  1       -2 0.16574211E+00 0.16740248E+04</pdfrwt>
<totfact> 0.29482127E-01</totfact>
</mgrwt>
</event>
<event>
 4    5  0.2409888E-007  0.6972350E+03  0.7818608E-02  0.1000887E+00
         -2   -1    0    0    0  501 -0.00000000000E+00  0.00000000000E+00  0.21338616621E+03  0.21338616622E+03  0.25500000000E-02 0.  1.
          2   -1    0    0  501    0  0.00000000000E+00 -0.00000000000E+00 -0.21294804575E+04  0.21294804575E+04  0.25500000000E-02 0. -1.
    8880023    1    1    2    0    0  0.17756725209E+03  0.14420917655E+03 -0.19449889401E+04  0.20661845510E+04  0.65864270000E+03 0. -1.
    8880022    1    1    2    0    0 -0.17756725209E+03 -0.14420917655E+03  0.28894648770E+02  0.27668207271E+03  0.15294330000E+03 0.  0.
<mgrwt>
<rscale>  0 0.55262982E+03</rscale>
<asrwt>0</asrwt>
<pdfrwt beam="1">  1        2 0.32761236E+00 0.69723498E+03</pdfrwt>
<pdfrwt beam="2">  1       -2 0.32828643E-01 0.69723498E+03</pdfrwt>
<totfact> 0.50879374E+01</totfact>
</mgrwt>
</event>
<event>
 4    5  0.2409888E-007  0.9011181E+03  0.7818608E-02  0.9524239E-01
         -2   -1    0    0    0  501 -0.00000000000E+00  0.00000000000E+00  0.41216309130E+03  0.41216309131E+03  0.25500000000E-02 0.  1.
          2   -1    0    0  501    0  0.00000000000E+00 -0.00000000000E+00 -0.28902368189E+04  0.28902368189E+04  0.25500000000E-02 0. -1.
    8880023    1    1    2    0    0  0.56473075785E+03  0.24348071494E+03 -0.25110339451E+04  0.26678278368E+04  0.65864270000E+03 0. -1.
    8880022    1    1    2    0    0 -0.56473075785E+03 -0.24348071494E+03  0.32960217427E+02  0.63457207342E+03  0.15294330000E+03 0.  0.
<mgrwt>
<rscale>  0 0.82520126E+03</rscale>
<asrwt>0</asrwt>
<pdfrwt beam="1">  1        2 0.44465181E+00 0.90111814E+03</pdfrwt>
<pdfrwt beam="2">  1       -2 0.63409708E-01 0.90111814E+03</pdfrwt>
<totfact> 0.48539601E+00</totfact>
</mgrwt>
</event>
<event>
 4    5  0.2409888E-007  0.1194536E+04  0.7818608E-02  0.9162452E-01
          2   -1    0    0  501    0  0.00000000000E+00  0.00000000000E+00  0.19939275480E+04  0.19939275480E+04  0.25500000000E-02 0. -1.
         -2   -1    0    0    0  501 -0.00000000000E+00 -0.00000000000E+00 -0.89461209581E+03  0.89461209581E+03  0.25500000000E-02 0.  1.
    8880023    1    1    2    0    0  0.86993490351E+03  0.48612717086E+03  0.13962510249E+04  0.18375074132E+04  0.65864270000E+03 0.  0.
    8880022    1    1    2    0    0 -0.86993490351E+03 -0.48612717086E+03 -0.29693557269E+03  0.10510322307E+04  0.15294330000E+03 0.  0.
<mgrwt>
<rscale>  0 0.11449533E+04</rscale>
<asrwt>0</asrwt>
<pdfrwt beam="1">  1        2 0.30675808E+00 0.11945361E+04</pdfrwt>
<pdfrwt beam="2">  1       -2 0.13763263E+00 0.11945361E+04</pdfrwt>
<totfact> 0.24645019E+00</totfact>
</mgrwt>
</event>
<event>
 4    5  0.2511565E-007  0.9151584E+03  0.7818608E-02  0.9502123E-01
         -2   -1    0    0    0  501 -0.00000000000E+00  0.00000000000E+00  0.87956973031E+03  0.87956973032E+03  0.25500000000E-02 0.  1.
          2   -1    0    0  501    0  0.00000000000E+00 -0.00000000000E+00 -0.32592921082E+04  0.32592921082E+04  0.25500000000E-02 0. -1.
    8880023    1    1    2    0    0  0.58856327320E+03  0.23937004946E+03 -0.30609598571E+04  0.31948380554E+04  0.65864270000E+03 0. -1.
    8880022    1    1    2    0    0 -0.58856327320E+03 -0.23937004946E+03  0.68123747917E+03  0.94402378317E+03  0.15294330000E+03 0.  0.
<mgrwt>
<rscale>  0 0.84127494E+03</rscale>
<asrwt>0</asrwt>
<pdfrwt beam="1">  1        2 0.50142955E+00 0.91515843E+03</pdfrwt>
<pdfrwt beam="2">  1       -2 0.13531842E+00 0.91515843E+03</pdfrwt>
<totfact> 0.48376780E-01</totfact>
</mgrwt>
</event>
<event>
 4    5  0.2409888E-007  0.9141614E+03  0.7818608E-02  0.9503670E-01
         -2   -1    0    0    0  501 -0.00000000000E+00  0.00000000000E+00  0.92847533448E+03  0.92847533449E+03  0.25500000000E-02 0.  1.
          2   -1    0    0  501    0  0.00000000000E+00 -0.00000000000E+00 -0.17610574831E+04  0.17610574831E+04  0.25500000000E-02 0. -1.
    8880023    1    1    2    0    0 -0.18221010876E+03  0.60719051786E+03 -0.14998699912E+04  0.17565025037E+04  0.65864270000E+03 0.  0.
    8880022    1    1    2    0    0  0.18221010876E+03 -0.60719051786E+03  0.66728784260E+03  0.93303031388E+03  0.15294330000E+03 0.  0.
<mgrwt>
<rscale>  0 0.84013789E+03</rscale>
<asrwt>0</asrwt>
<pdfrwt beam="1">  1        2 0.27093192E+00 0.91416139E+03</pdfrwt>
<pdfrwt beam="2">  1       -2 0.14284236E+00 0.91416139E+03</pdfrwt>
<totfact> 0.31105502E+00</totfact>
</mgrwt>
</event>
<event>
 4    5  0.2409888E-007  0.8071194E+03  0.7818608E-02  0.9695609E-01
         -2   -1    0    0    0  501 -0.00000000000E+00  0.00000000000E+00  0.58582489622E+03  0.58582489622E+03  0.25500000000E-02 0.  1.
          2   -1    0    0  501    0  0.00000000000E+00 -0.00000000000E+00 -0.10215085188E+04  0.10215085188E+04  0.25500000000E-02 0. -1.
    8880023    1    1    2    0    0 -0.45763945984E+03 -0.90541199124E+02 -0.68326829759E+03  0.10574957951E+04  0.65864270000E+03 0. -1.
    8880022    1    1    2    0    0  0.45763945984E+03  0.90541199124E+02  0.24758467501E+03  0.54983761990E+03  0.15294330000E+03 0.  0.
<mgrwt>
<rscale>  0 0.71278856E+03</rscale>
<asrwt>0</asrwt>
<pdfrwt beam="1">  1        2 0.15715516E+00 0.80711944E+03</pdfrwt>
<pdfrwt beam="2">  1       -2 0.90126908E-01 0.80711944E+03</pdfrwt>
<totfact> 0.25985666E+01</totfact>
</mgrwt>
</event>
<event>
 4    5  0.2409888E-007  0.1787049E+04  0.7818608E-02  0.8729735E-01
          2   -1    0    0  501    0  0.00000000000E+00  0.00000000000E+00  0.30191659251E+04  0.30191659251E+04  0.25500000000E-02 0. -1.
         -2   -1    0    0    0  501 -0.00000000000E+00 -0.00000000000E+00 -0.14290189678E+04  0.14290189678E+04  0.25500000000E-02 0.  1.
    8880023    1    1    2    0    0  0.15985598446E+04  0.45203878373E+03 -0.42020150943E+03  0.18357865218E+04  0.65864270000E+03 0.  0.
    8880022    1    1    2    0    0 -0.15985598446E+04 -0.45203878373E+03  0.20103484667E+04  0.26123983711E+04  0.15294330000E+03 0.  0.
<mgrwt>
<rscale>  0 0.17565837E+04</rscale>
<asrwt>0</asrwt>
<pdfrwt beam="1">  1        2 0.46448706E+00 0.17870486E+04</pdfrwt>
<pdfrwt beam="2">  1       -2 0.21984907E+00 0.17870486E+04</pdfrwt>
<totfact> 0.15273414E-01</totfact>
</mgrwt>
</event>
<event>
 4    5  0.2409888E-007  0.1606793E+04  0.7818608E-02  0.8837689E-01
          2   -1    0    0  501    0  0.00000000000E+00  0.00000000000E+00  0.35118970163E+04  0.35118970163E+04  0.25500000000E-02 0. -1.
         -2   -1    0    0    0  501 -0.00000000000E+00 -0.00000000000E+00 -0.11607355904E+04  0.11607355904E+04  0.25500000000E-02 0.  1.
    8880023    1    1    2    0    0 -0.35872413968E+03  0.14210177231E+04  0.27149858291E+04  0.31548268790E+04  0.65864270000E+03 0. -1.
    8880022    1    1    2    0    0  0.35872413968E+03 -0.14210177231E+04 -0.36382440311E+03  0.15178057277E+04  0.15294330000E+03 0.  0.
<mgrwt>
<rscale>  0 0.15723949E+04</rscale>
<asrwt>0</asrwt>
<pdfrwt beam="1">  1        2 0.54029183E+00 0.16067933E+04</pdfrwt>
<pdfrwt beam="2">  1       -2 0.17857471E+00 0.16067933E+04</pdfrwt>
<totfact> 0.13861514E-01</totfact>
</mgrwt>
</event>
<event>
 4    5  0.2409888E-007  0.1284691E+04  0.7818608E-02  0.9078894E-01
          2   -1    0    0  501    0  0.00000000000E+00  0.00000000000E+00  0.41209665267E+04  0.41209665267E+04  0.25500000000E-02 0. -1.
         -2   -1    0    0    0  501 -0.00000000000E+00 -0.00000000000E+00 -0.56566923271E+03  0.56566923272E+03  0.25500000000E-02 0.  1.
    8880023    1    1    2    0    0  0.13930176187E+03 -0.10941733675E+04  0.33041398648E+04  0.35451051876E+04  0.65864270000E+03 0. -1.
    8880022    1    1    2    0    0 -0.13930176187E+03  0.10941733675E+04  0.25115742924E+03  0.11415305718E+04  0.15294330000E+03 0.  0.
<mgrwt>
<rscale>  0 0.12395875E+04</rscale>
<asrwt>0</asrwt>
<pdfrwt beam="1">  1        2 0.63399484E+00 0.12846908E+04</pdfrwt>
<pdfrwt beam="2">  1       -2 0.87026037E-01 0.12846908E+04</pdfrwt>
<totfact> 0.31191637E-01</totfact>
</mgrwt>
</event>
<event>
 4    5  0.2409888E-007  0.9025167E+03  0.7818608E-02  0.9522004E-01
          2   -1    0    0  501    0  0.00000000000E+00  0.00000000000E+00  0.15051675886E+04  0.15051675886E+04  0.25500000000E-02 0. -1.
         -2   -1    0    0    0  501 -0.00000000000E+00 -0.00000000000E+00 -0.73321776355E+03  0.73321776356E+03  0.25500000000E-02 0.  1.
    8880023    1    1    2    0    0  0.43058625351E+03 -0.44195205125E+03  0.11780601299E+04  0.14840357183E+04  0.65864270000E+03 0. -1.
    8880022    1    1    2    0    0 -0.43058625351E+03  0.44195205125E+03 -0.40611030488E+03  0.75434963383E+03  0.15294330000E+03 0.  0.
<mgrwt>
<rscale>  0 0.82680848E+03</rscale>
<asrwt>0</asrwt>
<pdfrwt beam="1">  1        2 0.23156424E+00 0.90251667E+03</pdfrwt>
<pdfrwt beam="2">  1       -2 0.11280273E+00 0.90251667E+03</pdfrwt>
<totfact> 0.78339981E+00</totfact>
</mgrwt>
</event>
<event>
 4    5  0.2409888E-007  0.1096881E+04  0.7818608E-02  0.9264537E-01
          2   -1    0    0  501    0  0.00000000000E+00  0.00000000000E+00  0.95308833064E+03  0.95308833064E+03  0.25500000000E-02 0. -1.
         -2   -1    0    0    0  501 -0.00000000000E+00 -0.00000000000E+00 -0.12236799103E+04  0.12236799103E+04  0.25500000000E-02 0.  1.
    8880023    1    1    2    0    0  0.39874378989E+03 -0.78124263487E+03  0.27723983524E+03  0.11313747377E+04  0.65864270000E+03 0.  0.
    8880022    1    1    2    0    0 -0.39874378989E+03  0.78124263487E+03 -0.54783141490E+03  0.10453935033E+04  0.15294330000E+03 0.  0.
<mgrwt>
<rscale>  0 0.10411422E+04</rscale>
<asrwt>0</asrwt>
<pdfrwt beam="1">  1        2 0.14662897E+00 0.10968805E+04</pdfrwt>
<pdfrwt beam="2">  1       -2 0.18825845E+00 0.10968805E+04</pdfrwt>
<totfact> 0.42269230E+00</totfact>
</mgrwt>
</event>
<event>
 4    5  0.2409888E-007  0.8470677E+03  0.7818608E-02  0.9616995E-01
         -2   -1    0    0    0  501 -0.00000000000E+00  0.00000000000E+00  0.39594834390E+03  0.39594834390E+03  0.25500000000E-02 0.  1.
          2   -1    0    0  501    0  0.00000000000E+00 -0.00000000000E+00 -0.17951680438E+04  0.17951680438E+04  0.25500000000E-02 0. -1.
    8880023    1    1    2    0    0 -0.53230602821E+03 -0.19072592367E+02 -0.14007358195E+04  0.16369436501E+04  0.65864270000E+03 0. -1.
    8880022    1    1    2    0    0  0.53230602821E+03  0.19072592367E+02  0.15161195725E+01  0.55417273758E+03  0.15294330000E+03 0.  0.
<mgrwt>
<rscale>  0 0.76181492E+03</rscale>
<asrwt>0</asrwt>
<pdfrwt beam="1">  1        2 0.27617969E+00 0.84706769E+03</pdfrwt>
<pdfrwt beam="2">  1       -2 0.60915131E-01 0.84706769E+03</pdfrwt>
<totfact> 0.22152809E+01</totfact>
</mgrwt>
</event>
<event>
 4    5  0.2409888E-007  0.6847695E+03  0.7818608E-02  0.1006745E+00
         -2   -1    0    0    0  501 -0.00000000000E+00  0.00000000000E+00  0.43222855463E+03  0.43222855463E+03  0.25500000000E-02 0.  1.
          2   -1    0    0  501    0  0.00000000000E+00 -0.00000000000E+00 -0.83255659646E+03  0.83255659646E+03  0.25500000000E-02 0. -1.
    8880023    1    1    2    0    0 -0.86535761156E+02  0.16616426379E+03 -0.63056361094E+03  0.93087038530E+03  0.65864270000E+03 0. -1.
    8880022    1    1    2    0    0  0.86535761156E+02 -0.16616426379E+03  0.23023556911E+03  0.33391476580E+03  0.15294330000E+03 0.  0.
<mgrwt>
<rscale>  0 0.52789080E+03</rscale>
<asrwt>0</asrwt>
<pdfrwt beam="1">  1        2 0.12808563E+00 0.68476946E+03</pdfrwt>
<pdfrwt beam="2">  1       -2 0.66496701E-01 0.68476946E+03</pdfrwt>
<totfact> 0.69118636E+01</totfact>
</mgrwt>
</event>
<event>
 4    5  0.2409888E-007  0.9993567E+03  0.7818608E-02  0.9382400E-01
          2   -1    0    0  501    0  0.00000000000E+00  0.00000000000E+00  0.17682646462E+04  0.17682646462E+04  0.25500000000E-02 0. -1.
         -2   -1    0    0    0  501 -0.00000000000E+00 -0.00000000000E+00 -0.89688164870E+03  0.89688164871E+03  0.25500000000E-02 0.  1.
    8880023    1    1    2    0    0  0.71147974162E+03 -0.24228129922E+03  0.14097657726E+04  0.17280490128E+04  0.65864270000E+03 0.  0.
    8880022    1    1    2    0    0 -0.71147974162E+03  0.24228129922E+03 -0.53838277509E+03  0.93709728215E+03  0.15294330000E+03 0.  0.
<mgrwt>
<rscale>  0 0.93538376E+03</rscale>
<asrwt>0</asrwt>
<pdfrwt beam="1">  1        2 0.27204071E+00 0.99935672E+03</pdfrwt>
<pdfrwt beam="2">  1       -2 0.13798179E+00 0.99935672E+03</pdfrwt>
<totfact> 0.33361736E+00</totfact>
</mgrwt>
</event>
<event>
 4    5  0.2409888E-007  0.1072758E+04  0.7818608E-02  0.9292010E-01
          2   -1    0    0  501    0  0.00000000000E+00  0.00000000000E+00  0.35911602179E+04  0.35911602179E+04  0.25500000000E-02 0. -1.
         -2   -1    0    0    0  501 -0.00000000000E+00 -0.00000000000E+00 -0.75098084215E+03  0.75098084216E+03  0.25500000000E-02 0.  1.
    8880023    1    1    2    0    0 -0.79340220234E+02  0.84303315296E+03  0.32255964069E+04  0.33993061284E+04  0.65864270000E+03 0.  0.
    8880022    1    1    2    0    0  0.79340220234E+02 -0.84303315296E+03 -0.38541703117E+03  0.94283493172E+03  0.15294330000E+03 0.  0.
<mgrwt>
<rscale>  0 0.10152173E+04</rscale>
<asrwt>0</asrwt>
<pdfrwt beam="1">  1        2 0.55248618E+00 0.10727581E+04</pdfrwt>
<pdfrwt beam="2">  1       -2 0.11553552E+00 0.10727581E+04</pdfrwt>
<totfact> 0.41724453E-01</totfact>
</mgrwt>
</event>
<event>
 4    5  0.2409888E-007  0.7022724E+03  0.7818608E-02  0.9987902E-01
         -2   -1    0    0    0  501 -0.00000000000E+00  0.00000000000E+00  0.33367128853E+03  0.33367128854E+03  0.25500000000E-02 0.  1.
          2   -1    0    0  501    0  0.00000000000E+00 -0.00000000000E+00 -0.19953919815E+04  0.19953919815E+04  0.25500000000E-02 0. -1.
    8880023    1    1    2    0    0  0.20987086402E+03 -0.12381673304E+03 -0.18543219107E+04  0.19828505536E+04  0.65864270000E+03 0. -1.
    8880022    1    1    2    0    0 -0.20987086402E+03  0.12381673304E+03  0.19260121776E+03  0.34621271646E+03  0.15294330000E+03 0.  0.
<mgrwt>
<rscale>  0 0.56183920E+03</rscale>
<asrwt>0</asrwt>
<pdfrwt beam="1">  1        2 0.30698338E+00 0.70227243E+03</pdfrwt>
<pdfrwt beam="2">  1       -2 0.51334045E-01 0.70227243E+03</pdfrwt>
<totfact> 0.25062497E+01</totfact>
</mgrwt>
</event>
<event>
 4    5  0.2409888E-007  0.9113222E+03  0.7818608E-02  0.9508095E-01
         -2   -1    0    0    0  501 -0.00000000000E+00  0.00000000000E+00  0.17321827290E+04  0.17321827290E+04  0.25500000000E-02 0.  1.
          2   -1    0    0  501    0  0.00000000000E+00 -0.00000000000E+00 -0.52426916014E+03  0.52426916015E+03  0.25500000000E-02 0. -1.
    8880023    1    1    2    0    0  0.28752664962E+03 -0.56038057885E+03  0.29790094059E+02  0.91180898404E+03  0.65864270000E+03 0.  0.
    8880022    1    1    2    0    0 -0.28752664962E+03  0.56038057885E+03  0.11781234748E+04  0.13446429051E+04  0.15294330000E+03 0.  1.
<mgrwt>
<rscale>  0 0.83689642E+03</rscale>
<asrwt>0</asrwt>
<pdfrwt beam="1">  1        2 0.80656793E-01 0.91132221E+03</pdfrwt>
<pdfrwt beam="2">  1       -2 0.26648965E+00 0.91132221E+03</pdfrwt>
<totfact> 0.30018030E+00</totfact>
</mgrwt>
</event>
<event>
 4    5  0.2409888E-007  0.1408929E+04  0.7818608E-02  0.8976775E-01
         -2   -1    0    0    0  501 -0.00000000000E+00  0.00000000000E+00  0.70358172565E+03  0.70358172565E+03  0.25500000000E-02 0.  1.
          2   -1    0    0  501    0  0.00000000000E+00 -0.00000000000E+00 -0.39925524502E+04  0.39925524502E+04  0.25500000000E-02 0. -1.
    8880023    1    1    2    0    0 -0.11318267787E+04  0.51984625316E+03 -0.31284207889E+04  0.34310492306E+04  0.65864270000E+03 0.  0.
    8880022    1    1    2    0    0  0.11318267787E+04 -0.51984625316E+03 -0.16054993565E+03  0.12650849453E+04  0.15294330000E+03 0.  1.
<mgrwt>
<rscale>  0 0.13687225E+04</rscale>
<asrwt>0</asrwt>
<pdfrwt beam="1">  1        2 0.61423882E+00 0.14089294E+04</pdfrwt>
<pdfrwt beam="2">  1       -2 0.10824335E+00 0.14089294E+04</pdfrwt>
<totfact> 0.23232695E-01</totfact>
</mgrwt>
</event>
<event>
 4    5  0.2409888E-007  0.1218274E+04  0.7818608E-02  0.9139560E-01
          2   -1    0    0  501    0  0.00000000000E+00  0.00000000000E+00  0.22625569044E+04  0.22625569044E+04  0.25500000000E-02 0. -1.
         -2   -1    0    0    0  501 -0.00000000000E+00 -0.00000000000E+00 -0.61385576375E+03  0.61385576375E+03  0.25500000000E-02 0.  1.
    8880023    1    1    2    0    0 -0.42941291877E+03  0.93058338241E+03  0.46696381762E+03  0.13047016133E+04  0.65864270000E+03 0.  0.
    8880022    1    1    2    0    0  0.42941291877E+03 -0.93058338241E+03  0.11817373231E+04  0.15717110549E+04  0.15294330000E+03 0.  0.
<mgrwt>
<rscale>  0 0.11699646E+04</rscale>
<asrwt>0</asrwt>
<pdfrwt beam="1">  1        2 0.34808568E+00 0.12182738E+04</pdfrwt>
<pdfrwt beam="2">  1       -2 0.94439348E-01 0.12182738E+04</pdfrwt>
<totfact> 0.44078303E+00</totfact>
</mgrwt>
</event>
<event>
 4    5  0.2409888E-007  0.1028593E+04  0.7818608E-02  0.9345069E-01
          2   -1    0    0  501    0  0.00000000000E+00  0.00000000000E+00  0.25555154571E+04  0.25555154571E+04  0.25500000000E-02 0. -1.
         -2   -1    0    0    0  501 -0.00000000000E+00 -0.00000000000E+00 -0.40544739155E+03  0.40544739156E+03  0.25500000000E-02 0.  1.
    8880023    1    1    2    0    0  0.47090798418E+03  0.63438093738E+03  0.18212696513E+04  0.20916564852E+04  0.65864270000E+03 0.  0.
    8880022    1    1    2    0    0 -0.47090798418E+03 -0.63438093738E+03  0.32879841428E+03  0.86930636345E+03  0.15294330000E+03 0.  0.
<mgrwt>
<rscale>  0 0.96737488E+03</rscale>
<asrwt>0</asrwt>
<pdfrwt beam="1">  1        2 0.39315622E+00 0.10285931E+04</pdfrwt>
<pdfrwt beam="2">  1       -2 0.62376522E-01 0.10285931E+04</pdfrwt>
<totfact> 0.77757897E+00</totfact>
</mgrwt>
</event>
<event>
 4    5  0.2409888E-007  0.1091861E+04  0.7818608E-02  0.9270173E-01
         -2   -1    0    0    0  501 -0.00000000000E+00  0.00000000000E+00  0.55455048706E+04  0.55455048706E+04  0.25500000000E-02 0.  1.
          2   -1    0    0  501    0  0.00000000000E+00 -0.00000000000E+00 -0.13946446380E+04  0.13946446380E+04  0.25500000000E-02 0. -1.
    8880023    1    1    2    0    0 -0.86867301489E+03 -0.61295949088E+02 -0.11384723383E+04  0.15774281193E+04  0.65864270000E+03 0. -1.
    8880022    1    1    2    0    0  0.86867301489E+03  0.61295949088E+02  0.52893325709E+04  0.53627213893E+04  0.15294330000E+03 0.  0.
<mgrwt>
<rscale>  0 0.10357582E+04</rscale>
<asrwt>0</asrwt>
<pdfrwt beam="1">  1        2 0.21456072E+00 0.10918609E+04</pdfrwt>
<pdfrwt beam="2">  1       -2 0.85315459E+00 0.10918609E+04</pdfrwt>
<totfact> 0.48894964E-04</totfact>
</mgrwt>
</event>
<event>
 4    5  0.2409888E-007  0.7294543E+03  0.7818608E-02  0.9891805E-01
         -2   -1    0    0    0  501 -0.00000000000E+00  0.00000000000E+00  0.18879345526E+03  0.18879345528E+03  0.25500000000E-02 0.  1.
          2   -1    0    0  501    0  0.00000000000E+00 -0.00000000000E+00 -0.19232718471E+04  0.19232718471E+04  0.25500000000E-02 0. -1.
    8880023    1    1    2    0    0  0.18063211348E+03  0.25625276558E+03 -0.15597988567E+04  0.17219396389E+04  0.65864270000E+03 0. -1.
    8880022    1    1    2    0    0 -0.18063211348E+03 -0.25625276558E+03 -0.17467953506E+03  0.39012566344E+03  0.15294330000E+03 0.  0.
<mgrwt>
<rscale>  0 0.60660119E+03</rscale>
<asrwt>0</asrwt>
<pdfrwt beam="1">  1        2 0.29588796E+00 0.72945435E+03</pdfrwt>
<pdfrwt beam="2">  1       -2 0.29045148E-01 0.72945435E+03</pdfrwt>
<totfact> 0.82498951E+01</totfact>
</mgrwt>
</event>
<event>
 4    5  0.2409888E-007  0.8927518E+03  0.7818608E-02  0.9537769E-01
         -2   -1    0    0    0  501 -0.00000000000E+00  0.00000000000E+00  0.55165785768E+03  0.55165785769E+03  0.25500000000E-02 0.  1.
          2   -1    0    0  501    0  0.00000000000E+00 -0.00000000000E+00 -0.28346769128E+04  0.28346769128E+04  0.25500000000E-02 0. -1.
    8880023    1    1    2    0    0 -0.59488096511E+03 -0.96500031335E+02 -0.25558986181E+04  0.27073277546E+04  0.65864270000E+03 0.  0.
    8880022    1    1    2    0    0  0.59488096511E+03  0.96500031335E+02  0.27287956297E+03  0.67900701587E+03  0.15294330000E+03 0.  0.
<mgrwt>
<rscale>  0 0.81555641E+03</rscale>
<asrwt>0</asrwt>
<pdfrwt beam="1">  1        2 0.43610413E+00 0.89275183E+03</pdfrwt>
<pdfrwt beam="2">  1       -2 0.84870441E-01 0.89275183E+03</pdfrwt>
<totfact> 0.27542931E+00</totfact>
</mgrwt>
</event>
<event>
 4    5  0.2409888E-007  0.7423598E+03  0.7818608E-02  0.9853126E-01
          2   -1    0    0  501    0  0.00000000000E+00  0.00000000000E+00  0.20063168209E+04  0.20063168209E+04  0.25500000000E-02 0. -1.
         -2   -1    0    0    0  501 -0.00000000000E+00 -0.00000000000E+00 -0.35190361939E+03  0.35190361939E+03  0.25500000000E-02 0.  1.
    8880023    1    1    2    0    0  0.29191404721E+03  0.17909251230E+03  0.18068083158E+04  0.19533700200E+04  0.65864270000E+03 0. -1.
    8880022    1    1    2    0    0 -0.29191404721E+03 -0.17909251230E+03 -0.15239511427E+03  0.40485042026E+03  0.15294330000E+03 0.  0.
<mgrwt>
<rscale>  0 0.62587808E+03</rscale>
<asrwt>0</asrwt>
<pdfrwt beam="1">  1        2 0.30866413E+00 0.74235985E+03</pdfrwt>
<pdfrwt beam="2">  1       -2 0.54139017E-01 0.74235985E+03</pdfrwt>
<totfact> 0.22034959E+01</totfact>
</mgrwt>
</event>
<event>
 4    5  0.2409888E-007  0.8468840E+03  0.7818608E-02  0.9617334E-01
          2   -1    0    0  501    0  0.00000000000E+00  0.00000000000E+00  0.11238444630E+04  0.11238444630E+04  0.25500000000E-02 0. -1.
         -2   -1    0    0    0  501 -0.00000000000E+00 -0.00000000000E+00 -0.60599795680E+03  0.60599795681E+03  0.25500000000E-02 0.  1.
    8880023    1    1    2    0    0 -0.36871513069E+03 -0.38399402059E+03  0.74811463143E+03  0.11299946741E+04  0.65864270000E+03 0. -1.
    8880022    1    1    2    0    0  0.36871513069E+03  0.38399402059E+03 -0.23026812528E+03  0.59984774567E+03  0.15294330000E+03 0.  0.
<mgrwt>
<rscale>  0 0.76159446E+03</rscale>
<asrwt>0</asrwt>
<pdfrwt beam="1">  1        2 0.17289915E+00 0.84688397E+03</pdfrwt>
<pdfrwt beam="2">  1       -2 0.93230456E-01 0.84688397E+03</pdfrwt>
<totfact> 0.20675553E+01</totfact>
</mgrwt>
</event>
<event>
 4    5  0.2409888E-007  0.9911366E+03  0.7818608E-02  0.9393247E-01
          2   -1    0    0  501    0  0.00000000000E+00  0.00000000000E+00  0.21805580519E+04  0.21805580519E+04  0.25500000000E-02 0. -1.
         -2   -1    0    0    0  501 -0.00000000000E+00 -0.00000000000E+00 -0.48806721066E+03  0.48806721067E+03  0.25500000000E-02 0.  1.
    8880023    1    1    2    0    0  0.73788121860E+03 -0.63819647076E+02  0.16327165510E+04  0.19100039744E+04  0.65864270000E+03 0. -1.
    8880022    1    1    2    0    0 -0.73788121860E+03  0.63819647076E+02  0.59774290289E+02  0.75862128820E+03  0.15294330000E+03 0.  0.
<mgrwt>
<rscale>  0 0.92633553E+03</rscale>
<asrwt>0</asrwt>
<pdfrwt beam="1">  1        2 0.33547047E+00 0.99113664E+03</pdfrwt>
<pdfrwt beam="2">  1       -2 0.75087263E-01 0.99113664E+03</pdfrwt>
<totfact> 0.84865096E+00</totfact>
</mgrwt>
</event>
<event>
 4    5  0.2409888E-007  0.8260467E+03  0.7818608E-02  0.9657074E-01
          2   -1    0    0  501    0  0.00000000000E+00  0.00000000000E+00  0.28108490137E+04  0.28108490137E+04  0.25500000000E-02 0. -1.
         -2   -1    0    0    0  501 -0.00000000000E+00 -0.00000000000E+00 -0.45828322965E+03  0.45828322966E+03  0.25500000000E-02 0.  1.
    8880023    1    1    2    0    0  0.24322727915E+03 -0.43518198092E+03  0.25734730656E+04  0.27027979376E+04  0.65864270000E+03 0. -1.
    8880022    1    1    2    0    0 -0.24322727915E+03  0.43518198092E+03 -0.22090728155E+03  0.56633430577E+03  0.15294330000E+03 0.  0.
<mgrwt>
<rscale>  0 0.73631131E+03</rscale>
<asrwt>0</asrwt>
<pdfrwt beam="1">  1        2 0.43243831E+00 0.82604665E+03</pdfrwt>
<pdfrwt beam="2">  1       -2 0.70505112E-01 0.82604665E+03</pdfrwt>
<totfact> 0.43571556E+00</totfact>
</mgrwt>
</event>
<event>
 4    5  0.2409888E-007  0.1413515E+04  0.7818608E-02  0.8973252E-01
         -2   -1    0    0    0  501 -0.00000000000E+00  0.00000000000E+00  0.19908794143E+04  0.19908794143E+04  0.25500000000E-02 0.  1.
          2   -1    0    0  501    0  0.00000000000E+00 -0.00000000000E+00 -0.17401889524E+04  0.17401889524E+04  0.25500000000E-02 0. -1.
    8880023    1    1    2    0    0  0.66805681780E+03 -0.10573150339E+04 -0.11679868903E+04  0.18336353440E+04  0.65864270000E+03 0. -1.
    8880022    1    1    2    0    0 -0.66805681780E+03  0.10573150339E+04  0.14186773522E+04  0.18974330226E+04  0.15294330000E+03 0.  0.
<mgrwt>
<rscale>  0 0.13734670E+04</rscale>
<asrwt>0</asrwt>
<pdfrwt beam="1">  1        2 0.26772138E+00 0.14135152E+04</pdfrwt>
<pdfrwt beam="2">  1       -2 0.30628914E+00 0.14135152E+04</pdfrwt>
<totfact> 0.25707881E-01</totfact>
</mgrwt>
</event>
<event>
 4    5  0.2409888E-007  0.8377803E+03  0.7818608E-02  0.9634380E-01
         -2   -1    0    0    0  501 -0.00000000000E+00  0.00000000000E+00  0.23357033057E+04  0.23357033057E+04  0.25500000000E-02 0.  1.
          2   -1    0    0  501    0  0.00000000000E+00 -0.00000000000E+00 -0.30033777669E+03  0.30033777670E+03  0.25500000000E-02 0. -1.
    8880023    1    1    2    0    0  0.17551052254E+03  0.48709506517E+03  0.42869308410E+03  0.94109166007E+03  0.65864270000E+03 0. -1.
    8880022    1    1    2    0    0 -0.17551052254E+03 -0.48709506517E+03  0.16066724449E+04  0.16949494224E+04  0.15294330000E+03 0.  0.
<mgrwt>
<rscale>  0 0.75061880E+03</rscale>
<asrwt>0</asrwt>
<pdfrwt beam="1">  1        2 0.46205813E-01 0.83778025E+03</pdfrwt>
<pdfrwt beam="2">  1       -2 0.35933896E+00 0.83778025E+03</pdfrwt>
<totfact> 0.15487757E+00</totfact>
</mgrwt>
</event>
<event>
 4    5  0.2409888E-007  0.8323838E+03  0.7818608E-02  0.9644712E-01
          2   -1    0    0  501    0  0.00000000000E+00  0.00000000000E+00  0.27441200690E+04  0.27441200690E+04  0.25500000000E-02 0. -1.
         -2   -1    0    0    0  501 -0.00000000000E+00 -0.00000000000E+00 -0.28096337527E+03  0.28096337529E+03  0.25500000000E-02 0.  1.
    8880023    1    1    2    0    0  0.74244836848E+00  0.50897160836E+03  0.45671001418E+03  0.94944557120E+03  0.65864270000E+03 0.  0.
    8880022    1    1    2    0    0 -0.74244836848E+00 -0.50897160836E+03  0.20064466795E+04  0.20756378731E+04  0.15294330000E+03 0.  0.
<mgrwt>
<rscale>  0 0.74406235E+03</rscale>
<asrwt>0</asrwt>
<pdfrwt beam="1">  1        2 0.42217231E+00 0.83238384E+03</pdfrwt>
<pdfrwt beam="2">  1       -2 0.43225136E-01 0.83238384E+03</pdfrwt>
<totfact> 0.13196255E+01</totfact>
</mgrwt>
</event>
<event>
 4    5  0.2409888E-007  0.9543569E+03  0.7818608E-02  0.9443873E-01
          2   -1    0    0  501    0  0.00000000000E+00  0.00000000000E+00  0.30086379822E+04  0.30086379822E+04  0.25500000000E-02 0. -1.
         -2   -1    0    0    0  501 -0.00000000000E+00 -0.00000000000E+00 -0.31962075035E+03  0.31962075036E+03  0.25500000000E-02 0.  1.
    8880023    1    1    2    0    0 -0.38639002152E+03 -0.57244179349E+03  0.23648195320E+04  0.25501310713E+04  0.65864270000E+03 0.  0.
    8880022    1    1    2    0    0  0.38639002152E+03  0.57244179349E+03  0.32419769993E+03  0.77812766133E+03  0.15294330000E+03 0.  0.
<mgrwt>
<rscale>  0 0.88551401E+03</rscale>
<asrwt>0</asrwt>
<pdfrwt beam="1">  1        2 0.46286739E+00 0.95435688E+03</pdfrwt>
<pdfrwt beam="2">  1       -2 0.49172422E-01 0.95435688E+03</pdfrwt>
<totfact> 0.69345771E+00</totfact>
</mgrwt>
</event>
<event>
 4    5  0.2409888E-007  0.1248652E+04  0.7818608E-02  0.9111221E-01
          2   -1    0    0  501    0  0.00000000000E+00  0.00000000000E+00  0.31948198822E+04  0.31948198822E+04  0.25500000000E-02 0. -1.
         -2   -1    0    0    0  501 -0.00000000000E+00 -0.00000000000E+00 -0.64521811159E+03  0.64521811159E+03  0.25500000000E-02 0.  1.
    8880023    1    1    2    0    0  0.10112038555E+04  0.32060580288E+03  0.24670983383E+04  0.27650869309E+04  0.65864270000E+03 0.  0.
    8880022    1    1    2    0    0 -0.10112038555E+04 -0.32060580288E+03  0.82503432296E+02  0.10749510629E+04  0.15294330000E+03 0.  0.
<mgrwt>
<rscale>  0 0.12018699E+04</rscale>
<asrwt>0</asrwt>
<pdfrwt beam="1">  1        2 0.49151075E+00 0.12486519E+04</pdfrwt>
<pdfrwt beam="2">  1       -2 0.99264324E-01 0.12486519E+04</pdfrwt>
<totfact> 0.10849763E+00</totfact>
</mgrwt>
</event>
<event>
 4    5  0.2409888E-007  0.8970110E+03  0.7818608E-02  0.9530847E-01
         -2   -1    0    0    0  501 -0.00000000000E+00  0.00000000000E+00  0.90671932274E+03  0.90671932275E+03  0.25500000000E-02 0.  1.
          2   -1    0    0  501    0  0.00000000000E+00 -0.00000000000E+00 -0.80464290149E+03  0.80464290149E+03  0.25500000000E-02 0. -1.
    8880023    1    1    2    0    0 -0.59497681239E+03 -0.12969604688E+03 -0.32271956192E+03  0.95329774665E+03  0.65864270000E+03 0. -1.
    8880022    1    1    2    0    0  0.59497681239E+03  0.12969604688E+03  0.42479598317E+03  0.75806447759E+03  0.15294330000E+03 0.  0.
<mgrwt>
<rscale>  0 0.82047299E+03</rscale>
<asrwt>0</asrwt>
<pdfrwt beam="1">  1        2 0.12379122E+00 0.89701097E+03</pdfrwt>
<pdfrwt beam="2">  1       -2 0.13949528E+00 0.89701097E+03</pdfrwt>
<totfact> 0.12404377E+01</totfact>
</mgrwt>
</event>
<event>
 4    5  0.2409888E-007  0.7257948E+03  0.7818608E-02  0.9903445E-01
          2   -1    0    0  501    0  0.00000000000E+00  0.00000000000E+00  0.16310780322E+04  0.16310780322E+04  0.25500000000E-02 0. -1.
         -2   -1    0    0    0  501 -0.00000000000E+00 -0.00000000000E+00 -0.27727414927E+03  0.27727414928E+03  0.25500000000E-02 0.  1.
    8880023    1    1    2    0    0  0.25718468264E+03 -0.16378008795E+03  0.13872067345E+04  0.15656055087E+04  0.65864270000E+03 0.  0.
    8880022    1    1    2    0    0 -0.25718468264E+03  0.16378008795E+03 -0.33402851619E+02  0.34274667279E+03  0.15294330000E+03 0.  0.
<mgrwt>
<rscale>  0 0.60094625E+03</rscale>
<asrwt>0</asrwt>
<pdfrwt beam="1">  1        2 0.25093508E+00 0.72579480E+03</pdfrwt>
<pdfrwt beam="2">  1       -2 0.42657561E-01 0.72579480E+03</pdfrwt>
<totfact> 0.57253685E+01</totfact>
</mgrwt>
</event>
<event>
 4    5  0.2409888E-007  0.9203388E+03  0.7818608E-02  0.9494140E-01
          2   -1    0    0  501    0  0.00000000000E+00  0.00000000000E+00  0.57012934612E+03  0.57012934613E+03  0.25500000000E-02 0. -1.
         -2   -1    0    0    0  501 -0.00000000000E+00 -0.00000000000E+00 -0.12839378886E+04  0.12839378886E+04  0.25500000000E-02 0.  1.
    8880023    1    1    2    0    0  0.38958394226E+03 -0.51130978347E+03 -0.56536168056E+02  0.92207368865E+03  0.65864270000E+03 0. -1.
    8880022    1    1    2    0    0 -0.38958394226E+03  0.51130978347E+03 -0.65727237443E+03  0.93199354608E+03  0.15294330000E+03 0.  0.
<mgrwt>
<rscale>  0 0.84717259E+03</rscale>
<asrwt>0</asrwt>
<pdfrwt beam="1">  1        2 0.87712208E-01 0.92033882E+03</pdfrwt>
<pdfrwt beam="2">  1       -2 0.19752890E+00 0.92033882E+03</pdfrwt>
<totfact> 0.72948239E+00</totfact>
</mgrwt>
</event>
<event>
 4    5  0.2409888E-007  0.8114338E+03  0.7818608E-02  0.9686598E-01
          2   -1    0    0  501    0  0.00000000000E+00  0.00000000000E+00  0.15160779211E+04  0.15160779211E+04  0.25500000000E-02 0. -1.
         -2   -1    0    0    0  501 -0.00000000000E+00 -0.00000000000E+00 -0.38875321957E+03  0.38875321958E+03  0.25500000000E-02 0.  1.
    8880023    1    1    2    0    0  0.60180954367E+01  0.47389699784E+03  0.11486756582E+04  0.14063714147E+04  0.65864270000E+03 0. -1.
    8880022    1    1    2    0    0 -0.60180954367E+01 -0.47389699784E+03 -0.21350956708E+02  0.49845972596E+03  0.15294330000E+03 0.  0.
<mgrwt>
<rscale>  0 0.71820370E+03</rscale>
<asrwt>0</asrwt>
<pdfrwt beam="1">  1        2 0.23324276E+00 0.81143379E+03</pdfrwt>
<pdfrwt beam="2">  1       -2 0.59808188E-01 0.81143379E+03</pdfrwt>
<totfact> 0.32949584E+01</totfact>
</mgrwt>
</event>
<event>
 4    5  0.2409888E-007  0.1343514E+04  0.7818608E-02  0.9028865E-01
          2   -1    0    0  501    0  0.00000000000E+00  0.00000000000E+00  0.39972842905E+04  0.39972842905E+04  0.25500000000E-02 0. -1.
         -2   -1    0    0    0  501 -0.00000000000E+00 -0.00000000000E+00 -0.63284982285E+03  0.63284982286E+03  0.25500000000E-02 0.  1.
    8880023    1    1    2    0    0 -0.99833651612E+03  0.61200029351E+03  0.31571731551E+04  0.34311474314E+04  0.65864270000E+03 0.  0.
    8880022    1    1    2    0    0  0.99833651612E+03 -0.61200029351E+03  0.20726131251E+03  0.11989866819E+04  0.15294330000E+03 0.  0.
<mgrwt>
<rscale>  0 0.13008834E+04</rscale>
<asrwt>0</asrwt>
<pdfrwt beam="1">  1        2 0.61496681E+00 0.13435142E+04</pdfrwt>
<pdfrwt beam="2">  1       -2 0.97361511E-01 0.13435142E+04</pdfrwt>
<totfact> 0.30002065E-01</totfact>
</mgrwt>
</event>
<event>
 4    5  0.2409888E-007  0.1055801E+04  0.7818608E-02  0.9311941E-01
         -2   -1    0    0    0  501 -0.00000000000E+00  0.00000000000E+00  0.57698722149E+03  0.57698722149E+03  0.25500000000E-02 0.  1.
          2   -1    0    0  501    0  0.00000000000E+00 -0.00000000000E+00 -0.16365788294E+04  0.16365788294E+04  0.25500000000E-02 0. -1.
    8880023    1    1    2    0    0  0.80562617462E+03  0.17852444020E+03 -0.83145381584E+03  0.13438862166E+04  0.65864270000E+03 0.  0.
    8880022    1    1    2    0    0 -0.80562617462E+03 -0.17852444020E+03 -0.22813779203E+03  0.86967983428E+03  0.15294330000E+03 0.  0.
<mgrwt>
<rscale>  0 0.99690969E+03</rscale>
<asrwt>0</asrwt>
<pdfrwt beam="1">  1        2 0.25178136E+00 0.10558005E+04</pdfrwt>
<pdfrwt beam="2">  1       -2 0.88767265E-01 0.10558005E+04</pdfrwt>
<totfact> 0.11512996E+01</totfact>
</mgrwt>
</event>
<event>
 4    5  0.2409888E-007  0.6881131E+03  0.7818608E-02  0.1005063E+00
          2   -1    0    0  501    0  0.00000000000E+00  0.00000000000E+00  0.32845741581E+04  0.32845741581E+04  0.25500000000E-02 0. -1.
         -2   -1    0    0    0  501 -0.00000000000E+00 -0.00000000000E+00 -0.95787185561E+02  0.95787185595E+02  0.25500000000E-02 0.  1.
    8880023    1    1    2    0    0  0.18755269100E+03 -0.67182132148E+02  0.29655339297E+04  0.30443211304E+04  0.65864270000E+03 0. -1.
    8880022    1    1    2    0    0 -0.18755269100E+03  0.67182132148E+02  0.22325304287E+03  0.33604021329E+03  0.15294330000E+03 0.  0.
<mgrwt>
<rscale>  0 0.53485035E+03</rscale>
<asrwt>0</asrwt>
<pdfrwt beam="1">  1        2 0.50531913E+00 0.68811311E+03</pdfrwt>
<pdfrwt beam="2">  1       -2 0.14736489E-01 0.68811311E+03</pdfrwt>
<totfact> 0.44350464E+01</totfact>
</mgrwt>
</event>
<event>
 4    5  0.2409888E-007  0.8393811E+03  0.7818608E-02  0.9631348E-01
          2   -1    0    0  501    0  0.00000000000E+00  0.00000000000E+00  0.15527079383E+04  0.15527079383E+04  0.25500000000E-02 0. -1.
         -2   -1    0    0    0  501 -0.00000000000E+00 -0.00000000000E+00 -0.82744419391E+03  0.82744419391E+03  0.25500000000E-02 0.  1.
    8880023    1    1    2    0    0  0.28840894801E+03 -0.43309435939E+03  0.13269275558E+04  0.15701265522E+04  0.65864270000E+03 0.  0.
    8880022    1    1    2    0    0 -0.28840894801E+03  0.43309435939E+03 -0.60166381134E+03  0.81002558004E+03  0.15294330000E+03 0.  0.
<mgrwt>
<rscale>  0 0.75255638E+03</rscale>
<asrwt>0</asrwt>
<pdfrwt beam="1">  1        2 0.23887814E+00 0.83938111E+03</pdfrwt>
<pdfrwt beam="2">  1       -2 0.12729911E+00 0.83938111E+03</pdfrwt>
<totfact> 0.55025747E+00</totfact>
</mgrwt>
</event>
<event>
 4    5  0.2409888E-007  0.1002732E+04  0.7818608E-02  0.9377992E-01
          2   -1    0    0  501    0  0.00000000000E+00  0.00000000000E+00  0.56200599935E+03  0.56200599936E+03  0.25500000000E-02 0. -1.
         -2   -1    0    0    0  501 -0.00000000000E+00 -0.00000000000E+00 -0.30037437006E+04  0.30037437006E+04  0.25500000000E-02 0.  1.
    8880023    1    1    2    0    0  0.15457171240E+03 -0.74011385927E+03  0.24375717981E+01  0.10027348039E+04  0.65864270000E+03 0.  0.
    8880022    1    1    2    0    0 -0.15457171240E+03  0.74011385927E+03 -0.24441752730E+04  0.25630148960E+04  0.15294330000E+03 0.  0.
<mgrwt>
<rscale>  0 0.93909175E+03</rscale>
<asrwt>0</asrwt>
<pdfrwt beam="1">  1        2 0.86462463E-01 0.10027318E+04</pdfrwt>
<pdfrwt beam="2">  1       -2 0.46211441E+00 0.10027318E+04</pdfrwt>
<totfact> 0.15783317E-01</totfact>
</mgrwt>
</event>
<event>
 4    5  0.2409888E-007  0.1196937E+04  0.7818608E-02  0.9160106E-01
          2   -1    0    0  501    0  0.00000000000E+00  0.00000000000E+00  0.19201353622E+04  0.19201353622E+04  0.25500000000E-02 0. -1.
         -2   -1    0    0    0  501 -0.00000000000E+00 -0.00000000000E+00 -0.77092818431E+03  0.77092818432E+03  0.25500000000E-02 0.  1.
    8880023    1    1    2    0    0  0.33242743365E+02 -0.99887048959E+03  0.50578412980E+02  0.11980048903E+04  0.65864270000E+03 0.  0.
    8880022    1    1    2    0    0 -0.33242743365E+02  0.99887048959E+03  0.10986287649E+04  0.14930586563E+04  0.15294330000E+03 0.  0.
<mgrwt>
<rscale>  0 0.11474861E+04</rscale>
<asrwt>0</asrwt>
<pdfrwt beam="1">  1        2 0.29540544E+00 0.11969367E+04</pdfrwt>
<pdfrwt beam="2">  1       -2 0.11860434E+00 0.11969367E+04</pdfrwt>
<totfact> 0.39498838E+00</totfact>
</mgrwt>
</event>
<event>
 4    5  0.2409888E-007  0.8400836E+03  0.7818608E-02  0.9630023E-01
         -2   -1    0    0    0  501 -0.00000000000E+00  0.00000000000E+00  0.11587233475E+04  0.11587233475E+04  0.25500000000E-02 0.  1.
          2   -1    0    0  501    0  0.00000000000E+00 -0.00000000000E+00 -0.55379495712E+03  0.55379495713E+03  0.25500000000E-02 0. -1.
    8880023    1    1    2    0    0 -0.34487787437E+03 -0.39113878273E+03 -0.73477420695E+02  0.84329083548E+03  0.65864270000E+03 0. -1.
    8880022    1    1    2    0    0  0.34487787437E+03  0.39113878273E+03  0.67840581103E+03  0.86922746911E+03  0.15294330000E+03 0.  0.
<mgrwt>
<rscale>  0 0.75340562E+03</rscale>
<asrwt>0</asrwt>
<pdfrwt beam="1">  1        2 0.85199225E-01 0.84008363E+03</pdfrwt>
<pdfrwt beam="2">  1       -2 0.17826513E+00 0.84008363E+03</pdfrwt>
<totfact> 0.10257495E+01</totfact>
</mgrwt>
</event>
<event>
 4    5  0.2409888E-007  0.7269094E+03  0.7818608E-02  0.9899865E-01
          2   -1    0    0  501    0  0.00000000000E+00  0.00000000000E+00  0.39940303914E+04  0.39940303914E+04  0.25500000000E-02 0. -1.
         -2   -1    0    0    0  501 -0.00000000000E+00 -0.00000000000E+00 -0.23821340643E+03  0.23821340644E+03  0.25500000000E-02 0.  1.
    8880023    1    1    2    0    0 -0.24730714876E+03 -0.18282841061E+03  0.38150580485E+04  0.38836922089E+04  0.65864270000E+03 0. -1.
    8880022    1    1    2    0    0  0.24730714876E+03  0.18282841061E+03 -0.59241063524E+02  0.34855158898E+03  0.15294330000E+03 0.  0.
<mgrwt>
<rscale>  0 0.60267845E+03</rscale>
<asrwt>0</asrwt>
<pdfrwt beam="1">  1        2 0.61446620E+00 0.72690939E+03</pdfrwt>
<pdfrwt beam="2">  1       -2 0.36648217E-01 0.72690939E+03</pdfrwt>
<totfact> 0.27013273E+00</totfact>
</mgrwt>
</event>
<event>
 4    5  0.2409888E-007  0.1390761E+04  0.7818608E-02  0.8990895E-01
         -2   -1    0    0    0  501 -0.00000000000E+00  0.00000000000E+00  0.20668650194E+04  0.20668650194E+04  0.25500000000E-02 0.  1.
          2   -1    0    0  501    0  0.00000000000E+00 -0.00000000000E+00 -0.98196793639E+03  0.98196793639E+03  0.25500000000E-02 0. -1.
    8880023    1    1    2    0    0  0.83866624384E+03 -0.89277311297E+03 -0.21827526839E+02  0.13909318988E+04  0.65864270000E+03 0.  0.
    8880022    1    1    2    0    0 -0.83866624384E+03  0.89277311297E+03  0.11067246098E+04  0.16579010570E+04  0.15294330000E+03 0.  0.
<mgrwt>
<rscale>  0 0.13499111E+04</rscale>
<asrwt>0</asrwt>
<pdfrwt beam="1">  1        2 0.15107199E+00 0.13907606E+04</pdfrwt>
<pdfrwt beam="2">  1       -2 0.31797923E+00 0.13907606E+04</pdfrwt>
<totfact> 0.61159402E-01</totfact>
</mgrwt>
</event>
<event>
 4    5  0.2409888E-007  0.8939101E+03  0.7818608E-02  0.9535879E-01
         -2   -1    0    0    0  501 -0.00000000000E+00  0.00000000000E+00  0.62140109593E+03  0.62140109593E+03  0.25500000000E-02 0.  1.
          2   -1    0    0  501    0  0.00000000000E+00 -0.00000000000E+00 -0.93324051330E+03  0.93324051330E+03  0.25500000000E-02 0. -1.
    8880023    1    1    2    0    0 -0.12090868992E+03 -0.59215379385E+03 -0.11731883241E+03  0.90157581021E+03  0.65864270000E+03 0. -1.
    8880022    1    1    2    0    0  0.12090868992E+03  0.59215379385E+03 -0.19452058496E+03  0.65306579902E+03  0.15294330000E+03 0.  1.
<mgrwt>
<rscale>  0 0.81689482E+03</rscale>
<asrwt>0</asrwt>
<pdfrwt beam="1">  1        2 0.14357546E+00 0.89391008E+03</pdfrwt>
<pdfrwt beam="2">  1       -2 0.95600168E-01 0.89391008E+03</pdfrwt>
<totfact> 0.25647461E+01</totfact>
</mgrwt>
</event>
<event>
 4    5  0.2409888E-007  0.7190261E+03  0.7818608E-02  0.9925895E-01
          2   -1    0    0  501    0  0.00000000000E+00  0.00000000000E+00  0.19297735329E+04  0.19297735329E+04  0.25500000000E-02 0. -1.
         -2   -1    0    0    0  501 -0.00000000000E+00 -0.00000000000E+00 -0.15913989958E+03  0.15913989960E+03  0.25500000000E-02 0.  1.
    8880023    1    1    2    0    0 -0.26798250226E+03  0.10664787722E+03  0.15053388115E+04  0.16682456458E+04  0.65864270000E+03 0. -1.
    8880022    1    1    2    0    0  0.26798250226E+03 -0.10664787722E+03  0.26529482185E+03  0.42066778668E+03  0.15294330000E+03 0.  0.
<mgrwt>
<rscale>  0 0.59022554E+03</rscale>
<asrwt>0</asrwt>
<pdfrwt beam="1">  1        2 0.29688823E+00 0.71902615E+03</pdfrwt>
<pdfrwt beam="2">  1       -2 0.24483062E-01 0.71902615E+03</pdfrwt>
<totfact> 0.11182365E+02</totfact>
</mgrwt>
</event>
<event>
 4    5  0.2409888E-007  0.1471689E+04  0.7818608E-02  0.8929890E-01
          2   -1    0    0  501    0  0.00000000000E+00  0.00000000000E+00  0.19781269858E+04  0.19781269858E+04  0.25500000000E-02 0. -1.
         -2   -1    0    0    0  501 -0.00000000000E+00 -0.00000000000E+00 -0.11327735891E+04  0.11327735891E+04  0.25500000000E-02 0.  1.
    8880023    1    1    2    0    0  0.90696059302E+03 -0.95366719352E+03  0.99657260748E+03  0.17773648476E+04  0.65864270000E+03 0.  0.
    8880022    1    1    2    0    0 -0.90696059302E+03  0.95366719352E+03 -0.15121921077E+03  0.13335357273E+04  0.15294330000E+03 0.  0.
<mgrwt>
<rscale>  0 0.14335427E+04</rscale>
<asrwt>0</asrwt>
<pdfrwt beam="1">  1        2 0.30432723E+00 0.14716891E+04</pdfrwt>
<pdfrwt beam="2">  1       -2 0.17427286E+00 0.14716891E+04</pdfrwt>
<totfact> 0.12898207E+00</totfact>
</mgrwt>
</event>
<event>
 4    5  0.2409888E-007  0.6733996E+03  0.7818608E-02  0.1013335E+00
         -2   -1    0    0    0  501 -0.00000000000E+00  0.00000000000E+00  0.31754264265E+03  0.31754264266E+03  0.25500000000E-02 0.  1.
          2   -1    0    0  501    0  0.00000000000E+00 -0.00000000000E+00 -0.71306570262E+03  0.71306570262E+03  0.25500000000E-02 0. -1.
    8880023    1    1    2    0    0 -0.12794035803E+03 -0.57341760302E+02 -0.11729950691E+03  0.68353945992E+03  0.65864270000E+03 0.  1.
    8880022    1    1    2    0    0  0.12794035803E+03  0.57341760302E+02 -0.27822355306E+03  0.34706888535E+03  0.15294330000E+03 0.  0.
<mgrwt>
<rscale>  0 0.50170606E+03</rscale>
<asrwt>0</asrwt>
<pdfrwt beam="1">  1        2 0.10970242E+00 0.67339960E+03</pdfrwt>
<pdfrwt beam="2">  1       -2 0.48852715E-01 0.67339960E+03</pdfrwt>
<totfact> 0.16112491E+02</totfact>
</mgrwt>
</event>
<event>
 4    5  0.2409888E-007  0.9157314E+03  0.7818608E-02  0.9501235E-01
          2   -1    0    0  501    0  0.00000000000E+00  0.00000000000E+00  0.14025740255E+04  0.14025740255E+04  0.25500000000E-02 0. -1.
         -2   -1    0    0    0  501 -0.00000000000E+00 -0.00000000000E+00 -0.12212922269E+04  0.12212922269E+04  0.25500000000E-02 0.  1.
    8880023    1    1    2    0    0 -0.10497898126E+03 -0.62748160901E+03  0.11405564745E+04  0.14626800860E+04  0.65864270000E+03 0. -1.
    8880022    1    1    2    0    0  0.10497898126E+03  0.62748160901E+03 -0.95927467595E+03  0.11611861664E+04  0.15294330000E+03 0.  0.
<mgrwt>
<rscale>  0 0.84192806E+03</rscale>
<asrwt>0</asrwt>
<pdfrwt beam="1">  1        2 0.21578062E+00 0.91573138E+03</pdfrwt>
<pdfrwt beam="2">  1       -2 0.18789111E+00 0.91573138E+03</pdfrwt>
<totfact> 0.23174337E+00</totfact>
</mgrwt>
</event>
<event>
 4    5  0.2409888E-007  0.9391006E+03  0.7818608E-02  0.9465972E-01
         -2   -1    0    0    0  501 -0.00000000000E+00  0.00000000000E+00  0.17727002552E+04  0.17727002552E+04  0.25500000000E-02 0.  1.
          2   -1    0    0  501    0  0.00000000000E+00 -0.00000000000E+00 -0.49939816773E+03  0.49939816774E+03  0.25500000000E-02 0. -1.
    8880023    1    1    2    0    0 -0.66738450799E+03 -0.51938888850E+02  0.14350158143E+03  0.95000138938E+03  0.65864270000E+03 0. -1.
    8880022    1    1    2    0    0  0.66738450799E+03  0.51938888850E+02  0.11298005060E+04  0.13220970336E+04  0.15294330000E+03 0.  0.
<mgrwt>
<rscale>  0 0.86839699E+03</rscale>
<asrwt>0</asrwt>
<pdfrwt beam="1">  1        2 0.76830488E-01 0.93910060E+03</pdfrwt>
<pdfrwt beam="2">  1       -2 0.27272311E+00 0.93910060E+03</pdfrwt>
<totfact> 0.29048421E+00</totfact>
</mgrwt>
</event>
<event>
 4    5  0.2409888E-007  0.1006327E+04  0.7818608E-02  0.9373326E-01
         -2   -1    0    0    0  501 -0.00000000000E+00  0.00000000000E+00  0.76525121375E+03  0.76525121375E+03  0.25500000000E-02 0.  1.
          2   -1    0    0  501    0  0.00000000000E+00 -0.00000000000E+00 -0.13368044726E+04  0.13368044726E+04  0.25500000000E-02 0. -1.
    8880023    1    1    2    0    0  0.30056912107E+03  0.69895848270E+03 -0.80822365108E+03  0.12907054015E+04  0.65864270000E+03 0.  0.
    8880022    1    1    2    0    0 -0.30056912107E+03 -0.69895848270E+03  0.23667039225E+03  0.81135028481E+03  0.15294330000E+03 0.  0.
<mgrwt>
<rscale>  0 0.94303753E+03</rscale>
<asrwt>0</asrwt>
<pdfrwt beam="1">  1        2 0.20566223E+00 0.10063275E+04</pdfrwt>
<pdfrwt beam="2">  1       -2 0.11773096E+00 0.10063275E+04</pdfrwt>
<totfact> 0.86960305E+00</totfact>
</mgrwt>
</event>
<event>
 4    5  0.2409888E-007  0.8067483E+03  0.7818608E-02  0.9696390E-01
          2   -1    0    0  501    0  0.00000000000E+00  0.00000000000E+00  0.21930677379E+04  0.21930677379E+04  0.25500000000E-02 0. -1.
         -2   -1    0    0    0  501 -0.00000000000E+00 -0.00000000000E+00 -0.48584164350E+03  0.48584164350E+03  0.25500000000E-02 0.  1.
    8880023    1    1    2    0    0 -0.34776738079E+03 -0.30998466630E+03  0.19655655090E+04  0.21246860053E+04  0.65864270000E+03 0.  0.
    8880022    1    1    2    0    0  0.34776738079E+03  0.30998466630E+03 -0.25833941462E+03  0.55422337613E+03  0.15294330000E+03 0.  0.
<mgrwt>
<rscale>  0 0.71232116E+03</rscale>
<asrwt>0</asrwt>
<pdfrwt beam="1">  1        2 0.33739504E+00 0.80674832E+03</pdfrwt>
<pdfrwt beam="2">  1       -2 0.74744867E-01 0.80674832E+03</pdfrwt>
<totfact> 0.86464769E+00</totfact>
</mgrwt>
</event>
<event>
 4    5  0.2409888E-007  0.9084679E+03  0.7818608E-02  0.9512572E-01
         -2   -1    0    0    0  501 -0.00000000000E+00  0.00000000000E+00  0.30113331327E+03  0.30113331328E+03  0.25500000000E-02 0.  1.
          2   -1    0    0  501    0  0.00000000000E+00 -0.00000000000E+00 -0.30159982568E+04  0.30159982568E+04  0.25500000000E-02 0. -1.
    8880023    1    1    2    0    0 -0.58063033075E+03  0.23317831469E+03 -0.24635485175E+04  0.26257161332E+04  0.65864270000E+03 0.  0.
    8880022    1    1    2    0    0  0.58063033075E+03 -0.23317831469E+03 -0.25131642599E+03  0.69141543692E+03  0.15294330000E+03 0.  0.
<mgrwt>
<rscale>  0 0.83363225E+03</rscale>
<asrwt>0</asrwt>
<pdfrwt beam="1">  1        2 0.46399971E+00 0.90846789E+03</pdfrwt>
<pdfrwt beam="2">  1       -2 0.46328204E-01 0.90846789E+03</pdfrwt>
<totfact> 0.77940840E+00</totfact>
</mgrwt>
</event>
<event>
 4    5  0.2409888E-007  0.9310941E+03  0.7818608E-02  0.9477854E-01
          2   -1    0    0  501    0  0.00000000000E+00  0.00000000000E+00  0.52246515824E+04  0.52246515824E+04  0.25500000000E-02 0. -1.
         -2   -1    0    0    0  501 -0.00000000000E+00 -0.00000000000E+00 -0.14348325838E+03  0.14348325840E+03  0.25500000000E-02 0.  1.
    8880023    1    1    2    0    0 -0.46463433240E+03 -0.46609110165E+03  0.38782182445E+04  0.39884223618E+04  0.65864270000E+03 0. -1.
    8880022    1    1    2    0    0  0.46463433240E+03  0.46609110165E+03  0.12029500795E+04  0.13797124790E+04  0.15294330000E+03 0.  0.
<mgrwt>
<rscale>  0 0.85936442E+03</rscale>
<asrwt>0</asrwt>
<pdfrwt beam="1">  1        2 0.80379244E+00 0.93109408E+03</pdfrwt>
<pdfrwt beam="2">  1       -2 0.22074351E-01 0.93109408E+03</pdfrwt>
<totfact> 0.34660167E-01</totfact>
</mgrwt>
</event>
<event>
 4    5  0.2409888E-007  0.7689581E+03  0.7818608E-02  0.9782445E-01
          2   -1    0    0  501    0  0.00000000000E+00  0.00000000000E+00  0.91105162879E+03  0.91105162880E+03  0.25500000000E-02 0. -1.
         -2   -1    0    0    0  501 -0.00000000000E+00 -0.00000000000E+00 -0.40003360415E+03  0.40003360416E+03  0.25500000000E-02 0.  1.
    8880023    1    1    2    0    0 -0.35762856629E+03 -0.17201191454E+03  0.41990546841E+03  0.87613760268E+03  0.65864270000E+03 0. -1.
    8880022    1    1    2    0    0  0.35762856629E+03  0.17201191454E+03  0.91112556231E+02  0.43494763028E+03  0.15294330000E+03 0.  1.
<mgrwt>
<rscale>  0 0.66313231E+03</rscale>
<asrwt>0</asrwt>
<pdfrwt beam="1">  1        2 0.14016179E+00 0.76895806E+03</pdfrwt>
<pdfrwt beam="2">  1       -2 0.61543632E-01 0.76895806E+03</pdfrwt>
<totfact> 0.71610318E+01</totfact>
</mgrwt>
</event>
<event>
 4    5  0.2409888E-007  0.1285991E+04  0.7818608E-02  0.9077753E-01
          2   -1    0    0  501    0  0.00000000000E+00  0.00000000000E+00  0.51119410697E+04  0.51119410697E+04  0.25500000000E-02 0. -1.
         -2   -1    0    0    0  501 -0.00000000000E+00 -0.00000000000E+00 -0.33510097231E+03  0.33510097232E+03  0.25500000000E-02 0.  1.
    8880023    1    1    2    0    0  0.68402426294E+03 -0.86722136846E+03  0.36139426079E+04  0.38359292843E+04  0.65864270000E+03 0.  0.
    8880022    1    1    2    0    0 -0.68402426294E+03  0.86722136846E+03  0.11628974895E+04  0.16111127578E+04  0.15294330000E+03 0.  0.
<mgrwt>
<rscale>  0 0.12409456E+04</rscale>
<asrwt>0</asrwt>
<pdfrwt beam="1">  1        2 0.78645237E+00 0.12859908E+04</pdfrwt>
<pdfrwt beam="2">  1       -2 0.51554003E-01 0.12859908E+04</pdfrwt>
<totfact> 0.91228751E-02</totfact>
</mgrwt>
</event>
<event>
 4    5  0.2409888E-007  0.7492218E+03  0.7818608E-02  0.9833855E-01
         -2   -1    0    0    0  501 -0.00000000000E+00  0.00000000000E+00  0.47089580242E+03  0.47089580242E+03  0.25500000000E-02 0.  1.
          2   -1    0    0  501    0  0.00000000000E+00 -0.00000000000E+00 -0.22748341216E+04  0.22748341216E+04  0.25500000000E-02 0. -1.
    8880023    1    1    2    0    0  0.27824619453E+03  0.22383516400E+03 -0.21177266052E+04  0.22463524447E+04  0.65864270000E+03 0.  0.
    8880022    1    1    2    0    0 -0.27824619453E+03 -0.22383516400E+03  0.31378828598E+03  0.49937747931E+03  0.15294330000E+03 0.  1.
<mgrwt>
<rscale>  0 0.63576890E+03</rscale>
<asrwt>0</asrwt>
<pdfrwt beam="1">  1        2 0.34997447E+00 0.74922182E+03</pdfrwt>
<pdfrwt beam="2">  1       -2 0.72445509E-01 0.74922182E+03</pdfrwt>
<totfact> 0.84227056E+00</totfact>
</mgrwt>
</event>
<event>
 4    5  0.2409888E-007  0.6786638E+03  0.7818608E-02  0.1010090E+00
         -2   -1    0    0    0  501 -0.00000000000E+00  0.00000000000E+00  0.28418384272E+03  0.28418384273E+03  0.25500000000E-02 0.  1.
          2   -1    0    0  501    0  0.00000000000E+00 -0.00000000000E+00 -0.24246829980E+04  0.24246829980E+04  0.25500000000E-02 0. -1.
    8880023    1    1    2    0    0  0.40910338248E+01 -0.16357746513E+03 -0.23229023551E+04  0.24200123722E+04  0.65864270000E+03 0. -1.
    8880022    1    1    2    0    0 -0.40910338248E+01  0.16357746513E+03  0.18240319989E+03  0.28885446855E+03  0.15294330000E+03 0.  0.
<mgrwt>
<rscale>  0 0.51438958E+03</rscale>
<asrwt>0</asrwt>
<pdfrwt beam="1">  1        2 0.37302814E+00 0.67866378E+03</pdfrwt>
<pdfrwt beam="2">  1       -2 0.43720593E-01 0.67866378E+03</pdfrwt>
<totfact> 0.20154160E+01</totfact>
</mgrwt>
</event>
<event>
 4    5  0.2409888E-007  0.8155987E+03  0.7818608E-02  0.9678031E-01
         -2   -1    0    0    0  501 -0.00000000000E+00  0.00000000000E+00  0.15757840147E+04  0.15757840147E+04  0.25500000000E-02 0.  1.
          2   -1    0    0  501    0  0.00000000000E+00 -0.00000000000E+00 -0.83050014249E+03  0.83050014249E+03  0.25500000000E-02 0. -1.
    8880023    1    1    2    0    0 -0.13672055071E+03 -0.46119251139E+03 -0.57161421636E+03  0.99596388497E+03  0.65864270000E+03 0. -1.
    8880022    1    1    2    0    0  0.13672055071E+03  0.46119251139E+03  0.13168980886E+04  0.14103202722E+04  0.15294330000E+03 0.  0.
<mgrwt>
<rscale>  0 0.72340022E+03</rscale>
<asrwt>0</asrwt>
<pdfrwt beam="1">  1        2 0.12776925E+00 0.81559871E+03</pdfrwt>
<pdfrwt beam="2">  1       -2 0.24242831E+00 0.81559871E+03</pdfrwt>
<totfact> 0.23915876E+00</totfact>
</mgrwt>
</event>
<event>
 4    5  0.2409888E-007  0.1081204E+04  0.7818608E-02  0.9282277E-01
         -2   -1    0    0    0  501 -0.00000000000E+00  0.00000000000E+00  0.12308262696E+04  0.12308262696E+04  0.25500000000E-02 0.  1.
          2   -1    0    0  501    0  0.00000000000E+00 -0.00000000000E+00 -0.18106167494E+04  0.18106167494E+04  0.25500000000E-02 0. -1.
    8880023    1    1    2    0    0  0.67264945486E+03 -0.53172803812E+03 -0.14510045795E+04  0.18095348827E+04  0.65864270000E+03 0. -1.
    8880022    1    1    2    0    0 -0.67264945486E+03  0.53172803812E+03  0.87121409969E+03  0.12319081363E+04  0.15294330000E+03 0.  0.
<mgrwt>
<rscale>  0 0.10243095E+04</rscale>
<asrwt>0</asrwt>
<pdfrwt beam="1">  1        2 0.27855642E+00 0.10812041E+04</pdfrwt>
<pdfrwt beam="2">  1       -2 0.18935789E+00 0.10812041E+04</pdfrwt>
<totfact> 0.13124809E+00</totfact>
</mgrwt>
</event>
<event>
 4    5  0.2409888E-007  0.8372558E+03  0.7818608E-02  0.9635376E-01
         -2   -1    0    0    0  501 -0.00000000000E+00  0.00000000000E+00  0.48340727676E+03  0.48340727677E+03  0.25500000000E-02 0.  1.
          2   -1    0    0  501    0  0.00000000000E+00 -0.00000000000E+00 -0.16864846106E+04  0.16864846106E+04  0.25500000000E-02 0. -1.
    8880023    1    1    2    0    0 -0.51270238432E+03 -0.65752694026E+02 -0.13700017986E+04  0.16055847178E+04  0.65864270000E+03 0.  0.
    8880022    1    1    2    0    0  0.51270238432E+03  0.65752694026E+02  0.16692446476E+03  0.56430716955E+03  0.15294330000E+03 0.  0.
<mgrwt>
<rscale>  0 0.74998337E+03</rscale>
<asrwt>0</asrwt>
<pdfrwt beam="1">  1        2 0.25945917E+00 0.83725585E+03</pdfrwt>
<pdfrwt beam="2">  1       -2 0.74370351E-01 0.83725585E+03</pdfrwt>
<totfact> 0.16504537E+01</totfact>
</mgrwt>
</event>
<event>
 4    5  0.2409888E-007  0.1761957E+04  0.7818608E-02  0.8743878E-01
          2   -1    0    0  501    0  0.00000000000E+00  0.00000000000E+00  0.29896648315E+04  0.29896648315E+04  0.25500000000E-02 0. -1.
         -2   -1    0    0    0  501 -0.00000000000E+00 -0.00000000000E+00 -0.17540580138E+04  0.17540580138E+04  0.25500000000E-02 0.  1.
    8880023    1    1    2    0    0  0.96370460321E+03 -0.13198311328E+04  0.22165790885E+04  0.28315567879E+04  0.65864270000E+03 0.  0.
    8880022    1    1    2    0    0 -0.96370460321E+03  0.13198311328E+04 -0.98097227085E+03  0.19121660573E+04  0.15294330000E+03 0.  0.
<mgrwt>
<rscale>  0 0.17310020E+04</rscale>
<asrwt>0</asrwt>
<pdfrwt beam="1">  1        2 0.45994843E+00 0.17619566E+04</pdfrwt>
<pdfrwt beam="2">  1       -2 0.26985508E+00 0.17619566E+04</pdfrwt>
<totfact> 0.78091615E-02</totfact>
</mgrwt>
</event>
<event>
 4    5  0.2409888E-007  0.2825454E+04  0.7818608E-02  0.8301137E-01
         -2   -1    0    0    0  501 -0.00000000000E+00  0.00000000000E+00  0.45767396933E+04  0.45767396933E+04  0.25500000000E-02 0.  1.
          2   -1    0    0  501    0  0.00000000000E+00 -0.00000000000E+00 -0.27011920624E+04  0.27011920624E+04  0.25500000000E-02 0. -1.
    8880023    1    1    2    0    0 -0.26431658439E+04 -0.75037130504E+03 -0.12706814865E+04  0.30980355744E+04  0.65864270000E+03 0.  0.
    8880022    1    1    2    0    0  0.26431658439E+04  0.75037130504E+03  0.31462291174E+04  0.41798961812E+04  0.15294330000E+03 0.  0.
<mgrwt>
<rscale>  0 0.28068753E+04</rscale>
<asrwt>0</asrwt>
<pdfrwt beam="1">  1        2 0.41556801E+00 0.28254545E+04</pdfrwt>
<pdfrwt beam="2">  1       -2 0.70411380E+00 0.28254545E+04</pdfrwt>
<totfact> 0.46126206E-04</totfact>
</mgrwt>
</event>
<event>
 4    5  0.3436984E-007  0.1342403E+04  0.7818608E-02  0.9029781E-01
         -2   -1    0    0    0  501 -0.00000000000E+00  0.00000000000E+00  0.23161311133E+04  0.23161311133E+04  0.25500000000E-02 0.  1.
          2   -1    0    0  501    0  0.00000000000E+00 -0.00000000000E+00 -0.20541811231E+04  0.20541811231E+04  0.25500000000E-02 0. -1.
    8880023    1    1    2    0    0  0.85063047795E+02  0.11666185445E+04 -0.16479229065E+04  0.21254869236E+04  0.65864270000E+03 0.  0.
    8880022    1    1    2    0    0 -0.85063047795E+02 -0.11666185445E+04  0.19098728967E+04  0.22448253128E+04  0.15294330000E+03 0.  0.
<mgrwt>
<rscale>  0 0.12997278E+04</rscale>
<asrwt>0</asrwt>
<pdfrwt beam="1">  1        2 0.31602787E+00 0.13424026E+04</pdfrwt>
<pdfrwt beam="2">  1       -2 0.35632786E+00 0.13424026E+04</pdfrwt>
<totfact> 0.84935849E-02</totfact>
</mgrwt>
</event>
<event>
 4    5  0.2409888E-007  0.6910225E+03  0.7818608E-02  0.1003670E+00
          2   -1    0    0  501    0  0.00000000000E+00  0.00000000000E+00  0.78494557445E+03  0.78494557445E+03  0.25500000000E-02 0. -1.
         -2   -1    0    0    0  501 -0.00000000000E+00 -0.00000000000E+00 -0.17898124740E+04  0.17898124740E+04  0.25500000000E-02 0.  1.
    8880023    1    1    2    0    0  0.19928563032E+03 -0.63143473683E+02  0.62059354244E+03  0.92878867990E+03  0.65864270000E+03 0. -1.
    8880022    1    1    2    0    0 -0.19928563032E+03  0.63143473683E+02 -0.16254604420E+04  0.16459693686E+04  0.15294330000E+03 0.  0.
<mgrwt>
<rscale>  0 0.54069730E+03</rscale>
<asrwt>0</asrwt>
<pdfrwt beam="1">  1        2 0.12076086E+00 0.69102248E+03</pdfrwt>
<pdfrwt beam="2">  1       -2 0.27535576E+00 0.69102248E+03</pdfrwt>
<totfact> 0.16649143E+00</totfact>
</mgrwt>
</event>
<event>
 4    5  0.2409888E-007  0.1061660E+04  0.7818608E-02  0.9304994E-01
         -2   -1    0    0    0  501 -0.00000000000E+00  0.00000000000E+00  0.44694842435E+04  0.44694842435E+04  0.25500000000E-02 0.  1.
          2   -1    0    0  501    0  0.00000000000E+00 -0.00000000000E+00 -0.42533857518E+03  0.42533857519E+03  0.25500000000E-02 0. -1.
    8880023    1    1    2    0    0 -0.83209582176E+03  0.30481599634E+02  0.36981825652E+03  0.11242278833E+04  0.65864270000E+03 0.  0.
    8880022    1    1    2    0    0  0.83209582176E+03 -0.30481599634E+02  0.36743274118E+04  0.37705949354E+04  0.15294330000E+03 0.  0.
<mgrwt>
<rscale>  0 0.10032443E+04</rscale>
<asrwt>0</asrwt>
<pdfrwt beam="1">  1        2 0.65436701E-01 0.10616604E+04</pdfrwt>
<pdfrwt beam="2">  1       -2 0.68761299E+00 0.10616604E+04</pdfrwt>
<totfact> 0.18584709E-02</totfact>
</mgrwt>
</event>
<event>
 4    5  0.2409888E-007  0.8905920E+03  0.7818608E-02  0.9541306E-01
          2   -1    0    0  501    0  0.00000000000E+00  0.00000000000E+00  0.31690544757E+04  0.31690544757E+04  0.25500000000E-02 0. -1.
         -2   -1    0    0    0  501 -0.00000000000E+00 -0.00000000000E+00 -0.68961705397E+03  0.68961705398E+03  0.25500000000E-02 0.  1.
    8880023    1    1    2    0    0 -0.42966467301E+03  0.41800972720E+03  0.29499291717E+04  0.30814341122E+04  0.65864270000E+03 0.  0.
    8880022    1    1    2    0    0  0.42966467301E+03 -0.41800972720E+03 -0.47049175002E+03  0.77723741747E+03  0.15294330000E+03 0.  0.
<mgrwt>
<rscale>  0 0.81305782E+03</rscale>
<asrwt>0</asrwt>
<pdfrwt beam="1">  1        2 0.48754684E+00 0.89059198E+03</pdfrwt>
<pdfrwt beam="2">  1       -2 0.10609493E+00 0.89059198E+03</pdfrwt>
<totfact> 0.10163383E+00</totfact>
</mgrwt>
</event>
<event>
 4    5  0.2409888E-007  0.8813161E+03  0.7818608E-02  0.9556717E-01
         -2   -1    0    0    0  501 -0.00000000000E+00  0.00000000000E+00  0.45957683775E+03  0.45957683776E+03  0.25500000000E-02 0.  1.
          2   -1    0    0  501    0  0.00000000000E+00 -0.00000000000E+00 -0.13947261538E+04  0.13947261539E+04  0.25500000000E-02 0. -1.
    8880023    1    1    2    0    0 -0.43195060562E+03 -0.39538142751E+03 -0.88182918975E+03  0.12467320181E+04  0.65864270000E+03 0. -1.
    8880022    1    1    2    0    0  0.43195060562E+03  0.39538142751E+03 -0.53320126349E+02  0.60757097347E+03  0.15294330000E+03 0.  0.
<mgrwt>
<rscale>  0 0.80228431E+03</rscale>
<asrwt>0</asrwt>
<pdfrwt beam="1">  1        2 0.21457325E+00 0.88131606E+03</pdfrwt>
<pdfrwt beam="2">  1       -2 0.70704129E-01 0.88131606E+03</pdfrwt>
<totfact> 0.26709788E+01</totfact>
</mgrwt>
</event>
<event>
 4    5  0.2409888E-007  0.9853535E+03  0.7818608E-02  0.9400976E-01
          2   -1    0    0  501    0  0.00000000000E+00  0.00000000000E+00  0.15484083259E+04  0.15484083259E+04  0.25500000000E-02 0. -1.
         -2   -1    0    0    0  501 -0.00000000000E+00 -0.00000000000E+00 -0.67817633249E+03  0.67817633250E+03  0.25500000000E-02 0.  1.
    8880023    1    1    2    0    0 -0.15445705206E+03 -0.71641768451E+03  0.10671115285E+04  0.14524629083E+04  0.65864270000E+03 0. -1.
    8880022    1    1    2    0    0  0.15445705206E+03  0.71641768451E+03 -0.19687953506E+03  0.77412175008E+03  0.15294330000E+03 0.  0.
<mgrwt>
<rscale>  0 0.91995435E+03</rscale>
<asrwt>0</asrwt>
<pdfrwt beam="1">  1        2 0.23821666E+00 0.98535348E+03</pdfrwt>
<pdfrwt beam="2">  1       -2 0.10433482E+00 0.98535348E+03</pdfrwt>
<totfact> 0.88708502E+00</totfact>
</mgrwt>
</event>
<event>
 4    5  0.2409888E-007  0.1960484E+04  0.7818608E-02  0.8638600E-01
          2   -1    0    0  501    0  0.00000000000E+00  0.00000000000E+00  0.23727401366E+04  0.23727401366E+04  0.25500000000E-02 0. -1.
         -2   -1    0    0    0  501 -0.00000000000E+00 -0.00000000000E+00 -0.15937687609E+04  0.15937687609E+04  0.25500000000E-02 0.  1.
    8880023    1    1    2    0    0  0.17386419729E+04  0.62194156363E+03  0.78986814514E+03  0.21136199071E+04  0.65864270000E+03 0.  0.
    8880022    1    1    2    0    0 -0.17386419729E+04 -0.62194156363E+03 -0.10896769477E+02  0.18528889905E+04  0.15294330000E+03 0.  0.
<mgrwt>
<rscale>  0 0.19330049E+04</rscale>
<asrwt>0</asrwt>
<pdfrwt beam="1">  1        2 0.36503694E+00 0.19604840E+04</pdfrwt>
<pdfrwt beam="2">  1       -2 0.24519520E+00 0.19604840E+04</pdfrwt>
<totfact> 0.25360192E-01</totfact>
</mgrwt>
</event>
<event>
 4    5  0.2409888E-007  0.6677324E+03  0.7818608E-02  0.1017343E+00
          2   -1    0    0  501    0  0.00000000000E+00  0.00000000000E+00  0.66491658398E+03  0.66491658399E+03  0.25500000000E-02 0. -1.
         -2   -1    0    0    0  501 -0.00000000000E+00 -0.00000000000E+00 -0.88385925779E+03  0.88385925779E+03  0.25500000000E-02 0.  1.
    8880023    1    1    2    0    0  0.75687659559E+02  0.79547316524E+02  0.48165454799E+03  0.82332114466E+03  0.65864270000E+03 0. -1.
    8880022    1    1    2    0    0 -0.75687659559E+02 -0.79547316524E+02 -0.70059722179E+03  0.72545469712E+03  0.15294330000E+03 0.  0.
<mgrwt>
<rscale>  0 0.48657624E+03</rscale>
<asrwt>0</asrwt>
<pdfrwt beam="1">  1        2 0.10229486E+00 0.66773243E+03</pdfrwt>
<pdfrwt beam="2">  1       -2 0.13597835E+00 0.66773243E+03</pdfrwt>
<totfact> 0.17311553E+01</totfact>
</mgrwt>
</event>
<event>
 4    5  0.2409888E-007  0.6814647E+03  0.7818608E-02  0.1008507E+00
         -2   -1    0    0    0  501 -0.00000000000E+00  0.00000000000E+00  0.23706449964E+03  0.23706449965E+03  0.25500000000E-02 0.  1.
          2   -1    0    0  501    0  0.00000000000E+00 -0.00000000000E+00 -0.18129437065E+04  0.18129437065E+04  0.25500000000E-02 0. -1.
    8880023    1    1    2    0    0 -0.17468895223E+03 -0.82243637399E+01 -0.16666433099E+04  0.18005815724E+04  0.65864270000E+03 0. -1.
    8880022    1    1    2    0    0  0.17468895223E+03  0.82243637399E+01  0.90764103066E+02  0.24942663373E+03  0.15294330000E+03 0.  0.
<mgrwt>
<rscale>  0 0.52072342E+03</rscale>
<asrwt>0</asrwt>
<pdfrwt beam="1">  1        2 0.27891441E+00 0.68146466E+03</pdfrwt>
<pdfrwt beam="2">  1       -2 0.36471463E-01 0.68146466E+03</pdfrwt>
<totfact> 0.62088216E+01</totfact>
</mgrwt>
</event>
<event>
 4    5  0.2409888E-007  0.7512398E+03  0.7818608E-02  0.9828338E-01
          2   -1    0    0  501    0  0.00000000000E+00  0.00000000000E+00  0.27652174014E+04  0.27652174014E+04  0.25500000000E-02 0. -1.
         -2   -1    0    0    0  501 -0.00000000000E+00 -0.00000000000E+00 -0.44974238620E+03  0.44974238620E+03  0.25500000000E-02 0.  1.
    8880023    1    1    2    0    0  0.34836046114E+03 -0.95896211277E+02  0.26153654805E+04  0.27211207061E+04  0.65864270000E+03 0. -1.
    8880022    1    1    2    0    0 -0.34836046114E+03  0.95896211277E+02 -0.29989046531E+03  0.49383908151E+03  0.15294330000E+03 0.  0.
<mgrwt>
<rscale>  0 0.63863669E+03</rscale>
<asrwt>0</asrwt>
<pdfrwt beam="1">  1        2 0.42541807E+00 0.75123984E+03</pdfrwt>
<pdfrwt beam="2">  1       -2 0.69191136E-01 0.75123984E+03</pdfrwt>
<totfact> 0.48958722E+00</totfact>
</mgrwt>
</event>
<event>
 4    5  0.2409888E-007  0.1679811E+04  0.7818608E-02  0.8792107E-01
          2   -1    0    0  501    0  0.00000000000E+00  0.00000000000E+00  0.16918404654E+04  0.16918404654E+04  0.25500000000E-02 0. -1.
         -2   -1    0    0    0  501 -0.00000000000E+00 -0.00000000000E+00 -0.18219828356E+04  0.18219828356E+04  0.25500000000E-02 0.  1.
    8880023    1    1    2    0    0  0.96775772905E+03  0.12047401733E+04 -0.75280954342E+03  0.18407841596E+04  0.65864270000E+03 0.  0.
    8880022    1    1    2    0    0 -0.96775772905E+03 -0.12047401733E+04  0.62266717318E+03  0.16730391414E+04  0.15294330000E+03 0.  0.
<mgrwt>
<rscale>  0 0.16471293E+04</rscale>
<asrwt>0</asrwt>
<pdfrwt beam="1">  1        2 0.26028315E+00 0.16798107E+04</pdfrwt>
<pdfrwt beam="2">  1       -2 0.28030505E+00 0.16798107E+04</pdfrwt>
<totfact> 0.38314487E-01</totfact>
</mgrwt>
</event>
<event>
 4    5  0.2409888E-007  0.1340320E+04  0.7818608E-02  0.9031500E-01
         -2   -1    0    0    0  501 -0.00000000000E+00  0.00000000000E+00  0.14995655100E+04  0.14995655100E+04  0.25500000000E-02 0.  1.
          2   -1    0    0  501    0  0.00000000000E+00 -0.00000000000E+00 -0.15896995652E+04  0.15896995652E+04  0.25500000000E-02 0. -1.
    8880023    1    1    2    0    0 -0.81537861645E+02 -0.11644741813E+04 -0.94014980953E+03  0.16371745210E+04  0.65864270000E+03 0.  0.
    8880022    1    1    2    0    0  0.81537861645E+02  0.11644741813E+04  0.85001575437E+03  0.14520905541E+04  0.15294330000E+03 0.  0.
<mgrwt>
<rscale>  0 0.12975630E+04</rscale>
<asrwt>0</asrwt>
<pdfrwt beam="1">  1        2 0.24456916E+00 0.13403204E+04</pdfrwt>
<pdfrwt beam="2">  1       -2 0.23070239E+00 0.13403204E+04</pdfrwt>
<totfact> 0.91378272E-01</totfact>
</mgrwt>
</event>
<event>
 4    5  0.2409888E-007  0.8177356E+03  0.7818608E-02  0.9673684E-01
         -2   -1    0    0    0  501 -0.00000000000E+00  0.00000000000E+00  0.74605797701E+03  0.74605797701E+03  0.25500000000E-02 0.  1.
          2   -1    0    0  501    0  0.00000000000E+00 -0.00000000000E+00 -0.92638776036E+03  0.92638776036E+03  0.25500000000E-02 0. -1.
    8880023    1    1    2    0    0  0.13301626389E+03 -0.46603434022E+03 -0.59927845280E+03  0.10138176379E+04  0.65864270000E+03 0.  0.
    8880022    1    1    2    0    0 -0.13301626389E+03  0.46603434022E+03  0.41894866945E+03  0.65862809944E+03  0.15294330000E+03 0.  0.
<mgrwt>
<rscale>  0 0.72605506E+03</rscale>
<asrwt>0</asrwt>
<pdfrwt beam="1">  1        2 0.14252119E+00 0.81773562E+03</pdfrwt>
<pdfrwt beam="2">  1       -2 0.11477815E+00 0.81773562E+03</pdfrwt>
<totfact> 0.16825444E+01</totfact>
</mgrwt>
</event>
<event>
 4    5  0.2409888E-007  0.6708294E+03  0.7818608E-02  0.1015075E+00
          2   -1    0    0  501    0  0.00000000000E+00  0.00000000000E+00  0.74934826436E+03  0.74934826436E+03  0.25500000000E-02 0. -1.
         -2   -1    0    0    0  501 -0.00000000000E+00 -0.00000000000E+00 -0.28486466747E+03  0.28486466748E+03  0.25500000000E-02 0.  1.
    8880023    1    1    2    0    0  0.12540315186E+03  0.21815493844E+02  0.49394451655E+03  0.83306257746E+03  0.65864270000E+03 0. -1.
    8880022    1    1    2    0    0 -0.12540315186E+03 -0.21815493844E+02 -0.29460919658E+02  0.20115035439E+03  0.15294330000E+03 0.  0.
<mgrwt>
<rscale>  0 0.49506483E+03</rscale>
<asrwt>0</asrwt>
<pdfrwt beam="1">  1        2 0.11528435E+00 0.67082939E+03</pdfrwt>
<pdfrwt beam="2">  1       -2 0.43825334E-01 0.67082939E+03</pdfrwt>
<totfact> 0.18797656E+02</totfact>
</mgrwt>
</event>
<event>
 4    5  0.2720926E-007  0.1629697E+04  0.7818608E-02  0.8823097E-01
          2   -1    0    0  501    0  0.00000000000E+00  0.00000000000E+00  0.28309674545E+04  0.28309674545E+04  0.25500000000E-02 0. -1.
         -2   -1    0    0    0  501 -0.00000000000E+00 -0.00000000000E+00 -0.21526624864E+04  0.21526624864E+04  0.25500000000E-02 0.  1.
    8880023    1    1    2    0    0  0.81158143124E+03 -0.12503747534E+04  0.22720220998E+04  0.27960679663E+04  0.65864270000E+03 0.  0.
    8880022    1    1    2    0    0 -0.81158143124E+03  0.12503747534E+04 -0.15937171317E+04  0.21875619746E+04  0.15294330000E+03 0.  0.
<mgrwt>
<rscale>  0 0.15958574E+04</rscale>
<asrwt>0</asrwt>
<pdfrwt beam="1">  1        2 0.43553345E+00 0.16296968E+04</pdfrwt>
<pdfrwt beam="2">  1       -2 0.33117884E+00 0.16296968E+04</pdfrwt>
<totfact> 0.41753180E-02</totfact>
</mgrwt>
</event>
<event>
 4    5  0.2409888E-007  0.6846678E+03  0.7818608E-02  0.1006798E+00
         -2   -1    0    0    0  501 -0.00000000000E+00  0.00000000000E+00  0.23937492288E+03  0.23937492289E+03  0.25500000000E-02 0.  1.
          2   -1    0    0  501    0  0.00000000000E+00 -0.00000000000E+00 -0.16410053825E+04  0.16410053825E+04  0.25500000000E-02 0. -1.
    8880023    1    1    2    0    0 -0.18598966370E+03  0.19175415871E+02 -0.14764691593E+04  0.16274923152E+04  0.65864270000E+03 0. -1.
    8880022    1    1    2    0    0  0.18598966370E+03 -0.19175415871E+02  0.74838699672E+02  0.25288799015E+03  0.15294330000E+03 0.  0.
<mgrwt>
<rscale>  0 0.52767492E+03</rscale>
<asrwt>0</asrwt>
<pdfrwt beam="1">  1        2 0.25246236E+00 0.68466784E+03</pdfrwt>
<pdfrwt beam="2">  1       -2 0.36826912E-01 0.68466784E+03</pdfrwt>
<totfact> 0.75596968E+01</totfact>
</mgrwt>
</event>
<event>
 4    5  0.2409888E-007  0.7041233E+03  0.7818608E-02  0.9980508E-01
          2   -1    0    0  501    0  0.00000000000E+00  0.00000000000E+00  0.23653471230E+04  0.23653471230E+04  0.25500000000E-02 0. -1.
         -2   -1    0    0    0  501 -0.00000000000E+00 -0.00000000000E+00 -0.20217993320E+03  0.20217993322E+03  0.25500000000E-02 0.  1.
    8880023    1    1    2    0    0  0.78344504083E+02  0.23630817733E+03  0.21636538158E+04  0.22753433712E+04  0.65864270000E+03 0. -1.
    8880022    1    1    2    0    0 -0.78344504083E+02 -0.23630817733E+03 -0.48662595943E+00  0.29218368505E+03  0.15294330000E+03 0.  0.
<mgrwt>
<rscale>  0 0.56513262E+03</rscale>
<asrwt>0</asrwt>
<pdfrwt beam="1">  1        2 0.36389957E+00 0.70412330E+03</pdfrwt>
<pdfrwt beam="2">  1       -2 0.31104604E-01 0.70412330E+03</pdfrwt>
<totfact> 0.41665464E+01</totfact>
</mgrwt>
</event>
<event>
 4    5  0.2409888E-007  0.9179211E+03  0.7818608E-02  0.9497854E-01
          2   -1    0    0  501    0  0.00000000000E+00  0.00000000000E+00  0.11260820549E+04  0.11260820549E+04  0.25500000000E-02 0. -1.
         -2   -1    0    0    0  501 -0.00000000000E+00 -0.00000000000E+00 -0.85176852668E+03  0.85176852668E+03  0.25500000000E-02 0.  1.
    8880023    1    1    2    0    0  0.58872289220E+03 -0.24934788408E+03 -0.43066045089E+03  0.10139268422E+04  0.65864270000E+03 0.  0.
    8880022    1    1    2    0    0 -0.58872289220E+03  0.24934788408E+03  0.70497397906E+03  0.96392373934E+03  0.15294330000E+03 0.  0.
<mgrwt>
<rscale>  0 0.84442228E+03</rscale>
<asrwt>0</asrwt>
<pdfrwt beam="1">  1        2 0.17324339E+00 0.91792114E+03</pdfrwt>
<pdfrwt beam="2">  1       -2 0.13104131E+00 0.91792114E+03</pdfrwt>
<totfact> 0.89353165E+00</totfact>
</mgrwt>
</event>
<event>
 4    5  0.2409888E-007  0.7160732E+03  0.7818608E-02  0.9936104E-01
         -2   -1    0    0    0  501 -0.00000000000E+00  0.00000000000E+00  0.46827235418E+03  0.46827235419E+03  0.25500000000E-02 0.  1.
          2   -1    0    0  501    0  0.00000000000E+00 -0.00000000000E+00 -0.10051464950E+04  0.10051464950E+04  0.25500000000E-02 0. -1.
    8880023    1    1    2    0    0  0.12141834677E+02  0.28071898538E+03 -0.78944319698E+03  0.10658242540E+04  0.65864270000E+03 0. -1.
    8880022    1    1    2    0    0 -0.12141834677E+02 -0.28071898538E+03  0.25256905615E+03  0.40759459521E+03  0.15294330000E+03 0.  0.
<mgrwt>
<rscale>  0 0.58542991E+03</rscale>
<asrwt>0</asrwt>
<pdfrwt beam="1">  1        2 0.15463792E+00 0.71607317E+03</pdfrwt>
<pdfrwt beam="2">  1       -2 0.72041901E-01 0.71607317E+03</pdfrwt>
<totfact> 0.44451408E+01</totfact>
</mgrwt>
</event>
<event>
 4    5  0.2409888E-007  0.8659221E+03  0.7818608E-02  0.9583115E-01
         -2   -1    0    0    0  501 -0.00000000000E+00  0.00000000000E+00  0.66330516991E+03  0.66330516991E+03  0.25500000000E-02 0.  1.
          2   -1    0    0  501    0  0.00000000000E+00 -0.00000000000E+00 -0.41468715121E+04  0.41468715121E+04  0.25500000000E-02 0. -1.
    8880023    1    1    2    0    0  0.10483026114E+03 -0.55228746437E+03 -0.39624940635E+04  0.40560054533E+04  0.65864270000E+03 0. -1.
    8880022    1    1    2    0    0 -0.10483026114E+03  0.55228746437E+03  0.47892772137E+03  0.75417122874E+03  0.15294330000E+03 0.  0.
<mgrwt>
<rscale>  0 0.78423909E+03</rscale>
<asrwt>0</asrwt>
<pdfrwt beam="1">  1        2 0.63798021E+00 0.86592207E+03</pdfrwt>
<pdfrwt beam="2">  1       -2 0.10204695E+00 0.86592207E+03</pdfrwt>
<totfact> 0.22142684E-01</totfact>
</mgrwt>
</event>
<event>
 4    5  0.2409888E-007  0.8619283E+03  0.7818608E-02  0.9590143E-01
         -2   -1    0    0    0  501 -0.00000000000E+00  0.00000000000E+00  0.34506678586E+03  0.34506678587E+03  0.25500000000E-02 0.  1.
          2   -1    0    0  501    0  0.00000000000E+00 -0.00000000000E+00 -0.24849337165E+04  0.24849337165E+04  0.25500000000E-02 0. -1.
    8880023    1    1    2    0    0 -0.42804721205E+03  0.35480374875E+03 -0.20784818253E+04  0.22501126684E+04  0.65864270000E+03 0. -1.
    8880022    1    1    2    0    0  0.42804721205E+03 -0.35480374875E+03 -0.61385105325E+02  0.57988783402E+03  0.15294330000E+03 0.  0.
<mgrwt>
<rscale>  0 0.77952058E+03</rscale>
<asrwt>0</asrwt>
<pdfrwt beam="1">  1        2 0.38229748E+00 0.86192826E+03</pdfrwt>
<pdfrwt beam="2">  1       -2 0.53087199E-01 0.86192826E+03</pdfrwt>
<totfact> 0.12239612E+01</totfact>
</mgrwt>
</event>
<event>
 4    5  0.2409888E-007  0.1038566E+04  0.7818608E-02  0.9332754E-01
         -2   -1    0    0    0  501 -0.00000000000E+00  0.00000000000E+00  0.11940384081E+04  0.11940384081E+04  0.25500000000E-02 0.  1.
          2   -1    0    0  501    0  0.00000000000E+00 -0.00000000000E+00 -0.22611084087E+04  0.22611084087E+04  0.25500000000E-02 0. -1.
    8880023    1    1    2    0    0  0.52933688809E+03 -0.60383156261E+03 -0.19762462476E+04  0.22325253715E+04  0.65864270000E+03 0. -1.
    8880022    1    1    2    0    0 -0.52933688809E+03  0.60383156261E+03  0.90917624705E+03  0.12226214452E+04  0.15294330000E+03 0.  0.
<mgrwt>
<rscale>  0 0.97822593E+03</rscale>
<asrwt>0</asrwt>
<pdfrwt beam="1">  1        2 0.34786283E+00 0.10385665E+04</pdfrwt>
<pdfrwt beam="2">  1       -2 0.18369822E+00 0.10385665E+04</pdfrwt>
<totfact> 0.81220506E-01</totfact>
</mgrwt>
</event>
<event>
 4    5  0.2409888E-007  0.9191643E+03  0.7818608E-02  0.9495942E-01
          2   -1    0    0  501    0  0.00000000000E+00  0.00000000000E+00  0.14815438223E+04  0.14815438223E+04  0.25500000000E-02 0. -1.
         -2   -1    0    0    0  501 -0.00000000000E+00 -0.00000000000E+00 -0.57340921507E+03  0.57340921508E+03  0.25500000000E-02 0.  1.
    8880023    1    1    2    0    0  0.23071102447E+03  0.59818487911E+03  0.10344687125E+04  0.13838310771E+04  0.65864270000E+03 0.  1.
    8880022    1    1    2    0    0 -0.23071102447E+03 -0.59818487911E+03 -0.12633410530E+03  0.67112196030E+03  0.15294330000E+03 0.  0.
<mgrwt>
<rscale>  0 0.84583688E+03</rscale>
<asrwt>0</asrwt>
<pdfrwt beam="1">  1        2 0.22792981E+00 0.91916426E+03</pdfrwt>
<pdfrwt beam="2">  1       -2 0.88216805E-01 0.91916426E+03</pdfrwt>
<totfact> 0.14452105E+01</totfact>
</mgrwt>
</event>
<event>
 4    5  0.2409888E-007  0.7229896E+03  0.7818608E-02  0.9912597E-01
          2   -1    0    0  501    0  0.00000000000E+00  0.00000000000E+00  0.27544636110E+04  0.27544636110E+04  0.25500000000E-02 0. -1.
         -2   -1    0    0    0  501 -0.00000000000E+00 -0.00000000000E+00 -0.27874521893E+03  0.27874521895E+03  0.25500000000E-02 0.  1.
    8880023    1    1    2    0    0  0.29816734906E+03 -0.39340735214E-01  0.25822691869E+04  0.26815719512E+04  0.65864270000E+03 0.  0.
    8880022    1    1    2    0    0 -0.29816734906E+03  0.39340735214E-01 -0.10655079484E+03  0.35163687874E+03  0.15294330000E+03 0.  0.
<mgrwt>
<rscale>  0 0.59654650E+03</rscale>
<asrwt>0</asrwt>
<pdfrwt beam="1">  1        2 0.42376366E+00 0.72298961E+03</pdfrwt>
<pdfrwt beam="2">  1       -2 0.42883877E-01 0.72298961E+03</pdfrwt>
<totfact> 0.13453328E+01</totfact>
</mgrwt>
</event>
<event>
 4    5  0.2409888E-007  0.7111775E+03  0.7818608E-02  0.9953654E-01
         -2   -1    0    0    0  501 -0.00000000000E+00  0.00000000000E+00  0.23190747316E+03  0.23190747318E+03  0.25500000000E-02 0.  1.
          2   -1    0    0  501    0  0.00000000000E+00 -0.00000000000E+00 -0.23454018341E+04  0.23454018341E+04  0.25500000000E-02 0. -1.
    8880023    1    1    2    0    0 -0.26825364791E+03  0.17820930028E+01 -0.21516774227E+04  0.22661617624E+04  0.65864270000E+03 0. -1.
    8880022    1    1    2    0    0  0.26825364791E+03 -0.17820930028E+01  0.38183061799E+02  0.31114754490E+03  0.15294330000E+03 0.  0.
<mgrwt>
<rscale>  0 0.57729971E+03</rscale>
<asrwt>0</asrwt>
<pdfrwt beam="1">  1        2 0.36083104E+00 0.71117748E+03</pdfrwt>
<pdfrwt beam="2">  1       -2 0.35678074E-01 0.71117748E+03</pdfrwt>
<totfact> 0.32963353E+01</totfact>
</mgrwt>
</event>
<event>
 4    5  0.2409888E-007  0.6889500E+03  0.7818608E-02  0.1004656E+00
          2   -1    0    0  501    0  0.00000000000E+00  0.00000000000E+00  0.17684004648E+04  0.17684004648E+04  0.25500000000E-02 0. -1.
         -2   -1    0    0    0  501 -0.00000000000E+00 -0.00000000000E+00 -0.57905836430E+03  0.57905836431E+03  0.25500000000E-02 0.  1.
    8880023    1    1    2    0    0  0.10913778996E+03  0.17009087067E+03  0.16686425897E+04  0.18052756742E+04  0.65864270000E+03 0. -1.
    8880022    1    1    2    0    0 -0.10913778996E+03 -0.17009087067E+03 -0.47930048921E+03  0.54218315489E+03  0.15294330000E+03 0.  0.
<mgrwt>
<rscale>  0 0.53655111E+03</rscale>
<asrwt>0</asrwt>
<pdfrwt beam="1">  1        2 0.27206160E+00 0.68895005E+03</pdfrwt>
<pdfrwt beam="2">  1       -2 0.89085904E-01 0.68895005E+03</pdfrwt>
<totfact> 0.10106307E+01</totfact>
</mgrwt>
</event>
<event>
 4    5  0.2409888E-007  0.7292961E+03  0.7818608E-02  0.9892301E-01
          2   -1    0    0  501    0  0.00000000000E+00  0.00000000000E+00  0.34083713395E+04  0.34083713395E+04  0.25500000000E-02 0. -1.
         -2   -1    0    0    0  501 -0.00000000000E+00 -0.00000000000E+00 -0.95931768452E+02  0.95931768485E+02  0.25500000000E-02 0.  1.
    8880023    1    1    2    0    0  0.14504674144E+03 -0.27753206616E+03  0.27283980653E+04  0.28241863986E+04  0.65864270000E+03 0.  0.
    8880022    1    1    2    0    0 -0.14504674144E+03  0.27753206616E+03  0.58404150573E+03  0.68011670939E+03  0.15294330000E+03 0.  0.
<mgrwt>
<rscale>  0 0.60635856E+03</rscale>
<asrwt>0</asrwt>
<pdfrwt beam="1">  1        2 0.52436470E+00 0.72929611E+03</pdfrwt>
<pdfrwt beam="2">  1       -2 0.14758737E-01 0.72929611E+03</pdfrwt>
<totfact> 0.36434583E+01</totfact>
</mgrwt>
</event>
<event>
 4    5  0.2409888E-007  0.2072793E+04  0.7818608E-02  0.8584983E-01
          2   -1    0    0  501    0  0.00000000000E+00  0.00000000000E+00  0.24169480315E+04  0.24169480315E+04  0.25500000000E-02 0. -1.
         -2   -1    0    0    0  501 -0.00000000000E+00 -0.00000000000E+00 -0.17618433050E+04  0.17618433050E+04  0.25500000000E-02 0.  1.
    8880023    1    1    2    0    0 -0.19167108931E+04  0.43460240005E+03 -0.81407329257E+02  0.20743908150E+04  0.65864270000E+03 0.  0.
    8880022    1    1    2    0    0  0.19167108931E+04 -0.43460240005E+03  0.73651205576E+03  0.21044005215E+04  0.15294330000E+03 0.  0.
<mgrwt>
<rscale>  0 0.20469418E+04</rscale>
<asrwt>0</asrwt>
<pdfrwt beam="1">  1        2 0.37183816E+00 0.20727928E+04</pdfrwt>
<pdfrwt beam="2">  1       -2 0.27105282E+00 0.20727928E+04</pdfrwt>
<totfact> 0.16395158E-01</totfact>
</mgrwt>
</event>
<event>
 4    5  0.2409888E-007  0.8495232E+03  0.7818608E-02  0.9612478E-01
          2   -1    0    0  501    0  0.00000000000E+00  0.00000000000E+00  0.16698270291E+04  0.16698270291E+04  0.25500000000E-02 0. -1.
         -2   -1    0    0    0  501 -0.00000000000E+00 -0.00000000000E+00 -0.68579847405E+03  0.68579847406E+03  0.25500000000E-02 0.  1.
    8880023    1    1    2    0    0  0.37381377743E+03 -0.38489309319E+03  0.14151425100E+04  0.16505508060E+04  0.65864270000E+03 0. -1.
    8880022    1    1    2    0    0 -0.37381377743E+03  0.38489309319E+03 -0.43111395495E+03  0.70507469714E+03  0.15294330000E+03 0.  0.
<mgrwt>
<rscale>  0 0.76475755E+03</rscale>
<asrwt>0</asrwt>
<pdfrwt beam="1">  1        2 0.25689646E+00 0.84952318E+03</pdfrwt>
<pdfrwt beam="2">  1       -2 0.10550746E+00 0.84952318E+03</pdfrwt>
<totfact> 0.75127263E+00</totfact>
</mgrwt>
</event>
<event>
 4    5  0.2409888E-007  0.7258432E+03  0.7818608E-02  0.9903289E-01
          2   -1    0    0  501    0  0.00000000000E+00  0.00000000000E+00  0.21941525146E+04  0.21941525146E+04  0.25500000000E-02 0. -1.
         -2   -1    0    0    0  501 -0.00000000000E+00 -0.00000000000E+00 -0.24973422759E+03  0.24973422761E+03  0.25500000000E-02 0.  1.
    8880023    1    1    2    0    0 -0.25399890491E+03  0.16888646986E+03  0.19722111062E+04  0.21015387070E+04  0.65864270000E+03 0. -1.
    8880022    1    1    2    0    0  0.25399890491E+03 -0.16888646986E+03 -0.27792819187E+02  0.34234803520E+03  0.15294330000E+03 0.  0.
<mgrwt>
<rscale>  0 0.60102160E+03</rscale>
<asrwt>0</asrwt>
<pdfrwt beam="1">  1        2 0.33756192E+00 0.72584316E+03</pdfrwt>
<pdfrwt beam="2">  1       -2 0.38420651E-01 0.72584316E+03</pdfrwt>
<totfact> 0.34595625E+01</totfact>
</mgrwt>
</event>
<event>
 4    5  0.2409888E-007  0.6986762E+03  0.7818608E-02  0.1000274E+00
         -2   -1    0    0    0  501 -0.00000000000E+00  0.00000000000E+00  0.60280556050E+03  0.60280556051E+03  0.25500000000E-02 0.  1.
          2   -1    0    0  501    0  0.00000000000E+00 -0.00000000000E+00 -0.42951144295E+03  0.42951144296E+03  0.25500000000E-02 0. -1.
    8880023    1    1    2    0    0 -0.33748583026E+02 -0.23064968946E+03 -0.98451688569E+01  0.69874557581E+03  0.65864270000E+03 0.  0.
    8880022    1    1    2    0    0  0.33748583026E+02  0.23064968946E+03  0.18313928641E+03  0.33357142765E+03  0.15294330000E+03 0.  0.
<mgrwt>
<rscale>  0 0.55530359E+03</rscale>
<asrwt>0</asrwt>
<pdfrwt beam="1">  1        2 0.66078684E-01 0.69867621E+03</pdfrwt>
<pdfrwt beam="2">  1       -2 0.92739317E-01 0.69867621E+03</pdfrwt>
<totfact> 0.73326511E+01</totfact>
</mgrwt>
</event>
<event>
 4    5  0.2409888E-007  0.1112075E+04  0.7818608E-02  0.9247730E-01
          2   -1    0    0  501    0  0.00000000000E+00  0.00000000000E+00  0.32166037203E+04  0.32166037203E+04  0.25500000000E-02 0. -1.
         -2   -1    0    0    0  501 -0.00000000000E+00 -0.00000000000E+00 -0.33751300187E+03  0.33751300188E+03  0.25500000000E-02 0.  1.
    8880023    1    1    2    0    0 -0.85331611352E+03 -0.27340876563E+03  0.20065282399E+04  0.22940938356E+04  0.65864270000E+03 0.  0.
    8880022    1    1    2    0    0  0.85331611352E+03  0.27340876563E+03  0.87256247846E+03  0.12600228865E+04  0.15294330000E+03 0.  0.
<mgrwt>
<rscale>  0 0.10574073E+04</rscale>
<asrwt>0</asrwt>
<pdfrwt beam="1">  1        2 0.49486212E+00 0.11120751E+04</pdfrwt>
<pdfrwt beam="2">  1       -2 0.51925076E-01 0.11120751E+04</pdfrwt>
<totfact> 0.44861605E+00</totfact>
</mgrwt>
</event>
<event>
 4    5  0.2409888E-007  0.2129372E+04  0.7818608E-02  0.8559366E-01
         -2   -1    0    0    0  501 -0.00000000000E+00  0.00000000000E+00  0.15568515907E+04  0.15568515907E+04  0.25500000000E-02 0.  1.
          2   -1    0    0  501    0  0.00000000000E+00 -0.00000000000E+00 -0.37099969618E+04  0.37099969618E+04  0.25500000000E-02 0. -1.
    8880023    1    1    2    0    0 -0.17968060824E+04 -0.93375666461E+03 -0.24145705415E+04  0.32193748947E+04  0.65864270000E+03 0. -1.
    8880022    1    1    2    0    0  0.17968060824E+04  0.93375666461E+03  0.26142517039E+03  0.20474736578E+04  0.15294330000E+03 0.  0.
<mgrwt>
<rscale>  0 0.21042672E+04</rscale>
<asrwt>0</asrwt>
<pdfrwt beam="1">  1        2 0.57076876E+00 0.21293717E+04</pdfrwt>
<pdfrwt beam="2">  1       -2 0.23951563E+00 0.21293717E+04</pdfrwt>
<totfact> 0.37567541E-02</totfact>
</mgrwt>
</event>
<event>
 4    5  0.2409888E-007  0.1568573E+04  0.7818608E-02  0.8862673E-01
          2   -1    0    0  501    0  0.00000000000E+00  0.00000000000E+00  0.21282433726E+04  0.21282433726E+04  0.25500000000E-02 0. -1.
         -2   -1    0    0    0  501 -0.00000000000E+00 -0.00000000000E+00 -0.17479630319E+04  0.17479630319E+04  0.25500000000E-02 0.  1.
    8880023    1    1    2    0    0  0.84488647902E+03  0.11457655389E+04  0.14127470648E+04  0.21109894144E+04  0.65864270000E+03 0.  0.
    8880022    1    1    2    0    0 -0.84488647902E+03 -0.11457655389E+04 -0.10324667241E+04  0.17652169900E+04  0.15294330000E+03 0.  0.
<mgrwt>
<rscale>  0 0.15331969E+04</rscale>
<asrwt>0</asrwt>
<pdfrwt beam="1">  1        2 0.32742206E+00 0.15685732E+04</pdfrwt>
<pdfrwt beam="2">  1       -2 0.26891739E+00 0.15685732E+04</pdfrwt>
<totfact> 0.25930471E-01</totfact>
</mgrwt>
</event>
<event>
 4    5  0.2409888E-007  0.7894088E+03  0.7818608E-02  0.9734182E-01
          2   -1    0    0  501    0  0.00000000000E+00  0.00000000000E+00  0.15191515534E+04  0.15191515534E+04  0.25500000000E-02 0. -1.
         -2   -1    0    0    0  501 -0.00000000000E+00 -0.00000000000E+00 -0.57918791797E+03  0.57918791798E+03  0.25500000000E-02 0.  1.
    8880023    1    1    2    0    0  0.42258787647E+03 -0.10380554671E+03  0.12947521592E+04  0.15164265445E+04  0.65864270000E+03 0.  0.
    8880022    1    1    2    0    0 -0.42258787647E+03  0.10380554671E+03 -0.35478852375E+03  0.58191292688E+03  0.15294330000E+03 0.  0.
<mgrwt>
<rscale>  0 0.69017562E+03</rscale>
<asrwt>0</asrwt>
<pdfrwt beam="1">  1        2 0.23371562E+00 0.78940884E+03</pdfrwt>
<pdfrwt beam="2">  1       -2 0.89105835E-01 0.78940884E+03</pdfrwt>
<totfact> 0.13652919E+01</totfact>
</mgrwt>
</event>
<event>
 4    5  0.2409888E-007  0.7063560E+03  0.7818608E-02  0.9971790E-01
         -2   -1    0    0    0  501 -0.00000000000E+00  0.00000000000E+00  0.11163892383E+04  0.11163892383E+04  0.25500000000E-02 0.  1.
          2   -1    0    0  501    0  0.00000000000E+00 -0.00000000000E+00 -0.36766409017E+03  0.36766409018E+03  0.25500000000E-02 0. -1.
    8880023    1    1    2    0    0  0.19255267013E+03  0.16748731304E+03  0.30922088943E+02  0.70703246931E+03  0.65864270000E+03 0. -1.
    8880022    1    1    2    0    0 -0.19255267013E+03 -0.16748731304E+03  0.71780305914E+03  0.77702085914E+03  0.15294330000E+03 0.  0.
<mgrwt>
<rscale>  0 0.56904682E+03</rscale>
<asrwt>0</asrwt>
<pdfrwt beam="1">  1        2 0.56563708E-01 0.70635596E+03</pdfrwt>
<pdfrwt beam="2">  1       -2 0.17175218E+00 0.70635596E+03</pdfrwt>
<totfact> 0.18443468E+01</totfact>
</mgrwt>
</event>
<event>
 4    5  0.2409888E-007  0.1028416E+04  0.7818608E-02  0.9345290E-01
          2   -1    0    0  501    0  0.00000000000E+00  0.00000000000E+00  0.22159460691E+04  0.22159460691E+04  0.25500000000E-02 0. -1.
         -2   -1    0    0    0  501 -0.00000000000E+00 -0.00000000000E+00 -0.79563393674E+03  0.79563393674E+03  0.25500000000E-02 0.  1.
    8880023    1    1    2    0    0 -0.43270104276E+03 -0.66075627177E+03  0.18372187700E+04  0.21054719324E+04  0.65864270000E+03 0.  0.
    8880022    1    1    2    0    0  0.43270104276E+03  0.66075627177E+03 -0.41690663768E+03  0.90610807338E+03  0.15294330000E+03 0.  0.
<mgrwt>
<rscale>  0 0.96718184E+03</rscale>
<asrwt>0</asrwt>
<pdfrwt beam="1">  1        2 0.34091478E+00 0.10284159E+04</pdfrwt>
<pdfrwt beam="2">  1       -2 0.12240522E+00 0.10284159E+04</pdfrwt>
<totfact> 0.25515128E+00</totfact>
</mgrwt>
</event>
<event>
 4    5  0.2409888E-007  0.6798588E+03  0.7818608E-02  0.1009404E+00
          2   -1    0    0  501    0  0.00000000000E+00  0.00000000000E+00  0.13067148085E+04  0.13067148085E+04  0.25500000000E-02 0. -1.
         -2   -1    0    0    0  501 -0.00000000000E+00 -0.00000000000E+00 -0.20231648818E+03  0.20231648819E+03  0.25500000000E-02 0.  1.
    8880023    1    1    2    0    0  0.72822124031E+02  0.15196925393E+03  0.10853011710E+04  0.12806586407E+04  0.65864270000E+03 0.  0.
    8880022    1    1    2    0    0 -0.72822124031E+02 -0.15196925393E+03  0.19097149310E+02  0.22837265601E+03  0.15294330000E+03 0.  1.
<mgrwt>
<rscale>  0 0.51712329E+03</rscale>
<asrwt>0</asrwt>
<pdfrwt beam="1">  1        2 0.20103304E+00 0.67985875E+03</pdfrwt>
<pdfrwt beam="2">  1       -2 0.31125614E-01 0.67985875E+03</pdfrwt>
<totfact> 0.15976096E+02</totfact>
</mgrwt>
</event>
<event>
 4    5  0.2409888E-007  0.1256534E+04  0.7818608E-02  0.9104035E-01
          2   -1    0    0  501    0  0.00000000000E+00  0.00000000000E+00  0.14525775668E+04  0.14525775668E+04  0.25500000000E-02 0. -1.
         -2   -1    0    0    0  501 -0.00000000000E+00 -0.00000000000E+00 -0.17756528618E+04  0.17756528618E+04  0.25500000000E-02 0.  1.
    8880023    1    1    2    0    0 -0.10102202276E+04  0.35287655390E+03  0.93744385516E+03  0.15676982995E+04  0.65864270000E+03 0. -1.
    8880022    1    1    2    0    0  0.10102202276E+04 -0.35287655390E+03 -0.12605191502E+04  0.16605321290E+04  0.15294330000E+03 0.  0.
<mgrwt>
<rscale>  0 0.12101307E+04</rscale>
<asrwt>0</asrwt>
<pdfrwt beam="1">  1        2 0.22347347E+00 0.12565337E+04</pdfrwt>
<pdfrwt beam="2">  1       -2 0.27317736E+00 0.12565337E+04</pdfrwt>
<totfact> 0.60495583E-01</totfact>
</mgrwt>
</event>
<event>
 4    5  0.2409888E-007  0.9850747E+03  0.7818608E-02  0.9401350E-01
         -2   -1    0    0    0  501 -0.00000000000E+00  0.00000000000E+00  0.96894463000E+03  0.96894463000E+03  0.25500000000E-02 0.  1.
          2   -1    0    0  501    0  0.00000000000E+00 -0.00000000000E+00 -0.44278499096E+04  0.44278499096E+04  0.25500000000E-02 0. -1.
    8880023    1    1    2    0    0 -0.23466341585E+03  0.69389846471E+03 -0.42176306736E+04  0.43311408086E+04  0.65864270000E+03 0.  0.
    8880022    1    1    2    0    0  0.23466341585E+03 -0.69389846471E+03  0.75872539400E+03  0.10656537311E+04  0.15294330000E+03 0.  0.
<mgrwt>
<rscale>  0 0.91964643E+03</rscale>
<asrwt>0</asrwt>
<pdfrwt beam="1">  1        2 0.68120767E+00 0.98507472E+03</pdfrwt>
<pdfrwt beam="2">  1       -2 0.14906841E+00 0.98507472E+03</pdfrwt>
<totfact> 0.47089865E-02</totfact>
</mgrwt>
</event>
<event>
 4    5  0.2409888E-007  0.1295994E+04  0.7818608E-02  0.9069027E-01
          2   -1    0    0  501    0  0.00000000000E+00  0.00000000000E+00  0.11267692622E+04  0.11267692622E+04  0.25500000000E-02 0. -1.
         -2   -1    0    0    0  501 -0.00000000000E+00 -0.00000000000E+00 -0.20412428732E+04  0.20412428732E+04  0.25500000000E-02 0.  1.
    8880023    1    1    2    0    0  0.10514786860E+04  0.37441017039E+03 -0.14292952846E+04  0.19293744114E+04  0.65864270000E+03 0.  0.
    8880022    1    1    2    0    0 -0.10514786860E+04 -0.37441017039E+03  0.51482167347E+03  0.12386377240E+04  0.15294330000E+03 0. -1.
<mgrwt>
<rscale>  0 0.12513902E+04</rscale>
<asrwt>0</asrwt>
<pdfrwt beam="1">  1        2 0.17334912E+00 0.12959941E+04</pdfrwt>
<pdfrwt beam="2">  1       -2 0.31403736E+00 0.12959941E+04</pdfrwt>
<totfact> 0.52862593E-01</totfact>
</mgrwt>
</event>
<event>
 4    5  0.2409888E-007  0.6869364E+03  0.7818608E-02  0.1005644E+00
          2   -1    0    0  501    0  0.00000000000E+00  0.00000000000E+00  0.70139830502E+03  0.70139830503E+03  0.25500000000E-02 0. -1.
         -2   -1    0    0    0  501 -0.00000000000E+00 -0.00000000000E+00 -0.42756747696E+03  0.42756747696E+03  0.25500000000E-02 0.  1.
    8880023    1    1    2    0    0  0.93481455895E+02 -0.17126778691E+03  0.45319986372E+03  0.82296522416E+03  0.65864270000E+03 0. -1.
    8880022    1    1    2    0    0 -0.93481455895E+02  0.17126778691E+03 -0.17936903565E+03  0.30600055784E+03  0.15294330000E+03 0.  0.
<mgrwt>
<rscale>  0 0.53243207E+03</rscale>
<asrwt>0</asrwt>
<pdfrwt beam="1">  1        2 0.10790743E+00 0.68693642E+03</pdfrwt>
<pdfrwt beam="2">  1       -2 0.65779612E-01 0.68693642E+03</pdfrwt>
<totfact> 0.88389000E+01</totfact>
</mgrwt>
</event>
<event>
 4    5  0.2409888E-007  0.6741614E+03  0.7818608E-02  0.1012840E+00
         -2   -1    0    0    0  501 -0.00000000000E+00  0.00000000000E+00  0.63684400936E+03  0.63684400936E+03  0.25500000000E-02 0.  1.
          2   -1    0    0  501    0  0.00000000000E+00 -0.00000000000E+00 -0.10569863418E+04  0.10569863418E+04  0.25500000000E-02 0. -1.
    8880023    1    1    2    0    0 -0.10896461842E+03  0.93861861828E+02 -0.92641886941E+03  0.11457510485E+04  0.65864270000E+03 0. -1.
    8880022    1    1    2    0    0  0.10896461842E+03 -0.93861861828E+02  0.50627653696E+03  0.54807930272E+03  0.15294330000E+03 0.  0.
<mgrwt>
<rscale>  0 0.50361299E+03</rscale>
<asrwt>0</asrwt>
<pdfrwt beam="1">  1        2 0.16261328E+00 0.67416136E+03</pdfrwt>
<pdfrwt beam="2">  1       -2 0.97976002E-01 0.67416136E+03</pdfrwt>
<totfact> 0.20608038E+01</totfact>
</mgrwt>
</event>
<event>
 4    5  0.2409888E-007  0.1238292E+04  0.7818608E-02  0.9120769E-01
         -2   -1    0    0    0  501 -0.00000000000E+00  0.00000000000E+00  0.41697830558E+03  0.41697830559E+03  0.25500000000E-02 0.  1.
          2   -1    0    0  501    0  0.00000000000E+00 -0.00000000000E+00 -0.38254284268E+04  0.38254284268E+04  0.25500000000E-02 0. -1.
    8880023    1    1    2    0    0 -0.56235028828E+02  0.10470890316E+04 -0.26922901836E+04  0.29634092626E+04  0.65864270000E+03 0. -1.
    8880022    1    1    2    0    0  0.56235028828E+02 -0.10470890316E+04 -0.71615993763E+03  0.12789974698E+04  0.15294330000E+03 0.  0.
<mgrwt>
<rscale>  0 0.11910018E+04</rscale>
<asrwt>0</asrwt>
<pdfrwt beam="1">  1        2 0.58852743E+00 0.12382924E+04</pdfrwt>
<pdfrwt beam="2">  1       -2 0.64150511E-01 0.12382924E+04</pdfrwt>
<totfact> 0.10635867E+00</totfact>
</mgrwt>
</event>
<event>
 4    5  0.2409888E-007  0.8508769E+03  0.7818608E-02  0.9610002E-01
          2   -1    0    0  501    0  0.00000000000E+00  0.00000000000E+00  0.13959103039E+04  0.13959103039E+04  0.25500000000E-02 0. -1.
         -2   -1    0    0    0  501 -0.00000000000E+00 -0.00000000000E+00 -0.52838770876E+03  0.52838770877E+03  0.25500000000E-02 0.  1.
    8880023    1    1    2    0    0 -0.37315350705E+03  0.38850702914E+03  0.10349594884E+04  0.13398255858E+04  0.65864270000E+03 0.  0.
    8880022    1    1    2    0    0  0.37315350705E+03 -0.38850702914E+03 -0.16743689326E+03  0.58447242685E+03  0.15294330000E+03 0.  0.
<mgrwt>
<rscale>  0 0.76637681E+03</rscale>
<asrwt>0</asrwt>
<pdfrwt beam="1">  1        2 0.21475543E+00 0.85087688E+03</pdfrwt>
<pdfrwt beam="2">  1       -2 0.81290417E-01 0.85087688E+03</pdfrwt>
<totfact> 0.19606626E+01</totfact>
</mgrwt>
</event>
<event>
 4    5  0.2409888E-007  0.7647574E+03  0.7818608E-02  0.9792943E-01
          2   -1    0    0  501    0  0.00000000000E+00  0.00000000000E+00  0.21190299765E+04  0.21190299765E+04  0.25500000000E-02 0. -1.
         -2   -1    0    0    0  501 -0.00000000000E+00 -0.00000000000E+00 -0.19685385646E+03  0.19685385647E+03  0.25500000000E-02 0.  1.
    8880023    1    1    2    0    0  0.38351865991E+03  0.62905282990E+02  0.16465369054E+04  0.18154717360E+04  0.65864270000E+03 0. -1.
    8880022    1    1    2    0    0 -0.38351865991E+03 -0.62905282990E+02  0.27563921466E+03  0.50041209698E+03  0.15294330000E+03 0.  0.
<mgrwt>
<rscale>  0 0.65742626E+03</rscale>
<asrwt>0</asrwt>
<pdfrwt beam="1">  1        2 0.32600460E+00 0.76475738E+03</pdfrwt>
<pdfrwt beam="2">  1       -2 0.30285210E-01 0.76475738E+03</pdfrwt>
<totfact> 0.59447284E+01</totfact>
</mgrwt>
</event>
<event>
 4    5  0.2409888E-007  0.6670747E+03  0.7818608E-02  0.1017853E+00
          2   -1    0    0  501    0  0.00000000000E+00  0.00000000000E+00  0.19838228549E+04  0.19838228549E+04  0.25500000000E-02 0. -1.
         -2   -1    0    0    0  501 -0.00000000000E+00 -0.00000000000E+00 -0.15913346567E+04  0.15913346567E+04  0.25500000000E-02 0.  1.
    8880023    1    1    2    0    0 -0.25253195067E+02  0.10266807509E+03  0.19219561395E+04  0.20344296660E+04  0.65864270000E+03 0. -1.
    8880022    1    1    2    0    0  0.25253195067E+02 -0.10266807509E+03 -0.15294679413E+04  0.15407278456E+04  0.15294330000E+03 0.  0.
<mgrwt>
<rscale>  0 0.48469490E+03</rscale>
<asrwt>0</asrwt>
<pdfrwt beam="1">  1        2 0.30520352E+00 0.66707471E+03</pdfrwt>
<pdfrwt beam="2">  1       -2 0.24482072E+00 0.66707471E+03</pdfrwt>
<totfact> 0.50646728E-01</totfact>
</mgrwt>
</event>
<event>
 4    5  0.2409888E-007  0.7361878E+03  0.7818608E-02  0.9871194E-01
          2   -1    0    0  501    0  0.00000000000E+00  0.00000000000E+00  0.14910823938E+04  0.14910823938E+04  0.25500000000E-02 0. -1.
         -2   -1    0    0    0  501 -0.00000000000E+00 -0.00000000000E+00 -0.56590627296E+03  0.56590627296E+03  0.25500000000E-02 0.  1.
    8880023    1    1    2    0    0 -0.32887554015E+03 -0.17770482159E+01  0.13258537494E+04  0.15165291457E+04  0.65864270000E+03 0.  0.
    8880022    1    1    2    0    0  0.32887554015E+03  0.17770482159E+01 -0.40067762857E+03  0.54045952102E+03  0.15294330000E+03 0.  0.
<mgrwt>
<rscale>  0 0.61677881E+03</rscale>
<asrwt>0</asrwt>
<pdfrwt beam="1">  1        2 0.22939729E+00 0.73618781E+03</pdfrwt>
<pdfrwt beam="2">  1       -2 0.87062506E-01 0.73618781E+03</pdfrwt>
<totfact> 0.15028393E+01</totfact>
</mgrwt>
</event>
<event>
 4    5  0.2409888E-007  0.1533558E+04  0.7818608E-02  0.8886296E-01
         -2   -1    0    0    0  501 -0.00000000000E+00  0.00000000000E+00  0.20855818234E+04  0.20855818234E+04  0.25500000000E-02 0.  1.
          2   -1    0    0  501    0  0.00000000000E+00 -0.00000000000E+00 -0.16588284292E+04  0.16588284292E+04  0.25500000000E-02 0. -1.
    8880023    1    1    2    0    0  0.12708228679E+04 -0.55045409876E+03 -0.93502181298E+03  0.17961254058E+04  0.65864270000E+03 0.  0.
    8880022    1    1    2    0    0 -0.12708228679E+04  0.55045409876E+03  0.13617752072E+04  0.19482848468E+04  0.15294330000E+03 0.  0.
<mgrwt>
<rscale>  0 0.14972319E+04</rscale>
<asrwt>0</asrwt>
<pdfrwt beam="1">  1        2 0.25520437E+00 0.15335582E+04</pdfrwt>
<pdfrwt beam="2">  1       -2 0.32085874E+00 0.15335582E+04</pdfrwt>
<totfact> 0.22901592E-01</totfact>
</mgrwt>
</event>
<event>
 4    5  0.2409888E-007  0.9214928E+03  0.7818608E-02  0.9492374E-01
         -2   -1    0    0    0  501 -0.00000000000E+00  0.00000000000E+00  0.82548382778E+03  0.82548382778E+03  0.25500000000E-02 0.  1.
          2   -1    0    0  501    0  0.00000000000E+00 -0.00000000000E+00 -0.20487113194E+04  0.20487113194E+04  0.25500000000E-02 0. -1.
    8880023    1    1    2    0    0 -0.34938100799E+03  0.54154557615E+03 -0.17829512030E+04  0.20070037116E+04  0.65864270000E+03 0. -1.
    8880022    1    1    2    0    0  0.34938100799E+03 -0.54154557615E+03  0.55972371141E+03  0.86719143557E+03  0.15294330000E+03 0.  0.
<mgrwt>
<rscale>  0 0.84848400E+03</rscale>
<asrwt>0</asrwt>
<pdfrwt beam="1">  1        2 0.31518636E+00 0.92149276E+03</pdfrwt>
<pdfrwt beam="2">  1       -2 0.12699751E+00 0.92149276E+03</pdfrwt>
<totfact> 0.29208998E+00</totfact>
</mgrwt>
</event>
<event>
 4    5  0.2409888E-007  0.8724882E+03  0.7818608E-02  0.9571724E-01
          2   -1    0    0  501    0  0.00000000000E+00  0.00000000000E+00  0.76386056990E+03  0.76386056991E+03  0.25500000000E-02 0. -1.
         -2   -1    0    0    0  501 -0.00000000000E+00 -0.00000000000E+00 -0.77422430363E+03  0.77422430363E+03  0.25500000000E-02 0.  1.
    8880023    1    1    2    0    0 -0.55805909307E+03 -0.12647323545E+03  0.22452012217E+03  0.90091338217E+03  0.65864270000E+03 0.  0.
    8880022    1    1    2    0    0  0.55805909307E+03  0.12647323545E+03 -0.23488385590E+03  0.63717149137E+03  0.15294330000E+03 0.  0.
<mgrwt>
<rscale>  0 0.79196276E+03</rscale>
<asrwt>0</asrwt>
<pdfrwt beam="1">  1        2 0.11751701E+00 0.87248819E+03</pdfrwt>
<pdfrwt beam="2">  1       -2 0.11911143E+00 0.87248819E+03</pdfrwt>
<totfact> 0.19870676E+01</totfact>
</mgrwt>
</event>
<event>
 4    5  0.2409888E-007  0.1468149E+04  0.7818608E-02  0.8932461E-01
         -2   -1    0    0    0  501 -0.00000000000E+00  0.00000000000E+00  0.11096564008E+04  0.11096564008E+04  0.25500000000E-02 0.  1.
          2   -1    0    0  501    0  0.00000000000E+00 -0.00000000000E+00 -0.20486229324E+04  0.20486229324E+04  0.25500000000E-02 0. -1.
    8880023    1    1    2    0    0  0.96967134848E+03 -0.88396124961E+03  0.10883976707E+03  0.14721774064E+04  0.65864270000E+03 0.  1.
    8880022    1    1    2    0    0 -0.96967134848E+03  0.88396124961E+03 -0.10478062987E+04  0.16861019268E+04  0.15294330000E+03 0.  0.
<mgrwt>
<rscale>  0 0.14298920E+04</rscale>
<asrwt>0</asrwt>
<pdfrwt beam="1">  1        2 0.31517276E+00 0.14681486E+04</pdfrwt>
<pdfrwt beam="2">  1       -2 0.17071637E+00 0.14681486E+04</pdfrwt>
<totfact> 0.12492797E+00</totfact>
</mgrwt>
</event>
<event>
 4    5  0.2409888E-007  0.6693028E+03  0.7818608E-02  0.1016168E+00
         -2   -1    0    0    0  501 -0.00000000000E+00  0.00000000000E+00  0.87675804127E+03  0.87675804127E+03  0.25500000000E-02 0.  1.
          2   -1    0    0  501    0  0.00000000000E+00 -0.00000000000E+00 -0.56583105610E+03  0.56583105611E+03  0.25500000000E-02 0. -1.
    8880023    1    1    2    0    0  0.10903224794E+03  0.47623763602E+02 -0.34898068163E+03  0.75482036033E+03  0.65864270000E+03 0.  0.
    8880022    1    1    2    0    0 -0.10903224794E+03 -0.47623763602E+02  0.65990766680E+03  0.68776873705E+03  0.15294330000E+03 0.  1.
<mgrwt>
<rscale>  0 0.49095300E+03</rscale>
<asrwt>0</asrwt>
<pdfrwt beam="1">  1        2 0.87050932E-01 0.66930282E+03</pdfrwt>
<pdfrwt beam="2">  1       -2 0.13488585E+00 0.66930282E+03</pdfrwt>
<totfact> 0.21480964E+01</totfact>
</mgrwt>
</event>
<event>
 4    5  0.2409888E-007  0.8673165E+03  0.7818608E-02  0.9580679E-01
         -2   -1    0    0    0  501 -0.00000000000E+00  0.00000000000E+00  0.23385120185E+04  0.23385120185E+04  0.25500000000E-02 0.  1.
          2   -1    0    0  501    0  0.00000000000E+00 -0.00000000000E+00 -0.92433818809E+03  0.92433818809E+03  0.25500000000E-02 0. -1.
    8880023    1    1    2    0    0  0.56115532879E+03  0.59434719016E+02 -0.67143599186E+03  0.10968428722E+04  0.65864270000E+03 0. -1.
    8880022    1    1    2    0    0 -0.56115532879E+03 -0.59434719016E+02  0.20856098223E+04  0.21660073344E+04  0.15294330000E+03 0.  0.
<mgrwt>
<rscale>  0 0.78588286E+03</rscale>
<asrwt>0</asrwt>
<pdfrwt beam="1">  1        2 0.14220587E+00 0.86731655E+03</pdfrwt>
<pdfrwt beam="2">  1       -2 0.35977108E+00 0.86731655E+03</pdfrwt>
<totfact> 0.39464580E-01</totfact>
</mgrwt>
</event>
<event>
 4    5  0.2409888E-007  0.7300251E+03  0.7818608E-02  0.9890018E-01
         -2   -1    0    0    0  501 -0.00000000000E+00  0.00000000000E+00  0.31859875321E+03  0.31859875322E+03  0.25500000000E-02 0.  1.
          2   -1    0    0  501    0  0.00000000000E+00 -0.00000000000E+00 -0.17860628561E+04  0.17860628561E+04  0.25500000000E-02 0. -1.
    8880023    1    1    2    0    0 -0.20490732507E+03 -0.23903844630E+03 -0.15771004069E+04  0.17378671671E+04  0.65864270000E+03 0. -1.
    8880022    1    1    2    0    0  0.20490732507E+03  0.23903844630E+03  0.10963630403E+03  0.36679444223E+03  0.15294330000E+03 0.  0.
<mgrwt>
<rscale>  0 0.60747490E+03</rscale>
<asrwt>0</asrwt>
<pdfrwt beam="1">  1        2 0.27477889E+00 0.73002507E+03</pdfrwt>
<pdfrwt beam="2">  1       -2 0.49015194E-01 0.73002507E+03</pdfrwt>
<totfact> 0.35663031E+01</totfact>
</mgrwt>
</event>
<event>
 4    5  0.2409888E-007  0.1573333E+04  0.7818608E-02  0.8859517E-01
          2   -1    0    0  501    0  0.00000000000E+00  0.00000000000E+00  0.22386951562E+04  0.22386951562E+04  0.25500000000E-02 0. -1.
         -2   -1    0    0    0  501 -0.00000000000E+00 -0.00000000000E+00 -0.11358555722E+04  0.11358555722E+04  0.25500000000E-02 0.  1.
    8880023    1    1    2    0    0  0.86797600710E+03 -0.11349821381E+04  0.11303622584E+04  0.19372908517E+04  0.65864270000E+03 0.  0.
    8880022    1    1    2    0    0 -0.86797600710E+03  0.11349821381E+04 -0.27522674410E+02  0.14372598767E+04  0.15294330000E+03 0.  0.
<mgrwt>
<rscale>  0 0.15380818E+04</rscale>
<asrwt>0</asrwt>
<pdfrwt beam="1">  1        2 0.34441463E+00 0.15733331E+04</pdfrwt>
<pdfrwt beam="2">  1       -2 0.17474701E+00 0.15733331E+04</pdfrwt>
<totfact> 0.90551796E-01</totfact>
</mgrwt>
</event>
<event>
 4    5  0.2409888E-007  0.7149666E+03  0.7818608E-02  0.9940000E-01
         -2   -1    0    0    0  501 -0.00000000000E+00  0.00000000000E+00  0.17239820378E+03  0.17239820380E+03  0.25500000000E-02 0.  1.
          2   -1    0    0  501    0  0.00000000000E+00 -0.00000000000E+00 -0.23207781521E+04  0.23207781521E+04  0.25500000000E-02 0. -1.
    8880023    1    1    2    0    0  0.21328292084E+03 -0.17854260303E+03 -0.20336240203E+04  0.21556446664E+04  0.65864270000E+03 0. -1.
    8880022    1    1    2    0    0 -0.21328292084E+03  0.17854260303E+03 -0.11475592802E+03  0.33753168954E+03  0.15294330000E+03 0.  0.
<mgrwt>
<rscale>  0 0.58361259E+03</rscale>
<asrwt>0</asrwt>
<pdfrwt beam="1">  1        2 0.35704277E+00 0.71496662E+03</pdfrwt>
<pdfrwt beam="2">  1       -2 0.26522802E-01 0.71496662E+03</pdfrwt>
<totfact> 0.59074465E+01</totfact>
</mgrwt>
</event>
<event>
 4    5  0.2409888E-007  0.1566932E+04  0.7818608E-02  0.8863764E-01
          2   -1    0    0  501    0  0.00000000000E+00  0.00000000000E+00  0.32254390599E+04  0.32254390599E+04  0.25500000000E-02 0. -1.
         -2   -1    0    0    0  501 -0.00000000000E+00 -0.00000000000E+00 -0.10480960248E+04  0.10480960248E+04  0.25500000000E-02 0.  1.
    8880023    1    1    2    0    0  0.18796131211E+03 -0.14093037891E+04  0.23590721725E+04  0.28320484364E+04  0.65864270000E+03 0.  0.
    8880022    1    1    2    0    0 -0.18796131211E+03  0.14093037891E+04 -0.18172913745E+03  0.14414866483E+04  0.15294330000E+03 0.  0.
<mgrwt>
<rscale>  0 0.15315126E+04</rscale>
<asrwt>0</asrwt>
<pdfrwt beam="1">  1        2 0.49622139E+00 0.15669323E+04</pdfrwt>
<pdfrwt beam="2">  1       -2 0.16124554E+00 0.15669323E+04</pdfrwt>
<totfact> 0.28956748E-01</totfact>
</mgrwt>
</event>
<event>
 4    5  0.2409888E-007  0.7584905E+03  0.7818608E-02  0.9809031E-01
          2   -1    0    0  501    0  0.00000000000E+00  0.00000000000E+00  0.72061711800E+03  0.72061711800E+03  0.25500000000E-02 0. -1.
         -2   -1    0    0    0  501 -0.00000000000E+00 -0.00000000000E+00 -0.12884800678E+04  0.12884800678E+04  0.25500000000E-02 0.  1.
    8880023    1    1    2    0    0 -0.41479487136E+02  0.37386778671E+03  0.47159038538E+03  0.89314353138E+03  0.65864270000E+03 0. -1.
    8880022    1    1    2    0    0  0.41479487136E+02 -0.37386778671E+03 -0.10394533352E+04  0.11159536544E+04  0.15294330000E+03 0.  0.
<mgrwt>
<rscale>  0 0.64880126E+03</rscale>
<asrwt>0</asrwt>
<pdfrwt beam="1">  1        2 0.11086417E+00 0.75849052E+03</pdfrwt>
<pdfrwt beam="2">  1       -2 0.19822770E+00 0.75849052E+03</pdfrwt>
<totfact> 0.55011981E+00</totfact>
</mgrwt>
</event>
<event>
 4    5  0.2409888E-007  0.1280674E+04  0.7818608E-02  0.9082431E-01
         -2   -1    0    0    0  501 -0.00000000000E+00  0.00000000000E+00  0.11354604935E+04  0.11354604935E+04  0.25500000000E-02 0.  1.
          2   -1    0    0  501    0  0.00000000000E+00 -0.00000000000E+00 -0.19747963544E+04  0.19747963544E+04  0.25500000000E-02 0. -1.
    8880023    1    1    2    0    0  0.80542940338E+03 -0.74672619152E+03 -0.13747482176E+04  0.18788452297E+04  0.65864270000E+03 0.  0.
    8880022    1    1    2    0    0 -0.80542940338E+03  0.74672619152E+03  0.53541235669E+03  0.12314116183E+04  0.15294330000E+03 0.  1.
<mgrwt>
<rscale>  0 0.12353906E+04</rscale>
<asrwt>0</asrwt>
<pdfrwt beam="1">  1        2 0.30381482E+00 0.12806743E+04</pdfrwt>
<pdfrwt beam="2">  1       -2 0.17468623E+00 0.12806743E+04</pdfrwt>
<totfact> 0.13120110E+00</totfact>
</mgrwt>
</event>
<event>
 4    5  0.2409888E-007  0.1048932E+04  0.7818608E-02  0.9320167E-01
          2   -1    0    0  501    0  0.00000000000E+00  0.00000000000E+00  0.30306567707E+04  0.30306567707E+04  0.25500000000E-02 0. -1.
         -2   -1    0    0    0  501 -0.00000000000E+00 -0.00000000000E+00 -0.36894027223E+03  0.36894027224E+03  0.25500000000E-02 0.  1.
    8880023    1    1    2    0    0 -0.48661743006E+03 -0.65547755121E+03  0.22280896948E+04  0.24626492315E+04  0.65864270000E+03 0.  0.
    8880022    1    1    2    0    0  0.48661743006E+03  0.65547755121E+03  0.43362680368E+03  0.93694781139E+03  0.15294330000E+03 0.  0.
<mgrwt>
<rscale>  0 0.98947278E+03</rscale>
<asrwt>0</asrwt>
<pdfrwt beam="1">  1        2 0.46625488E+00 0.10489316E+04</pdfrwt>
<pdfrwt beam="2">  1       -2 0.56760043E-01 0.10489316E+04</pdfrwt>
<totfact> 0.49291351E+00</totfact>
</mgrwt>
</event>
<event>
 4    5  0.2409888E-007  0.8161968E+03  0.7818608E-02  0.9676811E-01
          2   -1    0    0  501    0  0.00000000000E+00  0.00000000000E+00  0.11986855029E+04  0.11986855029E+04  0.25500000000E-02 0. -1.
         -2   -1    0    0    0  501 -0.00000000000E+00 -0.00000000000E+00 -0.57937125336E+03  0.57937125337E+03  0.25500000000E-02 0.  1.
    8880023    1    1    2    0    0  0.17728791729E+03  0.44825892476E+03  0.88739301157E+03  0.12056714447E+04  0.65864270000E+03 0. -1.
    8880022    1    1    2    0    0 -0.17728791729E+03 -0.44825892476E+03 -0.26807876205E+03  0.57238531159E+03  0.15294330000E+03 0.  0.
<mgrwt>
<rscale>  0 0.72414408E+03</rscale>
<asrwt>0</asrwt>
<pdfrwt beam="1">  1        2 0.18441315E+00 0.81619684E+03</pdfrwt>
<pdfrwt beam="2">  1       -2 0.89134040E-01 0.81619684E+03</pdfrwt>
<totfact> 0.20749793E+01</totfact>
</mgrwt>
</event>
<event>
 4    5  0.2409888E-007  0.8464286E+03  0.7818608E-02  0.9618176E-01
         -2   -1    0    0    0  501 -0.00000000000E+00  0.00000000000E+00  0.11251531078E+04  0.11251531078E+04  0.25500000000E-02 0.  1.
          2   -1    0    0  501    0  0.00000000000E+00 -0.00000000000E+00 -0.22726702929E+04  0.22726702929E+04  0.25500000000E-02 0. -1.
    8880023    1    1    2    0    0  0.36619156907E+03  0.38540226186E+03 -0.21179318733E+04  0.22808061722E+04  0.65864270000E+03 0.  0.
    8880022    1    1    2    0    0 -0.36619156907E+03 -0.38540226186E+03  0.97041468822E+03  0.11170172285E+04  0.15294330000E+03 0.  0.
<mgrwt>
<rscale>  0 0.76104787E+03</rscale>
<asrwt>0</asrwt>
<pdfrwt beam="1">  1        2 0.34964158E+00 0.84642860E+03</pdfrwt>
<pdfrwt beam="2">  1       -2 0.17310048E+00 0.84642860E+03</pdfrwt>
<totfact> 0.97858548E-01</totfact>
</mgrwt>
</event>
<event>
 4    5  0.2409888E-007  0.1881972E+04  0.7818608E-02  0.8678498E-01
         -2   -1    0    0    0  501 -0.00000000000E+00  0.00000000000E+00  0.13168305096E+04  0.13168305096E+04  0.25500000000E-02 0.  1.
          2   -1    0    0  501    0  0.00000000000E+00 -0.00000000000E+00 -0.30982857158E+04  0.30982857158E+04  0.25500000000E-02 0. -1.
    8880023    1    1    2    0    0  0.35722557912E+03  0.17263833196E+04 -0.18570218184E+04  0.26439269508E+04  0.65864270000E+03 0.  0.
    8880022    1    1    2    0    0 -0.35722557912E+03 -0.17263833196E+04  0.75566612283E+02  0.17711892746E+04  0.15294330000E+03 0.  0.
<mgrwt>
<rscale>  0 0.18532212E+04</rscale>
<asrwt>0</asrwt>
<pdfrwt beam="1">  1        2 0.47665934E+00 0.18819723E+04</pdfrwt>
<pdfrwt beam="2">  1       -2 0.20258931E+00 0.18819723E+04</pdfrwt>
<totfact> 0.17435909E-01</totfact>
</mgrwt>
</event>
<event>
 4    5  0.2409888E-007  0.8585301E+03  0.7818608E-02  0.9596183E-01
         -2   -1    0    0    0  501 -0.00000000000E+00  0.00000000000E+00  0.20159868652E+04  0.20159868652E+04  0.25500000000E-02 0.  1.
          2   -1    0    0  501    0  0.00000000000E+00 -0.00000000000E+00 -0.10474977695E+04  0.10474977695E+04  0.25500000000E-02 0. -1.
    8880023    1    1    2    0    0 -0.54249894616E+03  0.94650090269E+02 -0.81919708106E+03  0.11866582533E+04  0.65864270000E+03 0.  0.
    8880022    1    1    2    0    0  0.54249894616E+03 -0.94650090269E+02  0.17876861768E+04  0.18768263814E+04  0.15294330000E+03 0.  0.
<mgrwt>
<rscale>  0 0.77549299E+03</rscale>
<asrwt>0</asrwt>
<pdfrwt beam="1">  1        2 0.16115350E+00 0.85853011E+03</pdfrwt>
<pdfrwt beam="2">  1       -2 0.31015183E+00 0.85853011E+03</pdfrwt>
<totfact> 0.66534815E-01</totfact>
</mgrwt>
</event>
<event>
 4    5  0.2409888E-007  0.1463925E+04  0.7818608E-02  0.8935539E-01
          2   -1    0    0  501    0  0.00000000000E+00  0.00000000000E+00  0.27198707257E+04  0.27198707257E+04  0.25500000000E-02 0. -1.
         -2   -1    0    0    0  501 -0.00000000000E+00 -0.00000000000E+00 -0.72556727776E+03  0.72556727776E+03  0.25500000000E-02 0.  1.
    8880023    1    1    2    0    0  0.22402224828E+03  0.12880527326E+04  0.12970546548E+04  0.19558698304E+04  0.65864270000E+03 0.  0.
    8880022    1    1    2    0    0 -0.22402224828E+03 -0.12880527326E+04  0.69724879314E+03  0.14895681731E+04  0.15294330000E+03 0.  0.
<mgrwt>
<rscale>  0 0.14255360E+04</rscale>
<asrwt>0</asrwt>
<pdfrwt beam="1">  1        2 0.41844164E+00 0.14639249E+04</pdfrwt>
<pdfrwt beam="2">  1       -2 0.11162574E+00 0.14639249E+04</pdfrwt>
<totfact> 0.15658693E+00</totfact>
</mgrwt>
</event>
<event>
 4    5  0.2409888E-007  0.1123256E+04  0.7818608E-02  0.9235594E-01
          2   -1    0    0  501    0  0.00000000000E+00  0.00000000000E+00  0.67832289778E+03  0.67832289779E+03  0.25500000000E-02 0. -1.
         -2   -1    0    0    0  501 -0.00000000000E+00 -0.00000000000E+00 -0.17714790580E+04  0.17714790580E+04  0.25500000000E-02 0.  1.
    8880023    1    1    2    0    0 -0.85143193164E+03  0.32087158098E+03 -0.15488569936E+03  0.11338847789E+04  0.65864270000E+03 0.  0.
    8880022    1    1    2    0    0  0.85143193164E+03 -0.32087158098E+03 -0.93827046085E+03  0.13159171769E+04  0.15294330000E+03 0.  0.
<mgrwt>
<rscale>  0 0.10693470E+04</rscale>
<asrwt>0</asrwt>
<pdfrwt beam="1">  1        2 0.10435737E+00 0.11232565E+04</pdfrwt>
<pdfrwt beam="2">  1       -2 0.27253524E+00 0.11232565E+04</pdfrwt>
<totfact> 0.19695381E+00</totfact>
</mgrwt>
</event>
<event>
 4    5  0.2409888E-007  0.9279104E+03  0.7818608E-02  0.9482635E-01
         -2   -1    0    0    0  501 -0.00000000000E+00  0.00000000000E+00  0.77742378832E+03  0.77742378832E+03  0.25500000000E-02 0.  1.
          2   -1    0    0  501    0  0.00000000000E+00 -0.00000000000E+00 -0.12660887377E+04  0.12660887377E+04  0.25500000000E-02 0. -1.
    8880023    1    1    2    0    0  0.61843872391E+03  0.21152079833E+03 -0.86959081752E+03  0.12716941061E+04  0.65864270000E+03 0.  0.
    8880022    1    1    2    0    0 -0.61843872391E+03 -0.21152079833E+03  0.38092586810E+03  0.77181841994E+03  0.15294330000E+03 0.  0.
<mgrwt>
<rscale>  0 0.85576265E+03</rscale>
<asrwt>0</asrwt>
<pdfrwt beam="1">  1        2 0.19478288E+00 0.92791040E+03</pdfrwt>
<pdfrwt beam="2">  1       -2 0.11960366E+00 0.92791040E+03</pdfrwt>
<totfact> 0.92657647E+00</totfact>
</mgrwt>
</event>
<event>
 4    5  0.2409888E-007  0.1117230E+04  0.7818608E-02  0.9242111E-01
         -2   -1    0    0    0  501 -0.00000000000E+00  0.00000000000E+00  0.50877335417E+03  0.50877335417E+03  0.25500000000E-02 0.  1.
          2   -1    0    0  501    0  0.00000000000E+00 -0.00000000000E+00 -0.35779242254E+04  0.35779242254E+04  0.25500000000E-02 0. -1.
    8880023    1    1    2    0    0  0.47766108764E+03 -0.76565782442E+03 -0.29613204704E+04  0.31650625829E+04  0.65864270000E+03 0.  0.
    8880022    1    1    2    0    0 -0.47766108764E+03  0.76565782442E+03 -0.10783040078E+03  0.92163499667E+03  0.15294330000E+03 0.  0.
<mgrwt>
<rscale>  0 0.10629145E+04</rscale>
<asrwt>0</asrwt>
<pdfrwt beam="1">  1        2 0.55044987E+00 0.11172297E+04</pdfrwt>
<pdfrwt beam="2">  1       -2 0.78272826E-01 0.11172297E+04</pdfrwt>
<totfact> 0.10582644E+00</totfact>
</mgrwt>
</event>
<event>
 4    5  0.2409888E-007  0.1027533E+04  0.7818608E-02  0.9346391E-01
         -2   -1    0    0    0  501 -0.00000000000E+00  0.00000000000E+00  0.11989867439E+04  0.11989867439E+04  0.25500000000E-02 0.  1.
          2   -1    0    0  501    0  0.00000000000E+00 -0.00000000000E+00 -0.28266127710E+04  0.28266127710E+04  0.25500000000E-02 0. -1.
    8880023    1    1    2    0    0  0.77836677569E+03 -0.12711435449E+03 -0.25815048723E+04  0.27784870898E+04  0.65864270000E+03 0.  0.
    8880022    1    1    2    0    0 -0.77836677569E+03  0.12711435449E+03  0.95387884519E+03  0.12471124251E+04  0.15294330000E+03 0.  0.
<mgrwt>
<rscale>  0 0.96621926E+03</rscale>
<asrwt>0</asrwt>
<pdfrwt beam="1">  1        2 0.43486350E+00 0.10275325E+04</pdfrwt>
<pdfrwt beam="2">  1       -2 0.18445950E+00 0.10275325E+04</pdfrwt>
<totfact> 0.37943327E-01</totfact>
</mgrwt>
</event>
<event>
 4    5  0.2409888E-007  0.1082690E+04  0.7818608E-02  0.9280578E-01
         -2   -1    0    0    0  501 -0.00000000000E+00  0.00000000000E+00  0.14762677664E+04  0.14762677664E+04  0.25500000000E-02 0.  1.
          2   -1    0    0  501    0  0.00000000000E+00 -0.00000000000E+00 -0.99579072564E+03  0.99579072565E+03  0.25500000000E-02 0. -1.
    8880023    1    1    2    0    0  0.85192459965E+03 -0.11239139350E+03 -0.47116790698E+03  0.11807695591E+04  0.65864270000E+03 0.  0.
    8880022    1    1    2    0    0 -0.85192459965E+03  0.11239139350E+03  0.95164494772E+03  0.12912889329E+04  0.15294330000E+03 0.  0.
<mgrwt>
<rscale>  0 0.10259073E+04</rscale>
<asrwt>0</asrwt>
<pdfrwt beam="1">  1        2 0.15319857E+00 0.10826900E+04</pdfrwt>
<pdfrwt beam="2">  1       -2 0.22711812E+00 0.10826900E+04</pdfrwt>
<totfact> 0.22252339E+00</totfact>
</mgrwt>
</event>
<event>
 4    5  0.2409888E-007  0.9507000E+03  0.7818608E-02  0.9449108E-01
          2   -1    0    0  501    0  0.00000000000E+00  0.00000000000E+00  0.44893667808E+03  0.44893667809E+03  0.25500000000E-02 0. -1.
         -2   -1    0    0    0  501 -0.00000000000E+00 -0.00000000000E+00 -0.24872472662E+04  0.24872472662E+04  0.25500000000E-02 0.  1.
    8880023    1    1    2    0    0 -0.44320011954E+03 -0.52306207598E+03 -0.20450194021E+03  0.97244615846E+03  0.65864270000E+03 0.  0.
    8880022    1    1    2    0    0  0.44320011954E+03  0.52306207598E+03 -0.18338086479E+04  0.19637377858E+04  0.15294330000E+03 0.  0.
<mgrwt>
<rscale>  0 0.88142188E+03</rscale>
<asrwt>0</asrwt>
<pdfrwt beam="1">  1        2 0.69067183E-01 0.95070000E+03</pdfrwt>
<pdfrwt beam="2">  1       -2 0.38265342E+00 0.95070000E+03</pdfrwt>
<totfact> 0.68891100E-01</totfact>
</mgrwt>
</event>
<event>
 4    5  0.2409888E-007  0.8299745E+03  0.7818608E-02  0.9649382E-01
         -2   -1    0    0    0  501 -0.00000000000E+00  0.00000000000E+00  0.93729651985E+03  0.93729651985E+03  0.25500000000E-02 0.  1.
          2   -1    0    0  501    0  0.00000000000E+00 -0.00000000000E+00 -0.10491764455E+04  0.10491764455E+04  0.25500000000E-02 0. -1.
    8880023    1    1    2    0    0 -0.49827367567E+03 -0.82284614533E+02 -0.77736793137E+03  0.11371712803E+04  0.65864270000E+03 0. -1.
    8880022    1    1    2    0    0  0.49827367567E+03  0.82284614533E+02  0.66548800568E+03  0.84930168513E+03  0.15294330000E+03 0.  0.
<mgrwt>
<rscale>  0 0.74112220E+03</rscale>
<asrwt>0</asrwt>
<pdfrwt beam="1">  1        2 0.16141176E+00 0.82997447E+03</pdfrwt>
<pdfrwt beam="2">  1       -2 0.14419946E+00 0.82997447E+03</pdfrwt>
<totfact> 0.78619754E+00</totfact>
</mgrwt>
</event>
<event>
 4    5  0.2409888E-007  0.7584513E+03  0.7818608E-02  0.9809133E-01
         -2   -1    0    0    0  501 -0.00000000000E+00  0.00000000000E+00  0.38107620739E+03  0.38107620740E+03  0.25500000000E-02 0.  1.
          2   -1    0    0  501    0  0.00000000000E+00 -0.00000000000E+00 -0.11233294762E+04  0.11233294762E+04  0.25500000000E-02 0. -1.
    8880023    1    1    2    0    0  0.37276753491E+03 -0.49825408067E+02 -0.79055735054E+03  0.10955497876E+04  0.65864270000E+03 0. -1.
    8880022    1    1    2    0    0 -0.37276753491E+03  0.49825408067E+02  0.48304081724E+02  0.40885589601E+03  0.15294330000E+03 0.  1.
<mgrwt>
<rscale>  0 0.64874686E+03</rscale>
<asrwt>0</asrwt>
<pdfrwt beam="1">  1        2 0.17281992E+00 0.75845133E+03</pdfrwt>
<pdfrwt beam="2">  1       -2 0.58627110E-01 0.75845133E+03</pdfrwt>
<totfact> 0.58223719E+01</totfact>
</mgrwt>
</event>
<event>
 4    5  0.2409888E-007  0.7836046E+03  0.7818608E-02  0.9747437E-01
         -2   -1    0    0    0  501 -0.00000000000E+00  0.00000000000E+00  0.79251228279E+02  0.79251228320E+02  0.25500000000E-02 0.  1.
          2   -1    0    0  501    0  0.00000000000E+00 -0.00000000000E+00 -0.57855635555E+04  0.57855635555E+04  0.25500000000E-02 0. -1.
    8880023    1    1    2    0    0 -0.12287641327E+03 -0.40635861736E+03 -0.23243967659E+04  0.24529281421E+04  0.65864270000E+03 0.  1.
    8880022    1    1    2    0    0  0.12287641327E+03  0.40635861736E+03 -0.33819155614E+04  0.34118866417E+04  0.15294330000E+03 0.  0.
<mgrwt>
<rscale>  0 0.68261313E+03</rscale>
<asrwt>0</asrwt>
<pdfrwt beam="1">  1        2 0.89008637E+00 0.78360458E+03</pdfrwt>
<pdfrwt beam="2">  1       -2 0.12192501E-01 0.78360458E+03</pdfrwt>
<totfact> 0.91189185E-02</totfact>
</mgrwt>
</event>
<event>
 4    5  0.2409888E-007  0.1097447E+04  0.7818608E-02  0.9263903E-01
          2   -1    0    0  501    0  0.00000000000E+00  0.00000000000E+00  0.16883132454E+04  0.16883132454E+04  0.25500000000E-02 0. -1.
         -2   -1    0    0    0  501 -0.00000000000E+00 -0.00000000000E+00 -0.16384555964E+04  0.16384555965E+04  0.25500000000E-02 0.  1.
    8880023    1    1    2    0    0 -0.31752340235E+03 -0.81838828322E+03  0.13567360826E+04  0.17450282225E+04  0.65864270000E+03 0. -1.
    8880022    1    1    2    0    0  0.31752340235E+03  0.81838828322E+03 -0.13068784337E+04  0.15817406193E+04  0.15294330000E+03 0.  0.
<mgrwt>
<rscale>  0 0.10417498E+04</rscale>
<asrwt>0</asrwt>
<pdfrwt beam="1">  1        2 0.25974050E+00 0.10974474E+04</pdfrwt>
<pdfrwt beam="2">  1       -2 0.25207009E+00 0.10974474E+04</pdfrwt>
<totfact> 0.61225524E-01</totfact>
</mgrwt>
</event>
<event>
 4    5  0.2409888E-007  0.8612286E+03  0.7818608E-02  0.9591382E-01
          2   -1    0    0  501    0  0.00000000000E+00  0.00000000000E+00  0.15495652986E+04  0.15495652986E+04  0.25500000000E-02 0. -1.
         -2   -1    0    0    0  501 -0.00000000000E+00 -0.00000000000E+00 -0.50359133632E+03  0.50359133633E+03  0.25500000000E-02 0.  1.
    8880023    1    1    2    0    0  0.55455536971E+03  0.19309430585E+02  0.11812688796E+04  0.14618860709E+04  0.65864270000E+03 0.  0.
    8880022    1    1    2    0    0 -0.55455536971E+03 -0.19309430585E+02 -0.13529491732E+03  0.59127056400E+03  0.15294330000E+03 0.  0.
<mgrwt>
<rscale>  0 0.77869231E+03</rscale>
<asrwt>0</asrwt>
<pdfrwt beam="1">  1        2 0.23839466E+00 0.86122861E+03</pdfrwt>
<pdfrwt beam="2">  1       -2 0.77475591E-01 0.86122861E+03</pdfrwt>
<totfact> 0.17887417E+01</totfact>
</mgrwt>
</event>
<event>
 4    5  0.2409888E-007  0.1268495E+04  0.7818608E-02  0.9093255E-01
         -2   -1    0    0    0  501 -0.00000000000E+00  0.00000000000E+00  0.42198687896E+03  0.42198687896E+03  0.25500000000E-02 0.  1.
          2   -1    0    0  501    0  0.00000000000E+00 -0.00000000000E+00 -0.40050899393E+04  0.40050899393E+04  0.25500000000E-02 0. -1.
    8880023    1    1    2    0    0  0.10171126418E+04 -0.37516988731E+03 -0.97952789463E+03  0.16026714177E+04  0.65864270000E+03 0.  0.
    8880022    1    1    2    0    0 -0.10171126418E+04  0.37516988731E+03 -0.26035751657E+04  0.28244054006E+04  0.15294330000E+03 0.  0.
<mgrwt>
<rscale>  0 0.12226546E+04</rscale>
<asrwt>0</asrwt>
<pdfrwt beam="1">  1        2 0.61616766E+00 0.12684955E+04</pdfrwt>
<pdfrwt beam="2">  1       -2 0.64921061E-01 0.12684955E+04</pdfrwt>
<totfact> 0.74816169E-01</totfact>
</mgrwt>
</event>
<event>
 4    5  0.2409888E-007  0.8007788E+03  0.7818608E-02  0.9709115E-01
         -2   -1    0    0    0  501 -0.00000000000E+00  0.00000000000E+00  0.55256845073E+03  0.55256845073E+03  0.25500000000E-02 0.  1.
          2   -1    0    0  501    0  0.00000000000E+00 -0.00000000000E+00 -0.26167595050E+04  0.26167595050E+04  0.25500000000E-02 0. -1.
    8880023    1    1    2    0    0  0.45527789387E+03  0.12590883781E+02 -0.24344457270E+04  0.25627666095E+04  0.65864270000E+03 0. -1.
    8880022    1    1    2    0    0 -0.45527789387E+03 -0.12590883781E+02  0.37025467273E+03  0.60656134619E+03  0.15294330000E+03 0.  0.
<mgrwt>
<rscale>  0 0.70476694E+03</rscale>
<asrwt>0</asrwt>
<pdfrwt beam="1">  1        2 0.40257838E+00 0.80077881E+03</pdfrwt>
<pdfrwt beam="2">  1       -2 0.85010532E-01 0.80077881E+03</pdfrwt>
<totfact> 0.37415723E+00</totfact>
</mgrwt>
</event>
<event>
 4    5  0.2409888E-007  0.1295757E+04  0.7818608E-02  0.9069232E-01
          2   -1    0    0  501    0  0.00000000000E+00  0.00000000000E+00  0.94463767947E+03  0.94463767948E+03  0.25500000000E-02 0. -1.
         -2   -1    0    0    0  501 -0.00000000000E+00 -0.00000000000E+00 -0.23414842715E+04  0.23414842715E+04  0.25500000000E-02 0.  1.
    8880023    1    1    2    0    0  0.10607084612E+04  0.34651763827E+03 -0.16830084143E+04  0.21240302357E+04  0.65864270000E+03 0.  0.
    8880022    1    1    2    0    0 -0.10607084612E+04 -0.34651763827E+03  0.28616182219E+03  0.11620917153E+04  0.15294330000E+03 0.  0.
<mgrwt>
<rscale>  0 0.12511432E+04</rscale>
<asrwt>0</asrwt>
<pdfrwt beam="1">  1        2 0.14532887E+00 0.12957574E+04</pdfrwt>
<pdfrwt beam="2">  1       -2 0.36022835E+00 0.12957574E+04</pdfrwt>
<totfact> 0.35674198E-01</totfact>
</mgrwt>
</event>
<event>
 4    5  0.2409888E-007  0.7527825E+03  0.7818608E-02  0.9824164E-01
          2   -1    0    0  501    0  0.00000000000E+00  0.00000000000E+00  0.67274332173E+03  0.67274332174E+03  0.25500000000E-02 0. -1.
         -2   -1    0    0    0  501 -0.00000000000E+00 -0.00000000000E+00 -0.40955532675E+04  0.40955532675E+04  0.25500000000E-02 0.  1.
    8880023    1    1    2    0    0  0.10357561103E+03  0.34949018606E+03  0.44889524249E+03  0.87646360012E+03  0.65864270000E+03 0. -1.
    8880022    1    1    2    0    0 -0.10357561103E+03 -0.34949018606E+03 -0.38717051882E+04  0.38918329891E+04  0.15294330000E+03 0.  0.
<mgrwt>
<rscale>  0 0.64081717E+03</rscale>
<asrwt>0</asrwt>
<pdfrwt beam="1">  1        2 0.10349898E+00 0.75278251E+03</pdfrwt>
<pdfrwt beam="2">  1       -2 0.63008510E+00 0.75278251E+03</pdfrwt>
<totfact> 0.17368117E-02</totfact>
</mgrwt>
</event>
<event>
 4    5  0.2409888E-007  0.7838379E+03  0.7818608E-02  0.9746898E-01
         -2   -1    0    0    0  501 -0.00000000000E+00  0.00000000000E+00  0.78558863218E+03  0.78558863219E+03  0.25500000000E-02 0.  1.
          2   -1    0    0  501    0  0.00000000000E+00 -0.00000000000E+00 -0.49829292905E+03  0.49829292905E+03  0.25500000000E-02 0. -1.
    8880023    1    1    2    0    0 -0.35978790123E+03 -0.22615118142E+03  0.83130843588E+02  0.78823387021E+03  0.65864270000E+03 0.  1.
    8880022    1    1    2    0    0  0.35978790123E+03  0.22615118142E+03  0.20416485955E+03  0.49564769103E+03  0.15294330000E+03 0.  0.
<mgrwt>
<rscale>  0 0.68291876E+03</rscale>
<asrwt>0</asrwt>
<pdfrwt beam="1">  1        2 0.76660451E-01 0.78383793E+03</pdfrwt>
<pdfrwt beam="2">  1       -2 0.12085979E+00 0.78383793E+03</pdfrwt>
<totfact> 0.32562306E+01</totfact>
</mgrwt>
</event>
<event>
 4    5  0.2409888E-007  0.6786445E+03  0.7818608E-02  0.1010101E+00
          2   -1    0    0  501    0  0.00000000000E+00  0.00000000000E+00  0.15170228093E+04  0.15170228093E+04  0.25500000000E-02 0. -1.
         -2   -1    0    0    0  501 -0.00000000000E+00 -0.00000000000E+00 -0.32422067180E+03  0.32422067181E+03  0.25500000000E-02 0.  1.
    8880023    1    1    2    0    0  0.64793674180E+02  0.15016647627E+03  0.13874615826E+04  0.15445413689E+04  0.65864270000E+03 0. -1.
    8880022    1    1    2    0    0 -0.64793674180E+02 -0.15016647627E+03 -0.19465944510E+03  0.29670211221E+03  0.15294330000E+03 0.  0.
<mgrwt>
<rscale>  0 0.51434514E+03</rscale>
<asrwt>0</asrwt>
<pdfrwt beam="1">  1        2 0.23338812E+00 0.67864453E+03</pdfrwt>
<pdfrwt beam="2">  1       -2 0.49880104E-01 0.67864453E+03</pdfrwt>
<totfact> 0.48644332E+01</totfact>
</mgrwt>
</event>
<event>
 4    5  0.2409888E-007  0.7904568E+03  0.7818608E-02  0.9731823E-01
         -2   -1    0    0    0  501 -0.00000000000E+00  0.00000000000E+00  0.31291039069E+03  0.31291039070E+03  0.25500000000E-02 0.  1.
          2   -1    0    0  501    0  0.00000000000E+00 -0.00000000000E+00 -0.16410151841E+04  0.16410151841E+04  0.25500000000E-02 0. -1.
    8880023    1    1    2    0    0  0.89595995616E+02  0.42776663397E+03 -0.12578336635E+04  0.14855865733E+04  0.65864270000E+03 0.  0.
    8880022    1    1    2    0    0 -0.89595995616E+02 -0.42776663397E+03 -0.70271129897E+02  0.46833900145E+03  0.15294330000E+03 0.  0.
<mgrwt>
<rscale>  0 0.69153244E+03</rscale>
<asrwt>0</asrwt>
<pdfrwt beam="1">  1        2 0.25246387E+00 0.79045679E+03</pdfrwt>
<pdfrwt beam="2">  1       -2 0.48140061E-01 0.79045679E+03</pdfrwt>
<totfact> 0.44102357E+01</totfact>
</mgrwt>
</event>
<event>
 4    5  0.2409888E-007  0.7424852E+03  0.7818608E-02  0.9852766E-01
          2   -1    0    0  501    0  0.00000000000E+00  0.00000000000E+00  0.61441585956E+03  0.61441585956E+03  0.25500000000E-02 0. -1.
         -2   -1    0    0    0  501 -0.00000000000E+00 -0.00000000000E+00 -0.54852290779E+03  0.54852290780E+03  0.25500000000E-02 0.  1.
    8880023    1    1    2    0    0  0.89253318508E+01  0.34262872628E+03 -0.10620463086E+03  0.75004248913E+03  0.65864270000E+03 0.  0.
    8880022    1    1    2    0    0 -0.89253318508E+01 -0.34262872628E+03  0.17209758262E+03  0.41289627823E+03  0.15294330000E+03 0.  0.
<mgrwt>
<rscale>  0 0.62606084E+03</rscale>
<asrwt>0</asrwt>
<pdfrwt beam="1">  1        2 0.94525516E-01 0.74248523E+03</pdfrwt>
<pdfrwt beam="2">  1       -2 0.84388140E-01 0.74248523E+03</pdfrwt>
<totfact> 0.59772324E+01</totfact>
</mgrwt>
</event>
<event>
 4    5  0.2409888E-007  0.8826478E+03  0.7818608E-02  0.9554482E-01
         -2   -1    0    0    0  501 -0.00000000000E+00  0.00000000000E+00  0.13837356942E+04  0.13837356942E+04  0.25500000000E-02 0.  1.
          2   -1    0    0  501    0  0.00000000000E+00 -0.00000000000E+00 -0.60749458593E+03  0.60749458593E+03  0.25500000000E-02 0. -1.
    8880023    1    1    2    0    0  0.55544730406E+03  0.19166447911E+03 -0.13837364889E+03  0.89342848237E+03  0.65864270000E+03 0.  0.
    8880022    1    1    2    0    0 -0.55544730406E+03 -0.19166447911E+03  0.91461475715E+03  0.10978017978E+04  0.15294330000E+03 0.  0.
<mgrwt>
<rscale>  0 0.80383548E+03</rscale>
<asrwt>0</asrwt>
<pdfrwt beam="1">  1        2 0.93460706E-01 0.88264783E+03</pdfrwt>
<pdfrwt beam="2">  1       -2 0.21288241E+00 0.88264783E+03</pdfrwt>
<totfact> 0.53971295E+00</totfact>
</mgrwt>
</event>
<event>
 4    5  0.2409888E-007  0.6733727E+03  0.7818608E-02  0.1013352E+00
          2   -1    0    0  501    0  0.00000000000E+00  0.00000000000E+00  0.26981521026E+04  0.26981521026E+04  0.25500000000E-02 0. -1.
         -2   -1    0    0    0  501 -0.00000000000E+00 -0.00000000000E+00 -0.10453609501E+04  0.10453609501E+04  0.25500000000E-02 0.  1.
    8880023    1    1    2    0    0 -0.11866709069E+03 -0.74422071138E+02  0.26452524960E+04  0.27296138000E+04  0.65864270000E+03 0. -1.
    8880022    1    1    2    0    0  0.11866709069E+03  0.74422071138E+02 -0.99246134359E+03  0.10138992527E+04  0.15294330000E+03 0.  0.
<mgrwt>
<rscale>  0 0.50163812E+03</rscale>
<asrwt>0</asrwt>
<pdfrwt beam="1">  1        2 0.41510032E+00 0.67337265E+03</pdfrwt>
<pdfrwt beam="2">  1       -2 0.16082476E+00 0.67337265E+03</pdfrwt>
<totfact> 0.71389633E-01</totfact>
</mgrwt>
</event>
<event>
 4    5  0.2409888E-007  0.1035379E+04  0.7818608E-02  0.9336668E-01
          2   -1    0    0  501    0  0.00000000000E+00  0.00000000000E+00  0.10224514472E+04  0.10224514472E+04  0.25500000000E-02 0. -1.
         -2   -1    0    0    0  501 -0.00000000000E+00 -0.00000000000E+00 -0.10149948032E+04  0.10149948032E+04  0.25500000000E-02 0.  1.
    8880023    1    1    2    0    0 -0.79627051433E+03 -0.64440585522E+02 -0.42149618568E+03  0.11178857553E+04  0.65864270000E+03 0.  0.
    8880022    1    1    2    0    0  0.79627051433E+03  0.64440585522E+02  0.42895282969E+03  0.91956049511E+03  0.15294330000E+03 0.  0.
<mgrwt>
<rscale>  0 0.97476110E+03</rscale>
<asrwt>0</asrwt>
<pdfrwt beam="1">  1        2 0.15730022E+00 0.10353789E+04</pdfrwt>
<pdfrwt beam="2">  1       -2 0.15615305E+00 0.10353789E+04</pdfrwt>
<totfact> 0.64774218E+00</totfact>
</mgrwt>
</event>
<event>
 4    5  0.2409888E-007  0.1024117E+04  0.7818608E-02  0.9350664E-01
          2   -1    0    0  501    0  0.00000000000E+00  0.00000000000E+00  0.37718312125E+04  0.37718312125E+04  0.25500000000E-02 0. -1.
         -2   -1    0    0    0  501 -0.00000000000E+00 -0.00000000000E+00 -0.25767131665E+03  0.25767131666E+03  0.25500000000E-02 0.  1.
    8880023    1    1    2    0    0  0.72672942542E+03  0.29473651229E+03  0.27048416633E+04  0.28922281894E+04  0.65864270000E+03 0.  0.
    8880022    1    1    2    0    0 -0.72672942542E+03 -0.29473651229E+03  0.80931823252E+03  0.11372743398E+04  0.15294330000E+03 0.  0.
<mgrwt>
<rscale>  0 0.96249505E+03</rscale>
<asrwt>0</asrwt>
<pdfrwt beam="1">  1        2 0.58028172E+00 0.10241169E+04</pdfrwt>
<pdfrwt beam="2">  1       -2 0.39641741E-01 0.10241169E+04</pdfrwt>
<totfact> 0.32357798E+00</totfact>
</mgrwt>
</event>
<event>
 4    5  0.2409888E-007  0.1252278E+04  0.7818608E-02  0.9107907E-01
          2   -1    0    0  501    0  0.00000000000E+00  0.00000000000E+00  0.37122891732E+04  0.37122891732E+04  0.25500000000E-02 0. -1.
         -2   -1    0    0    0  501 -0.00000000000E+00 -0.00000000000E+00 -0.69497342633E+03  0.69497342633E+03  0.25500000000E-02 0.  1.
    8880023    1    1    2    0    0 -0.51442255207E+01 -0.10650650081E+04  0.30846513388E+04  0.33291551515E+04  0.65864270000E+03 0. -1.
    8880022    1    1    2    0    0  0.51442255207E+01  0.10650650081E+04 -0.67335591897E+02  0.10781074481E+04  0.15294330000E+03 0.  0.
<mgrwt>
<rscale>  0 0.12056712E+04</rscale>
<asrwt>0</asrwt>
<pdfrwt beam="1">  1        2 0.57112141E+00 0.12522780E+04</pdfrwt>
<pdfrwt beam="2">  1       -2 0.10691899E+00 0.12522780E+04</pdfrwt>
<totfact> 0.40086544E-01</totfact>
</mgrwt>
</event>
<event>
 4    5  0.2409888E-007  0.7233185E+03  0.7818608E-02  0.9911513E-01
          2   -1    0    0  501    0  0.00000000000E+00  0.00000000000E+00  0.10254274588E+04  0.10254274588E+04  0.25500000000E-02 0. -1.
         -2   -1    0    0    0  501 -0.00000000000E+00 -0.00000000000E+00 -0.84790161661E+03  0.84790161661E+03  0.25500000000E-02 0.  1.
    8880023    1    1    2    0    0  0.28096074294E+03 -0.10217861229E+03  0.85335759118E+03  0.11186638425E+04  0.65864270000E+03 0. -1.
    8880022    1    1    2    0    0 -0.28096074294E+03  0.10217861229E+03 -0.67583174895E+03  0.75466523293E+03  0.15294330000E+03 0.  0.
<mgrwt>
<rscale>  0 0.59706536E+03</rscale>
<asrwt>0</asrwt>
<pdfrwt beam="1">  1        2 0.15775807E+00 0.72331847E+03</pdfrwt>
<pdfrwt beam="2">  1       -2 0.13044640E+00 0.72331847E+03</pdfrwt>
<totfact> 0.10664700E+01</totfact>
</mgrwt>
</event>
<event>
 4    5  0.2409888E-007  0.6779772E+03  0.7818608E-02  0.1010492E+00
          2   -1    0    0  501    0  0.00000000000E+00  0.00000000000E+00  0.16589157387E+04  0.16589157387E+04  0.25500000000E-02 0. -1.
         -2   -1    0    0    0  501 -0.00000000000E+00 -0.00000000000E+00 -0.31154279555E+03  0.31154279556E+03  0.25500000000E-02 0.  1.
    8880023    1    1    2    0    0 -0.14937086364E+03 -0.59423958773E+02  0.15361640159E+04  0.16791226733E+04  0.65864270000E+03 0. -1.
    8880022    1    1    2    0    0  0.14937086364E+03  0.59423958773E+02 -0.18879107272E+03  0.29133586105E+03  0.15294330000E+03 0.  0.
<mgrwt>
<rscale>  0 0.51279646E+03</rscale>
<asrwt>0</asrwt>
<pdfrwt beam="1">  1        2 0.25521780E+00 0.67797719E+03</pdfrwt>
<pdfrwt beam="2">  1       -2 0.47929662E-01 0.67797719E+03</pdfrwt>
<totfact> 0.44063596E+01</totfact>
</mgrwt>
</event>
<event>
 4    5  0.2409888E-007  0.1161564E+04  0.7818608E-02  0.9195422E-01
         -2   -1    0    0    0  501 -0.00000000000E+00  0.00000000000E+00  0.21663577669E+04  0.21663577669E+04  0.25500000000E-02 0.  1.
          2   -1    0    0  501    0  0.00000000000E+00 -0.00000000000E+00 -0.11408795438E+04  0.11408795438E+04  0.25500000000E-02 0. -1.
    8880023    1    1    2    0    0 -0.65966361926E+03 -0.69301104413E+03 -0.67983461819E+03  0.13458847321E+04  0.65864270000E+03 0. -1.
    8880022    1    1    2    0    0  0.65966361926E+03  0.69301104413E+03  0.17053128413E+04  0.19613525786E+04  0.15294330000E+03 0.  0.
<mgrwt>
<rscale>  0 0.11100810E+04</rscale>
<asrwt>0</asrwt>
<pdfrwt beam="1">  1        2 0.17551993E+00 0.11615639E+04</pdfrwt>
<pdfrwt beam="2">  1       -2 0.33328581E+00 0.11615639E+04</pdfrwt>
<totfact> 0.40120032E-01</totfact>
</mgrwt>
</event>
<event>
 4    5  0.2409888E-007  0.9781237E+03  0.7818608E-02  0.9410755E-01
          2   -1    0    0  501    0  0.00000000000E+00  0.00000000000E+00  0.24196132030E+04  0.24196132030E+04  0.25500000000E-02 0. -1.
         -2   -1    0    0    0  501 -0.00000000000E+00 -0.00000000000E+00 -0.42626682407E+03  0.42626682408E+03  0.25500000000E-02 0.  1.
    8880023    1    1    2    0    0  0.49672087671E+03 -0.52553221684E+03  0.18504638396E+04  0.20930700820E+04  0.65864270000E+03 0.  0.
    8880022    1    1    2    0    0 -0.49672087671E+03  0.52553221684E+03  0.14288253932E+03  0.75280994504E+03  0.15294330000E+03 0.  0.
<mgrwt>
<rscale>  0 0.91195827E+03</rscale>
<asrwt>0</asrwt>
<pdfrwt beam="1">  1        2 0.37224817E+00 0.97812369E+03</pdfrwt>
<pdfrwt beam="2">  1       -2 0.65579513E-01 0.97812369E+03</pdfrwt>
<totfact> 0.84019516E+00</totfact>
</mgrwt>
</event>
<event>
 4    5  0.2409888E-007  0.7031832E+03  0.7818608E-02  0.9984244E-01
         -2   -1    0    0    0  501 -0.00000000000E+00  0.00000000000E+00  0.71051194773E+03  0.71051194774E+03  0.25500000000E-02 0.  1.
          2   -1    0    0  501    0  0.00000000000E+00 -0.00000000000E+00 -0.12988884989E+04  0.12988884989E+04  0.25500000000E-02 0. -1.
    8880023    1    1    2    0    0 -0.21560982732E+03  0.11903270958E+03 -0.11668459909E+04  0.13623494986E+04  0.65864270000E+03 0. -1.
    8880022    1    1    2    0    0  0.21560982732E+03 -0.11903270958E+03  0.57846943976E+03  0.64705094802E+03  0.15294330000E+03 0.  0.
<mgrwt>
<rscale>  0 0.56346547E+03</rscale>
<asrwt>0</asrwt>
<pdfrwt beam="1">  1        2 0.19982900E+00 0.70318318E+03</pdfrwt>
<pdfrwt beam="2">  1       -2 0.10930953E+00 0.70318318E+03</pdfrwt>
<totfact> 0.11347848E+01</totfact>
</mgrwt>
</event>
<event>
 4    5  0.2409888E-007  0.7703269E+03  0.7818608E-02  0.9779070E-01
         -2   -1    0    0    0  501 -0.00000000000E+00  0.00000000000E+00  0.76608960039E+03  0.76608960040E+03  0.25500000000E-02 0.  1.
          2   -1    0    0  501    0  0.00000000000E+00 -0.00000000000E+00 -0.87979294452E+03  0.87979294453E+03  0.25500000000E-02 0. -1.
    8880023    1    1    2    0    0 -0.28526466866E+03 -0.27967362679E+03 -0.61584371830E+03  0.98623879479E+03  0.65864270000E+03 0. -1.
    8880022    1    1    2    0    0  0.28526466866E+03  0.27967362679E+03  0.50214037417E+03  0.65964375014E+03  0.15294330000E+03 0.  0.
<mgrwt>
<rscale>  0 0.66497941E+03</rscale>
<asrwt>0</asrwt>
<pdfrwt beam="1">  1        2 0.13535276E+00 0.77032686E+03</pdfrwt>
<pdfrwt beam="2">  1       -2 0.11785994E+00 0.77032686E+03</pdfrwt>
<totfact> 0.17028411E+01</totfact>
</mgrwt>
</event>
<event>
 4    5  0.2409888E-007  0.1329671E+04  0.7818608E-02  0.9040352E-01
          2   -1    0    0  501    0  0.00000000000E+00  0.00000000000E+00  0.57420796704E+03  0.57420796704E+03  0.25500000000E-02 0. -1.
         -2   -1    0    0    0  501 -0.00000000000E+00 -0.00000000000E+00 -0.28568658371E+04  0.28568658371E+04  0.25500000000E-02 0.  1.
    8880023    1    1    2    0    0  0.30043178624E+03  0.11153274292E+04 -0.82442554931E+03  0.15645134148E+04  0.65864270000E+03 0.  0.
    8880022    1    1    2    0    0 -0.30043178624E+03 -0.11153274292E+04 -0.14582323208E+04  0.18665603893E+04  0.15294330000E+03 0.  0.
<mgrwt>
<rscale>  0 0.12864854E+04</rscale>
<asrwt>0</asrwt>
<pdfrwt beam="1">  1        2 0.88339689E-01 0.13296709E+04</pdfrwt>
<pdfrwt beam="2">  1       -2 0.43951781E+00 0.13296709E+04</pdfrwt>
<totfact> 0.20803245E-01</totfact>
</mgrwt>
</event>
<event>
 4    5  0.2409888E-007  0.7526075E+03  0.7818608E-02  0.9824636E-01
          2   -1    0    0  501    0  0.00000000000E+00  0.00000000000E+00  0.80844778312E+03  0.80844778312E+03  0.25500000000E-02 0. -1.
         -2   -1    0    0    0  501 -0.00000000000E+00 -0.00000000000E+00 -0.51292649494E+03  0.51292649495E+03  0.25500000000E-02 0.  1.
    8880023    1    1    2    0    0  0.36322803254E+03 -0.25945533901E+02  0.47242799630E+03  0.88859787998E+03  0.65864270000E+03 0.  0.
    8880022    1    1    2    0    0 -0.36322803254E+03  0.25945533901E+02 -0.17690670812E+03  0.43277639809E+03  0.15294330000E+03 0.  0.
<mgrwt>
<rscale>  0 0.64057025E+03</rscale>
<asrwt>0</asrwt>
<pdfrwt beam="1">  1        2 0.12437658E+00 0.75260745E+03</pdfrwt>
<pdfrwt beam="2">  1       -2 0.78911769E-01 0.75260745E+03</pdfrwt>
<totfact> 0.49074598E+01</totfact>
</mgrwt>
</event>
<event>
 4    5  0.2409888E-007  0.6725349E+03  0.7818608E-02  0.1013907E+00
          2   -1    0    0  501    0  0.00000000000E+00  0.00000000000E+00  0.55016905169E+03  0.55016905169E+03  0.25500000000E-02 0. -1.
         -2   -1    0    0    0  501 -0.00000000000E+00 -0.00000000000E+00 -0.82942030842E+03  0.82942030842E+03  0.25500000000E-02 0.  1.
    8880023    1    1    2    0    0 -0.10692796678E+03 -0.84020508781E+02  0.32114053752E+03  0.74527477287E+03  0.65864270000E+03 0. -1.
    8880022    1    1    2    0    0  0.10692796678E+03  0.84020508781E+02 -0.60039179425E+03  0.63431458725E+03  0.15294330000E+03 0.  0.
<mgrwt>
<rscale>  0 0.49950869E+03</rscale>
<asrwt>0</asrwt>
<pdfrwt beam="1">  1        2 0.84641393E-01 0.67253494E+03</pdfrwt>
<pdfrwt beam="2">  1       -2 0.12760312E+00 0.67253494E+03</pdfrwt>
<totfact> 0.25546018E+01</totfact>
</mgrwt>
</event>
<event>
 4    5  0.2409888E-007  0.7363654E+03  0.7818608E-02  0.9870664E-01
         -2   -1    0    0    0  501 -0.00000000000E+00  0.00000000000E+00  0.83338478328E+03  0.83338478328E+03  0.25500000000E-02 0.  1.
          2   -1    0    0  501    0  0.00000000000E+00 -0.00000000000E+00 -0.14711139986E+04  0.14711139986E+04  0.25500000000E-02 0. -1.
    8880023    1    1    2    0    0 -0.22013967561E+03 -0.24487204344E+03 -0.13314526254E+04  0.15215124365E+04  0.65864270000E+03 0.  0.
    8880022    1    1    2    0    0  0.22013967561E+03  0.24487204344E+03  0.69372341005E+03  0.78298634542E+03  0.15294330000E+03 0.  0.
<mgrwt>
<rscale>  0 0.61704355E+03</rscale>
<asrwt>0</asrwt>
<pdfrwt beam="1">  1        2 0.22632523E+00 0.73636540E+03</pdfrwt>
<pdfrwt beam="2">  1       -2 0.12821304E+00 0.73636540E+03</pdfrwt>
<totfact> 0.60879082E+00</totfact>
</mgrwt>
</event>
<event>
 4    5  0.2409888E-007  0.7580280E+03  0.7818608E-02  0.9810240E-01
         -2   -1    0    0    0  501 -0.00000000000E+00  0.00000000000E+00  0.77241320970E+03  0.77241320971E+03  0.25500000000E-02 0.  1.
          2   -1    0    0  501    0  0.00000000000E+00 -0.00000000000E+00 -0.16773216355E+04  0.16773216355E+04  0.25500000000E-02 0. -1.
    8880023    1    1    2    0    0  0.37275796395E+02 -0.37337215768E+03 -0.15284522207E+04  0.17060986637E+04  0.65864270000E+03 0. -1.
    8880022    1    1    2    0    0 -0.37275796395E+02  0.37337215768E+03  0.62354379495E+03  0.74363618145E+03  0.15294330000E+03 0.  0.
<mgrwt>
<rscale>  0 0.64815904E+03</rscale>
<asrwt>0</asrwt>
<pdfrwt beam="1">  1        2 0.25804948E+00 0.75802801E+03</pdfrwt>
<pdfrwt beam="2">  1       -2 0.11883280E+00 0.75802801E+03</pdfrwt>
<totfact> 0.56438505E+00</totfact>
</mgrwt>
</event>
<event>
 4    5  0.2409888E-007  0.1129307E+04  0.7818608E-02  0.9229107E-01
          2   -1    0    0  501    0  0.00000000000E+00  0.00000000000E+00  0.12715814500E+04  0.12715814500E+04  0.25500000000E-02 0. -1.
         -2   -1    0    0    0  501 -0.00000000000E+00 -0.00000000000E+00 -0.17044615290E+04  0.17044615290E+04  0.25500000000E-02 0.  1.
    8880023    1    1    2    0    0  0.78035824577E+03 -0.48225053969E+03  0.83440477914E+03  0.14041246798E+04  0.65864270000E+03 0.  0.
    8880022    1    1    2    0    0 -0.78035824577E+03  0.48225053969E+03 -0.12672848581E+04  0.15719182992E+04  0.15294330000E+03 0.  0.
<mgrwt>
<rscale>  0 0.10757982E+04</rscale>
<asrwt>0</asrwt>
<pdfrwt beam="1">  1        2 0.19562792E+00 0.11293072E+04</pdfrwt>
<pdfrwt beam="2">  1       -2 0.26222485E+00 0.11293072E+04</pdfrwt>
<totfact> 0.91165737E-01</totfact>
</mgrwt>
</event>
<event>
 4    5  0.2409888E-007  0.1194865E+04  0.7818608E-02  0.9162131E-01
         -2   -1    0    0    0  501 -0.00000000000E+00  0.00000000000E+00  0.13148322894E+04  0.13148322894E+04  0.25500000000E-02 0.  1.
          2   -1    0    0  501    0  0.00000000000E+00 -0.00000000000E+00 -0.17953098114E+04  0.17953098114E+04  0.25500000000E-02 0. -1.
    8880023    1    1    2    0    0  0.19924899519E+03 -0.97682698104E+03 -0.13325467268E+04  0.17897994575E+04  0.65864270000E+03 0. -1.
    8880022    1    1    2    0    0 -0.19924899519E+03  0.97682698104E+03  0.85206920470E+03  0.13203426433E+04  0.15294330000E+03 0.  0.
<mgrwt>
<rscale>  0 0.11452999E+04</rscale>
<asrwt>0</asrwt>
<pdfrwt beam="1">  1        2 0.27620151E+00 0.11948646E+04</pdfrwt>
<pdfrwt beam="2">  1       -2 0.20228189E+00 0.11948646E+04</pdfrwt>
<totfact> 0.10831529E+00</totfact>
</mgrwt>
</event>
<event>
 4    5  0.2841714E-007  0.1069967E+04  0.7818608E-02  0.9295255E-01
          2   -1    0    0  501    0  0.00000000000E+00  0.00000000000E+00  0.19067455704E+04  0.19067455704E+04  0.25500000000E-02 0. -1.
         -2   -1    0    0    0  501 -0.00000000000E+00 -0.00000000000E+00 -0.15020164151E+04  0.15020164151E+04  0.25500000000E-02 0.  1.
    8880023    1    1    2    0    0 -0.95600870599E+01  0.84316522567E+03  0.16080377787E+04  0.19314799241E+04  0.65864270000E+03 0. -1.
    8880022    1    1    2    0    0  0.95600870599E+01 -0.84316522567E+03 -0.12033086234E+04  0.14772820615E+04  0.15294330000E+03 0.  0.
<mgrwt>
<rscale>  0 0.10122089E+04</rscale>
<asrwt>0</asrwt>
<pdfrwt beam="1">  1        2 0.29334547E+00 0.10699669E+04</pdfrwt>
<pdfrwt beam="2">  1       -2 0.23107945E+00 0.10699669E+04</pdfrwt>
<totfact> 0.62690641E-01</totfact>
</mgrwt>
</event>
<event>
 4    5  0.2409888E-007  0.1490689E+04  0.7818608E-02  0.8916239E-01
         -2   -1    0    0    0  501 -0.00000000000E+00  0.00000000000E+00  0.13092683603E+04  0.13092683603E+04  0.25500000000E-02 0.  1.
          2   -1    0    0  501    0  0.00000000000E+00 -0.00000000000E+00 -0.28624465760E+04  0.28624465760E+04  0.25500000000E-02 0. -1.
    8880023    1    1    2    0    0 -0.97098597879E+03  0.91952730245E+03 -0.22164927267E+04  0.26711410380E+04  0.65864270000E+03 0. -1.
    8880022    1    1    2    0    0  0.97098597879E+03 -0.91952730245E+03  0.66331451091E+03  0.15005738983E+04  0.15294330000E+03 0.  0.
<mgrwt>
<rscale>  0 0.14531224E+04</rscale>
<asrwt>0</asrwt>
<pdfrwt beam="1">  1        2 0.44037640E+00 0.14906892E+04</pdfrwt>
<pdfrwt beam="2">  1       -2 0.20142590E+00 0.14906892E+04</pdfrwt>
<totfact> 0.25991045E-01</totfact>
</mgrwt>
</event>
<event>
 4    5  0.2409888E-007  0.1085746E+04  0.7818608E-02  0.9277095E-01
          2   -1    0    0  501    0  0.00000000000E+00  0.00000000000E+00  0.14366224086E+04  0.14366224086E+04  0.25500000000E-02 0. -1.
         -2   -1    0    0    0  501 -0.00000000000E+00 -0.00000000000E+00 -0.77610274957E+03  0.77610274957E+03  0.25500000000E-02 0.  1.
    8880023    1    1    2    0    0 -0.69134196072E+03  0.51679741620E+03  0.76749845853E+03  0.13296230166E+04  0.65864270000E+03 0.  0.
    8880022    1    1    2    0    0  0.69134196072E+03 -0.51679741620E+03 -0.10697879946E+03  0.88310214165E+03  0.15294330000E+03 0.  0.
<mgrwt>
<rscale>  0 0.10291916E+04</rscale>
<asrwt>0</asrwt>
<pdfrwt beam="1">  1        2 0.22101883E+00 0.10857456E+04</pdfrwt>
<pdfrwt beam="2">  1       -2 0.11940042E+00 0.10857456E+04</pdfrwt>
<totfact> 0.73048273E+00</totfact>
</mgrwt>
</event>
<event>
 4    5  0.2409888E-007  0.2052102E+04  0.7818608E-02  0.8594576E-01
          2   -1    0    0  501    0  0.00000000000E+00  0.00000000000E+00  0.42645439230E+04  0.42645439230E+04  0.25500000000E-02 0. -1.
         -2   -1    0    0    0  501 -0.00000000000E+00 -0.00000000000E+00 -0.99783897397E+03  0.99783897398E+03  0.25500000000E-02 0.  1.
    8880023    1    1    2    0    0 -0.15642958722E+03 -0.19372248837E+04  0.23129010811E+04  0.30920271802E+04  0.65864270000E+03 0.  0.
    8880022    1    1    2    0    0  0.15642958722E+03  0.19372248837E+04  0.95380386795E+03  0.21703557168E+04  0.15294330000E+03 0.  0.
<mgrwt>
<rscale>  0 0.20259658E+04</rscale>
<asrwt>0</asrwt>
<pdfrwt beam="1">  1        2 0.65608368E+00 0.20521015E+04</pdfrwt>
<pdfrwt beam="2">  1       -2 0.15351369E+00 0.20521015E+04</pdfrwt>
<totfact> 0.51806287E-02</totfact>
</mgrwt>
</event>
<event>
 4    5  0.2409888E-007  0.1615536E+04  0.7818608E-02  0.8832086E-01
          2   -1    0    0  501    0  0.00000000000E+00  0.00000000000E+00  0.26996589716E+04  0.26996589716E+04  0.25500000000E-02 0. -1.
         -2   -1    0    0    0  501 -0.00000000000E+00 -0.00000000000E+00 -0.12346869771E+04  0.12346869771E+04  0.25500000000E-02 0.  1.
    8880023    1    1    2    0    0 -0.37696418998E+03 -0.14261994463E+04  0.17950369858E+04  0.24149771941E+04  0.65864270000E+03 0.  0.
    8880022    1    1    2    0    0  0.37696418998E+03  0.14261994463E+04 -0.33006499134E+03  0.15193687546E+04  0.15294330000E+03 0.  0.
<mgrwt>
<rscale>  0 0.15813535E+04</rscale>
<asrwt>0</asrwt>
<pdfrwt beam="1">  1        2 0.41533214E+00 0.16155362E+04</pdfrwt>
<pdfrwt beam="2">  1       -2 0.18995185E+00 0.16155362E+04</pdfrwt>
<totfact> 0.38302579E-01</totfact>
</mgrwt>
</event>
<event>
 4    5  0.2409888E-007  0.9142974E+03  0.7818608E-02  0.9503459E-01
         -2   -1    0    0    0  501 -0.00000000000E+00  0.00000000000E+00  0.38351462416E+03  0.38351462417E+03  0.25500000000E-02 0.  1.
          2   -1    0    0  501    0  0.00000000000E+00 -0.00000000000E+00 -0.18182488032E+04  0.18182488032E+04  0.25500000000E-02 0. -1.
    8880023    1    1    2    0    0  0.58421690315E+03  0.24661723048E+03 -0.11997221744E+04  0.15084007924E+04  0.65864270000E+03 0. -1.
    8880022    1    1    2    0    0 -0.58421690315E+03 -0.24661723048E+03 -0.23501200458E+03  0.69336263500E+03  0.15294330000E+03 0.  0.
<mgrwt>
<rscale>  0 0.84029298E+03</rscale>
<asrwt>0</asrwt>
<pdfrwt beam="1">  1        2 0.27973058E+00 0.91429736E+03</pdfrwt>
<pdfrwt beam="2">  1       -2 0.59002251E-01 0.91429736E+03</pdfrwt>
<totfact> 0.22850646E+01</totfact>
</mgrwt>
</event>
<event>
 4    5  0.2409888E-007  0.1198202E+04  0.7818608E-02  0.9158872E-01
          2   -1    0    0  501    0  0.00000000000E+00  0.00000000000E+00  0.38195875697E+03  0.38195875698E+03  0.25500000000E-02 0. -1.
         -2   -1    0    0    0  501 -0.00000000000E+00 -0.00000000000E+00 -0.38888632508E+04  0.38888632508E+04  0.25500000000E-02 0.  1.
    8880023    1    1    2    0    0 -0.73505242006E+03  0.67939403177E+03 -0.97774974531E+03  0.15465067350E+04  0.65864270000E+03 0.  0.
    8880022    1    1    2    0    0  0.73505242006E+03 -0.67939403177E+03 -0.25291547485E+04  0.27243152728E+04  0.15294330000E+03 0.  0.
<mgrwt>
<rscale>  0 0.11488210E+04</rscale>
<asrwt>0</asrwt>
<pdfrwt beam="1">  1        2 0.58762888E-01 0.11982022E+04</pdfrwt>
<pdfrwt beam="2">  1       -2 0.59828663E+00 0.11982022E+04</pdfrwt>
<totfact> 0.41541158E-02</totfact>
</mgrwt>
</event>
<event>
 4    5  0.2409888E-007  0.6605143E+03  0.7818608E-02  0.1023636E+00
          2   -1    0    0  501    0  0.00000000000E+00  0.00000000000E+00  0.16246139911E+04  0.16246139911E+04  0.25500000000E-02 0. -1.
         -2   -1    0    0    0  501 -0.00000000000E+00 -0.00000000000E+00 -0.23605902975E+03  0.23605902977E+03  0.25500000000E-02 0.  1.
    8880023    1    1    2    0    0  0.24954277814E+02 -0.42967244788E+02  0.15171952843E+04  0.16547388426E+04  0.65864270000E+03 0. -1.
    8880022    1    1    2    0    0 -0.24954277814E+02  0.42967244788E+02 -0.12864032293E+03  0.20593417833E+03  0.15294330000E+03 0.  0.
<mgrwt>
<rscale>  0 0.46397158E+03</rscale>
<asrwt>0</asrwt>
<pdfrwt beam="1">  1        2 0.24994061E+00 0.66051427E+03</pdfrwt>
<pdfrwt beam="2">  1       -2 0.36316774E-01 0.66051427E+03</pdfrwt>
<totfact> 0.79480277E+01</totfact>
</mgrwt>
</event>
<event>
 4    5  0.2409888E-007  0.7287687E+03  0.7818608E-02  0.9893961E-01
          2   -1    0    0  501    0  0.00000000000E+00  0.00000000000E+00  0.14450436511E+04  0.14450436511E+04  0.25500000000E-02 0. -1.
         -2   -1    0    0    0  501 -0.00000000000E+00 -0.00000000000E+00 -0.21664544463E+03  0.21664544465E+03  0.25500000000E-02 0.  1.
    8880023    1    1    2    0    0  0.22061139580E+03 -0.22050887178E+03  0.10296374344E+04  0.12614503570E+04  0.65864270000E+03 0.  0.
    8880022    1    1    2    0    0 -0.22061139580E+03  0.22050887178E+03  0.19876077204E+03  0.40023873876E+03  0.15294330000E+03 0.  0.
<mgrwt>
<rscale>  0 0.60554862E+03</rscale>
<asrwt>0</asrwt>
<pdfrwt beam="1">  1        2 0.22231441E+00 0.72876866E+03</pdfrwt>
<pdfrwt beam="2">  1       -2 0.33330069E-01 0.72876866E+03</pdfrwt>
<totfact> 0.11681813E+02</totfact>
</mgrwt>
</event>
<event>
 4    5  0.2409888E-007  0.7923358E+03  0.7818608E-02  0.9727619E-01
          2   -1    0    0  501    0  0.00000000000E+00  0.00000000000E+00  0.28503992855E+04  0.28503992855E+04  0.25500000000E-02 0. -1.
         -2   -1    0    0    0  501 -0.00000000000E+00 -0.00000000000E+00 -0.57431637651E+03  0.57431637651E+03  0.25500000000E-02 0.  1.
    8880023    1    1    2    0    0  0.13133078554E+03  0.42040217751E+03  0.26881445053E+04  0.28024840506E+04  0.65864270000E+03 0. -1.
    8880022    1    1    2    0    0 -0.13133078554E+03 -0.42040217751E+03 -0.41206159631E+03  0.62223161143E+03  0.15294330000E+03 0.  0.
<mgrwt>
<rscale>  0 0.69395890E+03</rscale>
<asrwt>0</asrwt>
<pdfrwt beam="1">  1        2 0.43852296E+00 0.79233577E+03</pdfrwt>
<pdfrwt beam="2">  1       -2 0.88356368E-01 0.79233577E+03</pdfrwt>
<totfact> 0.25024658E+00</totfact>
</mgrwt>
</event>
<event>
 4    5  0.2409888E-007  0.1245548E+04  0.7818608E-02  0.9114070E-01
         -2   -1    0    0    0  501 -0.00000000000E+00  0.00000000000E+00  0.45660426825E+04  0.45660426825E+04  0.25500000000E-02 0.  1.
          2   -1    0    0  501    0  0.00000000000E+00 -0.00000000000E+00 -0.31417323800E+03  0.31417323801E+03  0.25500000000E-02 0. -1.
    8880023    1    1    2    0    0  0.81514306939E+03 -0.67314295722E+03  0.29081946094E+04  0.31636981140E+04  0.65864270000E+03 0.  0.
    8880022    1    1    2    0    0 -0.81514306939E+03  0.67314295722E+03  0.13436748351E+04  0.17165178065E+04  0.15294330000E+03 0.  0.
<mgrwt>
<rscale>  0 0.11986150E+04</rscale>
<asrwt>0</asrwt>
<pdfrwt beam="1">  1        2 0.48334346E-01 0.12455480E+04</pdfrwt>
<pdfrwt beam="2">  1       -2 0.70246808E+00 0.12455480E+04</pdfrwt>
<totfact> 0.22837352E-02</totfact>
</mgrwt>
</event>
<event>
 4    5  0.4043059E-007  0.8439736E+03  0.7818608E-02  0.9622733E-01
          2   -1    0    0  501    0  0.00000000000E+00  0.00000000000E+00  0.42158803423E+04  0.42158803423E+04  0.25500000000E-02 0. -1.
         -2   -1    0    0    0  501 -0.00000000000E+00 -0.00000000000E+00 -0.15161519570E+04  0.15161519570E+04  0.25500000000E-02 0.  1.
    8880023    1    1    2    0    0  0.52440203429E+03 -0.59023656284E+02  0.41219015779E+04  0.42074177484E+04  0.65864270000E+03 0.  0.
    8880022    1    1    2    0    0 -0.52440203429E+03  0.59023656284E+02 -0.14221731927E+04  0.15246145508E+04  0.15294330000E+03 0.  0.
<mgrwt>
<rscale>  0 0.75809683E+03</rscale>
<asrwt>0</asrwt>
<pdfrwt beam="1">  1        2 0.64859697E+00 0.84397363E+03</pdfrwt>
<pdfrwt beam="2">  1       -2 0.23325415E+00 0.84397363E+03</pdfrwt>
<totfact> 0.20358050E-02</totfact>
</mgrwt>
</event>
<event>
 4    5  0.2409888E-007  0.1690231E+04  0.7818608E-02  0.8785817E-01
         -2   -1    0    0    0  501 -0.00000000000E+00  0.00000000000E+00  0.30434449683E+04  0.30434449683E+04  0.25500000000E-02 0.  1.
          2   -1    0    0  501    0  0.00000000000E+00 -0.00000000000E+00 -0.98882725863E+03  0.98882725864E+03  0.25500000000E-02 0. -1.
    8880023    1    1    2    0    0 -0.15151668390E+04 -0.35684832792E+03  0.36379418944E+03  0.17289383152E+04  0.65864270000E+03 0.  0.
    8880022    1    1    2    0    0  0.15151668390E+04  0.35684832792E+03  0.16908235202E+04  0.23033339117E+04  0.15294330000E+03 0.  0.
<mgrwt>
<rscale>  0 0.16577801E+04</rscale>
<asrwt>0</asrwt>
<pdfrwt beam="1">  1        2 0.15212727E+00 0.16902312E+04</pdfrwt>
<pdfrwt beam="2">  1       -2 0.46822230E+00 0.16902312E+04</pdfrwt>
<totfact> 0.62514696E-02</totfact>
</mgrwt>
</event>
<event>
 4    5  0.2409888E-007  0.1828843E+04  0.7818608E-02  0.8706747E-01
          2   -1    0    0  501    0  0.00000000000E+00  0.00000000000E+00  0.33485522740E+04  0.33485522740E+04  0.25500000000E-02 0. -1.
         -2   -1    0    0    0  501 -0.00000000000E+00 -0.00000000000E+00 -0.15040849609E+04  0.15040849609E+04  0.25500000000E-02 0.  1.
    8880023    1    1    2    0    0 -0.11291896111E+04 -0.12789790319E+04 -0.54889375466E+03  0.19094373784E+04  0.65864270000E+03 0.  0.
    8880022    1    1    2    0    0  0.11291896111E+04  0.12789790319E+04  0.23933610677E+04  0.29431998565E+04  0.15294330000E+03 0.  0.
<mgrwt>
<rscale>  0 0.17991585E+04</rscale>
<asrwt>0</asrwt>
<pdfrwt beam="1">  1        2 0.51516188E+00 0.18288430E+04</pdfrwt>
<pdfrwt beam="2">  1       -2 0.23139769E+00 0.18288430E+04</pdfrwt>
<totfact> 0.78471303E-02</totfact>
</mgrwt>
</event>
<event>
 4    5  0.2409888E-007  0.1582548E+04  0.7818608E-02  0.8853443E-01
          2   -1    0    0  501    0  0.00000000000E+00  0.00000000000E+00  0.16768942709E+04  0.16768942709E+04  0.25500000000E-02 0. -1.
         -2   -1    0    0    0  501 -0.00000000000E+00 -0.00000000000E+00 -0.19435401337E+04  0.19435401337E+04  0.25500000000E-02 0.  1.
    8880023    1    1    2    0    0 -0.71945871005E+03  0.12462051631E+04  0.84652503285E+03  0.17947320083E+04  0.65864270000E+03 0.  0.
    8880022    1    1    2    0    0  0.71945871005E+03 -0.12462051631E+04 -0.11131708957E+04  0.18257023963E+04  0.15294330000E+03 0.  0.
<mgrwt>
<rscale>  0 0.15475361E+04</rscale>
<asrwt>0</asrwt>
<pdfrwt beam="1">  1        2 0.25798374E+00 0.15825481E+04</pdfrwt>
<pdfrwt beam="2">  1       -2 0.29900617E+00 0.15825481E+04</pdfrwt>
<totfact> 0.30316438E-01</totfact>
</mgrwt>
</event>
<event>
 4    5  0.2409888E-007  0.1217273E+04  0.7818608E-02  0.9140512E-01
         -2   -1    0    0    0  501 -0.00000000000E+00  0.00000000000E+00  0.80643463639E+03  0.80643463639E+03  0.25500000000E-02 0.  1.
          2   -1    0    0  501    0  0.00000000000E+00 -0.00000000000E+00 -0.22728359925E+04  0.22728359925E+04  0.25500000000E-02 0. -1.
    8880023    1    1    2    0    0  0.10203850854E+04  0.82199213525E+02 -0.16268614472E+04  0.20318540321E+04  0.65864270000E+03 0.  0.
    8880022    1    1    2    0    0 -0.10203850854E+04 -0.82199213525E+02  0.16046009112E+03  0.10474165967E+04  0.15294330000E+03 0.  0.
<mgrwt>
<rscale>  0 0.11689112E+04</rscale>
<asrwt>0</asrwt>
<pdfrwt beam="1">  1        2 0.34966707E+00 0.12172726E+04</pdfrwt>
<pdfrwt beam="2">  1       -2 0.12406687E+00 0.12172726E+04</pdfrwt>
<totfact> 0.22398738E+00</totfact>
</mgrwt>
</event>
<event>
 4    5  0.2409888E-007  0.1258800E+04  0.7818608E-02  0.9101981E-01
         -2   -1    0    0    0  501 -0.00000000000E+00  0.00000000000E+00  0.61581421505E+03  0.61581421506E+03  0.25500000000E-02 0.  1.
          2   -1    0    0  501    0  0.00000000000E+00 -0.00000000000E+00 -0.32749509550E+04  0.32749509550E+04  0.25500000000E-02 0. -1.
    8880023    1    1    2    0    0 -0.90557040371E+03 -0.57507421083E+03 -0.29908502722E+03  0.12938431759E+04  0.65864270000E+03 0.  0.
    8880022    1    1    2    0    0  0.90557040371E+03  0.57507421083E+03 -0.23600517128E+04  0.25969219942E+04  0.15294330000E+03 0.  0.
<mgrwt>
<rscale>  0 0.12125050E+04</rscale>
<asrwt>0</asrwt>
<pdfrwt beam="1">  1        2 0.50383860E+00 0.12588003E+04</pdfrwt>
<pdfrwt beam="2">  1       -2 0.94740651E-01 0.12588003E+04</pdfrwt>
<totfact> 0.10731358E+00</totfact>
</mgrwt>
</event>
<event>
 4    5  0.2409888E-007  0.1096414E+04  0.7818608E-02  0.9265059E-01
         -2   -1    0    0    0  501 -0.00000000000E+00  0.00000000000E+00  0.99687394750E+03  0.99687394750E+03  0.25500000000E-02 0.  1.
          2   -1    0    0  501    0  0.00000000000E+00 -0.00000000000E+00 -0.15217540021E+04  0.15217540021E+04  0.25500000000E-02 0. -1.
    8880023    1    1    2    0    0  0.31712824885E+03 -0.81715617682E+03 -0.10224500757E+04  0.14991760761E+04  0.65864270000E+03 0.  0.
    8880022    1    1    2    0    0 -0.31712824885E+03  0.81715617682E+03  0.49757002109E+03  0.10194518735E+04  0.15294330000E+03 0.  0.
<mgrwt>
<rscale>  0 0.10406426E+04</rscale>
<asrwt>0</asrwt>
<pdfrwt beam="1">  1        2 0.23411600E+00 0.10964145E+04</pdfrwt>
<pdfrwt beam="2">  1       -2 0.15336522E+00 0.10964145E+04</pdfrwt>
<totfact> 0.34227387E+00</totfact>
</mgrwt>
</event>
<event>
 4    5  0.2409888E-007  0.9951889E+03  0.7818608E-02  0.9387879E-01
         -2   -1    0    0    0  501 -0.00000000000E+00  0.00000000000E+00  0.13075788593E+04  0.13075788594E+04  0.25500000000E-02 0.  1.
          2   -1    0    0  501    0  0.00000000000E+00 -0.00000000000E+00 -0.19647979196E+04  0.19647979196E+04  0.25500000000E-02 0. -1.
    8880023    1    1    2    0    0  0.33654919700E+03 -0.66582678426E+03 -0.17067198690E+04  0.19756754759E+04  0.65864270000E+03 0. -1.
    8880022    1    1    2    0    0 -0.33654919700E+03  0.66582678426E+03  0.10495008088E+04  0.12967013030E+04  0.15294330000E+03 0.  0.
<mgrwt>
<rscale>  0 0.93079914E+03</rscale>
<asrwt>0</asrwt>
<pdfrwt beam="1">  1        2 0.30227660E+00 0.99518886E+03</pdfrwt>
<pdfrwt beam="2">  1       -2 0.20116598E+00 0.99518886E+03</pdfrwt>
<totfact> 0.91241149E-01</totfact>
</mgrwt>
</event>
<event>
 4    5  0.2409888E-007  0.1096036E+04  0.7818608E-02  0.9265483E-01
          2   -1    0    0  501    0  0.00000000000E+00  0.00000000000E+00  0.28916906646E+04  0.28916906646E+04  0.25500000000E-02 0. -1.
         -2   -1    0    0    0  501 -0.00000000000E+00 -0.00000000000E+00 -0.49414850964E+03  0.49414850964E+03  0.25500000000E-02 0.  1.
    8880023    1    1    2    0    0  0.72266008422E+03 -0.49522404983E+03  0.22244863036E+04  0.24798455553E+04  0.65864270000E+03 0.  0.
    8880022    1    1    2    0    0 -0.72266008422E+03  0.49522404983E+03  0.17305585133E+03  0.90599361893E+03  0.15294330000E+03 0.  0.
<mgrwt>
<rscale>  0 0.10402366E+04</rscale>
<asrwt>0</asrwt>
<pdfrwt beam="1">  1        2 0.44487548E+00 0.10960359E+04</pdfrwt>
<pdfrwt beam="2">  1       -2 0.76022849E-01 0.10960359E+04</pdfrwt>
<totfact> 0.31669176E+00</totfact>
</mgrwt>
</event>
<event>
 4    5  0.2409888E-007  0.1017861E+04  0.7818608E-02  0.9358554E-01
          2   -1    0    0  501    0  0.00000000000E+00  0.00000000000E+00  0.97807060676E+03  0.97807060677E+03  0.25500000000E-02 0. -1.
         -2   -1    0    0    0  501 -0.00000000000E+00 -0.00000000000E+00 -0.10118223107E+04  0.10118223107E+04  0.25500000000E-02 0.  1.
    8880023    1    1    2    0    0  0.69201914958E+03  0.35119894574E+03  0.39306401106E+03  0.10911190246E+04  0.65864270000E+03 0.  0.
    8880022    1    1    2    0    0 -0.69201914958E+03 -0.35119894574E+03 -0.42681571502E+03  0.89877389285E+03  0.15294330000E+03 0.  0.
<mgrwt>
<rscale>  0 0.95566459E+03</rscale>
<asrwt>0</asrwt>
<pdfrwt beam="1">  1        2 0.15047240E+00 0.10178612E+04</pdfrwt>
<pdfrwt beam="2">  1       -2 0.15566497E+00 0.10178612E+04</pdfrwt>
<totfact> 0.69888223E+00</totfact>
</mgrwt>
</event>
<event>
 4    5  0.2409888E-007  0.7453208E+03  0.7818608E-02  0.9844710E-01
         -2   -1    0    0    0  501 -0.00000000000E+00  0.00000000000E+00  0.11773769355E+04  0.11773769355E+04  0.25500000000E-02 0.  1.
          2   -1    0    0  501    0  0.00000000000E+00 -0.00000000000E+00 -0.47707772936E+03  0.47707772936E+03  0.25500000000E-02 0. -1.
    8880023    1    1    2    0    0 -0.27270100790E+02 -0.34777754844E+03 -0.11540294679E+03  0.75420217978E+03  0.65864270000E+03 0. -1.
    8880022    1    1    2    0    0  0.27270100790E+02  0.34777754844E+03  0.81570215297E+03  0.90025248513E+03  0.15294330000E+03 0.  0.
<mgrwt>
<rscale>  0 0.63017340E+03</rscale>
<asrwt>0</asrwt>
<pdfrwt beam="1">  1        2 0.73396575E-01 0.74532080E+03</pdfrwt>
<pdfrwt beam="2">  1       -2 0.18113491E+00 0.74532080E+03</pdfrwt>
<totfact> 0.11777321E+01</totfact>
</mgrwt>
</event>
<event>
 4    5  0.2409888E-007  0.7062319E+03  0.7818608E-02  0.9972269E-01
         -2   -1    0    0    0  501 -0.00000000000E+00  0.00000000000E+00  0.46268146493E+03  0.46268146493E+03  0.25500000000E-02 0.  1.
          2   -1    0    0  501    0  0.00000000000E+00 -0.00000000000E+00 -0.18286153271E+04  0.18286153271E+04  0.25500000000E-02 0. -1.
    8880023    1    1    2    0    0 -0.24811195689E+03 -0.58256313966E+02 -0.17019651740E+04  0.18426744154E+04  0.65864270000E+03 0. -1.
    8880022    1    1    2    0    0  0.24811195689E+03  0.58256313966E+02  0.33603131185E+03  0.44862237665E+03  0.15294330000E+03 0.  0.
<mgrwt>
<rscale>  0 0.56883100E+03</rscale>
<asrwt>0</asrwt>
<pdfrwt beam="1">  1        2 0.28132543E+00 0.70623194E+03</pdfrwt>
<pdfrwt beam="2">  1       -2 0.71181765E-01 0.70623194E+03</pdfrwt>
<totfact> 0.15463257E+01</totfact>
</mgrwt>
</event>
<event>
 4    5  0.2409888E-007  0.8787202E+03  0.7818608E-02  0.9561094E-01
         -2   -1    0    0    0  501 -0.00000000000E+00  0.00000000000E+00  0.33125875277E+03  0.33125875278E+03  0.25500000000E-02 0.  1.
          2   -1    0    0  501    0  0.00000000000E+00 -0.00000000000E+00 -0.25520366362E+04  0.25520366362E+04  0.25500000000E-02 0. -1.
    8880023    1    1    2    0    0 -0.44911336245E+03  0.36964339092E+03 -0.20908296053E+04  0.22679765637E+04  0.65864270000E+03 0. -1.
    8880022    1    1    2    0    0  0.44911336245E+03 -0.36964339092E+03 -0.12994827816E+03  0.61531882532E+03  0.15294330000E+03 0.  0.
<mgrwt>
<rscale>  0 0.79925644E+03</rscale>
<asrwt>0</asrwt>
<pdfrwt beam="1">  1        2 0.39262101E+00 0.87872024E+03</pdfrwt>
<pdfrwt beam="2">  1       -2 0.50962887E-01 0.87872024E+03</pdfrwt>
<totfact> 0.12159647E+01</totfact>
</mgrwt>
</event>
<event>
 4    5  0.2409888E-007  0.1037076E+04  0.7818608E-02  0.9334581E-01
         -2   -1    0    0    0  501 -0.00000000000E+00  0.00000000000E+00  0.66792258855E+03  0.66792258855E+03  0.25500000000E-02 0.  1.
          2   -1    0    0  501    0  0.00000000000E+00 -0.00000000000E+00 -0.18908629565E+04  0.18908629565E+04  0.25500000000E-02 0. -1.
    8880023    1    1    2    0    0 -0.77628291917E+03  0.19774195996E+03 -0.13820316348E+04  0.17278711466E+04  0.65864270000E+03 0. -1.
    8880022    1    1    2    0    0  0.77628291917E+03 -0.19774195996E+03  0.15909126688E+03  0.83091439844E+03  0.15294330000E+03 0.  0.
<mgrwt>
<rscale>  0 0.97660650E+03</rscale>
<asrwt>0</asrwt>
<pdfrwt beam="1">  1        2 0.29090199E+00 0.10370763E+04</pdfrwt>
<pdfrwt beam="2">  1       -2 0.10275732E+00 0.10370763E+04</pdfrwt>
<totfact> 0.59156513E+00</totfact>
</mgrwt>
</event>
<event>
 4    5  0.2409888E-007  0.7236889E+03  0.7818608E-02  0.9910296E-01
          2   -1    0    0  501    0  0.00000000000E+00  0.00000000000E+00  0.55385240056E+03  0.55385240057E+03  0.25500000000E-02 0. -1.
         -2   -1    0    0    0  501 -0.00000000000E+00 -0.00000000000E+00 -0.12716494196E+04  0.12716494196E+04  0.25500000000E-02 0.  1.
    8880023    1    1    2    0    0 -0.28164205014E+03 -0.10292294734E+03  0.27731260384E+03  0.77500184775E+03  0.65864270000E+03 0. -1.
    8880022    1    1    2    0    0  0.28164205014E+03  0.10292294734E+03 -0.99510962286E+03  0.10504999724E+04  0.15294330000E+03 0.  0.
<mgrwt>
<rscale>  0 0.59764877E+03</rscale>
<asrwt>0</asrwt>
<pdfrwt beam="1">  1        2 0.85208062E-01 0.72368887E+03</pdfrwt>
<pdfrwt beam="2">  1       -2 0.19563837E+00 0.72368887E+03</pdfrwt>
<totfact> 0.79316983E+00</totfact>
</mgrwt>
</event>
<event>
 4    5  0.2409888E-007  0.8459080E+03  0.7818608E-02  0.9619139E-01
          2   -1    0    0  501    0  0.00000000000E+00  0.00000000000E+00  0.13322114676E+04  0.13322114676E+04  0.25500000000E-02 0. -1.
         -2   -1    0    0    0  501 -0.00000000000E+00 -0.00000000000E+00 -0.57656446895E+03  0.57656446895E+03  0.25500000000E-02 0.  1.
    8880023    1    1    2    0    0 -0.30895747869E+03 -0.43161950749E+03  0.99566582896E+03  0.13064879533E+04  0.65864270000E+03 0. -1.
    8880022    1    1    2    0    0  0.30895747869E+03  0.43161950749E+03 -0.24001883030E+03  0.60228798327E+03  0.15294330000E+03 0.  0.
<mgrwt>
<rscale>  0 0.76042267E+03</rscale>
<asrwt>0</asrwt>
<pdfrwt beam="1">  1        2 0.20495561E+00 0.84590799E+03</pdfrwt>
<pdfrwt beam="2">  1       -2 0.88702227E-01 0.84590799E+03</pdfrwt>
<totfact> 0.17481497E+01</totfact>
</mgrwt>
</event>
<event>
 4    5  0.2409888E-007  0.1543165E+04  0.7818608E-02  0.8879742E-01
          2   -1    0    0  501    0  0.00000000000E+00  0.00000000000E+00  0.19220550412E+04  0.19220550413E+04  0.25500000000E-02 0. -1.
         -2   -1    0    0    0  501 -0.00000000000E+00 -0.00000000000E+00 -0.18202892312E+04  0.18202892312E+04  0.25500000000E-02 0.  1.
    8880023    1    1    2    0    0 -0.27897443147E+03 -0.13673776799E+04  0.12041288628E+04  0.19573668479E+04  0.65864270000E+03 0.  1.
    8880022    1    1    2    0    0  0.27897443147E+03  0.13673776799E+04 -0.11023630527E+04  0.17849774245E+04  0.15294330000E+03 0.  0.
<mgrwt>
<rscale>  0 0.15071049E+04</rscale>
<asrwt>0</asrwt>
<pdfrwt beam="1">  1        2 0.29570078E+00 0.15431651E+04</pdfrwt>
<pdfrwt beam="2">  1       -2 0.28004450E+00 0.15431651E+04</pdfrwt>
<totfact> 0.28996976E-01</totfact>
</mgrwt>
</event>
<event>
 4    5  0.2714059E-007  0.1235242E+04  0.7818608E-02  0.9123603E-01
          2   -1    0    0  501    0  0.00000000000E+00  0.00000000000E+00  0.14876314909E+04  0.14876314909E+04  0.25500000000E-02 0. -1.
         -2   -1    0    0    0  501 -0.00000000000E+00 -0.00000000000E+00 -0.16084822212E+04  0.16084822212E+04  0.25500000000E-02 0.  1.
    8880023    1    1    2    0    0 -0.10443290693E+04 -0.37284344322E+02  0.97537516033E+03  0.15739060445E+04  0.65864270000E+03 0.  0.
    8880022    1    1    2    0    0  0.10443290693E+04  0.37284344322E+02 -0.10962258906E+04  0.15222076676E+04  0.15294330000E+03 0.  0.
<mgrwt>
<rscale>  0 0.11877996E+04</rscale>
<asrwt>0</asrwt>
<pdfrwt beam="1">  1        2 0.22886638E+00 0.12352423E+04</pdfrwt>
<pdfrwt beam="2">  1       -2 0.24745880E+00 0.12352423E+04</pdfrwt>
<totfact> 0.83141180E-01</totfact>
</mgrwt>
</event>
<event>
 4    5  0.2409888E-007  0.7715552E+03  0.7818608E-02  0.9776061E-01
          2   -1    0    0  501    0  0.00000000000E+00  0.00000000000E+00  0.66253384184E+03  0.66253384185E+03  0.25500000000E-02 0. -1.
         -2   -1    0    0    0  501 -0.00000000000E+00 -0.00000000000E+00 -0.12066327765E+04  0.12066327765E+04  0.25500000000E-02 0.  1.
    8880023    1    1    2    0    0 -0.33498224575E+03 -0.22197775856E+03  0.37246896119E+03  0.85675583661E+03  0.65864270000E+03 0.  0.
    8880022    1    1    2    0    0  0.33498224575E+03  0.22197775856E+03 -0.91656789585E+03  0.10124107817E+04  0.15294330000E+03 0.  0.
<mgrwt>
<rscale>  0 0.66663202E+03</rscale>
<asrwt>0</asrwt>
<pdfrwt beam="1">  1        2 0.10192828E+00 0.77155521E+03</pdfrwt>
<pdfrwt beam="2">  1       -2 0.18563581E+00 0.77155521E+03</pdfrwt>
<totfact> 0.74006499E+00</totfact>
</mgrwt>
</event>
<event>
 4    5  0.2409888E-007  0.1292702E+04  0.7818608E-02  0.9071888E-01
         -2   -1    0    0    0  501 -0.00000000000E+00  0.00000000000E+00  0.88475237125E+03  0.88475237126E+03  0.25500000000E-02 0.  1.
          2   -1    0    0  501    0  0.00000000000E+00 -0.00000000000E+00 -0.18723882803E+04  0.18723882803E+04  0.25500000000E-02 0. -1.
    8880023    1    1    2    0    0  0.79239656469E+03  0.78062508277E+03 -0.99990098851E+03  0.16342827261E+04  0.65864270000E+03 0.  0.
    8880022    1    1    2    0    0 -0.79239656469E+03 -0.78062508277E+03  0.12265079512E+02  0.11228579255E+04  0.15294330000E+03 0.  0.
<mgrwt>
<rscale>  0 0.12479538E+04</rscale>
<asrwt>0</asrwt>
<pdfrwt beam="1">  1        2 0.28805973E+00 0.12927018E+04</pdfrwt>
<pdfrwt beam="2">  1       -2 0.13611575E+00 0.12927018E+04</pdfrwt>
<totfact> 0.29317850E+00</totfact>
</mgrwt>
</event>
<event>
 4    5  0.2409888E-007  0.1094674E+04  0.7818608E-02  0.9267009E-01
         -2   -1    0    0    0  501 -0.00000000000E+00  0.00000000000E+00  0.64237707585E+03  0.64237707586E+03  0.25500000000E-02 0.  1.
          2   -1    0    0  501    0  0.00000000000E+00 -0.00000000000E+00 -0.20476444583E+04  0.20476444583E+04  0.25500000000E-02 0. -1.
    8880023    1    1    2    0    0  0.84069845338E+03  0.24026426659E+03 -0.83484930004E+02  0.10978527894E+04  0.65864270000E+03 0.  0.
    8880022    1    1    2    0    0 -0.84069845338E+03 -0.24026426659E+03 -0.13217824525E+04  0.15921687448E+04  0.15294330000E+03 0.  0.
<mgrwt>
<rscale>  0 0.10387761E+04</rscale>
<asrwt>0</asrwt>
<pdfrwt beam="1">  1        2 0.31502222E+00 0.10946739E+04</pdfrwt>
<pdfrwt beam="2">  1       -2 0.98827243E-01 0.10946739E+04</pdfrwt>
<totfact> 0.52867146E+00</totfact>
</mgrwt>
</event>
<event>
 4    5  0.2409888E-007  0.1455275E+04  0.7818608E-02  0.8941881E-01
         -2   -1    0    0    0  501 -0.00000000000E+00  0.00000000000E+00  0.16160779863E+04  0.16160779863E+04  0.25500000000E-02 0.  1.
          2   -1    0    0  501    0  0.00000000000E+00 -0.00000000000E+00 -0.18396258131E+04  0.18396258131E+04  0.25500000000E-02 0. -1.
    8880023    1    1    2    0    0  0.48821247040E+01  0.12976870204E+04 -0.11492534844E+04  0.18543487308E+04  0.65864270000E+03 0.  0.
    8880022    1    1    2    0    0 -0.48821247040E+01 -0.12976870204E+04  0.92570565757E+03  0.16013550685E+04  0.15294330000E+03 0.  0.
<mgrwt>
<rscale>  0 0.14166121E+04</rscale>
<asrwt>0</asrwt>
<pdfrwt beam="1">  1        2 0.28301936E+00 0.14552751E+04</pdfrwt>
<pdfrwt beam="2">  1       -2 0.24862738E+00 0.14552751E+04</pdfrwt>
<totfact> 0.50666210E-01</totfact>
</mgrwt>
</event>
<event>
 4    5  0.2409888E-007  0.7821476E+03  0.7818608E-02  0.9750816E-01
          2   -1    0    0  501    0  0.00000000000E+00  0.00000000000E+00  0.93582306401E+03  0.93582306402E+03  0.25500000000E-02 0. -1.
         -2   -1    0    0    0  501 -0.00000000000E+00 -0.00000000000E+00 -0.43549403631E+03  0.43549403631E+03  0.25500000000E-02 0.  1.
    8880023    1    1    2    0    0  0.75503631040E+02  0.41502272338E+03  0.48907846561E+03  0.92247092692E+03  0.65864270000E+03 0. -1.
    8880022    1    1    2    0    0 -0.75503631040E+02 -0.41502272338E+03  0.11250562098E+02  0.44884617341E+03  0.15294330000E+03 0.  0.
<mgrwt>
<rscale>  0 0.68070165E+03</rscale>
<asrwt>0</asrwt>
<pdfrwt beam="1">  1        2 0.14397278E+00 0.78214760E+03</pdfrwt>
<pdfrwt beam="2">  1       -2 0.66999084E-01 0.78214760E+03</pdfrwt>
<totfact> 0.57412406E+01</totfact>
</mgrwt>
</event>
<event>
 4    5  0.2409888E-007  0.7003767E+03  0.7818608E-02  0.9995642E-01
         -2   -1    0    0    0  501 -0.00000000000E+00  0.00000000000E+00  0.37813583559E+03  0.37813583560E+03  0.25500000000E-02 0.  1.
          2   -1    0    0  501    0  0.00000000000E+00 -0.00000000000E+00 -0.94548331637E+03  0.94548331637E+03  0.25500000000E-02 0. -1.
    8880023    1    1    2    0    0  0.11767933450E+03 -0.20704787532E+03 -0.71797104630E+03  0.10030004377E+04  0.65864270000E+03 0. -1.
    8880022    1    1    2    0    0 -0.11767933450E+03  0.20704787532E+03  0.15062356552E+03  0.32061871428E+03  0.15294330000E+03 0.  0.
<mgrwt>
<rscale>  0 0.55841727E+03</rscale>
<asrwt>0</asrwt>
<pdfrwt beam="1">  1        2 0.14545897E+00 0.70037665E+03</pdfrwt>
<pdfrwt beam="2">  1       -2 0.58174744E-01 0.70037665E+03</pdfrwt>
<totfact> 0.76932398E+01</totfact>
</mgrwt>
</event>
<event>
 4    5  0.2409888E-007  0.7363578E+03  0.7818608E-02  0.9870686E-01
          2   -1    0    0  501    0  0.00000000000E+00  0.00000000000E+00  0.78983854111E+03  0.78983854111E+03  0.25500000000E-02 0. -1.
         -2   -1    0    0    0  501 -0.00000000000E+00 -0.00000000000E+00 -0.25759507139E+04  0.25759507139E+04  0.25500000000E-02 0.  1.
    8880023    1    1    2    0    0 -0.32606527328E+03  0.45760841352E+02  0.60145730692E+03  0.95077532328E+03  0.65864270000E+03 0. -1.
    8880022    1    1    2    0    0  0.32606527328E+03 -0.45760841352E+02 -0.23875694797E+04  0.24150139317E+04  0.15294330000E+03 0.  0.
<mgrwt>
<rscale>  0 0.61703224E+03</rscale>
<asrwt>0</asrwt>
<pdfrwt beam="1">  1        2 0.12151362E+00 0.73635781E+03</pdfrwt>
<pdfrwt beam="2">  1       -2 0.39630011E+00 0.73635781E+03</pdfrwt>
<totfact> 0.29389897E-01</totfact>
</mgrwt>
</event>
<event>
 4    5  0.2409888E-007  0.7683560E+03  0.7818608E-02  0.9783936E-01
         -2   -1    0    0    0  501 -0.00000000000E+00  0.00000000000E+00  0.70065668382E+03  0.70065668383E+03  0.25500000000E-02 0.  1.
          2   -1    0    0  501    0  0.00000000000E+00 -0.00000000000E+00 -0.13076092341E+04  0.13076092341E+04  0.25500000000E-02 0. -1.
    8880023    1    1    2    0    0  0.58795458343E+02  0.39128494292E+03 -0.11101527035E+04  0.13501148261E+04  0.65864270000E+03 0. -1.
    8880022    1    1    2    0    0 -0.58795458343E+02 -0.39128494292E+03  0.50320015318E+03  0.65815109181E+03  0.15294330000E+03 0.  0.
<mgrwt>
<rscale>  0 0.66231808E+03</rscale>
<asrwt>0</asrwt>
<pdfrwt beam="1">  1        2 0.20117065E+00 0.76835605E+03</pdfrwt>
<pdfrwt beam="2">  1       -2 0.10779334E+00 0.76835605E+03</pdfrwt>
<totfact> 0.11505000E+01</totfact>
</mgrwt>
</event>
<event>
 4    5  0.2409888E-007  0.6600717E+03  0.7818608E-02  0.1024083E+00
         -2   -1    0    0    0  501 -0.00000000000E+00  0.00000000000E+00  0.41631372306E+03  0.41631372307E+03  0.25500000000E-02 0.  1.
          2   -1    0    0  501    0  0.00000000000E+00 -0.00000000000E+00 -0.63705123112E+03  0.63705123112E+03  0.25500000000E-02 0. -1.
    8880023    1    1    2    0    0 -0.22658797946E+02  0.37026729523E+02 -0.43206847448E+03  0.78890922971E+03  0.65864270000E+03 0. -1.
    8880022    1    1    2    0    0  0.22658797946E+02 -0.37026729523E+02  0.21133096642E+03  0.26445572448E+03  0.15294330000E+03 0.  0.
<mgrwt>
<rscale>  0 0.46241507E+03</rscale>
<asrwt>0</asrwt>
<pdfrwt beam="1">  1        2 0.98007882E-01 0.66007167E+03</pdfrwt>
<pdfrwt beam="2">  1       -2 0.64048265E-01 0.66007167E+03</pdfrwt>
<totfact> 0.10565054E+02</totfact>
</mgrwt>
</event>
<event>
 4    5  0.2409888E-007  0.1163221E+04  0.7818608E-02  0.9193730E-01
          2   -1    0    0  501    0  0.00000000000E+00  0.00000000000E+00  0.17850286319E+04  0.17850286319E+04  0.25500000000E-02 0. -1.
         -2   -1    0    0    0  501 -0.00000000000E+00 -0.00000000000E+00 -0.89140575795E+03  0.89140575795E+03  0.25500000000E-02 0.  1.
    8880023    1    1    2    0    0  0.85004095589E+02  0.95501165507E+03  0.11872256681E+04  0.16621034718E+04  0.65864270000E+03 0.  0.
    8880022    1    1    2    0    0 -0.85004095589E+02 -0.95501165507E+03 -0.29360279417E+03  0.10143309181E+04  0.15294330000E+03 0.  0.
<mgrwt>
<rscale>  0 0.11118375E+04</rscale>
<asrwt>0</asrwt>
<pdfrwt beam="1">  1        2 0.27461979E+00 0.11632210E+04</pdfrwt>
<pdfrwt beam="2">  1       -2 0.13713935E+00 0.11632210E+04</pdfrwt>
<totfact> 0.32568260E+00</totfact>
</mgrwt>
</event>
<event>
 4    5  0.2409888E-007  0.9437908E+03  0.7818608E-02  0.9459105E-01
         -2   -1    0    0    0  501 -0.00000000000E+00  0.00000000000E+00  0.78982841196E+03  0.78982841196E+03  0.25500000000E-02 0.  1.
          2   -1    0    0  501    0  0.00000000000E+00 -0.00000000000E+00 -0.16346321403E+04  0.16346321403E+04  0.25500000000E-02 0. -1.
    8880023    1    1    2    0    0  0.65111092566E+03 -0.18161880437E+03 -0.12917419405E+04  0.15997931975E+04  0.65864270000E+03 0.  0.
    8880022    1    1    2    0    0 -0.65111092566E+03  0.18161880437E+03  0.44693821212E+03  0.82466735481E+03  0.15294330000E+03 0.  0.
<mgrwt>
<rscale>  0 0.87367199E+03</rscale>
<asrwt>0</asrwt>
<pdfrwt beam="1">  1        2 0.25148187E+00 0.94379078E+03</pdfrwt>
<pdfrwt beam="2">  1       -2 0.12151206E+00 0.94379078E+03</pdfrwt>
<totfact> 0.54974848E+00</totfact>
</mgrwt>
</event>
<event>
 4    5  0.2409888E-007  0.9313001E+03  0.7818608E-02  0.9477546E-01
         -2   -1    0    0    0  501 -0.00000000000E+00  0.00000000000E+00  0.78035498212E+03  0.78035498213E+03  0.25500000000E-02 0.  1.
          2   -1    0    0  501    0  0.00000000000E+00 -0.00000000000E+00 -0.18217866465E+04  0.18217866465E+04  0.25500000000E-02 0. -1.
    8880023    1    1    2    0    0 -0.84896600541E+02  0.65291822481E+03 -0.15139179694E+04  0.17774328300E+04  0.65864270000E+03 0. -1.
    8880022    1    1    2    0    0  0.84896600541E+02 -0.65291822481E+03  0.47248630498E+03  0.82470879860E+03  0.15294330000E+03 0.  1.
<mgrwt>
<rscale>  0 0.85959728E+03</rscale>
<asrwt>0</asrwt>
<pdfrwt beam="1">  1        2 0.28027487E+00 0.93130008E+03</pdfrwt>
<pdfrwt beam="2">  1       -2 0.12005461E+00 0.93130008E+03</pdfrwt>
<totfact> 0.44751805E+00</totfact>
</mgrwt>
</event>
<event>
 4    5  0.2409888E-007  0.8001653E+03  0.7818608E-02  0.9710439E-01
         -2   -1    0    0    0  501 -0.00000000000E+00  0.00000000000E+00  0.51809012610E+03  0.51809012611E+03  0.25500000000E-02 0.  1.
          2   -1    0    0  501    0  0.00000000000E+00 -0.00000000000E+00 -0.16916240058E+04  0.16916240058E+04  0.25500000000E-02 0. -1.
    8880023    1    1    2    0    0 -0.36155562059E+03 -0.27519417380E+03 -0.14501160155E+04  0.16562309515E+04  0.65864270000E+03 0. -1.
    8880022    1    1    2    0    0  0.36155562059E+03  0.27519417380E+03  0.27658213583E+03  0.55348318037E+03  0.15294330000E+03 0.  0.
<mgrwt>
<rscale>  0 0.70398660E+03</rscale>
<asrwt>0</asrwt>
<pdfrwt beam="1">  1        2 0.26024984E+00 0.80016530E+03</pdfrwt>
<pdfrwt beam="2">  1       -2 0.79706174E-01 0.80016530E+03</pdfrwt>
<totfact> 0.14111613E+01</totfact>
</mgrwt>
</event>
<event>
 4    5  0.2409888E-007  0.8459868E+03  0.7818608E-02  0.9618993E-01
         -2   -1    0    0    0  501 -0.00000000000E+00  0.00000000000E+00  0.48113070375E+03  0.48113070376E+03  0.25500000000E-02 0.  1.
          2   -1    0    0  501    0  0.00000000000E+00 -0.00000000000E+00 -0.17646339474E+04  0.17646339474E+04  0.25500000000E-02 0. -1.
    8880023    1    1    2    0    0 -0.35772645360E+03  0.39232029309E+03 -0.14412272793E+04  0.16711761442E+04  0.65864270000E+03 0. -1.
    8880022    1    1    2    0    0  0.35772645360E+03 -0.39232029309E+03  0.15772403562E+03  0.57458850702E+03  0.15294330000E+03 0.  0.
<mgrwt>
<rscale>  0 0.76051731E+03</rscale>
<asrwt>0</asrwt>
<pdfrwt beam="1">  1        2 0.27148214E+00 0.84598678E+03</pdfrwt>
<pdfrwt beam="2">  1       -2 0.74020109E-01 0.84598678E+03</pdfrwt>
<totfact> 0.15093772E+01</totfact>
</mgrwt>
</event>
<event>
 4    5  0.2409888E-007  0.1320151E+04  0.7818608E-02  0.9048350E-01
          2   -1    0    0  501    0  0.00000000000E+00  0.00000000000E+00  0.23147652663E+04  0.23147652663E+04  0.25500000000E-02 0. -1.
         -2   -1    0    0    0  501 -0.00000000000E+00 -0.00000000000E+00 -0.68481725009E+03  0.68481725009E+03  0.25500000000E-02 0.  1.
    8880023    1    1    2    0    0 -0.15295134274E+03 -0.11338408552E+04  0.11451585193E+04  0.17476233687E+04  0.65864270000E+03 0.  0.
    8880022    1    1    2    0    0  0.15295134274E+03  0.11338408552E+04  0.48478949692E+03  0.12519591477E+04  0.15294330000E+03 0.  0.
<mgrwt>
<rscale>  0 0.12765750E+04</rscale>
<asrwt>0</asrwt>
<pdfrwt beam="1">  1        2 0.35611773E+00 0.13201513E+04</pdfrwt>
<pdfrwt beam="2">  1       -2 0.10535650E+00 0.13201513E+04</pdfrwt>
<totfact> 0.31395627E+00</totfact>
</mgrwt>
</event>
<event>
 4    5  0.2409888E-007  0.7267213E+03  0.7818608E-02  0.9900467E-01
         -2   -1    0    0    0  501 -0.00000000000E+00  0.00000000000E+00  0.71126095549E+03  0.71126095550E+03  0.25500000000E-02 0.  1.
          2   -1    0    0  501    0  0.00000000000E+00 -0.00000000000E+00 -0.69584378624E+03  0.69584378625E+03  0.25500000000E-02 0. -1.
    8880023    1    1    2    0    0  0.14459770373E+03 -0.27093373661E+03 -0.43035964278E+03  0.84459055995E+03  0.65864270000E+03 0.  0.
    8880022    1    1    2    0    0 -0.14459770373E+03  0.27093373661E+03  0.44577681203E+03  0.56251418179E+03  0.15294330000E+03 0.  0.
<mgrwt>
<rscale>  0 0.60238670E+03</rscale>
<asrwt>0</asrwt>
<pdfrwt beam="1">  1        2 0.10705289E+00 0.72672126E+03</pdfrwt>
<pdfrwt beam="2">  1       -2 0.10942476E+00 0.72672126E+03</pdfrwt>
<totfact> 0.27897629E+01</totfact>
</mgrwt>
</event>
<event>
 4    5  0.2409888E-007  0.1301186E+04  0.7818608E-02  0.9064536E-01
          2   -1    0    0  501    0  0.00000000000E+00  0.00000000000E+00  0.31353257858E+04  0.31353257858E+04  0.25500000000E-02 0. -1.
         -2   -1    0    0    0  501 -0.00000000000E+00 -0.00000000000E+00 -0.53799772239E+03  0.53799772240E+03  0.25500000000E-02 0.  1.
    8880023    1    1    2    0    0 -0.15112226539E+03  0.11119520425E+04  0.20182007925E+04  0.24012954689E+04  0.65864270000E+03 0.  0.
    8880022    1    1    2    0    0  0.15112226539E+03 -0.11119520425E+04  0.57912727088E+03  0.12720280393E+04  0.15294330000E+03 0.  0.
<mgrwt>
<rscale>  0 0.12568077E+04</rscale>
<asrwt>0</asrwt>
<pdfrwt beam="1">  1        2 0.48235782E+00 0.13011862E+04</pdfrwt>
<pdfrwt beam="2">  1       -2 0.82768880E-01 0.13011862E+04</pdfrwt>
<totfact> 0.17970672E+00</totfact>
</mgrwt>
</event>
<event>
 4    5  0.2409888E-007  0.6596376E+03  0.7818608E-02  0.1024531E+00
         -2   -1    0    0    0  501 -0.00000000000E+00  0.00000000000E+00  0.23690367079E+03  0.23690367080E+03  0.25500000000E-02 0.  1.
          2   -1    0    0  501    0  0.00000000000E+00 -0.00000000000E+00 -0.27797896747E+04  0.27797896747E+04  0.25500000000E-02 0. -1.
    8880023    1    1    2    0    0  0.35626791398E+02  0.65059477554E+01 -0.27089138480E+04  0.27880703072E+04  0.65864270000E+03 0. -1.
    8880022    1    1    2    0    0 -0.35626791398E+02 -0.65059477554E+01  0.16602784409E+03  0.22862303832E+03  0.15294330000E+03 0.  0.
<mgrwt>
<rscale>  0 0.46086457E+03</rscale>
<asrwt>0</asrwt>
<pdfrwt beam="1">  1        2 0.42765993E+00 0.65963763E+03</pdfrwt>
<pdfrwt beam="2">  1       -2 0.36446720E-01 0.65963763E+03</pdfrwt>
<totfact> 0.18040933E+01</totfact>
</mgrwt>
</event>
<event>
 4    5  0.2409888E-007  0.1016280E+04  0.7818608E-02  0.9360562E-01
          2   -1    0    0  501    0  0.00000000000E+00  0.00000000000E+00  0.97712700833E+03  0.97712700833E+03  0.25500000000E-02 0. -1.
         -2   -1    0    0    0  501 -0.00000000000E+00 -0.00000000000E+00 -0.34775343143E+04  0.34775343143E+04  0.25500000000E-02 0.  1.
    8880023    1    1    2    0    0  0.50493351937E+03  0.58656364036E+03  0.65040129677E+03  0.12065847738E+04  0.65864270000E+03 0.  0.
    8880022    1    1    2    0    0 -0.50493351937E+03 -0.58656364036E+03 -0.31508086027E+04  0.32480765488E+04  0.15294330000E+03 0.  0.
<mgrwt>
<rscale>  0 0.95393609E+03</rscale>
<asrwt>0</asrwt>
<pdfrwt beam="1">  1        2 0.15032723E+00 0.10162800E+04</pdfrwt>
<pdfrwt beam="2">  1       -2 0.53500527E+00 0.10162800E+04</pdfrwt>
<totfact> 0.26624363E-02</totfact>
</mgrwt>
</event>
<event>
 4    5  0.2409888E-007  0.8201204E+03  0.7818608E-02  0.9668870E-01
         -2   -1    0    0    0  501 -0.00000000000E+00  0.00000000000E+00  0.27638050548E+03  0.27638050549E+03  0.25500000000E-02 0.  1.
          2   -1    0    0  501    0  0.00000000000E+00 -0.00000000000E+00 -0.30837481611E+04  0.30837481611E+04  0.25500000000E-02 0. -1.
    8880023    1    1    2    0    0  0.15159248328E+03  0.46455028875E+03 -0.27196758224E+04  0.28406397231E+04  0.65864270000E+03 0. -1.
    8880022    1    1    2    0    0 -0.15159248328E+03 -0.46455028875E+03 -0.87691833309E+02  0.51948894349E+03  0.15294330000E+03 0.  0.
<mgrwt>
<rscale>  0 0.72900906E+03</rscale>
<asrwt>0</asrwt>
<pdfrwt beam="1">  1        2 0.47442277E+00 0.82012039E+03</pdfrwt>
<pdfrwt beam="2">  1       -2 0.42520080E-01 0.82012039E+03</pdfrwt>
<totfact> 0.85135187E+00</totfact>
</mgrwt>
</event>
<event>
 4    5  0.2409888E-007  0.9237019E+03  0.7818608E-02  0.9489006E-01
         -2   -1    0    0    0  501 -0.00000000000E+00  0.00000000000E+00  0.10184130353E+04  0.10184130353E+04  0.25500000000E-02 0.  1.
          2   -1    0    0  501    0  0.00000000000E+00 -0.00000000000E+00 -0.70952542686E+03  0.70952542687E+03  0.25500000000E-02 0. -1.
    8880023    1    1    2    0    0 -0.25484940971E+03  0.59537118330E+03 -0.12708260737E+03  0.93240295092E+03  0.65864270000E+03 0.  0.
    8880022    1    1    2    0    0  0.25484940971E+03 -0.59537118330E+03  0.43597021576E+03  0.79553551120E+03  0.15294330000E+03 0.  0.
<mgrwt>
<rscale>  0 0.85099237E+03</rscale>
<asrwt>0</asrwt>
<pdfrwt beam="1">  1        2 0.10915776E+00 0.92370194E+03</pdfrwt>
<pdfrwt beam="2">  1       -2 0.15667893E+00 0.92370194E+03</pdfrwt>
<totfact> 0.10726909E+01</totfact>
</mgrwt>
</event>
<event>
 4    5  0.2409888E-007  0.1105653E+04  0.7818608E-02  0.9254788E-01
          2   -1    0    0  501    0  0.00000000000E+00  0.00000000000E+00  0.20216010997E+04  0.20216010997E+04  0.25500000000E-02 0. -1.
         -2   -1    0    0    0  501 -0.00000000000E+00 -0.00000000000E+00 -0.65480117229E+03  0.65480117230E+03  0.25500000000E-02 0.  1.
    8880023    1    1    2    0    0  0.68676334599E+03  0.56303988542E+03  0.84159220508E+02  0.11088511111E+04  0.65864270000E+03 0.  0.
    8880022    1    1    2    0    0 -0.68676334599E+03 -0.56303988542E+03  0.12826407069E+04  0.15675511609E+04  0.15294330000E+03 0.  0.
<mgrwt>
<rscale>  0 0.10505383E+04</rscale>
<asrwt>0</asrwt>
<pdfrwt beam="1">  1        2 0.31101555E+00 0.11056528E+04</pdfrwt>
<pdfrwt beam="2">  1       -2 0.10073864E+00 0.11056528E+04</pdfrwt>
<totfact> 0.52150190E+00</totfact>
</mgrwt>
</event>
<event>
 4    5  0.2409888E-007  0.9431927E+03  0.7818608E-02  0.9459977E-01
          2   -1    0    0  501    0  0.00000000000E+00  0.00000000000E+00  0.18573962314E+04  0.18573962314E+04  0.25500000000E-02 0. -1.
         -2   -1    0    0    0  501 -0.00000000000E+00 -0.00000000000E+00 -0.12035677416E+04  0.12035677416E+04  0.25500000000E-02 0.  1.
    8880023    1    1    2    0    0  0.63442495124E+03  0.23088359214E+03  0.16187066765E+04  0.18734523647E+04  0.65864270000E+03 0.  0.
    8880022    1    1    2    0    0 -0.63442495124E+03 -0.23088359214E+03 -0.96487818668E+03  0.11875116084E+04  0.15294330000E+03 0.  0.
<mgrwt>
<rscale>  0 0.87299998E+03</rscale>
<asrwt>0</asrwt>
<pdfrwt beam="1">  1        2 0.28575327E+00 0.94319269E+03</pdfrwt>
<pdfrwt beam="2">  1       -2 0.18516427E+00 0.94319269E+03</pdfrwt>
<totfact> 0.13461114E+00</totfact>
</mgrwt>
</event>
<event>
 4    5  0.2409888E-007  0.8754092E+03  0.7818608E-02  0.9566720E-01
         -2   -1    0    0    0  501 -0.00000000000E+00  0.00000000000E+00  0.81132497756E+03  0.81132497757E+03  0.25500000000E-02 0.  1.
          2   -1    0    0  501    0  0.00000000000E+00 -0.00000000000E+00 -0.78316258068E+03  0.78316258068E+03  0.25500000000E-02 0. -1.
    8880023    1    1    2    0    0  0.24213624922E+03  0.52335568583E+03 -0.28508201297E+03  0.92065905604E+03  0.65864270000E+03 0. -1.
    8880022    1    1    2    0    0 -0.24213624922E+03 -0.52335568583E+03  0.31324440985E+03  0.67382850221E+03  0.15294330000E+03 0. -1.
<mgrwt>
<rscale>  0 0.79538578E+03</rscale>
<asrwt>0</asrwt>
<pdfrwt beam="1">  1        2 0.12048655E+00 0.87540924E+03</pdfrwt>
<pdfrwt beam="2">  1       -2 0.12481923E+00 0.87540924E+03</pdfrwt>
<totfact> 0.17102288E+01</totfact>
</mgrwt>
</event>
<event>
 4    5  0.2409888E-007  0.7456439E+03  0.7818608E-02  0.9843802E-01
         -2   -1    0    0    0  501 -0.00000000000E+00  0.00000000000E+00  0.32915016621E+03  0.32915016622E+03  0.25500000000E-02 0.  1.
          2   -1    0    0  501    0  0.00000000000E+00 -0.00000000000E+00 -0.28295088750E+04  0.28295088750E+04  0.25500000000E-02 0. -1.
    8880023    1    1    2    0    0 -0.29539425456E+03 -0.18686036839E+03 -0.26469244348E+04  0.27499443144E+04  0.65864270000E+03 0.  0.
    8880022    1    1    2    0    0  0.29539425456E+03  0.18686036839E+03  0.14656572593E+03  0.40871472684E+03  0.15294330000E+03 0.  0.
<mgrwt>
<rscale>  0 0.63063949E+03</rscale>
<asrwt>0</asrwt>
<pdfrwt beam="1">  1        2 0.43530904E+00 0.74564386E+03</pdfrwt>
<pdfrwt beam="2">  1       -2 0.50638489E-01 0.74564386E+03</pdfrwt>
<totfact> 0.86686590E+00</totfact>
</mgrwt>
</event>
<event>
 4    5  0.2409888E-007  0.8614467E+03  0.7818608E-02  0.9590995E-01
          2   -1    0    0  501    0  0.00000000000E+00  0.00000000000E+00  0.19916655716E+04  0.19916655716E+04  0.25500000000E-02 0. -1.
         -2   -1    0    0    0  501 -0.00000000000E+00 -0.00000000000E+00 -0.44043821519E+03  0.44043821520E+03  0.25500000000E-02 0.  1.
    8880023    1    1    2    0    0 -0.40635710387E+03  0.37835722847E+03  0.16370145625E+04  0.18498397694E+04  0.65864270000E+03 0.  0.
    8880022    1    1    2    0    0  0.40635710387E+03 -0.37835722847E+03 -0.85787206146E+02  0.58226401740E+03  0.15294330000E+03 0.  1.
<mgrwt>
<rscale>  0 0.77895060E+03</rscale>
<asrwt>0</asrwt>
<pdfrwt beam="1">  1        2 0.30641009E+00 0.86144674E+03</pdfrwt>
<pdfrwt beam="2">  1       -2 0.67759725E-01 0.86144674E+03</pdfrwt>
<totfact> 0.13734426E+01</totfact>
</mgrwt>
</event>
<event>
 4    5  0.2409888E-007  0.1018139E+04  0.7818608E-02  0.9358202E-01
          2   -1    0    0  501    0  0.00000000000E+00  0.00000000000E+00  0.19409744107E+04  0.19409744107E+04  0.25500000000E-02 0. -1.
         -2   -1    0    0    0  501 -0.00000000000E+00 -0.00000000000E+00 -0.77526456051E+03  0.77526456052E+03  0.25500000000E-02 0.  1.
    8880023    1    1    2    0    0  0.46551811628E+03  0.62136091410E+03  0.15358165371E+04  0.18426446060E+04  0.65864270000E+03 0.  0.
    8880022    1    1    2    0    0 -0.46551811628E+03 -0.62136091410E+03 -0.37010668694E+03  0.87359436518E+03  0.15294330000E+03 0.  0.
<mgrwt>
<rscale>  0 0.95596801E+03</rscale>
<asrwt>0</asrwt>
<pdfrwt beam="1">  1        2 0.29861144E+00 0.10181388E+04</pdfrwt>
<pdfrwt beam="2">  1       -2 0.11927147E+00 0.10181388E+04</pdfrwt>
<totfact> 0.38694258E+00</totfact>
</mgrwt>
</event>
<event>
 4    5  0.2409888E-007  0.8335279E+03  0.7818608E-02  0.9642507E-01
          2   -1    0    0  501    0  0.00000000000E+00  0.00000000000E+00  0.30796082156E+04  0.30796082156E+04  0.25500000000E-02 0. -1.
         -2   -1    0    0    0  501 -0.00000000000E+00 -0.00000000000E+00 -0.31899857705E+03  0.31899857706E+03  0.25500000000E-02 0.  1.
    8880023    1    1    2    0    0 -0.24109392757E+03 -0.45036907603E+03  0.27410726294E+04  0.28650040057E+04  0.65864270000E+03 0. -1.
    8880022    1    1    2    0    0  0.24109392757E+03  0.45036907603E+03  0.19537009146E+02  0.53360278700E+03  0.15294330000E+03 0.  0.
<mgrwt>
<rscale>  0 0.74545565E+03</rscale>
<asrwt>0</asrwt>
<pdfrwt beam="1">  1        2 0.47378587E+00 0.83352792E+03</pdfrwt>
<pdfrwt beam="2">  1       -2 0.49076705E-01 0.83352792E+03</pdfrwt>
<totfact> 0.64114288E+00</totfact>
</mgrwt>
</event>
<event>
 4    5  0.2409888E-007  0.1164932E+04  0.7818608E-02  0.9191988E-01
         -2   -1    0    0    0  501 -0.00000000000E+00  0.00000000000E+00  0.10396768541E+04  0.10396768541E+04  0.25500000000E-02 0.  1.
          2   -1    0    0  501    0  0.00000000000E+00 -0.00000000000E+00 -0.12004427559E+04  0.12004427559E+04  0.25500000000E-02 0. -1.
    8880023    1    1    2    0    0 -0.95693380834E+03  0.86802013101E+02 -0.41132393459E+03  0.12354167266E+04  0.65864270000E+03 0.  0.
    8880022    1    1    2    0    0  0.95693380834E+03 -0.86802013101E+02  0.25055803279E+03  0.10047028834E+04  0.15294330000E+03 0.  0.
<mgrwt>
<rscale>  0 0.11136510E+04</rscale>
<asrwt>0</asrwt>
<pdfrwt beam="1">  1        2 0.18468350E+00 0.11649322E+04</pdfrwt>
<pdfrwt beam="2">  1       -2 0.15995029E+00 0.11649322E+04</pdfrwt>
<totfact> 0.46547294E+00</totfact>
</mgrwt>
</event>
<event>
 4    5  0.2409888E-007  0.1013078E+04  0.7818608E-02  0.9364645E-01
         -2   -1    0    0    0  501 -0.00000000000E+00  0.00000000000E+00  0.13103228599E+04  0.13103228599E+04  0.25500000000E-02 0.  1.
          2   -1    0    0  501    0  0.00000000000E+00 -0.00000000000E+00 -0.14123213422E+04  0.14123213422E+04  0.25500000000E-02 0. -1.
    8880023    1    1    2    0    0 -0.58694227522E+02  0.76750964811E+03 -0.10719740054E+04  0.14749422181E+04  0.65864270000E+03 0. -1.
    8880022    1    1    2    0    0  0.58694227522E+02 -0.76750964811E+03  0.96997552318E+03  0.12477019840E+04  0.15294330000E+03 0.  0.
<mgrwt>
<rscale>  0 0.95043298E+03</rscale>
<asrwt>0</asrwt>
<pdfrwt beam="1">  1        2 0.21728021E+00 0.10130776E+04</pdfrwt>
<pdfrwt beam="2">  1       -2 0.20158813E+00 0.10130776E+04</pdfrwt>
<totfact> 0.18329892E+00</totfact>
</mgrwt>
</event>
<event>
 4    5  0.2409888E-007  0.6839767E+03  0.7818608E-02  0.1007158E+00
         -2   -1    0    0    0  501 -0.00000000000E+00  0.00000000000E+00  0.82606123566E+02  0.82606123605E+02  0.25500000000E-02 0.  1.
          2   -1    0    0  501    0  0.00000000000E+00 -0.00000000000E+00 -0.29156653362E+04  0.29156653362E+04  0.25500000000E-02 0. -1.
    8880023    1    1    2    0    0 -0.47822494989E+02  0.17812060977E+03 -0.24725208301E+04  0.25653817268E+04  0.65864270000E+03 0. -1.
    8880022    1    1    2    0    0  0.47822494989E+02 -0.17812060977E+03 -0.36053838258E+03  0.43288973305E+03  0.15294330000E+03 0.  1.
<mgrwt>
<rscale>  0 0.52619930E+03</rscale>
<asrwt>0</asrwt>
<pdfrwt beam="1">  1        2 0.44856382E+00 0.68397672E+03</pdfrwt>
<pdfrwt beam="2">  1       -2 0.12708637E-01 0.68397672E+03</pdfrwt>
<totfact> 0.96486128E+01</totfact>
</mgrwt>
</event>
<event>
 4    5  0.2409888E-007  0.8878620E+03  0.7818608E-02  0.9545805E-01
         -2   -1    0    0    0  501 -0.00000000000E+00  0.00000000000E+00  0.72382032754E+03  0.72382032754E+03  0.25500000000E-02 0.  1.
          2   -1    0    0  501    0  0.00000000000E+00 -0.00000000000E+00 -0.22321424668E+04  0.22321424668E+04  0.25500000000E-02 0. -1.
    8880023    1    1    2    0    0 -0.32922840628E+03  0.49608198502E+03 -0.19873336993E+04  0.21766474492E+04  0.65864270000E+03 0.  0.
    8880022    1    1    2    0    0  0.32922840628E+03 -0.49608198502E+03  0.47901156012E+03  0.77931534510E+03  0.15294330000E+03 0.  0.
<mgrwt>
<rscale>  0 0.80989437E+03</rscale>
<asrwt>0</asrwt>
<pdfrwt beam="1">  1        2 0.34340653E+00 0.88786197E+03</pdfrwt>
<pdfrwt beam="2">  1       -2 0.11135697E+00 0.88786197E+03</pdfrwt>
<totfact> 0.32189842E+00</totfact>
</mgrwt>
</event>
<event>
 4    5  0.2762091E-007  0.8668292E+03  0.7818608E-02  0.9581529E-01
          2   -1    0    0  501    0  0.00000000000E+00  0.00000000000E+00  0.25102810373E+04  0.25102810373E+04  0.25500000000E-02 0. -1.
         -2   -1    0    0    0  501 -0.00000000000E+00 -0.00000000000E+00 -0.72460922736E+03  0.72460922736E+03  0.25500000000E-02 0.  1.
    8880023    1    1    2    0    0 -0.56316447099E+02  0.56072381550E+03  0.22992620266E+04  0.24572339760E+04  0.65864270000E+03 0.  0.
    8880022    1    1    2    0    0  0.56316447099E+02 -0.56072381550E+03 -0.51359021673E+03  0.77765628861E+03  0.15294330000E+03 0.  0.
<mgrwt>
<rscale>  0 0.78530866E+03</rscale>
<asrwt>0</asrwt>
<pdfrwt beam="1">  1        2 0.38619708E+00 0.86682925E+03</pdfrwt>
<pdfrwt beam="2">  1       -2 0.11147834E+00 0.86682925E+03</pdfrwt>
<totfact> 0.22471935E+00</totfact>
</mgrwt>
</event>
<event>
 4    5  0.2409888E-007  0.6773999E+03  0.7818608E-02  0.1010834E+00
          2   -1    0    0  501    0  0.00000000000E+00  0.00000000000E+00  0.24465546486E+04  0.24465546486E+04  0.25500000000E-02 0. -1.
         -2   -1    0    0    0  501 -0.00000000000E+00 -0.00000000000E+00 -0.13095467225E+03  0.13095467228E+03  0.25500000000E-02 0.  1.
    8880023    1    1    2    0    0  0.10940976763E+03  0.11441146187E+03  0.22470934810E+04  0.23469767358E+04  0.65864270000E+03 0. -1.
    8880022    1    1    2    0    0 -0.10940976763E+03 -0.11441146187E+03  0.68506495355E+02  0.23053258507E+03  0.15294330000E+03 0.  0.
<mgrwt>
<rscale>  0 0.51144387E+03</rscale>
<asrwt>0</asrwt>
<pdfrwt beam="1">  1        2 0.37639299E+00 0.67739995E+03</pdfrwt>
<pdfrwt beam="2">  1       -2 0.20146874E-01 0.67739995E+03</pdfrwt>
<totfact> 0.82451117E+01</totfact>
</mgrwt>
</event>
<event>
 4    5  0.2409888E-007  0.1107313E+04  0.7818608E-02  0.9252957E-01
          2   -1    0    0  501    0  0.00000000000E+00  0.00000000000E+00  0.13835526432E+04  0.13835526432E+04  0.25500000000E-02 0. -1.
         -2   -1    0    0    0  501 -0.00000000000E+00 -0.00000000000E+00 -0.17394096202E+04  0.17394096202E+04  0.25500000000E-02 0.  1.
    8880023    1    1    2    0    0  0.41247581768E+03  0.78879369475E+03  0.10012003865E+04  0.14928309393E+04  0.65864270000E+03 0.  1.
    8880022    1    1    2    0    0 -0.41247581768E+03 -0.78879369475E+03 -0.13570573635E+04  0.16301313242E+04  0.15294330000E+03 0.  0.
<mgrwt>
<rscale>  0 0.10523147E+04</rscale>
<asrwt>0</asrwt>
<pdfrwt beam="1">  1        2 0.21285425E+00 0.11073130E+04</pdfrwt>
<pdfrwt beam="2">  1       -2 0.26760148E+00 0.11073130E+04</pdfrwt>
<totfact> 0.73007395E-01</totfact>
</mgrwt>
</event>
<event>
 4    5  0.2409888E-007  0.1208029E+04  0.7818608E-02  0.9149357E-01
          2   -1    0    0  501    0  0.00000000000E+00  0.00000000000E+00  0.15603763899E+04  0.15603763899E+04  0.25500000000E-02 0. -1.
         -2   -1    0    0    0  501 -0.00000000000E+00 -0.00000000000E+00 -0.11910263518E+04  0.11910263518E+04  0.25500000000E-02 0.  1.
    8880023    1    1    2    0    0 -0.10033507676E+04  0.13715327719E+03  0.98302286622E+03  0.15574556000E+04  0.65864270000E+03 0.  0.
    8880022    1    1    2    0    0  0.10033507676E+04 -0.13715327719E+03 -0.61367282807E+03  0.11939471417E+04  0.15294330000E+03 0.  0.
<mgrwt>
<rscale>  0 0.11591792E+04</rscale>
<asrwt>0</asrwt>
<pdfrwt beam="1">  1        2 0.24005791E+00 0.12080290E+04</pdfrwt>
<pdfrwt beam="2">  1       -2 0.18323482E+00 0.12080290E+04</pdfrwt>
<totfact> 0.19602294E+00</totfact>
</mgrwt>
</event>
<event>
 4    5  0.2409888E-007  0.8164475E+03  0.7818608E-02  0.9676300E-01
         -2   -1    0    0    0  501 -0.00000000000E+00  0.00000000000E+00  0.32448208441E+03  0.32448208442E+03  0.25500000000E-02 0.  1.
          2   -1    0    0  501    0  0.00000000000E+00 -0.00000000000E+00 -0.29950160899E+04  0.29950160899E+04  0.25500000000E-02 0. -1.
    8880023    1    1    2    0    0  0.43634454284E+03  0.20586341958E+03 -0.26918270604E+04  0.28129200907E+04  0.65864270000E+03 0. -1.
    8880022    1    1    2    0    0 -0.43634454284E+03 -0.20586341958E+03  0.21293054878E+02  0.50657808360E+03  0.15294330000E+03 0.  0.
<mgrwt>
<rscale>  0 0.72445564E+03</rscale>
<asrwt>0</asrwt>
<pdfrwt beam="1">  1        2 0.46077169E+00 0.81644750E+03</pdfrwt>
<pdfrwt beam="2">  1       -2 0.49920323E-01 0.81644750E+03</pdfrwt>
<totfact> 0.70053769E+00</totfact>
</mgrwt>
</event>
<event>
 4    5  0.2409888E-007  0.7064617E+03  0.7818608E-02  0.9971382E-01
         -2   -1    0    0    0  501 -0.00000000000E+00  0.00000000000E+00  0.85701049406E+03  0.85701049407E+03  0.25500000000E-02 0.  1.
          2   -1    0    0  501    0  0.00000000000E+00 -0.00000000000E+00 -0.74964556334E+03  0.74964556335E+03  0.25500000000E-02 0. -1.
    8880023    1    1    2    0    0  0.73529968310E+02 -0.24468609310E+03 -0.54321827851E+03  0.89116454416E+03  0.65864270000E+03 0. -1.
    8880022    1    1    2    0    0 -0.73529968310E+02  0.24468609310E+03  0.65058320923E+03  0.71549151326E+03  0.15294330000E+03 0.  0.
<mgrwt>
<rscale>  0 0.56923069E+03</rscale>
<asrwt>0</asrwt>
<pdfrwt beam="1">  1        2 0.11533009E+00 0.70646171E+03</pdfrwt>
<pdfrwt beam="2">  1       -2 0.13184777E+00 0.70646171E+03</pdfrwt>
<totfact> 0.16025044E+01</totfact>
</mgrwt>
</event>
<event>
 4    5  0.2409888E-007  0.1005149E+04  0.7818608E-02  0.9374852E-01
         -2   -1    0    0    0  501 -0.00000000000E+00  0.00000000000E+00  0.14387852796E+04  0.14387852796E+04  0.25500000000E-02 0.  1.
          2   -1    0    0  501    0  0.00000000000E+00 -0.00000000000E+00 -0.10229298077E+04  0.10229298077E+04  0.25500000000E-02 0. -1.
    8880023    1    1    2    0    0 -0.66899956991E+03  0.35910185877E+03 -0.61040759274E+03  0.11759771278E+04  0.65864270000E+03 0.  0.
    8880022    1    1    2    0    0  0.66899956991E+03 -0.35910185877E+03  0.10262630646E+04  0.12857379594E+04  0.15294330000E+03 0.  0.
<mgrwt>
<rscale>  0 0.94174494E+03</rscale>
<asrwt>0</asrwt>
<pdfrwt beam="1">  1        2 0.15737382E+00 0.10051491E+04</pdfrwt>
<pdfrwt beam="2">  1       -2 0.22135158E+00 0.10051491E+04</pdfrwt>
<totfact> 0.23435887E+00</totfact>
</mgrwt>
</event>
<event>
 4    5  0.2409888E-007  0.8492886E+03  0.7818608E-02  0.9612908E-01
         -2   -1    0    0    0  501 -0.00000000000E+00  0.00000000000E+00  0.13381696331E+04  0.13381696331E+04  0.25500000000E-02 0.  1.
          2   -1    0    0  501    0  0.00000000000E+00 -0.00000000000E+00 -0.97342661364E+03  0.97342661364E+03  0.25500000000E-02 0. -1.
    8880023    1    1    2    0    0  0.16730016707E+03  0.50940319634E+03 -0.70598077330E+03  0.11044002992E+04  0.65864270000E+03 0. -1.
    8880022    1    1    2    0    0 -0.16730016707E+03 -0.50940319634E+03  0.10707237927E+04  0.12071959475E+04  0.15294330000E+03 0.  0.
<mgrwt>
<rscale>  0 0.76447676E+03</rscale>
<asrwt>0</asrwt>
<pdfrwt beam="1">  1        2 0.14975794E+00 0.84928863E+03</pdfrwt>
<pdfrwt beam="2">  1       -2 0.20587225E+00 0.84928863E+03</pdfrwt>
<totfact> 0.32251049E+00</totfact>
</mgrwt>
</event>
<event>
 4    5  0.2750872E-007  0.7037659E+03  0.7818608E-02  0.9981923E-01
          2   -1    0    0  501    0  0.00000000000E+00  0.00000000000E+00  0.24653895310E+04  0.24653895310E+04  0.25500000000E-02 0. -1.
         -2   -1    0    0    0  501 -0.00000000000E+00 -0.00000000000E+00 -0.83719629496E+03  0.83719629496E+03  0.25500000000E-02 0.  1.
    8880023    1    1    2    0    0 -0.15934217298E+03  0.18996400170E+03  0.23876305760E+04  0.24891898730E+04  0.65864270000E+03 0. -1.
    8880022    1    1    2    0    0  0.15934217298E+03 -0.18996400170E+03 -0.75943733995E+03  0.81339595300E+03  0.15294330000E+03 0.  0.
<mgrwt>
<rscale>  0 0.56450020E+03</rscale>
<asrwt>0</asrwt>
<pdfrwt beam="1">  1        2 0.37929069E+00 0.70376591E+03</pdfrwt>
<pdfrwt beam="2">  1       -2 0.12879943E+00 0.70376591E+03</pdfrwt>
<totfact> 0.17184216E+00</totfact>
</mgrwt>
</event>
<event>
 4    5  0.2409888E-007  0.7750701E+03  0.7818608E-02  0.9767548E-01
          2   -1    0    0  501    0  0.00000000000E+00  0.00000000000E+00  0.14269209010E+04  0.14269209010E+04  0.25500000000E-02 0. -1.
         -2   -1    0    0    0  501 -0.00000000000E+00 -0.00000000000E+00 -0.33184091922E+03  0.33184091923E+03  0.25500000000E-02 0.  1.
    8880023    1    1    2    0    0  0.40815973734E+03 -0.18139482009E+02  0.10707513219E+04  0.13218328229E+04  0.65864270000E+03 0. -1.
    8880022    1    1    2    0    0 -0.40815973734E+03  0.18139482009E+02  0.24328659832E+02  0.43692899732E+03  0.15294330000E+03 0.  0.
<mgrwt>
<rscale>  0 0.67133590E+03</rscale>
<asrwt>0</asrwt>
<pdfrwt beam="1">  1        2 0.21952629E+00 0.77507007E+03</pdfrwt>
<pdfrwt beam="2">  1       -2 0.51052449E-01 0.77507007E+03</pdfrwt>
<totfact> 0.51558735E+01</totfact>
</mgrwt>
</event>
<event>
 4    5  0.2409888E-007  0.1002601E+04  0.7818608E-02  0.9378163E-01
          2   -1    0    0  501    0  0.00000000000E+00  0.00000000000E+00  0.11926932091E+04  0.11926932091E+04  0.25500000000E-02 0. -1.
         -2   -1    0    0    0  501 -0.00000000000E+00 -0.00000000000E+00 -0.11166604777E+04  0.11166604777E+04  0.25500000000E-02 0.  1.
    8880023    1    1    2    0    0 -0.12257343810E+03  0.74590500138E+03  0.77601269723E+03  0.12678345442E+04  0.65864270000E+03 0. -1.
    8880022    1    1    2    0    0  0.12257343810E+03 -0.74590500138E+03 -0.69997996583E+03  0.10415191426E+04  0.15294330000E+03 0.  0.
<mgrwt>
<rscale>  0 0.93894805E+03</rscale>
<asrwt>0</asrwt>
<pdfrwt beam="1">  1        2 0.18349126E+00 0.10026010E+04</pdfrwt>
<pdfrwt beam="2">  1       -2 0.17179392E+00 0.10026010E+04</pdfrwt>
<totfact> 0.39242818E+00</totfact>
</mgrwt>
</event>
<event>
 4    5  0.2409888E-007  0.9498539E+03  0.7818608E-02  0.9450324E-01
          2   -1    0    0  501    0  0.00000000000E+00  0.00000000000E+00  0.48736789805E+04  0.48736789805E+04  0.25500000000E-02 0. -1.
         -2   -1    0    0    0  501 -0.00000000000E+00 -0.00000000000E+00 -0.97150668552E+03  0.97150668553E+03  0.25500000000E-02 0.  1.
    8880023    1    1    2    0    0 -0.64701445312E+03 -0.22312463514E+03  0.46930251453E+04  0.47881841575E+04  0.65864270000E+03 0. -1.
    8880022    1    1    2    0    0  0.64701445312E+03  0.22312463514E+03 -0.79085285028E+03  0.10570015086E+04  0.15294330000E+03 0.  0.
<mgrwt>
<rscale>  0 0.88047418E+03</rscale>
<asrwt>0</asrwt>
<pdfrwt beam="1">  1        2 0.74979676E+00 0.94985394E+03</pdfrwt>
<pdfrwt beam="2">  1       -2 0.14946257E+00 0.94985394E+03</pdfrwt>
<totfact> 0.16359809E-02</totfact>
</mgrwt>
</event>
<event>
 4    5  0.2409888E-007  0.1812878E+04  0.7818608E-02  0.8715446E-01
         -2   -1    0    0    0  501 -0.00000000000E+00  0.00000000000E+00  0.13084048343E+04  0.13084048343E+04  0.25500000000E-02 0.  1.
          2   -1    0    0  501    0  0.00000000000E+00 -0.00000000000E+00 -0.29364171794E+04  0.29364171794E+04  0.25500000000E-02 0. -1.
    8880023    1    1    2    0    0 -0.15745940094E+04  0.61103979232E+03 -0.17818483839E+04  0.25419499979E+04  0.65864270000E+03 0.  0.
    8880022    1    1    2    0    0  0.15745940094E+04 -0.61103979232E+03  0.15383603874E+03  0.17028720158E+04  0.15294330000E+03 0.  0.
<mgrwt>
<rscale>  0 0.17829003E+04</rscale>
<asrwt>0</asrwt>
<pdfrwt beam="1">  1        2 0.45175649E+00 0.18128779E+04</pdfrwt>
<pdfrwt beam="2">  1       -2 0.20129305E+00 0.18128779E+04</pdfrwt>
<totfact> 0.22637100E-01</totfact>
</mgrwt>
</event>
<event>
 4    5  0.2409888E-007  0.9520338E+03  0.7818608E-02  0.9447194E-01
         -2   -1    0    0    0  501 -0.00000000000E+00  0.00000000000E+00  0.10872064278E+04  0.10872064278E+04  0.25500000000E-02 0.  1.
          2   -1    0    0  501    0  0.00000000000E+00 -0.00000000000E+00 -0.21611804666E+04  0.21611804666E+04  0.25500000000E-02 0. -1.
    8880023    1    1    2    0    0  0.64884622211E+03 -0.22706113271E+03 -0.19227238352E+04  0.21455151667E+04  0.65864270000E+03 0. -1.
    8880022    1    1    2    0    0 -0.64884622211E+03  0.22706113271E+03  0.84874979637E+03  0.11028717277E+04  0.15294330000E+03 0.  0.
<mgrwt>
<rscale>  0 0.88291521E+03</rscale>
<asrwt>0</asrwt>
<pdfrwt beam="1">  1        2 0.33248930E+00 0.95203381E+03</pdfrwt>
<pdfrwt beam="2">  1       -2 0.16726253E+00 0.95203381E+03</pdfrwt>
<totfact> 0.12194319E+00</totfact>
</mgrwt>
</event>
<event>
 4    5  0.2557427E-007  0.1494150E+04  0.7818608E-02  0.8913778E-01
         -2   -1    0    0    0  501 -0.00000000000E+00  0.00000000000E+00  0.15411183209E+04  0.15411183209E+04  0.25500000000E-02 0.  1.
          2   -1    0    0  501    0  0.00000000000E+00 -0.00000000000E+00 -0.29765815142E+04  0.29765815142E+04  0.25500000000E-02 0. -1.
    8880023    1    1    2    0    0  0.12280255892E+04  0.53909905739E+03 -0.24219861086E+04  0.28457866325E+04  0.65864270000E+03 0. -1.
    8880022    1    1    2    0    0 -0.12280255892E+04 -0.53909905739E+03  0.98652291531E+03  0.16719132026E+04  0.15294330000E+03 0.  0.
<mgrwt>
<rscale>  0 0.14566869E+04</rscale>
<asrwt>0</asrwt>
<pdfrwt beam="1">  1        2 0.45793562E+00 0.14941502E+04</pdfrwt>
<pdfrwt beam="2">  1       -2 0.23709513E+00 0.14941502E+04</pdfrwt>
<totfact> 0.13091469E-01</totfact>
</mgrwt>
</event>
<event>
 4    5  0.2409888E-007  0.7946899E+03  0.7818608E-02  0.9722397E-01
          2   -1    0    0  501    0  0.00000000000E+00  0.00000000000E+00  0.38197433560E+03  0.38197433561E+03  0.25500000000E-02 0. -1.
         -2   -1    0    0    0  501 -0.00000000000E+00 -0.00000000000E+00 -0.13753492047E+04  0.13753492047E+04  0.25500000000E-02 0.  1.
    8880023    1    1    2    0    0 -0.31278113391E+03 -0.31605352978E+03 -0.17539252281E+03  0.81381485286E+03  0.65864270000E+03 0.  1.
    8880022    1    1    2    0    0  0.31278113391E+03  0.31605352978E+03 -0.81798234629E+03  0.94350868744E+03  0.15294330000E+03 0.  0.
<mgrwt>
<rscale>  0 0.69698783E+03</rscale>
<asrwt>0</asrwt>
<pdfrwt beam="1">  1        2 0.58765283E-01 0.79468993E+03</pdfrwt>
<pdfrwt beam="2">  1       -2 0.21159218E+00 0.79468993E+03</pdfrwt>
<totfact> 0.95153157E+00</totfact>
</mgrwt>
</event>
<event>
 4    5  0.2992563E-007  0.1500184E+04  0.7818608E-02  0.8909506E-01
          2   -1    0    0  501    0  0.00000000000E+00  0.00000000000E+00  0.27973278538E+04  0.27973278538E+04  0.25500000000E-02 0. -1.
         -2   -1    0    0    0  501 -0.00000000000E+00 -0.00000000000E+00 -0.17116872187E+04  0.17116872187E+04  0.25500000000E-02 0.  1.
    8880023    1    1    2    0    0 -0.13232879230E+04 -0.25622203032E+03  0.22614761029E+04  0.27138211117E+04  0.65864270000E+03 0.  0.
    8880022    1    1    2    0    0  0.13232879230E+04  0.25622203032E+03 -0.11758354679E+04  0.17951939607E+04  0.15294330000E+03 0.  0.
<mgrwt>
<rscale>  0 0.14628993E+04</rscale>
<asrwt>0</asrwt>
<pdfrwt beam="1">  1        2 0.43035813E+00 0.15001836E+04</pdfrwt>
<pdfrwt beam="2">  1       -2 0.26333650E+00 0.15001836E+04</pdfrwt>
<totfact> 0.11603606E-01</totfact>
</mgrwt>
</event>
<event>
 4    5  0.2409888E-007  0.1308860E+04  0.7818608E-02  0.9057947E-01
          2   -1    0    0  501    0  0.00000000000E+00  0.00000000000E+00  0.99807286372E+03  0.99807286373E+03  0.25500000000E-02 0. -1.
         -2   -1    0    0    0  501 -0.00000000000E+00 -0.00000000000E+00 -0.24255828702E+04  0.24255828702E+04  0.25500000000E-02 0.  1.
    8880023    1    1    2    0    0 -0.21485746822E+03 -0.11104680615E+04  0.30974800118E+03  0.13450119248E+04  0.65864270000E+03 0.  0.
    8880022    1    1    2    0    0  0.21485746822E+03  0.11104680615E+04 -0.17372580076E+04  0.20786438092E+04  0.15294330000E+03 0.  0.
<mgrwt>
<rscale>  0 0.12648095E+04</rscale>
<asrwt>0</asrwt>
<pdfrwt beam="1">  1        2 0.15354967E+00 0.13088595E+04</pdfrwt>
<pdfrwt beam="2">  1       -2 0.37316659E+00 0.13088595E+04</pdfrwt>
<totfact> 0.27170332E-01</totfact>
</mgrwt>
</event>
<event>
 4    5  0.2409888E-007  0.9723244E+03  0.7818608E-02  0.9418697E-01
         -2   -1    0    0    0  501 -0.00000000000E+00  0.00000000000E+00  0.86366032161E+03  0.86366032161E+03  0.25500000000E-02 0.  1.
          2   -1    0    0  501    0  0.00000000000E+00 -0.00000000000E+00 -0.15502833562E+04  0.15502833562E+04  0.25500000000E-02 0. -1.
    8880023    1    1    2    0    0  0.70705447312E+03  0.10806676622E+03 -0.11820066711E+04  0.15305405681E+04  0.65864270000E+03 0. -1.
    8880022    1    1    2    0    0 -0.70705447312E+03 -0.10806676622E+03  0.49538363647E+03  0.88340310970E+03  0.15294330000E+03 0.  0.
<mgrwt>
<rscale>  0 0.90552866E+03</rscale>
<asrwt>0</asrwt>
<pdfrwt beam="1">  1        2 0.23850513E+00 0.97232436E+03</pdfrwt>
<pdfrwt beam="2">  1       -2 0.13287082E+00 0.97232436E+03</pdfrwt>
<totfact> 0.48702205E+00</totfact>
</mgrwt>
</event>
<event>
 4    5  0.2409888E-007  0.1187839E+04  0.7818608E-02  0.9169035E-01
         -2   -1    0    0    0  501 -0.00000000000E+00  0.00000000000E+00  0.57465924736E+03  0.57465924736E+03  0.25500000000E-02 0.  1.
          2   -1    0    0  501    0  0.00000000000E+00 -0.00000000000E+00 -0.22753934708E+04  0.22753934708E+04  0.25500000000E-02 0. -1.
    8880023    1    1    2    0    0  0.91273722596E+03  0.37955528510E+03 -0.50401069864E+03  0.12903443140E+04  0.65864270000E+03 0.  0.
    8880022    1    1    2    0    0 -0.91273722596E+03 -0.37955528510E+03 -0.11967235248E+04  0.15597084041E+04  0.15294330000E+03 0.  0.
<mgrwt>
<rscale>  0 0.11378832E+04</rscale>
<asrwt>0</asrwt>
<pdfrwt beam="1">  1        2 0.35006053E+00 0.11878391E+04</pdfrwt>
<pdfrwt beam="2">  1       -2 0.88409117E-01 0.11878391E+04</pdfrwt>
<totfact> 0.50724409E+00</totfact>
</mgrwt>
</event>
<event>
 4    5  0.2409888E-007  0.7948100E+03  0.7818608E-02  0.9722132E-01
          2   -1    0    0  501    0  0.00000000000E+00  0.00000000000E+00  0.27356082346E+04  0.27356082346E+04  0.25500000000E-02 0. -1.
         -2   -1    0    0    0  501 -0.00000000000E+00 -0.00000000000E+00 -0.17012076525E+03  0.17012076527E+03  0.25500000000E-02 0.  1.
    8880023    1    1    2    0    0 -0.29469572222E+03  0.33326741866E+03  0.10374403868E+04  0.13069068457E+04  0.65864270000E+03 0.  0.
    8880022    1    1    2    0    0  0.29469572222E+03 -0.33326741866E+03  0.15280470826E+04  0.15988221542E+04  0.15294330000E+03 0.  0.
<mgrwt>
<rscale>  0 0.69714200E+03</rscale>
<asrwt>0</asrwt>
<pdfrwt beam="1">  1        2 0.42086278E+00 0.79481001E+03</pdfrwt>
<pdfrwt beam="2">  1       -2 0.26172427E-01 0.79481001E+03</pdfrwt>
<totfact> 0.34749138E+01</totfact>
</mgrwt>
</event>
<event>
 4    5  0.2409888E-007  0.7520831E+03  0.7818608E-02  0.9826052E-01
          2   -1    0    0  501    0  0.00000000000E+00  0.00000000000E+00  0.73527580317E+03  0.73527580318E+03  0.25500000000E-02 0. -1.
         -2   -1    0    0    0  501 -0.00000000000E+00 -0.00000000000E+00 -0.87182386152E+03  0.87182386152E+03  0.25500000000E-02 0.  1.
    8880023    1    1    2    0    0  0.32888880271E+03  0.15378883398E+03  0.46778439765E+03  0.88569255329E+03  0.65864270000E+03 0.  0.
    8880022    1    1    2    0    0 -0.32888880271E+03 -0.15378883398E+03 -0.60433245599E+03  0.72140711141E+03  0.15294330000E+03 0.  0.
<mgrwt>
<rscale>  0 0.63982990E+03</rscale>
<asrwt>0</asrwt>
<pdfrwt beam="1">  1        2 0.11311935E+00 0.75208314E+03</pdfrwt>
<pdfrwt beam="2">  1       -2 0.13412675E+00 0.75208314E+03</pdfrwt>
<totfact> 0.15655161E+01</totfact>
</mgrwt>
</event>
<event>
 4    5  0.2409888E-007  0.7766214E+03  0.7818608E-02  0.9763834E-01
          2   -1    0    0  501    0  0.00000000000E+00  0.00000000000E+00  0.50583468840E+04  0.50583468840E+04  0.25500000000E-02 0. -1.
         -2   -1    0    0    0  501 -0.00000000000E+00 -0.00000000000E+00 -0.20361145582E+03  0.20361145583E+03  0.25500000000E-02 0.  1.
    8880023    1    1    2    0    0  0.75830892510E+02  0.40445058096E+03  0.47467612824E+04  0.48098735404E+04  0.65864270000E+03 0. -1.
    8880022    1    1    2    0    0 -0.75830892510E+02 -0.40445058096E+03  0.10797414583E+03  0.45208479944E+03  0.15294330000E+03 0.  0.
<mgrwt>
<rscale>  0 0.67340060E+03</rscale>
<asrwt>0</asrwt>
<pdfrwt beam="1">  1        2 0.77820707E+00 0.77662140E+03</pdfrwt>
<pdfrwt beam="2">  1       -2 0.31324845E-01 0.77662140E+03</pdfrwt>
<totfact> 0.32034392E-01</totfact>
</mgrwt>
</event>
<event>
 4    5  0.2409888E-007  0.8499670E+03  0.7818608E-02  0.9611666E-01
         -2   -1    0    0    0  501 -0.00000000000E+00  0.00000000000E+00  0.67150293665E+03  0.67150293665E+03  0.25500000000E-02 0.  1.
          2   -1    0    0  501    0  0.00000000000E+00 -0.00000000000E+00 -0.24626594029E+04  0.24626594029E+04  0.25500000000E-02 0. -1.
    8880023    1    1    2    0    0  0.85165215736E+02  0.53045311237E+03 -0.22538719564E+04  0.24088135296E+04  0.65864270000E+03 0. -1.
    8880022    1    1    2    0    0 -0.85165215736E+02 -0.53045311237E+03  0.46271549007E+03  0.72534881000E+03  0.15294330000E+03 0.  0.
<mgrwt>
<rscale>  0 0.76528861E+03</rscale>
<asrwt>0</asrwt>
<pdfrwt beam="1">  1        2 0.37887067E+00 0.84996696E+03</pdfrwt>
<pdfrwt beam="2">  1       -2 0.10330815E+00 0.84996696E+03</pdfrwt>
<totfact> 0.28825702E+00</totfact>
</mgrwt>
</event>
<event>
 4    5  0.2409888E-007  0.9475404E+03  0.7818608E-02  0.9453662E-01
         -2   -1    0    0    0  501 -0.00000000000E+00  0.00000000000E+00  0.30946892036E+03  0.30946892037E+03  0.25500000000E-02 0.  1.
          2   -1    0    0  501    0  0.00000000000E+00 -0.00000000000E+00 -0.41561538924E+04  0.41561538924E+04  0.25500000000E-02 0. -1.
    8880023    1    1    2    0    0 -0.64506953475E+03 -0.21887863247E+03 -0.36040241080E+04  0.37265027221E+04  0.65864270000E+03 0. -1.
    8880022    1    1    2    0    0  0.64506953475E+03  0.21887863247E+03 -0.24266086396E+03  0.73912009060E+03  0.15294330000E+03 0.  0.
<mgrwt>
<rscale>  0 0.87788083E+03</rscale>
<asrwt>0</asrwt>
<pdfrwt beam="1">  1        2 0.63940825E+00 0.94754038E+03</pdfrwt>
<pdfrwt beam="2">  1       -2 0.47610606E-01 0.94754038E+03</pdfrwt>
<totfact> 0.11366225E+00</totfact>
</mgrwt>
</event>
<event>
 4    5  0.2409888E-007  0.9814936E+03  0.7818608E-02  0.9406180E-01
         -2   -1    0    0    0  501 -0.00000000000E+00  0.00000000000E+00  0.15596023544E+04  0.15596023544E+04  0.25500000000E-02 0.  1.
          2   -1    0    0  501    0  0.00000000000E+00 -0.00000000000E+00 -0.58846468968E+03  0.58846468968E+03  0.25500000000E-02 0. -1.
    8880023    1    1    2    0    0 -0.45839143081E+03 -0.56515207786E+03  0.76084116840E+02  0.98443820225E+03  0.65864270000E+03 0.  0.
    8880022    1    1    2    0    0  0.45839143081E+03  0.56515207786E+03  0.89505354785E+03  0.11636288418E+04  0.15294330000E+03 0.  0.
<mgrwt>
<rscale>  0 0.91568805E+03</rscale>
<asrwt>0</asrwt>
<pdfrwt beam="1">  1        2 0.90533029E-01 0.98149365E+03</pdfrwt>
<pdfrwt beam="2">  1       -2 0.23993882E+00 0.98149365E+03</pdfrwt>
<totfact> 0.37637707E+00</totfact>
</mgrwt>
</event>
<event>
 4    5  0.2409888E-007  0.7191569E+03  0.7818608E-02  0.9925449E-01
          2   -1    0    0  501    0  0.00000000000E+00  0.00000000000E+00  0.14389772877E+04  0.14389772877E+04  0.25500000000E-02 0. -1.
         -2   -1    0    0    0  501 -0.00000000000E+00 -0.00000000000E+00 -0.23734816126E+03  0.23734816127E+03  0.25500000000E-02 0.  1.
    8880023    1    1    2    0    0  0.15178518897E+03  0.24563719551E+03  0.11337426408E+04  0.13425941148E+04  0.65864270000E+03 0.  0.
    8880022    1    1    2    0    0 -0.15178518897E+03 -0.24563719551E+03  0.67886485620E+02  0.33373133409E+03  0.15294330000E+03 0.  0.
<mgrwt>
<rscale>  0 0.59043606E+03</rscale>
<asrwt>0</asrwt>
<pdfrwt beam="1">  1        2 0.22138112E+00 0.71915685E+03</pdfrwt>
<pdfrwt beam="2">  1       -2 0.36515102E-01 0.71915685E+03</pdfrwt>
<totfact> 0.99056861E+01</totfact>
</mgrwt>
</event>
<event>
 4    5  0.2518185E-007  0.9355475E+03  0.7818608E-02  0.9471220E-01
         -2   -1    0    0    0  501 -0.00000000000E+00  0.00000000000E+00  0.97216999482E+03  0.97216999482E+03  0.25500000000E-02 0.  1.
          2   -1    0    0  501    0  0.00000000000E+00 -0.00000000000E+00 -0.28550937156E+04  0.28550937156E+04  0.25500000000E-02 0. -1.
    8880023    1    1    2    0    0  0.24155475422E+03  0.61894287603E+03 -0.26444923953E+04  0.28051005718E+04  0.65864270000E+03 0. -1.
    8880022    1    1    2    0    0 -0.24155475422E+03 -0.61894287603E+03  0.76156867445E+03  0.10221631386E+04  0.15294330000E+03 0.  0.
<mgrwt>
<rscale>  0 0.86439299E+03</rscale>
<asrwt>0</asrwt>
<pdfrwt beam="1">  1        2 0.43924518E+00 0.93554753E+03</pdfrwt>
<pdfrwt beam="2">  1       -2 0.14956462E+00 0.93554753E+03</pdfrwt>
<totfact> 0.66240475E-01</totfact>
</mgrwt>
</event>
<event>
 4    5  0.2409888E-007  0.9074702E+03  0.7818608E-02  0.9514144E-01
          2   -1    0    0  501    0  0.00000000000E+00  0.00000000000E+00  0.26744615349E+04  0.26744615349E+04  0.25500000000E-02 0. -1.
         -2   -1    0    0    0  501 -0.00000000000E+00 -0.00000000000E+00 -0.24426718508E+03  0.24426718509E+03  0.25500000000E-02 0.  1.
    8880023    1    1    2    0    0 -0.37226243361E+03 -0.50111144458E+03  0.18141150629E+04  0.20284268947E+04  0.65864270000E+03 0.  0.
    8880022    1    1    2    0    0  0.37226243361E+03  0.50111144458E+03  0.61607928696E+03  0.89030182534E+03  0.15294330000E+03 0.  0.
<mgrwt>
<rscale>  0 0.83249003E+03</rscale>
<asrwt>0</asrwt>
<pdfrwt beam="1">  1        2 0.41145557E+00 0.90747022E+03</pdfrwt>
<pdfrwt beam="2">  1       -2 0.37579571E-01 0.90747022E+03</pdfrwt>
<totfact> 0.18866286E+01</totfact>
</mgrwt>
</event>
<event>
 4    5  0.2409888E-007  0.1136273E+04  0.7818608E-02  0.9221706E-01
          2   -1    0    0  501    0  0.00000000000E+00  0.00000000000E+00  0.20695446869E+04  0.20695446869E+04  0.25500000000E-02 0. -1.
         -2   -1    0    0    0  501 -0.00000000000E+00 -0.00000000000E+00 -0.63429266699E+03  0.63429266699E+03  0.25500000000E-02 0.  1.
    8880023    1    1    2    0    0  0.85642571346E+03 -0.35191066957E+03  0.13454947361E+04  0.17610997737E+04  0.65864270000E+03 0.  0.
    8880022    1    1    2    0    0 -0.85642571346E+03  0.35191066957E+03  0.89757283861E+02  0.94273758017E+03  0.15294330000E+03 0.  0.
<mgrwt>
<rscale>  0 0.10832168E+04</rscale>
<asrwt>0</asrwt>
<pdfrwt beam="1">  1        2 0.31839148E+00 0.11362730E+04</pdfrwt>
<pdfrwt beam="2">  1       -2 0.97583489E-01 0.11362730E+04</pdfrwt>
<totfact> 0.52739297E+00</totfact>
</mgrwt>
</event>
<event>
 4    5  0.2507465E-007  0.7812555E+03  0.7818608E-02  0.9752896E-01
          2   -1    0    0  501    0  0.00000000000E+00  0.00000000000E+00  0.17205205582E+04  0.17205205582E+04  0.25500000000E-02 0. -1.
         -2   -1    0    0    0  501 -0.00000000000E+00 -0.00000000000E+00 -0.12319601238E+04  0.12319601238E+04  0.25500000000E-02 0.  1.
    8880023    1    1    2    0    0  0.37762232694E+03  0.18425867789E+03  0.15857048220E+04  0.17677160040E+04  0.65864270000E+03 0. -1.
    8880022    1    1    2    0    0 -0.37762232694E+03 -0.18425867789E+03 -0.10971443876E+04  0.11847646781E+04  0.15294330000E+03 0.  0.
<mgrwt>
<rscale>  0 0.67952850E+03</rscale>
<asrwt>0</asrwt>
<pdfrwt beam="1">  1        2 0.26469547E+00 0.78125546E+03</pdfrwt>
<pdfrwt beam="2">  1       -2 0.18953233E+00 0.78125546E+03</pdfrwt>
<totfact> 0.15355203E+00</totfact>
</mgrwt>
</event>
<event>
 4    5  0.2409888E-007  0.6826005E+03  0.7818608E-02  0.1007889E+00
          2   -1    0    0  501    0  0.00000000000E+00  0.00000000000E+00  0.19737676775E+04  0.19737676775E+04  0.25500000000E-02 0. -1.
         -2   -1    0    0    0  501 -0.00000000000E+00 -0.00000000000E+00 -0.76166330412E+03  0.76166330413E+03  0.25500000000E-02 0.  1.
    8880023    1    1    2    0    0  0.12977326397E+03  0.12366150999E+03  0.18943810245E+04  0.20136094312E+04  0.65864270000E+03 0. -1.
    8880022    1    1    2    0    0 -0.12977326397E+03 -0.12366150999E+03 -0.68227665109E+03  0.72182155048E+03  0.15294330000E+03 0.  0.
<mgrwt>
<rscale>  0 0.52322195E+03</rscale>
<asrwt>0</asrwt>
<pdfrwt beam="1">  1        2 0.30365656E+00 0.68260052E+03</pdfrwt>
<pdfrwt beam="2">  1       -2 0.11717897E+00 0.68260052E+03</pdfrwt>
<totfact> 0.40786291E+00</totfact>
</mgrwt>
</event>
<event>
 4    5  0.2409888E-007  0.6828538E+03  0.7818608E-02  0.1007753E+00
         -2   -1    0    0    0  501 -0.00000000000E+00  0.00000000000E+00  0.69861933975E+03  0.69861933975E+03  0.25500000000E-02 0.  1.
          2   -1    0    0  501    0  0.00000000000E+00 -0.00000000000E+00 -0.18835946248E+04  0.18835946248E+04  0.25500000000E-02 0. -1.
    8880023    1    1    2    0    0 -0.16654625786E+03  0.68857743147E+02 -0.17990145946E+04  0.19242512213E+04  0.65864270000E+03 0. -1.
    8880022    1    1    2    0    0  0.16654625786E+03 -0.68857743147E+02  0.61403930957E+03  0.65796274325E+03  0.15294330000E+03 0.  0.
<mgrwt>
<rscale>  0 0.52377382E+03</rscale>
<asrwt>0</asrwt>
<pdfrwt beam="1">  1        2 0.28978379E+00 0.68285376E+03</pdfrwt>
<pdfrwt beam="2">  1       -2 0.10747990E+00 0.68285376E+03</pdfrwt>
<totfact> 0.56306844E+00</totfact>
</mgrwt>
</event>
<event>
 4    5  0.2409888E-007  0.1147284E+04  0.7818608E-02  0.9210152E-01
         -2   -1    0    0    0  501 -0.00000000000E+00  0.00000000000E+00  0.53741177581E+03  0.53741177582E+03  0.25500000000E-02 0.  1.
          2   -1    0    0  501    0  0.00000000000E+00 -0.00000000000E+00 -0.26499899172E+04  0.26499899172E+04  0.25500000000E-02 0. -1.
    8880023    1    1    2    0    0 -0.87422578327E+03 -0.34377205769E+03 -0.18884052587E+04  0.22096005465E+04  0.65864270000E+03 0.  0.
    8880022    1    1    2    0    0  0.87422578327E+03  0.34377205769E+03 -0.22417288270E+03  0.97780114652E+03  0.15294330000E+03 0.  0.
<mgrwt>
<rscale>  0 0.10949258E+04</rscale>
<asrwt>0</asrwt>
<pdfrwt beam="1">  1        2 0.40769075E+00 0.11472838E+04</pdfrwt>
<pdfrwt beam="2">  1       -2 0.82678736E-01 0.11472838E+04</pdfrwt>
<totfact> 0.36265732E+00</totfact>
</mgrwt>
</event>
<event>
 4    5  0.2409888E-007  0.6972966E+03  0.7818608E-02  0.1000861E+00
         -2   -1    0    0    0  501 -0.00000000000E+00  0.00000000000E+00  0.89982905546E+03  0.89982905547E+03  0.25500000000E-02 0.  1.
          2   -1    0    0  501    0  0.00000000000E+00 -0.00000000000E+00 -0.44490531007E+03  0.44490531007E+03  0.25500000000E-02 0. -1.
    8880023    1    1    2    0    0  0.20063238981E+03 -0.11026766116E+03 -0.11975590021E+03  0.70750547336E+03  0.65864270000E+03 0. -1.
    8880022    1    1    2    0    0 -0.20063238981E+03  0.11026766116E+03  0.57467964561E+03  0.63722889218E+03  0.15294330000E+03 0.  0.
<mgrwt>
<rscale>  0 0.55274477E+03</rscale>
<asrwt>0</asrwt>
<pdfrwt beam="1">  1        2 0.68446971E-01 0.69729658E+03</pdfrwt>
<pdfrwt beam="2">  1       -2 0.13843524E+00 0.69729658E+03</pdfrwt>
<totfact> 0.26495356E+01</totfact>
</mgrwt>
</event>
<event>
 4    5  0.2409888E-007  0.6751966E+03  0.7818608E-02  0.1012183E+00
         -2   -1    0    0    0  501 -0.00000000000E+00  0.00000000000E+00  0.31864555256E+03  0.31864555257E+03  0.25500000000E-02 0.  1.
          2   -1    0    0  501    0  0.00000000000E+00 -0.00000000000E+00 -0.22850208472E+04  0.22850208472E+04  0.25500000000E-02 0. -1.
    8880023    1    1    2    0    0  0.10395353478E+03 -0.10617870268E+03 -0.21917528367E+04  0.22933972525E+04  0.65864270000E+03 0. -1.
    8880022    1    1    2    0    0 -0.10395353478E+03  0.10617870268E+03  0.22537754204E+03  0.31026914730E+03  0.15294330000E+03 0.  0.
<mgrwt>
<rscale>  0 0.50616322E+03</rscale>
<asrwt>0</asrwt>
<pdfrwt beam="1">  1        2 0.35154166E+00 0.67519661E+03</pdfrwt>
<pdfrwt beam="2">  1       -2 0.49022394E-01 0.67519661E+03</pdfrwt>
<totfact> 0.19179343E+01</totfact>
</mgrwt>
</event>
<event>
 4    5  0.2409888E-007  0.6851159E+03  0.7818608E-02  0.1006566E+00
         -2   -1    0    0    0  501 -0.00000000000E+00  0.00000000000E+00  0.11785327013E+04  0.11785327013E+04  0.25500000000E-02 0.  1.
          2   -1    0    0  501    0  0.00000000000E+00 -0.00000000000E+00 -0.24864212055E+04  0.24864212055E+04  0.25500000000E-02 0. -1.
    8880023    1    1    2    0    0 -0.11904551092E+03  0.14629351001E+03 -0.24259449515E+04  0.25208317554E+04  0.65864270000E+03 0. -1.
    8880022    1    1    2    0    0  0.11904551092E+03 -0.14629351001E+03  0.11180564473E+04  0.11441221513E+04  0.15294330000E+03 0.  0.
<mgrwt>
<rscale>  0 0.52862487E+03</rscale>
<asrwt>0</asrwt>
<pdfrwt beam="1">  1        2 0.38252634E+00 0.68511593E+03</pdfrwt>
<pdfrwt beam="2">  1       -2 0.18131272E+00 0.68511593E+03</pdfrwt>
<totfact> 0.67447038E-01</totfact>
</mgrwt>
</event>
<event>
 4    5  0.2409888E-007  0.1315303E+04  0.7818608E-02  0.9052456E-01
          2   -1    0    0  501    0  0.00000000000E+00  0.00000000000E+00  0.15419781647E+04  0.15419781647E+04  0.25500000000E-02 0. -1.
         -2   -1    0    0    0  501 -0.00000000000E+00 -0.00000000000E+00 -0.13364020963E+04  0.13364020963E+04  0.25500000000E-02 0.  1.
    8880023    1    1    2    0    0  0.10179700678E+04  0.50985167181E+03  0.84531539744E+03  0.15635153065E+04  0.65864270000E+03 0.  0.
    8880022    1    1    2    0    0 -0.10179700678E+04 -0.50985167181E+03 -0.63973932905E+03  0.13148649544E+04  0.15294330000E+03 0.  0.
<mgrwt>
<rscale>  0 0.12715247E+04</rscale>
<asrwt>0</asrwt>
<pdfrwt beam="1">  1        2 0.23722741E+00 0.13153030E+04</pdfrwt>
<pdfrwt beam="2">  1       -2 0.20560032E+00 0.13153030E+04</pdfrwt>
<totfact> 0.14081652E+00</totfact>
</mgrwt>
</event>
<event>
 4    5  0.2409888E-007  0.7996593E+03  0.7818608E-02  0.9711533E-01
          2   -1    0    0  501    0  0.00000000000E+00  0.00000000000E+00  0.28958543959E+04  0.28958543959E+04  0.25500000000E-02 0. -1.
         -2   -1    0    0    0  501 -0.00000000000E+00 -0.00000000000E+00 -0.34416442143E+03  0.34416442144E+03  0.25500000000E-02 0.  1.
    8880023    1    1    2    0    0  0.43266576661E+03  0.13581276147E+03  0.26355115942E+04  0.27541561940E+04  0.65864270000E+03 0. -1.
    8880022    1    1    2    0    0 -0.43266576661E+03 -0.13581276147E+03 -0.83821619717E+02  0.48586262330E+03  0.15294330000E+03 0.  0.
<mgrwt>
<rscale>  0 0.70334242E+03</rscale>
<asrwt>0</asrwt>
<pdfrwt beam="1">  1        2 0.44551609E+00 0.79965929E+03</pdfrwt>
<pdfrwt beam="2">  1       -2 0.52948370E-01 0.79965929E+03</pdfrwt>
<totfact> 0.71527730E+00</totfact>
</mgrwt>
</event>
<event>
 4    5  0.2409888E-007  0.9505734E+03  0.7818608E-02  0.9449290E-01
          2   -1    0    0  501    0  0.00000000000E+00  0.00000000000E+00  0.62587600096E+03  0.62587600097E+03  0.25500000000E-02 0. -1.
         -2   -1    0    0    0  501 -0.00000000000E+00 -0.00000000000E+00 -0.20555064856E+04  0.20555064856E+04  0.25500000000E-02 0.  1.
    8880023    1    1    2    0    0  0.32091722614E+03  0.60563331968E+03  0.14093264591E+03  0.96096399562E+03  0.65864270000E+03 0.  0.
    8880022    1    1    2    0    0 -0.32091722614E+03 -0.60563331968E+03 -0.15705631306E+04  0.17204184910E+04  0.15294330000E+03 0.  0.
<mgrwt>
<rscale>  0 0.88128009E+03</rscale>
<asrwt>0</asrwt>
<pdfrwt beam="1">  1        2 0.96288617E-01 0.95057340E+03</pdfrwt>
<pdfrwt beam="2">  1       -2 0.31623176E+00 0.95057340E+03</pdfrwt>
<totfact> 0.12078141E+00</totfact>
</mgrwt>
</event>
<event>
 4    5  0.2409888E-007  0.7175877E+03  0.7818608E-02  0.9930834E-01
          2   -1    0    0  501    0  0.00000000000E+00  0.00000000000E+00  0.48463956595E+03  0.48463956596E+03  0.25500000000E-02 0. -1.
         -2   -1    0    0    0  501 -0.00000000000E+00 -0.00000000000E+00 -0.93155928908E+03  0.93155928909E+03  0.25500000000E-02 0.  1.
    8880023    1    1    2    0    0 -0.17724940192E+03  0.22294532634E+03  0.15391758637E+03  0.73390925779E+03  0.65864270000E+03 0.  0.
    8880022    1    1    2    0    0  0.17724940192E+03 -0.22294532634E+03 -0.60083730950E+03  0.68228959725E+03  0.15294330000E+03 0.  0.
<mgrwt>
<rscale>  0 0.58789921E+03</rscale>
<asrwt>0</asrwt>
<pdfrwt beam="1">  1        2 0.74559933E-01 0.71758775E+03</pdfrwt>
<pdfrwt beam="2">  1       -2 0.14331681E+00 0.71758775E+03</pdfrwt>
<totfact> 0.21917746E+01</totfact>
</mgrwt>
</event>
<event>
 4    5  0.2409888E-007  0.8000590E+03  0.7818608E-02  0.9710668E-01
          2   -1    0    0  501    0  0.00000000000E+00  0.00000000000E+00  0.12497572584E+04  0.12497572584E+04  0.25500000000E-02 0. -1.
         -2   -1    0    0    0  501 -0.00000000000E+00 -0.00000000000E+00 -0.11517918512E+04  0.11517918512E+04  0.25500000000E-02 0.  1.
    8880023    1    1    2    0    0 -0.17915551215E+03 -0.41735778863E+03  0.10592389830E+04  0.13274342359E+04  0.65864270000E+03 0.  0.
    8880022    1    1    2    0    0  0.17915551215E+03  0.41735778863E+03 -0.96127357586E+03  0.10741148737E+04  0.15294330000E+03 0.  0.
<mgrwt>
<rscale>  0 0.70385134E+03</rscale>
<asrwt>0</asrwt>
<pdfrwt beam="1">  1        2 0.19227035E+00 0.80005902E+03</pdfrwt>
<pdfrwt beam="2">  1       -2 0.17719875E+00 0.80005902E+03</pdfrwt>
<totfact> 0.34127804E+00</totfact>
</mgrwt>
</event>
<event>
 4    5  0.2409888E-007  0.7622166E+03  0.7818608E-02  0.9799402E-01
          2   -1    0    0  501    0  0.00000000000E+00  0.00000000000E+00  0.24402374712E+04  0.24402374712E+04  0.25500000000E-02 0. -1.
         -2   -1    0    0    0  501 -0.00000000000E+00 -0.00000000000E+00 -0.40671463074E+03  0.40671463075E+03  0.25500000000E-02 0.  1.
    8880023    1    1    2    0    0 -0.59512449698E+02 -0.37897521564E+03  0.22535853355E+04  0.23789958000E+04  0.65864270000E+03 0.  0.
    8880022    1    1    2    0    0  0.59512449698E+02  0.37897521564E+03 -0.22006249510E+03  0.46795630191E+03  0.15294330000E+03 0.  0.
<mgrwt>
<rscale>  0 0.65394625E+03</rscale>
<asrwt>0</asrwt>
<pdfrwt beam="1">  1        2 0.37542115E+00 0.76221660E+03</pdfrwt>
<pdfrwt beam="2">  1       -2 0.62571482E-01 0.76221660E+03</pdfrwt>
<totfact> 0.93303653E+00</totfact>
</mgrwt>
</event>
<event>
 4    5  0.2409888E-007  0.6739084E+03  0.7818608E-02  0.1013003E+00
         -2   -1    0    0    0  501 -0.00000000000E+00  0.00000000000E+00  0.48101400123E+03  0.48101400124E+03  0.25500000000E-02 0.  1.
          2   -1    0    0  501    0  0.00000000000E+00 -0.00000000000E+00 -0.94336762160E+03  0.94336762160E+03  0.25500000000E-02 0. -1.
    8880023    1    1    2    0    0  0.13696128053E+03 -0.39798381978E+02 -0.78831182782E+03  0.10371056107E+04  0.65864270000E+03 0. -1.
    8880022    1    1    2    0    0 -0.13696128053E+03  0.39798381978E+02  0.32595820745E+03  0.38727601216E+03  0.15294330000E+03 0.  0.
<mgrwt>
<rscale>  0 0.50298263E+03</rscale>
<asrwt>0</asrwt>
<pdfrwt beam="1">  1        2 0.14513348E+00 0.67390838E+03</pdfrwt>
<pdfrwt beam="2">  1       -2 0.74002154E-01 0.67390838E+03</pdfrwt>
<totfact> 0.46109534E+01</totfact>
</mgrwt>
</event>
<event>
 4    5  0.2409888E-007  0.7408978E+03  0.7818608E-02  0.9857340E-01
         -2   -1    0    0    0  501 -0.00000000000E+00  0.00000000000E+00  0.51814122215E+03  0.51814122216E+03  0.25500000000E-02 0.  1.
          2   -1    0    0  501    0  0.00000000000E+00 -0.00000000000E+00 -0.24256711939E+04  0.24256711939E+04  0.25500000000E-02 0. -1.
    8880023    1    1    2    0    0 -0.22401151711E+02 -0.33855206057E+03 -0.22919651094E+04  0.24087410774E+04  0.65864270000E+03 0. -1.
    8880022    1    1    2    0    0  0.22401151711E+02  0.33855206057E+03  0.38443513765E+03  0.53507133860E+03  0.15294330000E+03 0.  0.
<mgrwt>
<rscale>  0 0.62374092E+03</rscale>
<asrwt>0</asrwt>
<pdfrwt beam="1">  1        2 0.37318018E+00 0.74089778E+03</pdfrwt>
<pdfrwt beam="2">  1       -2 0.79714036E-01 0.74089778E+03</pdfrwt>
<totfact> 0.56181191E+00</totfact>
</mgrwt>
</event>
<event>
 4    5  0.2409888E-007  0.1164558E+04  0.7818608E-02  0.9192369E-01
          2   -1    0    0  501    0  0.00000000000E+00  0.00000000000E+00  0.86646407810E+03  0.86646407810E+03  0.25500000000E-02 0. -1.
         -2   -1    0    0    0  501 -0.00000000000E+00 -0.00000000000E+00 -0.17280543387E+04  0.17280543387E+04  0.25500000000E-02 0.  1.
    8880023    1    1    2    0    0  0.88470898098E+03 -0.37373105616E+03  0.16987267323E+03  0.11768822434E+04  0.65864270000E+03 0.  0.
    8880022    1    1    2    0    0 -0.88470898098E+03  0.37373105616E+03 -0.10314629339E+04  0.14176361735E+04  0.15294330000E+03 0.  0.
<mgrwt>
<rscale>  0 0.11132543E+04</rscale>
<asrwt>0</asrwt>
<pdfrwt beam="1">  1        2 0.13330217E+00 0.11645579E+04</pdfrwt>
<pdfrwt beam="2">  1       -2 0.26585451E+00 0.11645579E+04</pdfrwt>
<totfact> 0.15572494E+00</totfact>
</mgrwt>
</event>
<event>
 4    5  0.2409888E-007  0.8480487E+03  0.7818608E-02  0.9615186E-01
         -2   -1    0    0    0  501 -0.00000000000E+00  0.00000000000E+00  0.29309350017E+03  0.29309350018E+03  0.25500000000E-02 0.  1.
          2   -1    0    0  501    0  0.00000000000E+00 -0.00000000000E+00 -0.38751700297E+04  0.38751700297E+04  0.25500000000E-02 0. -1.
    8880023    1    1    2    0    0 -0.53397558511E+03 -0.15700639436E+02 -0.35063628910E+04  0.36074599603E+04  0.65864270000E+03 0.  0.
    8880022    1    1    2    0    0  0.53397558511E+03  0.15700639436E+02 -0.75713638525E+02  0.56080356957E+03  0.15294330000E+03 0.  0.
<mgrwt>
<rscale>  0 0.76299142E+03</rscale>
<asrwt>0</asrwt>
<pdfrwt beam="1">  1        2 0.59617997E+00 0.84804873E+03</pdfrwt>
<pdfrwt beam="2">  1       -2 0.45091310E-01 0.84804873E+03</pdfrwt>
<totfact> 0.21656324E+00</totfact>
</mgrwt>
</event>
<event>
 4    5  0.2409888E-007  0.1375233E+04  0.7818608E-02  0.9003170E-01
          2   -1    0    0  501    0  0.00000000000E+00  0.00000000000E+00  0.34769457962E+04  0.34769457962E+04  0.25500000000E-02 0. -1.
         -2   -1    0    0    0  501 -0.00000000000E+00 -0.00000000000E+00 -0.78386691784E+03  0.78386691785E+03  0.25500000000E-02 0.  1.
    8880023    1    1    2    0    0 -0.11197655301E+04  0.45119858746E+03  0.27153086078E+04  0.30437092584E+04  0.65864270000E+03 0.  0.
    8880022    1    1    2    0    0  0.11197655301E+04 -0.45119858746E+03 -0.22229729508E+02  0.12171034556E+04  0.15294330000E+03 0.  0.
<mgrwt>
<rscale>  0 0.13338160E+04</rscale>
<asrwt>0</asrwt>
<pdfrwt beam="1">  1        2 0.53491474E+00 0.13752328E+04</pdfrwt>
<pdfrwt beam="2">  1       -2 0.12059491E+00 0.13752328E+04</pdfrwt>
<totfact> 0.43049733E-01</totfact>
</mgrwt>
</event>
<event>
 4    5  0.2409888E-007  0.7087418E+03  0.7818608E-02  0.9962703E-01
         -2   -1    0    0    0  501 -0.00000000000E+00  0.00000000000E+00  0.34486760188E+03  0.34486760189E+03  0.25500000000E-02 0.  1.
          2   -1    0    0  501    0  0.00000000000E+00 -0.00000000000E+00 -0.22544518910E+04  0.22544518910E+04  0.25500000000E-02 0. -1.
    8880023    1    1    2    0    0 -0.14332190562E+03  0.21900577198E+03 -0.21166825897E+04  0.22321872880E+04  0.65864270000E+03 0. -1.
    8880022    1    1    2    0    0  0.14332190562E+03 -0.21900577198E+03  0.20709830056E+03  0.36713220493E+03  0.15294330000E+03 0.  0.
<mgrwt>
<rscale>  0 0.57316321E+03</rscale>
<asrwt>0</asrwt>
<pdfrwt beam="1">  1        2 0.34683874E+00 0.70874177E+03</pdfrwt>
<pdfrwt beam="2">  1       -2 0.53056556E-01 0.70874177E+03</pdfrwt>
<totfact> 0.16875334E+01</totfact>
</mgrwt>
</event>
<event>
 4    5  0.2409888E-007  0.6835969E+03  0.7818608E-02  0.1007358E+00
          2   -1    0    0  501    0  0.00000000000E+00  0.00000000000E+00  0.17336798925E+04  0.17336798925E+04  0.25500000000E-02 0. -1.
         -2   -1    0    0    0  501 -0.00000000000E+00 -0.00000000000E+00 -0.35370052461E+03  0.35370052462E+03  0.25500000000E-02 0.  1.
    8880023    1    1    2    0    0 -0.14722244708E+03  0.10871982930E+03  0.16142708442E+04  0.17530473510E+04  0.65864270000E+03 0. -1.
    8880022    1    1    2    0    0  0.14722244708E+03 -0.10871982930E+03 -0.23429147631E+03  0.33433306611E+03  0.15294330000E+03 0.  0.
<mgrwt>
<rscale>  0 0.52538276E+03</rscale>
<asrwt>0</asrwt>
<pdfrwt beam="1">  1        2 0.26671999E+00 0.68359685E+03</pdfrwt>
<pdfrwt beam="2">  1       -2 0.54415464E-01 0.68359685E+03</pdfrwt>
<totfact> 0.30934784E+01</totfact>
</mgrwt>
</event>
<event>
 4    5  0.2409888E-007  0.7803182E+03  0.7818608E-02  0.9755090E-01
         -2   -1    0    0    0  501 -0.00000000000E+00  0.00000000000E+00  0.62471460094E+03  0.62471460095E+03  0.25500000000E-02 0.  1.
          2   -1    0    0  501    0  0.00000000000E+00 -0.00000000000E+00 -0.12259810604E+04  0.12259810604E+04  0.25500000000E-02 0. -1.
    8880023    1    1    2    0    0  0.19933401560E+03 -0.36790237914E+03 -0.98922272765E+03  0.12599436581E+04  0.65864270000E+03 0. -1.
    8880022    1    1    2    0    0 -0.19933401560E+03  0.36790237914E+03  0.38795626819E+03  0.59075200329E+03  0.15294330000E+03 0.  0.
<mgrwt>
<rscale>  0 0.67829371E+03</rscale>
<asrwt>0</asrwt>
<pdfrwt beam="1">  1        2 0.18861247E+00 0.78031815E+03</pdfrwt>
<pdfrwt beam="2">  1       -2 0.96109939E-01 0.78031815E+03</pdfrwt>
<totfact> 0.16844543E+01</totfact>
</mgrwt>
</event>
<event>
 4    5  0.2409888E-007  0.1733378E+04  0.7818608E-02  0.8760313E-01
         -2   -1    0    0    0  501 -0.00000000000E+00  0.00000000000E+00  0.29242709006E+04  0.29242709006E+04  0.25500000000E-02 0.  1.
          2   -1    0    0  501    0  0.00000000000E+00 -0.00000000000E+00 -0.11629523728E+04  0.11629523728E+04  0.25500000000E-02 0. -1.
    8880023    1    1    2    0    0 -0.15376157582E+04 -0.45445368655E+03  0.45632982985E+02  0.17339789354E+04  0.65864270000E+03 0.  0.
    8880022    1    1    2    0    0  0.15376157582E+04  0.45445368655E+03  0.17156855448E+04  0.23532443380E+04  0.15294330000E+03 0.  0.
<mgrwt>
<rscale>  0 0.17018453E+04</rscale>
<asrwt>0</asrwt>
<pdfrwt beam="1">  1        2 0.17891575E+00 0.17333784E+04</pdfrwt>
<pdfrwt beam="2">  1       -2 0.44988783E+00 0.17333784E+04</pdfrwt>
<totfact> 0.63833761E-02</totfact>
</mgrwt>
</event>
<event>
 4    5  0.2409888E-007  0.1050329E+04  0.7818608E-02  0.9318486E-01
          2   -1    0    0  501    0  0.00000000000E+00  0.00000000000E+00  0.17669881467E+04  0.17669881467E+04  0.25500000000E-02 0. -1.
         -2   -1    0    0    0  501 -0.00000000000E+00 -0.00000000000E+00 -0.63030934739E+03  0.63030934740E+03  0.25500000000E-02 0.  1.
    8880023    1    1    2    0    0 -0.78925434219E+03  0.21554364669E+03  0.11597130838E+04  0.15646488818E+04  0.65864270000E+03 0.  0.
    8880022    1    1    2    0    0  0.78925434219E+03 -0.21554364669E+03 -0.23034284493E+02  0.83264861230E+03  0.15294330000E+03 0.  0.
<mgrwt>
<rscale>  0 0.99098709E+03</rscale>
<asrwt>0</asrwt>
<pdfrwt beam="1">  1        2 0.27184433E+00 0.10503293E+04</pdfrwt>
<pdfrwt beam="2">  1       -2 0.96970668E-01 0.10503293E+04</pdfrwt>
<totfact> 0.79354505E+00</totfact>
</mgrwt>
</event>
<event>
 4    5  0.2409888E-007  0.7261815E+03  0.7818608E-02  0.9902199E-01
         -2   -1    0    0    0  501 -0.00000000000E+00  0.00000000000E+00  0.20211163974E+04  0.20211163974E+04  0.25500000000E-02 0.  1.
          2   -1    0    0  501    0  0.00000000000E+00 -0.00000000000E+00 -0.33914938734E+03  0.33914938735E+03  0.25500000000E-02 0. -1.
    8880023    1    1    2    0    0  0.28431656243E+03 -0.11266555988E+03  0.89703834484E+02  0.73170104567E+03  0.65864270000E+03 0. -1.
    8880022    1    1    2    0    0 -0.28431656243E+03  0.11266555988E+03  0.15922631756E+04  0.16285647391E+04  0.15294330000E+03 0.  0.
<mgrwt>
<rscale>  0 0.60154831E+03</rscale>
<asrwt>0</asrwt>
<pdfrwt beam="1">  1        2 0.52176830E-01 0.72618155E+03</pdfrwt>
<pdfrwt beam="2">  1       -2 0.31094098E+00 0.72618155E+03</pdfrwt>
<totfact> 0.27279506E+00</totfact>
</mgrwt>
</event>
<event>
 4    5  0.2409888E-007  0.1255911E+04  0.7818608E-02  0.9104600E-01
          2   -1    0    0  501    0  0.00000000000E+00  0.00000000000E+00  0.53383651078E+04  0.53383651078E+04  0.25500000000E-02 0. -1.
         -2   -1    0    0    0  501 -0.00000000000E+00 -0.00000000000E+00 -0.13085793978E+04  0.13085793978E+04  0.25500000000E-02 0.  1.
    8880023    1    1    2    0    0 -0.42734724594E+03  0.98024374497E+03  0.50241407269E+04  0.51787357259E+04  0.65864270000E+03 0.  0.
    8880022    1    1    2    0    0  0.42734724594E+03 -0.98024374497E+03 -0.99435501692E+03  0.14682087797E+04  0.15294330000E+03 0.  0.
<mgrwt>
<rscale>  0 0.12094788E+04</rscale>
<asrwt>0</asrwt>
<pdfrwt beam="1">  1        2 0.82128694E+00 0.12559115E+04</pdfrwt>
<pdfrwt beam="2">  1       -2 0.20131991E+00 0.12559115E+04</pdfrwt>
<totfact> 0.15512812E-03</totfact>
</mgrwt>
</event>
<event>
 4    5  0.2409888E-007  0.9181051E+03  0.7818608E-02  0.9497571E-01
         -2   -1    0    0    0  501 -0.00000000000E+00  0.00000000000E+00  0.10819380647E+04  0.10819380647E+04  0.25500000000E-02 0.  1.
          2   -1    0    0  501    0  0.00000000000E+00 -0.00000000000E+00 -0.97753230646E+03  0.97753230646E+03  0.25500000000E-02 0. -1.
    8880023    1    1    2    0    0  0.51545104914E+03 -0.37870436772E+03 -0.59922598458E+03  0.10963524839E+04  0.65864270000E+03 0. -1.
    8880022    1    1    2    0    0 -0.51545104914E+03  0.37870436772E+03  0.70363174285E+03  0.96311788726E+03  0.15294330000E+03 0.  0.
<mgrwt>
<rscale>  0 0.84463169E+03</rscale>
<asrwt>0</asrwt>
<pdfrwt beam="1">  1        2 0.15038959E+00 0.91810511E+03</pdfrwt>
<pdfrwt beam="2">  1       -2 0.16645201E+00 0.91810511E+03</pdfrwt>
<totfact> 0.58831079E+00</totfact>
</mgrwt>
</event>
<event>
 4    5  0.2409888E-007  0.7360168E+03  0.7818608E-02  0.9871705E-01
         -2   -1    0    0    0  501 -0.00000000000E+00  0.00000000000E+00  0.53903521659E+03  0.53903521659E+03  0.25500000000E-02 0.  1.
          2   -1    0    0  501    0  0.00000000000E+00 -0.00000000000E+00 -0.19977781437E+04  0.19977781437E+04  0.25500000000E-02 0. -1.
    8880023    1    1    2    0    0  0.32037562441E+03  0.72594527000E+02 -0.18575023801E+04  0.19980079591E+04  0.65864270000E+03 0. -1.
    8880022    1    1    2    0    0 -0.32037562441E+03 -0.72594527000E+02  0.39875945298E+03  0.53880540125E+03  0.15294330000E+03 0.  0.
<mgrwt>
<rscale>  0 0.61652370E+03</rscale>
<asrwt>0</asrwt>
<pdfrwt beam="1">  1        2 0.30735048E+00 0.73601679E+03</pdfrwt>
<pdfrwt beam="2">  1       -2 0.82928496E-01 0.73601679E+03</pdfrwt>
<totfact> 0.88610296E+00</totfact>
</mgrwt>
</event>
<event>
 4    5  0.2409888E-007  0.1206513E+04  0.7818608E-02  0.9150817E-01
          2   -1    0    0  501    0  0.00000000000E+00  0.00000000000E+00  0.40856451950E+04  0.40856451950E+04  0.25500000000E-02 0. -1.
         -2   -1    0    0    0  501 -0.00000000000E+00 -0.00000000000E+00 -0.57475089621E+03  0.57475089622E+03  0.25500000000E-02 0.  1.
    8880023    1    1    2    0    0  0.82355288312E+03 -0.58619385800E+03  0.34286263037E+04  0.36347147243E+04  0.65864270000E+03 0.  0.
    8880022    1    1    2    0    0 -0.82355288312E+03  0.58619385800E+03  0.82267995136E+02  0.10256813669E+04  0.15294330000E+03 0.  0.
<mgrwt>
<rscale>  0 0.11575817E+04</rscale>
<asrwt>0</asrwt>
<pdfrwt beam="1">  1        2 0.62856081E+00 0.12065127E+04</pdfrwt>
<pdfrwt beam="2">  1       -2 0.88423213E-01 0.12065127E+04</pdfrwt>
<totfact> 0.32560881E-01</totfact>
</mgrwt>
</event>
<event>
 4    5  0.2409888E-007  0.1233418E+04  0.7818608E-02  0.9125303E-01
         -2   -1    0    0    0  501 -0.00000000000E+00  0.00000000000E+00  0.79185871258E+03  0.79185871259E+03  0.25500000000E-02 0.  1.
          2   -1    0    0  501    0  0.00000000000E+00 -0.00000000000E+00 -0.28322969097E+04  0.28322969097E+04  0.25500000000E-02 0. -1.
    8880023    1    1    2    0    0  0.10139876770E+04  0.24359496320E+03 -0.22346244907E+04  0.25524236200E+04  0.65864270000E+03 0. -1.
    8880022    1    1    2    0    0 -0.10139876770E+04 -0.24359496320E+03  0.19418629358E+03  0.10717320023E+04  0.15294330000E+03 0.  0.
<mgrwt>
<rscale>  0 0.11858837E+04</rscale>
<asrwt>0</asrwt>
<pdfrwt beam="1">  1        2 0.43573798E+00 0.12334179E+04</pdfrwt>
<pdfrwt beam="2">  1       -2 0.12182442E+00 0.12334179E+04</pdfrwt>
<totfact> 0.11085451E+00</totfact>
</mgrwt>
</event>
<event>
 4    5  0.2409888E-007  0.9135681E+03  0.7818608E-02  0.9504592E-01
          2   -1    0    0  501    0  0.00000000000E+00  0.00000000000E+00  0.10237657912E+04  0.10237657912E+04  0.25500000000E-02 0. -1.
         -2   -1    0    0    0  501 -0.00000000000E+00 -0.00000000000E+00 -0.96922168183E+03  0.96922168183E+03  0.25500000000E-02 0.  1.
    8880023    1    1    2    0    0 -0.33557502953E+03 -0.53682950438E+03  0.64144176290E+03  0.11162680049E+04  0.65864270000E+03 0.  0.
    8880022    1    1    2    0    0  0.33557502953E+03  0.53682950438E+03 -0.58689765350E+03  0.87671946820E+03  0.15294330000E+03 0.  0.
<mgrwt>
<rscale>  0 0.83946100E+03</rscale>
<asrwt>0</asrwt>
<pdfrwt beam="1">  1        2 0.15750243E+00 0.91356813E+03</pdfrwt>
<pdfrwt beam="2">  1       -2 0.14911103E+00 0.91356813E+03</pdfrwt>
<totfact> 0.74013621E+00</totfact>
</mgrwt>
</event>
<event>
 4    5  0.2409888E-007  0.1083564E+04  0.7818608E-02  0.9279580E-01
         -2   -1    0    0    0  501 -0.00000000000E+00  0.00000000000E+00  0.22261167320E+04  0.22261167320E+04  0.25500000000E-02 0.  1.
          2   -1    0    0  501    0  0.00000000000E+00 -0.00000000000E+00 -0.70755194819E+03  0.70755194819E+03  0.25500000000E-02 0. -1.
    8880023    1    1    2    0    0 -0.84155760113E+03 -0.17911347876E+03 -0.10624154433E+03  0.10887599856E+04  0.65864270000E+03 0.  0.
    8880022    1    1    2    0    0  0.84155760113E+03  0.17911347876E+03  0.16248063281E+04  0.18449086946E+04  0.15294330000E+03 0.  0.
<mgrwt>
<rscale>  0 0.10268470E+04</rscale>
<asrwt>0</asrwt>
<pdfrwt beam="1">  1        2 0.10885414E+00 0.10835640E+04</pdfrwt>
<pdfrwt beam="2">  1       -2 0.34247950E+00 0.10835640E+04</pdfrwt>
<totfact> 0.70133873E-01</totfact>
</mgrwt>
</event>
<event>
 4    5  0.2409888E-007  0.1052458E+04  0.7818608E-02  0.9315932E-01
          2   -1    0    0  501    0  0.00000000000E+00  0.00000000000E+00  0.19359901429E+04  0.19359901429E+04  0.25500000000E-02 0. -1.
         -2   -1    0    0    0  501 -0.00000000000E+00 -0.00000000000E+00 -0.92397572205E+03  0.92397572206E+03  0.25500000000E-02 0.  1.
    8880023    1    1    2    0    0  0.68870093603E+03  0.44670981149E+03  0.15449544835E+04  0.18693724073E+04  0.65864270000E+03 0.  0.
    8880022    1    1    2    0    0 -0.68870093603E+03 -0.44670981149E+03 -0.53294006262E+03  0.99059345765E+03  0.15294330000E+03 0.  0.
<mgrwt>
<rscale>  0 0.99329286E+03</rscale>
<asrwt>0</asrwt>
<pdfrwt beam="1">  1        2 0.29784464E+00 0.10524585E+04</pdfrwt>
<pdfrwt beam="2">  1       -2 0.14215011E+00 0.10524585E+04</pdfrwt>
<totfact> 0.24791328E+00</totfact>
</mgrwt>
</event>
<event>
 4    5  0.2409888E-007  0.7107861E+03  0.7818608E-02  0.9955093E-01
         -2   -1    0    0    0  501 -0.00000000000E+00  0.00000000000E+00  0.96985922964E+03  0.96985922964E+03  0.25500000000E-02 0.  1.
          2   -1    0    0  501    0  0.00000000000E+00 -0.00000000000E+00 -0.12027392470E+04  0.12027392471E+04  0.25500000000E-02 0. -1.
    8880023    1    1    2    0    0  0.26121552301E+03 -0.56330959786E+02 -0.10677885747E+04  0.12827273183E+04  0.65864270000E+03 0. -1.
    8880022    1    1    2    0    0 -0.26121552301E+03  0.56330959786E+02  0.83490855731E+03  0.88987115841E+03  0.15294330000E+03 0.  0.
<mgrwt>
<rscale>  0 0.57663942E+03</rscale>
<asrwt>0</asrwt>
<pdfrwt beam="1">  1        2 0.18503681E+00 0.71078614E+03</pdfrwt>
<pdfrwt beam="2">  1       -2 0.14920911E+00 0.71078614E+03</pdfrwt>
<totfact> 0.58882098E+00</totfact>
</mgrwt>
</event>
<event>
 4    5  0.2409888E-007  0.1134255E+04  0.7818608E-02  0.9223842E-01
         -2   -1    0    0    0  501 -0.00000000000E+00  0.00000000000E+00  0.18131937562E+04  0.18131937562E+04  0.25500000000E-02 0.  1.
          2   -1    0    0  501    0  0.00000000000E+00 -0.00000000000E+00 -0.14415180146E+04  0.14415180146E+04  0.25500000000E-02 0. -1.
    8880023    1    1    2    0    0 -0.35572231816E+03  0.85216600305E+03 -0.10545665643E+04  0.15487563105E+04  0.65864270000E+03 0.  0.
    8880022    1    1    2    0    0  0.35572231816E+03 -0.85216600305E+03  0.14262423059E+04  0.17059554603E+04  0.15294330000E+03 0.  0.
<mgrwt>
<rscale>  0 0.10810690E+04</rscale>
<asrwt>0</asrwt>
<pdfrwt beam="1">  1        2 0.22177200E+00 0.11342555E+04</pdfrwt>
<pdfrwt beam="2">  1       -2 0.27895288E+00 0.11342555E+04</pdfrwt>
<totfact> 0.57524900E-01</totfact>
</mgrwt>
</event>
<event>
 4    5  0.2409888E-007  0.1143315E+04  0.7818608E-02  0.9214296E-01
          2   -1    0    0  501    0  0.00000000000E+00  0.00000000000E+00  0.13451243450E+04  0.13451243450E+04  0.25500000000E-02 0. -1.
         -2   -1    0    0    0  501 -0.00000000000E+00 -0.00000000000E+00 -0.16174626690E+04  0.16174626690E+04  0.25500000000E-02 0.  1.
    8880023    1    1    2    0    0 -0.73254502747E+03  0.58029037052E+03  0.90036605709E+03  0.14552760475E+04  0.65864270000E+03 0.  0.
    8880022    1    1    2    0    0  0.73254502747E+03 -0.58029037052E+03 -0.11727043811E+04  0.15073109665E+04  0.15294330000E+03 0.  0.
<mgrwt>
<rscale>  0 0.10907078E+04</rscale>
<asrwt>0</asrwt>
<pdfrwt beam="1">  1        2 0.20694221E+00 0.11433151E+04</pdfrwt>
<pdfrwt beam="2">  1       -2 0.24884041E+00 0.11433151E+04</pdfrwt>
<totfact> 0.99489415E-01</totfact>
</mgrwt>
</event>
<event>
 4    5  0.2409888E-007  0.1191729E+04  0.7818608E-02  0.9165204E-01
         -2   -1    0    0    0  501 -0.00000000000E+00  0.00000000000E+00  0.50944032861E+03  0.50944032862E+03  0.25500000000E-02 0.  1.
          2   -1    0    0  501    0  0.00000000000E+00 -0.00000000000E+00 -0.31119710544E+04  0.31119710544E+04  0.25500000000E-02 0. -1.
    8880023    1    1    2    0    0  0.60414672040E+03 -0.78829908139E+03 -0.50250304603E+03  0.12933399472E+04  0.65864270000E+03 0.  0.
    8880022    1    1    2    0    0 -0.60414672040E+03  0.78829908139E+03 -0.21000276798E+04  0.23280714358E+04  0.15294330000E+03 0.  0.
<mgrwt>
<rscale>  0 0.11419910E+04</rscale>
<asrwt>0</asrwt>
<pdfrwt beam="1">  1        2 0.47876477E+00 0.11917294E+04</pdfrwt>
<pdfrwt beam="2">  1       -2 0.78375437E-01 0.11917294E+04</pdfrwt>
<totfact> 0.21332994E+00</totfact>
</mgrwt>
</event>
<event>
 4    5  0.2409888E-007  0.1263483E+04  0.7818608E-02  0.9097754E-01
          2   -1    0    0  501    0  0.00000000000E+00  0.00000000000E+00  0.91228373518E+03  0.91228373518E+03  0.25500000000E-02 0. -1.
         -2   -1    0    0    0  501 -0.00000000000E+00 -0.00000000000E+00 -0.33704971727E+04  0.33704971727E+04  0.25500000000E-02 0.  1.
    8880023    1    1    2    0    0  0.63310886455E+03  0.87278359932E+03 -0.28563050057E+04  0.31232781717E+04  0.65864270000E+03 0.  0.
    8880022    1    1    2    0    0 -0.63310886455E+03 -0.87278359932E+03  0.39809156820E+03  0.11595027362E+04  0.15294330000E+03 0.  0.
<mgrwt>
<rscale>  0 0.12174080E+04</rscale>
<asrwt>0</asrwt>
<pdfrwt beam="1">  1        2 0.14035135E+00 0.12634826E+04</pdfrwt>
<pdfrwt beam="2">  1       -2 0.51853802E+00 0.12634826E+04</pdfrwt>
<totfact> 0.35375444E-02</totfact>
</mgrwt>
</event>
<event>
 4    5  0.2409888E-007  0.8097663E+03  0.7818608E-02  0.9690064E-01
          2   -1    0    0  501    0  0.00000000000E+00  0.00000000000E+00  0.14586147110E+04  0.14586147110E+04  0.25500000000E-02 0. -1.
         -2   -1    0    0    0  501 -0.00000000000E+00 -0.00000000000E+00 -0.79091484314E+03  0.79091484314E+03  0.25500000000E-02 0.  1.
    8880023    1    1    2    0    0 -0.33872593465E+03  0.32737749233E+03  0.12473218347E+04  0.14871224721E+04  0.65864270000E+03 0.  0.
    8880022    1    1    2    0    0  0.33872593465E+03 -0.32737749233E+03 -0.57962196687E+03  0.76240708207E+03  0.15294330000E+03 0.  0.
<mgrwt>
<rscale>  0 0.71611476E+03</rscale>
<asrwt>0</asrwt>
<pdfrwt beam="1">  1        2 0.22440226E+00 0.80976632E+03</pdfrwt>
<pdfrwt beam="2">  1       -2 0.12167921E+00 0.80976632E+03</pdfrwt>
<totfact> 0.69825392E+00</totfact>
</mgrwt>
</event>
<event>
 4    5  0.2409888E-007  0.7272597E+03  0.7818608E-02  0.9898746E-01
          2   -1    0    0  501    0  0.00000000000E+00  0.00000000000E+00  0.78477662122E+03  0.78477662123E+03  0.25500000000E-02 0. -1.
         -2   -1    0    0    0  501 -0.00000000000E+00 -0.00000000000E+00 -0.36573565482E+03  0.36573565483E+03  0.25500000000E-02 0.  1.
    8880023    1    1    2    0    0 -0.27187295572E+03 -0.14553890741E+03  0.28616802278E+03  0.78153619311E+03  0.65864270000E+03 0.  1.
    8880022    1    1    2    0    0  0.27187295572E+03  0.14553890741E+03  0.13287294362E+03  0.36897608294E+03  0.15294330000E+03 0. -1.
<mgrwt>
<rscale>  0 0.60322107E+03</rscale>
<asrwt>0</asrwt>
<pdfrwt beam="1">  1        2 0.12073486E+00 0.72725971E+03</pdfrwt>
<pdfrwt beam="2">  1       -2 0.56267024E-01 0.72725971E+03</pdfrwt>
<totfact> 0.10618430E+02</totfact>
</mgrwt>
</event>
<event>
 4    5  0.2409888E-007  0.1207007E+04  0.7818608E-02  0.9150341E-01
         -2   -1    0    0    0  501 -0.00000000000E+00  0.00000000000E+00  0.16706559233E+04  0.16706559233E+04  0.25500000000E-02 0.  1.
          2   -1    0    0  501    0  0.00000000000E+00 -0.00000000000E+00 -0.77356973922E+03  0.77356973923E+03  0.25500000000E-02 0. -1.
    8880023    1    1    2    0    0  0.35150504673E+03 -0.94841960684E+03  0.24653145437E+03  0.12319267481E+04  0.65864270000E+03 0.  1.
    8880022    1    1    2    0    0 -0.35150504673E+03  0.94841960684E+03  0.65055472975E+03  0.12122989144E+04  0.15294330000E+03 0. -1.
<mgrwt>
<rscale>  0 0.11581025E+04</rscale>
<asrwt>0</asrwt>
<pdfrwt beam="1">  1        2 0.11901073E+00 0.12070069E+04</pdfrwt>
<pdfrwt beam="2">  1       -2 0.25702399E+00 0.12070069E+04</pdfrwt>
<totfact> 0.20468553E+00</totfact>
</mgrwt>
</event>
<event>
 4    5  0.2409888E-007  0.6962726E+03  0.7818608E-02  0.1001303E+00
         -2   -1    0    0    0  501 -0.00000000000E+00  0.00000000000E+00  0.25045866599E+03  0.25045866600E+03  0.25500000000E-02 0.  1.
          2   -1    0    0  501    0  0.00000000000E+00 -0.00000000000E+00 -0.11419282620E+04  0.11419282620E+04  0.25500000000E-02 0. -1.
    8880023    1    1    2    0    0  0.17463840519E+03 -0.14313176567E+03 -0.87630615363E+03  0.11192443683E+04  0.65864270000E+03 0. -1.
    8880022    1    1    2    0    0 -0.17463840519E+03  0.14313176567E+03 -0.15163442400E+02  0.27314255969E+03  0.15294330000E+03 0.  0.
<mgrwt>
<rscale>  0 0.55082576E+03</rscale>
<asrwt>0</asrwt>
<pdfrwt beam="1">  1        2 0.17568127E+00 0.69627256E+03</pdfrwt>
<pdfrwt beam="2">  1       -2 0.38532103E-01 0.69627256E+03</pdfrwt>
<totfact> 0.13290386E+02</totfact>
</mgrwt>
</event>
<event>
 4    5  0.2409888E-007  0.9302563E+03  0.7818608E-02  0.9479109E-01
         -2   -1    0    0    0  501 -0.00000000000E+00  0.00000000000E+00  0.17134075760E+04  0.17134075760E+04  0.25500000000E-02 0.  1.
          2   -1    0    0  501    0  0.00000000000E+00 -0.00000000000E+00 -0.48797593877E+03  0.48797593877E+03  0.25500000000E-02 0. -1.
    8880023    1    1    2    0    0 -0.46951209663E+03 -0.45948339937E+03  0.16524457474E+03  0.94481880746E+03  0.65864270000E+03 0.  0.
    8880022    1    1    2    0    0  0.46951209663E+03  0.45948339937E+03  0.10601870625E+04  0.12565647073E+04  0.15294330000E+03 0.  0.
<mgrwt>
<rscale>  0 0.85841721E+03</rscale>
<asrwt>0</asrwt>
<pdfrwt beam="1">  1        2 0.75073222E-01 0.93025631E+03</pdfrwt>
<pdfrwt beam="2">  1       -2 0.26360116E+00 0.93025631E+03</pdfrwt>
<totfact> 0.33913236E+00</totfact>
</mgrwt>
</event>
<event>
 4    5  0.2409888E-007  0.9087096E+03  0.7818608E-02  0.9512192E-01
         -2   -1    0    0    0  501 -0.00000000000E+00  0.00000000000E+00  0.95924705281E+03  0.95924705281E+03  0.25500000000E-02 0.  1.
          2   -1    0    0  501    0  0.00000000000E+00 -0.00000000000E+00 -0.70036724570E+03  0.70036724571E+03  0.25500000000E-02 0. -1.
    8880023    1    1    2    0    0  0.25576671672E+03  0.57142485942E+03 -0.11274808949E+03  0.91567752036E+03  0.65864270000E+03 0.  0.
    8880022    1    1    2    0    0 -0.25576671672E+03 -0.57142485942E+03  0.37162789660E+03  0.74393677816E+03  0.15294330000E+03 0.  0.
<mgrwt>
<rscale>  0 0.83390891E+03</rscale>
<asrwt>0</asrwt>
<pdfrwt beam="1">  1        2 0.10774881E+00 0.90870963E+03</pdfrwt>
<pdfrwt beam="2">  1       -2 0.14757647E+00 0.90870963E+03</pdfrwt>
<totfact> 0.12809530E+01</totfact>
</mgrwt>
</event>
<event>
 4    5  0.2409888E-007  0.1481383E+04  0.7818608E-02  0.8922895E-01
         -2   -1    0    0    0  501 -0.00000000000E+00  0.00000000000E+00  0.60595326274E+03  0.60595326274E+03  0.25500000000E-02 0.  1.
          2   -1    0    0  501    0  0.00000000000E+00 -0.00000000000E+00 -0.43250722704E+04  0.43250722704E+04  0.25500000000E-02 0. -1.
    8880023    1    1    2    0    0  0.12086466652E+04  0.54759461279E+03 -0.31464660075E+04  0.34777500146E+04  0.65864270000E+03 0.  0.
    8880022    1    1    2    0    0 -0.12086466652E+04 -0.54759461279E+03 -0.57265300016E+03  0.14532755186E+04  0.15294330000E+03 0.  0.
<mgrwt>
<rscale>  0 0.14435351E+04</rscale>
<asrwt>0</asrwt>
<pdfrwt beam="1">  1        2 0.66539571E+00 0.14813834E+04</pdfrwt>
<pdfrwt beam="2">  1       -2 0.93223582E-01 0.14813834E+04</pdfrwt>
<totfact> 0.17191082E-01</totfact>
</mgrwt>
</event>
<event>
 4    5  0.2409888E-007  0.7117091E+03  0.7818608E-02  0.9951708E-01
         -2   -1    0    0    0  501 -0.00000000000E+00  0.00000000000E+00  0.59709813801E+03  0.59709813801E+03  0.25500000000E-02 0.  1.
          2   -1    0    0  501    0  0.00000000000E+00 -0.00000000000E+00 -0.50140288909E+03  0.50140288910E+03  0.25500000000E-02 0. -1.
    8880023    1    1    2    0    0 -0.15924567656E+03 -0.21762458444E+03 -0.11874199758E+03  0.72154661215E+03  0.65864270000E+03 0. -1.
    8880022    1    1    2    0    0  0.15924567656E+03  0.21762458444E+03  0.21443724650E+03  0.37695441496E+03  0.15294330000E+03 0.  0.
<mgrwt>
<rscale>  0 0.57819416E+03</rscale>
<asrwt>0</asrwt>
<pdfrwt beam="1">  1        2 0.77138906E-01 0.71170911E+03</pdfrwt>
<pdfrwt beam="2">  1       -2 0.91861252E-01 0.71170911E+03</pdfrwt>
<totfact> 0.62730284E+01</totfact>
</mgrwt>
</event>
<event>
 4    5  0.2409888E-007  0.7585881E+03  0.7818608E-02  0.9808776E-01
          2   -1    0    0  501    0  0.00000000000E+00  0.00000000000E+00  0.12808755995E+04  0.12808755995E+04  0.25500000000E-02 0. -1.
         -2   -1    0    0    0  501 -0.00000000000E+00 -0.00000000000E+00 -0.47079508465E+03  0.47079508466E+03  0.25500000000E-02 0.  1.
    8880023    1    1    2    0    0 -0.36791477380E+03  0.79274552859E+02  0.10381565198E+04  0.12857779363E+04  0.65864270000E+03 0.  0.
    8880022    1    1    2    0    0  0.36791477380E+03 -0.79274552859E+02 -0.22807600494E+03  0.46589274791E+03  0.15294330000E+03 0.  0.
<mgrwt>
<rscale>  0 0.64893668E+03</rscale>
<asrwt>0</asrwt>
<pdfrwt beam="1">  1        2 0.19705778E+00 0.75858812E+03</pdfrwt>
<pdfrwt beam="2">  1       -2 0.72430014E-01 0.75858812E+03</pdfrwt>
<totfact> 0.29810479E+01</totfact>
</mgrwt>
</event>
<event>
 4    5  0.2409888E-007  0.1126659E+04  0.7818608E-02  0.9231940E-01
          2   -1    0    0  501    0  0.00000000000E+00  0.00000000000E+00  0.18061222816E+04  0.18061222816E+04  0.25500000000E-02 0. -1.
         -2   -1    0    0    0  501 -0.00000000000E+00 -0.00000000000E+00 -0.12971614640E+04  0.12971614640E+04  0.25500000000E-02 0.  1.
    8880023    1    1    2    0    0  0.90081688223E+03  0.15517374542E+03  0.14139477929E+04  0.18079293443E+04  0.65864270000E+03 0. -1.
    8880022    1    1    2    0    0 -0.90081688223E+03 -0.15517374542E+03 -0.90498697534E+03  0.12953544014E+04  0.15294330000E+03 0.  0.
<mgrwt>
<rscale>  0 0.10729754E+04</rscale>
<asrwt>0</asrwt>
<pdfrwt beam="1">  1        2 0.27786497E+00 0.11266588E+04</pdfrwt>
<pdfrwt beam="2">  1       -2 0.19956330E+00 0.11266588E+04</pdfrwt>
<totfact> 0.11225218E+00</totfact>
</mgrwt>
</event>
<event>
 4    5  0.2409888E-007  0.9474845E+03  0.7818608E-02  0.9453743E-01
         -2   -1    0    0    0  501 -0.00000000000E+00  0.00000000000E+00  0.75202915934E+03  0.75202915934E+03  0.25500000000E-02 0.  1.
          2   -1    0    0  501    0  0.00000000000E+00 -0.00000000000E+00 -0.19977843139E+04  0.19977843139E+04  0.25500000000E-02 0. -1.
    8880023    1    1    2    0    0 -0.20983500144E+03  0.64798605248E+03 -0.16792373087E+04  0.19280987520E+04  0.65864270000E+03 0. -1.
    8880022    1    1    2    0    0  0.20983500144E+03 -0.64798605248E+03  0.43348215422E+03  0.82171472123E+03  0.15294330000E+03 0.  0.
<mgrwt>
<rscale>  0 0.87781815E+03</rscale>
<asrwt>0</asrwt>
<pdfrwt beam="1">  1        2 0.30735143E+00 0.94748449E+03</pdfrwt>
<pdfrwt beam="2">  1       -2 0.11569679E+00 0.94748449E+03</pdfrwt>
<totfact> 0.39166238E+00</totfact>
</mgrwt>
</event>
<event>
 4    5  0.2409888E-007  0.6683060E+03  0.7818608E-02  0.1016907E+00
         -2   -1    0    0    0  501 -0.00000000000E+00  0.00000000000E+00  0.27849206499E+03  0.27849206500E+03  0.25500000000E-02 0.  1.
          2   -1    0    0  501    0  0.00000000000E+00 -0.00000000000E+00 -0.11742083104E+04  0.11742083104E+04  0.25500000000E-02 0. -1.
    8880023    1    1    2    0    0  0.58029849527E+01  0.11308849737E+03 -0.10242944230E+04  0.12230339137E+04  0.65864270000E+03 0. -1.
    8880022    1    1    2    0    0 -0.58029849527E+01 -0.11308849737E+03  0.12857817757E+03  0.22966646171E+03  0.15294330000E+03 0.  0.
<mgrwt>
<rscale>  0 0.48819303E+03</rscale>
<asrwt>0</asrwt>
<pdfrwt beam="1">  1        2 0.18064743E+00 0.66830598E+03</pdfrwt>
<pdfrwt beam="2">  1       -2 0.42844934E-01 0.66830598E+03</pdfrwt>
<totfact> 0.10357660E+02</totfact>
</mgrwt>
</event>
<event>
 4    5  0.2409888E-007  0.1356726E+04  0.7818608E-02  0.9018059E-01
         -2   -1    0    0    0  501 -0.00000000000E+00  0.00000000000E+00  0.58122311657E+03  0.58122311658E+03  0.25500000000E-02 0.  1.
          2   -1    0    0  501    0  0.00000000000E+00 -0.00000000000E+00 -0.31510832591E+04  0.31510832591E+04  0.25500000000E-02 0. -1.
    8880023    1    1    2    0    0 -0.11859966293E+04  0.17503292176E+02 -0.19762664201E+04  0.23971511299E+04  0.65864270000E+03 0. -1.
    8880022    1    1    2    0    0  0.11859966293E+04 -0.17503292176E+02 -0.59359372241E+03  0.13351552458E+04  0.15294330000E+03 0.  0.
<mgrwt>
<rscale>  0 0.13146099E+04</rscale>
<asrwt>0</asrwt>
<pdfrwt beam="1">  1        2 0.48478203E+00 0.13567257E+04</pdfrwt>
<pdfrwt beam="2">  1       -2 0.89418942E-01 0.13567257E+04</pdfrwt>
<totfact> 0.14601725E+00</totfact>
</mgrwt>
</event>
<event>
 4    5  0.2409888E-007  0.7086734E+03  0.7818608E-02  0.9962961E-01
         -2   -1    0    0    0  501 -0.00000000000E+00  0.00000000000E+00  0.12494355846E+04  0.12494355846E+04  0.25500000000E-02 0.  1.
          2   -1    0    0  501    0  0.00000000000E+00 -0.00000000000E+00 -0.54273237477E+03  0.54273237478E+03  0.25500000000E-02 0. -1.
    8880023    1    1    2    0    0  0.24758989344E+03  0.84302913664E+02 -0.27849626713E+03  0.76143162113E+03  0.65864270000E+03 0. -1.
    8880022    1    1    2    0    0 -0.24758989344E+03 -0.84302913664E+02  0.98519947698E+03  0.10307363383E+04  0.15294330000E+03 0.  0.
<mgrwt>
<rscale>  0 0.57304610E+03</rscale>
<asrwt>0</asrwt>
<pdfrwt beam="1">  1        2 0.83497289E-01 0.70867337E+03</pdfrwt>
<pdfrwt beam="2">  1       -2 0.19222086E+00 0.70867337E+03</pdfrwt>
<totfact> 0.85720322E+00</totfact>
</mgrwt>
</event>
<event>
 4    5  0.2409888E-007  0.8249827E+03  0.7818608E-02  0.9659174E-01
          2   -1    0    0  501    0  0.00000000000E+00  0.00000000000E+00  0.16760914762E+04  0.16760914762E+04  0.25500000000E-02 0. -1.
         -2   -1    0    0    0  501 -0.00000000000E+00 -0.00000000000E+00 -0.46907318237E+03  0.46907318238E+03  0.25500000000E-02 0.  1.
    8880023    1    1    2    0    0  0.34918280866E+03  0.35335202232E+03  0.13710440966E+04  0.16001119982E+04  0.65864270000E+03 0. -1.
    8880022    1    1    2    0    0 -0.34918280866E+03 -0.35335202232E+03 -0.16402580285E+03  0.54505266035E+03  0.15294330000E+03 0.  0.
<mgrwt>
<rscale>  0 0.73500429E+03</rscale>
<asrwt>0</asrwt>
<pdfrwt beam="1">  1        2 0.25786022E+00 0.82498272E+03</pdfrwt>
<pdfrwt beam="2">  1       -2 0.72165107E-01 0.82498272E+03</pdfrwt>
<totfact> 0.17898498E+01</totfact>
</mgrwt>
</event>
<event>
 4    5  0.2409888E-007  0.6854867E+03  0.7818608E-02  0.1006376E+00
          2   -1    0    0  501    0  0.00000000000E+00  0.00000000000E+00  0.73150836931E+03  0.73150836931E+03  0.25500000000E-02 0. -1.
         -2   -1    0    0    0  501 -0.00000000000E+00 -0.00000000000E+00 -0.17051172860E+04  0.17051172860E+04  0.25500000000E-02 0.  1.
    8880023    1    1    2    0    0  0.18619999075E+03 -0.37567731129E+02  0.55913389143E+03  0.88460312332E+03  0.65864270000E+03 0. -1.
    8880022    1    1    2    0    0 -0.18619999075E+03  0.37567731129E+02 -0.15327428081E+04  0.15520225320E+04  0.15294330000E+03 0.  0.
<mgrwt>
<rscale>  0 0.52940694E+03</rscale>
<asrwt>0</asrwt>
<pdfrwt beam="1">  1        2 0.11253975E+00 0.68548667E+03</pdfrwt>
<pdfrwt beam="2">  1       -2 0.26232574E+00 0.68548667E+03</pdfrwt>
<totfact> 0.21855230E+00</totfact>
</mgrwt>
</event>
<event>
 4    5  0.2409888E-007  0.1403969E+04  0.7818608E-02  0.8980605E-01
          2   -1    0    0  501    0  0.00000000000E+00  0.00000000000E+00  0.15018474815E+04  0.15018474815E+04  0.25500000000E-02 0. -1.
         -2   -1    0    0    0  501 -0.00000000000E+00 -0.00000000000E+00 -0.13099875920E+04  0.13099875920E+04  0.25500000000E-02 0.  1.
    8880023    1    1    2    0    0  0.72294354663E+03  0.10073086415E+04 -0.35491914966E+03  0.14481353113E+04  0.65864270000E+03 0.  1.
    8880022    1    1    2    0    0 -0.72294354663E+03 -0.10073086415E+04  0.54677903909E+03  0.13636997622E+04  0.15294330000E+03 0.  0.
<mgrwt>
<rscale>  0 0.13635886E+04</rscale>
<asrwt>0</asrwt>
<pdfrwt beam="1">  1        2 0.23105346E+00 0.14039688E+04</pdfrwt>
<pdfrwt beam="2">  1       -2 0.20153655E+00 0.14039688E+04</pdfrwt>
<totfact> 0.15639198E+00</totfact>
</mgrwt>
</event>
<event>
 4    5  0.2409888E-007  0.7880952E+03  0.7818608E-02  0.9737154E-01
         -2   -1    0    0    0  501 -0.00000000000E+00  0.00000000000E+00  0.71994658352E+03  0.71994658353E+03  0.25500000000E-02 0.  1.
          2   -1    0    0  501    0  0.00000000000E+00 -0.00000000000E+00 -0.23649650487E+04  0.23649650487E+04  0.25500000000E-02 0. -1.
    8880023    1    1    2    0    0  0.35425077428E+03  0.24857647779E+03 -0.22162029148E+04  0.23521584645E+04  0.65864270000E+03 0. -1.
    8880022    1    1    2    0    0 -0.35425077428E+03 -0.24857647779E+03  0.57118444958E+03  0.73275316775E+03  0.15294330000E+03 0.  0.
<mgrwt>
<rscale>  0 0.68847121E+03</rscale>
<asrwt>0</asrwt>
<pdfrwt beam="1">  1        2 0.36384077E+00 0.78809522E+03</pdfrwt>
<pdfrwt beam="2">  1       -2 0.11076101E+00 0.78809522E+03</pdfrwt>
<totfact> 0.27955215E+00</totfact>
</mgrwt>
</event>
<event>
 4    5  0.2409888E-007  0.1550151E+04  0.7818608E-02  0.8875011E-01
         -2   -1    0    0    0  501 -0.00000000000E+00  0.00000000000E+00  0.28978110266E+04  0.28978110266E+04  0.25500000000E-02 0.  1.
          2   -1    0    0  501    0  0.00000000000E+00 -0.00000000000E+00 -0.77026177470E+03  0.77026177471E+03  0.25500000000E-02 0. -1.
    8880023    1    1    2    0    0 -0.13788830896E+04  0.26046130184E+03  0.87015140159E+03  0.17776761045E+04  0.65864270000E+03 0.  1.
    8880022    1    1    2    0    0  0.13788830896E+04 -0.26046130184E+03  0.12573978503E+04  0.18903966968E+04  0.15294330000E+03 0. -1.
<mgrwt>
<rscale>  0 0.15142818E+04</rscale>
<asrwt>0</asrwt>
<pdfrwt beam="1">  1        2 0.11850181E+00 0.15501512E+04</pdfrwt>
<pdfrwt beam="2">  1       -2 0.44581708E+00 0.15501512E+04</pdfrwt>
<totfact> 0.12702241E-01</totfact>
</mgrwt>
</event>
<event>
 4    5  0.2409888E-007  0.1534600E+04  0.7818608E-02  0.8885583E-01
          2   -1    0    0  501    0  0.00000000000E+00  0.00000000000E+00  0.14497481365E+04  0.14497481365E+04  0.25500000000E-02 0. -1.
         -2   -1    0    0    0  501 -0.00000000000E+00 -0.00000000000E+00 -0.17357995018E+04  0.17357995018E+04  0.25500000000E-02 0.  1.
    8880023    1    1    2    0    0  0.13040753753E+04  0.46965204190E+03  0.46260312133E+03  0.16028092460E+04  0.65864270000E+03 0.  0.
    8880022    1    1    2    0    0 -0.13040753753E+04 -0.46965204190E+03 -0.74865448669E+03  0.15827383923E+04  0.15294330000E+03 0.  0.
<mgrwt>
<rscale>  0 0.14983023E+04</rscale>
<asrwt>0</asrwt>
<pdfrwt beam="1">  1        2 0.22303818E+00 0.15345996E+04</pdfrwt>
<pdfrwt beam="2">  1       -2 0.26704608E+00 0.15345996E+04</pdfrwt>
<totfact> 0.64217938E-01</totfact>
</mgrwt>
</event>
<event>
 4    5  0.2409888E-007  0.6915754E+03  0.7818608E-02  0.1003413E+00
          2   -1    0    0  501    0  0.00000000000E+00  0.00000000000E+00  0.19193670252E+04  0.19193670252E+04  0.25500000000E-02 0. -1.
         -2   -1    0    0    0  501 -0.00000000000E+00 -0.00000000000E+00 -0.43967632547E+03  0.43967632548E+03  0.25500000000E-02 0.  1.
    8880023    1    1    2    0    0  0.19180062219E+03  0.87629006380E+02  0.18104380388E+04  0.19380305519E+04  0.65864270000E+03 0. -1.
    8880022    1    1    2    0    0 -0.19180062219E+03 -0.87629006380E+02 -0.33074733907E+03  0.42101279880E+03  0.15294330000E+03 0.  0.
<mgrwt>
<rscale>  0 0.54178847E+03</rscale>
<asrwt>0</asrwt>
<pdfrwt beam="1">  1        2 0.29528724E+00 0.69157540E+03</pdfrwt>
<pdfrwt beam="2">  1       -2 0.67642511E-01 0.69157540E+03</pdfrwt>
<totfact> 0.15457366E+01</totfact>
</mgrwt>
</event>
<event>
 4    5  0.2409888E-007  0.1008570E+04  0.7818608E-02  0.9370430E-01
         -2   -1    0    0    0  501 -0.00000000000E+00  0.00000000000E+00  0.21072087800E+04  0.21072087800E+04  0.25500000000E-02 0.  1.
          2   -1    0    0  501    0  0.00000000000E+00 -0.00000000000E+00 -0.12237648705E+04  0.12237648705E+04  0.25500000000E-02 0. -1.
    8880023    1    1    2    0    0  0.60557855421E+03  0.46548731678E+03 -0.92084484052E+03  0.13657119953E+04  0.65864270000E+03 0.  0.
    8880022    1    1    2    0    0 -0.60557855421E+03 -0.46548731678E+03  0.18042887499E+04  0.19652616552E+04  0.15294330000E+03 0.  0.
<mgrwt>
<rscale>  0 0.94549649E+03</rscale>
<asrwt>0</asrwt>
<pdfrwt beam="1">  1        2 0.18827152E+00 0.10085703E+04</pdfrwt>
<pdfrwt beam="2">  1       -2 0.32418597E+00 0.10085703E+04</pdfrwt>
<totfact> 0.41615276E-01</totfact>
</mgrwt>
</event>
<event>
 4    5  0.2409888E-007  0.7307715E+03  0.7818608E-02  0.9887693E-01
         -2   -1    0    0    0  501 -0.00000000000E+00  0.00000000000E+00  0.33125891148E+03  0.33125891149E+03  0.25500000000E-02 0.  1.
          2   -1    0    0  501    0  0.00000000000E+00 -0.00000000000E+00 -0.20465168260E+04  0.20465168260E+04  0.25500000000E-02 0. -1.
    8880023    1    1    2    0    0  0.26364972312E+03 -0.17523032719E+03 -0.18593596977E+04  0.19978101851E+04  0.65864270000E+03 0. -1.
    8880022    1    1    2    0    0 -0.26364972312E+03  0.17523032719E+03  0.14410178317E+03  0.37996555238E+03  0.15294330000E+03 0.  0.
<mgrwt>
<rscale>  0 0.60861445E+03</rscale>
<asrwt>0</asrwt>
<pdfrwt beam="1">  1        2 0.31484873E+00 0.73077154E+03</pdfrwt>
<pdfrwt beam="2">  1       -2 0.50962911E-01 0.73077154E+03</pdfrwt>
<totfact> 0.23758690E+01</totfact>
</mgrwt>
</event>
<event>
 4    5  0.2409888E-007  0.7904978E+03  0.7818608E-02  0.9731731E-01
          2   -1    0    0  501    0  0.00000000000E+00  0.00000000000E+00  0.83976330844E+03  0.83976330844E+03  0.25500000000E-02 0. -1.
         -2   -1    0    0    0  501 -0.00000000000E+00 -0.00000000000E+00 -0.59173933459E+03  0.59173933459E+03  0.25500000000E-02 0.  1.
    8880023    1    1    2    0    0 -0.27173509077E+03  0.34239837614E+03  0.46817039029E+03  0.91873300156E+03  0.65864270000E+03 0. -1.
    8880022    1    1    2    0    0  0.27173509077E+03 -0.34239837614E+03 -0.22014641644E+03  0.51276964148E+03  0.15294330000E+03 0.  0.
<mgrwt>
<rscale>  0 0.69158552E+03</rscale>
<asrwt>0</asrwt>
<pdfrwt beam="1">  1        2 0.12919435E+00 0.79049783E+03</pdfrwt>
<pdfrwt beam="2">  1       -2 0.91036821E-01 0.79049783E+03</pdfrwt>
<totfact> 0.33570728E+01</totfact>
</mgrwt>
</event>
<event>
 4    5  0.2409888E-007  0.6786303E+03  0.7818608E-02  0.1010109E+00
          2   -1    0    0  501    0  0.00000000000E+00  0.00000000000E+00  0.37250040327E+03  0.37250040328E+03  0.25500000000E-02 0. -1.
         -2   -1    0    0    0  501 -0.00000000000E+00 -0.00000000000E+00 -0.15801164322E+04  0.15801164322E+04  0.25500000000E-02 0.  1.
    8880023    1    1    2    0    0 -0.13515234705E+03 -0.91992823205E+02  0.45029637226E+02  0.68012257052E+03  0.65864270000E+03 0. -1.
    8880022    1    1    2    0    0  0.13515234705E+03  0.91992823205E+02 -0.12526456661E+04  0.12724942649E+04  0.15294330000E+03 0.  0.
<mgrwt>
<rscale>  0 0.51431221E+03</rscale>
<asrwt>0</asrwt>
<pdfrwt beam="1">  1        2 0.57307755E-01 0.67863027E+03</pdfrwt>
<pdfrwt beam="2">  1       -2 0.24309483E+00 0.67863027E+03</pdfrwt>
<totfact> 0.63255176E+00</totfact>
</mgrwt>
</event>
<event>
 4    5  0.2409888E-007  0.1134568E+04  0.7818608E-02  0.9223511E-01
          2   -1    0    0  501    0  0.00000000000E+00  0.00000000000E+00  0.12596352180E+04  0.12596352180E+04  0.25500000000E-02 0. -1.
         -2   -1    0    0    0  501 -0.00000000000E+00 -0.00000000000E+00 -0.19906074132E+04  0.19906074132E+04  0.25500000000E-02 0.  1.
    8880023    1    1    2    0    0  0.80475448022E+03  0.45365682752E+03  0.84665333389E+03  0.14156505094E+04  0.65864270000E+03 0.  0.
    8880022    1    1    2    0    0 -0.80475448022E+03 -0.45365682752E+03 -0.15776255291E+04  0.18345921218E+04  0.15294330000E+03 0.  0.
<mgrwt>
<rscale>  0 0.10814017E+04</rscale>
<asrwt>0</asrwt>
<pdfrwt beam="1">  1        2 0.19379003E+00 0.11345680E+04</pdfrwt>
<pdfrwt beam="2">  1       -2 0.30624729E+00 0.11345680E+04</pdfrwt>
<totfact> 0.50062910E-01</totfact>
</mgrwt>
</event>
<event>
 4    5  0.2409888E-007  0.8170013E+03  0.7818608E-02  0.9675174E-01
          2   -1    0    0  501    0  0.00000000000E+00  0.00000000000E+00  0.25345848167E+04  0.25345848167E+04  0.25500000000E-02 0. -1.
         -2   -1    0    0    0  501 -0.00000000000E+00 -0.00000000000E+00 -0.21566815153E+03  0.21566815155E+03  0.25500000000E-02 0.  1.
    8880023    1    1    2    0    0 -0.97746502338E+02  0.47341997032E+03  0.19757674766E+04  0.21380243625E+04  0.65864270000E+03 0. -1.
    8880022    1    1    2    0    0  0.97746502338E+02 -0.47341997032E+03  0.34314918860E+03  0.61222860572E+03  0.15294330000E+03 0.  0.
<mgrwt>
<rscale>  0 0.72514356E+03</rscale>
<asrwt>0</asrwt>
<pdfrwt beam="1">  1        2 0.38993611E+00 0.81700126E+03</pdfrwt>
<pdfrwt beam="2">  1       -2 0.33179717E-01 0.81700126E+03</pdfrwt>
<totfact> 0.29168626E+01</totfact>
</mgrwt>
</event>
<event>
 4    5  0.2409888E-007  0.2367770E+04  0.7818608E-02  0.8460242E-01
         -2   -1    0    0    0  501 -0.00000000000E+00  0.00000000000E+00  0.20497775780E+04  0.20497775780E+04  0.25500000000E-02 0.  1.
          2   -1    0    0  501    0  0.00000000000E+00 -0.00000000000E+00 -0.40305585933E+04  0.40305585933E+04  0.25500000000E-02 0. -1.
    8880023    1    1    2    0    0 -0.17445426489E+04  0.14591422386E+04 -0.27920127901E+04  0.36608292438E+04  0.65864270000E+03 0.  0.
    8880022    1    1    2    0    0  0.17445426489E+04 -0.14591422386E+04  0.81123177484E+03  0.24195069274E+04  0.15294330000E+03 0.  0.
<mgrwt>
<rscale>  0 0.23453757E+04</rscale>
<asrwt>0</asrwt>
<pdfrwt beam="1">  1        2 0.62008594E+00 0.23677701E+04</pdfrwt>
<pdfrwt beam="2">  1       -2 0.31535040E+00 0.23677701E+04</pdfrwt>
<totfact> 0.70151752E-03</totfact>
</mgrwt>
</event>
<event>
 4    5  0.2409888E-007  0.7314085E+03  0.7818608E-02  0.9885719E-01
          2   -1    0    0  501    0  0.00000000000E+00  0.00000000000E+00  0.85833620199E+03  0.85833620200E+03  0.25500000000E-02 0. -1.
         -2   -1    0    0    0  501 -0.00000000000E+00 -0.00000000000E+00 -0.51515546888E+03  0.51515546888E+03  0.25500000000E-02 0.  1.
    8880023    1    1    2    0    0 -0.17539021058E+03 -0.26530446597E+03  0.59259968994E+03  0.94134626170E+03  0.65864270000E+03 0. -1.
    8880022    1    1    2    0    0  0.17539021058E+03  0.26530446597E+03 -0.24941895683E+03  0.43214540918E+03  0.15294330000E+03 0.  0.
<mgrwt>
<rscale>  0 0.60958397E+03</rscale>
<asrwt>0</asrwt>
<pdfrwt beam="1">  1        2 0.13205172E+00 0.73140850E+03</pdfrwt>
<pdfrwt beam="2">  1       -2 0.79254688E-01 0.73140850E+03</pdfrwt>
<totfact> 0.44911674E+01</totfact>
</mgrwt>
</event>
<event>
 4    5  0.2409888E-007  0.1299685E+04  0.7818608E-02  0.9065832E-01
          2   -1    0    0  501    0  0.00000000000E+00  0.00000000000E+00  0.49384846098E+04  0.49384846098E+04  0.25500000000E-02 0. -1.
         -2   -1    0    0    0  501 -0.00000000000E+00 -0.00000000000E+00 -0.59046452878E+03  0.59046452879E+03  0.25500000000E-02 0.  1.
    8880023    1    1    2    0    0  0.68783166404E+03  0.88445331886E+03  0.41902374668E+04  0.43871711051E+04  0.65864270000E+03 0. -1.
    8880022    1    1    2    0    0 -0.68783166404E+03 -0.88445331886E+03  0.15778261421E+03  0.11417780334E+04  0.15294330000E+03 0.  0.
<mgrwt>
<rscale>  0 0.12552413E+04</rscale>
<asrwt>0</asrwt>
<pdfrwt beam="1">  1        2 0.75976684E+00 0.12996847E+04</pdfrwt>
<pdfrwt beam="2">  1       -2 0.90840699E-01 0.12996847E+04</pdfrwt>
<totfact> 0.43604797E-02</totfact>
</mgrwt>
</event>
<event>
 4    5  0.2409888E-007  0.1013346E+04  0.7818608E-02  0.9364302E-01
         -2   -1    0    0    0  501 -0.00000000000E+00  0.00000000000E+00  0.11710708406E+04  0.11710708406E+04  0.25500000000E-02 0.  1.
          2   -1    0    0  501    0  0.00000000000E+00 -0.00000000000E+00 -0.10210760526E+04  0.10210760526E+04  0.25500000000E-02 0. -1.
    8880023    1    1    2    0    0 -0.23531747943E+03 -0.73327016288E+03  0.70167249039E+03  0.12325639691E+04  0.65864270000E+03 0.  1.
    8880022    1    1    2    0    0  0.23531747943E+03  0.73327016288E+03 -0.55167770238E+03  0.95958292410E+03  0.15294330000E+03 0.  0.
<mgrwt>
<rscale>  0 0.95072644E+03</rscale>
<asrwt>0</asrwt>
<pdfrwt beam="1">  1        2 0.15708862E+00 0.10133458E+04</pdfrwt>
<pdfrwt beam="2">  1       -2 0.18016474E+00 0.10133458E+04</pdfrwt>
<totfact> 0.43716274E+00</totfact>
</mgrwt>
</event>
<event>
 4    5  0.2409888E-007  0.1041751E+04  0.7818608E-02  0.9328864E-01
         -2   -1    0    0    0  501 -0.00000000000E+00  0.00000000000E+00  0.85353950724E+03  0.85353950725E+03  0.25500000000E-02 0.  1.
          2   -1    0    0  501    0  0.00000000000E+00 -0.00000000000E+00 -0.18691594096E+04  0.18691594096E+04  0.25500000000E-02 0. -1.
    8880023    1    1    2    0    0 -0.60374256371E+03  0.53565850208E+03 -0.14562513385E+04  0.17905064315E+04  0.65864270000E+03 0. -1.
    8880022    1    1    2    0    0  0.60374256371E+03 -0.53565850208E+03  0.44063143619E+03  0.93219248530E+03  0.15294330000E+03 0.  0.
<mgrwt>
<rscale>  0 0.98168467E+03</rscale>
<asrwt>0</asrwt>
<pdfrwt beam="1">  1        2 0.28756298E+00 0.10417511E+04</pdfrwt>
<pdfrwt beam="2">  1       -2 0.13131377E+00 0.10417511E+04</pdfrwt>
<totfact> 0.33161193E+00</totfact>
</mgrwt>
</event>
<event>
 4    5  0.2409888E-007  0.1240554E+04  0.7818608E-02  0.9118675E-01
          2   -1    0    0  501    0  0.00000000000E+00  0.00000000000E+00  0.26188153494E+04  0.26188153494E+04  0.25500000000E-02 0. -1.
         -2   -1    0    0    0  501 -0.00000000000E+00 -0.00000000000E+00 -0.92306079880E+03  0.92306079880E+03  0.25500000000E-02 0.  1.
    8880023    1    1    2    0    0 -0.94220949665E+03 -0.46626730207E+03  0.20719124502E+04  0.24149110419E+04  0.65864270000E+03 0.  0.
    8880022    1    1    2    0    0  0.94220949665E+03  0.46626730207E+03 -0.37615789957E+03  0.11269651064E+04  0.15294330000E+03 0.  0.
<mgrwt>
<rscale>  0 0.11933755E+04</rscale>
<asrwt>0</asrwt>
<pdfrwt beam="1">  1        2 0.40289466E+00 0.12405540E+04</pdfrwt>
<pdfrwt beam="2">  1       -2 0.14200936E+00 0.12405540E+04</pdfrwt>
<totfact> 0.10007540E+00</totfact>
</mgrwt>
</event>
<event>
 4    5  0.2409888E-007  0.1131719E+04  0.7818608E-02  0.9226536E-01
          2   -1    0    0  501    0  0.00000000000E+00  0.00000000000E+00  0.95017372053E+03  0.95017372054E+03  0.25500000000E-02 0. -1.
         -2   -1    0    0    0  501 -0.00000000000E+00 -0.00000000000E+00 -0.28041114452E+04  0.28041114452E+04  0.25500000000E-02 0.  1.
    8880023    1    1    2    0    0 -0.87757735831E+03  0.27719329577E+03  0.48869011213E+03  0.12327231542E+04  0.65864270000E+03 0. -1.
    8880022    1    1    2    0    0  0.87757735831E+03 -0.27719329577E+03 -0.23426278368E+04  0.25215620115E+04  0.15294330000E+03 0.  0.
<mgrwt>
<rscale>  0 0.10783680E+04</rscale>
<asrwt>0</asrwt>
<pdfrwt beam="1">  1        2 0.14618057E+00 0.11317192E+04</pdfrwt>
<pdfrwt beam="2">  1       -2 0.43140176E+00 0.11317192E+04</pdfrwt>
<totfact> 0.12468303E-01</totfact>
</mgrwt>
</event>
<event>
 4    5  0.2409888E-007  0.7241033E+03  0.7818608E-02  0.9908939E-01
          2   -1    0    0  501    0  0.00000000000E+00  0.00000000000E+00  0.11481059365E+04  0.11481059365E+04  0.25500000000E-02 0. -1.
         -2   -1    0    0    0  501 -0.00000000000E+00 -0.00000000000E+00 -0.31156806162E+04  0.31156806162E+04  0.25500000000E-02 0.  1.
    8880023    1    1    2    0    0  0.21075524376E+02 -0.30011855583E+03  0.10234919621E+04  0.12537389394E+04  0.65864270000E+03 0. -1.
    8880022    1    1    2    0    0 -0.21075524376E+02  0.30011855583E+03 -0.29910666419E+04  0.30100476133E+04  0.15294330000E+03 0.  0.
<mgrwt>
<rscale>  0 0.59830023E+03</rscale>
<asrwt>0</asrwt>
<pdfrwt beam="1">  1        2 0.17663168E+00 0.72410326E+03</pdfrwt>
<pdfrwt beam="2">  1       -2 0.47933548E+00 0.72410326E+03</pdfrwt>
<totfact> 0.48920105E-02</totfact>
</mgrwt>
</event>
<event>
 4    5  0.2409888E-007  0.8470229E+03  0.7818608E-02  0.9617077E-01
          2   -1    0    0  501    0  0.00000000000E+00  0.00000000000E+00  0.32866994476E+04  0.32866994476E+04  0.25500000000E-02 0. -1.
         -2   -1    0    0    0  501 -0.00000000000E+00 -0.00000000000E+00 -0.19819524716E+03  0.19819524717E+03  0.25500000000E-02 0.  1.
    8880023    1    1    2    0    0  0.31602139164E+03 -0.42868181512E+03  0.26383586129E+04  0.27709897140E+04  0.65864270000E+03 0. -1.
    8880022    1    1    2    0    0 -0.31602139164E+03  0.42868181512E+03  0.45014558758E+03  0.71390498080E+03  0.15294330000E+03 0.  0.
<mgrwt>
<rscale>  0 0.76176119E+03</rscale>
<asrwt>0</asrwt>
<pdfrwt beam="1">  1        2 0.50564606E+00 0.84702292E+03</pdfrwt>
<pdfrwt beam="2">  1       -2 0.30491577E-01 0.84702292E+03</pdfrwt>
<totfact> 0.11911008E+01</totfact>
</mgrwt>
</event>
<event>
 4    5  0.2409888E-007  0.7835609E+03  0.7818608E-02  0.9747538E-01
          2   -1    0    0  501    0  0.00000000000E+00  0.00000000000E+00  0.41042191457E+04  0.41042191457E+04  0.25500000000E-02 0. -1.
         -2   -1    0    0    0  501 -0.00000000000E+00 -0.00000000000E+00 -0.65476832459E+03  0.65476832459E+03  0.25500000000E-02 0.  1.
    8880023    1    1    2    0    0  0.10786827569E+03  0.41051424660E+03  0.39835245790E+04  0.40598566217E+04  0.65864270000E+03 0. -1.
    8880022    1    1    2    0    0 -0.10786827569E+03 -0.41051424660E+03 -0.53407375785E+03  0.69913084856E+03  0.15294330000E+03 0.  0.
<mgrwt>
<rscale>  0 0.68255593E+03</rscale>
<asrwt>0</asrwt>
<pdfrwt beam="1">  1        2 0.63141831E+00 0.78356092E+03</pdfrwt>
<pdfrwt beam="2">  1       -2 0.10073359E+00 0.78356092E+03</pdfrwt>
<totfact> 0.25295402E-01</totfact>
</mgrwt>
</event>
<event>
 4    5  0.2409888E-007  0.7733642E+03  0.7818608E-02  0.9771662E-01
         -2   -1    0    0    0  501 -0.00000000000E+00  0.00000000000E+00  0.12129858423E+04  0.12129858423E+04  0.25500000000E-02 0.  1.
          2   -1    0    0  501    0  0.00000000000E+00 -0.00000000000E+00 -0.12326878948E+04  0.12326878948E+04  0.25500000000E-02 0. -1.
    8880023    1    1    2    0    0  0.37302351994E+03  0.15854172896E+03 -0.10638374443E+04  0.13152347092E+04  0.65864270000E+03 0. -1.
    8880022    1    1    2    0    0 -0.37302351994E+03 -0.15854172896E+03  0.10441353918E+04  0.11304390279E+04  0.15294330000E+03 0.  0.
<mgrwt>
<rscale>  0 0.66905756E+03</rscale>
<asrwt>0</asrwt>
<pdfrwt beam="1">  1        2 0.18964429E+00 0.77336423E+03</pdfrwt>
<pdfrwt beam="2">  1       -2 0.18661321E+00 0.77336423E+03</pdfrwt>
<totfact> 0.30236524E+00</totfact>
</mgrwt>
</event>
<event>
 4    5  0.2409888E-007  0.7189499E+03  0.7818608E-02  0.9926155E-01
         -2   -1    0    0    0  501 -0.00000000000E+00  0.00000000000E+00  0.40092343295E+03  0.40092343296E+03  0.25500000000E-02 0.  1.
          2   -1    0    0  501    0  0.00000000000E+00 -0.00000000000E+00 -0.13093359635E+04  0.13093359635E+04  0.25500000000E-02 0. -1.
    8880023    1    1    2    0    0 -0.15415163022E+03 -0.24354893040E+03 -0.11130839741E+04  0.13250829960E+04  0.65864270000E+03 0.  0.
    8880022    1    1    2    0    0  0.15415163022E+03  0.24354893040E+03  0.20467144360E+03  0.38517640042E+03  0.15294330000E+03 0.  0.
<mgrwt>
<rscale>  0 0.59010274E+03</rscale>
<asrwt>0</asrwt>
<pdfrwt beam="1">  1        2 0.20143630E+00 0.71894994E+03</pdfrwt>
<pdfrwt beam="2">  1       -2 0.61680529E-01 0.71894994E+03</pdfrwt>
<totfact> 0.40787979E+01</totfact>
</mgrwt>
</event>
<event>
 4    5  0.2409888E-007  0.7275436E+03  0.7818608E-02  0.9897841E-01
         -2   -1    0    0    0  501 -0.00000000000E+00  0.00000000000E+00  0.60710524413E+03  0.60710524414E+03  0.25500000000E-02 0.  1.
          2   -1    0    0  501    0  0.00000000000E+00 -0.00000000000E+00 -0.11238028612E+04  0.11238028612E+04  0.25500000000E-02 0. -1.
    8880023    1    1    2    0    0  0.26811677638E+03 -0.15369752505E+03 -0.93761800882E+03  0.11867802120E+04  0.65864270000E+03 0. -1.
    8880022    1    1    2    0    0 -0.26811677638E+03  0.15369752505E+03  0.42092039179E+03  0.54412789326E+03  0.15294330000E+03 0.  0.
<mgrwt>
<rscale>  0 0.60366022E+03</rscale>
<asrwt>0</asrwt>
<pdfrwt beam="1">  1        2 0.17289275E+00 0.72754364E+03</pdfrwt>
<pdfrwt beam="2">  1       -2 0.93400807E-01 0.72754364E+03</pdfrwt>
<totfact> 0.20844369E+01</totfact>
</mgrwt>
</event>
<event>
 4    5  0.2409888E-007  0.1096442E+04  0.7818608E-02  0.9265028E-01
          2   -1    0    0  501    0  0.00000000000E+00  0.00000000000E+00  0.30060710299E+04  0.30060710299E+04  0.25500000000E-02 0. -1.
         -2   -1    0    0    0  501 -0.00000000000E+00 -0.00000000000E+00 -0.49853229385E+03  0.49853229386E+03  0.25500000000E-02 0.  1.
    8880023    1    1    2    0    0  0.53317470621E+02  0.87494636782E+03  0.23605074734E+04  0.26027254249E+04  0.65864270000E+03 0.  0.
    8880022    1    1    2    0    0 -0.53317470621E+02 -0.87494636782E+03  0.14703126265E+03  0.90187789885E+03  0.15294330000E+03 0.  0.
<mgrwt>
<rscale>  0 0.10406716E+04</rscale>
<asrwt>0</asrwt>
<pdfrwt beam="1">  1        2 0.46247247E+00 0.10964416E+04</pdfrwt>
<pdfrwt beam="2">  1       -2 0.76697275E-01 0.10964416E+04</pdfrwt>
<totfact> 0.26420990E+00</totfact>
</mgrwt>
</event>
<event>
 4    5  0.2409888E-007  0.9233027E+03  0.7818608E-02  0.9489613E-01
         -2   -1    0    0    0  501 -0.00000000000E+00  0.00000000000E+00  0.16484113326E+04  0.16484113326E+04  0.25500000000E-02 0.  1.
          2   -1    0    0  501    0  0.00000000000E+00 -0.00000000000E+00 -0.85511620951E+03  0.85511620952E+03  0.25500000000E-02 0. -1.
    8880023    1    1    2    0    0 -0.63583167924E+03 -0.11998210600E+03 -0.49951576988E+03  0.10497637071E+04  0.65864270000E+03 0.  0.
    8880022    1    1    2    0    0  0.63583167924E+03  0.11998210600E+03  0.12928108930E+04  0.14537638351E+04  0.15294330000E+03 0.  0.
<mgrwt>
<rscale>  0 0.85053926E+03</rscale>
<asrwt>0</asrwt>
<pdfrwt beam="1">  1        2 0.13155634E+00 0.92330268E+03</pdfrwt>
<pdfrwt beam="2">  1       -2 0.25360174E+00 0.92330268E+03</pdfrwt>
<totfact> 0.19364700E+00</totfact>
</mgrwt>
</event>
<event>
 4    5  0.2409888E-007  0.8278324E+03  0.7818608E-02  0.9653565E-01
         -2   -1    0    0    0  501 -0.00000000000E+00  0.00000000000E+00  0.27016601782E+04  0.27016601782E+04  0.25500000000E-02 0.  1.
          2   -1    0    0  501    0  0.00000000000E+00 -0.00000000000E+00 -0.14572211373E+04  0.14572211373E+04  0.25500000000E-02 0. -1.
    8880023    1    1    2    0    0  0.49626031434E+03  0.72263324410E+02 -0.13108461139E+04  0.15503625474E+04  0.65864270000E+03 0.  0.
    8880022    1    1    2    0    0 -0.49626031434E+03 -0.72263324410E+02  0.25552851549E+04  0.26085187681E+04  0.15294330000E+03 0.  0.
<mgrwt>
<rscale>  0 0.73850132E+03</rscale>
<asrwt>0</asrwt>
<pdfrwt beam="1">  1        2 0.22418787E+00 0.82783241E+03</pdfrwt>
<pdfrwt beam="2">  1       -2 0.41564002E+00 0.82783241E+03</pdfrwt>
<totfact> 0.83158023E-02</totfact>
</mgrwt>
</event>
<event>
 4    5  0.2409888E-007  0.1270763E+04  0.7818608E-02  0.9091228E-01
          2   -1    0    0  501    0  0.00000000000E+00  0.00000000000E+00  0.12590473722E+04  0.12590473722E+04  0.25500000000E-02 0. -1.
         -2   -1    0    0    0  501 -0.00000000000E+00 -0.00000000000E+00 -0.12392016800E+04  0.12392016800E+04  0.25500000000E-02 0.  1.
    8880023    1    1    2    0    0 -0.39389768886E+03 -0.10128534104E+04  0.40724000720E+03  0.13344219910E+04  0.65864270000E+03 0.  0.
    8880022    1    1    2    0    0  0.39389768886E+03  0.10128534104E+04 -0.38739431499E+03  0.11638270613E+04  0.15294330000E+03 0.  0.
<mgrwt>
<rscale>  0 0.12250266E+04</rscale>
<asrwt>0</asrwt>
<pdfrwt beam="1">  1        2 0.19369960E+00 0.12707626E+04</pdfrwt>
<pdfrwt beam="2">  1       -2 0.19064641E+00 0.12707626E+04</pdfrwt>
<totfact> 0.25854668E+00</totfact>
</mgrwt>
</event>
<event>
 4    5  0.2409888E-007  0.1207956E+04  0.7818608E-02  0.9149427E-01
         -2   -1    0    0    0  501 -0.00000000000E+00  0.00000000000E+00  0.91982661725E+03  0.91982661726E+03  0.25500000000E-02 0.  1.
          2   -1    0    0  501    0  0.00000000000E+00 -0.00000000000E+00 -0.33131282456E+04  0.33131282456E+04  0.25500000000E-02 0. -1.
    8880023    1    1    2    0    0 -0.78782780402E+03 -0.63614108597E+03 -0.28621770102E+04  0.31066405609E+04  0.65864270000E+03 0. -1.
    8880022    1    1    2    0    0  0.78782780402E+03  0.63614108597E+03  0.46887538193E+03  0.11263143020E+04  0.15294330000E+03 0.  0.
<mgrwt>
<rscale>  0 0.11591026E+04</rscale>
<asrwt>0</asrwt>
<pdfrwt beam="1">  1        2 0.50971203E+00 0.12079563E+04</pdfrwt>
<pdfrwt beam="2">  1       -2 0.14151179E+00 0.12079563E+04</pdfrwt>
<totfact> 0.37752133E-01</totfact>
</mgrwt>
</event>
<event>
 4    5  0.2409888E-007  0.1225410E+04  0.7818608E-02  0.9132809E-01
          2   -1    0    0  501    0  0.00000000000E+00  0.00000000000E+00  0.12395402836E+04  0.12395402836E+04  0.25500000000E-02 0. -1.
         -2   -1    0    0    0  501 -0.00000000000E+00 -0.00000000000E+00 -0.12341167988E+04  0.12341167988E+04  0.25500000000E-02 0.  1.
    8880023    1    1    2    0    0 -0.66045086328E+03  0.79474814579E+03  0.49299544590E+03  0.13208613379E+04  0.65864270000E+03 0. -1.
    8880022    1    1    2    0    0  0.66045086328E+03 -0.79474814579E+03 -0.48757196111E+03  0.11527957444E+04  0.15294330000E+03 0.  0.
<mgrwt>
<rscale>  0 0.11774697E+04</rscale>
<asrwt>0</asrwt>
<pdfrwt beam="1">  1        2 0.19069850E+00 0.12254102E+04</pdfrwt>
<pdfrwt beam="2">  1       -2 0.18986412E+00 0.12254102E+04</pdfrwt>
<totfact> 0.26992107E+00</totfact>
</mgrwt>
</event>
<event>
 4    5  0.2409888E-007  0.7464269E+03  0.7818608E-02  0.9841607E-01
          2   -1    0    0  501    0  0.00000000000E+00  0.00000000000E+00  0.11855002182E+04  0.11855002182E+04  0.25500000000E-02 0. -1.
         -2   -1    0    0    0  501 -0.00000000000E+00 -0.00000000000E+00 -0.12634537277E+04  0.12634537277E+04  0.25500000000E-02 0.  1.
    8880023    1    1    2    0    0  0.32508580967E+03  0.13289872120E+03  0.10326338890E+04  0.12741608253E+04  0.65864270000E+03 0. -1.
    8880022    1    1    2    0    0 -0.32508580967E+03 -0.13289872120E+03 -0.11105873985E+04  0.11747931207E+04  0.15294330000E+03 0.  0.
<mgrwt>
<rscale>  0 0.63176706E+03</rscale>
<asrwt>0</asrwt>
<pdfrwt beam="1">  1        2 0.18238465E+00 0.74642686E+03</pdfrwt>
<pdfrwt beam="2">  1       -2 0.19437750E+00 0.74642686E+03</pdfrwt>
<totfact> 0.28742341E+00</totfact>
</mgrwt>
</event>
<event>
 4    5  0.2409888E-007  0.6862772E+03  0.7818608E-02  0.1005975E+00
         -2   -1    0    0    0  501 -0.00000000000E+00  0.00000000000E+00  0.66685827316E+03  0.66685827317E+03  0.25500000000E-02 0.  1.
          2   -1    0    0  501    0  0.00000000000E+00 -0.00000000000E+00 -0.86648885471E+03  0.86648885471E+03  0.25500000000E-02 0. -1.
    8880023    1    1    2    0    0  0.19024572919E+03  0.31188080010E+02 -0.69717089326E+03  0.97827582741E+03  0.65864270000E+03 0.  0.
    8880022    1    1    2    0    0 -0.19024572919E+03 -0.31188080010E+02  0.49754031172E+03  0.55507130047E+03  0.15294330000E+03 0.  0.
<mgrwt>
<rscale>  0 0.53106283E+03</rscale>
<asrwt>0</asrwt>
<pdfrwt beam="1">  1        2 0.13330598E+00 0.68627716E+03</pdfrwt>
<pdfrwt beam="2">  1       -2 0.10259358E+00 0.68627716E+03</pdfrwt>
<totfact> 0.24536605E+01</totfact>
</mgrwt>
</event>
<event>
 4    5  0.2409888E-007  0.6865762E+03  0.7818608E-02  0.1005824E+00
          2   -1    0    0  501    0  0.00000000000E+00  0.00000000000E+00  0.34044619263E+04  0.34044619263E+04  0.25500000000E-02 0. -1.
         -2   -1    0    0    0  501 -0.00000000000E+00 -0.00000000000E+00 -0.15816536838E+03  0.15816536840E+03  0.25500000000E-02 0.  1.
    8880023    1    1    2    0    0  0.97298492478E+02  0.16765960310E+03  0.32438343368E+04  0.33156972343E+04  0.65864270000E+03 0. -1.
    8880022    1    1    2    0    0 -0.97298492478E+02 -0.16765960310E+03  0.24622211316E+01  0.24693006034E+03  0.15294330000E+03 0.  0.
<mgrwt>
<rscale>  0 0.53168533E+03</rscale>
<asrwt>0</asrwt>
<pdfrwt beam="1">  1        2 0.52376339E+00 0.68657625E+03</pdfrwt>
<pdfrwt beam="2">  1       -2 0.24333133E-01 0.68657625E+03</pdfrwt>
<totfact> 0.15491607E+01</totfact>
</mgrwt>
</event>
<event>
 4    5  0.2409888E-007  0.8229525E+03  0.7818608E-02  0.9663203E-01
         -2   -1    0    0    0  501 -0.00000000000E+00  0.00000000000E+00  0.72754975400E+03  0.72754975400E+03  0.25500000000E-02 0.  1.
          2   -1    0    0  501    0  0.00000000000E+00 -0.00000000000E+00 -0.92242582739E+03  0.92242582739E+03  0.25500000000E-02 0. -1.
    8880023    1    1    2    0    0 -0.36561164642E+03 -0.33131355912E+03 -0.57901954346E+03  0.10062377395E+04  0.65864270000E+03 0.  0.
    8880022    1    1    2    0    0  0.36561164642E+03  0.33131355912E+03  0.38414347007E+03  0.64373784188E+03  0.15294330000E+03 0.  0.
<mgrwt>
<rscale>  0 0.73250542E+03</rscale>
<asrwt>0</asrwt>
<pdfrwt beam="1">  1        2 0.14191167E+00 0.82295246E+03</pdfrwt>
<pdfrwt beam="2">  1       -2 0.11193073E+00 0.82295246E+03</pdfrwt>
<totfact> 0.17988168E+01</totfact>
</mgrwt>
</event>
<event>
 4    5  0.2409888E-007  0.9252539E+03  0.7818608E-02  0.9486650E-01
         -2   -1    0    0    0  501 -0.00000000000E+00  0.00000000000E+00  0.78678534559E+03  0.78678534559E+03  0.25500000000E-02 0.  1.
          2   -1    0    0  501    0  0.00000000000E+00 -0.00000000000E+00 -0.99974383234E+03  0.99974383235E+03  0.25500000000E-02 0. -1.
    8880023    1    1    2    0    0 -0.25381827760E+03  0.59821471614E+03 -0.50925340614E+03  0.10561409956E+04  0.65864270000E+03 0. -1.
    8880022    1    1    2    0    0  0.25381827760E+03 -0.59821471614E+03  0.29629491938E+03  0.73038818235E+03  0.15294330000E+03 0.  0.
<mgrwt>
<rscale>  0 0.85275274E+03</rscale>
<asrwt>0</asrwt>
<pdfrwt beam="1">  1        2 0.15380674E+00 0.92525390E+03</pdfrwt>
<pdfrwt beam="2">  1       -2 0.12104390E+00 0.92525390E+03</pdfrwt>
<totfact> 0.13082384E+01</totfact>
</mgrwt>
</event>
<event>
 4    5  0.2409888E-007  0.8005284E+03  0.7818608E-02  0.9709655E-01
          2   -1    0    0  501    0  0.00000000000E+00  0.00000000000E+00  0.15871582527E+04  0.15871582527E+04  0.25500000000E-02 0. -1.
         -2   -1    0    0    0  501 -0.00000000000E+00 -0.00000000000E+00 -0.11726895682E+04  0.11726895682E+04  0.25500000000E-02 0.  1.
    8880023    1    1    2    0    0 -0.20150991498E+03 -0.40795752227E+03  0.14287364056E+04  0.16377220487E+04  0.65864270000E+03 0. -1.
    8880022    1    1    2    0    0  0.20150991498E+03  0.40795752227E+03 -0.10142677211E+04  0.11221257723E+04  0.15294330000E+03 0.  0.
<mgrwt>
<rscale>  0 0.70444859E+03</rscale>
<asrwt>0</asrwt>
<pdfrwt beam="1">  1        2 0.24417819E+00 0.80052845E+03</pdfrwt>
<pdfrwt beam="2">  1       -2 0.18041378E+00 0.80052845E+03</pdfrwt>
<totfact> 0.20886155E+00</totfact>
</mgrwt>
</event>
<event>
 4    5  0.2409888E-007  0.9244704E+03  0.7818608E-02  0.9487838E-01
          2   -1    0    0  501    0  0.00000000000E+00  0.00000000000E+00  0.12403115760E+04  0.12403115760E+04  0.25500000000E-02 0. -1.
         -2   -1    0    0    0  501 -0.00000000000E+00 -0.00000000000E+00 -0.10200840101E+04  0.10200840101E+04  0.25500000000E-02 0.  1.
    8880023    1    1    2    0    0  0.35604237982E+03  0.54228139615E+03  0.91282419388E+03  0.12991895566E+04  0.65864270000E+03 0.  0.
    8880022    1    1    2    0    0 -0.35604237982E+03 -0.54228139615E+03 -0.69259662803E+03  0.96120602943E+03  0.15294330000E+03 0.  0.
<mgrwt>
<rscale>  0 0.85186420E+03</rscale>
<asrwt>0</asrwt>
<pdfrwt beam="1">  1        2 0.19081717E+00 0.92447039E+03</pdfrwt>
<pdfrwt beam="2">  1       -2 0.15693600E+00 0.92447039E+03</pdfrwt>
<totfact> 0.47567504E+00</totfact>
</mgrwt>
</event>
<event>
 4    5  0.2409888E-007  0.8542590E+03  0.7818608E-02  0.9603858E-01
         -2   -1    0    0    0  501 -0.00000000000E+00  0.00000000000E+00  0.28503809505E+03  0.28503809506E+03  0.25500000000E-02 0.  1.
          2   -1    0    0  501    0  0.00000000000E+00 -0.00000000000E+00 -0.29378723975E+04  0.29378723975E+04  0.25500000000E-02 0. -1.
    8880023    1    1    2    0    0  0.38460971686E+03  0.38473836646E+03 -0.24935035429E+04  0.26357766161E+04  0.65864270000E+03 0.  0.
    8880022    1    1    2    0    0 -0.38460971686E+03 -0.38473836646E+03 -0.15933075946E+03  0.58713387644E+03  0.15294330000E+03 0.  0.
<mgrwt>
<rscale>  0 0.77041339E+03</rscale>
<asrwt>0</asrwt>
<pdfrwt beam="1">  1        2 0.45198035E+00 0.85425901E+03</pdfrwt>
<pdfrwt beam="2">  1       -2 0.43852017E-01 0.85425901E+03</pdfrwt>
<totfact> 0.97918177E+00</totfact>
</mgrwt>
</event>
<event>
 4    5  0.2409888E-007  0.7820750E+03  0.7818608E-02  0.9750985E-01
         -2   -1    0    0    0  501 -0.00000000000E+00  0.00000000000E+00  0.52847044359E+03  0.52847044360E+03  0.25500000000E-02 0.  1.
          2   -1    0    0  501    0  0.00000000000E+00 -0.00000000000E+00 -0.84753854267E+03  0.84753854268E+03  0.25500000000E-02 0. -1.
    8880023    1    1    2    0    0 -0.42169425589E+03  0.22614887102E+01 -0.45811736119E+03  0.90637347858E+03  0.65864270000E+03 0.  0.
    8880022    1    1    2    0    0  0.42169425589E+03 -0.22614887102E+01  0.13904926210E+03  0.46963550770E+03  0.15294330000E+03 0.  0.
<mgrwt>
<rscale>  0 0.68060631E+03</rscale>
<asrwt>0</asrwt>
<pdfrwt beam="1">  1        2 0.13039054E+00 0.78207504E+03</pdfrwt>
<pdfrwt beam="2">  1       -2 0.81303145E-01 0.78207504E+03</pdfrwt>
<totfact> 0.42961433E+01</totfact>
</mgrwt>
</event>
<event>
 4    5  0.2409888E-007  0.1179706E+04  0.7818608E-02  0.9177106E-01
          2   -1    0    0  501    0  0.00000000000E+00  0.00000000000E+00  0.30260317022E+04  0.30260317022E+04  0.25500000000E-02 0. -1.
         -2   -1    0    0    0  501 -0.00000000000E+00 -0.00000000000E+00 -0.46184501519E+03  0.46184501520E+03  0.25500000000E-02 0.  1.
    8880023    1    1    2    0    0  0.88444641089E+03  0.41910808529E+03  0.68651491120E+03  0.13649212323E+04  0.65864270000E+03 0.  0.
    8880022    1    1    2    0    0 -0.88444641089E+03 -0.41910808529E+03  0.18776717758E+04  0.21229554850E+04  0.15294330000E+03 0.  0.
<mgrwt>
<rscale>  0 0.11292889E+04</rscale>
<asrwt>0</asrwt>
<pdfrwt beam="1">  1        2 0.46554333E+00 0.11797064E+04</pdfrwt>
<pdfrwt beam="2">  1       -2 0.71053081E-01 0.11797064E+04</pdfrwt>
<totfact> 0.30101730E+00</totfact>
</mgrwt>
</event>
<event>
 4    5  0.2409888E-007  0.7788690E+03  0.7818608E-02  0.9758500E-01
         -2   -1    0    0    0  501 -0.00000000000E+00  0.00000000000E+00  0.63170161931E+03  0.63170161931E+03  0.25500000000E-02 0.  1.
          2   -1    0    0  501    0  0.00000000000E+00 -0.00000000000E+00 -0.60474410362E+03  0.60474410363E+03  0.25500000000E-02 0. -1.
    8880023    1    1    2    0    0 -0.40312001928E+03 -0.10159207609E+03  0.10738874072E+03  0.78623739911E+03  0.65864270000E+03 0.  0.
    8880022    1    1    2    0    0  0.40312001928E+03  0.10159207609E+03 -0.80431225036E+02  0.45020832383E+03  0.15294330000E+03 0.  1.
<mgrwt>
<rscale>  0 0.67638001E+03</rscale>
<asrwt>0</asrwt>
<pdfrwt beam="1">  1        2 0.93037555E-01 0.77886899E+03</pdfrwt>
<pdfrwt beam="2">  1       -2 0.97184864E-01 0.77886899E+03</pdfrwt>
<totfact> 0.43854419E+01</totfact>
</mgrwt>
</event>
<event>
 4    5  0.2409888E-007  0.7165802E+03  0.7818608E-02  0.9934332E-01
         -2   -1    0    0    0  501 -0.00000000000E+00  0.00000000000E+00  0.17691394993E+03  0.17691394995E+03  0.25500000000E-02 0.  1.
          2   -1    0    0  501    0  0.00000000000E+00 -0.00000000000E+00 -0.18039571541E+04  0.18039571541E+04  0.25500000000E-02 0. -1.
    8880023    1    1    2    0    0 -0.27770160960E+03 -0.50584387611E+02 -0.14422137630E+04  0.16104246982E+04  0.65864270000E+03 0. -1.
    8880022    1    1    2    0    0  0.27770160960E+03  0.50584387611E+02 -0.18482944118E+03  0.37044640582E+03  0.15294330000E+03 0.  0.
<mgrwt>
<rscale>  0 0.58625884E+03</rscale>
<asrwt>0</asrwt>
<pdfrwt beam="1">  1        2 0.27753186E+00 0.71658019E+03</pdfrwt>
<pdfrwt beam="2">  1       -2 0.27217532E-01 0.71658019E+03</pdfrwt>
<totfact> 0.10809805E+02</totfact>
</mgrwt>
</event>
<event>
 4    5  0.2807006E-007  0.1529537E+04  0.7818608E-02  0.8889055E-01
          2   -1    0    0  501    0  0.00000000000E+00  0.00000000000E+00  0.23103296031E+04  0.23103296031E+04  0.25500000000E-02 0. -1.
         -2   -1    0    0    0  501 -0.00000000000E+00 -0.00000000000E+00 -0.20276699058E+04  0.20276699058E+04  0.25500000000E-02 0.  1.
    8880023    1    1    2    0    0  0.48011678425E+03 -0.12942803523E+04  0.17455006117E+04  0.23208309608E+04  0.65864270000E+03 0. -1.
    8880022    1    1    2    0    0 -0.48011678425E+03  0.12942803523E+04 -0.14628409145E+04  0.20171685480E+04  0.15294330000E+03 0.  0.
<mgrwt>
<rscale>  0 0.14930983E+04</rscale>
<asrwt>0</asrwt>
<pdfrwt beam="1">  1        2 0.35543533E+00 0.15295372E+04</pdfrwt>
<pdfrwt beam="2">  1       -2 0.31194921E+00 0.15295372E+04</pdfrwt>
<totfact> 0.11220021E-01</totfact>
</mgrwt>
</event>
<event>
 4    5  0.2409888E-007  0.6619496E+03  0.7818608E-02  0.1022242E+00
          2   -1    0    0  501    0  0.00000000000E+00  0.00000000000E+00  0.22399458096E+04  0.22399458096E+04  0.25500000000E-02 0. -1.
         -2   -1    0    0    0  501 -0.00000000000E+00 -0.00000000000E+00 -0.62256921684E+03  0.62256921685E+03  0.25500000000E-02 0.  1.
    8880023    1    1    2    0    0 -0.63375807482E+02  0.18724844289E+02  0.21786724981E+04  0.22770136523E+04  0.65864270000E+03 0.  0.
    8880022    1    1    2    0    0  0.63375807482E+02 -0.18724844289E+02 -0.56129590531E+03  0.58550137413E+03  0.15294330000E+03 0.  1.
<mgrwt>
<rscale>  0 0.46886059E+03</rscale>
<asrwt>0</asrwt>
<pdfrwt beam="1">  1        2 0.34460705E+00 0.66194963E+03</pdfrwt>
<pdfrwt beam="2">  1       -2 0.95779879E-01 0.66194963E+03</pdfrwt>
<totfact> 0.47498473E+00</totfact>
</mgrwt>
</event>
<event>
 4    5  0.2409888E-007  0.1035201E+04  0.7818608E-02  0.9336887E-01
          2   -1    0    0  501    0  0.00000000000E+00  0.00000000000E+00  0.16031354398E+04  0.16031354398E+04  0.25500000000E-02 0. -1.
         -2   -1    0    0    0  501 -0.00000000000E+00 -0.00000000000E+00 -0.95752475813E+03  0.95752475814E+03  0.25500000000E-02 0.  1.
    8880023    1    1    2    0    0 -0.72703645239E+03 -0.33052914286E+03  0.11936880412E+04  0.15800420448E+04  0.65864270000E+03 0. -1.
    8880022    1    1    2    0    0  0.72703645239E+03  0.33052914286E+03 -0.54807735947E+03  0.98061815319E+03  0.15294330000E+03 0.  0.
<mgrwt>
<rscale>  0 0.97456792E+03</rscale>
<asrwt>0</asrwt>
<pdfrwt beam="1">  1        2 0.24663622E+00 0.10352013E+04</pdfrwt>
<pdfrwt beam="2">  1       -2 0.14731150E+00 0.10352013E+04</pdfrwt>
<totfact> 0.34540761E+00</totfact>
</mgrwt>
</event>
<event>
 4    5  0.2409888E-007  0.1179560E+04  0.7818608E-02  0.9177252E-01
          2   -1    0    0  501    0  0.00000000000E+00  0.00000000000E+00  0.11159736243E+04  0.11159736243E+04  0.25500000000E-02 0. -1.
         -2   -1    0    0    0  501 -0.00000000000E+00 -0.00000000000E+00 -0.15128699506E+04  0.15128699506E+04  0.25500000000E-02 0.  1.
    8880023    1    1    2    0    0  0.46664124338E+03  0.86011442870E+03  0.51078605957E+03  0.12854040164E+04  0.65864270000E+03 0.  0.
    8880022    1    1    2    0    0 -0.46664124338E+03 -0.86011442870E+03 -0.90768238590E+03  0.13434395584E+04  0.15294330000E+03 0.  0.
<mgrwt>
<rscale>  0 0.11291338E+04</rscale>
<asrwt>0</asrwt>
<pdfrwt beam="1">  1        2 0.17168825E+00 0.11795597E+04</pdfrwt>
<pdfrwt beam="2">  1       -2 0.23274922E+00 0.11795597E+04</pdfrwt>
<totfact> 0.17055313E+00</totfact>
</mgrwt>
</event>
<event>
 4    5  0.2409888E-007  0.6868766E+03  0.7818608E-02  0.1005674E+00
         -2   -1    0    0    0  501 -0.00000000000E+00  0.00000000000E+00  0.42138919304E+03  0.42138919304E+03  0.25500000000E-02 0.  1.
          2   -1    0    0  501    0  0.00000000000E+00 -0.00000000000E+00 -0.81560435947E+03  0.81560435947E+03  0.25500000000E-02 0. -1.
    8880023    1    1    2    0    0  0.19484657248E+03  0.49060490622E+01 -0.60222720023E+03  0.91349716096E+03  0.65864270000E+03 0. -1.
    8880022    1    1    2    0    0 -0.19484657248E+03 -0.49060490622E+01  0.20801203380E+03  0.32349639155E+03  0.15294330000E+03 0.  0.
<mgrwt>
<rscale>  0 0.53230826E+03</rscale>
<asrwt>0</asrwt>
<pdfrwt beam="1">  1        2 0.12547759E+00 0.68687660E+03</pdfrwt>
<pdfrwt beam="2">  1       -2 0.64829107E-01 0.68687660E+03</pdfrwt>
<totfact> 0.75021552E+01</totfact>
</mgrwt>
</event>
<event>
 4    5  0.2409888E-007  0.8200641E+03  0.7818608E-02  0.9668983E-01
          2   -1    0    0  501    0  0.00000000000E+00  0.00000000000E+00  0.65960219124E+03  0.65960219124E+03  0.25500000000E-02 0. -1.
         -2   -1    0    0    0  501 -0.00000000000E+00 -0.00000000000E+00 -0.10174682911E+04  0.10174682911E+04  0.25500000000E-02 0.  1.
    8880023    1    1    2    0    0 -0.18063686291E+03  0.45394405215E+03  0.27328094554E+03  0.86440011579E+03  0.65864270000E+03 0. -1.
    8880022    1    1    2    0    0  0.18063686291E+03 -0.45394405215E+03 -0.63114704536E+03  0.81267036651E+03  0.15294330000E+03 0.  0.
<mgrwt>
<rscale>  0 0.72893940E+03</rscale>
<asrwt>0</asrwt>
<pdfrwt beam="1">  1        2 0.10147726E+00 0.82006407E+03</pdfrwt>
<pdfrwt beam="2">  1       -2 0.15653358E+00 0.82006407E+03</pdfrwt>
<totfact> 0.11901005E+01</totfact>
</mgrwt>
</event>
<event>
 4    5  0.2409888E-007  0.6978495E+03  0.7818608E-02  0.1000624E+00
         -2   -1    0    0    0  501 -0.00000000000E+00  0.00000000000E+00  0.93198645354E+03  0.93198645355E+03  0.25500000000E-02 0.  1.
          2   -1    0    0  501    0  0.00000000000E+00 -0.00000000000E+00 -0.32004106518E+04  0.32004106518E+04  0.25500000000E-02 0. -1.
    8880023    1    1    2    0    0  0.11129557546E+03  0.20198273749E+03 -0.31406916353E+04  0.32172873489E+04  0.65864270000E+03 0. -1.
    8880022    1    1    2    0    0 -0.11129557546E+03 -0.20198273749E+03  0.87226743709E+03  0.91510975636E+03  0.15294330000E+03 0.  0.
<mgrwt>
<rscale>  0 0.55377390E+03</rscale>
<asrwt>0</asrwt>
<pdfrwt beam="1">  1        2 0.49237086E+00 0.69784951E+03</pdfrwt>
<pdfrwt beam="2">  1       -2 0.14338253E+00 0.69784951E+03</pdfrwt>
<totfact> 0.47750680E-01</totfact>
</mgrwt>
</event>
<event>
 4    5  0.2409888E-007  0.1061093E+04  0.7818608E-02  0.9305663E-01
         -2   -1    0    0    0  501 -0.00000000000E+00  0.00000000000E+00  0.98131480567E+03  0.98131480567E+03  0.25500000000E-02 0.  1.
          2   -1    0    0  501    0  0.00000000000E+00 -0.00000000000E+00 -0.21927092860E+04  0.21927092860E+04  0.25500000000E-02 0. -1.
    8880023    1    1    2    0    0 -0.77484634027E+03  0.30285589652E+03 -0.18373450228E+04  0.21217340748E+04  0.65864270000E+03 0.  0.
    8880022    1    1    2    0    0  0.77484634027E+03 -0.30285589652E+03  0.62595054243E+03  0.10522900169E+04  0.15294330000E+03 0.  0.
<mgrwt>
<rscale>  0 0.10026315E+04</rscale>
<asrwt>0</asrwt>
<pdfrwt beam="1">  1        2 0.33733989E+00 0.10610932E+04</pdfrwt>
<pdfrwt beam="2">  1       -2 0.15097151E+00 0.10610932E+04</pdfrwt>
<totfact> 0.15228856E+00</totfact>
</mgrwt>
</event>
<event>
 4    5  0.2409888E-007  0.8717350E+03  0.7818608E-02  0.9573021E-01
          2   -1    0    0  501    0  0.00000000000E+00  0.00000000000E+00  0.22292974593E+04  0.22292974593E+04  0.25500000000E-02 0. -1.
         -2   -1    0    0    0  501 -0.00000000000E+00 -0.00000000000E+00 -0.38629123575E+03  0.38629123576E+03  0.25500000000E-02 0.  1.
    8880023    1    1    2    0    0 -0.57088303097E+03 -0.14293191948E+02  0.18268503549E+04  0.20241798724E+04  0.65864270000E+03 0. -1.
    8880022    1    1    2    0    0  0.57088303097E+03  0.14293191948E+02  0.16155868632E+02  0.59140882264E+03  0.15294330000E+03 0.  0.
<mgrwt>
<rscale>  0 0.79107888E+03</rscale>
<asrwt>0</asrwt>
<pdfrwt beam="1">  1        2 0.34296883E+00 0.87173502E+03</pdfrwt>
<pdfrwt beam="2">  1       -2 0.59429422E-01 0.87173502E+03</pdfrwt>
<totfact> 0.13436800E+01</totfact>
</mgrwt>
</event>
<event>
 4    5  0.2409888E-007  0.1244129E+04  0.7818608E-02  0.9115375E-01
         -2   -1    0    0    0  501 -0.00000000000E+00  0.00000000000E+00  0.10989233546E+04  0.10989233546E+04  0.25500000000E-02 0.  1.
          2   -1    0    0  501    0  0.00000000000E+00 -0.00000000000E+00 -0.19006653674E+04  0.19006653674E+04  0.25500000000E-02 0. -1.
    8880023    1    1    2    0    0 -0.94617844281E+03 -0.46775354607E+03 -0.13199319451E+04  0.18138570979E+04  0.65864270000E+03 0. -1.
    8880022    1    1    2    0    0  0.94617844281E+03  0.46775354607E+03  0.51818993234E+03  0.11857316241E+04  0.15294330000E+03 0.  0.
<mgrwt>
<rscale>  0 0.11971266E+04</rscale>
<asrwt>0</asrwt>
<pdfrwt beam="1">  1        2 0.29241006E+00 0.12441291E+04</pdfrwt>
<pdfrwt beam="2">  1       -2 0.16906513E+00 0.12441291E+04</pdfrwt>
<totfact> 0.15875407E+00</totfact>
</mgrwt>
</event>
<event>
 4    5  0.2409888E-007  0.9707092E+03  0.7818608E-02  0.9420924E-01
         -2   -1    0    0    0  501 -0.00000000000E+00  0.00000000000E+00  0.16944048926E+04  0.16944048926E+04  0.25500000000E-02 0.  1.
          2   -1    0    0  501    0  0.00000000000E+00 -0.00000000000E+00 -0.11350708059E+04  0.11350708059E+04  0.25500000000E-02 0. -1.
    8880023    1    1    2    0    0  0.69793227971E+03  0.14613931342E+03 -0.81902791645E+03  0.12700720846E+04  0.65864270000E+03 0. -1.
    8880022    1    1    2    0    0 -0.69793227971E+03 -0.14613931342E+03  0.13783620032E+04  0.15594036138E+04  0.15294330000E+03 0.  0.
<mgrwt>
<rscale>  0 0.90373543E+03</rscale>
<asrwt>0</asrwt>
<pdfrwt beam="1">  1        2 0.17462628E+00 0.97070921E+03</pdfrwt>
<pdfrwt beam="2">  1       -2 0.26067768E+00 0.97070921E+03</pdfrwt>
<totfact> 0.11482822E+00</totfact>
</mgrwt>
</event>
<event>
 4    5  0.2409888E-007  0.6926455E+03  0.7818608E-02  0.1002920E+00
         -2   -1    0    0    0  501 -0.00000000000E+00  0.00000000000E+00  0.67079903622E+03  0.67079903623E+03  0.25500000000E-02 0.  1.
          2   -1    0    0  501    0  0.00000000000E+00 -0.00000000000E+00 -0.20094286934E+04  0.20094286934E+04  0.25500000000E-02 0. -1.
    8880023    1    1    2    0    0  0.30400362710E+02 -0.21218731426E+03 -0.19204786077E+04  0.20415670274E+04  0.65864270000E+03 0. -1.
    8880022    1    1    2    0    0 -0.30400362710E+02  0.21218731426E+03  0.58184895051E+03  0.63866070226E+03  0.15294330000E+03 0.  0.
<mgrwt>
<rscale>  0 0.54388328E+03</rscale>
<asrwt>0</asrwt>
<pdfrwt beam="1">  1        2 0.30914287E+00 0.69264554E+03</pdfrwt>
<pdfrwt beam="2">  1       -2 0.10319985E+00 0.69264554E+03</pdfrwt>
<totfact> 0.52930863E+00</totfact>
</mgrwt>
</event>
<event>
 4    5  0.2409888E-007  0.7257545E+03  0.7818608E-02  0.9903575E-01
          2   -1    0    0  501    0  0.00000000000E+00  0.00000000000E+00  0.24308941539E+04  0.24308941539E+04  0.25500000000E-02 0. -1.
         -2   -1    0    0    0  501 -0.00000000000E+00 -0.00000000000E+00 -0.52139405496E+03  0.52139405496E+03  0.25500000000E-02 0.  1.
    8880023    1    1    2    0    0  0.29455795802E+03 -0.78389617673E+02  0.23128768153E+04  0.24240706863E+04  0.65864270000E+03 0. -1.
    8880022    1    1    2    0    0 -0.29455795802E+03  0.78389617673E+02 -0.40337671642E+03  0.52821752258E+03  0.15294330000E+03 0.  0.
<mgrwt>
<rscale>  0 0.60088339E+03</rscale>
<asrwt>0</asrwt>
<pdfrwt beam="1">  1        2 0.37398372E+00 0.72575446E+03</pdfrwt>
<pdfrwt beam="2">  1       -2 0.80214469E-01 0.72575446E+03</pdfrwt>
<totfact> 0.55171666E+00</totfact>
</mgrwt>
</event>
<event>
 4    5  0.2409888E-007  0.1543403E+04  0.7818608E-02  0.8879581E-01
          2   -1    0    0  501    0  0.00000000000E+00  0.00000000000E+00  0.20359549309E+04  0.20359549309E+04  0.25500000000E-02 0. -1.
         -2   -1    0    0    0  501 -0.00000000000E+00 -0.00000000000E+00 -0.12513611309E+04  0.12513611309E+04  0.25500000000E-02 0.  1.
    8880023    1    1    2    0    0 -0.11027034072E+04 -0.85576111176E+03  0.10386626024E+04  0.18603526796E+04  0.65864270000E+03 0.  1.
    8880022    1    1    2    0    0  0.11027034072E+04  0.85576111176E+03 -0.25406880240E+03  0.14269633821E+04  0.15294330000E+03 0.  0.
<mgrwt>
<rscale>  0 0.15073490E+04</rscale>
<asrwt>0</asrwt>
<pdfrwt beam="1">  1        2 0.31322383E+00 0.15434028E+04</pdfrwt>
<pdfrwt beam="2">  1       -2 0.19251710E+00 0.15434028E+04</pdfrwt>
<totfact> 0.89029100E-01</totfact>
</mgrwt>
</event>
<event>
 4    5  0.3049704E-007  0.1069416E+04  0.7818608E-02  0.9295897E-01
          2   -1    0    0  501    0  0.00000000000E+00  0.00000000000E+00  0.23676199293E+04  0.23676199293E+04  0.25500000000E-02 0. -1.
         -2   -1    0    0    0  501 -0.00000000000E+00 -0.00000000000E+00 -0.12544442805E+04  0.12544442805E+04  0.25500000000E-02 0.  1.
    8880023    1    1    2    0    0 -0.83227614114E+03  0.13098293989E+03  0.20749579721E+04  0.23343309315E+04  0.65864270000E+03 0. -1.
    8880022    1    1    2    0    0  0.83227614114E+03 -0.13098293989E+03 -0.96178232331E+03  0.12877332783E+04  0.15294330000E+03 0.  0.
<mgrwt>
<rscale>  0 0.10116147E+04</rscale>
<asrwt>0</asrwt>
<pdfrwt beam="1">  1        2 0.36424922E+00 0.10694159E+04</pdfrwt>
<pdfrwt beam="2">  1       -2 0.19299143E+00 0.10694159E+04</pdfrwt>
<totfact> 0.60969842E-01</totfact>
</mgrwt>
</event>
<event>
 4    5  0.2409888E-007  0.9301983E+03  0.7818608E-02  0.9479196E-01
          2   -1    0    0  501    0  0.00000000000E+00  0.00000000000E+00  0.21163829645E+04  0.21163829645E+04  0.25500000000E-02 0. -1.
         -2   -1    0    0    0  501 -0.00000000000E+00 -0.00000000000E+00 -0.16617735910E+04  0.16617735910E+04  0.25500000000E-02 0.  1.
    8880023    1    1    2    0    0 -0.60040526647E+03 -0.26640595532E+03  0.19374318695E+04  0.21491652036E+04  0.65864270000E+03 0.  0.
    8880022    1    1    2    0    0  0.60040526647E+03  0.26640595532E+03 -0.14828224960E+04  0.16289913520E+04  0.15294330000E+03 0.  0.
<mgrwt>
<rscale>  0 0.85835156E+03</rscale>
<asrwt>0</asrwt>
<pdfrwt beam="1">  1        2 0.32559738E+00 0.93019827E+03</pdfrwt>
<pdfrwt beam="2">  1       -2 0.25565748E+00 0.93019827E+03</pdfrwt>
<totfact> 0.34760362E-01</totfact>
</mgrwt>
</event>
<event>
 4    5  0.2409888E-007  0.8653579E+03  0.7818608E-02  0.9584103E-01
         -2   -1    0    0    0  501 -0.00000000000E+00  0.00000000000E+00  0.94803601776E+03  0.94803601777E+03  0.25500000000E-02 0.  1.
          2   -1    0    0  501    0  0.00000000000E+00 -0.00000000000E+00 -0.14019115381E+04  0.14019115381E+04  0.25500000000E-02 0. -1.
    8880023    1    1    2    0    0  0.55489994477E+03  0.84381006509E+02 -0.11522519759E+04  0.14410166291E+04  0.65864270000E+03 0.  0.
    8880022    1    1    2    0    0 -0.55489994477E+03 -0.84381006509E+02  0.69837645559E+03  0.90893092680E+03  0.15294330000E+03 0.  1.
<mgrwt>
<rscale>  0 0.78357352E+03</rscale>
<asrwt>0</asrwt>
<pdfrwt beam="1">  1        2 0.21567870E+00 0.86535791E+03</pdfrwt>
<pdfrwt beam="2">  1       -2 0.14585170E+00 0.86535791E+03</pdfrwt>
<totfact> 0.46957572E+00</totfact>
</mgrwt>
</event>
<event>
 4    5  0.2409888E-007  0.1229804E+04  0.7818608E-02  0.9128681E-01
         -2   -1    0    0    0  501 -0.00000000000E+00  0.00000000000E+00  0.95250017710E+03  0.95250017710E+03  0.25500000000E-02 0.  1.
          2   -1    0    0  501    0  0.00000000000E+00 -0.00000000000E+00 -0.13655803935E+04  0.13655803935E+04  0.25500000000E-02 0. -1.
    8880023    1    1    2    0    0  0.69887078339E+03 -0.76823698162E+03 -0.26348316661E+03  0.12577130107E+04  0.65864270000E+03 0. -1.
    8880022    1    1    2    0    0 -0.69887078339E+03  0.76823698162E+03 -0.14959704976E+03  0.10603675599E+04  0.15294330000E+03 0.  1.
<mgrwt>
<rscale>  0 0.11820877E+04</rscale>
<asrwt>0</asrwt>
<pdfrwt beam="1">  1        2 0.21008929E+00 0.12298043E+04</pdfrwt>
<pdfrwt beam="2">  1       -2 0.14653849E+00 0.12298043E+04</pdfrwt>
<totfact> 0.46818966E+00</totfact>
</mgrwt>
</event>
<event>
 4    5  0.2409888E-007  0.8126394E+03  0.7818608E-02  0.9684105E-01
          2   -1    0    0  501    0  0.00000000000E+00  0.00000000000E+00  0.31182365676E+04  0.31182365676E+04  0.25500000000E-02 0. -1.
         -2   -1    0    0    0  501 -0.00000000000E+00 -0.00000000000E+00 -0.22638754525E+03  0.22638754526E+03  0.25500000000E-02 0.  1.
    8880023    1    1    2    0    0 -0.47241698407E+03 -0.58265019464E+02  0.26819907607E+04  0.28024020529E+04  0.65864270000E+03 0. -1.
    8880022    1    1    2    0    0  0.47241698407E+03  0.58265019464E+02  0.20985826169E+03  0.54222205999E+03  0.15294330000E+03 0.  0.
<mgrwt>
<rscale>  0 0.71971103E+03</rscale>
<asrwt>0</asrwt>
<pdfrwt beam="1">  1        2 0.47972869E+00 0.81263942E+03</pdfrwt>
<pdfrwt beam="2">  1       -2 0.34828854E-01 0.81263942E+03</pdfrwt>
<totfact> 0.11944085E+01</totfact>
</mgrwt>
</event>
<event>
 4    5  0.2409888E-007  0.1027147E+04  0.7818608E-02  0.9346872E-01
         -2   -1    0    0    0  501 -0.00000000000E+00  0.00000000000E+00  0.73902009955E+03  0.73902009955E+03  0.25500000000E-02 0.  1.
          2   -1    0    0  501    0  0.00000000000E+00 -0.00000000000E+00 -0.19586371037E+04  0.19586371037E+04  0.25500000000E-02 0. -1.
    8880023    1    1    2    0    0 -0.77449116419E+03 -0.14623224460E+03 -0.15250060533E+04  0.18386609535E+04  0.65864270000E+03 0.  0.
    8880022    1    1    2    0    0  0.77449116419E+03  0.14623224460E+03  0.30538904920E+03  0.85899624979E+03  0.15294330000E+03 0.  0.
<mgrwt>
<rscale>  0 0.96579890E+03</rscale>
<asrwt>0</asrwt>
<pdfrwt beam="1">  1        2 0.30132878E+00 0.10271468E+04</pdfrwt>
<pdfrwt beam="2">  1       -2 0.11369540E+00 0.10271468E+04</pdfrwt>
<totfact> 0.42525684E+00</totfact>
</mgrwt>
</event>
<event>
 4    5  0.2409888E-007  0.7634467E+03  0.7818608E-02  0.9796265E-01
         -2   -1    0    0    0  501 -0.00000000000E+00  0.00000000000E+00  0.25060487308E+03  0.25060487309E+03  0.25500000000E-02 0.  1.
          2   -1    0    0  501    0  0.00000000000E+00 -0.00000000000E+00 -0.14652577309E+04  0.14652577309E+04  0.25500000000E-02 0. -1.
    8880023    1    1    2    0    0 -0.28557905847E+03  0.25977921426E+03 -0.96818316684E+03  0.12329758674E+04  0.65864270000E+03 0. -1.
    8880022    1    1    2    0    0  0.28557905847E+03 -0.25977921426E+03 -0.24646969102E+03  0.48288673662E+03  0.15294330000E+03 0.  0.
<mgrwt>
<rscale>  0 0.65563384E+03</rscale>
<asrwt>0</asrwt>
<pdfrwt beam="1">  1        2 0.22542426E+00 0.76344669E+03</pdfrwt>
<pdfrwt beam="2">  1       -2 0.38554597E-01 0.76344669E+03</pdfrwt>
<totfact> 0.85883300E+01</totfact>
</mgrwt>
</event>
<event>
 4    5  0.2409888E-007  0.1065570E+04  0.7818608E-02  0.9300394E-01
          2   -1    0    0  501    0  0.00000000000E+00  0.00000000000E+00  0.89580280558E+03  0.89580280559E+03  0.25500000000E-02 0. -1.
         -2   -1    0    0    0  501 -0.00000000000E+00 -0.00000000000E+00 -0.15096573003E+04  0.15096573003E+04  0.25500000000E-02 0.  1.
    8880023    1    1    2    0    0  0.76694108647E+03 -0.33679400215E+03 -0.10083420997E+04  0.14670353868E+04  0.65864270000E+03 0.  1.
    8880022    1    1    2    0    0 -0.76694108647E+03  0.33679400215E+03  0.39448760490E+03  0.93842471910E+03  0.15294330000E+03 0.  0.
<mgrwt>
<rscale>  0 0.10074656E+04</rscale>
<asrwt>0</asrwt>
<pdfrwt beam="1">  1        2 0.13781582E+00 0.10655698E+04</pdfrwt>
<pdfrwt beam="2">  1       -2 0.23225497E+00 0.10655698E+04</pdfrwt>
<totfact> 0.24129999E+00</totfact>
</mgrwt>
</event>
<event>
 4    5  0.2409888E-007  0.9580969E+03  0.7818608E-02  0.9438559E-01
          2   -1    0    0  501    0  0.00000000000E+00  0.00000000000E+00  0.86559411712E+03  0.86559411713E+03  0.25500000000E-02 0. -1.
         -2   -1    0    0    0  501 -0.00000000000E+00 -0.00000000000E+00 -0.11337644290E+04  0.11337644290E+04  0.25500000000E-02 0.  1.
    8880023    1    1    2    0    0 -0.28395902464E+03  0.63522182857E+03  0.38526725258E+03  0.10326570396E+04  0.65864270000E+03 0. -1.
    8880022    1    1    2    0    0  0.28395902464E+03 -0.63522182857E+03 -0.65343756448E+03  0.96670150660E+03  0.15294330000E+03 0.  0.
<mgrwt>
<rscale>  0 0.88969248E+03</rscale>
<asrwt>0</asrwt>
<pdfrwt beam="1">  1        2 0.13316833E+00 0.95809692E+03</pdfrwt>
<pdfrwt beam="2">  1       -2 0.17442530E+00 0.95809692E+03</pdfrwt>
<totfact> 0.61122706E+00</totfact>
</mgrwt>
</event>
<event>
 4    5  0.2409888E-007  0.6722261E+03  0.7818608E-02  0.1014115E+00
          2   -1    0    0  501    0  0.00000000000E+00  0.00000000000E+00  0.43784189597E+03  0.43784189597E+03  0.25500000000E-02 0. -1.
         -2   -1    0    0    0  501 -0.00000000000E+00 -0.00000000000E+00 -0.57397285714E+03  0.57397285715E+03  0.25500000000E-02 0.  1.
    8880023    1    1    2    0    0 -0.11010791006E+03 -0.77161629730E+02  0.12181385831E+03  0.68317383681E+03  0.65864270000E+03 0.  0.
    8880022    1    1    2    0    0  0.11010791006E+03  0.77161629730E+02 -0.25794481949E+03  0.32864091631E+03  0.15294330000E+03 0.  0.
<mgrwt>
<rscale>  0 0.49871494E+03</rscale>
<asrwt>0</asrwt>
<pdfrwt beam="1">  1        2 0.67360291E-01 0.67222606E+03</pdfrwt>
<pdfrwt beam="2">  1       -2 0.88303517E-01 0.67222606E+03</pdfrwt>
<totfact> 0.80465284E+01</totfact>
</mgrwt>
</event>
<event>
 4    5  0.2409888E-007  0.7188160E+03  0.7818608E-02  0.9926613E-01
         -2   -1    0    0    0  501 -0.00000000000E+00  0.00000000000E+00  0.32415913167E+03  0.32415913168E+03  0.25500000000E-02 0.  1.
          2   -1    0    0  501    0  0.00000000000E+00 -0.00000000000E+00 -0.85590690964E+03  0.85590690965E+03  0.25500000000E-02 0. -1.
    8880023    1    1    2    0    0 -0.28537311097E+03  0.38058193653E+02 -0.43421847783E+03  0.83978695591E+03  0.65864270000E+03 0.  0.
    8880022    1    1    2    0    0  0.28537311097E+03 -0.38058193653E+02 -0.97529300147E+02  0.34027908541E+03  0.15294330000E+03 0.  0.
<mgrwt>
<rscale>  0 0.58988679E+03</rscale>
<asrwt>0</asrwt>
<pdfrwt beam="1">  1        2 0.13167799E+00 0.71881600E+03</pdfrwt>
<pdfrwt beam="2">  1       -2 0.49870636E-01 0.71881600E+03</pdfrwt>
<totfact> 0.12128258E+02</totfact>
</mgrwt>
</event>
<event>
 4    5  0.2409888E-007  0.9725131E+03  0.7818608E-02  0.9418437E-01
          2   -1    0    0  501    0  0.00000000000E+00  0.00000000000E+00  0.17946570312E+04  0.17946570312E+04  0.25500000000E-02 0. -1.
         -2   -1    0    0    0  501 -0.00000000000E+00 -0.00000000000E+00 -0.11587029398E+04  0.11587029398E+04  0.25500000000E-02 0.  1.
    8880023    1    1    2    0    0  0.56815852973E+03 -0.43493383810E+03  0.15208108488E+04  0.18051724024E+04  0.65864270000E+03 0. -1.
    8880022    1    1    2    0    0 -0.56815852973E+03  0.43493383810E+03 -0.88485675742E+03  0.11481875686E+04  0.15294330000E+03 0.  0.
<mgrwt>
<rscale>  0 0.90573816E+03</rscale>
<asrwt>0</asrwt>
<pdfrwt beam="1">  1        2 0.27610108E+00 0.97251312E+03</pdfrwt>
<pdfrwt beam="2">  1       -2 0.17826199E+00 0.97251312E+03</pdfrwt>
<totfact> 0.16182744E+00</totfact>
</mgrwt>
</event>
<event>
 4    5  0.2409888E-007  0.1744249E+04  0.7818608E-02  0.8754019E-01
         -2   -1    0    0    0  501 -0.00000000000E+00  0.00000000000E+00  0.17440402709E+04  0.17440402709E+04  0.25500000000E-02 0.  1.
          2   -1    0    0  501    0  0.00000000000E+00 -0.00000000000E+00 -0.25358718617E+04  0.25358718617E+04  0.25500000000E-02 0. -1.
    8880023    1    1    2    0    0  0.16130863383E+04 -0.80912028041E+02 -0.16873352407E+04  0.24268301778E+04  0.65864270000E+03 0.  0.
    8880022    1    1    2    0    0 -0.16130863383E+04  0.80912028041E+02  0.89550364986E+03  0.18530819548E+04  0.15294330000E+03 0.  0.
<mgrwt>
<rscale>  0 0.17129386E+04</rscale>
<asrwt>0</asrwt>
<pdfrwt beam="1">  1        2 0.39013413E+00 0.17442490E+04</pdfrwt>
<pdfrwt beam="2">  1       -2 0.26831389E+00 0.17442490E+04</pdfrwt>
<totfact> 0.15009589E-01</totfact>
</mgrwt>
</event>
<event>
 4    5  0.2409888E-007  0.8548513E+03  0.7818608E-02  0.9602788E-01
         -2   -1    0    0    0  501 -0.00000000000E+00  0.00000000000E+00  0.14290419310E+04  0.14290419310E+04  0.25500000000E-02 0.  1.
          2   -1    0    0  501    0  0.00000000000E+00 -0.00000000000E+00 -0.61550726215E+03  0.61550726216E+03  0.25500000000E-02 0. -1.
    8880023    1    1    2    0    0 -0.70203419999E+02 -0.54039992897E+03 -0.20520709681E+03  0.87913637295E+03  0.65864270000E+03 0.  0.
    8880022    1    1    2    0    0  0.70203419999E+02  0.54039992897E+03  0.10187417657E+04  0.11654128202E+04  0.15294330000E+03 0.  0.
<mgrwt>
<rscale>  0 0.77111903E+03</rscale>
<asrwt>0</asrwt>
<pdfrwt beam="1">  1        2 0.94693427E-01 0.85485134E+03</pdfrwt>
<pdfrwt beam="2">  1       -2 0.21985260E+00 0.85485134E+03</pdfrwt>
<totfact> 0.48138131E+00</totfact>
</mgrwt>
</event>
