<event>
 4    3  0.4022695E+000  0.1917682E+03  0.7546771E-02  0.1156876E+00
         21   -1    0    0  503  502  0.00000000000E+00  0.00000000000E+00  0.44644752280E+03  0.44644752280E+03  0.00000000000E+00 0.  1.
         21   -1    0    0  501  503 -0.00000000000E+00 -0.00000000000E+00 -0.13731985310E+03  0.13731985310E+03  0.00000000000E+00 0.  1.
          6    1    1    2  501    0  0.49132685144E+02  0.66573398910E+02 -0.30072086290E+02  0.19411174247E+03  0.17300000000E+03 0.  1.
         -6    1    1    2    0  502 -0.49132685144E+02 -0.66573398910E+02  0.33919975600E+03  0.38965563343E+03  0.17300000000E+03 0.  1.
<mgrwt>
<rscale>  2 0.19176819E+03</rscale>
<asrwt>0</asrwt>
<pdfrwt beam="1">  1       21 0.68684234E-01 0.19176819E+03</pdfrwt>
<pdfrwt beam="2">  1       21 0.21126131E-01 0.19176819E+03</pdfrwt>
<totfact> 0.40267087E+04</totfact>
</mgrwt>
</event>
<event>
 4    3  0.4022695E+000  0.2017162E+03  0.7546771E-02  0.1148299E+00
         21   -1    0    0  503  502  0.00000000000E+00  0.00000000000E+00  0.18613723870E+03  0.18613723870E+03  0.00000000000E+00 0. -1.
         21   -1    0    0  501  503 -0.00000000000E+00 -0.00000000000E+00 -0.23109643368E+03  0.23109643368E+03  0.00000000000E+00 0. -1.
          6    1    1    2  501    0 -0.60229485508E+02 -0.84455992995E+02 -0.70993247730E+02  0.21384444557E+03  0.17300000000E+03 0. -1.
         -6    1    1    2    0  502  0.60229485508E+02  0.84455992995E+02  0.26034052751E+02  0.20338922680E+03  0.17300000000E+03 0. -1.
<mgrwt>
<rscale>  2 0.20171615E+03</rscale>
<asrwt>0</asrwt>
<pdfrwt beam="1">  1       21 0.28636498E-01 0.20171615E+03</pdfrwt>
<pdfrwt beam="2">  1       21 0.35553297E-01 0.20171615E+03</pdfrwt>
<totfact> 0.88641051E+04</totfact>
</mgrwt>
</event>
<event>
 4    3  0.4022695E+000  0.2570200E+03  0.7546771E-02  0.1108947E+00
         21   -1    0    0  503  502  0.00000000000E+00  0.00000000000E+00  0.54601465283E+03  0.54601465283E+03  0.00000000000E+00 0. -1.
         21   -1    0    0  501  503 -0.00000000000E+00 -0.00000000000E+00 -0.28170722650E+03  0.28170722650E+03  0.00000000000E+00 0. -1.
          6    1    1    2  501    0 -0.16503990482E+03 -0.94298032803E+02 -0.18045000701E+03  0.31404059324E+03  0.17300000000E+03 0. -1.
         -6    1    1    2    0  502  0.16503990482E+03  0.94298032803E+02  0.44475743334E+03  0.51368128609E+03  0.17300000000E+03 0. -1.
<mgrwt>
<rscale>  2 0.25702002E+03</rscale>
<asrwt>0</asrwt>
<pdfrwt beam="1">  1       21 0.84002254E-01 0.25702002E+03</pdfrwt>
<pdfrwt beam="2">  1       21 0.43339573E-01 0.25702002E+03</pdfrwt>
<totfact> 0.60327629E+03</totfact>
</mgrwt>
</event>
<event>
 4    3  0.4022695E+000  0.1883440E+03  0.7546771E-02  0.1159963E+00
         21   -1    0    0  501  502  0.00000000000E+00  0.00000000000E+00  0.81589523814E+03  0.81589523814E+03  0.00000000000E+00 0.  1.
         21   -1    0    0  502  503 -0.00000000000E+00 -0.00000000000E+00 -0.45278486786E+02  0.45278486786E+02  0.00000000000E+00 0. -1.
          6    1    1    2  501    0  0.71198414838E+02  0.21800504467E+02  0.47117260757E+03  0.50742201607E+03  0.17300000000E+03 0.  1.
         -6    1    1    2    0  503 -0.71198414838E+02 -0.21800504467E+02  0.29944414378E+03  0.35375170885E+03  0.17300000000E+03 0.  1.
<mgrwt>
<rscale>  2 0.18834404E+03</rscale>
<asrwt>0</asrwt>
<pdfrwt beam="1">  1       21 0.12552233E+00 0.18834404E+03</pdfrwt>
<pdfrwt beam="2">  1       21 0.69659217E-02 0.18834404E+03</pdfrwt>
<totfact> 0.72161313E+04</totfact>
</mgrwt>
</event>
<event>
 4    3  0.4022695E+000  0.2158853E+03  0.7546771E-02  0.1136988E+00
         21   -1    0    0  503  502  0.00000000000E+00  0.00000000000E+00  0.10207133759E+03  0.10207133759E+03  0.00000000000E+00 0. -1.
         21   -1    0    0  501  503 -0.00000000000E+00 -0.00000000000E+00 -0.56706268420E+03  0.56706268420E+03  0.00000000000E+00 0. -1.
          6    1    1    2  501    0 -0.12900095570E+03  0.60163846261E+01 -0.38015553594E+03  0.43717808152E+03  0.17300000000E+03 0. -1.
         -6    1    1    2    0  502  0.12900095570E+03 -0.60163846261E+01 -0.84835810665E+02  0.23195594027E+03  0.17300000000E+03 0. -1.
<mgrwt>
<rscale>  2 0.21588526E+03</rscale>
<asrwt>0</asrwt>
<pdfrwt beam="1">  1       21 0.15703282E-01 0.21588526E+03</pdfrwt>
<pdfrwt beam="2">  1       21 0.87240415E-01 0.21588526E+03</pdfrwt>
<totfact> 0.40244019E+04</totfact>
</mgrwt>
</event>
<event>
 4    3  0.4022695E+000  0.2838412E+03  0.7546771E-02  0.1093609E+00
         21   -1    0    0  501  502  0.00000000000E+00  0.00000000000E+00  0.28115893953E+04  0.28115893953E+04  0.00000000000E+00 0. -1.
         21   -1    0    0  502  503 -0.00000000000E+00 -0.00000000000E+00 -0.33865545946E+02  0.33865545946E+02  0.00000000000E+00 0.  1.
          6    1    1    2  501    0 -0.61546160359E+02 -0.21644610566E+03  0.19469310056E+04  0.19675126904E+04  0.17300000000E+03 0. -1.
         -6    1    1    2    0  503  0.61546160359E+02  0.21644610566E+03  0.83079284382E+03  0.87794225087E+03  0.17300000000E+03 0.  1.
<mgrwt>
<rscale>  2 0.28384123E+03</rscale>
<asrwt>0</asrwt>
<pdfrwt beam="1">  1       21 0.43255203E+00 0.28384123E+03</pdfrwt>
<pdfrwt beam="2">  1       21 0.52100862E-02 0.28384123E+03</pdfrwt>
<totfact> 0.12099274E+03</totfact>
</mgrwt>
</event>
<event>
 4    3  0.4022695E+000  0.1801714E+03  0.7546771E-02  0.1167637E+00
         21   -1    0    0  503  502  0.00000000000E+00  0.00000000000E+00  0.31352682026E+02  0.31352682026E+02  0.00000000000E+00 0.  1.
         21   -1    0    0  501  503 -0.00000000000E+00 -0.00000000000E+00 -0.24130242005E+04  0.24130242005E+04  0.00000000000E+00 0.  1.
          6    1    1    2  501    0  0.47849864954E+02 -0.15592698820E+02 -0.21143144176E+04  0.21219771908E+04  0.17300000000E+03 0.  1.
         -6    1    1    2    0  502 -0.47849864954E+02  0.15592698820E+02 -0.26735710087E+03  0.32239969172E+03  0.17300000000E+03 0.  1.
<mgrwt>
<rscale>  2 0.18017142E+03</rscale>
<asrwt>0</asrwt>
<pdfrwt beam="1">  1       21 0.48234886E-02 0.18017142E+03</pdfrwt>
<pdfrwt beam="2">  1       21 0.37123457E+00 0.18017142E+03</pdfrwt>
<totfact> 0.38012419E+03</totfact>
</mgrwt>
</event>
<event>
 4    3  0.4022695E+000  0.1961705E+03  0.7546771E-02  0.1153011E+00
         21   -1    0    0  503  502  0.00000000000E+00  0.00000000000E+00  0.10351969951E+04  0.10351969951E+04  0.00000000000E+00 0.  1.
         21   -1    0    0  501  503 -0.00000000000E+00 -0.00000000000E+00 -0.60004405115E+02  0.60004405115E+02  0.00000000000E+00 0.  1.
          6    1    1    2  501    0  0.85501824005E+02  0.35260656934E+02  0.14982325330E+03  0.24683979230E+03  0.17300000000E+03 0.  1.
         -6    1    1    2    0  502 -0.85501824005E+02 -0.35260656934E+02  0.82536933672E+03  0.84836160795E+03  0.17300000000E+03 0.  1.
<mgrwt>
<rscale>  2 0.19617053E+03</rscale>
<asrwt>0</asrwt>
<pdfrwt beam="1">  1       21 0.15926106E+00 0.19617053E+03</pdfrwt>
<pdfrwt beam="2">  1       21 0.92314477E-02 0.19617053E+03</pdfrwt>
<totfact> 0.23753597E+04</totfact>
</mgrwt>
</event>
<event>
 4    3  0.4022695E+000  0.3083054E+03  0.7546771E-02  0.1081161E+00
         21   -1    0    0  501  502  0.00000000000E+00  0.00000000000E+00  0.12130084306E+03  0.12130084306E+03  0.00000000000E+00 0.  1.
         21   -1    0    0  502  503 -0.00000000000E+00 -0.00000000000E+00 -0.78482766604E+03  0.78482766604E+03  0.00000000000E+00 0. -1.
          6    1    1    2  501    0  0.24227163950E+03  0.80172792374E+02 -0.31389767647E+03  0.43998178966E+03  0.17300000000E+03 0. -1.
         -6    1    1    2    0  503 -0.24227163950E+03 -0.80172792374E+02 -0.34962914651E+03  0.46614671943E+03  0.17300000000E+03 0.  1.
<mgrwt>
<rscale>  2 0.30830541E+03</rscale>
<asrwt>0</asrwt>
<pdfrwt beam="1">  1       21 0.18661668E-01 0.30830541E+03</pdfrwt>
<pdfrwt beam="2">  1       21 0.12074272E+00 0.30830541E+03</pdfrwt>
<totfact> 0.12804454E+04</totfact>
</mgrwt>
</event>
<event>
 4    3  0.4022695E+000  0.1959281E+03  0.7546771E-02  0.1153221E+00
         21   -1    0    0  501  502  0.00000000000E+00  0.00000000000E+00  0.80296672030E+03  0.80296672030E+03  0.00000000000E+00 0. -1.
         21   -1    0    0  502  503 -0.00000000000E+00 -0.00000000000E+00 -0.52865464769E+02  0.52865464769E+02  0.00000000000E+00 0. -1.
          6    1    1    2  501    0 -0.26418605345E+02  0.88095756884E+02  0.50741219563E+03  0.54392549248E+03  0.17300000000E+03 0.  1.
         -6    1    1    2    0  503  0.26418605345E+02 -0.88095756884E+02  0.24268905990E+03  0.31190669259E+03  0.17300000000E+03 0.  1.
<mgrwt>
<rscale>  2 0.19592806E+03</rscale>
<asrwt>0</asrwt>
<pdfrwt beam="1">  1       21 0.12353333E+00 0.19592806E+03</pdfrwt>
<pdfrwt beam="2">  1       21 0.81331490E-02 0.19592806E+03</pdfrwt>
<totfact> 0.57190864E+04</totfact>
</mgrwt>
</event>
<event>
 4    3  0.4022695E+000  0.2768434E+03  0.7546771E-02  0.1097426E+00
         21   -1    0    0  503  502  0.00000000000E+00  0.00000000000E+00  0.20628992500E+03  0.20628992500E+03  0.00000000000E+00 0. -1.
         21   -1    0    0  501  503 -0.00000000000E+00 -0.00000000000E+00 -0.16826118015E+04  0.16826118015E+04  0.00000000000E+00 0. -1.
          6    1    1    2  501    0  0.11079438978E+03  0.18557448255E+03 -0.15718474734E+04  0.15960409660E+04  0.17300000000E+03 0. -1.
         -6    1    1    2    0  502 -0.11079438978E+03 -0.18557448255E+03  0.95525596932E+02  0.29286076051E+03  0.17300000000E+03 0. -1.
<mgrwt>
<rscale>  2 0.27684343E+03</rscale>
<asrwt>0</asrwt>
<pdfrwt beam="1">  1       21 0.31736911E-01 0.27684343E+03</pdfrwt>
<pdfrwt beam="2">  1       21 0.25886336E+00 0.27684343E+03</pdfrwt>
<totfact> 0.51279254E+02</totfact>
</mgrwt>
</event>
<event>
 4    3  0.4022695E+000  0.2890414E+03  0.7546771E-02  0.1090851E+00
         21   -1    0    0  501  502  0.00000000000E+00  0.00000000000E+00  0.23952747695E+03  0.23952747695E+03  0.00000000000E+00 0.  1.
         21   -1    0    0  502  503 -0.00000000000E+00 -0.00000000000E+00 -0.57040549884E+03  0.57040549884E+03  0.00000000000E+00 0. -1.
          6    1    1    2  501    0  0.16613512531E+03 -0.16129180335E+03  0.86982718717E+02  0.30184585312E+03  0.17300000000E+03 0.  1.
         -6    1    1    2    0  503 -0.16613512531E+03  0.16129180335E+03 -0.41786074060E+03  0.50808712267E+03  0.17300000000E+03 0.  1.
<mgrwt>
<rscale>  2 0.28904139E+03</rscale>
<asrwt>0</asrwt>
<pdfrwt beam="1">  1       21 0.36850381E-01 0.28904139E+03</pdfrwt>
<pdfrwt beam="2">  1       21 0.87754692E-01 0.28904139E+03</pdfrwt>
<totfact> 0.74567645E+03</totfact>
</mgrwt>
</event>
<event>
 4    3  0.4022695E+000  0.2103118E+03  0.7546771E-02  0.1141319E+00
         21   -1    0    0  501  502  0.00000000000E+00  0.00000000000E+00  0.90358069757E+03  0.90358069757E+03  0.00000000000E+00 0.  1.
         21   -1    0    0  502  503 -0.00000000000E+00 -0.00000000000E+00 -0.71984988361E+02  0.71984988361E+02  0.00000000000E+00 0.  1.
          6    1    1    2  501    0 -0.49752790092E+02 -0.10875062347E+03  0.69172319601E+03  0.72298825587E+03  0.17300000000E+03 0.  1.
         -6    1    1    2    0  503  0.49752790092E+02  0.10875062347E+03  0.13987251320E+03  0.25257743006E+03  0.17300000000E+03 0.  1.
<mgrwt>
<rscale>  2 0.21031176E+03</rscale>
<asrwt>0</asrwt>
<pdfrwt beam="1">  1       21 0.13901241E+00 0.21031176E+03</pdfrwt>
<pdfrwt beam="2">  1       21 0.11074614E-01 0.21031176E+03</pdfrwt>
<totfact> 0.24404813E+04</totfact>
</mgrwt>
</event>
<event>
 4    3  0.4022695E+000  0.2231671E+03  0.7546771E-02  0.1131544E+00
         21   -1    0    0  501  502  0.00000000000E+00  0.00000000000E+00  0.73273112538E+03  0.73273112538E+03  0.00000000000E+00 0. -1.
         21   -1    0    0  502  503 -0.00000000000E+00 -0.00000000000E+00 -0.13425896162E+03  0.13425896162E+03  0.00000000000E+00 0. -1.
          6    1    1    2  501    0 -0.14097555354E+03  0.67377618588E+00  0.60383887390E+03  0.64375845339E+03  0.17300000000E+03 0. -1.
         -6    1    1    2    0  503  0.14097555354E+03 -0.67377618588E+00 -0.53667101508E+01  0.22323163362E+03  0.17300000000E+03 0. -1.
<mgrwt>
<rscale>  2 0.22316711E+03</rscale>
<asrwt>0</asrwt>
<pdfrwt beam="1">  1       21 0.11272786E+00 0.22316711E+03</pdfrwt>
<pdfrwt beam="2">  1       21 0.20655225E-01 0.22316711E+03</pdfrwt>
<totfact> 0.13109617E+04</totfact>
</mgrwt>
</event>
<event>
 4    3  0.4022695E+000  0.2171952E+03  0.7546771E-02  0.1135992E+00
         21   -1    0    0  503  502  0.00000000000E+00  0.00000000000E+00  0.11048676664E+04  0.11048676664E+04  0.00000000000E+00 0.  1.
         21   -1    0    0  501  503 -0.00000000000E+00 -0.00000000000E+00 -0.45106255455E+02  0.45106255455E+02  0.00000000000E+00 0.  1.
          6    1    1    2  501    0  0.82401011930E+02  0.10224886452E+03  0.39697474276E+03  0.45250713083E+03  0.17300000000E+03 0. -1.
         -6    1    1    2    0  502 -0.82401011930E+02 -0.10224886452E+03  0.66278666820E+03  0.69746679105E+03  0.17300000000E+03 0. -1.
<mgrwt>
<rscale>  2 0.21719520E+03</rscale>
<asrwt>0</asrwt>
<pdfrwt beam="1">  1       21 0.16997962E+00 0.21719520E+03</pdfrwt>
<pdfrwt beam="2">  1       21 0.69394247E-02 0.21719520E+03</pdfrwt>
<totfact> 0.32270909E+04</totfact>
</mgrwt>
</event>
<event>
 4    3  0.4022695E+000  0.2292823E+03  0.7546771E-02  0.1127146E+00
         21   -1    0    0  503  502  0.00000000000E+00  0.00000000000E+00  0.27900567946E+03  0.27900567946E+03  0.00000000000E+00 0. -1.
         21   -1    0    0  501  503 -0.00000000000E+00 -0.00000000000E+00 -0.19006008072E+03  0.19006008072E+03  0.00000000000E+00 0.  1.
          6    1    1    2  501    0  0.12811557821E+03 -0.78916344171E+02  0.22689475621E+02  0.23040226358E+03  0.17300000000E+03 0.  1.
         -6    1    1    2    0  502 -0.12811557821E+03  0.78916344171E+02  0.66256123126E+02  0.23866349660E+03  0.17300000000E+03 0. -1.
<mgrwt>
<rscale>  2 0.22928234E+03</rscale>
<asrwt>0</asrwt>
<pdfrwt beam="1">  1       21 0.42923951E-01 0.22928234E+03</pdfrwt>
<pdfrwt beam="2">  1       21 0.29240012E-01 0.22928234E+03</pdfrwt>
<totfact> 0.57517804E+04</totfact>
</mgrwt>
</event>
<event>
 4    3  0.4022695E+000  0.1757211E+03  0.7546771E-02  0.1172010E+00
         21   -1    0    0  503  502  0.00000000000E+00  0.00000000000E+00  0.24137846842E+03  0.24137846842E+03  0.00000000000E+00 0.  1.
         21   -1    0    0  501  503 -0.00000000000E+00 -0.00000000000E+00 -0.15690619463E+03  0.15690619463E+03  0.00000000000E+00 0.  1.
          6    1    1    2  501    0 -0.61201809409E+01 -0.30190410746E+02 -0.43352245067E+02  0.18098987449E+03  0.17300000000E+03 0.  1.
         -6    1    1    2    0  502  0.61201809409E+01  0.30190410746E+02  0.12782451885E+03  0.21729478856E+03  0.17300000000E+03 0.  1.
<mgrwt>
<rscale>  2 0.17572114E+03</rscale>
<asrwt>0</asrwt>
<pdfrwt beam="1">  1       21 0.37135149E-01 0.17572114E+03</pdfrwt>
<pdfrwt beam="2">  1       21 0.24139415E-01 0.17572114E+03</pdfrwt>
<totfact> 0.11393970E+05</totfact>
</mgrwt>
</event>
<event>
 4    3  0.4022695E+000  0.1771549E+03  0.7546771E-02  0.1170585E+00
         21   -1    0    0  501  502  0.00000000000E+00  0.00000000000E+00  0.55974145989E+02  0.55974145989E+02  0.00000000000E+00 0. -1.
         21   -1    0    0  502  503 -0.00000000000E+00 -0.00000000000E+00 -0.81727201287E+03  0.81727201287E+03  0.00000000000E+00 0. -1.
          6    1    1    2  501    0 -0.53683932947E+01  0.37762918773E+02 -0.13600141975E+03  0.22333885433E+03  0.17300000000E+03 0. -1.
         -6    1    1    2    0  503  0.53683932947E+01 -0.37762918773E+02 -0.62529644714E+03  0.64990730453E+03  0.17300000000E+03 0. -1.
<mgrwt>
<rscale>  2 0.17715490E+03</rscale>
<asrwt>0</asrwt>
<pdfrwt beam="1">  1       21 0.86114081E-02 0.17715490E+03</pdfrwt>
<pdfrwt beam="2">  1       21 0.12573414E+00 0.17715490E+03</pdfrwt>
<totfact> 0.50017928E+04</totfact>
</mgrwt>
</event>
<event>
 4    3  0.4022695E+000  0.2156584E+03  0.7546771E-02  0.1137162E+00
         21   -1    0    0  503  502  0.00000000000E+00  0.00000000000E+00  0.26049880848E+03  0.26049880848E+03  0.00000000000E+00 0.  1.
         21   -1    0    0  501  503 -0.00000000000E+00 -0.00000000000E+00 -0.26101421070E+03  0.26101421070E+03  0.00000000000E+00 0. -1.
          6    1    1    2  501    0 -0.16044446279E+02 -0.12775811829E+03 -0.14683652231E+03  0.26090137089E+03  0.17300000000E+03 0. -1.
         -6    1    1    2    0  502  0.16044446279E+02  0.12775811829E+03  0.14632112009E+03  0.26061164830E+03  0.17300000000E+03 0.  1.
<mgrwt>
<rscale>  2 0.21565844E+03</rscale>
<asrwt>0</asrwt>
<pdfrwt beam="1">  1       21 0.40076740E-01 0.21565844E+03</pdfrwt>
<pdfrwt beam="2">  1       21 0.40156032E-01 0.21565844E+03</pdfrwt>
<totfact> 0.35434230E+04</totfact>
</mgrwt>
</event>
<event>
 4    3  0.4022695E+000  0.2294291E+03  0.7546771E-02  0.1127042E+00
         21   -1    0    0  503  502  0.00000000000E+00  0.00000000000E+00  0.70923176845E+03  0.70923176845E+03  0.00000000000E+00 0.  1.
         21   -1    0    0  501  503 -0.00000000000E+00 -0.00000000000E+00 -0.10102729181E+03  0.10102729181E+03  0.00000000000E+00 0. -1.
          6    1    1    2  501    0  0.34944337035E+02  0.14658648489E+03  0.95404428630E+02  0.24847476581E+03  0.17300000000E+03 0. -1.
         -6    1    1    2    0  502 -0.34944337035E+02 -0.14658648489E+03  0.51280004801E+03  0.56178429444E+03  0.17300000000E+03 0.  1.
<mgrwt>
<rscale>  2 0.22942908E+03</rscale>
<asrwt>0</asrwt>
<pdfrwt beam="1">  1       21 0.10911258E+00 0.22942908E+03</pdfrwt>
<pdfrwt beam="2">  1       21 0.15542661E-01 0.22942908E+03</pdfrwt>
<totfact> 0.23972862E+04</totfact>
</mgrwt>
</event>
<event>
 4    3  0.4022695E+000  0.2311909E+03  0.7546771E-02  0.1125804E+00
         21   -1    0    0  501  502  0.00000000000E+00  0.00000000000E+00  0.74838362778E+03  0.74838362778E+03  0.00000000000E+00 0. -1.
         21   -1    0    0  502  503 -0.00000000000E+00 -0.00000000000E+00 -0.16998070651E+03  0.16998070651E+03  0.00000000000E+00 0.  1.
          6    1    1    2  501    0 -0.15135096620E+03  0.24761568715E+02  0.63885506575E+03  0.67940050434E+03  0.17300000000E+03 0. -1.
         -6    1    1    2    0  503  0.15135096620E+03 -0.24761568715E+02 -0.60452144474E+02  0.23896382996E+03  0.17300000000E+03 0.  1.
<mgrwt>
<rscale>  2 0.23119094E+03</rscale>
<asrwt>0</asrwt>
<pdfrwt beam="1">  1       21 0.11513594E+00 0.23119094E+03</pdfrwt>
<pdfrwt beam="2">  1       21 0.26150878E-01 0.23119094E+03</pdfrwt>
<totfact> 0.79061423E+03</totfact>
</mgrwt>
</event>
<event>
 4    3  0.4022695E+000  0.1837935E+03  0.7546771E-02  0.1164181E+00
         21   -1    0    0  503  502  0.00000000000E+00  0.00000000000E+00  0.60486194585E+02  0.60486194585E+02  0.00000000000E+00 0.  1.
         21   -1    0    0  501  503 -0.00000000000E+00 -0.00000000000E+00 -0.12317310815E+04  0.12317310815E+04  0.00000000000E+00 0.  1.
          6    1    1    2  501    0 -0.10748467950E+02  0.61118986199E+02 -0.10633030022E+04  0.10790705883E+04  0.17300000000E+03 0.  1.
         -6    1    1    2    0  502  0.10748467950E+02 -0.61118986199E+02 -0.10794188470E+03  0.21314668778E+03  0.17300000000E+03 0.  1.
<mgrwt>
<rscale>  2 0.18379353E+03</rscale>
<asrwt>0</asrwt>
<pdfrwt beam="1">  1       21 0.93055686E-02 0.18379353E+03</pdfrwt>
<pdfrwt beam="2">  1       21 0.18949709E+00 0.18379353E+03</pdfrwt>
<totfact> 0.14578815E+04</totfact>
</mgrwt>
</event>
<event>
 4    3  0.4022695E+000  0.2246519E+03  0.7546771E-02  0.1130462E+00
         21   -1    0    0  501  502  0.00000000000E+00  0.00000000000E+00  0.44986385875E+03  0.44986385875E+03  0.00000000000E+00 0. -1.
         21   -1    0    0  502  503 -0.00000000000E+00 -0.00000000000E+00 -0.57200203899E+03  0.57200203899E+03  0.00000000000E+00 0. -1.
          6    1    1    2  501    0  0.31070319635E+02  0.13990746353E+03  0.39702758713E+03  0.45617909647E+03  0.17300000000E+03 0. -1.
         -6    1    1    2    0  503 -0.31070319635E+02 -0.13990746353E+03 -0.51916576738E+03  0.56568680127E+03  0.17300000000E+03 0. -1.
<mgrwt>
<rscale>  2 0.22465187E+03</rscale>
<asrwt>0</asrwt>
<pdfrwt beam="1">  1       21 0.69209825E-01 0.22465187E+03</pdfrwt>
<pdfrwt beam="2">  1       21 0.88000313E-01 0.22465187E+03</pdfrwt>
<totfact> 0.20452212E+03</totfact>
</mgrwt>
</event>
<event>
 4    3  0.4022695E+000  0.1886435E+03  0.7546771E-02  0.1159690E+00
         21   -1    0    0  501  502  0.00000000000E+00  0.00000000000E+00  0.62108808266E+03  0.62108808266E+03  0.00000000000E+00 0. -1.
         21   -1    0    0  502  503 -0.00000000000E+00 -0.00000000000E+00 -0.11734428061E+03  0.11734428061E+03  0.00000000000E+00 0. -1.
          6    1    1    2  501    0  0.59590931409E+02  0.45894502139E+02  0.51598930152E+03  0.54939179437E+03  0.17300000000E+03 0. -1.
         -6    1    1    2    0  503 -0.59590931409E+02 -0.45894502139E+02 -0.12245499467E+02  0.18904056890E+03  0.17300000000E+03 0. -1.
<mgrwt>
<rscale>  2 0.18864354E+03</rscale>
<asrwt>0</asrwt>
<pdfrwt beam="1">  1       21 0.95552010E-01 0.18864354E+03</pdfrwt>
<pdfrwt beam="2">  1       21 0.18052967E-01 0.18864354E+03</pdfrwt>
<totfact> 0.25577688E+04</totfact>
</mgrwt>
</event>
<event>
 4    3  0.4022695E+000  0.1922540E+03  0.7546771E-02  0.1156444E+00
         21   -1    0    0  501  502  0.00000000000E+00  0.00000000000E+00  0.25106749646E+02  0.25106749646E+02  0.00000000000E+00 0.  1.
         21   -1    0    0  502  503 -0.00000000000E+00 -0.00000000000E+00 -0.14990706288E+04  0.14990706288E+04  0.00000000000E+00 0.  1.
          6    1    1    2  501    0 -0.41245472495E+02  0.73016439561E+02 -0.83905612707E+03  0.86080007773E+03  0.17300000000E+03 0.  1.
         -6    1    1    2    0  503  0.41245472495E+02 -0.73016439561E+02 -0.63490775209E+03  0.66337730072E+03  0.17300000000E+03 0.  1.
<mgrwt>
<rscale>  2 0.19225397E+03</rscale>
<asrwt>0</asrwt>
<pdfrwt beam="1">  1       21 0.38625770E-02 0.19225397E+03</pdfrwt>
<pdfrwt beam="2">  1       21 0.23062624E+00 0.19225397E+03</pdfrwt>
<totfact> 0.36032508E+04</totfact>
</mgrwt>
</event>
<event>
 4    3  0.4022695E+000  0.1893653E+03  0.7546771E-02  0.1159035E+00
         21   -1    0    0  503  502  0.00000000000E+00  0.00000000000E+00  0.51060059307E+02  0.51060059307E+02  0.00000000000E+00 0. -1.
         21   -1    0    0  501  503 -0.00000000000E+00 -0.00000000000E+00 -0.71144368248E+03  0.71144368248E+03  0.00000000000E+00 0.  1.
          6    1    1    2  501    0 -0.21953488719E+02  0.73812316033E+02 -0.37342586599E+03  0.41869570222E+03  0.17300000000E+03 0.  1.
         -6    1    1    2    0  502  0.21953488719E+02 -0.73812316033E+02 -0.28695775719E+03  0.34380803957E+03  0.17300000000E+03 0. -1.
<mgrwt>
<rscale>  2 0.18936529E+03</rscale>
<asrwt>0</asrwt>
<pdfrwt beam="1">  1       21 0.78553938E-02 0.18936529E+03</pdfrwt>
<pdfrwt beam="2">  1       21 0.10945287E+00 0.18936529E+03</pdfrwt>
<totfact> 0.82003625E+04</totfact>
</mgrwt>
</event>
<event>
 4    3  0.4022695E+000  0.1789585E+03  0.7546771E-02  0.1168815E+00
         21   -1    0    0  501  502  0.00000000000E+00  0.00000000000E+00  0.73360602171E+03  0.73360602171E+03  0.00000000000E+00 0.  1.
         21   -1    0    0  502  503 -0.00000000000E+00 -0.00000000000E+00 -0.99071330580E+02  0.99071330580E+02  0.00000000000E+00 0.  1.
          6    1    1    2  501    0 -0.15431578879E+02  0.43116413059E+02  0.58889318236E+01  0.17905540545E+03  0.17300000000E+03 0.  1.
         -6    1    1    2    0  503  0.15431578879E+02 -0.43116413059E+02  0.62864575931E+03  0.65362194685E+03  0.17300000000E+03 0.  1.
<mgrwt>
<rscale>  2 0.17895854E+03</rscale>
<asrwt>0</asrwt>
<pdfrwt beam="1">  1       21 0.11286246E+00 0.17895854E+03</pdfrwt>
<pdfrwt beam="2">  1       21 0.15241744E-01 0.17895854E+03</pdfrwt>
<totfact> 0.23577917E+04</totfact>
</mgrwt>
</event>
<event>
 4    3  0.4022695E+000  0.2183319E+03  0.7546771E-02  0.1135133E+00
         21   -1    0    0  501  502  0.00000000000E+00  0.00000000000E+00  0.14843121794E+03  0.14843121794E+03  0.00000000000E+00 0. -1.
         21   -1    0    0  502  503 -0.00000000000E+00 -0.00000000000E+00 -0.58035614876E+03  0.58035614876E+03  0.00000000000E+00 0.  1.
          6    1    1    2  501    0  0.15888903040E+02 -0.13223978344E+03  0.27563598931E+02  0.22006492121E+03  0.17300000000E+03 0. -1.
         -6    1    1    2    0  503 -0.15888903040E+02  0.13223978344E+03 -0.45948852976E+03  0.50872244548E+03  0.17300000000E+03 0.  1.
<mgrwt>
<rscale>  2 0.21833190E+03</rscale>
<asrwt>0</asrwt>
<pdfrwt beam="1">  1       21 0.22835572E-01 0.21833190E+03</pdfrwt>
<pdfrwt beam="2">  1       21 0.89285561E-01 0.21833190E+03</pdfrwt>
<totfact> 0.18956608E+04</totfact>
</mgrwt>
</event>
<event>
 4    3  0.4022695E+000  0.1766764E+03  0.7546771E-02  0.1171059E+00
         21   -1    0    0  503  502  0.00000000000E+00  0.00000000000E+00  0.63323630244E+02  0.63323630244E+02  0.00000000000E+00 0.  1.
         21   -1    0    0  501  503 -0.00000000000E+00 -0.00000000000E+00 -0.77822028953E+03  0.77822028953E+03  0.00000000000E+00 0.  1.
          6    1    1    2  501    0 -0.61543128731E+01  0.35322407181E+02 -0.61220984935E+03  0.63719341463E+03  0.17300000000E+03 0.  1.
         -6    1    1    2    0  502  0.61543128731E+01 -0.35322407181E+02 -0.10268680994E+03  0.20435050514E+03  0.17300000000E+03 0.  1.
<mgrwt>
<rscale>  2 0.17667639E+03</rscale>
<asrwt>0</asrwt>
<pdfrwt beam="1">  1       21 0.97420962E-02 0.17667639E+03</pdfrwt>
<pdfrwt beam="2">  1       21 0.11972621E+00 0.17667639E+03</pdfrwt>
<totfact> 0.45517657E+04</totfact>
</mgrwt>
</event>
<event>
 4    3  0.4022695E+000  0.1743967E+03  0.7546771E-02  0.1173339E+00
         21   -1    0    0  501  502  0.00000000000E+00  0.00000000000E+00  0.14524623932E+03  0.14524623932E+03  0.00000000000E+00 0.  1.
         21   -1    0    0  502  503 -0.00000000000E+00 -0.00000000000E+00 -0.37336248912E+03  0.37336248912E+03  0.00000000000E+00 0.  1.
          6    1    1    2  501    0 -0.14079175274E+02  0.16940491585E+02  0.57780191939E+02  0.18371922603E+03  0.17300000000E+03 0.  1.
         -6    1    1    2    0  503  0.14079175274E+02 -0.16940491585E+02 -0.28589644174E+03  0.33488950242E+03  0.17300000000E+03 0.  1.
<mgrwt>
<rscale>  2 0.17439668E+03</rscale>
<asrwt>0</asrwt>
<pdfrwt beam="1">  1       21 0.22345576E-01 0.17439668E+03</pdfrwt>
<pdfrwt beam="2">  1       21 0.57440382E-01 0.17439668E+03</pdfrwt>
<totfact> 0.53776387E+04</totfact>
</mgrwt>
</event>
<event>
 4    3  0.4022695E+000  0.2182521E+03  0.7546771E-02  0.1135193E+00
         21   -1    0    0  503  502  0.00000000000E+00  0.00000000000E+00  0.91753970210E+02  0.91753970210E+02  0.00000000000E+00 0.  1.
         21   -1    0    0  501  503 -0.00000000000E+00 -0.00000000000E+00 -0.52386099673E+03  0.52386099673E+03  0.00000000000E+00 0.  1.
          6    1    1    2  501    0 -0.11305068219E+03 -0.70175040856E+02 -0.24524579191E+03  0.32829787016E+03  0.17300000000E+03 0.  1.
         -6    1    1    2    0  502  0.11305068219E+03  0.70175040856E+02 -0.18686123461E+03  0.28731709678E+03  0.17300000000E+03 0.  1.
<mgrwt>
<rscale>  2 0.21825213E+03</rscale>
<asrwt>0</asrwt>
<pdfrwt beam="1">  1       21 0.14115995E-01 0.21825213E+03</pdfrwt>
<pdfrwt beam="2">  1       21 0.80594000E-01 0.21825213E+03</pdfrwt>
<totfact> 0.58539335E+04</totfact>
</mgrwt>
</event>
<event>
 4    3  0.4022695E+000  0.1855074E+03  0.7546771E-02  0.1162577E+00
         21   -1    0    0  501  502  0.00000000000E+00  0.00000000000E+00  0.49380162291E+02  0.49380162291E+02  0.00000000000E+00 0. -1.
         21   -1    0    0  502  503 -0.00000000000E+00 -0.00000000000E+00 -0.13788395351E+04  0.13788395351E+04  0.00000000000E+00 0. -1.
          6    1    1    2  501    0 -0.68250686578E+01 -0.66614035524E+02 -0.16252443790E+03  0.24663171776E+03  0.17300000000E+03 0. -1.
         -6    1    1    2    0  503  0.68250686578E+01  0.66614035524E+02 -0.11669349349E+04  0.11815879796E+04  0.17300000000E+03 0. -1.
<mgrwt>
<rscale>  2 0.18550744E+03</rscale>
<asrwt>0</asrwt>
<pdfrwt beam="1">  1       21 0.75969472E-02 0.18550744E+03</pdfrwt>
<pdfrwt beam="2">  1       21 0.21212918E+00 0.18550744E+03</pdfrwt>
<totfact> 0.14861891E+04</totfact>
</mgrwt>
</event>
<event>
 4    3  0.4022695E+000  0.2004717E+03  0.7546771E-02  0.1149342E+00
         21   -1    0    0  501  502  0.00000000000E+00  0.00000000000E+00  0.83556663712E+03  0.83556663712E+03  0.00000000000E+00 0. -1.
         21   -1    0    0  502  503 -0.00000000000E+00 -0.00000000000E+00 -0.11396776962E+03  0.11396776962E+03  0.00000000000E+00 0.  1.
          6    1    1    2  501    0 -0.55887304473E+02 -0.84477865018E+02  0.72173816111E+03  0.74906266339E+03  0.17300000000E+03 0. -1.
         -6    1    1    2    0  503  0.55887304473E+02  0.84477865018E+02 -0.13929361933E+00  0.20047174335E+03  0.17300000000E+03 0.  1.
<mgrwt>
<rscale>  2 0.20047169E+03</rscale>
<asrwt>0</asrwt>
<pdfrwt beam="1">  1       21 0.12854871E+00 0.20047169E+03</pdfrwt>
<pdfrwt beam="2">  1       21 0.17533504E-01 0.20047169E+03</pdfrwt>
<totfact> 0.13032858E+04</totfact>
</mgrwt>
</event>
<event>
 4    3  0.4022695E+000  0.1883171E+03  0.7546771E-02  0.1159988E+00
         21   -1    0    0  501  502  0.00000000000E+00  0.00000000000E+00  0.21483799741E+03  0.21483799741E+03  0.00000000000E+00 0.  1.
         21   -1    0    0  502  503 -0.00000000000E+00 -0.00000000000E+00 -0.53238814216E+03  0.53238814216E+03  0.00000000000E+00 0.  1.
          6    1    1    2  501    0  0.19827462643E+02  0.71702287274E+02  0.15155864112E+03  0.24172994844E+03  0.17300000000E+03 0.  1.
         -6    1    1    2    0  503 -0.19827462643E+02 -0.71702287274E+02 -0.46910878587E+03  0.50549619114E+03  0.17300000000E+03 0.  1.
<mgrwt>
<rscale>  2 0.18831714E+03</rscale>
<asrwt>0</asrwt>
<pdfrwt beam="1">  1       21 0.33052000E-01 0.18831714E+03</pdfrwt>
<pdfrwt beam="2">  1       21 0.81905868E-01 0.18831714E+03</pdfrwt>
<totfact> 0.11525459E+04</totfact>
</mgrwt>
</event>
<event>
 4    3  0.4022695E+000  0.2320964E+03  0.7546771E-02  0.1125173E+00
         21   -1    0    0  503  502  0.00000000000E+00  0.00000000000E+00  0.55344090862E+02  0.55344090862E+02  0.00000000000E+00 0.  1.
         21   -1    0    0  501  503 -0.00000000000E+00 -0.00000000000E+00 -0.98105069564E+03  0.98105069564E+03  0.00000000000E+00 0. -1.
          6    1    1    2  501    0  0.11324421804E+03 -0.10543004365E+03 -0.50878688405E+03  0.55922521438E+03  0.17300000000E+03 0.  1.
         -6    1    1    2    0  502 -0.11324421804E+03  0.10543004365E+03 -0.41691972073E+03  0.47716957212E+03  0.17300000000E+03 0. -1.
<mgrwt>
<rscale>  2 0.23209642E+03</rscale>
<asrwt>0</asrwt>
<pdfrwt beam="1">  1       21 0.85144750E-02 0.23209642E+03</pdfrwt>
<pdfrwt beam="2">  1       21 0.15093089E+00 0.23209642E+03</pdfrwt>
<totfact> 0.30923610E+04</totfact>
</mgrwt>
</event>
<event>
 4    3  0.4022695E+000  0.1809612E+03  0.7546771E-02  0.1166876E+00
         21   -1    0    0  501  502  0.00000000000E+00  0.00000000000E+00  0.14460459951E+03  0.14460459951E+03  0.00000000000E+00 0.  1.
         21   -1    0    0  502  503 -0.00000000000E+00 -0.00000000000E+00 -0.25259610365E+03  0.25259610365E+03  0.00000000000E+00 0.  1.
          6    1    1    2  501    0  0.24918288638E+02  0.46872698179E+02  0.98890915016E+01  0.18123124751E+03  0.17300000000E+03 0.  1.
         -6    1    1    2    0  503 -0.24918288638E+02 -0.46872698179E+02 -0.11788059565E+03  0.21596945565E+03  0.17300000000E+03 0.  1.
<mgrwt>
<rscale>  2 0.18096124E+03</rscale>
<asrwt>0</asrwt>
<pdfrwt beam="1">  1       21 0.22246862E-01 0.18096124E+03</pdfrwt>
<pdfrwt beam="2">  1       21 0.38860938E-01 0.18096124E+03</pdfrwt>
<totfact> 0.12117375E+05</totfact>
</mgrwt>
</event>
<event>
 4    3  0.4022695E+000  0.1802082E+03  0.7546771E-02  0.1167602E+00
         21   -1    0    0  503  502  0.00000000000E+00  0.00000000000E+00  0.95081173284E+03  0.95081173284E+03  0.00000000000E+00 0.  1.
         21   -1    0    0  501  503 -0.00000000000E+00 -0.00000000000E+00 -0.95634838030E+02  0.95634838030E+02  0.00000000000E+00 0.  1.
          6    1    1    2  501    0  0.40868930308E+02 -0.29592657784E+02  0.80755832881E+01  0.18038905151E+03  0.17300000000E+03 0.  1.
         -6    1    1    2    0  502 -0.40868930308E+02  0.29592657784E+02  0.84710131152E+03  0.86605751936E+03  0.17300000000E+03 0.  1.
<mgrwt>
<rscale>  2 0.18020820E+03</rscale>
<asrwt>0</asrwt>
<pdfrwt beam="1">  1       21 0.14627872E+00 0.18020820E+03</pdfrwt>
<pdfrwt beam="2">  1       21 0.14713053E-01 0.18020820E+03</pdfrwt>
<totfact> 0.13089979E+04</totfact>
</mgrwt>
</event>
<event>
 4    3  0.4022695E+000  0.2169582E+03  0.7546771E-02  0.1136171E+00
         21   -1    0    0  503  502  0.00000000000E+00  0.00000000000E+00  0.26408342963E+03  0.26408342963E+03  0.00000000000E+00 0.  1.
         21   -1    0    0  501  503 -0.00000000000E+00 -0.00000000000E+00 -0.20352607628E+03  0.20352607628E+03  0.00000000000E+00 0. -1.
          6    1    1    2  501    0 -0.12183369913E+03  0.47941661043E+02 -0.52128261840E+02  0.22313271564E+03  0.17300000000E+03 0.  1.
         -6    1    1    2    0  502  0.12183369913E+03 -0.47941661043E+02  0.11268561519E+03  0.24447679027E+03  0.17300000000E+03 0. -1.
<mgrwt>
<rscale>  2 0.21695818E+03</rscale>
<asrwt>0</asrwt>
<pdfrwt beam="1">  1       21 0.40628220E-01 0.21695818E+03</pdfrwt>
<pdfrwt beam="2">  1       21 0.31311704E-01 0.21695818E+03</pdfrwt>
<totfact> 0.56569188E+04</totfact>
</mgrwt>
</event>
<event>
 4    3  0.4022695E+000  0.1761090E+03  0.7546771E-02  0.1171623E+00
         21   -1    0    0  503  502  0.00000000000E+00  0.00000000000E+00  0.67644952444E+02  0.67644952444E+02  0.00000000000E+00 0.  1.
         21   -1    0    0  501  503 -0.00000000000E+00 -0.00000000000E+00 -0.51213442534E+03  0.51213442534E+03  0.00000000000E+00 0.  1.
          6    1    1    2  501    0  0.49764692447E+01  0.32567286789E+02 -0.12842126253E+03  0.21795966160E+03  0.17300000000E+03 0.  1.
         -6    1    1    2    0  502 -0.49764692447E+01 -0.32567286789E+02 -0.31606821037E+03  0.36181971619E+03  0.17300000000E+03 0.  1.
<mgrwt>
<rscale>  2 0.17610904E+03</rscale>
<asrwt>0</asrwt>
<pdfrwt beam="1">  1       21 0.10406916E-01 0.17610904E+03</pdfrwt>
<pdfrwt beam="2">  1       21 0.78789911E-01 0.17610904E+03</pdfrwt>
<totfact> 0.10832938E+05</totfact>
</mgrwt>
</event>
<event>
 4    3  0.4022695E+000  0.2941143E+03  0.7546771E-02  0.1088220E+00
         21   -1    0    0  503  502  0.00000000000E+00  0.00000000000E+00  0.74438549199E+02  0.74438549199E+02  0.00000000000E+00 0.  1.
         21   -1    0    0  501  503 -0.00000000000E+00 -0.00000000000E+00 -0.19324769226E+04  0.19324769226E+04  0.00000000000E+00 0.  1.
          6    1    1    2  501    0  0.14486020777E+03 -0.18865237887E+03 -0.15625978158E+04  0.15900362052E+04  0.17300000000E+03 0.  1.
         -6    1    1    2    0  502 -0.14486020777E+03  0.18865237887E+03 -0.29544055756E+03  0.41687926657E+03  0.17300000000E+03 0.  1.
<mgrwt>
<rscale>  2 0.29411426E+03</rscale>
<asrwt>0</asrwt>
<pdfrwt beam="1">  1       21 0.11452084E-01 0.29411426E+03</pdfrwt>
<pdfrwt beam="2">  1       21 0.29730415E+00 0.29411426E+03</pdfrwt>
<totfact> 0.20371224E+03</totfact>
</mgrwt>
</event>
<event>
 4    3  0.4022695E+000  0.2082850E+03  0.7546771E-02  0.1142931E+00
         21   -1    0    0  501  502  0.00000000000E+00  0.00000000000E+00  0.29591840388E+03  0.29591840388E+03  0.00000000000E+00 0.  1.
         21   -1    0    0  502  503 -0.00000000000E+00 -0.00000000000E+00 -0.16681854226E+03  0.16681854226E+03  0.00000000000E+00 0.  1.
          6    1    1    2  501    0  0.11264158092E+03  0.27667578969E+02 -0.15991858172E+02  0.20889796602E+03  0.17300000000E+03 0.  1.
         -6    1    1    2    0  503 -0.11264158092E+03 -0.27667578969E+02  0.14509171979E+03  0.25383898012E+03  0.17300000000E+03 0.  1.
<mgrwt>
<rscale>  2 0.20828495E+03</rscale>
<asrwt>0</asrwt>
<pdfrwt beam="1">  1       21 0.45525908E-01 0.20828495E+03</pdfrwt>
<pdfrwt beam="2">  1       21 0.25664391E-01 0.20828495E+03</pdfrwt>
<totfact> 0.66185752E+04</totfact>
</mgrwt>
</event>
<event>
 4    3  0.4022695E+000  0.2260640E+03  0.7546771E-02  0.1129441E+00
         21   -1    0    0  501  502  0.00000000000E+00  0.00000000000E+00  0.15904005303E+03  0.15904005303E+03  0.00000000000E+00 0. -1.
         21   -1    0    0  502  503 -0.00000000000E+00 -0.00000000000E+00 -0.96858458087E+03  0.96858458087E+03  0.00000000000E+00 0.  1.
          6    1    1    2  501    0 -0.42710901022E+02  0.13911047408E+03  0.56122818226E+02  0.23292641712E+03  0.17300000000E+03 0. -1.
         -6    1    1    2    0  503  0.42710901022E+02 -0.13911047408E+03 -0.86566734607E+03  0.89469821678E+03  0.17300000000E+03 0.  1.
<mgrwt>
<rscale>  2 0.22606403E+03</rscale>
<asrwt>0</asrwt>
<pdfrwt beam="1">  1       21 0.24467700E-01 0.22606403E+03</pdfrwt>
<pdfrwt beam="2">  1       21 0.14901302E+00 0.22606403E+03</pdfrwt>
<totfact> 0.46719870E+03</totfact>
</mgrwt>
</event>
<event>
 4    3  0.4022695E+000  0.2477706E+03  0.7546771E-02  0.1114722E+00
         21   -1    0    0  501  502  0.00000000000E+00  0.00000000000E+00  0.83152990666E+03  0.83152990666E+03  0.00000000000E+00 0. -1.
         21   -1    0    0  502  503 -0.00000000000E+00 -0.00000000000E+00 -0.10017095389E+03  0.10017095389E+03  0.00000000000E+00 0. -1.
          6    1    1    2  501    0 -0.14150427550E+03  0.10694769062E+03  0.60457447258E+03  0.65337627858E+03  0.17300000000E+03 0. -1.
         -6    1    1    2    0  503  0.14150427550E+03 -0.10694769062E+03  0.12678448019E+03  0.27832458197E+03  0.17300000000E+03 0. -1.
<mgrwt>
<rscale>  2 0.24777060E+03</rscale>
<asrwt>0</asrwt>
<pdfrwt beam="1">  1       21 0.12792767E+00 0.24777060E+03</pdfrwt>
<pdfrwt beam="2">  1       21 0.15410917E-01 0.24777060E+03</pdfrwt>
<totfact> 0.16251261E+04</totfact>
</mgrwt>
</event>
<event>
 4    3  0.4022695E+000  0.3076559E+03  0.7546771E-02  0.1081475E+00
         21   -1    0    0  501  502  0.00000000000E+00  0.00000000000E+00  0.28447699260E+03  0.28447699260E+03  0.00000000000E+00 0.  1.
         21   -1    0    0  502  503 -0.00000000000E+00 -0.00000000000E+00 -0.71177011168E+03  0.71177011168E+03  0.00000000000E+00 0. -1.
          6    1    1    2  501    0 -0.76027631661E+02  0.24278167263E+03  0.14986112084E+03  0.34221410971E+03  0.17300000000E+03 0.  1.
         -6    1    1    2    0  503  0.76027631661E+02 -0.24278167263E+03 -0.57715423992E+03  0.65403299458E+03  0.17300000000E+03 0. -1.
<mgrwt>
<rscale>  2 0.30765588E+03</rscale>
<asrwt>0</asrwt>
<pdfrwt beam="1">  1       21 0.43765691E-01 0.30765588E+03</pdfrwt>
<pdfrwt beam="2">  1       21 0.10950309E+00 0.30765588E+03</pdfrwt>
<totfact> 0.30609362E+03</totfact>
</mgrwt>
</event>
<event>
 4    3  0.4022695E+000  0.2897747E+03  0.7546771E-02  0.1090467E+00
         21   -1    0    0  503  502  0.00000000000E+00  0.00000000000E+00  0.17777299408E+04  0.17777299408E+04  0.00000000000E+00 0. -1.
         21   -1    0    0  501  503 -0.00000000000E+00 -0.00000000000E+00 -0.47854679038E+02  0.47854679038E+02  0.00000000000E+00 0.  1.
          6    1    1    2  501    0  0.85655703965E+02  0.21610989740E+03  0.96888783076E+03  0.10112927449E+04  0.17300000000E+03 0.  1.
         -6    1    1    2    0  502 -0.85655703965E+02 -0.21610989740E+03  0.76098743101E+03  0.81429187490E+03  0.17300000000E+03 0.  1.
<mgrwt>
<rscale>  2 0.28977472E+03</rscale>
<asrwt>0</asrwt>
<pdfrwt beam="1">  1       21 0.27349686E+00 0.28977472E+03</pdfrwt>
<pdfrwt beam="2">  1       21 0.73622597E-02 0.28977472E+03</pdfrwt>
<totfact> 0.61800572E+03</totfact>
</mgrwt>
</event>
<event>
 4    3  0.4022695E+000  0.1858606E+03  0.7546771E-02  0.1162249E+00
         21   -1    0    0  503  502  0.00000000000E+00  0.00000000000E+00  0.26719760364E+03  0.26719760364E+03  0.00000000000E+00 0. -1.
         21   -1    0    0  501  503 -0.00000000000E+00 -0.00000000000E+00 -0.45518894379E+03  0.45518894379E+03  0.00000000000E+00 0. -1.
          6    1    1    2  501    0  0.11034852730E+02 -0.67032771673E+02 -0.39962132768E+03  0.44072822237E+03  0.17300000000E+03 0. -1.
         -6    1    1    2    0  502 -0.11034852730E+02  0.67032771673E+02  0.21162998753E+03  0.28165832506E+03  0.17300000000E+03 0. -1.
<mgrwt>
<rscale>  2 0.18586059E+03</rscale>
<asrwt>0</asrwt>
<pdfrwt beam="1">  1       21 0.41107324E-01 0.18586059E+03</pdfrwt>
<pdfrwt beam="2">  1       21 0.70029067E-01 0.18586059E+03</pdfrwt>
<totfact> 0.10600103E+04</totfact>
</mgrwt>
</event>
<event>
 4    3  0.4022695E+000  0.1834261E+03  0.7546771E-02  0.1164528E+00
         21   -1    0    0  503  502  0.00000000000E+00  0.00000000000E+00  0.13025615121E+03  0.13025615121E+03  0.00000000000E+00 0.  1.
         21   -1    0    0  501  503 -0.00000000000E+00 -0.00000000000E+00 -0.43900484959E+03  0.43900484959E+03  0.00000000000E+00 0.  1.
          6    1    1    2  501    0  0.60133940264E+02  0.10002761364E+02 -0.33698741430E+03  0.38367390243E+03  0.17300000000E+03 0. -1.
         -6    1    1    2    0  502 -0.60133940264E+02 -0.10002761364E+02  0.28238715914E+02  0.18558709837E+03  0.17300000000E+03 0. -1.
<mgrwt>
<rscale>  2 0.18342613E+03</rscale>
<asrwt>0</asrwt>
<pdfrwt beam="1">  1       21 0.20039408E-01 0.18342613E+03</pdfrwt>
<pdfrwt beam="2">  1       21 0.67539208E-01 0.18342613E+03</pdfrwt>
<totfact> 0.46307787E+04</totfact>
</mgrwt>
</event>
<event>
 4    3  0.4022695E+000  0.2192020E+03  0.7546771E-02  0.1134479E+00
         21   -1    0    0  503  502  0.00000000000E+00  0.00000000000E+00  0.51501989869E+03  0.51501989869E+03  0.00000000000E+00 0.  1.
         21   -1    0    0  501  503 -0.00000000000E+00 -0.00000000000E+00 -0.13450276036E+03  0.13450276036E+03  0.00000000000E+00 0. -1.
          6    1    1    2  501    0 -0.13341475117E+03 -0.17916917562E+02  0.10503666139E+02  0.21945350024E+03  0.17300000000E+03 0.  1.
         -6    1    1    2    0  502  0.13341475117E+03  0.17916917562E+02  0.37001347219E+03  0.43006915882E+03  0.17300000000E+03 0.  1.
<mgrwt>
<rscale>  2 0.21920199E+03</rscale>
<asrwt>0</asrwt>
<pdfrwt beam="1">  1       21 0.79233829E-01 0.21920199E+03</pdfrwt>
<pdfrwt beam="2">  1       21 0.20692733E-01 0.21920199E+03</pdfrwt>
<totfact> 0.30005819E+04</totfact>
</mgrwt>
</event>
<event>
 4    3  0.4022695E+000  0.2350532E+03  0.7546771E-02  0.1123133E+00
         21   -1    0    0  503  502  0.00000000000E+00  0.00000000000E+00  0.36928814682E+03  0.36928814682E+03  0.00000000000E+00 0. -1.
         21   -1    0    0  501  503 -0.00000000000E+00 -0.00000000000E+00 -0.20575112717E+03  0.20575112717E+03  0.00000000000E+00 0. -1.
          6    1    1    2  501    0 -0.13104956454E+03 -0.90260756468E+02 -0.68417216491E+02  0.24480790028E+03  0.17300000000E+03 0. -1.
         -6    1    1    2    0  502  0.13104956454E+03  0.90260756468E+02  0.23195423614E+03  0.33023137372E+03  0.17300000000E+03 0. -1.
<mgrwt>
<rscale>  2 0.23505317E+03</rscale>
<asrwt>0</asrwt>
<pdfrwt beam="1">  1       21 0.56813561E-01 0.23505317E+03</pdfrwt>
<pdfrwt beam="2">  1       21 0.31654020E-01 0.23505317E+03</pdfrwt>
<totfact> 0.27318040E+04</totfact>
</mgrwt>
</event>
<event>
 4    3  0.4022695E+000  0.2269922E+03  0.7546771E-02  0.1128775E+00
         21   -1    0    0  503  502  0.00000000000E+00  0.00000000000E+00  0.24828852438E+03  0.24828852438E+03  0.00000000000E+00 0.  1.
         21   -1    0    0  501  503 -0.00000000000E+00 -0.00000000000E+00 -0.21409801097E+03  0.21409801097E+03  0.00000000000E+00 0.  1.
          6    1    1    2  501    0  0.66420185049E+02  0.13109092823E+03 -0.23421188969E+02  0.22819733684E+03  0.17300000000E+03 0.  1.
         -6    1    1    2    0  502 -0.66420185049E+02 -0.13109092823E+03  0.57611702381E+02  0.23418919851E+03  0.17300000000E+03 0.  1.
<mgrwt>
<rscale>  2 0.22699223E+03</rscale>
<asrwt>0</asrwt>
<pdfrwt beam="1">  1       21 0.38198235E-01 0.22699223E+03</pdfrwt>
<pdfrwt beam="2">  1       21 0.32938155E-01 0.22699223E+03</pdfrwt>
<totfact> 0.57748008E+04</totfact>
</mgrwt>
</event>
<event>
 4    3  0.4022695E+000  0.2797559E+03  0.7546771E-02  0.1095822E+00
         21   -1    0    0  501  502  0.00000000000E+00  0.00000000000E+00  0.19875704335E+03  0.19875704335E+03  0.00000000000E+00 0.  1.
         21   -1    0    0  502  503 -0.00000000000E+00 -0.00000000000E+00 -0.40915665315E+03  0.40915665315E+03  0.00000000000E+00 0. -1.
          6    1    1    2  501    0  0.15357398834E+03  0.15731931377E+03 -0.46244058847E+02  0.28355219865E+03  0.17300000000E+03 0.  1.
         -6    1    1    2    0  503 -0.15357398834E+03 -0.15731931377E+03 -0.16415555095E+03  0.32436149785E+03  0.17300000000E+03 0. -1.
<mgrwt>
<rscale>  2 0.27975585E+03</rscale>
<asrwt>0</asrwt>
<pdfrwt beam="1">  1       21 0.30578007E-01 0.27975585E+03</pdfrwt>
<pdfrwt beam="2">  1       21 0.62947177E-01 0.27975585E+03</pdfrwt>
<totfact> 0.22966748E+04</totfact>
</mgrwt>
</event>
<event>
 4    3  0.4022695E+000  0.1956790E+03  0.7546771E-02  0.1153437E+00
         21   -1    0    0  503  502  0.00000000000E+00  0.00000000000E+00  0.59463353092E+03  0.59463353092E+03  0.00000000000E+00 0. -1.
         21   -1    0    0  501  503 -0.00000000000E+00 -0.00000000000E+00 -0.12243599734E+03  0.12243599734E+03  0.00000000000E+00 0.  1.
          6    1    1    2  501    0 -0.82744955442E+02 -0.38917108111E+02 -0.10761631103E+02  0.19597469648E+03  0.17300000000E+03 0.  1.
         -6    1    1    2    0  502  0.82744955442E+02  0.38917108111E+02  0.48295916469E+03  0.52109483178E+03  0.17300000000E+03 0. -1.
<mgrwt>
<rscale>  2 0.19567899E+03</rscale>
<asrwt>0</asrwt>
<pdfrwt beam="1">  1       21 0.91482080E-01 0.19567899E+03</pdfrwt>
<pdfrwt beam="2">  1       21 0.18836308E-01 0.19567899E+03</pdfrwt>
<totfact> 0.26062555E+04</totfact>
</mgrwt>
</event>
<event>
 4    3  0.4022695E+000  0.2589426E+03  0.7546771E-02  0.1107780E+00
         21   -1    0    0  503  502  0.00000000000E+00  0.00000000000E+00  0.19376539705E+03  0.19376539705E+03  0.00000000000E+00 0. -1.
         21   -1    0    0  501  503 -0.00000000000E+00 -0.00000000000E+00 -0.39667586663E+03  0.39667586663E+03  0.00000000000E+00 0. -1.
          6    1    1    2  501    0 -0.18981319869E+03 -0.33063889668E+02 -0.20692855002E+03  0.33146748862E+03  0.17300000000E+03 0. -1.
         -6    1    1    2    0  502  0.18981319869E+03  0.33063889668E+02  0.40180804425E+01  0.25897377506E+03  0.17300000000E+03 0. -1.
<mgrwt>
<rscale>  2 0.25894260E+03</rscale>
<asrwt>0</asrwt>
<pdfrwt beam="1">  1       21 0.29810062E-01 0.25894260E+03</pdfrwt>
<pdfrwt beam="2">  1       21 0.61027055E-01 0.25894260E+03</pdfrwt>
<totfact> 0.26061746E+04</totfact>
</mgrwt>
</event>
<event>
 4    3  0.4022695E+000  0.2394609E+03  0.7546771E-02  0.1120152E+00
         21   -1    0    0  503  502  0.00000000000E+00  0.00000000000E+00  0.95491060538E+02  0.95491060538E+02  0.00000000000E+00 0. -1.
         21   -1    0    0  501  503 -0.00000000000E+00 -0.00000000000E+00 -0.82998013851E+03  0.82998013851E+03  0.00000000000E+00 0. -1.
          6    1    1    2  501    0 -0.15427744193E+02 -0.16484689255E+03 -0.61056589099E+03  0.65584466188E+03  0.17300000000E+03 0. -1.
         -6    1    1    2    0  502  0.15427744193E+02  0.16484689255E+03 -0.12392318699E+03  0.26962653717E+03  0.17300000000E+03 0. -1.
<mgrwt>
<rscale>  2 0.23946088E+03</rscale>
<asrwt>0</asrwt>
<pdfrwt beam="1">  1       21 0.14690932E-01 0.23946088E+03</pdfrwt>
<pdfrwt beam="2">  1       21 0.12768925E+00 0.23946088E+03</pdfrwt>
<totfact> 0.17904087E+04</totfact>
</mgrwt>
</event>
<event>
 4    3  0.4022695E+000  0.1935813E+03  0.7546771E-02  0.1155270E+00
         21   -1    0    0  503  502  0.00000000000E+00  0.00000000000E+00  0.19292334765E+04  0.19292334765E+04  0.00000000000E+00 0.  1.
         21   -1    0    0  501  503 -0.00000000000E+00 -0.00000000000E+00 -0.19669869966E+02  0.19669869966E+02  0.00000000000E+00 0.  1.
          6    1    1    2  501    0 -0.50232899372E+02 -0.70861638992E+02  0.10636953216E+04  0.10811667093E+04  0.17300000000E+03 0.  1.
         -6    1    1    2    0  502  0.50232899372E+02  0.70861638992E+02  0.84586828497E+03  0.86773663722E+03  0.17300000000E+03 0.  1.
<mgrwt>
<rscale>  2 0.19358129E+03</rscale>
<asrwt>0</asrwt>
<pdfrwt beam="1">  1       21 0.29680500E+00 0.19358129E+03</pdfrwt>
<pdfrwt beam="2">  1       21 0.30261354E-02 0.19358129E+03</pdfrwt>
<totfact> 0.22191099E+04</totfact>
</mgrwt>
</event>
<event>
 4    3  0.4022695E+000  0.2353790E+03  0.7546771E-02  0.1122910E+00
         21   -1    0    0  503  502  0.00000000000E+00  0.00000000000E+00  0.25875581532E+04  0.25875581532E+04  0.00000000000E+00 0. -1.
         21   -1    0    0  501  503 -0.00000000000E+00 -0.00000000000E+00 -0.95948250044E+02  0.95948250044E+02  0.00000000000E+00 0.  1.
          6    1    1    2  501    0  0.15617010957E+03  0.32942205066E+02  0.63200326290E+02  0.24371617353E+03  0.17300000000E+03 0.  1.
         -6    1    1    2    0  502 -0.15617010957E+03 -0.32942205066E+02  0.24284095769E+04  0.24397902297E+04  0.17300000000E+03 0. -1.
<mgrwt>
<rscale>  2 0.23537904E+03</rscale>
<asrwt>0</asrwt>
<pdfrwt beam="1">  1       21 0.39808582E+00 0.23537904E+03</pdfrwt>
<pdfrwt beam="2">  1       21 0.14761271E-01 0.23537904E+03</pdfrwt>
<totfact> 0.33890597E+02</totfact>
</mgrwt>
</event>
<event>
 4    3  0.4022695E+000  0.2349231E+03  0.7546771E-02  0.1123222E+00
         21   -1    0    0  503  502  0.00000000000E+00  0.00000000000E+00  0.81223473975E+03  0.81223473975E+03  0.00000000000E+00 0.  1.
         21   -1    0    0  501  503 -0.00000000000E+00 -0.00000000000E+00 -0.70363709704E+02  0.70363709704E+02  0.00000000000E+00 0. -1.
          6    1    1    2  501    0  0.12603295211E+03  0.96827540637E+02  0.28915025289E+03  0.37255435360E+03  0.17300000000E+03 0.  1.
         -6    1    1    2    0  502 -0.12603295211E+03 -0.96827540637E+02  0.45272077716E+03  0.51004409586E+03  0.17300000000E+03 0.  1.
<mgrwt>
<rscale>  2 0.23492313E+03</rscale>
<asrwt>0</asrwt>
<pdfrwt beam="1">  1       21 0.12495918E+00 0.23492313E+03</pdfrwt>
<pdfrwt beam="2">  1       21 0.10825187E-01 0.23492313E+03</pdfrwt>
<totfact> 0.32889016E+04</totfact>
</mgrwt>
</event>
<event>
 4    3  0.4022695E+000  0.1804514E+03  0.7546771E-02  0.1167367E+00
         21   -1    0    0  501  502  0.00000000000E+00  0.00000000000E+00  0.41235119076E+03  0.41235119076E+03  0.00000000000E+00 0. -1.
         21   -1    0    0  502  503 -0.00000000000E+00 -0.00000000000E+00 -0.17132804337E+03  0.17132804337E+03  0.00000000000E+00 0. -1.
          6    1    1    2  501    0  0.23947578795E+02  0.45389702648E+02  0.33478640165E+03  0.38032176688E+03  0.17300000000E+03 0. -1.
         -6    1    1    2    0  503 -0.23947578795E+02 -0.45389702648E+02 -0.93763254258E+02  0.20335746725E+03  0.17300000000E+03 0. -1.
<mgrwt>
<rscale>  2 0.18045141E+03</rscale>
<asrwt>0</asrwt>
<pdfrwt beam="1">  1       21 0.63438645E-01 0.18045141E+03</pdfrwt>
<pdfrwt beam="2">  1       21 0.26358161E-01 0.18045141E+03</pdfrwt>
<totfact> 0.31656797E+04</totfact>
</mgrwt>
</event>
<event>
 4    3  0.4022695E+000  0.2001222E+03  0.7546771E-02  0.1149636E+00
         21   -1    0    0  503  502  0.00000000000E+00  0.00000000000E+00  0.32622462191E+03  0.32622462191E+03  0.00000000000E+00 0.  1.
         21   -1    0    0  501  503 -0.00000000000E+00 -0.00000000000E+00 -0.30993542173E+03  0.30993542173E+03  0.00000000000E+00 0.  1.
          6    1    1    2  501    0  0.99127381858E+02  0.17136060188E+02 -0.23903902181E+03  0.31175075997E+03  0.17300000000E+03 0.  1.
         -6    1    1    2    0  502 -0.99127381858E+02 -0.17136060188E+02  0.25532822199E+03  0.32440928368E+03  0.17300000000E+03 0.  1.
<mgrwt>
<rscale>  2 0.20012217E+03</rscale>
<asrwt>0</asrwt>
<pdfrwt beam="1">  1       21 0.50188403E-01 0.20012217E+03</pdfrwt>
<pdfrwt beam="2">  1       21 0.47682373E-01 0.20012217E+03</pdfrwt>
<totfact> 0.15824122E+04</totfact>
</mgrwt>
</event>
<event>
 4    3  0.4022695E+000  0.1813729E+03  0.7546771E-02  0.1166481E+00
         21   -1    0    0  501  502  0.00000000000E+00  0.00000000000E+00  0.13538175930E+03  0.13538175930E+03  0.00000000000E+00 0. -1.
         21   -1    0    0  502  503 -0.00000000000E+00 -0.00000000000E+00 -0.40451440243E+03  0.40451440243E+03  0.00000000000E+00 0. -1.
          6    1    1    2  501    0  0.53800014272E+02 -0.85257295421E+01  0.36016440578E+02  0.18491434123E+03  0.17300000000E+03 0. -1.
         -6    1    1    2    0  503 -0.53800014272E+02  0.85257295421E+01 -0.30514908371E+03  0.35498182051E+03  0.17300000000E+03 0. -1.
<mgrwt>
<rscale>  2 0.18137290E+03</rscale>
<asrwt>0</asrwt>
<pdfrwt beam="1">  1       21 0.20827964E-01 0.18137290E+03</pdfrwt>
<pdfrwt beam="2">  1       21 0.62232983E-01 0.18137290E+03</pdfrwt>
<totfact> 0.51516844E+04</totfact>
</mgrwt>
</event>
<event>
 4    3  0.4022695E+000  0.2092964E+03  0.7546771E-02  0.1142124E+00
         21   -1    0    0  503  502  0.00000000000E+00  0.00000000000E+00  0.34416917386E+03  0.34416917386E+03  0.00000000000E+00 0.  1.
         21   -1    0    0  501  503 -0.00000000000E+00 -0.00000000000E+00 -0.23185941320E+03  0.23185941320E+03  0.00000000000E+00 0.  1.
          6    1    1    2  501    0 -0.73325826323E+02 -0.92191573489E+02  0.24958769056E+03  0.32572838118E+03  0.17300000000E+03 0.  1.
         -6    1    1    2    0  502  0.73325826323E+02  0.92191573489E+02 -0.13727792990E+03  0.25030020588E+03  0.17300000000E+03 0.  1.
<mgrwt>
<rscale>  2 0.20929635E+03</rscale>
<asrwt>0</asrwt>
<pdfrwt beam="1">  1       21 0.52949104E-01 0.20929635E+03</pdfrwt>
<pdfrwt beam="2">  1       21 0.35670679E-01 0.20929635E+03</pdfrwt>
<totfact> 0.25369887E+04</totfact>
</mgrwt>
</event>
<event>
 4    3  0.4022695E+000  0.1752078E+03  0.7546771E-02  0.1172523E+00
         21   -1    0    0  501  502  0.00000000000E+00  0.00000000000E+00  0.72150114989E+02  0.72150114989E+02  0.00000000000E+00 0. -1.
         21   -1    0    0  502  503 -0.00000000000E+00 -0.00000000000E+00 -0.44512424334E+03  0.44512424334E+03  0.00000000000E+00 0. -1.
          6    1    1    2  501    0 -0.23504403667E+02 -0.14708159691E+02 -0.13214118451E+03  0.21945177055E+03  0.17300000000E+03 0. -1.
         -6    1    1    2    0  503  0.23504403667E+02  0.14708159691E+02 -0.24083294384E+03  0.29782258778E+03  0.17300000000E+03 0. -1.
<mgrwt>
<rscale>  2 0.17520784E+03</rscale>
<asrwt>0</asrwt>
<pdfrwt beam="1">  1       21 0.11100018E-01 0.17520784E+03</pdfrwt>
<pdfrwt beam="2">  1       21 0.68480652E-01 0.17520784E+03</pdfrwt>
<totfact> 0.13195365E+05</totfact>
</mgrwt>
</event>
<event>
 4    3  0.4022695E+000  0.1752857E+03  0.7546771E-02  0.1172445E+00
         21   -1    0    0  503  502  0.00000000000E+00  0.00000000000E+00  0.66440445728E+02  0.66440445728E+02  0.00000000000E+00 0. -1.
         21   -1    0    0  501  503 -0.00000000000E+00 -0.00000000000E+00 -0.46246908585E+03  0.46246908585E+03  0.00000000000E+00 0. -1.
          6    1    1    2  501    0 -0.12273398533E+02 -0.25405755876E+02 -0.19612790780E+03  0.26304228740E+03  0.17300000000E+03 0. -1.
         -6    1    1    2    0  502  0.12273398533E+02  0.25405755876E+02 -0.19990073233E+03  0.26586724418E+03  0.17300000000E+03 0. -1.
<mgrwt>
<rscale>  2 0.17528573E+03</rscale>
<asrwt>0</asrwt>
<pdfrwt beam="1">  1       21 0.10221607E-01 0.17528573E+03</pdfrwt>
<pdfrwt beam="2">  1       21 0.71149091E-01 0.17528573E+03</pdfrwt>
<totfact> 0.14037773E+05</totfact>
</mgrwt>
</event>
<event>
 4    3  0.4022695E+000  0.1736731E+03  0.7546771E-02  0.1174071E+00
         21   -1    0    0  503  502  0.00000000000E+00  0.00000000000E+00  0.27475982676E+02  0.27475982676E+02  0.00000000000E+00 0. -1.
         21   -1    0    0  501  503 -0.00000000000E+00 -0.00000000000E+00 -0.13178827863E+04  0.13178827863E+04  0.00000000000E+00 0. -1.
          6    1    1    2  501    0  0.10221303040E+02 -0.11351437652E+02 -0.92011408618E+03  0.93636118125E+03  0.17300000000E+03 0. -1.
         -6    1    1    2    0  502 -0.10221303040E+02  0.11351437652E+02 -0.37029271747E+03  0.40899758775E+03  0.17300000000E+03 0. -1.
<mgrwt>
<rscale>  2 0.17367306E+03</rscale>
<asrwt>0</asrwt>
<pdfrwt beam="1">  1       21 0.42270749E-02 0.17367306E+03</pdfrwt>
<pdfrwt beam="2">  1       21 0.20275117E+00 0.17367306E+03</pdfrwt>
<totfact> 0.46653051E+04</totfact>
</mgrwt>
</event>
<event>
 4    3  0.4022695E+000  0.2051437E+03  0.7546771E-02  0.1145470E+00
         21   -1    0    0  503  502  0.00000000000E+00  0.00000000000E+00  0.84085430129E+02  0.84085430129E+02  0.00000000000E+00 0. -1.
         21   -1    0    0  501  503 -0.00000000000E+00 -0.00000000000E+00 -0.57332344261E+03  0.57332344261E+03  0.00000000000E+00 0.  1.
          6    1    1    2  501    0  0.11011717073E+03  0.53999931413E+01 -0.36177645851E+03  0.41589200179E+03  0.17300000000E+03 0.  1.
         -6    1    1    2    0  502 -0.11011717073E+03 -0.53999931413E+01 -0.12746155397E+03  0.24151687095E+03  0.17300000000E+03 0. -1.
<mgrwt>
<rscale>  2 0.20514373E+03</rscale>
<asrwt>0</asrwt>
<pdfrwt beam="1">  1       21 0.12936220E-01 0.20514373E+03</pdfrwt>
<pdfrwt beam="2">  1       21 0.88203604E-01 0.20514373E+03</pdfrwt>
<totfact> 0.56100882E+04</totfact>
</mgrwt>
</event>
<event>
 4    3  0.4022695E+000  0.1738218E+03  0.7546771E-02  0.1173920E+00
         21   -1    0    0  503  502  0.00000000000E+00  0.00000000000E+00  0.14706798983E+03  0.14706798983E+03  0.00000000000E+00 0.  1.
         21   -1    0    0  501  503 -0.00000000000E+00 -0.00000000000E+00 -0.23809641137E+03  0.23809641137E+03  0.00000000000E+00 0.  1.
          6    1    1    2  501    0 -0.15037711998E+02  0.76732550722E+01 -0.11683358110E+03  0.20943757375E+03  0.17300000000E+03 0.  1.
         -6    1    1    2    0  502  0.15037711998E+02 -0.76732550722E+01  0.25805159562E+02  0.17572682745E+03  0.17300000000E+03 0.  1.
<mgrwt>
<rscale>  2 0.17382178E+03</rscale>
<asrwt>0</asrwt>
<pdfrwt beam="1">  1       21 0.22625845E-01 0.17382178E+03</pdfrwt>
<pdfrwt beam="2">  1       21 0.36630217E-01 0.17382178E+03</pdfrwt>
<totfact> 0.13244012E+05</totfact>
</mgrwt>
</event>
<event>
 4    3  0.4022695E+000  0.2098618E+03  0.7546771E-02  0.1141675E+00
         21   -1    0    0  501  502  0.00000000000E+00  0.00000000000E+00  0.28161223538E+03  0.28161223538E+03  0.00000000000E+00 0. -1.
         21   -1    0    0  502  503 -0.00000000000E+00 -0.00000000000E+00 -0.65234297770E+03  0.65234297770E+03  0.00000000000E+00 0. -1.
          6    1    1    2  501    0 -0.66420113530E+02  0.98495393683E+02  0.22180608054E+03  0.30535211056E+03  0.17300000000E+03 0. -1.
         -6    1    1    2    0  503  0.66420113530E+02 -0.98495393683E+02 -0.59253682286E+03  0.62860310252E+03  0.17300000000E+03 0. -1.
<mgrwt>
<rscale>  2 0.20986180E+03</rscale>
<asrwt>0</asrwt>
<pdfrwt beam="1">  1       21 0.43324960E-01 0.20986180E+03</pdfrwt>
<pdfrwt beam="2">  1       21 0.10036046E+00 0.20986180E+03</pdfrwt>
<totfact> 0.41114732E+03</totfact>
</mgrwt>
</event>
<event>
 4    3  0.4022695E+000  0.1745087E+03  0.7546771E-02  0.1173226E+00
         21   -1    0    0  503  502  0.00000000000E+00  0.00000000000E+00  0.50223143436E+02  0.50223143436E+02  0.00000000000E+00 0. -1.
         21   -1    0    0  501  503 -0.00000000000E+00 -0.00000000000E+00 -0.72880730139E+03  0.72880730139E+03  0.00000000000E+00 0. -1.
          6    1    1    2  501    0 -0.22884623753E+02 -0.76943843421E+00 -0.49895090852E+03  0.52858803160E+03  0.17300000000E+03 0. -1.
         -6    1    1    2    0  502  0.22884623753E+02  0.76943843421E+00 -0.17963324943E+03  0.25044241323E+03  0.17300000000E+03 0. -1.
<mgrwt>
<rscale>  2 0.17450873E+03</rscale>
<asrwt>0</asrwt>
<pdfrwt beam="1">  1       21 0.77266379E-02 0.17450873E+03</pdfrwt>
<pdfrwt beam="2">  1       21 0.11212419E+00 0.17450873E+03</pdfrwt>
<totfact> 0.80148030E+04</totfact>
</mgrwt>
</event>
<event>
 4    3  0.4022695E+000  0.2496736E+03  0.7546771E-02  0.1113511E+00
         21   -1    0    0  503  502  0.00000000000E+00  0.00000000000E+00  0.73301383250E+03  0.73301383250E+03  0.00000000000E+00 0. -1.
         21   -1    0    0  501  503 -0.00000000000E+00 -0.00000000000E+00 -0.90287889722E+02  0.90287889722E+02  0.00000000000E+00 0. -1.
          6    1    1    2  501    0 -0.15347300475E+03 -0.94095271681E+02  0.22213632428E+03  0.33418771657E+03  0.17300000000E+03 0. -1.
         -6    1    1    2    0  502  0.15347300475E+03  0.94095271681E+02  0.42058961850E+03  0.48911400565E+03  0.17300000000E+03 0. -1.
<mgrwt>
<rscale>  2 0.24967355E+03</rscale>
<asrwt>0</asrwt>
<pdfrwt beam="1">  1       21 0.11277135E+00 0.24967355E+03</pdfrwt>
<pdfrwt beam="2">  1       21 0.13890445E-01 0.24967355E+03</pdfrwt>
<totfact> 0.26886095E+04</totfact>
</mgrwt>
</event>
<event>
 4    3  0.4022695E+000  0.1802057E+03  0.7546771E-02  0.1167604E+00
         21   -1    0    0  501  502  0.00000000000E+00  0.00000000000E+00  0.45438439695E+02  0.45438439695E+02  0.00000000000E+00 0. -1.
         21   -1    0    0  502  503 -0.00000000000E+00 -0.00000000000E+00 -0.10285433778E+04  0.10285433778E+04  0.00000000000E+00 0. -1.
          6    1    1    2  501    0 -0.31508926625E+02 -0.39398888082E+02 -0.19491650342E+03  0.26545532231E+03  0.17300000000E+03 0. -1.
         -6    1    1    2    0  503  0.31508926625E+02  0.39398888082E+02 -0.78818843470E+03  0.80852649520E+03  0.17300000000E+03 0. -1.
<mgrwt>
<rscale>  2 0.18020567E+03</rscale>
<asrwt>0</asrwt>
<pdfrwt beam="1">  1       21 0.69905288E-02 0.18020567E+03</pdfrwt>
<pdfrwt beam="2">  1       21 0.15823745E+00 0.18020567E+03</pdfrwt>
<totfact> 0.39614440E+04</totfact>
</mgrwt>
</event>
<event>
 4    3  0.4022695E+000  0.2487311E+03  0.7546771E-02  0.1114109E+00
         21   -1    0    0  501  502  0.00000000000E+00  0.00000000000E+00  0.24777259740E+03  0.24777259740E+03  0.00000000000E+00 0. -1.
         21   -1    0    0  502  503 -0.00000000000E+00 -0.00000000000E+00 -0.32369882239E+03  0.32369882239E+03  0.00000000000E+00 0.  1.
          6    1    1    2  501    0 -0.17861878993E+03  0.57862211986E+01  0.98660600488E+02  0.26758375616E+03  0.17300000000E+03 0. -1.
         -6    1    1    2    0  503  0.17861878993E+03 -0.57862211986E+01 -0.17458682548E+03  0.30388766362E+03  0.17300000000E+03 0.  1.
<mgrwt>
<rscale>  2 0.24873108E+03</rscale>
<asrwt>0</asrwt>
<pdfrwt beam="1">  1       21 0.38118861E-01 0.24873108E+03</pdfrwt>
<pdfrwt beam="2">  1       21 0.49799819E-01 0.24873108E+03</pdfrwt>
<totfact> 0.24765049E+04</totfact>
</mgrwt>
</event>
<event>
 4    3  0.4022695E+000  0.2309624E+03  0.7546771E-02  0.1125964E+00
         21   -1    0    0  503  502  0.00000000000E+00  0.00000000000E+00  0.17006325705E+03  0.17006325705E+03  0.00000000000E+00 0.  1.
         21   -1    0    0  501  503 -0.00000000000E+00 -0.00000000000E+00 -0.46787649541E+03  0.46787649541E+03  0.00000000000E+00 0.  1.
          6    1    1    2  501    0  0.14339325653E+03 -0.53413334585E+02 -0.33202691377E+03  0.40445702095E+03  0.17300000000E+03 0.  1.
         -6    1    1    2    0  502 -0.14339325653E+03  0.53413334585E+02  0.34213675413E+02  0.23348273151E+03  0.17300000000E+03 0.  1.
<mgrwt>
<rscale>  2 0.23096236E+03</rscale>
<asrwt>0</asrwt>
<pdfrwt beam="1">  1       21 0.26163578E-01 0.23096236E+03</pdfrwt>
<pdfrwt beam="2">  1       21 0.71980998E-01 0.23096236E+03</pdfrwt>
<totfact> 0.23678139E+04</totfact>
</mgrwt>
</event>
<event>
 4    3  0.4022695E+000  0.1792826E+03  0.7546771E-02  0.1168499E+00
         21   -1    0    0  503  502  0.00000000000E+00  0.00000000000E+00  0.14763030838E+04  0.14763030838E+04  0.00000000000E+00 0. -1.
         21   -1    0    0  501  503 -0.00000000000E+00 -0.00000000000E+00 -0.49317052956E+02  0.49317052956E+02  0.00000000000E+00 0.  1.
          6    1    1    2  501    0 -0.38118271922E+02 -0.27572446009E+02  0.14340915302E+03  0.22958316054E+03  0.17300000000E+03 0.  1.
         -6    1    1    2    0  502  0.38118271922E+02  0.27572446009E+02  0.12835768778E+04  0.12960369762E+04  0.17300000000E+03 0. -1.
<mgrwt>
<rscale>  2 0.17928258E+03</rscale>
<asrwt>0</asrwt>
<pdfrwt beam="1">  1       21 0.22712352E+00 0.17928258E+03</pdfrwt>
<pdfrwt beam="2">  1       21 0.75872400E-02 0.17928258E+03</pdfrwt>
<totfact> 0.12121876E+04</totfact>
</mgrwt>
</event>
<event>
 4    3  0.4022695E+000  0.2025221E+03  0.7546771E-02  0.1147628E+00
         21   -1    0    0  501  502  0.00000000000E+00  0.00000000000E+00  0.16791537088E+03  0.16791537088E+03  0.00000000000E+00 0.  1.
         21   -1    0    0  502  503 -0.00000000000E+00 -0.00000000000E+00 -0.33894366522E+03  0.33894366522E+03  0.00000000000E+00 0. -1.
          6    1    1    2  501    0 -0.10528731256E+03 -0.87855984248E+00  0.48431463862E+02  0.20823255448E+03  0.17300000000E+03 0.  1.
         -6    1    1    2    0  503  0.10528731256E+03  0.87855984248E+00 -0.21945975821E+03  0.29862648162E+03  0.17300000000E+03 0. -1.
<mgrwt>
<rscale>  2 0.20252207E+03</rscale>
<asrwt>0</asrwt>
<pdfrwt beam="1">  1       21 0.25833134E-01 0.20252207E+03</pdfrwt>
<pdfrwt beam="2">  1       21 0.52145179E-01 0.20252207E+03</pdfrwt>
<totfact> 0.49408416E+04</totfact>
</mgrwt>
</event>
<event>
 4    3  0.4022695E+000  0.1829534E+03  0.7546771E-02  0.1164975E+00
         21   -1    0    0  501  502  0.00000000000E+00  0.00000000000E+00  0.30492767160E+03  0.30492767160E+03  0.00000000000E+00 0. -1.
         21   -1    0    0  502  503 -0.00000000000E+00 -0.00000000000E+00 -0.12265525632E+03  0.12265525632E+03  0.00000000000E+00 0. -1.
          6    1    1    2  501    0 -0.43823946243E+02  0.40279233088E+02  0.16042952572E+03  0.24333020282E+03  0.17300000000E+03 0. -1.
         -6    1    1    2    0  503  0.43823946243E+02 -0.40279233088E+02  0.21842889562E+02  0.18425272510E+03  0.17300000000E+03 0. -1.
<mgrwt>
<rscale>  2 0.18295342E+03</rscale>
<asrwt>0</asrwt>
<pdfrwt beam="1">  1       21 0.46911949E-01 0.18295342E+03</pdfrwt>
<pdfrwt beam="2">  1       21 0.18870039E-01 0.18295342E+03</pdfrwt>
<totfact> 0.11227946E+05</totfact>
</mgrwt>
</event>
<event>
 4    3  0.4022695E+000  0.1805269E+03  0.7546771E-02  0.1167294E+00
         21   -1    0    0  503  502  0.00000000000E+00  0.00000000000E+00  0.81354787762E+03  0.81354787762E+03  0.00000000000E+00 0.  1.
         21   -1    0    0  501  503 -0.00000000000E+00 -0.00000000000E+00 -0.44254980711E+02  0.44254980711E+02  0.00000000000E+00 0.  1.
          6    1    1    2  501    0  0.47690877926E+01 -0.51363521995E+02  0.25258059609E+03  0.31046241820E+03  0.17300000000E+03 0.  1.
         -6    1    1    2    0  502 -0.47690877926E+01  0.51363521995E+02  0.51671230081E+03  0.54734044013E+03  0.17300000000E+03 0.  1.
<mgrwt>
<rscale>  2 0.18052688E+03</rscale>
<asrwt>0</asrwt>
<pdfrwt beam="1">  1       21 0.12516120E+00 0.18052688E+03</pdfrwt>
<pdfrwt beam="2">  1       21 0.68084592E-02 0.18052688E+03</pdfrwt>
<totfact> 0.75887370E+04</totfact>
</mgrwt>
</event>
<event>
 4    3  0.4022695E+000  0.2028312E+03  0.7546771E-02  0.1147372E+00
         21   -1    0    0  501  502  0.00000000000E+00  0.00000000000E+00  0.58723036345E+03  0.58723036345E+03  0.00000000000E+00 0. -1.
         21   -1    0    0  502  503 -0.00000000000E+00 -0.00000000000E+00 -0.16980846080E+03  0.16980846080E+03  0.00000000000E+00 0. -1.
          6    1    1    2  501    0 -0.10445838253E+03 -0.17319076910E+02  0.49882233194E+03  0.53848326153E+03  0.17300000000E+03 0. -1.
         -6    1    1    2    0  503  0.10445838253E+03  0.17319076910E+02 -0.81400429288E+02  0.21855556272E+03  0.17300000000E+03 0. -1.
<mgrwt>
<rscale>  2 0.20283122E+03</rscale>
<asrwt>0</asrwt>
<pdfrwt beam="1">  1       21 0.90343132E-01 0.20283122E+03</pdfrwt>
<pdfrwt beam="2">  1       21 0.26124379E-01 0.20283122E+03</pdfrwt>
<totfact> 0.14403574E+04</totfact>
</mgrwt>
</event>
<event>
 4    3  0.4022695E+000  0.1875056E+03  0.7546771E-02  0.1160731E+00
         21   -1    0    0  501  502  0.00000000000E+00  0.00000000000E+00  0.38501472128E+02  0.38501472128E+02  0.00000000000E+00 0.  1.
         21   -1    0    0  502  503 -0.00000000000E+00 -0.00000000000E+00 -0.10122979402E+04  0.10122979402E+04  0.00000000000E+00 0. -1.
          6    1    1    2  501    0 -0.72233638754E+02  0.34132823746E+01 -0.32248530010E+03  0.37303500887E+03  0.17300000000E+03 0.  1.
         -6    1    1    2    0  503  0.72233638754E+02 -0.34132823746E+01 -0.65131116794E+03  0.67776440342E+03  0.17300000000E+03 0.  1.
<mgrwt>
<rscale>  2 0.18750560E+03</rscale>
<asrwt>0</asrwt>
<pdfrwt beam="1">  1       21 0.59233035E-02 0.18750560E+03</pdfrwt>
<pdfrwt beam="2">  1       21 0.15573814E+00 0.18750560E+03</pdfrwt>
<totfact> 0.54704747E+04</totfact>
</mgrwt>
</event>
<event>
 4    3  0.4022695E+000  0.1807751E+03  0.7546771E-02  0.1167055E+00
         21   -1    0    0  501  502  0.00000000000E+00  0.00000000000E+00  0.16562998103E+03  0.16562998103E+03  0.00000000000E+00 0.  1.
         21   -1    0    0  502  503 -0.00000000000E+00 -0.00000000000E+00 -0.23624213207E+03  0.23624213207E+03  0.00000000000E+00 0.  1.
          6    1    1    2  501    0 -0.45840401087E+02 -0.25481317393E+02  0.46269589433E+02  0.18660255843E+03  0.17300000000E+03 0.  1.
         -6    1    1    2    0  503  0.45840401087E+02  0.25481317393E+02 -0.11688174048E+03  0.21526955466E+03  0.17300000000E+03 0.  1.
<mgrwt>
<rscale>  2 0.18077511E+03</rscale>
<asrwt>0</asrwt>
<pdfrwt beam="1">  1       21 0.25481536E-01 0.18077511E+03</pdfrwt>
<pdfrwt beam="2">  1       21 0.36344943E-01 0.18077511E+03</pdfrwt>
<totfact> 0.10708641E+05</totfact>
</mgrwt>
</event>
<event>
 4    3  0.4022695E+000  0.2140809E+03  0.7546771E-02  0.1138375E+00
         21   -1    0    0  501  502  0.00000000000E+00  0.00000000000E+00  0.11323574413E+03  0.11323574413E+03  0.00000000000E+00 0.  1.
         21   -1    0    0  502  503 -0.00000000000E+00 -0.00000000000E+00 -0.47279230444E+03  0.47279230444E+03  0.00000000000E+00 0. -1.
          6    1    1    2  501    0  0.77041193106E+02  0.99831267177E+02 -0.68608661705E+02  0.22480608489E+03  0.17300000000E+03 0.  1.
         -6    1    1    2    0  503 -0.77041193106E+02 -0.99831267177E+02 -0.29094789860E+03  0.36122196368E+03  0.17300000000E+03 0. -1.
<mgrwt>
<rscale>  2 0.21408089E+03</rscale>
<asrwt>0</asrwt>
<pdfrwt beam="1">  1       21 0.17420884E-01 0.21408089E+03</pdfrwt>
<pdfrwt beam="2">  1       21 0.72737277E-01 0.21408089E+03</pdfrwt>
<totfact> 0.50236157E+04</totfact>
</mgrwt>
</event>
<event>
 4    3  0.4022695E+000  0.2175443E+03  0.7546771E-02  0.1135727E+00
         21   -1    0    0  501  502  0.00000000000E+00  0.00000000000E+00  0.28266924806E+03  0.28266924806E+03  0.00000000000E+00 0.  1.
         21   -1    0    0  502  503 -0.00000000000E+00 -0.00000000000E+00 -0.18364804133E+03  0.18364804133E+03  0.00000000000E+00 0. -1.
          6    1    1    2  501    0  0.54148657059E+02 -0.12026826742E+03  0.11881197378E+03  0.24787460201E+03  0.17300000000E+03 0.  1.
         -6    1    1    2    0  503 -0.54148657059E+02  0.12026826742E+03 -0.19790767052E+02  0.21844268738E+03  0.17300000000E+03 0. -1.
<mgrwt>
<rscale>  2 0.21754432E+03</rscale>
<asrwt>0</asrwt>
<pdfrwt beam="1">  1       21 0.43487576E-01 0.21754432E+03</pdfrwt>
<pdfrwt beam="2">  1       21 0.28253545E-01 0.21754432E+03</pdfrwt>
<totfact> 0.60167569E+04</totfact>
</mgrwt>
</event>
<event>
 4    3  0.4022695E+000  0.1775305E+03  0.7546771E-02  0.1170215E+00
         21   -1    0    0  501  502  0.00000000000E+00  0.00000000000E+00  0.15948285167E+03  0.15948285167E+03  0.00000000000E+00 0.  1.
         21   -1    0    0  502  503 -0.00000000000E+00 -0.00000000000E+00 -0.22985003111E+03  0.22985003111E+03  0.00000000000E+00 0.  1.
          6    1    1    2  501    0  0.32164092387E+02 -0.23527904973E+02  0.37711011834E+02  0.18149162946E+03  0.17300000000E+03 0.  1.
         -6    1    1    2    0  503 -0.32164092387E+02  0.23527904973E+02 -0.10807819127E+03  0.20784125332E+03  0.17300000000E+03 0.  1.
<mgrwt>
<rscale>  2 0.17753054E+03</rscale>
<asrwt>0</asrwt>
<pdfrwt beam="1">  1       21 0.24535824E-01 0.17753054E+03</pdfrwt>
<pdfrwt beam="2">  1       21 0.35361543E-01 0.17753054E+03</pdfrwt>
<totfact> 0.12168124E+05</totfact>
</mgrwt>
</event>
<event>
 4    3  0.4022695E+000  0.2742427E+03  0.7546771E-02  0.1098876E+00
         21   -1    0    0  503  502  0.00000000000E+00  0.00000000000E+00  0.67067633715E+03  0.67067633715E+03  0.00000000000E+00 0. -1.
         21   -1    0    0  501  503 -0.00000000000E+00 -0.00000000000E+00 -0.15282734065E+03  0.15282734065E+03  0.00000000000E+00 0. -1.
          6    1    1    2  501    0  0.34020389289E+02 -0.21005392706E+03  0.46468259533E+02  0.27815164623E+03  0.17300000000E+03 0. -1.
         -6    1    1    2    0  502 -0.34020389289E+02  0.21005392706E+03  0.47138073697E+03  0.54535203157E+03  0.17300000000E+03 0. -1.
<mgrwt>
<rscale>  2 0.27424266E+03</rscale>
<asrwt>0</asrwt>
<pdfrwt beam="1">  1       21 0.10318097E+00 0.27424266E+03</pdfrwt>
<pdfrwt beam="2">  1       21 0.23511899E-01 0.27424266E+03</pdfrwt>
<totfact> 0.12363004E+04</totfact>
</mgrwt>
</event>
<event>
 4    3  0.4022695E+000  0.1772802E+03  0.7546771E-02  0.1170462E+00
         21   -1    0    0  503  502  0.00000000000E+00  0.00000000000E+00  0.57267792027E+03  0.57267792027E+03  0.00000000000E+00 0.  1.
         21   -1    0    0  501  503 -0.00000000000E+00 -0.00000000000E+00 -0.31569324940E+03  0.31569324940E+03  0.00000000000E+00 0.  1.
          6    1    1    2  501    0  0.53641153193E+01  0.38347093478E+02 -0.27524327842E+03  0.32739446487E+03  0.17300000000E+03 0.  1.
         -6    1    1    2    0  502 -0.53641153193E+01 -0.38347093478E+02  0.53222794929E+03  0.56097670479E+03  0.17300000000E+03 0.  1.
<mgrwt>
<rscale>  2 0.17728021E+03</rscale>
<asrwt>0</asrwt>
<pdfrwt beam="1">  1       21 0.88104295E-01 0.17728021E+03</pdfrwt>
<pdfrwt beam="2">  1       21 0.48568192E-01 0.17728021E+03</pdfrwt>
<totfact> 0.45234608E+03</totfact>
</mgrwt>
</event>
<event>
 4    3  0.4022695E+000  0.2419400E+03  0.7546771E-02  0.1118507E+00
         21   -1    0    0  501  502  0.00000000000E+00  0.00000000000E+00  0.15881620966E+04  0.15881620966E+04  0.00000000000E+00 0. -1.
         21   -1    0    0  502  503 -0.00000000000E+00 -0.00000000000E+00 -0.48542261761E+02  0.48542261761E+02  0.00000000000E+00 0. -1.
          6    1    1    2  501    0  0.16973722644E+02 -0.16827914145E+03  0.11713218458E+04  0.11960475923E+04  0.17300000000E+03 0. -1.
         -6    1    1    2    0  503 -0.16973722644E+02  0.16827914145E+03  0.36829798906E+03  0.44065676604E+03  0.17300000000E+03 0. -1.
<mgrwt>
<rscale>  2 0.24194003E+03</rscale>
<asrwt>0</asrwt>
<pdfrwt beam="1">  1       21 0.24433259E+00 0.24194003E+03</pdfrwt>
<pdfrwt beam="2">  1       21 0.74680415E-02 0.24194003E+03</pdfrwt>
<totfact> 0.93071569E+03</totfact>
</mgrwt>
</event>
<event>
 4    3  0.4022695E+000  0.2026312E+03  0.7546771E-02  0.1147538E+00
         21   -1    0    0  501  502  0.00000000000E+00  0.00000000000E+00  0.66560933273E+03  0.66560933273E+03  0.00000000000E+00 0.  1.
         21   -1    0    0  502  503 -0.00000000000E+00 -0.00000000000E+00 -0.61849649276E+02  0.61849649276E+02  0.00000000000E+00 0. -1.
          6    1    1    2  501    0  0.10436790117E+03 -0.15419211016E+02  0.32053505540E+03  0.37921251641E+03  0.17300000000E+03 0.  1.
         -6    1    1    2    0  503 -0.10436790117E+03  0.15419211016E+02  0.28322462805E+03  0.34824646559E+03  0.17300000000E+03 0.  1.
<mgrwt>
<rscale>  2 0.20263122E+03</rscale>
<asrwt>0</asrwt>
<pdfrwt beam="1">  1       21 0.10240143E+00 0.20263122E+03</pdfrwt>
<pdfrwt beam="2">  1       21 0.95153311E-02 0.20263122E+03</pdfrwt>
<totfact> 0.68390614E+04</totfact>
</mgrwt>
</event>
<event>
 4    3  0.4022695E+000  0.2963218E+03  0.7546771E-02  0.1087094E+00
         21   -1    0    0  501  502  0.00000000000E+00  0.00000000000E+00  0.20036211243E+03  0.20036211243E+03  0.00000000000E+00 0. -1.
         21   -1    0    0  502  503 -0.00000000000E+00 -0.00000000000E+00 -0.46735934298E+03  0.46735934298E+03  0.00000000000E+00 0.  1.
          6    1    1    2  501    0 -0.18777680280E+03  0.15039108668E+03 -0.21683484347E+03  0.36718381768E+03  0.17300000000E+03 0.  1.
         -6    1    1    2    0  503  0.18777680280E+03 -0.15039108668E+03 -0.50162387077E+02  0.30053763774E+03  0.17300000000E+03 0. -1.
<mgrwt>
<rscale>  2 0.29632180E+03</rscale>
<asrwt>0</asrwt>
<pdfrwt beam="1">  1       21 0.30824941E-01 0.29632180E+03</pdfrwt>
<pdfrwt beam="2">  1       21 0.71901437E-01 0.29632180E+03</pdfrwt>
<totfact> 0.16727141E+04</totfact>
</mgrwt>
</event>
<event>
 4    3  0.4022695E+000  0.2451754E+03  0.7546771E-02  0.1116392E+00
         21   -1    0    0  501  502  0.00000000000E+00  0.00000000000E+00  0.13632622619E+03  0.13632622619E+03  0.00000000000E+00 0.  1.
         21   -1    0    0  502  503 -0.00000000000E+00 -0.00000000000E+00 -0.63513143861E+03  0.63513143861E+03  0.00000000000E+00 0. -1.
          6    1    1    2  501    0  0.14798570480E+03  0.91006539721E+02 -0.36112210160E+02  0.24782060209E+03  0.17300000000E+03 0.  1.
         -6    1    1    2    0  503 -0.14798570480E+03 -0.91006539721E+02 -0.46269300226E+03  0.52363706271E+03  0.17300000000E+03 0. -1.
<mgrwt>
<rscale>  2 0.24517536E+03</rscale>
<asrwt>0</asrwt>
<pdfrwt beam="1">  1       21 0.20973266E-01 0.24517536E+03</pdfrwt>
<pdfrwt beam="2">  1       21 0.97712529E-01 0.24517536E+03</pdfrwt>
<totfact> 0.17761029E+04</totfact>
</mgrwt>
</event>
<event>
 4    3  0.4022695E+000  0.2036018E+03  0.7546771E-02  0.1146735E+00
         21   -1    0    0  503  502  0.00000000000E+00  0.00000000000E+00  0.11390627980E+04  0.11390627980E+04  0.00000000000E+00 0. -1.
         21   -1    0    0  501  503 -0.00000000000E+00 -0.00000000000E+00 -0.42832176588E+02  0.42832176588E+02  0.00000000000E+00 0. -1.
          6    1    1    2  501    0  0.85502748341E+02  0.64915040215E+02  0.31898328494E+03  0.37842306813E+03  0.17300000000E+03 0. -1.
         -6    1    1    2    0  502 -0.85502748341E+02 -0.64915040215E+02  0.77724733650E+03  0.80347190648E+03  0.17300000000E+03 0. -1.
<mgrwt>
<rscale>  2 0.20360177E+03</rscale>
<asrwt>0</asrwt>
<pdfrwt beam="1">  1       21 0.17524041E+00 0.20360177E+03</pdfrwt>
<pdfrwt beam="2">  1       21 0.65895665E-02 0.20360177E+03</pdfrwt>
<totfact> 0.32696683E+04</totfact>
</mgrwt>
</event>
<event>
 4    3  0.4022695E+000  0.1971199E+03  0.7546771E-02  0.1152192E+00
         21   -1    0    0  501  502  0.00000000000E+00  0.00000000000E+00  0.69498333981E+03  0.69498333981E+03  0.00000000000E+00 0. -1.
         21   -1    0    0  502  503 -0.00000000000E+00 -0.00000000000E+00 -0.57323620102E+02  0.57323620102E+02  0.00000000000E+00 0.  1.
          6    1    1    2  501    0 -0.94390068327E+02 -0.42154012524E+01  0.37790747591E+03  0.42622800818E+03  0.17300000000E+03 0. -1.
         -6    1    1    2    0  503  0.94390068327E+02  0.42154012524E+01  0.25975224380E+03  0.32607895174E+03  0.17300000000E+03 0.  1.
<mgrwt>
<rscale>  2 0.19711990E+03</rscale>
<asrwt>0</asrwt>
<pdfrwt beam="1">  1       21 0.10692051E+00 0.19711990E+03</pdfrwt>
<pdfrwt beam="2">  1       21 0.88190189E-02 0.19711990E+03</pdfrwt>
<totfact> 0.70650257E+04</totfact>
</mgrwt>
</event>
<event>
 4    3  0.4022695E+000  0.2469960E+03  0.7546771E-02  0.1115218E+00
         21   -1    0    0  501  502  0.00000000000E+00  0.00000000000E+00  0.14906382140E+03  0.14906382140E+03  0.00000000000E+00 0.  1.
         21   -1    0    0  502  503 -0.00000000000E+00 -0.00000000000E+00 -0.10305465066E+04  0.10305465066E+04  0.00000000000E+00 0. -1.
          6    1    1    2  501    0 -0.57850120432E+02 -0.16652741493E+03  0.17208613041E+02  0.24759473484E+03  0.17300000000E+03 0.  1.
         -6    1    1    2    0  503  0.57850120432E+02  0.16652741493E+03 -0.89869129823E+03  0.93201559315E+03  0.17300000000E+03 0.  1.
<mgrwt>
<rscale>  2 0.24699598E+03</rscale>
<asrwt>0</asrwt>
<pdfrwt beam="1">  1       21 0.22932896E-01 0.24699598E+03</pdfrwt>
<pdfrwt beam="2">  1       21 0.15854561E+00 0.24699598E+03</pdfrwt>
<totfact> 0.44112488E+03</totfact>
</mgrwt>
</event>
<event>
 4    3  0.4022695E+000  0.2020827E+03  0.7546771E-02  0.1147994E+00
         21   -1    0    0  503  502  0.00000000000E+00  0.00000000000E+00  0.19777637470E+03  0.19777637470E+03  0.00000000000E+00 0. -1.
         21   -1    0    0  501  503 -0.00000000000E+00 -0.00000000000E+00 -0.35321726918E+03  0.35321726918E+03  0.00000000000E+00 0.  1.
          6    1    1    2  501    0  0.62041241581E+02 -0.84019642291E+02 -0.25528723130E+03  0.32559021240E+03  0.17300000000E+03 0.  1.
         -6    1    1    2    0  502 -0.62041241581E+02  0.84019642291E+02  0.99846336820E+02  0.22540343148E+03  0.17300000000E+03 0. -1.
<mgrwt>
<rscale>  2 0.20208270E+03</rscale>
<asrwt>0</asrwt>
<pdfrwt beam="1">  1       21 0.30427135E-01 0.20208270E+03</pdfrwt>
<pdfrwt beam="2">  1       21 0.54341118E-01 0.20208270E+03</pdfrwt>
<totfact> 0.33000138E+04</totfact>
</mgrwt>
</event>
<event>
 4    3  0.4022695E+000  0.1937903E+03  0.7546771E-02  0.1155086E+00
         21   -1    0    0  503  502  0.00000000000E+00  0.00000000000E+00  0.36956050616E+03  0.36956050616E+03  0.00000000000E+00 0. -1.
         21   -1    0    0  501  503 -0.00000000000E+00 -0.00000000000E+00 -0.11338158681E+03  0.11338158681E+03  0.00000000000E+00 0.  1.
          6    1    1    2  501    0  0.87308565508E+02 -0.17009044761E+01  0.50316298284E+02  0.20021590486E+03  0.17300000000E+03 0.  1.
         -6    1    1    2    0  502 -0.87308565508E+02  0.17009044761E+01  0.20586262107E+03  0.28272618810E+03  0.17300000000E+03 0. -1.
<mgrwt>
<rscale>  2 0.19379030E+03</rscale>
<asrwt>0</asrwt>
<pdfrwt beam="1">  1       21 0.56855462E-01 0.19379030E+03</pdfrwt>
<pdfrwt beam="2">  1       21 0.17443321E-01 0.19379030E+03</pdfrwt>
<totfact> 0.86460192E+04</totfact>
</mgrwt>
</event>
<event>
 4    3  0.4022695E+000  0.2320699E+03  0.7546771E-02  0.1125191E+00
         21   -1    0    0  503  502  0.00000000000E+00  0.00000000000E+00  0.10041124353E+03  0.10041124353E+03  0.00000000000E+00 0. -1.
         21   -1    0    0  501  503 -0.00000000000E+00 -0.00000000000E+00 -0.72425336120E+03  0.72425336120E+03  0.00000000000E+00 0.  1.
          6    1    1    2  501    0  0.53861932729E+02 -0.14500451009E+03 -0.52194057093E+03  0.57120782149E+03  0.17300000000E+03 0.  1.
         -6    1    1    2    0  502 -0.53861932729E+02  0.14500451009E+03 -0.10190154674E+03  0.25345678324E+03  0.17300000000E+03 0. -1.
<mgrwt>
<rscale>  2 0.23206985E+03</rscale>
<asrwt>0</asrwt>
<pdfrwt beam="1">  1       21 0.15447884E-01 0.23206985E+03</pdfrwt>
<pdfrwt beam="2">  1       21 0.11142359E+00 0.23206985E+03</pdfrwt>
<totfact> 0.23004492E+04</totfact>
</mgrwt>
</event>
<event>
 4    3  0.4022695E+000  0.1852114E+03  0.7546771E-02  0.1162853E+00
         21   -1    0    0  501  502  0.00000000000E+00  0.00000000000E+00  0.24581000510E+03  0.24581000510E+03  0.00000000000E+00 0.  1.
         21   -1    0    0  502  503 -0.00000000000E+00 -0.00000000000E+00 -0.17490902884E+03  0.17490902884E+03  0.00000000000E+00 0.  1.
          6    1    1    2  501    0 -0.65096421546E+02  0.11692893149E+02  0.13002937134E+03  0.22629826614E+03  0.17300000000E+03 0.  1.
         -6    1    1    2    0  503  0.65096421546E+02 -0.11692893149E+02 -0.59128395082E+02  0.19442076780E+03  0.17300000000E+03 0.  1.
<mgrwt>
<rscale>  2 0.18521141E+03</rscale>
<asrwt>0</asrwt>
<pdfrwt beam="1">  1       21 0.37816924E-01 0.18521141E+03</pdfrwt>
<pdfrwt beam="2">  1       21 0.26909081E-01 0.18521141E+03</pdfrwt>
<totfact> 0.88965085E+04</totfact>
</mgrwt>
</event>
<event>
 4    3  0.4022695E+000  0.2037490E+03  0.7546771E-02  0.1146614E+00
         21   -1    0    0  501  502  0.00000000000E+00  0.00000000000E+00  0.90295186306E+03  0.90295186306E+03  0.00000000000E+00 0.  1.
         21   -1    0    0  502  503 -0.00000000000E+00 -0.00000000000E+00 -0.50068770048E+02  0.50068770048E+02  0.00000000000E+00 0.  1.
          6    1    1    2  501    0  0.75515193487E+02 -0.76694982493E+02  0.29019548330E+03  0.35458015076E+03  0.17300000000E+03 0.  1.
         -6    1    1    2    0  503 -0.75515193487E+02  0.76694982493E+02  0.56268760971E+03  0.59844048234E+03  0.17300000000E+03 0.  1.
<mgrwt>
<rscale>  2 0.20374902E+03</rscale>
<asrwt>0</asrwt>
<pdfrwt beam="1">  1       21 0.13891566E+00 0.20374902E+03</pdfrwt>
<pdfrwt beam="2">  1       21 0.77028883E-02 0.20374902E+03</pdfrwt>
<totfact> 0.46500694E+04</totfact>
</mgrwt>
</event>
<event>
 4    3  0.4022695E+000  0.1731270E+03  0.7546771E-02  0.1174626E+00
         21   -1    0    0  501  502  0.00000000000E+00  0.00000000000E+00  0.16368691253E+03  0.16368691253E+03  0.00000000000E+00 0.  1.
         21   -1    0    0  502  503 -0.00000000000E+00 -0.00000000000E+00 -0.20386908655E+03  0.20386908655E+03  0.00000000000E+00 0.  1.
          6    1    1    2  501    0 -0.30186785170E+01  0.59016404676E+01 -0.78732871038E+02  0.19018887129E+03  0.17300000000E+03 0.  1.
         -6    1    1    2    0  503  0.30186785170E+01 -0.59016404676E+01  0.38550697014E+02  0.17736712779E+03  0.17300000000E+03 0.  1.
<mgrwt>
<rscale>  2 0.17312695E+03</rscale>
<asrwt>0</asrwt>
<pdfrwt beam="1">  1       21 0.25182602E-01 0.17312695E+03</pdfrwt>
<pdfrwt beam="2">  1       21 0.31364475E-01 0.17312695E+03</pdfrwt>
<totfact> 0.14686636E+05</totfact>
</mgrwt>
</event>
<event>
 4    3  0.4022695E+000  0.1838578E+03  0.7546771E-02  0.1164121E+00
         21   -1    0    0  501  502  0.00000000000E+00  0.00000000000E+00  0.15728268218E+03  0.15728268218E+03  0.00000000000E+00 0.  1.
         21   -1    0    0  502  503 -0.00000000000E+00 -0.00000000000E+00 -0.40223610044E+03  0.40223610044E+03  0.00000000000E+00 0.  1.
          6    1    1    2  501    0 -0.43105633280E+02 -0.44906584337E+02  0.68432992556E+02  0.19618045623E+03  0.17300000000E+03 0.  1.
         -6    1    1    2    0  503  0.43105633280E+02  0.44906584337E+02 -0.31338641082E+03  0.36333832639E+03  0.17300000000E+03 0.  1.
<mgrwt>
<rscale>  2 0.18385782E+03</rscale>
<asrwt>0</asrwt>
<pdfrwt beam="1">  1       21 0.24197336E-01 0.18385782E+03</pdfrwt>
<pdfrwt beam="2">  1       21 0.61882476E-01 0.18385782E+03</pdfrwt>
<totfact> 0.39253307E+04</totfact>
</mgrwt>
</event>
<event>
 4    3  0.4022695E+000  0.2241738E+03  0.7546771E-02  0.1130809E+00
         21   -1    0    0  503  502  0.00000000000E+00  0.00000000000E+00  0.20035518844E+03  0.20035518844E+03  0.00000000000E+00 0. -1.
         21   -1    0    0  501  503 -0.00000000000E+00 -0.00000000000E+00 -0.35504350932E+03  0.35504350932E+03  0.00000000000E+00 0.  1.
          6    1    1    2  501    0 -0.12916133055E+03  0.60350887405E+02 -0.22779987850E+03  0.31960391669E+03  0.17300000000E+03 0.  1.
         -6    1    1    2    0  502  0.12916133055E+03 -0.60350887405E+02  0.73111557617E+02  0.23579478107E+03  0.17300000000E+03 0. -1.
<mgrwt>
<rscale>  2 0.22417377E+03</rscale>
<asrwt>0</asrwt>
<pdfrwt beam="1">  1       21 0.30823875E-01 0.22417377E+03</pdfrwt>
<pdfrwt beam="2">  1       21 0.54622078E-01 0.22417377E+03</pdfrwt>
<totfact> 0.31464651E+04</totfact>
</mgrwt>
</event>
<event>
 4    3  0.4022695E+000  0.1816112E+03  0.7546771E-02  0.1166253E+00
         21   -1    0    0  501  502  0.00000000000E+00  0.00000000000E+00  0.61551014324E+03  0.61551014324E+03  0.00000000000E+00 0.  1.
         21   -1    0    0  502  503 -0.00000000000E+00 -0.00000000000E+00 -0.65811843619E+02  0.65811843619E+02  0.00000000000E+00 0.  1.
          6    1    1    2  501    0 -0.52127014233E+02 -0.18341686400E+02  0.42167827344E+03  0.45912439422E+03  0.17300000000E+03 0.  1.
         -6    1    1    2    0  503  0.52127014233E+02  0.18341686400E+02  0.12802002618E+03  0.22219759264E+03  0.17300000000E+03 0.  1.
<mgrwt>
<rscale>  2 0.18161124E+03</rscale>
<asrwt>0</asrwt>
<pdfrwt beam="1">  1       21 0.94693864E-01 0.18161124E+03</pdfrwt>
<pdfrwt beam="2">  1       21 0.10124899E-01 0.18161124E+03</pdfrwt>
<totfact> 0.74457992E+04</totfact>
</mgrwt>
</event>
<event>
 4    3  0.4022695E+000  0.2385470E+03  0.7546771E-02  0.1120765E+00
         21   -1    0    0  503  502  0.00000000000E+00  0.00000000000E+00  0.11179265760E+04  0.11179265760E+04  0.00000000000E+00 0. -1.
         21   -1    0    0  501  503 -0.00000000000E+00 -0.00000000000E+00 -0.85193686914E+02  0.85193686914E+02  0.00000000000E+00 0.  1.
          6    1    1    2  501    0  0.62068316671E+02 -0.15206313948E+03  0.13471237189E+03  0.27395637876E+03  0.17300000000E+03 0.  1.
         -6    1    1    2    0  502 -0.62068316671E+02  0.15206313948E+03  0.89802051719E+03  0.92916388415E+03  0.17300000000E+03 0. -1.
<mgrwt>
<rscale>  2 0.23854701E+03</rscale>
<asrwt>0</asrwt>
<pdfrwt beam="1">  1       21 0.17198869E+00 0.23854701E+03</pdfrwt>
<pdfrwt beam="2">  1       21 0.13106722E-01 0.23854701E+03</pdfrwt>
<totfact> 0.10008471E+04</totfact>
</mgrwt>
</event>
<event>
 4    3  0.4022695E+000  0.2061972E+03  0.7546771E-02  0.1144613E+00
         21   -1    0    0  503  502  0.00000000000E+00  0.00000000000E+00  0.15754010840E+03  0.15754010840E+03  0.00000000000E+00 0. -1.
         21   -1    0    0  501  503 -0.00000000000E+00 -0.00000000000E+00 -0.45898654690E+03  0.45898654690E+03  0.00000000000E+00 0. -1.
          6    1    1    2  501    0 -0.88533929008E+02 -0.68920346159E+02 -0.34858988820E+03  0.40500886515E+03  0.17300000000E+03 0. -1.
         -6    1    1    2    0  502  0.88533929008E+02  0.68920346159E+02  0.47143449695E+02  0.21151779015E+03  0.17300000000E+03 0. -1.
<mgrwt>
<rscale>  2 0.20619716E+03</rscale>
<asrwt>0</asrwt>
<pdfrwt beam="1">  1       21 0.24236940E-01 0.20619716E+03</pdfrwt>
<pdfrwt beam="2">  1       21 0.70613314E-01 0.20619716E+03</pdfrwt>
<totfact> 0.28986140E+04</totfact>
</mgrwt>
</event>
<event>
 4    3  0.4022695E+000  0.2088315E+03  0.7546771E-02  0.1142495E+00
         21   -1    0    0  501  502  0.00000000000E+00  0.00000000000E+00  0.91837104184E+03  0.91837104184E+03  0.00000000000E+00 0. -1.
         21   -1    0    0  502  503 -0.00000000000E+00 -0.00000000000E+00 -0.20538252498E+03  0.20538252498E+03  0.00000000000E+00 0. -1.
          6    1    1    2  501    0  0.80385571467E+01  0.11669183109E+03  0.84915094254E+03  0.87445292902E+03  0.17300000000E+03 0. -1.
         -6    1    1    2    0  503 -0.80385571467E+01 -0.11669183109E+03 -0.13616242568E+03  0.24930063781E+03  0.17300000000E+03 0. -1.
<mgrwt>
<rscale>  2 0.20883152E+03</rscale>
<asrwt>0</asrwt>
<pdfrwt beam="1">  1       21 0.14128785E+00 0.20883152E+03</pdfrwt>
<pdfrwt beam="2">  1       21 0.31597312E-01 0.20883152E+03</pdfrwt>
<totfact> 0.33178235E+03</totfact>
</mgrwt>
</event>
<event>
 4    3  0.4022695E+000  0.2192212E+03  0.7546771E-02  0.1134465E+00
         21   -1    0    0  501  502  0.00000000000E+00  0.00000000000E+00  0.59036697741E+03  0.59036697741E+03  0.00000000000E+00 0.  1.
         21   -1    0    0  502  503 -0.00000000000E+00 -0.00000000000E+00 -0.98679996107E+02  0.98679996107E+02  0.00000000000E+00 0.  1.
          6    1    1    2  501    0 -0.53698501510E+02  0.12347230985E+03  0.10168771069E+03  0.24165746599E+03  0.17300000000E+03 0.  1.
         -6    1    1    2    0  503  0.53698501510E+02 -0.12347230985E+03  0.38999927062E+03  0.44738950753E+03  0.17300000000E+03 0.  1.
<mgrwt>
<rscale>  2 0.21922121E+03</rscale>
<asrwt>0</asrwt>
<pdfrwt beam="1">  1       21 0.90825686E-01 0.21922121E+03</pdfrwt>
<pdfrwt beam="2">  1       21 0.15181538E-01 0.21922121E+03</pdfrwt>
<totfact> 0.38932519E+04</totfact>
</mgrwt>
</event>
<event>
 4    3  0.4022695E+000  0.2598586E+03  0.7546771E-02  0.1107228E+00
         21   -1    0    0  503  502  0.00000000000E+00  0.00000000000E+00  0.29696376967E+03  0.29696376967E+03  0.00000000000E+00 0.  1.
         21   -1    0    0  501  503 -0.00000000000E+00 -0.00000000000E+00 -0.31208742552E+03  0.31208742552E+03  0.00000000000E+00 0.  1.
          6    1    1    2  501    0 -0.11535545122E+03 -0.15585438085E+03  0.15108151006E+03  0.30058624526E+03  0.17300000000E+03 0.  1.
         -6    1    1    2    0  502  0.11535545122E+03  0.15585438085E+03 -0.16620516592E+03  0.30846494993E+03  0.17300000000E+03 0.  1.
<mgrwt>
<rscale>  2 0.25985855E+03</rscale>
<asrwt>0</asrwt>
<pdfrwt beam="1">  1       21 0.45686734E-01 0.25985855E+03</pdfrwt>
<pdfrwt beam="2">  1       21 0.48013450E-01 0.25985855E+03</pdfrwt>
<totfact> 0.18359812E+04</totfact>
</mgrwt>
</event>
<event>
 4    3  0.4022695E+000  0.2437356E+03  0.7546771E-02  0.1117329E+00
         21   -1    0    0  501  502  0.00000000000E+00  0.00000000000E+00  0.12576742837E+04  0.12576742837E+04  0.00000000000E+00 0.  1.
         21   -1    0    0  502  503 -0.00000000000E+00 -0.00000000000E+00 -0.61764937918E+02  0.61764937918E+02  0.00000000000E+00 0. -1.
          6    1    1    2  501    0  0.17109404496E+03  0.14312826824E+02  0.91792591494E+03  0.94973418099E+03  0.17300000000E+03 0.  1.
         -6    1    1    2    0  503 -0.17109404496E+03 -0.14312826824E+02  0.27798343081E+03  0.36970504059E+03  0.17300000000E+03 0.  1.
<mgrwt>
<rscale>  2 0.24373557E+03</rscale>
<asrwt>0</asrwt>
<pdfrwt beam="1">  1       21 0.19348833E+00 0.24373557E+03</pdfrwt>
<pdfrwt beam="2">  1       21 0.95022991E-02 0.24373557E+03</pdfrwt>
<totfact> 0.12655426E+04</totfact>
</mgrwt>
</event>
<event>
 4    3  0.4022695E+000  0.2189466E+03  0.7546771E-02  0.1134671E+00
         21   -1    0    0  501  502  0.00000000000E+00  0.00000000000E+00  0.29093469495E+03  0.29093469495E+03  0.00000000000E+00 0.  1.
         21   -1    0    0  502  503 -0.00000000000E+00 -0.00000000000E+00 -0.44681848040E+03  0.44681848040E+03  0.00000000000E+00 0.  1.
          6    1    1    2  501    0 -0.20243544954E+02  0.13266045588E+03  0.21513167294E+03  0.30695151794E+03  0.17300000000E+03 0.  1.
         -6    1    1    2    0  503  0.20243544954E+02 -0.13266045588E+03 -0.37101545838E+03  0.43080165741E+03  0.17300000000E+03 0.  1.
<mgrwt>
<rscale>  2 0.21894656E+03</rscale>
<asrwt>0</asrwt>
<pdfrwt beam="1">  1       21 0.44759184E-01 0.21894656E+03</pdfrwt>
<pdfrwt beam="2">  1       21 0.68741304E-01 0.21894656E+03</pdfrwt>
<totfact> 0.90753139E+03</totfact>
</mgrwt>
</event>
<event>
 4    3  0.4022695E+000  0.2046609E+03  0.7546771E-02  0.1145865E+00
         21   -1    0    0  503  502  0.00000000000E+00  0.00000000000E+00  0.11488339540E+03  0.11488339540E+03  0.00000000000E+00 0.  1.
         21   -1    0    0  501  503 -0.00000000000E+00 -0.00000000000E+00 -0.50533819600E+03  0.50533819600E+03  0.00000000000E+00 0.  1.
          6    1    1    2  501    0  0.95185111617E+02 -0.53822504262E+02 -0.31569327276E+02  0.20708136049E+03  0.17300000000E+03 0.  1.
         -6    1    1    2    0  502 -0.95185111617E+02  0.53822504262E+02 -0.35888547332E+03  0.41314023091E+03  0.17300000000E+03 0.  1.
<mgrwt>
<rscale>  2 0.20466086E+03</rscale>
<asrwt>0</asrwt>
<pdfrwt beam="1">  1       21 0.17674369E-01 0.20466086E+03</pdfrwt>
<pdfrwt beam="2">  1       21 0.77744336E-01 0.20466086E+03</pdfrwt>
<totfact> 0.42334176E+04</totfact>
</mgrwt>
</event>
<event>
 4    3  0.4022695E+000  0.1836724E+03  0.7546771E-02  0.1164295E+00
         21   -1    0    0  503  502  0.00000000000E+00  0.00000000000E+00  0.29077140912E+03  0.29077140912E+03  0.00000000000E+00 0.  1.
         21   -1    0    0  501  503 -0.00000000000E+00 -0.00000000000E+00 -0.12611279844E+03  0.12611279844E+03  0.00000000000E+00 0.  1.
          6    1    1    2  501    0  0.57601852238E+02  0.22103835363E+02  0.23364500024E+02  0.18515251222E+03  0.17300000000E+03 0.  1.
         -6    1    1    2    0  502 -0.57601852238E+02 -0.22103835363E+02  0.14129411066E+03  0.23173169534E+03  0.17300000000E+03 0.  1.
<mgrwt>
<rscale>  2 0.18367241E+03</rscale>
<asrwt>0</asrwt>
<pdfrwt beam="1">  1       21 0.44734063E-01 0.18367241E+03</pdfrwt>
<pdfrwt beam="2">  1       21 0.19401969E-01 0.18367241E+03</pdfrwt>
<totfact> 0.11754569E+05</totfact>
</mgrwt>
</event>
<event>
 4    3  0.4022695E+000  0.1796755E+03  0.7546771E-02  0.1168117E+00
         21   -1    0    0  501  502  0.00000000000E+00  0.00000000000E+00  0.61248624517E+03  0.61248624517E+03  0.00000000000E+00 0. -1.
         21   -1    0    0  502  503 -0.00000000000E+00 -0.00000000000E+00 -0.52724914802E+02  0.52724914802E+02  0.00000000000E+00 0. -1.
          6    1    1    2  501    0 -0.21482708987E+02 -0.43506216716E+02  0.27403141784E+03  0.32768356022E+03  0.17300000000E+03 0. -1.
         -6    1    1    2    0  503  0.21482708987E+02  0.43506216716E+02  0.28572991253E+03  0.33752759975E+03  0.17300000000E+03 0. -1.
<mgrwt>
<rscale>  2 0.17967553E+03</rscale>
<asrwt>0</asrwt>
<pdfrwt beam="1">  1       21 0.94228648E-01 0.17967553E+03</pdfrwt>
<pdfrwt beam="2">  1       21 0.81115258E-02 0.17967553E+03</pdfrwt>
<totfact> 0.11116984E+05</totfact>
</mgrwt>
</event>
<event>
 4    3  0.4022695E+000  0.1822959E+03  0.7546771E-02  0.1165599E+00
         21   -1    0    0  503  502  0.00000000000E+00  0.00000000000E+00  0.14712343715E+03  0.14712343715E+03  0.00000000000E+00 0. -1.
         21   -1    0    0  501  503 -0.00000000000E+00 -0.00000000000E+00 -0.34820410533E+03  0.34820410533E+03  0.00000000000E+00 0. -1.
          6    1    1    2  501    0  0.29446333582E+01 -0.57394485398E+02 -0.24733386650E+03  0.30725533248E+03  0.17300000000E+03 0. -1.
         -6    1    1    2    0  502 -0.29446333582E+01  0.57394485398E+02  0.46253198321E+02  0.18807221000E+03  0.17300000000E+03 0. -1.
<mgrwt>
<rscale>  2 0.18229591E+03</rscale>
<asrwt>0</asrwt>
<pdfrwt beam="1">  1       21 0.22634375E-01 0.18229591E+03</pdfrwt>
<pdfrwt beam="2">  1       21 0.53569862E-01 0.18229591E+03</pdfrwt>
<totfact> 0.60607183E+04</totfact>
</mgrwt>
</event>
<event>
 4    3  0.4022695E+000  0.1974460E+03  0.7546771E-02  0.1151912E+00
         21   -1    0    0  501  502  0.00000000000E+00  0.00000000000E+00  0.81528910724E+02  0.81528910724E+02  0.00000000000E+00 0. -1.
         21   -1    0    0  502  503 -0.00000000000E+00 -0.00000000000E+00 -0.74550625536E+03  0.74550625536E+03  0.00000000000E+00 0.  1.
          6    1    1    2  501    0  0.11446987478E+02 -0.94471736780E+02 -0.84363585091E+02  0.21471412870E+03  0.17300000000E+03 0. -1.
         -6    1    1    2    0  503 -0.11446987478E+02  0.94471736780E+02 -0.57961375954E+03  0.61232103738E+03  0.17300000000E+03 0.  1.
<mgrwt>
<rscale>  2 0.19744605E+03</rscale>
<asrwt>0</asrwt>
<pdfrwt beam="1">  1       21 0.12542909E-01 0.19744605E+03</pdfrwt>
<pdfrwt beam="2">  1       21 0.11469327E+00 0.19744605E+03</pdfrwt>
<totfact> 0.31899530E+04</totfact>
</mgrwt>
</event>
<event>
 4    3  0.4022695E+000  0.2736071E+03  0.7546771E-02  0.1099233E+00
         21   -1    0    0  503  502  0.00000000000E+00  0.00000000000E+00  0.24400792685E+04  0.24400792685E+04  0.00000000000E+00 0. -1.
         21   -1    0    0  501  503 -0.00000000000E+00 -0.00000000000E+00 -0.31075305085E+02  0.31075305085E+02  0.00000000000E+00 0.  1.
          6    1    1    2  501    0  0.14387922846E+03 -0.15566186337E+03  0.13439154753E+04  0.13714844705E+04  0.17300000000E+03 0. -1.
         -6    1    1    2    0  502 -0.14387922846E+03  0.15566186337E+03  0.10650884880E+04  0.10996701030E+04  0.17300000000E+03 0.  1.
<mgrwt>
<rscale>  2 0.27360711E+03</rscale>
<asrwt>0</asrwt>
<pdfrwt beam="1">  1       21 0.37539666E+00 0.27360711E+03</pdfrwt>
<pdfrwt beam="2">  1       21 0.47808181E-02 0.27360711E+03</pdfrwt>
<totfact> 0.32631080E+03</totfact>
</mgrwt>
</event>
<event>
 4    3  0.4022695E+000  0.1880018E+03  0.7546771E-02  0.1160276E+00
         21   -1    0    0  501  502  0.00000000000E+00  0.00000000000E+00  0.47341179725E+02  0.47341179725E+02  0.00000000000E+00 0.  1.
         21   -1    0    0  502  503 -0.00000000000E+00 -0.00000000000E+00 -0.74878049411E+03  0.74878049411E+03  0.00000000000E+00 0.  1.
          6    1    1    2  501    0  0.89774328160E+01  0.73041617158E+02 -0.37222668825E+03  0.41701004734E+03  0.17300000000E+03 0.  1.
         -6    1    1    2    0  503 -0.89774328160E+01 -0.73041617158E+02 -0.32921262614E+03  0.37911162650E+03  0.17300000000E+03 0.  1.
<mgrwt>
<rscale>  2 0.18800179E+03</rscale>
<asrwt>0</asrwt>
<pdfrwt beam="1">  1       21 0.72832588E-02 0.18800179E+03</pdfrwt>
<pdfrwt beam="2">  1       21 0.11519699E+00 0.18800179E+03</pdfrwt>
<totfact> 0.82630197E+04</totfact>
</mgrwt>
</event>
<event>
 4    3  0.4022695E+000  0.5810633E+03  0.7546771E-02  0.9945492E-01
         21   -1    0    0  503  502  0.00000000000E+00  0.00000000000E+00  0.34875368410E+03  0.34875368410E+03  0.00000000000E+00 0.  1.
         21   -1    0    0  501  503 -0.00000000000E+00 -0.00000000000E+00 -0.12892295403E+04  0.12892295403E+04  0.00000000000E+00 0. -1.
          6    1    1    2  501    0 -0.45542554570E+03 -0.31669085608E+03 -0.87897371235E+03  0.10536741968E+04  0.17300000000E+03 0. -1.
         -6    1    1    2    0  502  0.45542554570E+03  0.31669085608E+03 -0.61502143810E+02  0.58430902756E+03  0.17300000000E+03 0.  1.
<mgrwt>
<rscale>  2 0.58106327E+03</rscale>
<asrwt>0</asrwt>
<pdfrwt beam="1">  1       21 0.53654413E-01 0.58106327E+03</pdfrwt>
<pdfrwt beam="2">  1       21 0.19834301E+00 0.58106327E+03</pdfrwt>
<totfact> 0.34955876E+02</totfact>
</mgrwt>
</event>
<event>
 4    3  0.4022695E+000  0.1739381E+03  0.7546771E-02  0.1173802E+00
         21   -1    0    0  503  502  0.00000000000E+00  0.00000000000E+00  0.86383545852E+03  0.86383545852E+03  0.00000000000E+00 0.  1.
         21   -1    0    0  501  503 -0.00000000000E+00 -0.00000000000E+00 -0.36349046303E+02  0.36349046303E+02  0.00000000000E+00 0.  1.
          6    1    1    2  501    0  0.23705137209E+01 -0.17884475868E+02  0.49969704022E+03  0.52910453203E+03  0.17300000000E+03 0.  1.
         -6    1    1    2    0  502 -0.23705137209E+01  0.17884475868E+02  0.32778937200E+03  0.37107997279E+03  0.17300000000E+03 0.  1.
<mgrwt>
<rscale>  2 0.17393813E+03</rscale>
<asrwt>0</asrwt>
<pdfrwt beam="1">  1       21 0.13289775E+00 0.17393813E+03</pdfrwt>
<pdfrwt beam="2">  1       21 0.55921616E-02 0.17393813E+03</pdfrwt>
<totfact> 0.91706407E+04</totfact>
</mgrwt>
</event>
<event>
 4    3  0.4022695E+000  0.1895105E+03  0.7546771E-02  0.1158904E+00
         21   -1    0    0  501  502  0.00000000000E+00  0.00000000000E+00  0.27736391049E+03  0.27736391049E+03  0.00000000000E+00 0. -1.
         21   -1    0    0  502  503 -0.00000000000E+00 -0.00000000000E+00 -0.15228521961E+03  0.15228521961E+03  0.00000000000E+00 0. -1.
          6    1    1    2  501    0 -0.49652158659E+02  0.59328684806E+02  0.14566454314E+03  0.23902382481E+03  0.17300000000E+03 0. -1.
         -6    1    1    2    0  503  0.49652158659E+02 -0.59328684806E+02 -0.20585852257E+02  0.19062530528E+03  0.17300000000E+03 0. -1.
<mgrwt>
<rscale>  2 0.18951050E+03</rscale>
<asrwt>0</asrwt>
<pdfrwt beam="1">  1       21 0.42671371E-01 0.18951050E+03</pdfrwt>
<pdfrwt beam="2">  1       21 0.23428495E-01 0.18951050E+03</pdfrwt>
<totfact> 0.90652286E+04</totfact>
</mgrwt>
</event>
<event>
 4    3  0.4022695E+000  0.2006730E+03  0.7546771E-02  0.1149172E+00
         21   -1    0    0  501  502  0.00000000000E+00  0.00000000000E+00  0.34878788570E+03  0.34878788570E+03  0.00000000000E+00 0.  1.
         21   -1    0    0  502  503 -0.00000000000E+00 -0.00000000000E+00 -0.18854601731E+03  0.18854601731E+03  0.00000000000E+00 0.  1.
          6    1    1    2  501    0 -0.77116046997E+02  0.66285546594E+02  0.24739729132E+03  0.31855153138E+03  0.17300000000E+03 0.  1.
         -6    1    1    2    0  503  0.77116046997E+02 -0.66285546594E+02 -0.87155422927E+02  0.21878237163E+03  0.17300000000E+03 0.  1.
<mgrwt>
<rscale>  2 0.20067301E+03</rscale>
<asrwt>0</asrwt>
<pdfrwt beam="1">  1       21 0.53659675E-01 0.20067301E+03</pdfrwt>
<pdfrwt beam="2">  1       21 0.29007080E-01 0.20067301E+03</pdfrwt>
<totfact> 0.37228001E+04</totfact>
</mgrwt>
</event>
<event>
 4    3  0.4022695E+000  0.2157365E+03  0.7546771E-02  0.1137102E+00
         21   -1    0    0  503  502  0.00000000000E+00  0.00000000000E+00  0.16645188122E+02  0.16645188122E+02  0.00000000000E+00 0. -1.
         21   -1    0    0  501  503 -0.00000000000E+00 -0.00000000000E+00 -0.33520660241E+04  0.33520660241E+04  0.00000000000E+00 0. -1.
          6    1    1    2  501    0  0.11172917586E+03  0.64263830759E+02 -0.98176958712E+03  0.10051933997E+04  0.17300000000E+03 0. -1.
         -6    1    1    2    0  502 -0.11172917586E+03 -0.64263830759E+02 -0.23536512489E+04  0.23635178125E+04  0.17300000000E+03 0. -1.
<mgrwt>
<rscale>  2 0.21573653E+03</rscale>
<asrwt>0</asrwt>
<pdfrwt beam="1">  1       21 0.25607990E-02 0.21573653E+03</pdfrwt>
<pdfrwt beam="2">  1       21 0.51570230E+00 0.21573653E+03</pdfrwt>
<totfact> 0.11620756E+03</totfact>
</mgrwt>
</event>
<event>
 4    3  0.4022695E+000  0.2016701E+03  0.7546771E-02  0.1148338E+00
         21   -1    0    0  503  502  0.00000000000E+00  0.00000000000E+00  0.65883716123E+02  0.65883716123E+02  0.00000000000E+00 0.  1.
         21   -1    0    0  501  503 -0.00000000000E+00 -0.00000000000E+00 -0.12191855909E+04  0.12191855909E+04  0.00000000000E+00 0.  1.
          6    1    1    2  501    0  0.71265133059E+02  0.75253666209E+02 -0.10281056097E+04  0.10476984194E+04  0.17300000000E+03 0.  1.
         -6    1    1    2    0  502 -0.71265133059E+02 -0.75253666209E+02 -0.12519626508E+03  0.23737088755E+03  0.17300000000E+03 0.  1.
<mgrwt>
<rscale>  2 0.20167011E+03</rscale>
<asrwt>0</asrwt>
<pdfrwt beam="1">  1       21 0.10135957E-01 0.20167011E+03</pdfrwt>
<pdfrwt beam="2">  1       21 0.18756701E+00 0.20167011E+03</pdfrwt>
<totfact> 0.12733323E+04</totfact>
</mgrwt>
</event>
<event>
 4    3  0.4022695E+000  0.1874748E+03  0.7546771E-02  0.1160759E+00
         21   -1    0    0  503  502  0.00000000000E+00  0.00000000000E+00  0.65168917177E+02  0.65168917177E+02  0.00000000000E+00 0.  1.
         21   -1    0    0  501  503 -0.00000000000E+00 -0.00000000000E+00 -0.74125282922E+03  0.74125282922E+03  0.00000000000E+00 0.  1.
          6    1    1    2  501    0 -0.55666851888E+02 -0.46032737135E+02 -0.54849440733E+03  0.57964896805E+03  0.17300000000E+03 0.  1.
         -6    1    1    2    0  502  0.55666851888E+02  0.46032737135E+02 -0.12758950471E+03  0.22677277835E+03  0.17300000000E+03 0.  1.
<mgrwt>
<rscale>  2 0.18747483E+03</rscale>
<asrwt>0</asrwt>
<pdfrwt beam="1">  1       21 0.10025987E-01 0.18747483E+03</pdfrwt>
<pdfrwt beam="2">  1       21 0.11403890E+00 0.18747483E+03</pdfrwt>
<totfact> 0.48461546E+04</totfact>
</mgrwt>
</event>
<event>
 4    3  0.4022695E+000  0.2054643E+03  0.7546771E-02  0.1145209E+00
         21   -1    0    0  503  502  0.00000000000E+00  0.00000000000E+00  0.98391670743E+03  0.98391670743E+03  0.00000000000E+00 0. -1.
         21   -1    0    0  501  503 -0.00000000000E+00 -0.00000000000E+00 -0.43901596871E+02  0.43901596871E+02  0.00000000000E+00 0. -1.
          6    1    1    2  501    0 -0.22465917054E+02 -0.10854435611E+03  0.39260374666E+03  0.44311770057E+03  0.17300000000E+03 0. -1.
         -6    1    1    2    0  502  0.22465917054E+02  0.10854435611E+03  0.54741136390E+03  0.58470060373E+03  0.17300000000E+03 0. -1.
<mgrwt>
<rscale>  2 0.20546434E+03</rscale>
<asrwt>0</asrwt>
<pdfrwt beam="1">  1       21 0.15137178E+00 0.20546434E+03</pdfrwt>
<pdfrwt beam="2">  1       21 0.67540925E-02 0.20546434E+03</pdfrwt>
<totfact> 0.46605758E+04</totfact>
</mgrwt>
</event>
<event>
 4    3  0.4022695E+000  0.1803499E+03  0.7546771E-02  0.1167465E+00
         21   -1    0    0  503  502  0.00000000000E+00  0.00000000000E+00  0.43236846556E+02  0.43236846556E+02  0.00000000000E+00 0.  1.
         21   -1    0    0  501  503 -0.00000000000E+00 -0.00000000000E+00 -0.77639900838E+03  0.77639900838E+03  0.00000000000E+00 0.  1.
          6    1    1    2  501    0  0.49285870459E+02  0.12960811086E+02 -0.29434463712E+03  0.34520261449E+03  0.17300000000E+03 0.  1.
         -6    1    1    2    0  502 -0.49285870459E+02 -0.12960811086E+02 -0.43881752471E+03  0.47443324045E+03  0.17300000000E+03 0.  1.
<mgrwt>
<rscale>  2 0.18034988E+03</rscale>
<asrwt>0</asrwt>
<pdfrwt beam="1">  1       21 0.66518228E-02 0.18034988E+03</pdfrwt>
<pdfrwt beam="2">  1       21 0.11944600E+00 0.18034988E+03</pdfrwt>
<totfact> 0.88724017E+04</totfact>
</mgrwt>
</event>
<event>
 4    3  0.4022695E+000  0.1794775E+03  0.7546771E-02  0.1168310E+00
         21   -1    0    0  503  502  0.00000000000E+00  0.00000000000E+00  0.24001639528E+03  0.24001639528E+03  0.00000000000E+00 0. -1.
         21   -1    0    0  501  503 -0.00000000000E+00 -0.00000000000E+00 -0.41214071326E+03  0.41214071326E+03  0.00000000000E+00 0. -1.
          6    1    1    2  501    0 -0.14537607673E+02  0.45517563942E+02 -0.35383657597E+03  0.39675245829E+03  0.17300000000E+03 0. -1.
         -6    1    1    2    0  502  0.14537607673E+02 -0.45517563942E+02  0.18171225800E+03  0.25540465025E+03  0.17300000000E+03 0. -1.
<mgrwt>
<rscale>  2 0.17947755E+03</rscale>
<asrwt>0</asrwt>
<pdfrwt beam="1">  1       21 0.36925600E-01 0.17947755E+03</pdfrwt>
<pdfrwt beam="2">  1       21 0.63406263E-01 0.17947755E+03</pdfrwt>
<totfact> 0.16404949E+04</totfact>
</mgrwt>
</event>
<event>
 4    3  0.4022695E+000  0.2695382E+03  0.7546771E-02  0.1101544E+00
         21   -1    0    0  501  502  0.00000000000E+00  0.00000000000E+00  0.26659638801E+03  0.26659638801E+03  0.00000000000E+00 0. -1.
         21   -1    0    0  502  503 -0.00000000000E+00 -0.00000000000E+00 -0.53922997745E+03  0.53922997745E+03  0.00000000000E+00 0.  1.
          6    1    1    2  501    0  0.13083093154E+03 -0.16001589525E+03  0.14705086838E+03  0.30704197966E+03  0.17300000000E+03 0. -1.
         -6    1    1    2    0  503 -0.13083093154E+03  0.16001589525E+03 -0.41968445782E+03  0.49878438580E+03  0.17300000000E+03 0.  1.
<mgrwt>
<rscale>  2 0.26953816E+03</rscale>
<asrwt>0</asrwt>
<pdfrwt beam="1">  1       21 0.41014830E-01 0.26953816E+03</pdfrwt>
<pdfrwt beam="2">  1       21 0.82958457E-01 0.26953816E+03</pdfrwt>
<totfact> 0.69028697E+03</totfact>
</mgrwt>
</event>
<event>
 4    3  0.4022695E+000  0.1813051E+03  0.7546771E-02  0.1166546E+00
         21   -1    0    0  501  502  0.00000000000E+00  0.00000000000E+00  0.28820463211E+03  0.28820463211E+03  0.00000000000E+00 0.  1.
         21   -1    0    0  502  503 -0.00000000000E+00 -0.00000000000E+00 -0.23296361973E+03  0.23296361973E+03  0.00000000000E+00 0.  1.
          6    1    1    2  501    0  0.51909616582E+02  0.15746177375E+02  0.21378987271E+03  0.28031707060E+03  0.17300000000E+03 0.  1.
         -6    1    1    2    0  503 -0.51909616582E+02 -0.15746177375E+02 -0.15854886033E+03  0.24085118124E+03  0.17300000000E+03 0.  1.
<mgrwt>
<rscale>  2 0.18130513E+03</rscale>
<asrwt>0</asrwt>
<pdfrwt beam="1">  1       21 0.44339174E-01 0.18130513E+03</pdfrwt>
<pdfrwt beam="2">  1       21 0.35840557E-01 0.18130513E+03</pdfrwt>
<totfact> 0.36881131E+04</totfact>
</mgrwt>
</event>
<event>
 4    3  0.4022695E+000  0.1736962E+03  0.7546771E-02  0.1174047E+00
         21   -1    0    0  501  502  0.00000000000E+00  0.00000000000E+00  0.16769894861E+04  0.16769894861E+04  0.00000000000E+00 0. -1.
         21   -1    0    0  502  503 -0.00000000000E+00 -0.00000000000E+00 -0.25849498173E+02  0.25849498173E+02  0.00000000000E+00 0. -1.
          6    1    1    2  501    0 -0.15516792954E+02 -0.77133002262E+00  0.12950240645E+04  0.13066207152E+04  0.17300000000E+03 0. -1.
         -6    1    1    2    0  503  0.15516792954E+02  0.77133002262E+00  0.35611592344E+03  0.39621826907E+03  0.17300000000E+03 0. -1.
<mgrwt>
<rscale>  2 0.17369619E+03</rscale>
<asrwt>0</asrwt>
<pdfrwt beam="1">  1       21 0.25799830E+00 0.17369619E+03</pdfrwt>
<pdfrwt beam="2">  1       21 0.39768472E-02 0.17369619E+03</pdfrwt>
<totfact> 0.24028220E+04</totfact>
</mgrwt>
</event>
<event>
 4    3  0.4022695E+000  0.2095874E+03  0.7546771E-02  0.1141893E+00
         21   -1    0    0  501  502  0.00000000000E+00  0.00000000000E+00  0.23876063479E+03  0.23876063479E+03  0.00000000000E+00 0.  1.
         21   -1    0    0  502  503 -0.00000000000E+00 -0.00000000000E+00 -0.39661683460E+03  0.39661683460E+03  0.00000000000E+00 0.  1.
          6    1    1    2  501    0 -0.91113474428E+02 -0.75473177767E+02  0.15368643221E+03  0.25989687422E+03  0.17300000000E+03 0.  1.
         -6    1    1    2    0  503  0.91113474428E+02  0.75473177767E+02 -0.31154263202E+03  0.37548059517E+03  0.17300000000E+03 0.  1.
<mgrwt>
<rscale>  2 0.20958737E+03</rscale>
<asrwt>0</asrwt>
<pdfrwt beam="1">  1       21 0.36732406E-01 0.20958737E+03</pdfrwt>
<pdfrwt beam="2">  1       21 0.61017974E-01 0.20958737E+03</pdfrwt>
<totfact> 0.17679291E+04</totfact>
</mgrwt>
</event>
<event>
 4    3  0.4022695E+000  0.1964615E+03  0.7546771E-02  0.1152759E+00
         21   -1    0    0  503  502  0.00000000000E+00  0.00000000000E+00  0.51967277667E+03  0.51967277667E+03  0.00000000000E+00 0. -1.
         21   -1    0    0  501  503 -0.00000000000E+00 -0.00000000000E+00 -0.74366654075E+02  0.74366654075E+02  0.00000000000E+00 0. -1.
          6    1    1    2  501    0  0.32111288979E+02  0.87389893286E+02  0.21205560222E+03  0.28907560734E+03  0.17300000000E+03 0. -1.
         -6    1    1    2    0  502 -0.32111288979E+02 -0.87389893286E+02  0.23325052038E+03  0.30496382340E+03  0.17300000000E+03 0. -1.
<mgrwt>
<rscale>  2 0.19646152E+03</rscale>
<asrwt>0</asrwt>
<pdfrwt beam="1">  1       21 0.79949656E-01 0.19646152E+03</pdfrwt>
<pdfrwt beam="2">  1       21 0.11441024E-01 0.19646152E+03</pdfrwt>
<totfact> 0.87867990E+04</totfact>
</mgrwt>
</event>
<event>
 4    3  0.4022695E+000  0.2042800E+03  0.7546771E-02  0.1146177E+00
         21   -1    0    0  503  502  0.00000000000E+00  0.00000000000E+00  0.26665730916E+03  0.26665730916E+03  0.00000000000E+00 0. -1.
         21   -1    0    0  501  503 -0.00000000000E+00 -0.00000000000E+00 -0.15650210918E+03  0.15650210918E+03  0.00000000000E+00 0.  1.
          6    1    1    2  501    0  0.10576283132E+03  0.24809846880E+02  0.56587859041E+02  0.21197285388E+03  0.17300000000E+03 0. -1.
         -6    1    1    2    0  502 -0.10576283132E+03 -0.24809846880E+02  0.53567340942E+02  0.21118656446E+03  0.17300000000E+03 0.  1.
<mgrwt>
<rscale>  2 0.20427997E+03</rscale>
<asrwt>0</asrwt>
<pdfrwt beam="1">  1       21 0.41024201E-01 0.20427997E+03</pdfrwt>
<pdfrwt beam="2">  1       21 0.24077248E-01 0.20427997E+03</pdfrwt>
<totfact> 0.92679936E+04</totfact>
</mgrwt>
</event>
<event>
 4    3  0.4022695E+000  0.1848132E+03  0.7546771E-02  0.1163224E+00
         21   -1    0    0  501  502  0.00000000000E+00  0.00000000000E+00  0.49322007667E+02  0.49322007667E+02  0.00000000000E+00 0. -1.
         21   -1    0    0  502  503 -0.00000000000E+00 -0.00000000000E+00 -0.79533230135E+03  0.79533230135E+03  0.00000000000E+00 0. -1.
          6    1    1    2  501    0  0.45636065023E+02 -0.46306189637E+02 -0.52485743789E+03  0.55644518485E+03  0.17300000000E+03 0. -1.
         -6    1    1    2    0  503 -0.45636065023E+02  0.46306189637E+02 -0.22115285579E+03  0.28820912417E+03  0.17300000000E+03 0. -1.
<mgrwt>
<rscale>  2 0.18481319E+03</rscale>
<asrwt>0</asrwt>
<pdfrwt beam="1">  1       21 0.75880007E-02 0.18481319E+03</pdfrwt>
<pdfrwt beam="2">  1       21 0.12235882E+00 0.18481319E+03</pdfrwt>
<totfact> 0.66442481E+04</totfact>
</mgrwt>
</event>
<event>
 4    3  0.4022695E+000  0.2001987E+03  0.7546771E-02  0.1149571E+00
         21   -1    0    0  501  502  0.00000000000E+00  0.00000000000E+00  0.25857346853E+03  0.25857346853E+03  0.00000000000E+00 0.  1.
         21   -1    0    0  502  503 -0.00000000000E+00 -0.00000000000E+00 -0.20050991032E+03  0.20050991032E+03  0.00000000000E+00 0. -1.
          6    1    1    2  501    0 -0.79678911308E+02 -0.61658728812E+02  0.13838581845E+03  0.24337247686E+03  0.17300000000E+03 0.  1.
         -6    1    1    2    0  503  0.79678911308E+02  0.61658728812E+02 -0.80322260235E+02  0.21571090199E+03  0.17300000000E+03 0. -1.
<mgrwt>
<rscale>  2 0.20019872E+03</rscale>
<asrwt>0</asrwt>
<pdfrwt beam="1">  1       21 0.39780534E-01 0.20019872E+03</pdfrwt>
<pdfrwt beam="2">  1       21 0.30847678E-01 0.20019872E+03</pdfrwt>
<totfact> 0.61254844E+04</totfact>
</mgrwt>
</event>
<event>
 4    3  0.4022695E+000  0.2779433E+03  0.7546771E-02  0.1096818E+00
         21   -1    0    0  503  502  0.00000000000E+00  0.00000000000E+00  0.12452387702E+03  0.12452387702E+03  0.00000000000E+00 0.  1.
         21   -1    0    0  501  503 -0.00000000000E+00 -0.00000000000E+00 -0.71034525893E+03  0.71034525893E+03  0.00000000000E+00 0. -1.
          6    1    1    2  501    0  0.47612894517E+02 -0.21226509828E+03 -0.44146476102E+03  0.52167383958E+03  0.17300000000E+03 0. -1.
         -6    1    1    2    0  502 -0.47612894517E+02  0.21226509828E+03 -0.14435662088E+03  0.31319529637E+03  0.17300000000E+03 0.  1.
<mgrwt>
<rscale>  2 0.27794327E+03</rscale>
<asrwt>0</asrwt>
<pdfrwt beam="1">  1       21 0.19157520E-01 0.27794327E+03</pdfrwt>
<pdfrwt beam="2">  1       21 0.10928389E+00 0.27794327E+03</pdfrwt>
<totfact> 0.15818005E+04</totfact>
</mgrwt>
</event>
<event>
 4    3  0.4022695E+000  0.1866061E+03  0.7546771E-02  0.1161558E+00
         21   -1    0    0  503  502  0.00000000000E+00  0.00000000000E+00  0.27964520562E+03  0.27964520562E+03  0.00000000000E+00 0. -1.
         21   -1    0    0  501  503 -0.00000000000E+00 -0.00000000000E+00 -0.12641569314E+03  0.12641569314E+03  0.00000000000E+00 0. -1.
          6    1    1    2  501    0 -0.45233647311E+02  0.53355027007E+02  0.51762130262E+02  0.19365216210E+03  0.17300000000E+03 0.  1.
         -6    1    1    2    0  502  0.45233647311E+02 -0.53355027007E+02  0.10146738222E+03  0.21240873666E+03  0.17300000000E+03 0.  1.
<mgrwt>
<rscale>  2 0.18660611E+03</rscale>
<asrwt>0</asrwt>
<pdfrwt beam="1">  1       21 0.43022339E-01 0.18660611E+03</pdfrwt>
<pdfrwt beam="2">  1       21 0.19448568E-01 0.18660611E+03</pdfrwt>
<totfact> 0.12660862E+05</totfact>
</mgrwt>
</event>
<event>
 4    3  0.4022695E+000  0.2032507E+03  0.7546771E-02  0.1147025E+00
         21   -1    0    0  503  502  0.00000000000E+00  0.00000000000E+00  0.24266910820E+02  0.24266910820E+02  0.00000000000E+00 0. -1.
         21   -1    0    0  501  503 -0.00000000000E+00 -0.00000000000E+00 -0.18973704580E+04  0.18973704580E+04  0.00000000000E+00 0.  1.
          6    1    1    2  501    0 -0.10667755388E+03 -0.13146253776E+01 -0.12445888706E+04  0.12610758445E+04  0.17300000000E+03 0. -1.
         -6    1    1    2    0  502  0.10667755388E+03  0.13146253776E+01 -0.62851467652E+03  0.66056152426E+03  0.17300000000E+03 0. -1.
<mgrwt>
<rscale>  2 0.20325065E+03</rscale>
<asrwt>0</asrwt>
<pdfrwt beam="1">  1       21 0.37333708E-02 0.20325065E+03</pdfrwt>
<pdfrwt beam="2">  1       21 0.29190315E+00 0.20325065E+03</pdfrwt>
<totfact> 0.16540891E+04</totfact>
</mgrwt>
</event>
<event>
 4    3  0.4022695E+000  0.2026764E+03  0.7546771E-02  0.1147500E+00
         21   -1    0    0  503  502  0.00000000000E+00  0.00000000000E+00  0.56803220876E+03  0.56803220876E+03  0.00000000000E+00 0.  1.
         21   -1    0    0  501  503 -0.00000000000E+00 -0.00000000000E+00 -0.84358462074E+02  0.84358462074E+02  0.00000000000E+00 0.  1.
          6    1    1    2  501    0 -0.38575032632E+02  0.98288891277E+02  0.11859067366E+03  0.23482224590E+03  0.17300000000E+03 0.  1.
         -6    1    1    2    0  502  0.38575032632E+02 -0.98288891277E+02  0.36508307303E+03  0.41756842493E+03  0.17300000000E+03 0.  1.
<mgrwt>
<rscale>  2 0.20267644E+03</rscale>
<asrwt>0</asrwt>
<pdfrwt beam="1">  1       21 0.87389568E-01 0.20267644E+03</pdfrwt>
<pdfrwt beam="2">  1       21 0.12978225E-01 0.20267644E+03</pdfrwt>
<totfact> 0.57047688E+04</totfact>
</mgrwt>
</event>
<event>
 4    3  0.4022695E+000  0.1787708E+03  0.7546771E-02  0.1168998E+00
         21   -1    0    0  503  502  0.00000000000E+00  0.00000000000E+00  0.72336673092E+02  0.72336673092E+02  0.00000000000E+00 0. -1.
         21   -1    0    0  501  503 -0.00000000000E+00 -0.00000000000E+00 -0.65594742101E+03  0.65594742101E+03  0.00000000000E+00 0.  1.
          6    1    1    2  501    0  0.20130436913E+02 -0.40308438824E+02 -0.49986291013E+03  0.53086903626E+03  0.17300000000E+03 0.  1.
         -6    1    1    2    0  502 -0.20130436913E+02  0.40308438824E+02 -0.83747837787E+02  0.19741505785E+03  0.17300000000E+03 0. -1.
<mgrwt>
<rscale>  2 0.17877082E+03</rscale>
<asrwt>0</asrwt>
<pdfrwt beam="1">  1       21 0.11128719E-01 0.17877082E+03</pdfrwt>
<pdfrwt beam="2">  1       21 0.10091499E+00 0.17877082E+03</pdfrwt>
<totfact> 0.54298225E+04</totfact>
</mgrwt>
</event>
<event>
 4    3  0.4022695E+000  0.2029630E+03  0.7546771E-02  0.1147263E+00
         21   -1    0    0  501  502  0.00000000000E+00  0.00000000000E+00  0.40418598371E+03  0.40418598371E+03  0.00000000000E+00 0. -1.
         21   -1    0    0  502  503 -0.00000000000E+00 -0.00000000000E+00 -0.10450790827E+03  0.10450790827E+03  0.00000000000E+00 0. -1.
          6    1    1    2  501    0  0.70932930013E+02 -0.78952533233E+02  0.18987606120E+03  0.27793326839E+03  0.17300000000E+03 0. -1.
         -6    1    1    2    0  503 -0.70932930013E+02  0.78952533233E+02  0.10980201425E+03  0.23076062358E+03  0.17300000000E+03 0. -1.
<mgrwt>
<rscale>  2 0.20296301E+03</rscale>
<asrwt>0</asrwt>
<pdfrwt beam="1">  1       21 0.62182458E-01 0.20296301E+03</pdfrwt>
<pdfrwt beam="2">  1       21 0.16078140E-01 0.20296301E+03</pdfrwt>
<totfact> 0.82547298E+04</totfact>
</mgrwt>
</event>
<event>
 4    3  0.4022695E+000  0.2150533E+03  0.7546771E-02  0.1137626E+00
         21   -1    0    0  501  502  0.00000000000E+00  0.00000000000E+00  0.85904279119E+03  0.85904279119E+03  0.00000000000E+00 0.  1.
         21   -1    0    0  502  503 -0.00000000000E+00 -0.00000000000E+00 -0.59846801095E+02  0.59846801095E+02  0.00000000000E+00 0.  1.
          6    1    1    2  501    0 -0.12559121677E+03 -0.23361226622E+02  0.54519725075E+03  0.58607844430E+03  0.17300000000E+03 0.  1.
         -6    1    1    2    0  503  0.12559121677E+03  0.23361226622E+02  0.25399873934E+03  0.33281114799E+03  0.17300000000E+03 0.  1.
<mgrwt>
<rscale>  2 0.21505325E+03</rscale>
<asrwt>0</asrwt>
<pdfrwt beam="1">  1       21 0.13216042E+00 0.21505325E+03</pdfrwt>
<pdfrwt beam="2">  1       21 0.92072008E-02 0.21505325E+03</pdfrwt>
<totfact> 0.38425765E+04</totfact>
</mgrwt>
</event>
<event>
 4    3  0.4022695E+000  0.2322782E+03  0.7546771E-02  0.1125046E+00
         21   -1    0    0  501  502  0.00000000000E+00  0.00000000000E+00  0.17287178523E+04  0.17287178523E+04  0.00000000000E+00 0.  1.
         21   -1    0    0  502  503 -0.00000000000E+00 -0.00000000000E+00 -0.31411053957E+02  0.31411053957E+02  0.00000000000E+00 0. -1.
          6    1    1    2  501    0  0.10480837304E+03  0.11419006980E+03  0.91907447693E+03  0.94797207831E+03  0.17300000000E+03 0.  1.
         -6    1    1    2    0  503 -0.10480837304E+03 -0.11419006980E+03  0.77823232143E+03  0.81215682797E+03  0.17300000000E+03 0.  1.
<mgrwt>
<rscale>  2 0.23227821E+03</rscale>
<asrwt>0</asrwt>
<pdfrwt beam="1">  1       21 0.26595652E+00 0.23227821E+03</pdfrwt>
<pdfrwt beam="2">  1       21 0.48324712E-02 0.23227821E+03</pdfrwt>
<totfact> 0.14763465E+04</totfact>
</mgrwt>
</event>
<event>
 4    3  0.4022695E+000  0.2789301E+03  0.7546771E-02  0.1096275E+00
         21   -1    0    0  503  502  0.00000000000E+00  0.00000000000E+00  0.90642915769E+03  0.90642915769E+03  0.00000000000E+00 0. -1.
         21   -1    0    0  501  503 -0.00000000000E+00 -0.00000000000E+00 -0.88001991683E+02  0.88001991683E+02  0.00000000000E+00 0.  1.
          6    1    1    2  501    0  0.21641044139E+03  0.32241596731E+02  0.33116303398E+03  0.43297916206E+03  0.17300000000E+03 0.  1.
         -6    1    1    2    0  502 -0.21641044139E+03 -0.32241596731E+02  0.48726413203E+03  0.56145198732E+03  0.17300000000E+03 0.  1.
<mgrwt>
<rscale>  2 0.27893010E+03</rscale>
<asrwt>0</asrwt>
<pdfrwt beam="1">  1       21 0.13945063E+00 0.27893010E+03</pdfrwt>
<pdfrwt beam="2">  1       21 0.13538769E-01 0.27893010E+03</pdfrwt>
<totfact> 0.16236508E+04</totfact>
</mgrwt>
</event>
<event>
 4    3  0.4022695E+000  0.3164502E+03  0.7546771E-02  0.1077295E+00
         21   -1    0    0  503  502  0.00000000000E+00  0.00000000000E+00  0.11990071962E+03  0.11990071962E+03  0.00000000000E+00 0.  1.
         21   -1    0    0  501  503 -0.00000000000E+00 -0.00000000000E+00 -0.10454314031E+04  0.10454314031E+04  0.00000000000E+00 0. -1.
          6    1    1    2  501    0  0.22149156684E+03  0.14544149186E+03 -0.72405587119E+03  0.79018836130E+03  0.17300000000E+03 0. -1.
         -6    1    1    2    0  502 -0.22149156684E+03 -0.14544149186E+03 -0.20147481227E+03  0.37514376140E+03  0.17300000000E+03 0.  1.
<mgrwt>
<rscale>  2 0.31645022E+03</rscale>
<asrwt>0</asrwt>
<pdfrwt beam="1">  1       21 0.18446265E-01 0.31645022E+03</pdfrwt>
<pdfrwt beam="2">  1       21 0.16083560E+00 0.31645022E+03</pdfrwt>
<totfact> 0.61406217E+03</totfact>
</mgrwt>
</event>
<event>
 4    3  0.4022695E+000  0.1856641E+03  0.7546771E-02  0.1162431E+00
         21   -1    0    0  501  502  0.00000000000E+00  0.00000000000E+00  0.18464189847E+03  0.18464189847E+03  0.00000000000E+00 0. -1.
         21   -1    0    0  502  503 -0.00000000000E+00 -0.00000000000E+00 -0.18743913848E+03  0.18743913848E+03  0.00000000000E+00 0. -1.
          6    1    1    2  501    0  0.64080234359E+02  0.20877898145E+02 -0.13144389768E+02  0.18612882111E+03  0.17300000000E+03 0. -1.
         -6    1    1    2    0  503 -0.64080234359E+02 -0.20877898145E+02  0.10347149750E+02  0.18595221584E+03  0.17300000000E+03 0. -1.
<mgrwt>
<rscale>  2 0.18566411E+03</rscale>
<asrwt>0</asrwt>
<pdfrwt beam="1">  1       21 0.28406446E-01 0.18566411E+03</pdfrwt>
<pdfrwt beam="2">  1       21 0.28836791E-01 0.18566411E+03</pdfrwt>
<totfact> 0.13666788E+05</totfact>
</mgrwt>
</event>
<event>
 4    3  0.4022695E+000  0.2827279E+03  0.7546771E-02  0.1094208E+00
         21   -1    0    0  503  502  0.00000000000E+00  0.00000000000E+00  0.74149667678E+03  0.74149667678E+03  0.00000000000E+00 0. -1.
         21   -1    0    0  501  503 -0.00000000000E+00 -0.00000000000E+00 -0.10803850935E+03  0.10803850935E+03  0.00000000000E+00 0.  1.
          6    1    1    2  501    0 -0.37731510657E+02  0.22041410513E+03  0.29686750343E+03  0.40995775298E+03  0.17300000000E+03 0.  1.
         -6    1    1    2    0  502  0.37731510657E+02 -0.22041410513E+03  0.33659066401E+03  0.43957743315E+03  0.17300000000E+03 0.  1.
<mgrwt>
<rscale>  2 0.28272786E+03</rscale>
<asrwt>0</asrwt>
<pdfrwt beam="1">  1       21 0.11407641E+00 0.28272786E+03</pdfrwt>
<pdfrwt beam="2">  1       21 0.16621310E-01 0.28272786E+03</pdfrwt>
<totfact> 0.18509492E+04</totfact>
</mgrwt>
</event>
<event>
 4    3  0.4022695E+000  0.2227168E+03  0.7546771E-02  0.1131874E+00
         21   -1    0    0  501  502  0.00000000000E+00  0.00000000000E+00  0.22509819091E+03  0.22509819091E+03  0.00000000000E+00 0. -1.
         21   -1    0    0  502  503 -0.00000000000E+00 -0.00000000000E+00 -0.23538040449E+03  0.23538040449E+03  0.00000000000E+00 0.  1.
          6    1    1    2  501    0  0.63128073911E+02 -0.12525426942E+03 -0.63301265646E+02  0.23153797951E+03  0.17300000000E+03 0. -1.
         -6    1    1    2    0  503 -0.63128073911E+02  0.12525426942E+03  0.53019052066E+02  0.22894061589E+03  0.17300000000E+03 0. -1.
<mgrwt>
<rscale>  2 0.22271683E+03</rscale>
<asrwt>0</asrwt>
<pdfrwt beam="1">  1       21 0.34630491E-01 0.22271683E+03</pdfrwt>
<pdfrwt beam="2">  1       21 0.36212370E-01 0.22271683E+03</pdfrwt>
<totfact> 0.58304734E+04</totfact>
</mgrwt>
</event>
<event>
 4    3  0.4022695E+000  0.2184470E+03  0.7546771E-02  0.1135046E+00
         21   -1    0    0  503  502  0.00000000000E+00  0.00000000000E+00  0.36812553256E+03  0.36812553256E+03  0.00000000000E+00 0.  1.
         21   -1    0    0  501  503 -0.00000000000E+00 -0.00000000000E+00 -0.12964468263E+03  0.12964468263E+03  0.00000000000E+00 0. -1.
          6    1    1    2  501    0 -0.63034804101E+02  0.11754451247E+03  0.12212680624E+03  0.25026796787E+03  0.17300000000E+03 0.  1.
         -6    1    1    2    0  502  0.63034804101E+02 -0.11754451247E+03  0.11635404369E+03  0.24750224731E+03  0.17300000000E+03 0. -1.
<mgrwt>
<rscale>  2 0.21844702E+03</rscale>
<asrwt>0</asrwt>
<pdfrwt beam="1">  1       21 0.56634697E-01 0.21844702E+03</pdfrwt>
<pdfrwt beam="2">  1       21 0.19945336E-01 0.21844702E+03</pdfrwt>
<totfact> 0.67238263E+04</totfact>
</mgrwt>
</event>
<event>
 4    3  0.4022695E+000  0.3815942E+03  0.7546771E-02  0.1050346E+00
         21   -1    0    0  503  502  0.00000000000E+00  0.00000000000E+00  0.13048827244E+03  0.13048827244E+03  0.00000000000E+00 0.  1.
         21   -1    0    0  501  503 -0.00000000000E+00 -0.00000000000E+00 -0.11377085199E+04  0.11377085199E+04  0.00000000000E+00 0. -1.
          6    1    1    2  501    0 -0.14013839733E+03 -0.30991347594E+03 -0.59136696461E+03  0.70379614932E+03  0.17300000000E+03 0.  1.
         -6    1    1    2    0  502  0.14013839733E+03  0.30991347594E+03 -0.41585328280E+03  0.56440064298E+03  0.17300000000E+03 0. -1.
<mgrwt>
<rscale>  2 0.38159420E+03</rscale>
<asrwt>0</asrwt>
<pdfrwt beam="1">  1       21 0.20075119E-01 0.38159420E+03</pdfrwt>
<pdfrwt beam="2">  1       21 0.17503208E+00 0.38159420E+03</pdfrwt>
<totfact> 0.40008863E+03</totfact>
</mgrwt>
</event>
<event>
 4    3  0.4022695E+000  0.2199881E+03  0.7546771E-02  0.1133892E+00
         21   -1    0    0  501  502  0.00000000000E+00  0.00000000000E+00  0.32488419411E+03  0.32488419411E+03  0.00000000000E+00 0.  1.
         21   -1    0    0  502  503 -0.00000000000E+00 -0.00000000000E+00 -0.16819973737E+03  0.16819973737E+03  0.00000000000E+00 0.  1.
          6    1    1    2  501    0 -0.10446974572E+03  0.86901290004E+02 -0.50407369913E+01  0.22004583842E+03  0.17300000000E+03 0.  1.
         -6    1    1    2    0  503  0.10446974572E+03 -0.86901290004E+02  0.16172519373E+03  0.27303809306E+03  0.17300000000E+03 0.  1.
<mgrwt>
<rscale>  2 0.21998810E+03</rscale>
<asrwt>0</asrwt>
<pdfrwt beam="1">  1       21 0.49982184E-01 0.21998810E+03</pdfrwt>
<pdfrwt beam="2">  1       21 0.25876883E-01 0.21998810E+03</pdfrwt>
<totfact> 0.53387392E+04</totfact>
</mgrwt>
</event>
<event>
 4    3  0.4022695E+000  0.2345447E+03  0.7546771E-02  0.1123481E+00
         21   -1    0    0  503  502  0.00000000000E+00  0.00000000000E+00  0.11665722378E+04  0.11665722378E+04  0.00000000000E+00 0.  1.
         21   -1    0    0  501  503 -0.00000000000E+00 -0.00000000000E+00 -0.52369822894E+02  0.52369822894E+02  0.00000000000E+00 0.  1.
          6    1    1    2  501    0  0.10729967202E+03 -0.11648601100E+03  0.36480138958E+03  0.43369489761E+03  0.17300000000E+03 0.  1.
         -6    1    1    2    0  502 -0.10729967202E+03  0.11648601100E+03  0.74940102532E+03  0.78524716308E+03  0.17300000000E+03 0.  1.
<mgrwt>
<rscale>  2 0.23454469E+03</rscale>
<asrwt>0</asrwt>
<pdfrwt beam="1">  1       21 0.17947263E+00 0.23454469E+03</pdfrwt>
<pdfrwt beam="2">  1       21 0.80568967E-02 0.23454469E+03</pdfrwt>
<totfact> 0.21143836E+04</totfact>
</mgrwt>
</event>
<event>
 4    3  0.4022695E+000  0.2633647E+03  0.7546771E-02  0.1105138E+00
         21   -1    0    0  503  502  0.00000000000E+00  0.00000000000E+00  0.38321243737E+03  0.38321243737E+03  0.00000000000E+00 0. -1.
         21   -1    0    0  501  503 -0.00000000000E+00 -0.00000000000E+00 -0.18560138128E+03  0.18560138128E+03  0.00000000000E+00 0. -1.
          6    1    1    2  501    0  0.17463099923E+03 -0.94530247095E+02  0.14359283281E+03  0.29996642336E+03  0.17300000000E+03 0. -1.
         -6    1    1    2    0  502 -0.17463099923E+03  0.94530247095E+02  0.54018223273E+02  0.26884739529E+03  0.17300000000E+03 0. -1.
<mgrwt>
<rscale>  2 0.26336468E+03</rscale>
<asrwt>0</asrwt>
<pdfrwt beam="1">  1       21 0.58955759E-01 0.26336468E+03</pdfrwt>
<pdfrwt beam="2">  1       21 0.28554059E-01 0.26336468E+03</pdfrwt>
<totfact> 0.30493756E+04</totfact>
</mgrwt>
</event>
<event>
 4    3  0.4022695E+000  0.1803034E+03  0.7546771E-02  0.1167510E+00
         21   -1    0    0  501  502  0.00000000000E+00  0.00000000000E+00  0.17714266400E+03  0.17714266400E+03  0.00000000000E+00 0.  1.
         21   -1    0    0  502  503 -0.00000000000E+00 -0.00000000000E+00 -0.28701103021E+03  0.28701103021E+03  0.00000000000E+00 0.  1.
          6    1    1    2  501    0  0.26468119417E+02  0.43356142442E+02  0.84424089640E+02  0.19908978714E+03  0.17300000000E+03 0.  1.
         -6    1    1    2    0  503 -0.26468119417E+02 -0.43356142442E+02 -0.19429245585E+03  0.26506390707E+03  0.17300000000E+03 0.  1.
<mgrwt>
<rscale>  2 0.18030340E+03</rscale>
<asrwt>0</asrwt>
<pdfrwt beam="1">  1       21 0.27252718E-01 0.18030340E+03</pdfrwt>
<pdfrwt beam="2">  1       21 0.44155543E-01 0.18030340E+03</pdfrwt>
<totfact> 0.63581766E+04</totfact>
</mgrwt>
</event>
<event>
 4    3  0.4022695E+000  0.1908288E+03  0.7546771E-02  0.1157716E+00
         21   -1    0    0  501  502  0.00000000000E+00  0.00000000000E+00  0.55423673674E+02  0.55423673674E+02  0.00000000000E+00 0. -1.
         21   -1    0    0  502  503 -0.00000000000E+00 -0.00000000000E+00 -0.86140689946E+03  0.86140689946E+03  0.00000000000E+00 0. -1.
          6    1    1    2  501    0 -0.78979586459E+02  0.15775240464E+02 -0.17970689822E+03  0.26212631031E+03  0.17300000000E+03 0. -1.
         -6    1    1    2    0  503  0.78979586459E+02 -0.15775240464E+02 -0.62627632757E+03  0.65470426282E+03  0.17300000000E+03 0. -1.
<mgrwt>
<rscale>  2 0.19082881E+03</rscale>
<asrwt>0</asrwt>
<pdfrwt beam="1">  1       21 0.85267188E-02 0.19082881E+03</pdfrwt>
<pdfrwt beam="2">  1       21 0.13252414E+00 0.19082881E+03</pdfrwt>
<totfact> 0.44254275E+04</totfact>
</mgrwt>
</event>
<event>
 4    3  0.4022695E+000  0.1861630E+03  0.7546771E-02  0.1161968E+00
         21   -1    0    0  501  502  0.00000000000E+00  0.00000000000E+00  0.44596977383E+03  0.44596977383E+03  0.00000000000E+00 0. -1.
         21   -1    0    0  502  503 -0.00000000000E+00 -0.00000000000E+00 -0.21774013302E+03  0.21774013302E+03  0.00000000000E+00 0. -1.
          6    1    1    2  501    0  0.98157072684E+01  0.68053735207E+02  0.38024161537E+03  0.42336786019E+03  0.17300000000E+03 0. -1.
         -6    1    1    2    0  503 -0.98157072684E+01 -0.68053735207E+02 -0.15201197456E+03  0.24034204666E+03  0.17300000000E+03 0. -1.
<mgrwt>
<rscale>  2 0.18616299E+03</rscale>
<asrwt>0</asrwt>
<pdfrwt beam="1">  1       21 0.68610734E-01 0.18616299E+03</pdfrwt>
<pdfrwt beam="2">  1       21 0.33498482E-01 0.18616299E+03</pdfrwt>
<totfact> 0.16687854E+04</totfact>
</mgrwt>
</event>
<event>
 4    3  0.4022695E+000  0.2354389E+03  0.7546771E-02  0.1122869E+00
         21   -1    0    0  501  502  0.00000000000E+00  0.00000000000E+00  0.10870224299E+03  0.10870224299E+03  0.00000000000E+00 0. -1.
         21   -1    0    0  502  503 -0.00000000000E+00 -0.00000000000E+00 -0.79071345405E+03  0.79071345405E+03  0.00000000000E+00 0. -1.
          6    1    1    2  501    0  0.14528131294E+03 -0.66301029817E+02 -0.60898406629E+03  0.65291123396E+03  0.17300000000E+03 0. -1.
         -6    1    1    2    0  503 -0.14528131294E+03  0.66301029817E+02 -0.73027144780E+02  0.24650446308E+03  0.17300000000E+03 0. -1.
<mgrwt>
<rscale>  2 0.23543892E+03</rscale>
<asrwt>0</asrwt>
<pdfrwt beam="1">  1       21 0.16723422E-01 0.23543892E+03</pdfrwt>
<pdfrwt beam="2">  1       21 0.12164822E+00 0.23543892E+03</pdfrwt>
<totfact> 0.15980595E+04</totfact>
</mgrwt>
</event>
<event>
 4    3  0.4022695E+000  0.1864067E+03  0.7546771E-02  0.1161743E+00
         21   -1    0    0  503  502  0.00000000000E+00  0.00000000000E+00  0.46816596681E+03  0.46816596681E+03  0.00000000000E+00 0.  1.
         21   -1    0    0  501  503 -0.00000000000E+00 -0.00000000000E+00 -0.99396910756E+02  0.99396910756E+02  0.00000000000E+00 0.  1.
          6    1    1    2  501    0  0.59892012108E+02 -0.35091521594E+02  0.41562477585E+02  0.19098405050E+03  0.17300000000E+03 0.  1.
         -6    1    1    2    0  502 -0.59892012108E+02  0.35091521594E+02  0.32720657847E+03  0.37657882706E+03  0.17300000000E+03 0.  1.
<mgrwt>
<rscale>  2 0.18640673E+03</rscale>
<asrwt>0</asrwt>
<pdfrwt beam="1">  1       21 0.72025532E-01 0.18640673E+03</pdfrwt>
<pdfrwt beam="2">  1       21 0.15291833E-01 0.18640673E+03</pdfrwt>
<totfact> 0.66071636E+04</totfact>
</mgrwt>
</event>
<event>
 4    3  0.4022695E+000  0.2370396E+03  0.7546771E-02  0.1121781E+00
         21   -1    0    0  501  502  0.00000000000E+00  0.00000000000E+00  0.44511795560E+03  0.44511795560E+03  0.00000000000E+00 0.  1.
         21   -1    0    0  502  503 -0.00000000000E+00 -0.00000000000E+00 -0.27582522334E+03  0.27582522334E+03  0.00000000000E+00 0. -1.
          6    1    1    2  501    0  0.87609610983E+02 -0.13632069518E+03  0.35011374788E+03  0.42280895488E+03  0.17300000000E+03 0.  1.
         -6    1    1    2    0  503 -0.87609610983E+02  0.13632069518E+03 -0.18082101561E+03  0.29813422406E+03  0.17300000000E+03 0. -1.
<mgrwt>
<rscale>  2 0.23703961E+03</rscale>
<asrwt>0</asrwt>
<pdfrwt beam="1">  1       21 0.68479685E-01 0.23703961E+03</pdfrwt>
<pdfrwt beam="2">  1       21 0.42434650E-01 0.23703961E+03</pdfrwt>
<totfact> 0.10098365E+04</totfact>
</mgrwt>
</event>
<event>
 4    3  0.4022695E+000  0.2169398E+03  0.7546771E-02  0.1136185E+00
         21   -1    0    0  503  502  0.00000000000E+00  0.00000000000E+00  0.22553134136E+03  0.22553134136E+03  0.00000000000E+00 0. -1.
         21   -1    0    0  501  503 -0.00000000000E+00 -0.00000000000E+00 -0.22384658169E+03  0.22384658169E+03  0.00000000000E+00 0.  1.
          6    1    1    2  501    0 -0.50025473035E+02 -0.12096002344E+03 -0.57652001920E+02  0.22446966064E+03  0.17300000000E+03 0.  1.
         -6    1    1    2    0  502  0.50025473035E+02  0.12096002344E+03  0.59336761584E+02  0.22490826241E+03  0.17300000000E+03 0. -1.
<mgrwt>
<rscale>  2 0.21693980E+03</rscale>
<asrwt>0</asrwt>
<pdfrwt beam="1">  1       21 0.34697130E-01 0.21693980E+03</pdfrwt>
<pdfrwt beam="2">  1       21 0.34437935E-01 0.21693980E+03</pdfrwt>
<totfact> 0.64358675E+04</totfact>
</mgrwt>
</event>
<event>
 4    3  0.4022695E+000  0.2122872E+03  0.7546771E-02  0.1139767E+00
         21   -1    0    0  503  502  0.00000000000E+00  0.00000000000E+00  0.14263748757E+03  0.14263748757E+03  0.00000000000E+00 0. -1.
         21   -1    0    0  501  503 -0.00000000000E+00 -0.00000000000E+00 -0.43328896840E+03  0.43328896840E+03  0.00000000000E+00 0. -1.
          6    1    1    2  501    0  0.12228812339E+03  0.13508633940E+02 -0.29518208509E+03  0.36359088502E+03  0.17300000000E+03 0. -1.
         -6    1    1    2    0  502 -0.12228812339E+03 -0.13508633940E+02  0.45306042588E+01  0.21233557095E+03  0.17300000000E+03 0. -1.
<mgrwt>
<rscale>  2 0.21228723E+03</rscale>
<asrwt>0</asrwt>
<pdfrwt beam="1">  1       21 0.21944229E-01 0.21228723E+03</pdfrwt>
<pdfrwt beam="2">  1       21 0.66659840E-01 0.21228723E+03</pdfrwt>
<totfact> 0.39608815E+04</totfact>
</mgrwt>
</event>
<event>
 4    3  0.4022695E+000  0.2625944E+03  0.7546771E-02  0.1105594E+00
         21   -1    0    0  501  502  0.00000000000E+00  0.00000000000E+00  0.10627926069E+03  0.10627926069E+03  0.00000000000E+00 0.  1.
         21   -1    0    0  502  503 -0.00000000000E+00 -0.00000000000E+00 -0.90352023420E+03  0.90352023420E+03  0.00000000000E+00 0. -1.
          6    1    1    2  501    0 -0.98378491977E+02 -0.17131401949E+03 -0.13054740800E+03  0.29325491759E+03  0.17300000000E+03 0.  1.
         -6    1    1    2    0  503  0.98378491977E+02  0.17131401949E+03 -0.66669356552E+03  0.71654457730E+03  0.17300000000E+03 0. -1.
<mgrwt>
<rscale>  2 0.26259440E+03</rscale>
<asrwt>0</asrwt>
<pdfrwt beam="1">  1       21 0.16350655E-01 0.26259440E+03</pdfrwt>
<pdfrwt beam="2">  1       21 0.13900312E+00 0.26259440E+03</pdfrwt>
<totfact> 0.11682115E+04</totfact>
</mgrwt>
</event>
<event>
 4    3  0.4022695E+000  0.2777101E+03  0.7546771E-02  0.1096946E+00
         21   -1    0    0  501  502  0.00000000000E+00  0.00000000000E+00  0.16656279805E+03  0.16656279805E+03  0.00000000000E+00 0. -1.
         21   -1    0    0  502  503 -0.00000000000E+00 -0.00000000000E+00 -0.73384941170E+03  0.73384941170E+03  0.00000000000E+00 0.  1.
          6    1    1    2  501    0  0.31161748629E+02 -0.21499496511E+03 -0.10147239047E+02  0.27789540489E+03  0.17300000000E+03 0. -1.
         -6    1    1    2    0  503 -0.31161748629E+02  0.21499496511E+03 -0.55713937460E+03  0.62251680486E+03  0.17300000000E+03 0.  1.
<mgrwt>
<rscale>  2 0.27771008E+03</rscale>
<asrwt>0</asrwt>
<pdfrwt beam="1">  1       21 0.25625046E-01 0.27771008E+03</pdfrwt>
<pdfrwt beam="2">  1       21 0.11289991E+00 0.27771008E+03</pdfrwt>
<totfact> 0.83980089E+03</totfact>
</mgrwt>
</event>
<event>
 4    3  0.4022695E+000  0.2880378E+03  0.7546771E-02  0.1091378E+00
         21   -1    0    0  501  502  0.00000000000E+00  0.00000000000E+00  0.52181565175E+03  0.52181565175E+03  0.00000000000E+00 0. -1.
         21   -1    0    0  502  503 -0.00000000000E+00 -0.00000000000E+00 -0.15978580935E+03  0.15978580935E+03  0.00000000000E+00 0.  1.
          6    1    1    2  501    0  0.11689439521E+03  0.19842500911E+03  0.15703085317E+03  0.32806169042E+03  0.17300000000E+03 0.  1.
         -6    1    1    2    0  503 -0.11689439521E+03 -0.19842500911E+03  0.20499898923E+03  0.35353977068E+03  0.17300000000E+03 0. -1.
<mgrwt>
<rscale>  2 0.28803782E+03</rscale>
<asrwt>0</asrwt>
<pdfrwt beam="1">  1       21 0.80279330E-01 0.28803782E+03</pdfrwt>
<pdfrwt beam="2">  1       21 0.24582432E-01 0.28803782E+03</pdfrwt>
<totfact> 0.20330057E+04</totfact>
</mgrwt>
</event>
<event>
 4    3  0.4022695E+000  0.1809401E+03  0.7546771E-02  0.1166896E+00
         21   -1    0    0  503  502  0.00000000000E+00  0.00000000000E+00  0.61082021584E+03  0.61082021584E+03  0.00000000000E+00 0.  1.
         21   -1    0    0  501  503 -0.00000000000E+00 -0.00000000000E+00 -0.57120033517E+02  0.57120033517E+02  0.00000000000E+00 0.  1.
          6    1    1    2  501    0 -0.21530773985E+02 -0.48443326974E+02  0.35976846045E+03  0.40270668642E+03  0.17300000000E+03 0. -1.
         -6    1    1    2    0  502  0.21530773985E+02  0.48443326974E+02  0.19393172187E+03  0.26523356293E+03  0.17300000000E+03 0. -1.
<mgrwt>
<rscale>  2 0.18094013E+03</rscale>
<asrwt>0</asrwt>
<pdfrwt beam="1">  1       21 0.93972336E-01 0.18094013E+03</pdfrwt>
<pdfrwt beam="2">  1       21 0.87876979E-02 0.18094013E+03</pdfrwt>
<totfact> 0.97248797E+04</totfact>
</mgrwt>
</event>
<event>
 4    3  0.4022695E+000  0.1903205E+03  0.7546771E-02  0.1158173E+00
         21   -1    0    0  501  502  0.00000000000E+00  0.00000000000E+00  0.94197632178E+03  0.94197632178E+03  0.00000000000E+00 0. -1.
         21   -1    0    0  502  503 -0.00000000000E+00 -0.00000000000E+00 -0.45133851701E+02  0.45133851701E+02  0.00000000000E+00 0.  1.
          6    1    1    2  501    0 -0.78962947496E+02  0.75999936276E+01  0.63830909181E+03  0.66607837652E+03  0.17300000000E+03 0. -1.
         -6    1    1    2    0  503  0.78962947496E+02 -0.75999936276E+01  0.25853337827E+03  0.32103179696E+03  0.17300000000E+03 0.  1.
<mgrwt>
<rscale>  2 0.19032054E+03</rscale>
<asrwt>0</asrwt>
<pdfrwt beam="1">  1       21 0.14491942E+00 0.19032054E+03</pdfrwt>
<pdfrwt beam="2">  1       21 0.69436702E-02 0.19032054E+03</pdfrwt>
<totfact> 0.50245724E+04</totfact>
</mgrwt>
</event>
<event>
 4    3  0.4022695E+000  0.1866719E+03  0.7546771E-02  0.1161498E+00
         21   -1    0    0  501  502  0.00000000000E+00  0.00000000000E+00  0.11538002312E+04  0.11538002312E+04  0.00000000000E+00 0. -1.
         21   -1    0    0  502  503 -0.00000000000E+00 -0.00000000000E+00 -0.38547992988E+02  0.38547992988E+02  0.00000000000E+00 0.  1.
          6    1    1    2  501    0 -0.68732861135E+02  0.13898820016E+02  0.83503912704E+03  0.85564988581E+03  0.17300000000E+03 0. -1.
         -6    1    1    2    0  503  0.68732861135E+02 -0.13898820016E+02  0.28021311120E+03  0.33669833841E+03  0.17300000000E+03 0.  1.
<mgrwt>
<rscale>  2 0.18667186E+03</rscale>
<asrwt>0</asrwt>
<pdfrwt beam="1">  1       21 0.17750770E+00 0.18667186E+03</pdfrwt>
<pdfrwt beam="2">  1       21 0.59304613E-02 0.18667186E+03</pdfrwt>
<totfact> 0.38211287E+04</totfact>
</mgrwt>
</event>
<event>
 4    3  0.4022695E+000  0.2217114E+03  0.7546771E-02  0.1132614E+00
         21   -1    0    0  501  502  0.00000000000E+00  0.00000000000E+00  0.98361009654E+02  0.98361009654E+02  0.00000000000E+00 0.  1.
         21   -1    0    0  502  503 -0.00000000000E+00 -0.00000000000E+00 -0.10032235298E+04  0.10032235298E+04  0.00000000000E+00 0.  1.
          6    1    1    2  501    0  0.12718809691E+03 -0.55228041520E+02 -0.62240344693E+02  0.23028202073E+03  0.17300000000E+03 0.  1.
         -6    1    1    2    0  503 -0.12718809691E+03  0.55228041520E+02 -0.84262217550E+03  0.87130251876E+03  0.17300000000E+03 0.  1.
<mgrwt>
<rscale>  2 0.22171141E+03</rscale>
<asrwt>0</asrwt>
<pdfrwt beam="1">  1       21 0.15132463E-01 0.22171141E+03</pdfrwt>
<pdfrwt beam="2">  1       21 0.15434208E+00 0.22171141E+03</pdfrwt>
<totfact> 0.10476632E+04</totfact>
</mgrwt>
</event>
<event>
 4    3  0.4022695E+000  0.1855972E+03  0.7546771E-02  0.1162493E+00
         21   -1    0    0  503  502  0.00000000000E+00  0.00000000000E+00  0.24670495756E+03  0.24670495756E+03  0.00000000000E+00 0.  1.
         21   -1    0    0  501  503 -0.00000000000E+00 -0.00000000000E+00 -0.14051395136E+03  0.14051395136E+03  0.00000000000E+00 0.  1.
          6    1    1    2  501    0  0.14744419038E+02  0.65573657138E+02  0.37700339497E+02  0.18938748111E+03  0.17300000000E+03 0.  1.
         -6    1    1    2    0  502 -0.14744419038E+02 -0.65573657138E+02  0.68490666700E+02  0.19783142781E+03  0.17300000000E+03 0.  1.
<mgrwt>
<rscale>  2 0.18559715E+03</rscale>
<asrwt>0</asrwt>
<pdfrwt beam="1">  1       21 0.37954609E-01 0.18559715E+03</pdfrwt>
<pdfrwt beam="2">  1       21 0.21617531E-01 0.18559715E+03</pdfrwt>
<totfact> 0.13388351E+05</totfact>
</mgrwt>
</event>
<event>
 4    3  0.4022695E+000  0.1835723E+03  0.7546771E-02  0.1164390E+00
         21   -1    0    0  503  502  0.00000000000E+00  0.00000000000E+00  0.39218072658E+02  0.39218072658E+02  0.00000000000E+00 0. -1.
         21   -1    0    0  501  503 -0.00000000000E+00 -0.00000000000E+00 -0.97184587556E+03  0.97184587556E+03  0.00000000000E+00 0. -1.
          6    1    1    2  501    0 -0.47564242673E+02  0.38825499633E+02 -0.63837366464E+03  0.66424371454E+03  0.17300000000E+03 0.  1.
         -6    1    1    2    0  502  0.47564242673E+02 -0.38825499633E+02 -0.29425413826E+03  0.34682023367E+03  0.17300000000E+03 0.  1.
<mgrwt>
<rscale>  2 0.18357227E+03</rscale>
<asrwt>0</asrwt>
<pdfrwt beam="1">  1       21 0.60335493E-02 0.18357227E+03</pdfrwt>
<pdfrwt beam="2">  1       21 0.14951476E+00 0.18357227E+03</pdfrwt>
<totfact> 0.59164965E+04</totfact>
</mgrwt>
</event>
<event>
 4    3  0.4022695E+000  0.2105003E+03  0.7546771E-02  0.1141170E+00
         21   -1    0    0  501  502  0.00000000000E+00  0.00000000000E+00  0.42533741728E+03  0.42533741728E+03  0.00000000000E+00 0. -1.
         21   -1    0    0  502  503 -0.00000000000E+00 -0.00000000000E+00 -0.12155233705E+03  0.12155233705E+03  0.00000000000E+00 0. -1.
          6    1    1    2  501    0  0.86389182769E+02 -0.83176126150E+02  0.48508080770E+02  0.21601711219E+03  0.17300000000E+03 0. -1.
         -6    1    1    2    0  503 -0.86389182769E+02  0.83176126150E+02  0.25527699946E+03  0.33087264213E+03  0.17300000000E+03 0. -1.
<mgrwt>
<rscale>  2 0.21050026E+03</rscale>
<asrwt>0</asrwt>
<pdfrwt beam="1">  1       21 0.65436525E-01 0.21050026E+03</pdfrwt>
<pdfrwt beam="2">  1       21 0.18700360E-01 0.21050026E+03</pdfrwt>
<totfact> 0.55714894E+04</totfact>
</mgrwt>
</event>
<event>
 4    3  0.4022695E+000  0.2336867E+03  0.7546771E-02  0.1124072E+00
         21   -1    0    0  501  502  0.00000000000E+00  0.00000000000E+00  0.90692032917E+02  0.90692032917E+02  0.00000000000E+00 0.  1.
         21   -1    0    0  502  503 -0.00000000000E+00 -0.00000000000E+00 -0.60362346397E+03  0.60362346397E+03  0.00000000000E+00 0. -1.
          6    1    1    2  501    0 -0.14637580009E+03  0.57048925259E+02 -0.27366591824E+03  0.35986454331E+03  0.17300000000E+03 0.  1.
         -6    1    1    2    0  503  0.14637580009E+03 -0.57048925259E+02 -0.23926551281E+03  0.33445095358E+03  0.17300000000E+03 0.  1.
<mgrwt>
<rscale>  2 0.23368666E+03</rscale>
<asrwt>0</asrwt>
<pdfrwt beam="1">  1       21 0.13952620E-01 0.23368666E+03</pdfrwt>
<pdfrwt beam="2">  1       21 0.92865150E-01 0.23368666E+03</pdfrwt>
<totfact> 0.42820376E+04</totfact>
</mgrwt>
</event>
<event>
 4    3  0.4022695E+000  0.1737148E+03  0.7546771E-02  0.1174028E+00
         21   -1    0    0  501  502  0.00000000000E+00  0.00000000000E+00  0.13125116030E+03  0.13125116030E+03  0.00000000000E+00 0. -1.
         21   -1    0    0  502  503 -0.00000000000E+00 -0.00000000000E+00 -0.13207342875E+04  0.13207342875E+04  0.00000000000E+00 0. -1.
          6    1    1    2  501    0 -0.34545059435E+01  0.15358640000E+02  0.65040684038E+02  0.18549154162E+03  0.17300000000E+03 0. -1.
         -6    1    1    2    0  503  0.34545059435E+01 -0.15358640000E+02 -0.12545238112E+04  0.12664939061E+04  0.17300000000E+03 0. -1.
<mgrwt>
<rscale>  2 0.17371477E+03</rscale>
<asrwt>0</asrwt>
<pdfrwt beam="1">  1       21 0.20192486E-01 0.17371477E+03</pdfrwt>
<pdfrwt beam="2">  1       21 0.20318989E+00 0.17371477E+03</pdfrwt>
<totfact> 0.29625459E+03</totfact>
</mgrwt>
</event>
<event>
 4    3  0.4022695E+000  0.2261430E+03  0.7546771E-02  0.1129384E+00
         21   -1    0    0  501  502  0.00000000000E+00  0.00000000000E+00  0.66044354866E+03  0.66044354866E+03  0.00000000000E+00 0.  1.
         21   -1    0    0  502  503 -0.00000000000E+00 -0.00000000000E+00 -0.77444216948E+02  0.77444216948E+02  0.00000000000E+00 0. -1.
          6    1    1    2  501    0  0.30198091736E+02 -0.14247706270E+03  0.28721590432E+03  0.36555931644E+03  0.17300000000E+03 0.  1.
         -6    1    1    2    0  503 -0.30198091736E+02  0.14247706270E+03  0.29578342739E+03  0.37232844917E+03  0.17300000000E+03 0.  1.
<mgrwt>
<rscale>  2 0.22614296E+03</rscale>
<asrwt>0</asrwt>
<pdfrwt beam="1">  1       21 0.10160670E+00 0.22614296E+03</pdfrwt>
<pdfrwt beam="2">  1       21 0.11914495E-01 0.22614296E+03</pdfrwt>
<totfact> 0.46194291E+04</totfact>
</mgrwt>
</event>
<event>
 4    3  0.4022695E+000  0.1764808E+03  0.7546771E-02  0.1171253E+00
         21   -1    0    0  501  502  0.00000000000E+00  0.00000000000E+00  0.67679621083E+03  0.67679621083E+03  0.00000000000E+00 0. -1.
         21   -1    0    0  502  503 -0.00000000000E+00 -0.00000000000E+00 -0.97975273833E+02  0.97975273833E+02  0.00000000000E+00 0. -1.
          6    1    1    2  501    0  0.22012466408E+02  0.27053967456E+02  0.57151139037E+03  0.59813939441E+03  0.17300000000E+03 0. -1.
         -6    1    1    2    0  503 -0.22012466408E+02 -0.27053967456E+02  0.73095466274E+01  0.17663209025E+03  0.17300000000E+03 0. -1.
<mgrwt>
<rscale>  2 0.17648078E+03</rscale>
<asrwt>0</asrwt>
<pdfrwt beam="1">  1       21 0.10412249E+00 0.17648078E+03</pdfrwt>
<pdfrwt beam="2">  1       21 0.15073119E-01 0.17648078E+03</pdfrwt>
<totfact> 0.29257597E+04</totfact>
</mgrwt>
</event>
<event>
 4    3  0.4022695E+000  0.2635297E+03  0.7546771E-02  0.1105041E+00
         21   -1    0    0  501  502  0.00000000000E+00  0.00000000000E+00  0.15868422236E+03  0.15868422236E+03  0.00000000000E+00 0.  1.
         21   -1    0    0  502  503 -0.00000000000E+00 -0.00000000000E+00 -0.85343818108E+03  0.85343818108E+03  0.00000000000E+00 0.  1.
          6    1    1    2  501    0 -0.74323017280E+02 -0.18437731882E+03  0.58500095489E+01  0.26359463045E+03  0.17300000000E+03 0.  1.
         -6    1    1    2    0  503  0.74323017280E+02  0.18437731882E+03 -0.70060396827E+03  0.74852777299E+03  0.17300000000E+03 0.  1.
<mgrwt>
<rscale>  2 0.26352971E+03</rscale>
<asrwt>0</asrwt>
<pdfrwt beam="1">  1       21 0.24412958E-01 0.26352971E+03</pdfrwt>
<pdfrwt beam="2">  1       21 0.13129818E+00 0.26352971E+03</pdfrwt>
<totfact> 0.63617354E+03</totfact>
</mgrwt>
</event>
<event>
 4    3  0.4022695E+000  0.1823652E+03  0.7546771E-02  0.1165533E+00
         21   -1    0    0  503  502  0.00000000000E+00  0.00000000000E+00  0.32261372770E+03  0.32261372770E+03  0.00000000000E+00 0. -1.
         21   -1    0    0  501  503 -0.00000000000E+00 -0.00000000000E+00 -0.11594886314E+03  0.11594886314E+03  0.00000000000E+00 0. -1.
          6    1    1    2  501    0 -0.56131861044E+02 -0.13315334870E+02  0.30297503209E+02  0.18486487678E+03  0.17300000000E+03 0. -1.
         -6    1    1    2    0  502  0.56131861044E+02  0.13315334870E+02  0.17636736135E+03  0.25369771406E+03  0.17300000000E+03 0. -1.
<mgrwt>
<rscale>  2 0.18236525E+03</rscale>
<asrwt>0</asrwt>
<pdfrwt beam="1">  1       21 0.49632881E-01 0.18236525E+03</pdfrwt>
<pdfrwt beam="2">  1       21 0.17838287E-01 0.18236525E+03</pdfrwt>
<totfact> 0.11087750E+05</totfact>
</mgrwt>
</event>
<event>
 4    3  0.4022695E+000  0.2178754E+03  0.7546771E-02  0.1135477E+00
         21   -1    0    0  503  502  0.00000000000E+00  0.00000000000E+00  0.70025685208E+03  0.70025685208E+03  0.00000000000E+00 0.  1.
         21   -1    0    0  501  503 -0.00000000000E+00 -0.00000000000E+00 -0.74856778822E+02  0.74856778822E+02  0.00000000000E+00 0. -1.
          6    1    1    2  501    0 -0.13185668719E+03 -0.12429184950E+02  0.19361338296E+03  0.29147180422E+03  0.17300000000E+03 0.  1.
         -6    1    1    2    0  502  0.13185668719E+03  0.12429184950E+02  0.43178669030E+03  0.48364182668E+03  0.17300000000E+03 0.  1.
<mgrwt>
<rscale>  2 0.21787536E+03</rscale>
<asrwt>0</asrwt>
<pdfrwt beam="1">  1       21 0.10773182E+00 0.21787536E+03</pdfrwt>
<pdfrwt beam="2">  1       21 0.11516428E-01 0.21787536E+03</pdfrwt>
<totfact> 0.42806909E+04</totfact>
</mgrwt>
</event>
<event>
 4    3  0.4022695E+000  0.3237931E+03  0.7546771E-02  0.1073917E+00
         21   -1    0    0  501  502  0.00000000000E+00  0.00000000000E+00  0.10114147979E+03  0.10114147979E+03  0.00000000000E+00 0. -1.
         21   -1    0    0  502  503 -0.00000000000E+00 -0.00000000000E+00 -0.11800497974E+04  0.11800497974E+04  0.00000000000E+00 0. -1.
          6    1    1    2  501    0 -0.15007741581E+03  0.22888803218E+03 -0.31609530373E+03  0.45250215807E+03  0.17300000000E+03 0. -1.
         -6    1    1    2    0  503  0.15007741581E+03 -0.22888803218E+03 -0.76281301389E+03  0.82868911914E+03  0.17300000000E+03 0. -1.
<mgrwt>
<rscale>  2 0.32379309E+03</rscale>
<asrwt>0</asrwt>
<pdfrwt beam="1">  1       21 0.15560228E-01 0.32379309E+03</pdfrwt>
<pdfrwt beam="2">  1       21 0.18154612E+00 0.32379309E+03</pdfrwt>
<totfact> 0.59657672E+03</totfact>
</mgrwt>
</event>
<event>
 4    3  0.4022695E+000  0.2434555E+03  0.7546771E-02  0.1117512E+00
         21   -1    0    0  503  502  0.00000000000E+00  0.00000000000E+00  0.28959927084E+03  0.28959927084E+03  0.00000000000E+00 0. -1.
         21   -1    0    0  501  503 -0.00000000000E+00 -0.00000000000E+00 -0.20685386607E+03  0.20685386607E+03  0.00000000000E+00 0. -1.
          6    1    1    2  501    0  0.11391958947E+03  0.12792157468E+03  0.15833595061E+02  0.24396988516E+03  0.17300000000E+03 0. -1.
         -6    1    1    2    0  502 -0.11391958947E+03 -0.12792157468E+03  0.66911809714E+02  0.25248325175E+03  0.17300000000E+03 0. -1.
<mgrwt>
<rscale>  2 0.24345554E+03</rscale>
<asrwt>0</asrwt>
<pdfrwt beam="1">  1       21 0.44553734E-01 0.24345554E+03</pdfrwt>
<pdfrwt beam="2">  1       21 0.31823672E-01 0.24345554E+03</pdfrwt>
<totfact> 0.44855783E+04</totfact>
</mgrwt>
</event>
<event>
 4    3  0.4022695E+000  0.1819250E+03  0.7546771E-02  0.1165953E+00
         21   -1    0    0  503  502  0.00000000000E+00  0.00000000000E+00  0.69577682895E+02  0.69577682895E+02  0.00000000000E+00 0. -1.
         21   -1    0    0  501  503 -0.00000000000E+00 -0.00000000000E+00 -0.10281774261E+04  0.10281774261E+04  0.00000000000E+00 0. -1.
          6    1    1    2  501    0  0.52697613814E+02  0.19765124592E+02 -0.88165231692E+03  0.90022636408E+03  0.17300000000E+03 0. -1.
         -6    1    1    2    0  502 -0.52697613814E+02 -0.19765124592E+02 -0.76947426266E+02  0.19752874490E+03  0.17300000000E+03 0. -1.
<mgrwt>
<rscale>  2 0.18192498E+03</rscale>
<asrwt>0</asrwt>
<pdfrwt beam="1">  1       21 0.10704260E-01 0.18192498E+03</pdfrwt>
<pdfrwt beam="2">  1       21 0.15818112E+00 0.18192498E+03</pdfrwt>
<totfact> 0.18811135E+04</totfact>
</mgrwt>
</event>
<event>
 4    3  0.4022695E+000  0.1904195E+03  0.7546771E-02  0.1158084E+00
         21   -1    0    0  501  502  0.00000000000E+00  0.00000000000E+00  0.34764063497E+03  0.34764063497E+03  0.00000000000E+00 0. -1.
         21   -1    0    0  502  503 -0.00000000000E+00 -0.00000000000E+00 -0.15672812162E+03  0.15672812162E+03  0.00000000000E+00 0. -1.
          6    1    1    2  501    0  0.13927292159E+02  0.78336537875E+02  0.24131045997E+03  0.30739277923E+03  0.17300000000E+03 0. -1.
         -6    1    1    2    0  503 -0.13927292159E+02 -0.78336537875E+02 -0.50397946619E+02  0.19697597736E+03  0.17300000000E+03 0. -1.
<mgrwt>
<rscale>  2 0.19041949E+03</rscale>
<asrwt>0</asrwt>
<pdfrwt beam="1">  1       21 0.53483174E-01 0.19041949E+03</pdfrwt>
<pdfrwt beam="2">  1       21 0.24112019E-01 0.19041949E+03</pdfrwt>
<totfact> 0.53751279E+04</totfact>
</mgrwt>
</event>
<event>
 4    3  0.4022695E+000  0.1956782E+03  0.7546771E-02  0.1153437E+00
         21   -1    0    0  501  502  0.00000000000E+00  0.00000000000E+00  0.22946161676E+03  0.22946161676E+03  0.00000000000E+00 0.  1.
         21   -1    0    0  502  503 -0.00000000000E+00 -0.00000000000E+00 -0.45494676870E+03  0.45494676870E+03  0.00000000000E+00 0.  1.
          6    1    1    2  501    0 -0.66652087404E+02  0.62597605987E+02  0.15956525726E+03  0.25248966782E+03  0.17300000000E+03 0.  1.
         -6    1    1    2    0  503  0.66652087404E+02 -0.62597605987E+02 -0.38505040919E+03  0.43191871764E+03  0.17300000000E+03 0.  1.
<mgrwt>
<rscale>  2 0.19567821E+03</rscale>
<asrwt>0</asrwt>
<pdfrwt beam="1">  1       21 0.35301788E-01 0.19567821E+03</pdfrwt>
<pdfrwt beam="2">  1       21 0.69991810E-01 0.19567821E+03</pdfrwt>
<totfact> 0.14310806E+04</totfact>
</mgrwt>
</event>
<event>
 4    3  0.4022695E+000  0.1731927E+03  0.7546771E-02  0.1174559E+00
         21   -1    0    0  501  502  0.00000000000E+00  0.00000000000E+00  0.42548067006E+03  0.42548067006E+03  0.00000000000E+00 0.  1.
         21   -1    0    0  502  503 -0.00000000000E+00 -0.00000000000E+00 -0.88429498496E+02  0.88429498496E+02  0.00000000000E+00 0.  1.
          6    1    1    2  501    0 -0.57557307489E+01 -0.57950345093E+01  0.52817966642E+02  0.18106752459E+03  0.17300000000E+03 0. -1.
         -6    1    1    2    0  503  0.57557307489E+01  0.57950345093E+01  0.28423320492E+03  0.33284264396E+03  0.17300000000E+03 0. -1.
<mgrwt>
<rscale>  2 0.17319270E+03</rscale>
<asrwt>0</asrwt>
<pdfrwt beam="1">  1       21 0.65458563E-01 0.17319270E+03</pdfrwt>
<pdfrwt beam="2">  1       21 0.13604539E-01 0.17319270E+03</pdfrwt>
<totfact> 0.10127831E+05</totfact>
</mgrwt>
</event>
<event>
 4    3  0.4022695E+000  0.1789998E+03  0.7546771E-02  0.1168775E+00
         21   -1    0    0  501  502  0.00000000000E+00  0.00000000000E+00  0.13425106631E+04  0.13425106631E+04  0.00000000000E+00 0.  1.
         21   -1    0    0  502  503 -0.00000000000E+00 -0.00000000000E+00 -0.25451497237E+02  0.25451497237E+02  0.00000000000E+00 0.  1.
          6    1    1    2  501    0  0.19295018568E+02  0.41708888389E+02  0.82922114248E+03  0.84832106673E+03  0.17300000000E+03 0. -1.
         -6    1    1    2    0  503 -0.19295018568E+02 -0.41708888389E+02  0.48783802337E+03  0.51964109360E+03  0.17300000000E+03 0. -1.
<mgrwt>
<rscale>  2 0.17899980E+03</rscale>
<asrwt>0</asrwt>
<pdfrwt beam="1">  1       21 0.20654005E+00 0.17899980E+03</pdfrwt>
<pdfrwt beam="2">  1       21 0.39156160E-02 0.17899980E+03</pdfrwt>
<totfact> 0.50003769E+04</totfact>
</mgrwt>
</event>
<event>
 4    3  0.4022695E+000  0.2039117E+03  0.7546771E-02  0.1146480E+00
         21   -1    0    0  501  502  0.00000000000E+00  0.00000000000E+00  0.28779756032E+04  0.28779756032E+04  0.00000000000E+00 0.  1.
         21   -1    0    0  502  503 -0.00000000000E+00 -0.00000000000E+00 -0.58722379898E+02  0.58722379898E+02  0.00000000000E+00 0. -1.
          6    1    1    2  501    0  0.10748743996E+03 -0.98707885667E+01  0.26846126491E+04  0.26923456423E+04  0.17300000000E+03 0.  1.
         -6    1    1    2    0  503 -0.10748743996E+03  0.98707885667E+01  0.13464057425E+03  0.24435234079E+03  0.17300000000E+03 0. -1.
<mgrwt>
<rscale>  2 0.20391170E+03</rscale>
<asrwt>0</asrwt>
<pdfrwt beam="1">  1       21 0.44276537E+00 0.20391170E+03</pdfrwt>
<pdfrwt beam="2">  1       21 0.90342145E-02 0.20391170E+03</pdfrwt>
<totfact> 0.44242918E+02</totfact>
</mgrwt>
</event>
<event>
 4    3  0.4022695E+000  0.2043113E+03  0.7546771E-02  0.1146152E+00
         21   -1    0    0  501  502  0.00000000000E+00  0.00000000000E+00  0.21218809901E+03  0.21218809901E+03  0.00000000000E+00 0. -1.
         21   -1    0    0  502  503 -0.00000000000E+00 -0.00000000000E+00 -0.19899727000E+03  0.19899727000E+03  0.00000000000E+00 0.  1.
          6    1    1    2  501    0  0.10150967670E+03  0.38857161740E+02 -0.15364896255E+02  0.20488819761E+03  0.17300000000E+03 0.  1.
         -6    1    1    2    0  503 -0.10150967670E+03 -0.38857161740E+02  0.28555725266E+02  0.20629717140E+03  0.17300000000E+03 0. -1.
<mgrwt>
<rscale>  2 0.20431127E+03</rscale>
<asrwt>0</asrwt>
<pdfrwt beam="1">  1       21 0.32644323E-01 0.20431127E+03</pdfrwt>
<pdfrwt beam="2">  1       21 0.30614965E-01 0.20431127E+03</pdfrwt>
<totfact> 0.92059852E+04</totfact>
</mgrwt>
</event>
<event>
 4    3  0.4022695E+000  0.1844676E+03  0.7546771E-02  0.1163548E+00
         21   -1    0    0  503  502  0.00000000000E+00  0.00000000000E+00  0.36837116035E+02  0.36837116035E+02  0.00000000000E+00 0. -1.
         21   -1    0    0  501  503 -0.00000000000E+00 -0.00000000000E+00 -0.92687647466E+03  0.92687647466E+03  0.00000000000E+00 0. -1.
          6    1    1    2  501    0 -0.25308565434E+02  0.58811227454E+02 -0.41703384583E+03  0.45601043028E+03  0.17300000000E+03 0. -1.
         -6    1    1    2    0  502  0.25308565434E+02 -0.58811227454E+02 -0.47300551280E+03  0.50770316042E+03  0.17300000000E+03 0. -1.
<mgrwt>
<rscale>  2 0.18446757E+03</rscale>
<asrwt>0</asrwt>
<pdfrwt beam="1">  1       21 0.56672491E-02 0.18446757E+03</pdfrwt>
<pdfrwt beam="2">  1       21 0.14259637E+00 0.18446757E+03</pdfrwt>
<totfact> 0.74469185E+04</totfact>
</mgrwt>
</event>
<event>
 4    3  0.4022695E+000  0.1876966E+03  0.7546771E-02  0.1160555E+00
         21   -1    0    0  503  502  0.00000000000E+00  0.00000000000E+00  0.10166632665E+03  0.10166632665E+03  0.00000000000E+00 0.  1.
         21   -1    0    0  501  503 -0.00000000000E+00 -0.00000000000E+00 -0.41410692138E+03  0.41410692138E+03  0.00000000000E+00 0.  1.
          6    1    1    2  501    0 -0.56396630438E+02  0.46048028249E+02 -0.26040055004E+03  0.32099602379E+03  0.17300000000E+03 0. -1.
         -6    1    1    2    0  502  0.56396630438E+02 -0.46048028249E+02 -0.52040044689E+02  0.19477722424E+03  0.17300000000E+03 0. -1.
<mgrwt>
<rscale>  2 0.18769657E+03</rscale>
<asrwt>0</asrwt>
<pdfrwt beam="1">  1       21 0.15640973E-01 0.18769657E+03</pdfrwt>
<pdfrwt beam="2">  1       21 0.63708757E-01 0.18769657E+03</pdfrwt>
<totfact> 0.82912823E+04</totfact>
</mgrwt>
</event>
<event>
 4    3  0.4022695E+000  0.1922768E+03  0.7546771E-02  0.1156424E+00
         21   -1    0    0  501  502  0.00000000000E+00  0.00000000000E+00  0.18389397936E+03  0.18389397936E+03  0.00000000000E+00 0. -1.
         21   -1    0    0  502  503 -0.00000000000E+00 -0.00000000000E+00 -0.29375075300E+03  0.29375075300E+03  0.00000000000E+00 0.  1.
          6    1    1    2  501    0 -0.76498975688E+02 -0.34486039126E+02  0.79238794392E+02  0.20796434000E+03  0.17300000000E+03 0. -1.
         -6    1    1    2    0  503  0.76498975688E+02  0.34486039126E+02 -0.18909556803E+03  0.26968039236E+03  0.17300000000E+03 0.  1.
<mgrwt>
<rscale>  2 0.19227683E+03</rscale>
<asrwt>0</asrwt>
<pdfrwt beam="1">  1       21 0.28291382E-01 0.19227683E+03</pdfrwt>
<pdfrwt beam="2">  1       21 0.45192423E-01 0.19227683E+03</pdfrwt>
<totfact> 0.56107385E+04</totfact>
</mgrwt>
</event>
<event>
 4    3  0.4022695E+000  0.1819288E+03  0.7546771E-02  0.1165949E+00
         21   -1    0    0  503  502  0.00000000000E+00  0.00000000000E+00  0.13007422365E+03  0.13007422365E+03  0.00000000000E+00 0. -1.
         21   -1    0    0  501  503 -0.00000000000E+00 -0.00000000000E+00 -0.30663523194E+03  0.30663523194E+03  0.00000000000E+00 0.  1.
          6    1    1    2  501    0  0.48379887945E+02  0.28783470918E+02 -0.17835513490E+03  0.25477177218E+03  0.17300000000E+03 0.  1.
         -6    1    1    2    0  502 -0.48379887945E+02 -0.28783470918E+02  0.17941266069E+01  0.18193768341E+03  0.17300000000E+03 0. -1.
<mgrwt>
<rscale>  2 0.18192884E+03</rscale>
<asrwt>0</asrwt>
<pdfrwt beam="1">  1       21 0.20011419E-01 0.18192884E+03</pdfrwt>
<pdfrwt beam="2">  1       21 0.47174651E-01 0.18192884E+03</pdfrwt>
<totfact> 0.99543051E+04</totfact>
</mgrwt>
</event>
<event>
 4    3  0.4022695E+000  0.1806912E+03  0.7546771E-02  0.1167136E+00
         21   -1    0    0  501  502  0.00000000000E+00  0.00000000000E+00  0.10399840714E+03  0.10399840714E+03  0.00000000000E+00 0.  1.
         21   -1    0    0  502  503 -0.00000000000E+00 -0.00000000000E+00 -0.56729506558E+03  0.56729506558E+03  0.00000000000E+00 0.  1.
          6    1    1    2  501    0  0.12279714690E+02 -0.50690564193E+02 -0.73416591912E+01  0.18084032916E+03  0.17300000000E+03 0.  1.
         -6    1    1    2    0  503 -0.12279714690E+02  0.50690564193E+02 -0.45595499925E+03  0.49045314356E+03  0.17300000000E+03 0.  1.
<mgrwt>
<rscale>  2 0.18069124E+03</rscale>
<asrwt>0</asrwt>
<pdfrwt beam="1">  1       21 0.15999755E-01 0.18069124E+03</pdfrwt>
<pdfrwt beam="2">  1       21 0.87276163E-01 0.18069124E+03</pdfrwt>
<totfact> 0.39569550E+04</totfact>
</mgrwt>
</event>
<event>
 4    3  0.4022695E+000  0.2117111E+03  0.7546771E-02  0.1140218E+00
         21   -1    0    0  501  502  0.00000000000E+00  0.00000000000E+00  0.56300473214E+02  0.56300473214E+02  0.00000000000E+00 0. -1.
         21   -1    0    0  502  503 -0.00000000000E+00 -0.00000000000E+00 -0.14040310911E+04  0.14040310911E+04  0.00000000000E+00 0.  1.
          6    1    1    2  501    0 -0.42411979076E+02  0.11442817597E+03 -0.19340738108E+03  0.28675424754E+03  0.17300000000E+03 0. -1.
         -6    1    1    2    0  503  0.42411979076E+02 -0.11442817597E+03 -0.11543232368E+04  0.11735773168E+04  0.17300000000E+03 0.  1.
<mgrwt>
<rscale>  2 0.21171108E+03</rscale>
<asrwt>0</asrwt>
<pdfrwt beam="1">  1       21 0.86616122E-02 0.21171108E+03</pdfrwt>
<pdfrwt beam="2">  1       21 0.21600476E+00 0.21171108E+03</pdfrwt>
<totfact> 0.10944589E+04</totfact>
</mgrwt>
</event>
<event>
 4    3  0.4022695E+000  0.2119755E+03  0.7546771E-02  0.1140011E+00
         21   -1    0    0  503  502  0.00000000000E+00  0.00000000000E+00  0.12233502458E+03  0.12233502458E+03  0.00000000000E+00 0. -1.
         21   -1    0    0  501  503 -0.00000000000E+00 -0.00000000000E+00 -0.66294113420E+03  0.66294113420E+03  0.00000000000E+00 0. -1.
          6    1    1    2  501    0  0.10132210983E+03 -0.68836353884E+02 -0.53250602624E+03  0.57314595134E+03  0.17300000000E+03 0. -1.
         -6    1    1    2    0  502 -0.10132210983E+03  0.68836353884E+02 -0.81000833860E+01  0.21213020744E+03  0.17300000000E+03 0. -1.
<mgrwt>
<rscale>  2 0.21197550E+03</rscale>
<asrwt>0</asrwt>
<pdfrwt beam="1">  1       21 0.18820773E-01 0.21197550E+03</pdfrwt>
<pdfrwt beam="2">  1       21 0.10199094E+00 0.21197550E+03</pdfrwt>
<totfact> 0.20009208E+04</totfact>
</mgrwt>
</event>
<event>
 4    3  0.4022695E+000  0.1752449E+03  0.7546771E-02  0.1172486E+00
         21   -1    0    0  503  502  0.00000000000E+00  0.00000000000E+00  0.37064627501E+02  0.37064627501E+02  0.00000000000E+00 0. -1.
         21   -1    0    0  501  503 -0.00000000000E+00 -0.00000000000E+00 -0.84024083502E+03  0.84024083502E+03  0.00000000000E+00 0. -1.
          6    1    1    2  501    0  0.27564205810E+02  0.46878262728E+01 -0.34989789531E+03  0.39133016533E+03  0.17300000000E+03 0.  1.
         -6    1    1    2    0  502 -0.27564205810E+02 -0.46878262728E+01 -0.45327831221E+03  0.48597529719E+03  0.17300000000E+03 0.  1.
<mgrwt>
<rscale>  2 0.17524486E+03</rscale>
<asrwt>0</asrwt>
<pdfrwt beam="1">  1       21 0.57022513E-02 0.17524486E+03</pdfrwt>
<pdfrwt beam="2">  1       21 0.12926780E+00 0.17524486E+03</pdfrwt>
<totfact> 0.95062561E+04</totfact>
</mgrwt>
</event>
<event>
 4    3  0.4022695E+000  0.2204748E+03  0.7546771E-02  0.1133530E+00
         21   -1    0    0  501  502  0.00000000000E+00  0.00000000000E+00  0.30901801820E+03  0.30901801820E+03  0.00000000000E+00 0. -1.
         21   -1    0    0  502  503 -0.00000000000E+00 -0.00000000000E+00 -0.15868274617E+03  0.15868274617E+03  0.00000000000E+00 0.  1.
          6    1    1    2  501    0 -0.13316915731E+03  0.30759080177E+02  0.96981551644E+02  0.24086213241E+03  0.17300000000E+03 0.  1.
         -6    1    1    2    0  503  0.13316915731E+03 -0.30759080177E+02  0.53353720383E+02  0.22683863196E+03  0.17300000000E+03 0. -1.
<mgrwt>
<rscale>  2 0.22047482E+03</rscale>
<asrwt>0</asrwt>
<pdfrwt beam="1">  1       21 0.47541234E-01 0.22047482E+03</pdfrwt>
<pdfrwt beam="2">  1       21 0.24412730E-01 0.22047482E+03</pdfrwt>
<totfact> 0.66243749E+04</totfact>
</mgrwt>
</event>
<event>
 4    3  0.4022695E+000  0.3077536E+03  0.7546771E-02  0.1081428E+00
         21   -1    0    0  501  502  0.00000000000E+00  0.00000000000E+00  0.96115574023E+02  0.96115574023E+02  0.00000000000E+00 0.  1.
         21   -1    0    0  502  503 -0.00000000000E+00 -0.00000000000E+00 -0.10958823888E+04  0.10958823888E+04  0.00000000000E+00 0.  1.
          6    1    1    2  501    0 -0.12023280251E+03  0.22433753937E+03 -0.31064440510E+03  0.43727817781E+03  0.17300000000E+03 0.  1.
         -6    1    1    2    0  503  0.12023280251E+03 -0.22433753937E+03 -0.68912240964E+03  0.75471978497E+03  0.17300000000E+03 0.  1.
<mgrwt>
<rscale>  2 0.30775357E+03</rscale>
<asrwt>0</asrwt>
<pdfrwt beam="1">  1       21 0.14787010E-01 0.30775357E+03</pdfrwt>
<pdfrwt beam="2">  1       21 0.16859730E+00 0.30775357E+03</pdfrwt>
<totfact> 0.81570105E+03</totfact>
</mgrwt>
</event>
<event>
 4    3  0.4022695E+000  0.1746424E+03  0.7546771E-02  0.1173091E+00
         21   -1    0    0  501  502  0.00000000000E+00  0.00000000000E+00  0.13376680522E+03  0.13376680522E+03  0.00000000000E+00 0.  1.
         21   -1    0    0  502  503 -0.00000000000E+00 -0.00000000000E+00 -0.37743904636E+03  0.37743904636E+03  0.00000000000E+00 0.  1.
          6    1    1    2  501    0  0.19166566258E+02  0.14269080400E+02 -0.28266430184E+03  0.33226355721E+03  0.17300000000E+03 0.  1.
         -6    1    1    2    0  503 -0.19166566258E+02 -0.14269080400E+02  0.38992060696E+02  0.17894229437E+03  0.17300000000E+03 0.  1.
<mgrwt>
<rscale>  2 0.17464239E+03</rscale>
<asrwt>0</asrwt>
<pdfrwt beam="1">  1       21 0.20579509E-01 0.17464239E+03</pdfrwt>
<pdfrwt beam="2">  1       21 0.58067544E-01 0.17464239E+03</pdfrwt>
<totfact> 0.61315594E+04</totfact>
</mgrwt>
</event>
<event>
 4    3  0.4022695E+000  0.2228596E+03  0.7546771E-02  0.1131769E+00
         21   -1    0    0  501  502  0.00000000000E+00  0.00000000000E+00  0.66631181876E+03  0.66631181876E+03  0.00000000000E+00 0. -1.
         21   -1    0    0  502  503 -0.00000000000E+00 -0.00000000000E+00 -0.77297324041E+02  0.77297324041E+02  0.00000000000E+00 0.  1.
          6    1    1    2  501    0 -0.70589419632E+01  0.14031248815E+03  0.22427593914E+03  0.31617419229E+03  0.17300000000E+03 0. -1.
         -6    1    1    2    0  503  0.70589419632E+01 -0.14031248815E+03  0.36473855558E+03  0.42743495051E+03  0.17300000000E+03 0.  1.
<mgrwt>
<rscale>  2 0.22285965E+03</rscale>
<asrwt>0</asrwt>
<pdfrwt beam="1">  1       21 0.10250951E+00 0.22285965E+03</pdfrwt>
<pdfrwt beam="2">  1       21 0.11891896E-01 0.22285965E+03</pdfrwt>
<totfact> 0.45449295E+04</totfact>
</mgrwt>
</event>
<event>
 4    3  0.4022695E+000  0.1816699E+03  0.7546771E-02  0.1166197E+00
         21   -1    0    0  503  502  0.00000000000E+00  0.00000000000E+00  0.10163909161E+03  0.10163909161E+03  0.00000000000E+00 0.  1.
         21   -1    0    0  501  503 -0.00000000000E+00 -0.00000000000E+00 -0.42946196443E+03  0.42946196443E+03  0.00000000000E+00 0.  1.
          6    1    1    2  501    0 -0.52306566194E+02 -0.18410924664E+02 -0.29505634407E+03  0.34649990648E+03  0.17300000000E+03 0.  1.
         -6    1    1    2    0  502  0.52306566194E+02  0.18410924664E+02 -0.32766528757E+02  0.18460114957E+03  0.17300000000E+03 0.  1.
<mgrwt>
<rscale>  2 0.18166986E+03</rscale>
<asrwt>0</asrwt>
<pdfrwt beam="1">  1       21 0.15636784E-01 0.18166986E+03</pdfrwt>
<pdfrwt beam="2">  1       21 0.66071070E-01 0.18166986E+03</pdfrwt>
<totfact> 0.76833501E+04</totfact>
</mgrwt>
</event>
<event>
 4    3  0.4022695E+000  0.1903506E+03  0.7546771E-02  0.1158146E+00
         21   -1    0    0  503  502  0.00000000000E+00  0.00000000000E+00  0.16523863381E+04  0.16523863381E+04  0.00000000000E+00 0.  1.
         21   -1    0    0  501  503 -0.00000000000E+00 -0.00000000000E+00 -0.38453787903E+02  0.38453787903E+02  0.00000000000E+00 0.  1.
          6    1    1    2  501    0 -0.76907630316E+01 -0.79026484357E+02  0.25274190156E+03  0.31640449091E+03  0.17300000000E+03 0. -1.
         -6    1    1    2    0  502  0.76907630316E+01  0.79026484357E+02  0.13611906486E+04  0.13744356350E+04  0.17300000000E+03 0. -1.
<mgrwt>
<rscale>  2 0.19035055E+03</rscale>
<asrwt>0</asrwt>
<pdfrwt beam="1">  1       21 0.25421323E+00 0.19035055E+03</pdfrwt>
<pdfrwt beam="2">  1       21 0.59159687E-02 0.19035055E+03</pdfrwt>
<totfact> 0.12715357E+04</totfact>
</mgrwt>
</event>
<event>
 4    3  0.4022695E+000  0.3065027E+03  0.7546771E-02  0.1082034E+00
         21   -1    0    0  503  502  0.00000000000E+00  0.00000000000E+00  0.14406458132E+04  0.14406458132E+04  0.00000000000E+00 0.  1.
         21   -1    0    0  501  503 -0.00000000000E+00 -0.00000000000E+00 -0.10400172718E+03  0.10400172718E+03  0.00000000000E+00 0. -1.
          6    1    1    2  501    0 -0.24827456304E+03 -0.48730217030E+02  0.19663809592E+03  0.36415715491E+03  0.17300000000E+03 0. -1.
         -6    1    1    2    0  502  0.24827456304E+03  0.48730217030E+02  0.11400059901E+04  0.11804903855E+04  0.17300000000E+03 0.  1.
<mgrwt>
<rscale>  2 0.30650268E+03</rscale>
<asrwt>0</asrwt>
<pdfrwt beam="1">  1       21 0.22163780E+00 0.30650268E+03</pdfrwt>
<pdfrwt beam="2">  1       21 0.16000267E-01 0.30650268E+03</pdfrwt>
<totfact> 0.31238921E+03</totfact>
</mgrwt>
</event>
<event>
 4    3  0.4022695E+000  0.2680905E+03  0.7546771E-02  0.1102377E+00
         21   -1    0    0  501  502  0.00000000000E+00  0.00000000000E+00  0.17039552991E+04  0.17039552991E+04  0.00000000000E+00 0.  1.
         21   -1    0    0  502  503 -0.00000000000E+00 -0.00000000000E+00 -0.10915014995E+03  0.10915014995E+03  0.00000000000E+00 0. -1.
          6    1    1    2  501    0 -0.12875669628E+03 -0.15926472964E+03  0.15075067943E+04  0.15311594548E+04  0.17300000000E+03 0.  1.
         -6    1    1    2    0  503  0.12875669628E+03  0.15926472964E+03  0.87298354814E+02  0.28194599429E+03  0.17300000000E+03 0. -1.
<mgrwt>
<rscale>  2 0.26809055E+03</rscale>
<asrwt>0</asrwt>
<pdfrwt beam="1">  1       21 0.26214695E+00 0.26809055E+03</pdfrwt>
<pdfrwt beam="2">  1       21 0.16792332E-01 0.26809055E+03</pdfrwt>
<totfact> 0.16683710E+03</totfact>
</mgrwt>
</event>
<event>
 4    3  0.4022695E+000  0.2152112E+03  0.7546771E-02  0.1137504E+00
         21   -1    0    0  501  502  0.00000000000E+00  0.00000000000E+00  0.76674448808E+02  0.76674448808E+02  0.00000000000E+00 0.  1.
         21   -1    0    0  502  503 -0.00000000000E+00 -0.00000000000E+00 -0.76799688871E+03  0.76799688871E+03  0.00000000000E+00 0. -1.
          6    1    1    2  501    0  0.92465374086E+02  0.88527000011E+02 -0.15053394830E+03  0.26263347983E+03  0.17300000000E+03 0. -1.
         -6    1    1    2    0  503 -0.92465374086E+02 -0.88527000011E+02 -0.54078849160E+03  0.58203785769E+03  0.17300000000E+03 0.  1.
<mgrwt>
<rscale>  2 0.21521123E+03</rscale>
<asrwt>0</asrwt>
<pdfrwt beam="1">  1       21 0.11796070E-01 0.21521123E+03</pdfrwt>
<pdfrwt beam="2">  1       21 0.11815336E+00 0.21521123E+03</pdfrwt>
<totfact> 0.32782314E+04</totfact>
</mgrwt>
</event>
<event>
 4    3  0.4022695E+000  0.1775503E+03  0.7546771E-02  0.1170195E+00
         21   -1    0    0  501  502  0.00000000000E+00  0.00000000000E+00  0.25083060270E+03  0.25083060270E+03  0.00000000000E+00 0. -1.
         21   -1    0    0  502  503 -0.00000000000E+00 -0.00000000000E+00 -0.15871939868E+03  0.15871939868E+03  0.00000000000E+00 0. -1.
          6    1    1    2  501    0 -0.27073408899E+01 -0.39847118189E+02  0.13948531417E+03  0.22578812058E+03  0.17300000000E+03 0. -1.
         -6    1    1    2    0  503  0.27073408899E+01  0.39847118189E+02 -0.47374110150E+02  0.18376188080E+03  0.17300000000E+03 0. -1.
<mgrwt>
<rscale>  2 0.17755034E+03</rscale>
<asrwt>0</asrwt>
<pdfrwt beam="1">  1       21 0.38589323E-01 0.17755034E+03</pdfrwt>
<pdfrwt beam="2">  1       21 0.24418369E-01 0.17755034E+03</pdfrwt>
<totfact> 0.10316464E+05</totfact>
</mgrwt>
</event>
<event>
 4    3  0.4022695E+000  0.2181840E+03  0.7546771E-02  0.1135244E+00
         21   -1    0    0  503  502  0.00000000000E+00  0.00000000000E+00  0.44043544235E+03  0.44043544235E+03  0.00000000000E+00 0.  1.
         21   -1    0    0  501  503 -0.00000000000E+00 -0.00000000000E+00 -0.15336293464E+03  0.15336293464E+03  0.00000000000E+00 0.  1.
          6    1    1    2  501    0 -0.25539810143E+02 -0.13047218959E+03 -0.17785964436E+02  0.21890777668E+03  0.17300000000E+03 0.  1.
         -6    1    1    2    0  502  0.25539810143E+02  0.13047218959E+03  0.30485847215E+03  0.37489060031E+03  0.17300000000E+03 0.  1.
<mgrwt>
<rscale>  2 0.21818404E+03</rscale>
<asrwt>0</asrwt>
<pdfrwt beam="1">  1       21 0.67759298E-01 0.21818404E+03</pdfrwt>
<pdfrwt beam="2">  1       21 0.23594298E-01 0.21818404E+03</pdfrwt>
<totfact> 0.33205758E+04</totfact>
</mgrwt>
</event>
<event>
 4    3  0.4022695E+000  0.2087596E+03  0.7546771E-02  0.1142552E+00
         21   -1    0    0  501  502  0.00000000000E+00  0.00000000000E+00  0.77662707195E+03  0.77662707195E+03  0.00000000000E+00 0.  1.
         21   -1    0    0  502  503 -0.00000000000E+00 -0.00000000000E+00 -0.26910012902E+03  0.26910012902E+03  0.00000000000E+00 0.  1.
          6    1    1    2  501    0  0.42584304403E+02  0.10880315598E+03  0.71892730095E+03  0.74862341253E+03  0.17300000000E+03 0.  1.
         -6    1    1    2    0  503 -0.42584304403E+02 -0.10880315598E+03 -0.21140035803E+03  0.29710378844E+03  0.17300000000E+03 0.  1.
<mgrwt>
<rscale>  2 0.20875955E+03</rscale>
<asrwt>0</asrwt>
<pdfrwt beam="1">  1       21 0.11948109E+00 0.20875955E+03</pdfrwt>
<pdfrwt beam="2">  1       21 0.41400020E-01 0.20875955E+03</pdfrwt>
<totfact> 0.29577311E+03</totfact>
</mgrwt>
</event>
<event>
 4    3  0.4022695E+000  0.1982882E+03  0.7546771E-02  0.1151191E+00
         21   -1    0    0  503  502  0.00000000000E+00  0.00000000000E+00  0.99591784220E+02  0.99591784220E+02  0.00000000000E+00 0.  1.
         21   -1    0    0  501  503 -0.00000000000E+00 -0.00000000000E+00 -0.12847720713E+04  0.12847720713E+04  0.00000000000E+00 0.  1.
          6    1    1    2  501    0 -0.93566829072E+00 -0.96893326413E+02 -0.11686889557E+04  0.11853911031E+04  0.17300000000E+03 0.  1.
         -6    1    1    2    0  502  0.93566829072E+00  0.96893326413E+02 -0.16491331355E+02  0.19897275238E+03  0.17300000000E+03 0.  1.
<mgrwt>
<rscale>  2 0.19828815E+03</rscale>
<asrwt>0</asrwt>
<pdfrwt beam="1">  1       21 0.15321813E-01 0.19828815E+03</pdfrwt>
<pdfrwt beam="2">  1       21 0.19765724E+00 0.19828815E+03</pdfrwt>
<totfact> 0.52194370E+03</totfact>
</mgrwt>
</event>
<event>
 4    3  0.4022695E+000  0.2460804E+03  0.7546771E-02  0.1115807E+00
         21   -1    0    0  501  502  0.00000000000E+00  0.00000000000E+00  0.33727705572E+03  0.33727705572E+03  0.00000000000E+00 0.  1.
         21   -1    0    0  502  503 -0.00000000000E+00 -0.00000000000E+00 -0.18166664557E+03  0.18166664557E+03  0.00000000000E+00 0.  1.
          6    1    1    2  501    0  0.15244829080E+03 -0.85942304802E+02  0.10586252598E+03  0.26788511629E+03  0.17300000000E+03 0.  1.
         -6    1    1    2    0  503 -0.15244829080E+03  0.85942304802E+02  0.49747884165E+02  0.25105858500E+03  0.17300000000E+03 0.  1.
<mgrwt>
<rscale>  2 0.24608040E+03</rscale>
<asrwt>0</asrwt>
<pdfrwt beam="1">  1       21 0.51888777E-01 0.24608040E+03</pdfrwt>
<pdfrwt beam="2">  1       21 0.27948715E-01 0.24608040E+03</pdfrwt>
<totfact> 0.42049249E+04</totfact>
</mgrwt>
</event>
<event>
 4    3  0.4022695E+000  0.2635207E+03  0.7546771E-02  0.1105046E+00
         21   -1    0    0  501  502  0.00000000000E+00  0.00000000000E+00  0.31856564213E+03  0.31856564213E+03  0.00000000000E+00 0. -1.
         21   -1    0    0  502  503 -0.00000000000E+00 -0.00000000000E+00 -0.66299824418E+03  0.66299824418E+03  0.00000000000E+00 0.  1.
          6    1    1    2  501    0 -0.63700510596E+02  0.18829871900E+03  0.22986871406E+03  0.34968955994E+03  0.17300000000E+03 0. -1.
         -6    1    1    2    0  503  0.63700510596E+02 -0.18829871900E+03 -0.57430131612E+03  0.63187432637E+03  0.17300000000E+03 0.  1.
<mgrwt>
<rscale>  2 0.26352071E+03</rscale>
<asrwt>0</asrwt>
<pdfrwt beam="1">  1       21 0.49010099E-01 0.26352071E+03</pdfrwt>
<pdfrwt beam="2">  1       21 0.10199973E+00 0.26352071E+03</pdfrwt>
<totfact> 0.29497828E+03</totfact>
</mgrwt>
</event>
<event>
 4    3  0.4022695E+000  0.2667230E+03  0.7546771E-02  0.1103170E+00
         21   -1    0    0  501  502  0.00000000000E+00  0.00000000000E+00  0.10434487837E+04  0.10434487837E+04  0.00000000000E+00 0.  1.
         21   -1    0    0  502  503 -0.00000000000E+00 -0.00000000000E+00 -0.69828182273E+02  0.69828182273E+02  0.00000000000E+00 0. -1.
          6    1    1    2  501    0  0.19962919498E+03  0.36882789453E+02  0.57235827401E+03  0.63145478815E+03  0.17300000000E+03 0. -1.
         -6    1    1    2    0  503 -0.19962919498E+03 -0.36882789453E+02  0.40126232745E+03  0.48182217786E+03  0.17300000000E+03 0.  1.
<mgrwt>
<rscale>  2 0.26672299E+03</rscale>
<asrwt>0</asrwt>
<pdfrwt beam="1">  1       21 0.16053057E+00 0.26672299E+03</pdfrwt>
<pdfrwt beam="2">  1       21 0.10742798E-01 0.26672299E+03</pdfrwt>
<totfact> 0.17030392E+04</totfact>
</mgrwt>
</event>
<event>
 4    3  0.4022695E+000  0.2085025E+03  0.7546771E-02  0.1142757E+00
         21   -1    0    0  503  502  0.00000000000E+00  0.00000000000E+00  0.16022529135E+03  0.16022529135E+03  0.00000000000E+00 0.  1.
         21   -1    0    0  501  503 -0.00000000000E+00 -0.00000000000E+00 -0.29866972153E+03  0.29866972153E+03  0.00000000000E+00 0.  1.
          6    1    1    2  501    0  0.10150828979E+03 -0.56923978389E+02  0.20301182377E+00  0.20850255017E+03  0.17300000000E+03 0.  1.
         -6    1    1    2    0  502 -0.10150828979E+03  0.56923978389E+02 -0.13864744201E+03  0.25039246272E+03  0.17300000000E+03 0.  1.
<mgrwt>
<rscale>  2 0.20850245E+03</rscale>
<asrwt>0</asrwt>
<pdfrwt beam="1">  1       21 0.24650045E-01 0.20850245E+03</pdfrwt>
<pdfrwt beam="2">  1       21 0.45949187E-01 0.20850245E+03</pdfrwt>
<totfact> 0.70137941E+04</totfact>
</mgrwt>
</event>
<event>
 4    3  0.4022695E+000  0.2547489E+03  0.7546771E-02  0.1110340E+00
         21   -1    0    0  503  502  0.00000000000E+00  0.00000000000E+00  0.52960950881E+02  0.52960950881E+02  0.00000000000E+00 0.  1.
         21   -1    0    0  501  503 -0.00000000000E+00 -0.00000000000E+00 -0.13039706688E+04  0.13039706688E+04  0.00000000000E+00 0.  1.
          6    1    1    2  501    0  0.58629962521E+02  0.17756843863E+03 -0.79207359175E+03  0.83203220951E+03  0.17300000000E+03 0.  1.
         -6    1    1    2    0  502 -0.58629962521E+02 -0.17756843863E+03 -0.45893612615E+03  0.52489941016E+03  0.17300000000E+03 0.  1.
<mgrwt>
<rscale>  2 0.25474894E+03</rscale>
<asrwt>0</asrwt>
<pdfrwt beam="1">  1       21 0.81478391E-02 0.25474894E+03</pdfrwt>
<pdfrwt beam="2">  1       21 0.20061086E+00 0.25474894E+03</pdfrwt>
<totfact> 0.14799503E+04</totfact>
</mgrwt>
</event>
<event>
 4    3  0.4022695E+000  0.2466362E+03  0.7546771E-02  0.1115449E+00
         21   -1    0    0  501  502  0.00000000000E+00  0.00000000000E+00  0.23050472842E+03  0.23050472842E+03  0.00000000000E+00 0. -1.
         21   -1    0    0  502  503 -0.00000000000E+00 -0.00000000000E+00 -0.35029291216E+03  0.35029291216E+03  0.00000000000E+00 0.  1.
          6    1    1    2  501    0 -0.18024201573E+02  0.17485868218E+03  0.84326274943E+02  0.26065369980E+03  0.17300000000E+03 0. -1.
         -6    1    1    2    0  503  0.18024201573E+02 -0.17485868218E+03 -0.20411445868E+03  0.32014394078E+03  0.17300000000E+03 0.  1.
<mgrwt>
<rscale>  2 0.24663623E+03</rscale>
<asrwt>0</asrwt>
<pdfrwt beam="1">  1       21 0.35462266E-01 0.24663623E+03</pdfrwt>
<pdfrwt beam="2">  1       21 0.53891217E-01 0.24663623E+03</pdfrwt>
<totfact> 0.24264258E+04</totfact>
</mgrwt>
</event>
<event>
 4    3  0.4022695E+000  0.2450213E+03  0.7546771E-02  0.1116492E+00
         21   -1    0    0  501  502  0.00000000000E+00  0.00000000000E+00  0.15356827278E+04  0.15356827278E+04  0.00000000000E+00 0.  1.
         21   -1    0    0  502  503 -0.00000000000E+00 -0.00000000000E+00 -0.40846170137E+02  0.40846170137E+02  0.00000000000E+00 0.  1.
          6    1    1    2  501    0  0.11150467504E+03  0.13294047149E+03  0.91069575906E+03  0.94308124098E+03  0.17300000000E+03 0.  1.
         -6    1    1    2    0  503 -0.11150467504E+03 -0.13294047149E+03  0.58414079865E+03  0.63344765700E+03  0.17300000000E+03 0.  1.
<mgrwt>
<rscale>  2 0.24502135E+03</rscale>
<asrwt>0</asrwt>
<pdfrwt beam="1">  1       21 0.23625884E+00 0.24502135E+03</pdfrwt>
<pdfrwt beam="2">  1       21 0.62840274E-02 0.24502135E+03</pdfrwt>
<totfact> 0.14010249E+04</totfact>
</mgrwt>
</event>
<event>
 4    3  0.4022695E+000  0.2577301E+03  0.7546771E-02  0.1108515E+00
         21   -1    0    0  501  502  0.00000000000E+00  0.00000000000E+00  0.38397596824E+03  0.38397596824E+03  0.00000000000E+00 0. -1.
         21   -1    0    0  502  503 -0.00000000000E+00 -0.00000000000E+00 -0.18917726342E+03  0.18917726342E+03  0.00000000000E+00 0. -1.
          6    1    1    2  501    0  0.16754548214E+03  0.91784200441E+02  0.18122253825E+03  0.31506576521E+03  0.17300000000E+03 0. -1.
         -6    1    1    2    0  503 -0.16754548214E+03 -0.91784200441E+02  0.13576166567E+02  0.25808746645E+03  0.17300000000E+03 0. -1.
<mgrwt>
<rscale>  2 0.25773015E+03</rscale>
<asrwt>0</asrwt>
<pdfrwt beam="1">  1       21 0.59073226E-01 0.25773015E+03</pdfrwt>
<pdfrwt beam="2">  1       21 0.29104194E-01 0.25773015E+03</pdfrwt>
<totfact> 0.29321871E+04</totfact>
</mgrwt>
</event>
<event>
 4    3  0.4022695E+000  0.2878606E+03  0.7546771E-02  0.1091471E+00
         21   -1    0    0  503  502  0.00000000000E+00  0.00000000000E+00  0.39066041676E+03  0.39066041676E+03  0.00000000000E+00 0. -1.
         21   -1    0    0  501  503 -0.00000000000E+00 -0.00000000000E+00 -0.21856431739E+03  0.21856431739E+03  0.00000000000E+00 0.  1.
          6    1    1    2  501    0  0.19471427879E+03 -0.12256045797E+03  0.13838636428E+03  0.31939709147E+03  0.17300000000E+03 0. -1.
         -6    1    1    2    0  502 -0.19471427879E+03  0.12256045797E+03  0.33709735081E+02  0.28982764268E+03  0.17300000000E+03 0. -1.
<mgrwt>
<rscale>  2 0.28786058E+03</rscale>
<asrwt>0</asrwt>
<pdfrwt beam="1">  1       21 0.60101602E-01 0.28786058E+03</pdfrwt>
<pdfrwt beam="2">  1       21 0.33625280E-01 0.28786058E+03</pdfrwt>
<totfact> 0.20970355E+04</totfact>
</mgrwt>
</event>
<event>
 4    3  0.4022695E+000  0.3406258E+03  0.7546771E-02  0.1066530E+00
         21   -1    0    0  503  502  0.00000000000E+00  0.00000000000E+00  0.23908997955E+03  0.23908997955E+03  0.00000000000E+00 0. -1.
         21   -1    0    0  501  503 -0.00000000000E+00 -0.00000000000E+00 -0.52153898427E+03  0.52153898427E+03  0.00000000000E+00 0. -1.
          6    1    1    2  501    0 -0.12025832821E+02 -0.29317627541E+03 -0.24150077395E+03  0.41755068307E+03  0.17300000000E+03 0. -1.
         -6    1    1    2    0  502  0.12025832821E+02  0.29317627541E+03 -0.40948230772E+02  0.34307828075E+03  0.17300000000E+03 0. -1.
<mgrwt>
<rscale>  2 0.34062582E+03</rscale>
<asrwt>0</asrwt>
<pdfrwt beam="1">  1       21 0.36783074E-01 0.34062582E+03</pdfrwt>
<pdfrwt beam="2">  1       21 0.80236767E-01 0.34062582E+03</pdfrwt>
<totfact> 0.89952875E+03</totfact>
</mgrwt>
</event>
<event>
 4    3  0.4022695E+000  0.2290876E+03  0.7546771E-02  0.1127284E+00
         21   -1    0    0  501  502  0.00000000000E+00  0.00000000000E+00  0.50764545746E+03  0.50764545746E+03  0.00000000000E+00 0. -1.
         21   -1    0    0  502  503 -0.00000000000E+00 -0.00000000000E+00 -0.10643967115E+03  0.10643967115E+03  0.00000000000E+00 0.  1.
          6    1    1    2  501    0  0.15004077401E+03 -0.63171498718E+01  0.25264788210E+03  0.34104558724E+03  0.17300000000E+03 0.  1.
         -6    1    1    2    0  503 -0.15004077401E+03  0.63171498718E+01  0.14855790420E+03  0.27303954137E+03  0.17300000000E+03 0.  1.
<mgrwt>
<rscale>  2 0.22908763E+03</rscale>
<asrwt>0</asrwt>
<pdfrwt beam="1">  1       21 0.78099300E-01 0.22908763E+03</pdfrwt>
<pdfrwt beam="2">  1       21 0.16375334E-01 0.22908763E+03</pdfrwt>
<totfact> 0.47679777E+04</totfact>
</mgrwt>
</event>
<event>
 4    3  0.4022695E+000  0.1757942E+03  0.7546771E-02  0.1171937E+00
         21   -1    0    0  501  502  0.00000000000E+00  0.00000000000E+00  0.13804126026E+03  0.13804126026E+03  0.00000000000E+00 0. -1.
         21   -1    0    0  502  503 -0.00000000000E+00 -0.00000000000E+00 -0.27341104872E+03  0.27341104872E+03  0.00000000000E+00 0. -1.
          6    1    1    2  501    0  0.10956208844E+02  0.29232904711E+02 -0.15525470542E+03  0.23453704353E+03  0.17300000000E+03 0. -1.
         -6    1    1    2    0  503 -0.10956208844E+02 -0.29232904711E+02  0.19884916959E+02  0.17691526546E+03  0.17300000000E+03 0. -1.
<mgrwt>
<rscale>  2 0.17579420E+03</rscale>
<asrwt>0</asrwt>
<pdfrwt beam="1">  1       21 0.21237117E-01 0.17579420E+03</pdfrwt>
<pdfrwt beam="2">  1       21 0.42063238E-01 0.17579420E+03</pdfrwt>
<totfact> 0.11289965E+05</totfact>
</mgrwt>
</event>
<event>
 4    3  0.4022695E+000  0.2152563E+03  0.7546771E-02  0.1137470E+00
         21   -1    0    0  501  502  0.00000000000E+00  0.00000000000E+00  0.52102231568E+02  0.52102231568E+02  0.00000000000E+00 0. -1.
         21   -1    0    0  502  503 -0.00000000000E+00 -0.00000000000E+00 -0.89072622866E+03  0.89072622866E+03  0.00000000000E+00 0.  1.
          6    1    1    2  501    0 -0.32271663471E+02  0.12395494513E+03 -0.43807710610E+03  0.48810535705E+03  0.17300000000E+03 0.  1.
         -6    1    1    2    0  503  0.32271663471E+02 -0.12395494513E+03 -0.40054689099E+03  0.45472310318E+03  0.17300000000E+03 0. -1.
<mgrwt>
<rscale>  2 0.21525633E+03</rscale>
<asrwt>0</asrwt>
<pdfrwt beam="1">  1       21 0.80157284E-02 0.21525633E+03</pdfrwt>
<pdfrwt beam="2">  1       21 0.13703480E+00 0.21525633E+03</pdfrwt>
<totfact> 0.44659909E+04</totfact>
</mgrwt>
</event>
<event>
 4    3  0.4022695E+000  0.1841743E+03  0.7546771E-02  0.1163823E+00
         21   -1    0    0  501  502  0.00000000000E+00  0.00000000000E+00  0.18111052667E+03  0.18111052667E+03  0.00000000000E+00 0.  1.
         21   -1    0    0  502  503 -0.00000000000E+00 -0.00000000000E+00 -0.18909250934E+03  0.18909250934E+03  0.00000000000E+00 0.  1.
          6    1    1    2  501    0  0.60675507705E+02  0.17596680127E+02  0.14082066387E+02  0.18471184310E+03  0.17300000000E+03 0.  1.
         -6    1    1    2    0  503 -0.60675507705E+02 -0.17596680127E+02 -0.22064049060E+02  0.18549119291E+03  0.17300000000E+03 0.  1.
<mgrwt>
<rscale>  2 0.18417427E+03</rscale>
<asrwt>0</asrwt>
<pdfrwt beam="1">  1       21 0.27863158E-01 0.18417427E+03</pdfrwt>
<pdfrwt beam="2">  1       21 0.29091155E-01 0.18417427E+03</pdfrwt>
<totfact> 0.13953825E+05</totfact>
</mgrwt>
</event>
<event>
 4    3  0.4022695E+000  0.2354590E+03  0.7546771E-02  0.1122855E+00
         21   -1    0    0  501  502  0.00000000000E+00  0.00000000000E+00  0.28996727379E+03  0.28996727379E+03  0.00000000000E+00 0. -1.
         21   -1    0    0  502  503 -0.00000000000E+00 -0.00000000000E+00 -0.36390247577E+03  0.36390247577E+03  0.00000000000E+00 0. -1.
          6    1    1    2  501    0 -0.48760564952E+02 -0.15209986383E+03  0.18825989850E+03  0.30146766105E+03  0.17300000000E+03 0. -1.
         -6    1    1    2    0  503  0.48760564952E+02  0.15209986383E+03 -0.26219510048E+03  0.35240208851E+03  0.17300000000E+03 0. -1.
<mgrwt>
<rscale>  2 0.23545904E+03</rscale>
<asrwt>0</asrwt>
<pdfrwt beam="1">  1       21 0.44610350E-01 0.23545904E+03</pdfrwt>
<pdfrwt beam="2">  1       21 0.55984996E-01 0.23545904E+03</pdfrwt>
<totfact> 0.14121762E+04</totfact>
</mgrwt>
</event>
<event>
 4    3  0.4022695E+000  0.3262832E+03  0.7546771E-02  0.1072793E+00
         21   -1    0    0  503  502  0.00000000000E+00  0.00000000000E+00  0.29698316297E+03  0.29698316297E+03  0.00000000000E+00 0.  1.
         21   -1    0    0  501  503 -0.00000000000E+00 -0.00000000000E+00 -0.49648245244E+03  0.49648245244E+03  0.00000000000E+00 0. -1.
          6    1    1    2  501    0 -0.17111372896E+03  0.21737488700E+03 -0.30891943839E+03  0.44932390227E+03  0.17300000000E+03 0.  1.
         -6    1    1    2    0  502  0.17111372896E+03 -0.21737488700E+03  0.10942014892E+03  0.34414171314E+03  0.17300000000E+03 0.  1.
<mgrwt>
<rscale>  2 0.32628324E+03</rscale>
<asrwt>0</asrwt>
<pdfrwt beam="1">  1       21 0.45689718E-01 0.32628324E+03</pdfrwt>
<pdfrwt beam="2">  1       21 0.76381915E-01 0.32628324E+03</pdfrwt>
<totfact> 0.64877875E+03</totfact>
</mgrwt>
</event>
<event>
 4    3  0.4022695E+000  0.2358002E+03  0.7546771E-02  0.1122623E+00
         21   -1    0    0  501  502  0.00000000000E+00  0.00000000000E+00  0.91584915714E+02  0.91584915714E+02  0.00000000000E+00 0. -1.
         21   -1    0    0  502  503 -0.00000000000E+00 -0.00000000000E+00 -0.64150074219E+03  0.64150074219E+03  0.00000000000E+00 0. -1.
          6    1    1    2  501    0 -0.88870832790E+02  0.13332188309E+03 -0.35983145802E+03  0.43020974839E+03  0.17300000000E+03 0. -1.
         -6    1    1    2    0  503  0.88870832790E+02 -0.13332188309E+03 -0.19008436845E+03  0.30287590951E+03  0.17300000000E+03 0. -1.
<mgrwt>
<rscale>  2 0.23580023E+03</rscale>
<asrwt>0</asrwt>
<pdfrwt beam="1">  1       21 0.14089987E-01 0.23580023E+03</pdfrwt>
<pdfrwt beam="2">  1       21 0.98692419E-01 0.23580023E+03</pdfrwt>
<totfact> 0.36403561E+04</totfact>
</mgrwt>
</event>
<event>
 4    3  0.4022695E+000  0.1841958E+03  0.7546771E-02  0.1163803E+00
         21   -1    0    0  503  502  0.00000000000E+00  0.00000000000E+00  0.10333979283E+03  0.10333979283E+03  0.00000000000E+00 0. -1.
         21   -1    0    0  501  503 -0.00000000000E+00 -0.00000000000E+00 -0.39370553051E+03  0.39370553051E+03  0.00000000000E+00 0.  1.
          6    1    1    2  501    0  0.50740198453E+02 -0.37743086374E+02 -0.24646534714E+03  0.30769022677E+03  0.17300000000E+03 0.  1.
         -6    1    1    2    0  502 -0.50740198453E+02  0.37743086374E+02 -0.43900390547E+02  0.18935509657E+03  0.17300000000E+03 0. -1.
<mgrwt>
<rscale>  2 0.18419584E+03</rscale>
<asrwt>0</asrwt>
<pdfrwt beam="1">  1       21 0.15898430E-01 0.18419584E+03</pdfrwt>
<pdfrwt beam="2">  1       21 0.60570080E-01 0.18419584E+03</pdfrwt>
<totfact> 0.89870479E+04</totfact>
</mgrwt>
</event>
<event>
 4    3  0.4022695E+000  0.1768330E+03  0.7546771E-02  0.1170904E+00
         21   -1    0    0  501  502  0.00000000000E+00  0.00000000000E+00  0.71016436824E+03  0.71016436824E+03  0.00000000000E+00 0. -1.
         21   -1    0    0  502  503 -0.00000000000E+00 -0.00000000000E+00 -0.89528386424E+02  0.89528386424E+02  0.00000000000E+00 0. -1.
          6    1    1    2  501    0  0.14345465510E+02  0.33691710406E+02  0.59535514004E+03  0.62106172519E+03  0.17300000000E+03 0. -1.
         -6    1    1    2    0  503 -0.14345465510E+02 -0.33691710406E+02  0.25280841785E+02  0.17863102948E+03  0.17300000000E+03 0. -1.
<mgrwt>
<rscale>  2 0.17683304E+03</rscale>
<asrwt>0</asrwt>
<pdfrwt beam="1">  1       21 0.10925605E+00 0.17683304E+03</pdfrwt>
<pdfrwt beam="2">  1       21 0.13773598E-01 0.17683304E+03</pdfrwt>
<totfact> 0.30682340E+04</totfact>
</mgrwt>
</event>
<event>
 4    3  0.4022695E+000  0.1784604E+03  0.7546771E-02  0.1169301E+00
         21   -1    0    0  501  502  0.00000000000E+00  0.00000000000E+00  0.18827123877E+03  0.18827123877E+03  0.00000000000E+00 0.  1.
         21   -1    0    0  502  503 -0.00000000000E+00 -0.00000000000E+00 -0.34433017220E+03  0.34433017220E+03  0.00000000000E+00 0.  1.
          6    1    1    2  501    0 -0.91590166736E+01 -0.42839409956E+02  0.11190944028E+03  0.21064620921E+03  0.17300000000E+03 0.  1.
         -6    1    1    2    0  503  0.91590166736E+01  0.42839409956E+02 -0.26796837370E+03  0.32195520176E+03  0.17300000000E+03 0.  1.
<mgrwt>
<rscale>  2 0.17846037E+03</rscale>
<asrwt>0</asrwt>
<pdfrwt beam="1">  1       21 0.28964806E-01 0.17846037E+03</pdfrwt>
<pdfrwt beam="2">  1       21 0.52973872E-01 0.17846037E+03</pdfrwt>
<totfact> 0.38799180E+04</totfact>
</mgrwt>
</event>
<event>
 4    3  0.4022695E+000  0.2563631E+03  0.7546771E-02  0.1109348E+00
         21   -1    0    0  501  502  0.00000000000E+00  0.00000000000E+00  0.58856604099E+03  0.58856604099E+03  0.00000000000E+00 0. -1.
         21   -1    0    0  502  503 -0.00000000000E+00 -0.00000000000E+00 -0.11230930567E+03  0.11230930567E+03  0.00000000000E+00 0. -1.
          6    1    1    2  501    0  0.18316736888E+03  0.47357607707E+02  0.26467826097E+03  0.36847877803E+03  0.17300000000E+03 0. -1.
         -6    1    1    2    0  503 -0.18316736888E+03 -0.47357607707E+02  0.21157847436E+03  0.33239656863E+03  0.17300000000E+03 0. -1.
<mgrwt>
<rscale>  2 0.25636308E+03</rscale>
<asrwt>0</asrwt>
<pdfrwt beam="1">  1       21 0.90548619E-01 0.25636308E+03</pdfrwt>
<pdfrwt beam="2">  1       21 0.17278355E-01 0.25636308E+03</pdfrwt>
<totfact> 0.30368558E+04</totfact>
</mgrwt>
</event>
<event>
 4    3  0.4022695E+000  0.2058184E+03  0.7546771E-02  0.1144921E+00
         21   -1    0    0  503  502  0.00000000000E+00  0.00000000000E+00  0.20325527052E+03  0.20325527052E+03  0.00000000000E+00 0. -1.
         21   -1    0    0  501  503 -0.00000000000E+00 -0.00000000000E+00 -0.31388380418E+03  0.31388380418E+03  0.00000000000E+00 0. -1.
          6    1    1    2  501    0  0.47228845359E+02  0.10100327714E+03 -0.20519891680E+03  0.29063348273E+03  0.17300000000E+03 0. -1.
         -6    1    1    2    0  502 -0.47228845359E+02 -0.10100327714E+03  0.94570383135E+02  0.22650559197E+03  0.17300000000E+03 0. -1.
<mgrwt>
<rscale>  2 0.20581843E+03</rscale>
<asrwt>0</asrwt>
<pdfrwt beam="1">  1       21 0.31270042E-01 0.20581843E+03</pdfrwt>
<pdfrwt beam="2">  1       21 0.48289816E-01 0.20581843E+03</pdfrwt>
<totfact> 0.39984529E+04</totfact>
</mgrwt>
</event>
<event>
 4    3  0.4022695E+000  0.2415813E+03  0.7546771E-02  0.1118744E+00
         21   -1    0    0  501  502  0.00000000000E+00  0.00000000000E+00  0.12031989534E+04  0.12031989534E+04  0.00000000000E+00 0. -1.
         21   -1    0    0  502  503 -0.00000000000E+00 -0.00000000000E+00 -0.57744920536E+02  0.57744920536E+02  0.00000000000E+00 0. -1.
          6    1    1    2  501    0 -0.16489615107E+03 -0.35238881010E+02  0.82492178141E+03  0.85956818509E+03  0.17300000000E+03 0. -1.
         -6    1    1    2    0  503  0.16489615107E+03  0.35238881010E+02  0.32053225145E+03  0.40137568884E+03  0.17300000000E+03 0. -1.
<mgrwt>
<rscale>  2 0.24158129E+03</rscale>
<asrwt>0</asrwt>
<pdfrwt beam="1">  1       21 0.18510751E+00 0.24158129E+03</pdfrwt>
<pdfrwt beam="2">  1       21 0.88838348E-02 0.24158129E+03</pdfrwt>
<totfact> 0.16234435E+04</totfact>
</mgrwt>
</event>
<event>
 4    3  0.4022695E+000  0.2175504E+03  0.7546771E-02  0.1135723E+00
         21   -1    0    0  503  502  0.00000000000E+00  0.00000000000E+00  0.16059319098E+03  0.16059319098E+03  0.00000000000E+00 0.  1.
         21   -1    0    0  501  503 -0.00000000000E+00 -0.00000000000E+00 -0.41718780884E+03  0.41718780884E+03  0.00000000000E+00 0. -1.
          6    1    1    2  501    0 -0.10870648538E+03 -0.74713259128E+02 -0.28482778309E+03  0.35840624587E+03  0.17300000000E+03 0. -1.
         -6    1    1    2    0  502  0.10870648538E+03  0.74713259128E+02  0.28233165231E+02  0.21937475395E+03  0.17300000000E+03 0.  1.
<mgrwt>
<rscale>  2 0.21755039E+03</rscale>
<asrwt>0</asrwt>
<pdfrwt beam="1">  1       21 0.24706645E-01 0.21755039E+03</pdfrwt>
<pdfrwt beam="2">  1       21 0.64182739E-01 0.21755039E+03</pdfrwt>
<totfact> 0.34255419E+04</totfact>
</mgrwt>
</event>
<event>
 4    3  0.4022695E+000  0.2180284E+03  0.7546771E-02  0.1135362E+00
         21   -1    0    0  503  502  0.00000000000E+00  0.00000000000E+00  0.13076986666E+03  0.13076986666E+03  0.00000000000E+00 0. -1.
         21   -1    0    0  501  503 -0.00000000000E+00 -0.00000000000E+00 -0.63408303996E+03  0.63408303996E+03  0.00000000000E+00 0. -1.
          6    1    1    2  501    0 -0.12575770995E+03  0.42336411862E+02 -0.50147001114E+03  0.54681673845E+03  0.17300000000E+03 0. -1.
         -6    1    1    2    0  502  0.12575770995E+03 -0.42336411862E+02 -0.18431621532E+01  0.21803616817E+03  0.17300000000E+03 0. -1.
<mgrwt>
<rscale>  2 0.21802838E+03</rscale>
<asrwt>0</asrwt>
<pdfrwt beam="1">  1       21 0.20118441E-01 0.21802838E+03</pdfrwt>
<pdfrwt beam="2">  1       21 0.97551235E-01 0.21802838E+03</pdfrwt>
<totfact> 0.19569539E+04</totfact>
</mgrwt>
</event>
<event>
 4    3  0.4022695E+000  0.1946355E+03  0.7546771E-02  0.1154346E+00
         21   -1    0    0  501  502  0.00000000000E+00  0.00000000000E+00  0.42885350391E+03  0.42885350391E+03  0.00000000000E+00 0.  1.
         21   -1    0    0  502  503 -0.00000000000E+00 -0.00000000000E+00 -0.14680823938E+03  0.14680823938E+03  0.00000000000E+00 0.  1.
          6    1    1    2  501    0  0.88181263502E+02 -0.13343791632E+02  0.32267407405E+03  0.37683093035E+03  0.17300000000E+03 0.  1.
         -6    1    1    2    0  503 -0.88181263502E+02  0.13343791632E+02 -0.40628809519E+02  0.19883081293E+03  0.17300000000E+03 0.  1.
<mgrwt>
<rscale>  2 0.19463554E+03</rscale>
<asrwt>0</asrwt>
<pdfrwt beam="1">  1       21 0.65977462E-01 0.19463554E+03</pdfrwt>
<pdfrwt beam="2">  1       21 0.22585883E-01 0.19463554E+03</pdfrwt>
<totfact> 0.38715445E+04</totfact>
</mgrwt>
</event>
<event>
 4    3  0.4022695E+000  0.1977251E+03  0.7546771E-02  0.1151673E+00
         21   -1    0    0  501  502  0.00000000000E+00  0.00000000000E+00  0.44996650123E+02  0.44996650123E+02  0.00000000000E+00 0. -1.
         21   -1    0    0  502  503 -0.00000000000E+00 -0.00000000000E+00 -0.87083780935E+03  0.87083780935E+03  0.00000000000E+00 0. -1.
          6    1    1    2  501    0 -0.86596788169E+02 -0.40831615134E+02 -0.39102862270E+03  0.43817645794E+03  0.17300000000E+03 0.  1.
         -6    1    1    2    0  503  0.86596788169E+02  0.40831615134E+02 -0.43481253653E+03  0.47765800154E+03  0.17300000000E+03 0.  1.
<mgrwt>
<rscale>  2 0.19772512E+03</rscale>
<asrwt>0</asrwt>
<pdfrwt beam="1">  1       21 0.69225618E-02 0.19772512E+03</pdfrwt>
<pdfrwt beam="2">  1       21 0.13397504E+00 0.19772512E+03</pdfrwt>
<totfact> 0.61596614E+04</totfact>
</mgrwt>
</event>
<event>
 4    3  0.4022695E+000  0.1843709E+03  0.7546771E-02  0.1163639E+00
         21   -1    0    0  501  502  0.00000000000E+00  0.00000000000E+00  0.60332594098E+03  0.60332594098E+03  0.00000000000E+00 0. -1.
         21   -1    0    0  502  503 -0.00000000000E+00 -0.00000000000E+00 -0.10662426021E+03  0.10662426021E+03  0.00000000000E+00 0. -1.
          6    1    1    2  501    0  0.57872810124E+02 -0.26727467144E+02  0.49211904573E+03  0.52552238280E+03  0.17300000000E+03 0. -1.
         -6    1    1    2    0  503 -0.57872810124E+02  0.26727467144E+02  0.45826350410E+01  0.18442781839E+03  0.17300000000E+03 0. -1.
<mgrwt>
<rscale>  2 0.18437088E+03</rscale>
<asrwt>0</asrwt>
<pdfrwt beam="1">  1       21 0.92819373E-01 0.18437088E+03</pdfrwt>
<pdfrwt beam="2">  1       21 0.16403733E-01 0.18437088E+03</pdfrwt>
<totfact> 0.32725293E+04</totfact>
</mgrwt>
</event>
<event>
 4    3  0.4022695E+000  0.1860194E+03  0.7546771E-02  0.1162101E+00
         21   -1    0    0  501  502  0.00000000000E+00  0.00000000000E+00  0.91797665300E+02  0.91797665300E+02  0.00000000000E+00 0.  1.
         21   -1    0    0  502  503 -0.00000000000E+00 -0.00000000000E+00 -0.55779708284E+03  0.55779708284E+03  0.00000000000E+00 0. -1.
          6    1    1    2  501    0 -0.55710717110E+02 -0.39629797927E+02 -0.48060428317E+02  0.19212758692E+03  0.17300000000E+03 0.  1.
         -6    1    1    2    0  503  0.55710717110E+02  0.39629797927E+02 -0.41793898922E+03  0.45746716122E+03  0.17300000000E+03 0. -1.
<mgrwt>
<rscale>  2 0.18601937E+03</rscale>
<asrwt>0</asrwt>
<pdfrwt beam="1">  1       21 0.14122718E-01 0.18601937E+03</pdfrwt>
<pdfrwt beam="2">  1       21 0.85814932E-01 0.18601937E+03</pdfrwt>
<totfact> 0.51474138E+04</totfact>
</mgrwt>
</event>
<event>
 4    3  0.4022695E+000  0.1854400E+03  0.7546771E-02  0.1162640E+00
         21   -1    0    0  501  502  0.00000000000E+00  0.00000000000E+00  0.43932606432E+02  0.43932606432E+02  0.00000000000E+00 0. -1.
         21   -1    0    0  502  503 -0.00000000000E+00 -0.00000000000E+00 -0.86333782685E+03  0.86333782685E+03  0.00000000000E+00 0. -1.
          6    1    1    2  501    0  0.18600275577E+02  0.64132816284E+02 -0.27110140602E+03  0.32845693891E+03  0.17300000000E+03 0. -1.
         -6    1    1    2    0  503 -0.18600275577E+02 -0.64132816284E+02 -0.54830381440E+03  0.57881349437E+03  0.17300000000E+03 0. -1.
<mgrwt>
<rscale>  2 0.18543999E+03</rscale>
<asrwt>0</asrwt>
<pdfrwt beam="1">  1       21 0.67588630E-02 0.18543999E+03</pdfrwt>
<pdfrwt beam="2">  1       21 0.13282120E+00 0.18543999E+03</pdfrwt>
<totfact> 0.66027873E+04</totfact>
</mgrwt>
</event>
<event>
 4    3  0.4022695E+000  0.2982221E+03  0.7546771E-02  0.1086133E+00
         21   -1    0    0  503  502  0.00000000000E+00  0.00000000000E+00  0.11981196433E+04  0.11981196433E+04  0.00000000000E+00 0. -1.
         21   -1    0    0  501  503 -0.00000000000E+00 -0.00000000000E+00 -0.22180713731E+03  0.22180713731E+03  0.00000000000E+00 0.  1.
          6    1    1    2  501    0  0.17518063099E+03 -0.16828304218E+03 -0.90949286335E+02  0.31178230938E+03  0.17300000000E+03 0.  1.
         -6    1    1    2    0  502 -0.17518063099E+03  0.16828304218E+03  0.10672617923E+04  0.11081444712E+04  0.17300000000E+03 0. -1.
<mgrwt>
<rscale>  2 0.29822212E+03</rscale>
<asrwt>0</asrwt>
<pdfrwt beam="1">  1       21 0.18432610E+00 0.29822212E+03</pdfrwt>
<pdfrwt beam="2">  1       21 0.34124176E-01 0.29822212E+03</pdfrwt>
<totfact> 0.12858460E+03</totfact>
</mgrwt>
</event>
<event>
 4    3  0.4022695E+000  0.2394024E+03  0.7546771E-02  0.1120192E+00
         21   -1    0    0  501  502  0.00000000000E+00  0.00000000000E+00  0.85209485001E+02  0.85209485001E+02  0.00000000000E+00 0.  1.
         21   -1    0    0  502  503 -0.00000000000E+00 -0.00000000000E+00 -0.77282155834E+03  0.77282155834E+03  0.00000000000E+00 0. -1.
          6    1    1    2  501    0 -0.86168918479E+02 -0.14127778128E+03 -0.49828644951E+03  0.55281360309E+03  0.17300000000E+03 0. -1.
         -6    1    1    2    0  503  0.86168918479E+02  0.14127778128E+03 -0.18932562383E+03  0.30521744025E+03  0.17300000000E+03 0. -1.
<mgrwt>
<rscale>  2 0.23940237E+03</rscale>
<asrwt>0</asrwt>
<pdfrwt beam="1">  1       21 0.13109152E-01 0.23940237E+03</pdfrwt>
<pdfrwt beam="2">  1       21 0.11889562E+00 0.23940237E+03</pdfrwt>
<totfact> 0.26353164E+04</totfact>
</mgrwt>
</event>
<event>
 4    3  0.4022695E+000  0.2035307E+03  0.7546771E-02  0.1146794E+00
         21   -1    0    0  501  502  0.00000000000E+00  0.00000000000E+00  0.67288532228E+03  0.67288532228E+03  0.00000000000E+00 0.  1.
         21   -1    0    0  502  503 -0.00000000000E+00 -0.00000000000E+00 -0.25115570619E+03  0.25115570619E+03  0.00000000000E+00 0.  1.
          6    1    1    2  501    0  0.49337423171E+02 -0.95192159048E+02  0.61228640600E+03  0.64522815457E+03  0.17300000000E+03 0.  1.
         -6    1    1    2    0  503 -0.49337423171E+02  0.95192159048E+02 -0.19055678991E+03  0.27881287390E+03  0.17300000000E+03 0.  1.
<mgrwt>
<rscale>  2 0.20353066E+03</rscale>
<asrwt>0</asrwt>
<pdfrwt beam="1">  1       21 0.10352082E+00 0.20353066E+03</pdfrwt>
<pdfrwt beam="2">  1       21 0.38639340E-01 0.20353066E+03</pdfrwt>
<totfact> 0.48399547E+03</totfact>
</mgrwt>
</event>
<event>
 4    3  0.4022695E+000  0.2439210E+03  0.7546771E-02  0.1117208E+00
         21   -1    0    0  503  502  0.00000000000E+00  0.00000000000E+00  0.32635592315E+03  0.32635592315E+03  0.00000000000E+00 0.  1.
         21   -1    0    0  501  503 -0.00000000000E+00 -0.00000000000E+00 -0.19048047169E+03  0.19048047169E+03  0.00000000000E+00 0.  1.
          6    1    1    2  501    0  0.94932772028E+02  0.14337445336E+03  0.12146323162E+03  0.27248996627E+03  0.17300000000E+03 0.  1.
         -6    1    1    2    0  502 -0.94932772028E+02 -0.14337445336E+03  0.14412219840E+02  0.24434642858E+03  0.17300000000E+03 0.  1.
<mgrwt>
<rscale>  2 0.24392102E+03</rscale>
<asrwt>0</asrwt>
<pdfrwt beam="1">  1       21 0.50208604E-01 0.24392102E+03</pdfrwt>
<pdfrwt beam="2">  1       21 0.29304688E-01 0.24392102E+03</pdfrwt>
<totfact> 0.41125562E+04</totfact>
</mgrwt>
</event>
<event>
 4    3  0.4022695E+000  0.1752257E+03  0.7546771E-02  0.1172505E+00
         21   -1    0    0  503  502  0.00000000000E+00  0.00000000000E+00  0.18489129635E+03  0.18489129635E+03  0.00000000000E+00 0. -1.
         21   -1    0    0  501  503 -0.00000000000E+00 -0.00000000000E+00 -0.17533318014E+03  0.17533318014E+03  0.00000000000E+00 0. -1.
          6    1    1    2  501    0  0.47080052051E+01  0.27438490388E+02  0.46188599956E+02  0.18121098983E+03  0.17300000000E+03 0. -1.
         -6    1    1    2    0  502 -0.47080052051E+01 -0.27438490388E+02 -0.36630483755E+02  0.17901348666E+03  0.17300000000E+03 0. -1.
<mgrwt>
<rscale>  2 0.17522567E+03</rscale>
<asrwt>0</asrwt>
<pdfrwt beam="1">  1       21 0.28444815E-01 0.17522567E+03</pdfrwt>
<pdfrwt beam="2">  1       21 0.26974335E-01 0.17522567E+03</pdfrwt>
<totfact> 0.15558891E+05</totfact>
</mgrwt>
</event>
<event>
 4    3  0.4022695E+000  0.2186139E+03  0.7546771E-02  0.1134921E+00
         21   -1    0    0  503  502  0.00000000000E+00  0.00000000000E+00  0.10600723150E+03  0.10600723150E+03  0.00000000000E+00 0. -1.
         21   -1    0    0  501  503 -0.00000000000E+00 -0.00000000000E+00 -0.87841519971E+03  0.87841519971E+03  0.00000000000E+00 0. -1.
          6    1    1    2  501    0 -0.84732551160E+02  0.10336063860E+03 -0.72961098750E+03  0.76165886059E+03  0.17300000000E+03 0. -1.
         -6    1    1    2    0  502  0.84732551160E+02 -0.10336063860E+03 -0.42796980707E+02  0.22276357062E+03  0.17300000000E+03 0. -1.
<mgrwt>
<rscale>  2 0.21861388E+03</rscale>
<asrwt>0</asrwt>
<pdfrwt beam="1">  1       21 0.16308805E-01 0.21861388E+03</pdfrwt>
<pdfrwt beam="2">  1       21 0.13514080E+00 0.21861388E+03</pdfrwt>
<totfact> 0.12958419E+04</totfact>
</mgrwt>
</event>
<event>
 4    3  0.4022695E+000  0.2010491E+03  0.7546771E-02  0.1148857E+00
         21   -1    0    0  501  502  0.00000000000E+00  0.00000000000E+00  0.76124519852E+03  0.76124519852E+03  0.00000000000E+00 0.  1.
         21   -1    0    0  502  503 -0.00000000000E+00 -0.00000000000E+00 -0.25714030567E+03  0.25714030567E+03  0.00000000000E+00 0. -1.
          6    1    1    2  501    0  0.96671733109E+02  0.33857093905E+02  0.70563575633E+03  0.73371830249E+03  0.17300000000E+03 0.  1.
         -6    1    1    2    0  503 -0.96671733109E+02 -0.33857093905E+02 -0.20153086349E+03  0.28466720171E+03  0.17300000000E+03 0. -1.
<mgrwt>
<rscale>  2 0.20104907E+03</rscale>
<asrwt>0</asrwt>
<pdfrwt beam="1">  1       21 0.11711464E+00 0.20104907E+03</pdfrwt>
<pdfrwt beam="2">  1       21 0.39560047E-01 0.20104907E+03</pdfrwt>
<totfact> 0.34293451E+03</totfact>
</mgrwt>
</event>
<event>
 4    3  0.4022695E+000  0.2486738E+03  0.7546771E-02  0.1114146E+00
         21   -1    0    0  501  502  0.00000000000E+00  0.00000000000E+00  0.29483620918E+02  0.29483620918E+02  0.00000000000E+00 0. -1.
         21   -1    0    0  502  503 -0.00000000000E+00 -0.00000000000E+00 -0.21238540976E+04  0.21238540976E+04  0.00000000000E+00 0. -1.
          6    1    1    2  501    0 -0.14289738014E+03 -0.10719132581E+03 -0.11673704873E+04  0.11935629419E+04  0.17300000000E+03 0. -1.
         -6    1    1    2    0  503  0.14289738014E+03  0.10719132581E+03 -0.92699998935E+03  0.95977477662E+03  0.17300000000E+03 0. -1.
<mgrwt>
<rscale>  2 0.24867377E+03</rscale>
<asrwt>0</asrwt>
<pdfrwt beam="1">  1       21 0.45359404E-02 0.24867377E+03</pdfrwt>
<pdfrwt beam="2">  1       21 0.32674688E+00 0.24867377E+03</pdfrwt>
<totfact> 0.71559286E+03</totfact>
</mgrwt>
</event>
<event>
 4    3  0.4022695E+000  0.1769991E+03  0.7546771E-02  0.1170739E+00
         21   -1    0    0  503  502  0.00000000000E+00  0.00000000000E+00  0.54205584067E+03  0.54205584067E+03  0.00000000000E+00 0.  1.
         21   -1    0    0  501  503 -0.00000000000E+00 -0.00000000000E+00 -0.82849639366E+02  0.82849639366E+02  0.00000000000E+00 0.  1.
          6    1    1    2  501    0  0.29095637729E+02 -0.23518459399E+02  0.57782907804E+02  0.18619220849E+03  0.17300000000E+03 0.  1.
         -6    1    1    2    0  502 -0.29095637729E+02  0.23518459399E+02  0.40142329350E+03  0.43871327154E+03  0.17300000000E+03 0.  1.
<mgrwt>
<rscale>  2 0.17699908E+03</rscale>
<asrwt>0</asrwt>
<pdfrwt beam="1">  1       21 0.83393204E-01 0.17699908E+03</pdfrwt>
<pdfrwt beam="2">  1       21 0.12746099E-01 0.17699908E+03</pdfrwt>
<totfact> 0.66386805E+04</totfact>
</mgrwt>
</event>
<event>
 4    3  0.4022695E+000  0.1939724E+03  0.7546771E-02  0.1154927E+00
         21   -1    0    0  503  502  0.00000000000E+00  0.00000000000E+00  0.35560241932E+03  0.35560241932E+03  0.00000000000E+00 0. -1.
         21   -1    0    0  501  503 -0.00000000000E+00 -0.00000000000E+00 -0.32647502006E+03  0.32647502006E+03  0.00000000000E+00 0. -1.
          6    1    1    2  501    0 -0.77246929710E+02  0.41583644566E+02 -0.26581707865E+03  0.32906535361E+03  0.17300000000E+03 0. -1.
         -6    1    1    2    0  502  0.77246929710E+02 -0.41583644566E+02  0.29494447791E+03  0.35301208576E+03  0.17300000000E+03 0. -1.
<mgrwt>
<rscale>  2 0.19397239E+03</rscale>
<asrwt>0</asrwt>
<pdfrwt beam="1">  1       21 0.54708065E-01 0.19397239E+03</pdfrwt>
<pdfrwt beam="2">  1       21 0.50226926E-01 0.19397239E+03</pdfrwt>
<totfact> 0.11897111E+04</totfact>
</mgrwt>
</event>
<event>
 4    3  0.4022695E+000  0.2154942E+03  0.7546771E-02  0.1137288E+00
         21   -1    0    0  503  502  0.00000000000E+00  0.00000000000E+00  0.91770548939E+02  0.91770548939E+02  0.00000000000E+00 0. -1.
         21   -1    0    0  501  503 -0.00000000000E+00 -0.00000000000E+00 -0.66503073524E+03  0.66503073524E+03  0.00000000000E+00 0.  1.
          6    1    1    2  501    0  0.92110455902E+02 -0.89579104554E+02 -0.47166085963E+03  0.51855734357E+03  0.17300000000E+03 0.  1.
         -6    1    1    2    0  502 -0.92110455902E+02  0.89579104554E+02 -0.10159932667E+03  0.23824394061E+03  0.17300000000E+03 0. -1.
<mgrwt>
<rscale>  2 0.21549420E+03</rscale>
<asrwt>0</asrwt>
<pdfrwt beam="1">  1       21 0.14118546E-01 0.21549420E+03</pdfrwt>
<pdfrwt beam="2">  1       21 0.10231242E+00 0.21549420E+03</pdfrwt>
<totfact> 0.33618677E+04</totfact>
</mgrwt>
</event>
<event>
 4    3  0.4022695E+000  0.2479470E+03  0.7546771E-02  0.1114609E+00
         21   -1    0    0  501  502  0.00000000000E+00  0.00000000000E+00  0.43900172648E+03  0.43900172648E+03  0.00000000000E+00 0. -1.
         21   -1    0    0  502  503 -0.00000000000E+00 -0.00000000000E+00 -0.14357412577E+03  0.14357412577E+03  0.00000000000E+00 0. -1.
          6    1    1    2  501    0  0.13807064982E+03 -0.11173717653E+03  0.10201134815E+03  0.26811194698E+03  0.17300000000E+03 0. -1.
         -6    1    1    2    0  503 -0.13807064982E+03  0.11173717653E+03  0.19341625256E+03  0.31446390526E+03  0.17300000000E+03 0. -1.
<mgrwt>
<rscale>  2 0.24794697E+03</rscale>
<asrwt>0</asrwt>
<pdfrwt beam="1">  1       21 0.67538726E-01 0.24794697E+03</pdfrwt>
<pdfrwt beam="2">  1       21 0.22088327E-01 0.24794697E+03</pdfrwt>
<totfact> 0.37391227E+04</totfact>
</mgrwt>
</event>
<event>
 4    3  0.4022695E+000  0.1884672E+03  0.7546771E-02  0.1159851E+00
         21   -1    0    0  501  502  0.00000000000E+00  0.00000000000E+00  0.11620807060E+03  0.11620807060E+03  0.00000000000E+00 0.  1.
         21   -1    0    0  502  503 -0.00000000000E+00 -0.00000000000E+00 -0.38808674104E+03  0.38808674104E+03  0.00000000000E+00 0.  1.
          6    1    1    2  501    0 -0.69097798935E+02  0.28572354318E+02 -0.19732849146E+02  0.18949741577E+03  0.17300000000E+03 0.  1.
         -6    1    1    2    0  503  0.69097798935E+02 -0.28572354318E+02 -0.25214582130E+03  0.31479739587E+03  0.17300000000E+03 0.  1.
<mgrwt>
<rscale>  2 0.18846720E+03</rscale>
<asrwt>0</asrwt>
<pdfrwt beam="1">  1       21 0.17878165E-01 0.18846720E+03</pdfrwt>
<pdfrwt beam="2">  1       21 0.59705653E-01 0.18846720E+03</pdfrwt>
<totfact> 0.74582113E+04</totfact>
</mgrwt>
</event>
<event>
 4    3  0.4022695E+000  0.1873404E+03  0.7546771E-02  0.1160882E+00
         21   -1    0    0  503  502  0.00000000000E+00  0.00000000000E+00  0.37099940875E+03  0.37099940875E+03  0.00000000000E+00 0. -1.
         21   -1    0    0  501  503 -0.00000000000E+00 -0.00000000000E+00 -0.18563687100E+03  0.18563687100E+03  0.00000000000E+00 0. -1.
          6    1    1    2  501    0  0.53101660379E+02 -0.48452319061E+02 -0.10222189702E+03  0.21341445543E+03  0.17300000000E+03 0. -1.
         -6    1    1    2    0  502 -0.53101660379E+02  0.48452319061E+02  0.28758443478E+03  0.34322182431E+03  0.17300000000E+03 0. -1.
<mgrwt>
<rscale>  2 0.18734037E+03</rscale>
<asrwt>0</asrwt>
<pdfrwt beam="1">  1       21 0.57076832E-01 0.18734037E+03</pdfrwt>
<pdfrwt beam="2">  1       21 0.28559519E-01 0.18734037E+03</pdfrwt>
<totfact> 0.33902147E+04</totfact>
</mgrwt>
</event>
<event>
 4    3  0.4022695E+000  0.1848355E+03  0.7546771E-02  0.1163204E+00
         21   -1    0    0  503  502  0.00000000000E+00  0.00000000000E+00  0.50681033800E+02  0.50681033800E+02  0.00000000000E+00 0. -1.
         21   -1    0    0  501  503 -0.00000000000E+00 -0.00000000000E+00 -0.12806972293E+04  0.12806972293E+04  0.00000000000E+00 0. -1.
          6    1    1    2  501    0  0.15275241007E+02  0.63260116785E+02 -0.10731476674E+04  0.10889490765E+04  0.17300000000E+03 0. -1.
         -6    1    1    2    0  502 -0.15275241007E+02 -0.63260116785E+02 -0.15686852810E+03  0.24242918651E+03  0.17300000000E+03 0. -1.
<mgrwt>
<rscale>  2 0.18483554E+03</rscale>
<asrwt>0</asrwt>
<pdfrwt beam="1">  1       21 0.77970826E-02 0.18483554E+03</pdfrwt>
<pdfrwt beam="2">  1       21 0.19703033E+00 0.18483554E+03</pdfrwt>
<totfact> 0.17714996E+04</totfact>
</mgrwt>
</event>
<event>
 4    3  0.4022695E+000  0.1981842E+03  0.7546771E-02  0.1151280E+00
         21   -1    0    0  503  502  0.00000000000E+00  0.00000000000E+00  0.12007162253E+03  0.12007162253E+03  0.00000000000E+00 0. -1.
         21   -1    0    0  501  503 -0.00000000000E+00 -0.00000000000E+00 -0.32801557815E+03  0.32801557815E+03  0.00000000000E+00 0. -1.
          6    1    1    2  501    0 -0.96683561007E+02 -0.51574335583E+00 -0.11572504331E+03  0.22949784881E+03  0.17300000000E+03 0.  1.
         -6    1    1    2    0  502  0.96683561007E+02  0.51574335583E+00 -0.92218912311E+02  0.21858935186E+03  0.17300000000E+03 0.  1.
<mgrwt>
<rscale>  2 0.19818420E+03</rscale>
<asrwt>0</asrwt>
<pdfrwt beam="1">  1       21 0.18472558E-01 0.19818420E+03</pdfrwt>
<pdfrwt beam="2">  1       21 0.50463934E-01 0.19818420E+03</pdfrwt>
<totfact> 0.99800639E+04</totfact>
</mgrwt>
</event>
<event>
 4    3  0.4022695E+000  0.3084572E+03  0.7546771E-02  0.1081088E+00
         21   -1    0    0  503  502  0.00000000000E+00  0.00000000000E+00  0.55858337708E+03  0.55858337708E+03  0.00000000000E+00 0.  1.
         21   -1    0    0  501  503 -0.00000000000E+00 -0.00000000000E+00 -0.19443493260E+03  0.19443493260E+03  0.00000000000E+00 0. -1.
          6    1    1    2  501    0  0.10838058484E+03  0.23123683558E+03  0.49516828335E+02  0.31240637251E+03  0.17300000000E+03 0. -1.
         -6    1    1    2    0  502 -0.10838058484E+03 -0.23123683558E+03  0.31463161615E+03  0.44061193717E+03  0.17300000000E+03 0.  1.
<mgrwt>
<rscale>  2 0.30845717E+03</rscale>
<asrwt>0</asrwt>
<pdfrwt beam="1">  1       21 0.85935904E-01 0.30845717E+03</pdfrwt>
<pdfrwt beam="2">  1       21 0.29913067E-01 0.30845717E+03</pdfrwt>
<totfact> 0.11757965E+04</totfact>
</mgrwt>
</event>
<event>
 4    3  0.4022695E+000  0.1761603E+03  0.7546771E-02  0.1171572E+00
         21   -1    0    0  501  502  0.00000000000E+00  0.00000000000E+00  0.11011795743E+04  0.11011795743E+04  0.00000000000E+00 0.  1.
         21   -1    0    0  502  503 -0.00000000000E+00 -0.00000000000E+00 -0.31239434075E+02  0.31239434075E+02  0.00000000000E+00 0.  1.
          6    1    1    2  501    0 -0.28213093423E+02  0.17535149250E+02  0.71213081450E+03  0.73359577225E+03  0.17300000000E+03 0.  1.
         -6    1    1    2    0  503  0.28213093423E+02 -0.17535149250E+02  0.35780932574E+03  0.39882323614E+03  0.17300000000E+03 0.  1.
<mgrwt>
<rscale>  2 0.17616032E+03</rscale>
<asrwt>0</asrwt>
<pdfrwt beam="1">  1       21 0.16941221E+00 0.17616032E+03</pdfrwt>
<pdfrwt beam="2">  1       21 0.48060676E-02 0.17616032E+03</pdfrwt>
<totfact> 0.62550526E+04</totfact>
</mgrwt>
</event>
<event>
 4    3  0.4022695E+000  0.1865318E+03  0.7546771E-02  0.1161627E+00
         21   -1    0    0  501  502  0.00000000000E+00  0.00000000000E+00  0.38593837827E+03  0.38593837827E+03  0.00000000000E+00 0. -1.
         21   -1    0    0  502  503 -0.00000000000E+00 -0.00000000000E+00 -0.20105714151E+03  0.20105714151E+03  0.00000000000E+00 0. -1.
          6    1    1    2  501    0  0.65081788223E+02  0.25089524921E+02  0.31042017840E+03  0.36215302094E+03  0.17300000000E+03 0. -1.
         -6    1    1    2    0  503 -0.65081788223E+02 -0.25089524921E+02 -0.12553894164E+03  0.22484249884E+03  0.17300000000E+03 0. -1.
<mgrwt>
<rscale>  2 0.18653183E+03</rscale>
<asrwt>0</asrwt>
<pdfrwt beam="1">  1       21 0.59375135E-01 0.18653183E+03</pdfrwt>
<pdfrwt beam="2">  1       21 0.30931868E-01 0.18653183E+03</pdfrwt>
<totfact> 0.26692767E+04</totfact>
</mgrwt>
</event>
<event>
 4    3  0.4022695E+000  0.1990805E+03  0.7546771E-02  0.1150517E+00
         21   -1    0    0  503  502  0.00000000000E+00  0.00000000000E+00  0.53019733841E+03  0.53019733841E+03  0.00000000000E+00 0. -1.
         21   -1    0    0  501  503 -0.00000000000E+00 -0.00000000000E+00 -0.88463828473E+02  0.88463828473E+02  0.00000000000E+00 0. -1.
          6    1    1    2  501    0  0.88844474788E+02 -0.42552299557E+02  0.99081188136E+02  0.22237383106E+03  0.17300000000E+03 0.  1.
         -6    1    1    2    0  502 -0.88844474788E+02  0.42552299557E+02  0.34265232180E+03  0.39628733582E+03  0.17300000000E+03 0.  1.
<mgrwt>
<rscale>  2 0.19908048E+03</rscale>
<asrwt>0</asrwt>
<pdfrwt beam="1">  1       21 0.81568820E-01 0.19908048E+03</pdfrwt>
<pdfrwt beam="2">  1       21 0.13609820E-01 0.19908048E+03</pdfrwt>
<totfact> 0.61404935E+04</totfact>
</mgrwt>
</event>
<event>
 4    3  0.4022695E+000  0.2901439E+03  0.7546771E-02  0.1090274E+00
         21   -1    0    0  501  502  0.00000000000E+00  0.00000000000E+00  0.63460828416E+02  0.63460828416E+02  0.00000000000E+00 0. -1.
         21   -1    0    0  502  503 -0.00000000000E+00 -0.00000000000E+00 -0.13267624555E+04  0.13267624555E+04  0.00000000000E+00 0.  1.
          6    1    1    2  501    0  0.55244092304E+02 -0.22627989907E+03 -0.64059557927E+03  0.70323978744E+03  0.17300000000E+03 0.  1.
         -6    1    1    2    0  503 -0.55244092304E+02  0.22627989907E+03 -0.62270604786E+03  0.68698349652E+03  0.17300000000E+03 0. -1.
<mgrwt>
<rscale>  2 0.29014393E+03</rscale>
<asrwt>0</asrwt>
<pdfrwt beam="1">  1       21 0.97632052E-02 0.29014393E+03</pdfrwt>
<pdfrwt beam="2">  1       21 0.20411728E+00 0.29014393E+03</pdfrwt>
<totfact> 0.99896669E+03</totfact>
</mgrwt>
</event>
<event>
 4    3  0.4022695E+000  0.2363652E+03  0.7546771E-02  0.1122238E+00
         21   -1    0    0  503  502  0.00000000000E+00  0.00000000000E+00  0.55168044085E+03  0.55168044085E+03  0.00000000000E+00 0. -1.
         21   -1    0    0  501  503 -0.00000000000E+00 -0.00000000000E+00 -0.10258794134E+03  0.10258794134E+03  0.00000000000E+00 0. -1.
          6    1    1    2  501    0  0.12155643000E+03 -0.10565770011E+03  0.26162921811E+03  0.35258809258E+03  0.17300000000E+03 0. -1.
         -6    1    1    2    0  502 -0.12155643000E+03  0.10565770011E+03  0.18746328140E+03  0.30168028961E+03  0.17300000000E+03 0. -1.
<mgrwt>
<rscale>  2 0.23636522E+03</rscale>
<asrwt>0</asrwt>
<pdfrwt beam="1">  1       21 0.84873912E-01 0.23636522E+03</pdfrwt>
<pdfrwt beam="2">  1       21 0.15782760E-01 0.23636522E+03</pdfrwt>
<totfact> 0.42072925E+04</totfact>
</mgrwt>
</event>
<event>
 4    3  0.4022695E+000  0.1940737E+03  0.7546771E-02  0.1154838E+00
         21   -1    0    0  503  502  0.00000000000E+00  0.00000000000E+00  0.16903906600E+03  0.16903906600E+03  0.00000000000E+00 0.  1.
         21   -1    0    0  501  503 -0.00000000000E+00 -0.00000000000E+00 -0.23759690400E+03  0.23759690400E+03  0.00000000000E+00 0.  1.
          6    1    1    2  501    0  0.66143757775E+01 -0.87703203096E+02 -0.84990423025E+02  0.21186782155E+03  0.17300000000E+03 0. -1.
         -6    1    1    2    0  502 -0.66143757775E+01  0.87703203096E+02  0.16432585020E+02  0.19476814845E+03  0.17300000000E+03 0. -1.
<mgrwt>
<rscale>  2 0.19407370E+03</rscale>
<asrwt>0</asrwt>
<pdfrwt beam="1">  1       21 0.26006010E-01 0.19407370E+03</pdfrwt>
<pdfrwt beam="2">  1       21 0.36553370E-01 0.19407370E+03</pdfrwt>
<totfact> 0.10132807E+05</totfact>
</mgrwt>
</event>
<event>
 4    3  0.4022695E+000  0.2050065E+03  0.7546771E-02  0.1145582E+00
         21   -1    0    0  503  502  0.00000000000E+00  0.00000000000E+00  0.24611418299E+03  0.24611418299E+03  0.00000000000E+00 0.  1.
         21   -1    0    0  501  503 -0.00000000000E+00 -0.00000000000E+00 -0.20242239003E+03  0.20242239003E+03  0.00000000000E+00 0. -1.
          6    1    1    2  501    0 -0.29840412323E+00 -0.10999349099E+03 -0.66844586102E+02  0.21562897717E+03  0.17300000000E+03 0.  1.
         -6    1    1    2    0  502  0.29840412323E+00  0.10999349099E+03  0.11053637907E+03  0.23290759585E+03  0.17300000000E+03 0.  1.
<mgrwt>
<rscale>  2 0.20500648E+03</rscale>
<asrwt>0</asrwt>
<pdfrwt beam="1">  1       21 0.37863721E-01 0.20500648E+03</pdfrwt>
<pdfrwt beam="2">  1       21 0.31141906E-01 0.20500648E+03</pdfrwt>
<totfact> 0.66267854E+04</totfact>
</mgrwt>
</event>
<event>
 4    3  0.4022695E+000  0.2125928E+03  0.7546771E-02  0.1139529E+00
         21   -1    0    0  503  502  0.00000000000E+00  0.00000000000E+00  0.17375441217E+04  0.17375441217E+04  0.00000000000E+00 0.  1.
         21   -1    0    0  501  503 -0.00000000000E+00 -0.00000000000E+00 -0.26553221502E+02  0.26553221502E+02  0.00000000000E+00 0. -1.
          6    1    1    2  501    0 -0.15582295461E+02  0.12257204464E+03  0.72948177874E+03  0.75982851985E+03  0.17300000000E+03 0. -1.
         -6    1    1    2    0  502  0.15582295461E+02 -0.12257204464E+03  0.98150912150E+03  0.10042688234E+04  0.17300000000E+03 0.  1.
<mgrwt>
<rscale>  2 0.21259284E+03</rscale>
<asrwt>0</asrwt>
<pdfrwt beam="1">  1       21 0.26731439E+00 0.21259284E+03</pdfrwt>
<pdfrwt beam="2">  1       21 0.40851124E-02 0.21259284E+03</pdfrwt>
<totfact> 0.19579998E+04</totfact>
</mgrwt>
</event>
<event>
 4    3  0.4022695E+000  0.2703184E+03  0.7546771E-02  0.1101098E+00
         21   -1    0    0  501  502  0.00000000000E+00  0.00000000000E+00  0.15093864675E+03  0.15093864675E+03  0.00000000000E+00 0. -1.
         21   -1    0    0  502  503 -0.00000000000E+00 -0.00000000000E+00 -0.52062259399E+03  0.52062259399E+03  0.00000000000E+00 0. -1.
          6    1    1    2  501    0 -0.28730793741E+02  0.20571240625E+03 -0.95927927640E+02  0.28683483034E+03  0.17300000000E+03 0. -1.
         -6    1    1    2    0  503  0.28730793741E+02 -0.20571240625E+03 -0.27375601960E+03  0.38472641040E+03  0.17300000000E+03 0. -1.
<mgrwt>
<rscale>  2 0.27031843E+03</rscale>
<asrwt>0</asrwt>
<pdfrwt beam="1">  1       21 0.23221331E-01 0.27031843E+03</pdfrwt>
<pdfrwt beam="2">  1       21 0.80095783E-01 0.27031843E+03</pdfrwt>
<totfact> 0.22968367E+04</totfact>
</mgrwt>
</event>
<event>
 4    3  0.4022695E+000  0.3117908E+03  0.7546771E-02  0.1079491E+00
         21   -1    0    0  501  502  0.00000000000E+00  0.00000000000E+00  0.18709579231E+04  0.18709579231E+04  0.00000000000E+00 0.  1.
         21   -1    0    0  502  503 -0.00000000000E+00 -0.00000000000E+00 -0.12322885146E+03  0.12322885146E+03  0.00000000000E+00 0. -1.
          6    1    1    2  501    0 -0.25874797690E+03 -0.18275223554E+02  0.16321485782E+04  0.16616625652E+04  0.17300000000E+03 0.  1.
         -6    1    1    2    0  503  0.25874797690E+03  0.18275223554E+02  0.11558049349E+03  0.33252420937E+03  0.17300000000E+03 0. -1.
<mgrwt>
<rscale>  2 0.31179079E+03</rscale>
<asrwt>0</asrwt>
<pdfrwt beam="1">  1       21 0.28783966E+00 0.31179079E+03</pdfrwt>
<pdfrwt beam="2">  1       21 0.18958286E-01 0.31179079E+03</pdfrwt>
<totfact> 0.90450681E+02</totfact>
</mgrwt>
</event>
<event>
 4    3  0.4022695E+000  0.1767019E+03  0.7546771E-02  0.1171034E+00
         21   -1    0    0  501  502  0.00000000000E+00  0.00000000000E+00  0.28762175675E+03  0.28762175675E+03  0.00000000000E+00 0. -1.
         21   -1    0    0  502  503 -0.00000000000E+00 -0.00000000000E+00 -0.13428190270E+03  0.13428190270E+03  0.00000000000E+00 0. -1.
          6    1    1    2  501    0 -0.30325144639E+02 -0.19364005226E+02 -0.15660500912E+02  0.17739456132E+03  0.17300000000E+03 0.  1.
         -6    1    1    2    0  503  0.30325144639E+02  0.19364005226E+02  0.16900035496E+03  0.24450909814E+03  0.17300000000E+03 0.  1.
<mgrwt>
<rscale>  2 0.17670195E+03</rscale>
<asrwt>0</asrwt>
<pdfrwt beam="1">  1       21 0.44249501E-01 0.17670195E+03</pdfrwt>
<pdfrwt beam="2">  1       21 0.20658754E-01 0.17670195E+03</pdfrwt>
<totfact> 0.10719301E+05</totfact>
</mgrwt>
</event>
<event>
 4    3  0.4022695E+000  0.2086296E+03  0.7546771E-02  0.1142656E+00
         21   -1    0    0  503  502  0.00000000000E+00  0.00000000000E+00  0.91337327562E+03  0.91337327562E+03  0.00000000000E+00 0. -1.
         21   -1    0    0  501  503 -0.00000000000E+00 -0.00000000000E+00 -0.51017244443E+02  0.51017244443E+02  0.00000000000E+00 0. -1.
          6    1    1    2  501    0  0.11293360439E+03 -0.29039824099E+02  0.30737992627E+03  0.37149526169E+03  0.17300000000E+03 0. -1.
         -6    1    1    2    0  502 -0.11293360439E+03  0.29039824099E+02  0.55497610491E+03  0.59289525838E+03  0.17300000000E+03 0. -1.
<mgrwt>
<rscale>  2 0.20862960E+03</rscale>
<asrwt>0</asrwt>
<pdfrwt beam="1">  1       21 0.14051895E+00 0.20862960E+03</pdfrwt>
<pdfrwt beam="2">  1       21 0.78488075E-02 0.20862960E+03</pdfrwt>
<totfact> 0.43570950E+04</totfact>
</mgrwt>
</event>
<event>
 4    3  0.4022695E+000  0.2227491E+03  0.7546771E-02  0.1131850E+00
         21   -1    0    0  503  502  0.00000000000E+00  0.00000000000E+00  0.30218909386E+02  0.30218909386E+02  0.00000000000E+00 0.  1.
         21   -1    0    0  501  503 -0.00000000000E+00 -0.00000000000E+00 -0.17188099187E+04  0.17188099187E+04  0.00000000000E+00 0. -1.
          6    1    1    2  501    0 -0.12332623272E+03  0.66923954887E+02 -0.10292540137E+04  0.10530816683E+04  0.17300000000E+03 0. -1.
         -6    1    1    2    0  502  0.12332623272E+03 -0.66923954887E+02 -0.65933699562E+03  0.69594715978E+03  0.17300000000E+03 0.  1.
<mgrwt>
<rscale>  2 0.22274913E+03</rscale>
<asrwt>0</asrwt>
<pdfrwt beam="1">  1       21 0.46490639E-02 0.22274913E+03</pdfrwt>
<pdfrwt beam="2">  1       21 0.26443224E+00 0.22274913E+03</pdfrwt>
<totfact> 0.16221643E+04</totfact>
</mgrwt>
</event>
<event>
 4    3  0.4022695E+000  0.2354816E+03  0.7546771E-02  0.1122840E+00
         21   -1    0    0  503  502  0.00000000000E+00  0.00000000000E+00  0.91744219049E+03  0.91744219049E+03  0.00000000000E+00 0.  1.
         21   -1    0    0  501  503 -0.00000000000E+00 -0.00000000000E+00 -0.63265562047E+02  0.63265562047E+02  0.00000000000E+00 0. -1.
          6    1    1    2  501    0  0.13764426260E+03 -0.81096492623E+02  0.32348756930E+03  0.40011972163E+03  0.17300000000E+03 0.  1.
         -6    1    1    2    0  502 -0.13764426260E+03  0.81096492623E+02  0.53068905915E+03  0.58058803091E+03  0.17300000000E+03 0.  1.
<mgrwt>
<rscale>  2 0.23548160E+03</rscale>
<asrwt>0</asrwt>
<pdfrwt beam="1">  1       21 0.14114494E+00 0.23548160E+03</pdfrwt>
<pdfrwt beam="2">  1       21 0.97331640E-02 0.23548160E+03</pdfrwt>
<totfact> 0.29087640E+04</totfact>
</mgrwt>
</event>
<event>
 4    3  0.4022695E+000  0.1839823E+03  0.7546771E-02  0.1164004E+00
         21   -1    0    0  501  502  0.00000000000E+00  0.00000000000E+00  0.31198998066E+02  0.31198998066E+02  0.00000000000E+00 0.  1.
         21   -1    0    0  502  503 -0.00000000000E+00 -0.00000000000E+00 -0.12059828836E+04  0.12059828836E+04  0.00000000000E+00 0.  1.
          6    1    1    2  501    0 -0.60451150036E+02 -0.16314224831E+02 -0.78335602505E+03  0.80467145933E+03  0.17300000000E+03 0.  1.
         -6    1    1    2    0  503  0.60451150036E+02  0.16314224831E+02 -0.39142786053E+03  0.43251042238E+03  0.17300000000E+03 0.  1.
<mgrwt>
<rscale>  2 0.18398232E+03</rscale>
<asrwt>0</asrwt>
<pdfrwt beam="1">  1       21 0.47998456E-02 0.18398232E+03</pdfrwt>
<pdfrwt beam="2">  1       21 0.18553584E+00 0.18398232E+03</pdfrwt>
<totfact> 0.48395419E+04</totfact>
</mgrwt>
</event>
<event>
 4    3  0.4022695E+000  0.2057815E+03  0.7546771E-02  0.1144951E+00
         21   -1    0    0  503  502  0.00000000000E+00  0.00000000000E+00  0.16293354494E+03  0.16293354494E+03  0.00000000000E+00 0.  1.
         21   -1    0    0  501  503 -0.00000000000E+00 -0.00000000000E+00 -0.62525488671E+03  0.62525488671E+03  0.00000000000E+00 0.  1.
          6    1    1    2  501    0  0.87695771089E+02 -0.68749305752E+02 -0.53241304642E+03  0.57079739603E+03  0.17300000000E+03 0.  1.
         -6    1    1    2    0  502 -0.87695771089E+02  0.68749305752E+02  0.70091704658E+02  0.21739103563E+03  0.17300000000E+03 0.  1.
<mgrwt>
<rscale>  2 0.20578147E+03</rscale>
<asrwt>0</asrwt>
<pdfrwt beam="1">  1       21 0.25066699E-01 0.20578147E+03</pdfrwt>
<pdfrwt beam="2">  1       21 0.96193059E-01 0.20578147E+03</pdfrwt>
<totfact> 0.13439784E+04</totfact>
</mgrwt>
</event>
<event>
 4    3  0.4022695E+000  0.1913838E+03  0.7546771E-02  0.1157219E+00
         21   -1    0    0  501  502  0.00000000000E+00  0.00000000000E+00  0.23803330886E+03  0.23803330886E+03  0.00000000000E+00 0.  1.
         21   -1    0    0  502  503 -0.00000000000E+00 -0.00000000000E+00 -0.22572716000E+03  0.22572716000E+03  0.00000000000E+00 0.  1.
          6    1    1    2  501    0  0.14164235765E+02  0.80611034677E+02  0.13697688538E+03  0.23535171896E+03  0.17300000000E+03 0.  1.
         -6    1    1    2    0  503 -0.14164235765E+02 -0.80611034677E+02 -0.12467073653E+03  0.22840874991E+03  0.17300000000E+03 0.  1.
<mgrwt>
<rscale>  2 0.19138381E+03</rscale>
<asrwt>0</asrwt>
<pdfrwt beam="1">  1       21 0.36620509E-01 0.19138381E+03</pdfrwt>
<pdfrwt beam="2">  1       21 0.34727255E-01 0.19138381E+03</pdfrwt>
<totfact> 0.57512747E+04</totfact>
</mgrwt>
</event>
<event>
 4    3  0.4022695E+000  0.1916882E+03  0.7546771E-02  0.1156947E+00
         21   -1    0    0  501  502  0.00000000000E+00  0.00000000000E+00  0.84182259327E+02  0.84182259327E+02  0.00000000000E+00 0.  1.
         21   -1    0    0  502  503 -0.00000000000E+00 -0.00000000000E+00 -0.66502475547E+03  0.66502475547E+03  0.00000000000E+00 0. -1.
          6    1    1    2  501    0  0.81708264506E+02 -0.11794471517E+02 -0.51002167180E+03  0.54485452715E+03  0.17300000000E+03 0. -1.
         -6    1    1    2    0  503 -0.81708264506E+02  0.11794471517E+02 -0.70820824340E+02  0.20435248765E+03  0.17300000000E+03 0.  1.
<mgrwt>
<rscale>  2 0.19168816E+03</rscale>
<asrwt>0</asrwt>
<pdfrwt beam="1">  1       21 0.12951117E-01 0.19168816E+03</pdfrwt>
<pdfrwt beam="2">  1       21 0.10231150E+00 0.19168816E+03</pdfrwt>
<totfact> 0.39809111E+04</totfact>
</mgrwt>
</event>
<event>
 4    3  0.4022695E+000  0.2050793E+03  0.7546771E-02  0.1145523E+00
         21   -1    0    0  501  502  0.00000000000E+00  0.00000000000E+00  0.45188601482E+03  0.45188601482E+03  0.00000000000E+00 0.  1.
         21   -1    0    0  502  503 -0.00000000000E+00 -0.00000000000E+00 -0.95696105287E+02  0.95696105287E+02  0.00000000000E+00 0.  1.
          6    1    1    2  501    0 -0.40731981455E+01 -0.11005428811E+03  0.22344060272E+03  0.30328738882E+03  0.17300000000E+03 0.  1.
         -6    1    1    2    0  503  0.40731981455E+01  0.11005428811E+03  0.13274930682E+03  0.24429473129E+03  0.17300000000E+03 0.  1.
<mgrwt>
<rscale>  2 0.20507934E+03</rscale>
<asrwt>0</asrwt>
<pdfrwt beam="1">  1       21 0.69520924E-01 0.20507934E+03</pdfrwt>
<pdfrwt beam="2">  1       21 0.14722478E-01 0.20507934E+03</pdfrwt>
<totfact> 0.75924828E+04</totfact>
</mgrwt>
</event>
<event>
 4    3  0.4022695E+000  0.1934990E+03  0.7546771E-02  0.1155343E+00
         21   -1    0    0  503  502  0.00000000000E+00  0.00000000000E+00  0.36861406839E+03  0.36861406839E+03  0.00000000000E+00 0. -1.
         21   -1    0    0  501  503 -0.00000000000E+00 -0.00000000000E+00 -0.15969467900E+03  0.15969467900E+03  0.00000000000E+00 0. -1.
          6    1    1    2  501    0  0.25269669380E+02 -0.82911346873E+02 -0.54898891199E+02  0.20113611283E+03  0.17300000000E+03 0. -1.
         -6    1    1    2    0  502 -0.25269669380E+02  0.82911346873E+02  0.26381828059E+03  0.32717263456E+03  0.17300000000E+03 0. -1.
<mgrwt>
<rscale>  2 0.19349896E+03</rscale>
<asrwt>0</asrwt>
<pdfrwt beam="1">  1       21 0.56709857E-01 0.19349896E+03</pdfrwt>
<pdfrwt beam="2">  1       21 0.24568412E-01 0.19349896E+03</pdfrwt>
<totfact> 0.45754706E+04</totfact>
</mgrwt>
</event>
<event>
 4    3  0.4022695E+000  0.2133850E+03  0.7546771E-02  0.1138913E+00
         21   -1    0    0  501  502  0.00000000000E+00  0.00000000000E+00  0.79504933037E+03  0.79504933037E+03  0.00000000000E+00 0. -1.
         21   -1    0    0  502  503 -0.00000000000E+00 -0.00000000000E+00 -0.63763620414E+02  0.63763620414E+02  0.00000000000E+00 0. -1.
          6    1    1    2  501    0  0.11739186555E+03 -0.42700093447E+02  0.50266704674E+03  0.54608360895E+03  0.17300000000E+03 0. -1.
         -6    1    1    2    0  503 -0.11739186555E+03  0.42700093447E+02  0.22861866322E+03  0.31272934184E+03  0.17300000000E+03 0. -1.
<mgrwt>
<rscale>  2 0.21338498E+03</rscale>
<asrwt>0</asrwt>
<pdfrwt beam="1">  1       21 0.12231527E+00 0.21338498E+03</pdfrwt>
<pdfrwt beam="2">  1       21 0.98097884E-02 0.21338498E+03</pdfrwt>
<totfact> 0.41798644E+04</totfact>
</mgrwt>
</event>
<event>
 4    3  0.4022695E+000  0.2189777E+03  0.7546771E-02  0.1134648E+00
         21   -1    0    0  503  502  0.00000000000E+00  0.00000000000E+00  0.88676080872E+03  0.88676080872E+03  0.00000000000E+00 0. -1.
         21   -1    0    0  501  503 -0.00000000000E+00 -0.00000000000E+00 -0.56809446145E+02  0.56809446145E+02  0.00000000000E+00 0. -1.
          6    1    1    2  501    0  0.10168635061E+03  0.87647728949E+02  0.51848994928E+03  0.56283484771E+03  0.17300000000E+03 0. -1.
         -6    1    1    2    0  502 -0.10168635061E+03 -0.87647728949E+02  0.31146141330E+03  0.38073540716E+03  0.17300000000E+03 0. -1.
<mgrwt>
<rscale>  2 0.21897771E+03</rscale>
<asrwt>0</asrwt>
<pdfrwt beam="1">  1       21 0.13642473E+00 0.21897771E+03</pdfrwt>
<pdfrwt beam="2">  1       21 0.87399155E-02 0.21897771E+03</pdfrwt>
<totfact> 0.38751492E+04</totfact>
</mgrwt>
</event>
<event>
 4    3  0.4022695E+000  0.3078148E+03  0.7546771E-02  0.1081398E+00
         21   -1    0    0  501  502  0.00000000000E+00  0.00000000000E+00  0.13658465140E+04  0.13658465140E+04  0.00000000000E+00 0. -1.
         21   -1    0    0  502  503 -0.00000000000E+00 -0.00000000000E+00 -0.99587070346E+02  0.99587070346E+02  0.00000000000E+00 0. -1.
          6    1    1    2  501    0  0.87429523356E+02 -0.23911724808E+03  0.10367328211E+04  0.10814642492E+04  0.17300000000E+03 0. -1.
         -6    1    1    2    0  503 -0.87429523356E+02  0.23911724808E+03  0.22952662251E+03  0.38396933514E+03  0.17300000000E+03 0. -1.
<mgrwt>
<rscale>  2 0.30781485E+03</rscale>
<asrwt>0</asrwt>
<pdfrwt beam="1">  1       21 0.21013022E+00 0.30781485E+03</pdfrwt>
<pdfrwt beam="2">  1       21 0.15321089E-01 0.30781485E+03</pdfrwt>
<totfact> 0.39998954E+03</totfact>
</mgrwt>
</event>
<event>
 4    3  0.4022695E+000  0.2082650E+03  0.7546771E-02  0.1142947E+00
         21   -1    0    0  501  502  0.00000000000E+00  0.00000000000E+00  0.24635927804E+03  0.24635927804E+03  0.00000000000E+00 0. -1.
         21   -1    0    0  502  503 -0.00000000000E+00 -0.00000000000E+00 -0.24592057674E+03  0.24592057674E+03  0.00000000000E+00 0. -1.
          6    1    1    2  501    0 -0.92416562142E+02  0.70032019646E+02 -0.13096953865E+03  0.24602301679E+03  0.17300000000E+03 0. -1.
         -6    1    1    2    0  503  0.92416562142E+02 -0.70032019646E+02  0.13140823995E+03  0.24625683800E+03  0.17300000000E+03 0. -1.
<mgrwt>
<rscale>  2 0.20826499E+03</rscale>
<asrwt>0</asrwt>
<pdfrwt beam="1">  1       21 0.37901427E-01 0.20826499E+03</pdfrwt>
<pdfrwt beam="2">  1       21 0.37833935E-01 0.20826499E+03</pdfrwt>
<totfact> 0.44882429E+04</totfact>
</mgrwt>
</event>
<event>
 4    3  0.4022695E+000  0.3219895E+03  0.7546771E-02  0.1074737E+00
         21   -1    0    0  501  502  0.00000000000E+00  0.00000000000E+00  0.47103525683E+03  0.47103525683E+03  0.00000000000E+00 0.  1.
         21   -1    0    0  502  503 -0.00000000000E+00 -0.00000000000E+00 -0.30706005821E+03  0.30706005821E+03  0.00000000000E+00 0. -1.
          6    1    1    2  501    0  0.73630470919E+02 -0.26139392820E+03  0.28902007579E+03  0.43267751982E+03  0.17300000000E+03 0.  1.
         -6    1    1    2    0  503 -0.73630470919E+02  0.26139392820E+03 -0.12504487718E+03  0.34541779522E+03  0.17300000000E+03 0. -1.
<mgrwt>
<rscale>  2 0.32198949E+03</rscale>
<asrwt>0</asrwt>
<pdfrwt beam="1">  1       21 0.72466962E-01 0.32198949E+03</pdfrwt>
<pdfrwt beam="2">  1       21 0.47240009E-01 0.32198949E+03</pdfrwt>
<totfact> 0.68280642E+03</totfact>
</mgrwt>
</event>
<event>
 4    3  0.4022695E+000  0.1956711E+03  0.7546771E-02  0.1153444E+00
         21   -1    0    0  503  502  0.00000000000E+00  0.00000000000E+00  0.21293179783E+03  0.21293179783E+03  0.00000000000E+00 0. -1.
         21   -1    0    0  501  503 -0.00000000000E+00 -0.00000000000E+00 -0.50247497067E+03  0.50247497067E+03  0.00000000000E+00 0. -1.
          6    1    1    2  501    0 -0.11326826743E+02  0.90718637721E+02 -0.43141505669E+03  0.47371523025E+03  0.17300000000E+03 0. -1.
         -6    1    1    2    0  502  0.11326826743E+02 -0.90718637721E+02  0.14187188385E+03  0.24169153825E+03  0.17300000000E+03 0. -1.
<mgrwt>
<rscale>  2 0.19567107E+03</rscale>
<asrwt>0</asrwt>
<pdfrwt beam="1">  1       21 0.32758738E-01 0.19567107E+03</pdfrwt>
<pdfrwt beam="2">  1       21 0.77303841E-01 0.19567107E+03</pdfrwt>
<totfact> 0.13300339E+04</totfact>
</mgrwt>
</event>
<event>
 4    3  0.4022695E+000  0.3103468E+03  0.7546771E-02  0.1080180E+00
         21   -1    0    0  503  502  0.00000000000E+00  0.00000000000E+00  0.81495983246E+03  0.81495983246E+03  0.00000000000E+00 0. -1.
         21   -1    0    0  501  503 -0.00000000000E+00 -0.00000000000E+00 -0.14728356202E+03  0.14728356202E+03  0.00000000000E+00 0.  1.
          6    1    1    2  501    0  0.19308805169E+03  0.17059636547E+03  0.11998189869E+03  0.33273228222E+03  0.17300000000E+03 0.  1.
         -6    1    1    2    0  502 -0.19308805169E+03 -0.17059636547E+03  0.54769437175E+03  0.62951111226E+03  0.17300000000E+03 0. -1.
<mgrwt>
<rscale>  2 0.31034677E+03</rscale>
<asrwt>0</asrwt>
<pdfrwt beam="1">  1       21 0.12537843E+00 0.31034677E+03</pdfrwt>
<pdfrwt beam="2">  1       21 0.22659010E-01 0.31034677E+03</pdfrwt>
<totfact> 0.80520174E+03</totfact>
</mgrwt>
</event>
<event>
 4    3  0.4022695E+000  0.1953775E+03  0.7546771E-02  0.1153699E+00
         21   -1    0    0  503  502  0.00000000000E+00  0.00000000000E+00  0.88902443092E+03  0.88902443092E+03  0.00000000000E+00 0.  1.
         21   -1    0    0  501  503 -0.00000000000E+00 -0.00000000000E+00 -0.42960678103E+02  0.42960678103E+02  0.00000000000E+00 0.  1.
          6    1    1    2  501    0  0.78717529321E+02 -0.45243015156E+02  0.43388371809E+03  0.47584394571E+03  0.17300000000E+03 0.  1.
         -6    1    1    2    0  502 -0.78717529321E+02  0.45243015156E+02  0.41218003472E+03  0.45614116331E+03  0.17300000000E+03 0.  1.
<mgrwt>
<rscale>  2 0.19537753E+03</rscale>
<asrwt>0</asrwt>
<pdfrwt beam="1">  1       21 0.13677298E+00 0.19537753E+03</pdfrwt>
<pdfrwt beam="2">  1       21 0.66093357E-02 0.19537753E+03</pdfrwt>
<totfact> 0.63373505E+04</totfact>
</mgrwt>
</event>
<event>
 4    3  0.4022695E+000  0.1759437E+03  0.7546771E-02  0.1171787E+00
         21   -1    0    0  503  502  0.00000000000E+00  0.00000000000E+00  0.24059259585E+03  0.24059259585E+03  0.00000000000E+00 0.  1.
         21   -1    0    0  501  503 -0.00000000000E+00 -0.00000000000E+00 -0.13825157404E+03  0.13825157404E+03  0.00000000000E+00 0.  1.
          6    1    1    2  501    0  0.29486079775E+02 -0.12560155123E+02  0.12940914980E+01  0.17594846140E+03  0.17300000000E+03 0.  1.
         -6    1    1    2    0  502 -0.29486079775E+02  0.12560155123E+02  0.10104693031E+03  0.20289570849E+03  0.17300000000E+03 0.  1.
<mgrwt>
<rscale>  2 0.17594370E+03</rscale>
<asrwt>0</asrwt>
<pdfrwt beam="1">  1       21 0.37014245E-01 0.17594370E+03</pdfrwt>
<pdfrwt beam="2">  1       21 0.21269473E-01 0.17594370E+03</pdfrwt>
<totfact> 0.14559450E+05</totfact>
</mgrwt>
</event>
<event>
 4    3  0.4022695E+000  0.1861659E+03  0.7546771E-02  0.1161966E+00
         21   -1    0    0  501  502  0.00000000000E+00  0.00000000000E+00  0.13959620767E+03  0.13959620767E+03  0.00000000000E+00 0.  1.
         21   -1    0    0  502  503 -0.00000000000E+00 -0.00000000000E+00 -0.24907743503E+03  0.24907743503E+03  0.00000000000E+00 0.  1.
          6    1    1    2  501    0 -0.64687181246E+02  0.23330583644E+02 -0.65795688922E+02  0.19745080459E+03  0.17300000000E+03 0.  1.
         -6    1    1    2    0  503  0.64687181246E+02 -0.23330583644E+02 -0.43685538440E+02  0.19122283812E+03  0.17300000000E+03 0.  1.
<mgrwt>
<rscale>  2 0.18616591E+03</rscale>
<asrwt>0</asrwt>
<pdfrwt beam="1">  1       21 0.21476340E-01 0.18616591E+03</pdfrwt>
<pdfrwt beam="2">  1       21 0.38319605E-01 0.18616591E+03</pdfrwt>
<totfact> 0.13294173E+05</totfact>
</mgrwt>
</event>
<event>
 4    3  0.4022695E+000  0.1877967E+03  0.7546771E-02  0.1160464E+00
         21   -1    0    0  503  502  0.00000000000E+00  0.00000000000E+00  0.37630156191E+03  0.37630156191E+03  0.00000000000E+00 0.  1.
         21   -1    0    0  501  503 -0.00000000000E+00 -0.00000000000E+00 -0.13064193927E+03  0.13064193927E+03  0.00000000000E+00 0.  1.
          6    1    1    2  501    0  0.60616191834E+02 -0.40795623092E+02 -0.11917704282E+02  0.18817448619E+03  0.17300000000E+03 0.  1.
         -6    1    1    2    0  502 -0.60616191834E+02  0.40795623092E+02  0.25757732692E+03  0.31876901500E+03  0.17300000000E+03 0.  1.
<mgrwt>
<rscale>  2 0.18779671E+03</rscale>
<asrwt>0</asrwt>
<pdfrwt beam="1">  1       21 0.57892547E-01 0.18779671E+03</pdfrwt>
<pdfrwt beam="2">  1       21 0.20098760E-01 0.18779671E+03</pdfrwt>
<totfact> 0.64116613E+04</totfact>
</mgrwt>
</event>
<event>
 4    3  0.4022695E+000  0.2607080E+03  0.7546771E-02  0.1106719E+00
         21   -1    0    0  501  502  0.00000000000E+00  0.00000000000E+00  0.32301603100E+03  0.32301603100E+03  0.00000000000E+00 0.  1.
         21   -1    0    0  502  503 -0.00000000000E+00 -0.00000000000E+00 -0.33196773938E+03  0.33196773938E+03  0.00000000000E+00 0. -1.
          6    1    1    2  501    0 -0.15653434162E+03  0.11634706266E+03  0.19368972712E+03  0.32478354252E+03  0.17300000000E+03 0.  1.
         -6    1    1    2    0  503  0.15653434162E+03 -0.11634706266E+03 -0.20264143550E+03  0.33020022786E+03  0.17300000000E+03 0. -1.
<mgrwt>
<rscale>  2 0.26070796E+03</rscale>
<asrwt>0</asrwt>
<pdfrwt beam="1">  1       21 0.49694774E-01 0.26070796E+03</pdfrwt>
<pdfrwt beam="2">  1       21 0.51071960E-01 0.26070796E+03</pdfrwt>
<totfact> 0.13528581E+04</totfact>
</mgrwt>
</event>
<event>
 4    3  0.4022695E+000  0.1770312E+03  0.7546771E-02  0.1170708E+00
         21   -1    0    0  503  502  0.00000000000E+00  0.00000000000E+00  0.25969143228E+02  0.25969143228E+02  0.00000000000E+00 0. -1.
         21   -1    0    0  501  503 -0.00000000000E+00 -0.00000000000E+00 -0.12152773323E+04  0.12152773323E+04  0.00000000000E+00 0. -1.
          6    1    1    2  501    0  0.25567734947E+02 -0.27519573087E+02 -0.54287529596E+03  0.57101105325E+03  0.17300000000E+03 0. -1.
         -6    1    1    2    0  502 -0.25567734947E+02  0.27519573087E+02 -0.64643289309E+03  0.67023542226E+03  0.17300000000E+03 0. -1.
<mgrwt>
<rscale>  2 0.17703117E+03</rscale>
<asrwt>0</asrwt>
<pdfrwt beam="1">  1       21 0.39952534E-02 0.17703117E+03</pdfrwt>
<pdfrwt beam="2">  1       21 0.18696572E+00 0.17703117E+03</pdfrwt>
<totfact> 0.64744700E+04</totfact>
</mgrwt>
</event>
<event>
 4    3  0.4022695E+000  0.1851445E+03  0.7546771E-02  0.1162915E+00
         21   -1    0    0  501  502  0.00000000000E+00  0.00000000000E+00  0.12045974756E+03  0.12045974756E+03  0.00000000000E+00 0.  1.
         21   -1    0    0  502  503 -0.00000000000E+00 -0.00000000000E+00 -0.29442547581E+03  0.29442547581E+03  0.00000000000E+00 0. -1.
          6    1    1    2  501    0 -0.65314018251E+02 -0.91417565536E+01 -0.49017815437E+02  0.19152346834E+03  0.17300000000E+03 0.  1.
         -6    1    1    2    0  503  0.65314018251E+02  0.91417565536E+01 -0.12494791282E+03  0.22336175503E+03  0.17300000000E+03 0. -1.
<mgrwt>
<rscale>  2 0.18514452E+03</rscale>
<asrwt>0</asrwt>
<pdfrwt beam="1">  1       21 0.18532269E-01 0.18514452E+03</pdfrwt>
<pdfrwt beam="2">  1       21 0.45296227E-01 0.18514452E+03</pdfrwt>
<totfact> 0.12469011E+05</totfact>
</mgrwt>
</event>
<event>
 4    3  0.4022695E+000  0.2508914E+03  0.7546771E-02  0.1112743E+00
         21   -1    0    0  501  502  0.00000000000E+00  0.00000000000E+00  0.21625242877E+03  0.21625242877E+03  0.00000000000E+00 0.  1.
         21   -1    0    0  502  503 -0.00000000000E+00 -0.00000000000E+00 -0.29114144291E+03  0.29114144291E+03  0.00000000000E+00 0.  1.
          6    1    1    2  501    0  0.17583042614E+03 -0.45838151790E+02 -0.33720072585E+02  0.25314722635E+03  0.17300000000E+03 0.  1.
         -6    1    1    2    0  503 -0.17583042614E+03  0.45838151790E+02 -0.41168941555E+02  0.25424664533E+03  0.17300000000E+03 0.  1.
<mgrwt>
<rscale>  2 0.25089136E+03</rscale>
<asrwt>0</asrwt>
<pdfrwt beam="1">  1       21 0.33269605E-01 0.25089136E+03</pdfrwt>
<pdfrwt beam="2">  1       21 0.44790991E-01 0.25089136E+03</pdfrwt>
<totfact> 0.40506942E+04</totfact>
</mgrwt>
</event>
<event>
 4    3  0.4022695E+000  0.2110499E+03  0.7546771E-02  0.1140737E+00
         21   -1    0    0  503  502  0.00000000000E+00  0.00000000000E+00  0.18208460642E+03  0.18208460642E+03  0.00000000000E+00 0.  1.
         21   -1    0    0  501  503 -0.00000000000E+00 -0.00000000000E+00 -0.31413985283E+03  0.31413985283E+03  0.00000000000E+00 0.  1.
          6    1    1    2  501    0  0.87479169306E+02  0.83429307676E+02 -0.18274410528E+03  0.27917281826E+03  0.17300000000E+03 0. -1.
         -6    1    1    2    0  502 -0.87479169306E+02 -0.83429307676E+02  0.50688858867E+02  0.21705164099E+03  0.17300000000E+03 0. -1.
<mgrwt>
<rscale>  2 0.21104989E+03</rscale>
<asrwt>0</asrwt>
<pdfrwt beam="1">  1       21 0.28013017E-01 0.21104989E+03</pdfrwt>
<pdfrwt beam="2">  1       21 0.48329208E-01 0.21104989E+03</pdfrwt>
<totfact> 0.49338575E+04</totfact>
</mgrwt>
</event>
<event>
 4    3  0.4022695E+000  0.2003031E+03  0.7546771E-02  0.1149484E+00
         21   -1    0    0  503  502  0.00000000000E+00  0.00000000000E+00  0.75984122295E+03  0.75984122295E+03  0.00000000000E+00 0.  1.
         21   -1    0    0  501  503 -0.00000000000E+00 -0.00000000000E+00 -0.54926865682E+02  0.54926865682E+02  0.00000000000E+00 0.  1.
          6    1    1    2  501    0  0.11300682627E+02 -0.10032256503E+03  0.43257927431E+03  0.47670342042E+03  0.17300000000E+03 0.  1.
         -6    1    1    2    0  502 -0.11300682627E+02  0.10032256503E+03  0.27233508296E+03  0.33806466821E+03  0.17300000000E+03 0.  1.
<mgrwt>
<rscale>  2 0.20030308E+03</rscale>
<asrwt>0</asrwt>
<pdfrwt beam="1">  1       21 0.11689864E+00 0.20030308E+03</pdfrwt>
<pdfrwt beam="2">  1       21 0.84502876E-02 0.20030308E+03</pdfrwt>
<totfact> 0.61202294E+04</totfact>
</mgrwt>
</event>
<event>
 4    3  0.4022695E+000  0.2189082E+03  0.7546771E-02  0.1134700E+00
         21   -1    0    0  501  502  0.00000000000E+00  0.00000000000E+00  0.36469384678E+03  0.36469384678E+03  0.00000000000E+00 0.  1.
         21   -1    0    0  502  503 -0.00000000000E+00 -0.00000000000E+00 -0.27084008225E+03  0.27084008225E+03  0.00000000000E+00 0.  1.
          6    1    1    2  501    0  0.21476356158E+02  0.13240305107E+03  0.27493271783E+03  0.35143818964E+03  0.17300000000E+03 0.  1.
         -6    1    1    2    0  503 -0.21476356158E+02 -0.13240305107E+03 -0.18107895331E+03  0.28409573938E+03  0.17300000000E+03 0.  1.
<mgrwt>
<rscale>  2 0.21890820E+03</rscale>
<asrwt>0</asrwt>
<pdfrwt beam="1">  1       21 0.56106745E-01 0.21890820E+03</pdfrwt>
<pdfrwt beam="2">  1       21 0.41667705E-01 0.21890820E+03</pdfrwt>
<totfact> 0.16318260E+04</totfact>
</mgrwt>
</event>
<event>
 4    3  0.4022695E+000  0.1818468E+03  0.7546771E-02  0.1166028E+00
         21   -1    0    0  503  502  0.00000000000E+00  0.00000000000E+00  0.49468915320E+03  0.49468915320E+03  0.00000000000E+00 0.  1.
         21   -1    0    0  501  503 -0.00000000000E+00 -0.00000000000E+00 -0.18416706392E+03  0.18416706392E+03  0.00000000000E+00 0.  1.
          6    1    1    2  501    0 -0.67864467938E+01  0.55616593410E+02 -0.11565130770E+03  0.21550750867E+03  0.17300000000E+03 0.  1.
         -6    1    1    2    0  502  0.67864467938E+01 -0.55616593410E+02  0.42617339698E+03  0.46334870844E+03  0.17300000000E+03 0.  1.
<mgrwt>
<rscale>  2 0.18184681E+03</rscale>
<asrwt>0</asrwt>
<pdfrwt beam="1">  1       21 0.76106023E-01 0.18184681E+03</pdfrwt>
<pdfrwt beam="2">  1       21 0.28333395E-01 0.18184681E+03</pdfrwt>
<totfact> 0.18444219E+04</totfact>
</mgrwt>
</event>
<event>
 4    3  0.4022695E+000  0.1757269E+03  0.7546771E-02  0.1172004E+00
         21   -1    0    0  501  502  0.00000000000E+00  0.00000000000E+00  0.53189625661E+03  0.53189625661E+03  0.00000000000E+00 0.  1.
         21   -1    0    0  502  503 -0.00000000000E+00 -0.00000000000E+00 -0.17765009823E+03  0.17765009823E+03  0.00000000000E+00 0.  1.
          6    1    1    2  501    0  0.28118145021E+02 -0.12661835433E+02  0.46820973783E+03  0.50010030070E+03  0.17300000000E+03 0.  1.
         -6    1    1    2    0  503 -0.28118145021E+02  0.12661835433E+02 -0.11396357945E+03  0.20944605414E+03  0.17300000000E+03 0.  1.
<mgrwt>
<rscale>  2 0.17572692E+03</rscale>
<asrwt>0</asrwt>
<pdfrwt beam="1">  1       21 0.81830193E-01 0.17572692E+03</pdfrwt>
<pdfrwt beam="2">  1       21 0.27330785E-01 0.17572692E+03</pdfrwt>
<totfact> 0.16861513E+04</totfact>
</mgrwt>
</event>
<event>
 4    3  0.4022695E+000  0.1860458E+03  0.7546771E-02  0.1162077E+00
         21   -1    0    0  503  502  0.00000000000E+00  0.00000000000E+00  0.76394466355E+02  0.76394466355E+02  0.00000000000E+00 0. -1.
         21   -1    0    0  501  503 -0.00000000000E+00 -0.00000000000E+00 -0.86776696352E+03  0.86776696352E+03  0.00000000000E+00 0. -1.
          6    1    1    2  501    0  0.38629917113E+02  0.56495825936E+02 -0.72202843727E+03  0.74561257572E+03  0.17300000000E+03 0. -1.
         -6    1    1    2    0  502 -0.38629917113E+02 -0.56495825936E+02 -0.69344059898E+02  0.19854885416E+03  0.17300000000E+03 0. -1.
<mgrwt>
<rscale>  2 0.18604582E+03</rscale>
<asrwt>0</asrwt>
<pdfrwt beam="1">  1       21 0.11752995E-01 0.18604582E+03</pdfrwt>
<pdfrwt beam="2">  1       21 0.13350261E+00 0.18604582E+03</pdfrwt>
<totfact> 0.24714742E+04</totfact>
</mgrwt>
</event>
<event>
 4    3  0.4022695E+000  0.2365216E+03  0.7546771E-02  0.1122132E+00
         21   -1    0    0  501  502  0.00000000000E+00  0.00000000000E+00  0.87786716478E+02  0.87786716478E+02  0.00000000000E+00 0.  1.
         21   -1    0    0  502  503 -0.00000000000E+00 -0.00000000000E+00 -0.69579680559E+03  0.69579680559E+03  0.00000000000E+00 0.  1.
          6    1    1    2  501    0 -0.25855741908E+02  0.15920093043E+03 -0.19036012406E+03  0.30361065935E+03  0.17300000000E+03 0.  1.
         -6    1    1    2    0  503  0.25855741908E+02 -0.15920093043E+03 -0.41764996504E+03  0.47997286271E+03  0.17300000000E+03 0.  1.
<mgrwt>
<rscale>  2 0.23652158E+03</rscale>
<asrwt>0</asrwt>
<pdfrwt beam="1">  1       21 0.13505649E-01 0.23652158E+03</pdfrwt>
<pdfrwt beam="2">  1       21 0.10704566E+00 0.23652158E+03</pdfrwt>
<totfact> 0.32329184E+04</totfact>
</mgrwt>
</event>
<event>
 4    3  0.4022695E+000  0.1733488E+03  0.7546771E-02  0.1174400E+00
         21   -1    0    0  501  502  0.00000000000E+00  0.00000000000E+00  0.14883338757E+02  0.14883338757E+02  0.00000000000E+00 0.  1.
         21   -1    0    0  502  503 -0.00000000000E+00 -0.00000000000E+00 -0.26026252271E+04  0.26026252271E+04  0.00000000000E+00 0.  1.
          6    1    1    2  501    0  0.10507735008E+02  0.32259146463E+01 -0.19136121528E+04  0.19214477069E+04  0.17300000000E+03 0.  1.
         -6    1    1    2    0  503 -0.10507735008E+02 -0.32259146463E+01 -0.67412973545E+03  0.69606085886E+03  0.17300000000E+03 0.  1.
<mgrwt>
<rscale>  2 0.17334884E+03</rscale>
<asrwt>0</asrwt>
<pdfrwt beam="1">  1       21 0.22897439E-02 0.17334884E+03</pdfrwt>
<pdfrwt beam="2">  1       21 0.40040396E+00 0.17334884E+03</pdfrwt>
<totfact> 0.87793233E+03</totfact>
</mgrwt>
</event>
<event>
 4    3  0.4022695E+000  0.1898156E+03  0.7546771E-02  0.1158628E+00
         21   -1    0    0  503  502  0.00000000000E+00  0.00000000000E+00  0.62042041240E+02  0.62042041240E+02  0.00000000000E+00 0.  1.
         21   -1    0    0  501  503 -0.00000000000E+00 -0.00000000000E+00 -0.91675690900E+03  0.91675690900E+03  0.00000000000E+00 0.  1.
          6    1    1    2  501    0 -0.18932934140E+02 -0.75779402631E+02 -0.72364969959E+03  0.74813024372E+03  0.17300000000E+03 0.  1.
         -6    1    1    2    0  502  0.18932934140E+02  0.75779402631E+02 -0.13106516817E+03  0.23066870652E+03  0.17300000000E+03 0.  1.
<mgrwt>
<rscale>  2 0.18981563E+03</rscale>
<asrwt>0</asrwt>
<pdfrwt beam="1">  1       21 0.95449294E-02 0.18981563E+03</pdfrwt>
<pdfrwt beam="2">  1       21 0.14103952E+00 0.18981563E+03</pdfrwt>
<totfact> 0.30977999E+04</totfact>
</mgrwt>
</event>
<event>
 4    3  0.4022695E+000  0.2019989E+03  0.7546771E-02  0.1148063E+00
         21   -1    0    0  501  502  0.00000000000E+00  0.00000000000E+00  0.42372510563E+03  0.42372510563E+03  0.00000000000E+00 0. -1.
         21   -1    0    0  502  503 -0.00000000000E+00 -0.00000000000E+00 -0.18352433161E+03  0.18352433161E+03  0.00000000000E+00 0. -1.
          6    1    1    2  501    0  0.30289580092E+02 -0.99785263253E+02  0.32942292913E+03  0.38642337359E+03  0.17300000000E+03 0. -1.
         -6    1    1    2    0  503 -0.30289580092E+02  0.99785263253E+02 -0.89222155109E+02  0.22082606365E+03  0.17300000000E+03 0. -1.
<mgrwt>
<rscale>  2 0.20199890E+03</rscale>
<asrwt>0</asrwt>
<pdfrwt beam="1">  1       21 0.65188478E-01 0.20199890E+03</pdfrwt>
<pdfrwt beam="2">  1       21 0.28234513E-01 0.20199890E+03</pdfrwt>
<totfact> 0.25825905E+04</totfact>
</mgrwt>
</event>
<event>
 4    3  0.4022695E+000  0.2529884E+03  0.7546771E-02  0.1111431E+00
         21   -1    0    0  503  502  0.00000000000E+00  0.00000000000E+00  0.40530488848E+03  0.40530488848E+03  0.00000000000E+00 0. -1.
         21   -1    0    0  501  503 -0.00000000000E+00 -0.00000000000E+00 -0.26046280211E+03  0.26046280211E+03  0.00000000000E+00 0. -1.
          6    1    1    2  501    0 -0.88053150520E+02 -0.16223684456E+03 -0.13645374561E+03  0.28744177800E+03  0.17300000000E+03 0. -1.
         -6    1    1    2    0  502  0.88053150520E+02  0.16223684456E+03  0.28129583198E+03  0.37832591259E+03  0.17300000000E+03 0. -1.
<mgrwt>
<rscale>  2 0.25298844E+03</rscale>
<asrwt>0</asrwt>
<pdfrwt beam="1">  1       21 0.62354598E-01 0.25298844E+03</pdfrwt>
<pdfrwt beam="2">  1       21 0.40071200E-01 0.25298844E+03</pdfrwt>
<totfact> 0.13819562E+04</totfact>
</mgrwt>
</event>
<event>
 4    3  0.4022695E+000  0.1940321E+03  0.7546771E-02  0.1154874E+00
         21   -1    0    0  503  502  0.00000000000E+00  0.00000000000E+00  0.13422637641E+04  0.13422637641E+04  0.00000000000E+00 0. -1.
         21   -1    0    0  501  503 -0.00000000000E+00 -0.00000000000E+00 -0.37198583511E+02  0.37198583511E+02  0.00000000000E+00 0.  1.
          6    1    1    2  501    0  0.48798481626E+02  0.73062818983E+02  0.99461402001E+03  0.10133634669E+04  0.17300000000E+03 0. -1.
         -6    1    1    2    0  502 -0.48798481626E+02 -0.73062818983E+02  0.31045116060E+03  0.36609888070E+03  0.17300000000E+03 0. -1.
<mgrwt>
<rscale>  2 0.19403213E+03</rscale>
<asrwt>0</asrwt>
<pdfrwt beam="1">  1       21 0.20650208E+00 0.19403213E+03</pdfrwt>
<pdfrwt beam="2">  1       21 0.57228600E-02 0.19403213E+03</pdfrwt>
<totfact> 0.26069005E+04</totfact>
</mgrwt>
</event>
<event>
 4    3  0.4022695E+000  0.2457063E+03  0.7546771E-02  0.1116049E+00
         21   -1    0    0  501  502  0.00000000000E+00  0.00000000000E+00  0.14563261969E+04  0.14563261969E+04  0.00000000000E+00 0.  1.
         21   -1    0    0  502  503 -0.00000000000E+00 -0.00000000000E+00 -0.61189683653E+02  0.61189683653E+02  0.00000000000E+00 0. -1.
          6    1    1    2  501    0 -0.92628392594E+02 -0.14785995544E+03  0.11284740964E+04  0.11549135776E+04  0.17300000000E+03 0.  1.
         -6    1    1    2    0  503  0.92628392594E+02  0.14785995544E+03  0.26666241689E+03  0.36260230297E+03  0.17300000000E+03 0. -1.
<mgrwt>
<rscale>  2 0.24570630E+03</rscale>
<asrwt>0</asrwt>
<pdfrwt beam="1">  1       21 0.22405016E+00 0.24570630E+03</pdfrwt>
<pdfrwt beam="2">  1       21 0.94137986E-02 0.24570630E+03</pdfrwt>
<totfact> 0.82084378E+03</totfact>
</mgrwt>
</event>
<event>
 4    3  0.4022695E+000  0.2888568E+03  0.7546771E-02  0.1090948E+00
         21   -1    0    0  501  502  0.00000000000E+00  0.00000000000E+00  0.89023512572E+03  0.89023512572E+03  0.00000000000E+00 0.  1.
         21   -1    0    0  502  503 -0.00000000000E+00 -0.00000000000E+00 -0.94309020842E+02  0.94309020842E+02  0.00000000000E+00 0. -1.
          6    1    1    2  501    0  0.22429027083E+03  0.56596013840E+02  0.43666624418E+03  0.52356054395E+03  0.17300000000E+03 0.  1.
         -6    1    1    2    0  503 -0.22429027083E+03 -0.56596013840E+02  0.35925986069E+03  0.46098360261E+03  0.17300000000E+03 0. -1.
<mgrwt>
<rscale>  2 0.28885677E+03</rscale>
<asrwt>0</asrwt>
<pdfrwt beam="1">  1       21 0.13695924E+00 0.28885677E+03</pdfrwt>
<pdfrwt beam="2">  1       21 0.14509081E-01 0.28885677E+03</pdfrwt>
<totfact> 0.14926224E+04</totfact>
</mgrwt>
</event>
<event>
 4    3  0.4022695E+000  0.1927400E+03  0.7546771E-02  0.1156013E+00
         21   -1    0    0  501  502  0.00000000000E+00  0.00000000000E+00  0.41903411448E+02  0.41903411448E+02  0.00000000000E+00 0. -1.
         21   -1    0    0  502  503 -0.00000000000E+00 -0.00000000000E+00 -0.11096170514E+04  0.11096170514E+04  0.00000000000E+00 0.  1.
          6    1    1    2  501    0  0.72827004815E+02  0.43771409313E+02 -0.27569590985E+03  0.33638808482E+03  0.17300000000E+03 0. -1.
         -6    1    1    2    0  503 -0.72827004815E+02 -0.43771409313E+02 -0.79201773006E+03  0.81513237798E+03  0.17300000000E+03 0.  1.
<mgrwt>
<rscale>  2 0.19274000E+03</rscale>
<asrwt>0</asrwt>
<pdfrwt beam="1">  1       21 0.64466786E-02 0.19274000E+03</pdfrwt>
<pdfrwt beam="2">  1       21 0.17071032E+00 0.19274000E+03</pdfrwt>
<totfact> 0.36772634E+04</totfact>
</mgrwt>
</event>
<event>
 4    3  0.4022695E+000  0.2040308E+03  0.7546771E-02  0.1146382E+00
         21   -1    0    0  503  502  0.00000000000E+00  0.00000000000E+00  0.32848643447E+03  0.32848643447E+03  0.00000000000E+00 0.  1.
         21   -1    0    0  501  503 -0.00000000000E+00 -0.00000000000E+00 -0.16970828114E+03  0.16970828114E+03  0.00000000000E+00 0. -1.
          6    1    1    2  501    0 -0.92885954572E+02 -0.55423668492E+02  0.20474644026E+03  0.28904962963E+03  0.17300000000E+03 0. -1.
         -6    1    1    2    0  502  0.92885954572E+02  0.55423668492E+02 -0.45968286930E+02  0.20914508598E+03  0.17300000000E+03 0. -1.
<mgrwt>
<rscale>  2 0.20403084E+03</rscale>
<asrwt>0</asrwt>
<pdfrwt beam="1">  1       21 0.50536374E-01 0.20403084E+03</pdfrwt>
<pdfrwt beam="2">  1       21 0.26108966E-01 0.20403084E+03</pdfrwt>
<totfact> 0.51660717E+04</totfact>
</mgrwt>
</event>
<event>
 4    3  0.4022695E+000  0.2353825E+03  0.7546771E-02  0.1122908E+00
         21   -1    0    0  503  502  0.00000000000E+00  0.00000000000E+00  0.19474717330E+03  0.19474717330E+03  0.00000000000E+00 0.  1.
         21   -1    0    0  501  503 -0.00000000000E+00 -0.00000000000E+00 -0.16283328654E+04  0.16283328654E+04  0.00000000000E+00 0. -1.
          6    1    1    2  501    0 -0.14219957738E+03 -0.72492663155E+02 -0.15448824390E+04  0.15627113157E+04  0.17300000000E+03 0. -1.
         -6    1    1    2    0  502  0.14219957738E+03  0.72492663155E+02  0.11129674690E+03  0.26036872295E+03  0.17300000000E+03 0.  1.
<mgrwt>
<rscale>  2 0.23538247E+03</rscale>
<asrwt>0</asrwt>
<pdfrwt beam="1">  1       21 0.29961104E-01 0.23538247E+03</pdfrwt>
<pdfrwt beam="2">  1       21 0.25051274E+00 0.23538247E+03</pdfrwt>
<totfact> 0.67079672E+02</totfact>
</mgrwt>
</event>
<event>
 4    3  0.4022695E+000  0.2567032E+03  0.7546771E-02  0.1109140E+00
         21   -1    0    0  503  502  0.00000000000E+00  0.00000000000E+00  0.21714751897E+03  0.21714751897E+03  0.00000000000E+00 0. -1.
         21   -1    0    0  501  503 -0.00000000000E+00 -0.00000000000E+00 -0.30890935790E+03  0.30890935790E+03  0.00000000000E+00 0.  1.
          6    1    1    2  501    0 -0.14316546476E+03  0.12438313360E+03 -0.80802143422E+02  0.26911986290E+03  0.17300000000E+03 0.  1.
         -6    1    1    2    0  502  0.14316546476E+03 -0.12438313360E+03 -0.10959695504E+02  0.25693701398E+03  0.17300000000E+03 0. -1.
<mgrwt>
<rscale>  2 0.25670316E+03</rscale>
<asrwt>0</asrwt>
<pdfrwt beam="1">  1       21 0.33407311E-01 0.25670316E+03</pdfrwt>
<pdfrwt beam="2">  1       21 0.47524516E-01 0.25670316E+03</pdfrwt>
<totfact> 0.35443894E+04</totfact>
</mgrwt>
</event>
<event>
 4    3  0.4022695E+000  0.2024495E+03  0.7546771E-02  0.1147689E+00
         21   -1    0    0  501  502  0.00000000000E+00  0.00000000000E+00  0.48937024240E+02  0.48937024240E+02  0.00000000000E+00 0.  1.
         21   -1    0    0  502  503 -0.00000000000E+00 -0.00000000000E+00 -0.86287863723E+03  0.86287863723E+03  0.00000000000E+00 0.  1.
          6    1    1    2  501    0 -0.10035197848E+03  0.31405204556E+02 -0.32881649992E+03  0.38614258646E+03  0.17300000000E+03 0.  1.
         -6    1    1    2    0  503  0.10035197848E+03 -0.31405204556E+02 -0.48512511307E+03  0.52567307500E+03  0.17300000000E+03 0.  1.
<mgrwt>
<rscale>  2 0.20244952E+03</rscale>
<asrwt>0</asrwt>
<pdfrwt beam="1">  1       21 0.75287740E-02 0.20244952E+03</pdfrwt>
<pdfrwt beam="2">  1       21 0.13275054E+00 0.20244952E+03</pdfrwt>
<totfact> 0.54382990E+04</totfact>
</mgrwt>
</event>
<event>
 4    3  0.4022695E+000  0.1945844E+03  0.7546771E-02  0.1154390E+00
         21   -1    0    0  501  502  0.00000000000E+00  0.00000000000E+00  0.51847702785E+02  0.51847702785E+02  0.00000000000E+00 0. -1.
         21   -1    0    0  502  503 -0.00000000000E+00 -0.00000000000E+00 -0.10662709012E+04  0.10662709012E+04  0.00000000000E+00 0. -1.
          6    1    1    2  501    0 -0.59817010828E+02 -0.66000056213E+02 -0.19338404233E+03  0.27433641762E+03  0.17300000000E+03 0. -1.
         -6    1    1    2    0  503  0.59817010828E+02  0.66000056213E+02 -0.82103915611E+03  0.84378218639E+03  0.17300000000E+03 0. -1.
<mgrwt>
<rscale>  2 0.19458438E+03</rscale>
<asrwt>0</asrwt>
<pdfrwt beam="1">  1       21 0.79765689E-02 0.19458438E+03</pdfrwt>
<pdfrwt beam="2">  1       21 0.16404169E+00 0.19458438E+03</pdfrwt>
<totfact> 0.28340084E+04</totfact>
</mgrwt>
</event>
<event>
 4    3  0.4022695E+000  0.1908411E+03  0.7546771E-02  0.1157705E+00
         21   -1    0    0  501  502  0.00000000000E+00  0.00000000000E+00  0.93797331142E+02  0.93797331142E+02  0.00000000000E+00 0. -1.
         21   -1    0    0  502  503 -0.00000000000E+00 -0.00000000000E+00 -0.64470369567E+03  0.64470369567E+03  0.00000000000E+00 0. -1.
          6    1    1    2  501    0 -0.66674664256E+02  0.45230698804E+02 -0.50832331597E+03  0.54296677664E+03  0.17300000000E+03 0. -1.
         -6    1    1    2    0  503  0.66674664256E+02 -0.45230698804E+02 -0.42583048554E+02  0.19553425018E+03  0.17300000000E+03 0. -1.
<mgrwt>
<rscale>  2 0.19084110E+03</rscale>
<asrwt>0</asrwt>
<pdfrwt beam="1">  1       21 0.14430358E-01 0.19084110E+03</pdfrwt>
<pdfrwt beam="2">  1       21 0.99185187E-01 0.19084110E+03</pdfrwt>
<totfact> 0.35264743E+04</totfact>
</mgrwt>
</event>
<event>
 4    3  0.4022695E+000  0.2311589E+03  0.7546771E-02  0.1125827E+00
         21   -1    0    0  503  502  0.00000000000E+00  0.00000000000E+00  0.45814429335E+03  0.45814429335E+03  0.00000000000E+00 0. -1.
         21   -1    0    0  501  503 -0.00000000000E+00 -0.00000000000E+00 -0.12534767842E+03  0.12534767842E+03  0.00000000000E+00 0.  1.
          6    1    1    2  501    0  0.15123660819E+03 -0.25157687771E+02  0.24332728526E+03  0.33562268794E+03  0.17300000000E+03 0.  1.
         -6    1    1    2    0  502 -0.15123660819E+03  0.25157687771E+02  0.89469329669E+02  0.24786928382E+03  0.17300000000E+03 0. -1.
<mgrwt>
<rscale>  2 0.23115887E+03</rscale>
<asrwt>0</asrwt>
<pdfrwt beam="1">  1       21 0.70483737E-01 0.23115887E+03</pdfrwt>
<pdfrwt beam="2">  1       21 0.19284258E-01 0.23115887E+03</pdfrwt>
<totfact> 0.44256538E+04</totfact>
</mgrwt>
</event>
<event>
 4    3  0.4022695E+000  0.2028790E+03  0.7546771E-02  0.1147332E+00
         21   -1    0    0  501  502  0.00000000000E+00  0.00000000000E+00  0.23459362660E+04  0.23459362660E+04  0.00000000000E+00 0. -1.
         21   -1    0    0  502  503 -0.00000000000E+00 -0.00000000000E+00 -0.19734929100E+02  0.19734929100E+02  0.00000000000E+00 0. -1.
          6    1    1    2  501    0  0.43333806617E+02 -0.96711262141E+02  0.15571070274E+04  0.15702681879E+04  0.17300000000E+03 0. -1.
         -6    1    1    2    0  503 -0.43333806617E+02  0.96711262141E+02  0.76909430944E+03  0.79540300718E+03  0.17300000000E+03 0. -1.
<mgrwt>
<rscale>  2 0.20287900E+03</rscale>
<asrwt>0</asrwt>
<pdfrwt beam="1">  1       21 0.36091305E+00 0.20287900E+03</pdfrwt>
<pdfrwt beam="2">  1       21 0.30361448E-02 0.20287900E+03</pdfrwt>
<totfact> 0.92323539E+03</totfact>
</mgrwt>
</event>
<event>
 4    3  0.4022695E+000  0.1988438E+03  0.7546771E-02  0.1150718E+00
         21   -1    0    0  501  502  0.00000000000E+00  0.00000000000E+00  0.22977372259E+03  0.22977372259E+03  0.00000000000E+00 0.  1.
         21   -1    0    0  502  503 -0.00000000000E+00 -0.00000000000E+00 -0.17343126424E+03  0.17343126424E+03  0.00000000000E+00 0.  1.
          6    1    1    2  501    0  0.27636929076E+02  0.94053477536E+02  0.45983756642E+02  0.20409155387E+03  0.17300000000E+03 0.  1.
         -6    1    1    2    0  503 -0.27636929076E+02 -0.94053477536E+02  0.10358701704E+02  0.19911343296E+03  0.17300000000E+03 0.  1.
<mgrwt>
<rscale>  2 0.19884380E+03</rscale>
<asrwt>0</asrwt>
<pdfrwt beam="1">  1       21 0.35349803E-01 0.19884380E+03</pdfrwt>
<pdfrwt beam="2">  1       21 0.26681733E-01 0.19884380E+03</pdfrwt>
<totfact> 0.10290848E+05</totfact>
</mgrwt>
</event>
<event>
 4    3  0.4022695E+000  0.2423819E+03  0.7546771E-02  0.1118216E+00
         21   -1    0    0  501  502  0.00000000000E+00  0.00000000000E+00  0.67940706536E+02  0.67940706536E+02  0.00000000000E+00 0.  1.
         21   -1    0    0  502  503 -0.00000000000E+00 -0.00000000000E+00 -0.10150268820E+04  0.10150268820E+04  0.00000000000E+00 0.  1.
          6    1    1    2  501    0 -0.40026381684E+02 -0.16497846322E+03 -0.26516567029E+03  0.35925177419E+03  0.17300000000E+03 0. -1.
         -6    1    1    2    0  503  0.40026381684E+02  0.16497846322E+03 -0.68192050516E+03  0.72371581433E+03  0.17300000000E+03 0. -1.
<mgrwt>
<rscale>  2 0.24238194E+03</rscale>
<asrwt>0</asrwt>
<pdfrwt beam="1">  1       21 0.10452417E-01 0.24238194E+03</pdfrwt>
<pdfrwt beam="2">  1       21 0.15615798E+00 0.24238194E+03</pdfrwt>
<totfact> 0.19536210E+04</totfact>
</mgrwt>
</event>
<event>
 4    3  0.4022695E+000  0.2211560E+03  0.7546771E-02  0.1133024E+00
         21   -1    0    0  503  502  0.00000000000E+00  0.00000000000E+00  0.49445083820E+02  0.49445083820E+02  0.00000000000E+00 0. -1.
         21   -1    0    0  501  503 -0.00000000000E+00 -0.00000000000E+00 -0.99325955123E+03  0.99325955123E+03  0.00000000000E+00 0. -1.
          6    1    1    2  501    0 -0.11358263673E+01 -0.13776671531E+03 -0.43848418206E+03  0.49109911002E+03  0.17300000000E+03 0. -1.
         -6    1    1    2    0  502  0.11358263673E+01  0.13776671531E+03 -0.50533028535E+03  0.55160552502E+03  0.17300000000E+03 0. -1.
<mgrwt>
<rscale>  2 0.22115596E+03</rscale>
<asrwt>0</asrwt>
<pdfrwt beam="1">  1       21 0.76069361E-02 0.22115596E+03</pdfrwt>
<pdfrwt beam="2">  1       21 0.15280916E+00 0.22115596E+03</pdfrwt>
<totfact> 0.36660442E+04</totfact>
</mgrwt>
</event>
<event>
 4    3  0.4022695E+000  0.1757596E+03  0.7546771E-02  0.1171971E+00
         21   -1    0    0  503  502  0.00000000000E+00  0.00000000000E+00  0.11279487914E+03  0.11279487914E+03  0.00000000000E+00 0. -1.
         21   -1    0    0  501  503 -0.00000000000E+00 -0.00000000000E+00 -0.14281479090E+04  0.14281479090E+04  0.00000000000E+00 0. -1.
          6    1    1    2  501    0 -0.47121266967E+01 -0.30663433795E+02 -0.13503436601E+04  0.13617339867E+04  0.17300000000E+03 0. -1.
         -6    1    1    2    0  502  0.47121266967E+01  0.30663433795E+02  0.34990630197E+02  0.17920880143E+03  0.17300000000E+03 0. -1.
<mgrwt>
<rscale>  2 0.17575964E+03</rscale>
<asrwt>0</asrwt>
<pdfrwt beam="1">  1       21 0.17353059E-01 0.17575964E+03</pdfrwt>
<pdfrwt beam="2">  1       21 0.21971506E+00 0.17575964E+03</pdfrwt>
<totfact> 0.30891432E+03</totfact>
</mgrwt>
</event>
<event>
 4    3  0.4022695E+000  0.1807838E+03  0.7546771E-02  0.1167047E+00
         21   -1    0    0  501  502  0.00000000000E+00  0.00000000000E+00  0.76677310291E+02  0.76677310291E+02  0.00000000000E+00 0.  1.
         21   -1    0    0  502  503 -0.00000000000E+00 -0.00000000000E+00 -0.63259742776E+03  0.63259742776E+03  0.00000000000E+00 0.  1.
          6    1    1    2  501    0 -0.11288901699E+02 -0.51247860764E+02 -0.75409728944E+02  0.19588111127E+03  0.17300000000E+03 0.  1.
         -6    1    1    2    0  503  0.11288901699E+02  0.51247860764E+02 -0.48051038853E+03  0.51339362678E+03  0.17300000000E+03 0.  1.
<mgrwt>
<rscale>  2 0.18078380E+03</rscale>
<asrwt>0</asrwt>
<pdfrwt beam="1">  1       21 0.11796509E-01 0.18078380E+03</pdfrwt>
<pdfrwt beam="2">  1       21 0.97322683E-01 0.18078380E+03</pdfrwt>
<totfact> 0.53266240E+04</totfact>
</mgrwt>
</event>
<event>
 4    3  0.4022695E+000  0.1867674E+03  0.7546771E-02  0.1161410E+00
         21   -1    0    0  501  502  0.00000000000E+00  0.00000000000E+00  0.11159416623E+04  0.11159416623E+04  0.00000000000E+00 0.  1.
         21   -1    0    0  502  503 -0.00000000000E+00 -0.00000000000E+00 -0.36928558816E+02  0.36928558816E+02  0.00000000000E+00 0.  1.
          6    1    1    2  501    0  0.69602020296E+02  0.10421220902E+02  0.76538993459E+03  0.78784757095E+03  0.17300000000E+03 0.  1.
         -6    1    1    2    0  503 -0.69602020296E+02 -0.10421220902E+02  0.31362316894E+03  0.36502265021E+03  0.17300000000E+03 0.  1.
<mgrwt>
<rscale>  2 0.18676735E+03</rscale>
<asrwt>0</asrwt>
<pdfrwt beam="1">  1       21 0.17168331E+00 0.18676735E+03</pdfrwt>
<pdfrwt beam="2">  1       21 0.56813176E-02 0.18676735E+03</pdfrwt>
<totfact> 0.45110887E+04</totfact>
</mgrwt>
</event>
<event>
 4    3  0.4022695E+000  0.1815360E+03  0.7546771E-02  0.1166325E+00
         21   -1    0    0  501  502  0.00000000000E+00  0.00000000000E+00  0.73455533014E+02  0.73455533014E+02  0.00000000000E+00 0. -1.
         21   -1    0    0  502  503 -0.00000000000E+00 -0.00000000000E+00 -0.70788242934E+03  0.70788242934E+03  0.00000000000E+00 0. -1.
          6    1    1    2  501    0  0.32923143755E+02 -0.44072565571E+02 -0.80796430020E+02  0.19870427156E+03  0.17300000000E+03 0. -1.
         -6    1    1    2    0  503 -0.32923143755E+02  0.44072565571E+02 -0.55363046631E+03  0.58263369080E+03  0.17300000000E+03 0. -1.
<mgrwt>
<rscale>  2 0.18153601E+03</rscale>
<asrwt>0</asrwt>
<pdfrwt beam="1">  1       21 0.11300852E-01 0.18153601E+03</pdfrwt>
<pdfrwt beam="2">  1       21 0.10890499E+00 0.18153601E+03</pdfrwt>
<totfact> 0.43960366E+04</totfact>
</mgrwt>
</event>
<event>
 4    3  0.4022695E+000  0.1946842E+03  0.7546771E-02  0.1154303E+00
         21   -1    0    0  503  502  0.00000000000E+00  0.00000000000E+00  0.10330868465E+04  0.10330868465E+04  0.00000000000E+00 0.  1.
         21   -1    0    0  501  503 -0.00000000000E+00 -0.00000000000E+00 -0.55366923046E+02  0.55366923046E+02  0.00000000000E+00 0. -1.
          6    1    1    2  501    0 -0.36173539628E+02  0.81635744175E+02  0.17275567710E+03  0.26028147008E+03  0.17300000000E+03 0. -1.
         -6    1    1    2    0  502  0.36173539628E+02 -0.81635744175E+02  0.80496424640E+03  0.82817229951E+03  0.17300000000E+03 0.  1.
<mgrwt>
<rscale>  2 0.19468415E+03</rscale>
<asrwt>0</asrwt>
<pdfrwt beam="1">  1       21 0.15893642E+00 0.19468415E+03</pdfrwt>
<pdfrwt beam="2">  1       21 0.85179889E-02 0.19468415E+03</pdfrwt>
<totfact> 0.27528535E+04</totfact>
</mgrwt>
</event>
<event>
 4    3  0.4022695E+000  0.1769855E+03  0.7546771E-02  0.1170753E+00
         21   -1    0    0  501  502  0.00000000000E+00  0.00000000000E+00  0.37081229936E+03  0.37081229936E+03  0.00000000000E+00 0.  1.
         21   -1    0    0  502  503 -0.00000000000E+00 -0.00000000000E+00 -0.88541170130E+02  0.88541170130E+02  0.00000000000E+00 0.  1.
          6    1    1    2  501    0 -0.18908111135E+02  0.32207963080E+02  0.91907919050E+02  0.19942651563E+03  0.17300000000E+03 0.  1.
         -6    1    1    2    0  503  0.18908111135E+02 -0.32207963080E+02  0.19036321018E+03  0.25992695386E+03  0.17300000000E+03 0.  1.
<mgrwt>
<rscale>  2 0.17698551E+03</rscale>
<asrwt>0</asrwt>
<pdfrwt beam="1">  1       21 0.57048045E-01 0.17698551E+03</pdfrwt>
<pdfrwt beam="2">  1       21 0.13621719E-01 0.17698551E+03</pdfrwt>
<totfact> 0.13558743E+05</totfact>
</mgrwt>
</event>
<event>
 4    3  0.4022695E+000  0.1999903E+03  0.7546771E-02  0.1149747E+00
         21   -1    0    0  501  502  0.00000000000E+00  0.00000000000E+00  0.34620393584E+03  0.34620393584E+03  0.00000000000E+00 0.  1.
         21   -1    0    0  502  503 -0.00000000000E+00 -0.00000000000E+00 -0.13131501636E+03  0.13131501636E+03  0.00000000000E+00 0.  1.
          6    1    1    2  501    0  0.63793130415E+02 -0.77444011309E+02  0.19023063490E+03  0.27601418954E+03  0.17300000000E+03 0.  1.
         -6    1    1    2    0  503 -0.63793130415E+02  0.77444011309E+02  0.24658284582E+02  0.20150476266E+03  0.17300000000E+03 0.  1.
<mgrwt>
<rscale>  2 0.19999035E+03</rscale>
<asrwt>0</asrwt>
<pdfrwt beam="1">  1       21 0.53262144E-01 0.19999035E+03</pdfrwt>
<pdfrwt beam="2">  1       21 0.20202310E-01 0.19999035E+03</pdfrwt>
<totfact> 0.75368524E+04</totfact>
</mgrwt>
</event>
<event>
 4    3  0.4022695E+000  0.1968218E+03  0.7546771E-02  0.1152449E+00
         21   -1    0    0  501  502  0.00000000000E+00  0.00000000000E+00  0.14557163057E+04  0.14557163057E+04  0.00000000000E+00 0. -1.
         21   -1    0    0  502  503 -0.00000000000E+00 -0.00000000000E+00 -0.28313065965E+02  0.28313065965E+02  0.00000000000E+00 0. -1.
          6    1    1    2  501    0 -0.71409820497E+02 -0.60913448583E+02  0.53179771407E+03  0.56705169021E+03  0.17300000000E+03 0. -1.
         -6    1    1    2    0  503  0.71409820497E+02  0.60913448583E+02  0.89560552566E+03  0.91697768145E+03  0.17300000000E+03 0. -1.
<mgrwt>
<rscale>  2 0.19682177E+03</rscale>
<asrwt>0</asrwt>
<pdfrwt beam="1">  1       21 0.22395630E+00 0.19682177E+03</pdfrwt>
<pdfrwt beam="2">  1       21 0.43558574E-02 0.19682177E+03</pdfrwt>
<totfact> 0.32208239E+04</totfact>
</mgrwt>
</event>
<event>
 4    3  0.4022695E+000  0.1760909E+03  0.7546771E-02  0.1171641E+00
         21   -1    0    0  503  502  0.00000000000E+00  0.00000000000E+00  0.12892474082E+03  0.12892474082E+03  0.00000000000E+00 0. -1.
         21   -1    0    0  501  503 -0.00000000000E+00 -0.00000000000E+00 -0.25067922839E+03  0.25067922839E+03  0.00000000000E+00 0. -1.
          6    1    1    2  501    0 -0.20145874192E+02  0.25945411725E+02 -0.99100766479E+02  0.20206182854E+03  0.17300000000E+03 0. -1.
         -6    1    1    2    0  502  0.20145874192E+02 -0.25945411725E+02 -0.22653721088E+02  0.17754214068E+03  0.17300000000E+03 0. -1.
<mgrwt>
<rscale>  2 0.17609094E+03</rscale>
<asrwt>0</asrwt>
<pdfrwt beam="1">  1       21 0.19834576E-01 0.17609094E+03</pdfrwt>
<pdfrwt beam="2">  1       21 0.38566035E-01 0.17609094E+03</pdfrwt>
<totfact> 0.15280479E+05</totfact>
</mgrwt>
</event>
<event>
 4    3  0.4022695E+000  0.2706087E+03  0.7546771E-02  0.1100932E+00
         21   -1    0    0  503  502  0.00000000000E+00  0.00000000000E+00  0.39541032903E+03  0.39541032903E+03  0.00000000000E+00 0. -1.
         21   -1    0    0  501  503 -0.00000000000E+00 -0.00000000000E+00 -0.19010039862E+03  0.19010039862E+03  0.00000000000E+00 0. -1.
          6    1    1    2  501    0 -0.20252398644E+03  0.47792292378E+02  0.14966955468E+03  0.30924107730E+03  0.17300000000E+03 0. -1.
         -6    1    1    2    0  502  0.20252398644E+03 -0.47792292378E+02  0.55640375727E+02  0.27626965035E+03  0.17300000000E+03 0. -1.
<mgrwt>
<rscale>  2 0.27060870E+03</rscale>
<asrwt>0</asrwt>
<pdfrwt beam="1">  1       21 0.60832358E-01 0.27060870E+03</pdfrwt>
<pdfrwt beam="2">  1       21 0.29246215E-01 0.27060870E+03</pdfrwt>
<totfact> 0.27107694E+04</totfact>
</mgrwt>
</event>
<event>
 4    3  0.4022695E+000  0.1745710E+03  0.7546771E-02  0.1173163E+00
         21   -1    0    0  503  502  0.00000000000E+00  0.00000000000E+00  0.18897801284E+03  0.18897801284E+03  0.00000000000E+00 0.  1.
         21   -1    0    0  501  503 -0.00000000000E+00 -0.00000000000E+00 -0.17057499903E+03  0.17057499903E+03  0.00000000000E+00 0.  1.
          6    1    1    2  501    0 -0.20309178048E+02  0.11556759369E+02 -0.32804748463E+02  0.17762649837E+03  0.17300000000E+03 0.  1.
         -6    1    1    2    0  502  0.20309178048E+02 -0.11556759369E+02  0.51207762272E+02  0.18192651351E+03  0.17300000000E+03 0.  1.
<mgrwt>
<rscale>  2 0.17457096E+03</rscale>
<asrwt>0</asrwt>
<pdfrwt beam="1">  1       21 0.29073540E-01 0.17457096E+03</pdfrwt>
<pdfrwt beam="2">  1       21 0.26242308E-01 0.17457096E+03</pdfrwt>
<totfact> 0.15725575E+05</totfact>
</mgrwt>
</event>
<event>
 4    3  0.4022695E+000  0.2064043E+03  0.7546771E-02  0.1144445E+00
         21   -1    0    0  501  502  0.00000000000E+00  0.00000000000E+00  0.11065234878E+03  0.11065234878E+03  0.00000000000E+00 0.  1.
         21   -1    0    0  502  503 -0.00000000000E+00 -0.00000000000E+00 -0.39880972518E+03  0.39880972518E+03  0.00000000000E+00 0. -1.
          6    1    1    2  501    0  0.11249590715E+03  0.42915270016E+01 -0.96701950178E+02  0.22793423064E+03  0.17300000000E+03 0.  1.
         -6    1    1    2    0  503 -0.11249590715E+03 -0.42915270016E+01 -0.19145542623E+03  0.28152784332E+03  0.17300000000E+03 0. -1.
<mgrwt>
<rscale>  2 0.20640433E+03</rscale>
<asrwt>0</asrwt>
<pdfrwt beam="1">  1       21 0.17023438E-01 0.20640433E+03</pdfrwt>
<pdfrwt beam="2">  1       21 0.61355344E-01 0.20640433E+03</pdfrwt>
<totfact> 0.76386708E+04</totfact>
</mgrwt>
</event>
<event>
 4    3  0.4022695E+000  0.1764372E+03  0.7546771E-02  0.1171296E+00
         21   -1    0    0  503  502  0.00000000000E+00  0.00000000000E+00  0.17729913925E+03  0.17729913925E+03  0.00000000000E+00 0. -1.
         21   -1    0    0  501  503 -0.00000000000E+00 -0.00000000000E+00 -0.21839499409E+03  0.21839499409E+03  0.00000000000E+00 0. -1.
          6    1    1    2  501    0  0.23340344181E+02  0.25618750754E+02 -0.10814887781E+03  0.20694509375E+03  0.17300000000E+03 0. -1.
         -6    1    1    2    0  502 -0.23340344181E+02 -0.25618750754E+02  0.67053022974E+02  0.18874903959E+03  0.17300000000E+03 0. -1.
<mgrwt>
<rscale>  2 0.17643722E+03</rscale>
<asrwt>0</asrwt>
<pdfrwt beam="1">  1       21 0.27276791E-01 0.17643722E+03</pdfrwt>
<pdfrwt beam="2">  1       21 0.33599230E-01 0.17643722E+03</pdfrwt>
<totfact> 0.10998958E+05</totfact>
</mgrwt>
</event>
<event>
 4    3  0.4022695E+000  0.3390328E+03  0.7546771E-02  0.1067209E+00
         21   -1    0    0  503  502  0.00000000000E+00  0.00000000000E+00  0.41649763593E+03  0.41649763593E+03  0.00000000000E+00 0. -1.
         21   -1    0    0  501  503 -0.00000000000E+00 -0.00000000000E+00 -0.36928353331E+03  0.36928353331E+03  0.00000000000E+00 0.  1.
          6    1    1    2  501    0 -0.27939351734E+03  0.83387739275E+02 -0.17388542593E+03  0.38102413827E+03  0.17300000000E+03 0.  1.
         -6    1    1    2    0  502  0.27939351734E+03 -0.83387739275E+02  0.22109952855E+03  0.40475703097E+03  0.17300000000E+03 0. -1.
<mgrwt>
<rscale>  2 0.33903282E+03</rscale>
<asrwt>0</asrwt>
<pdfrwt beam="1">  1       21 0.64076559E-01 0.33903282E+03</pdfrwt>
<pdfrwt beam="2">  1       21 0.56812851E-01 0.33903282E+03</pdfrwt>
<totfact> 0.60212864E+03</totfact>
</mgrwt>
</event>
<event>
 4    3  0.4022695E+000  0.2588378E+03  0.7546771E-02  0.1107844E+00
         21   -1    0    0  503  502  0.00000000000E+00  0.00000000000E+00  0.16921263844E+03  0.16921263844E+03  0.00000000000E+00 0.  1.
         21   -1    0    0  501  503 -0.00000000000E+00 -0.00000000000E+00 -0.54318490079E+03  0.54318490079E+03  0.00000000000E+00 0. -1.
          6    1    1    2  501    0 -0.14044642268E+03  0.13169211883E+03 -0.15271933019E+01  0.25884231518E+03  0.17300000000E+03 0. -1.
         -6    1    1    2    0  502  0.14044642268E+03 -0.13169211883E+03 -0.37244506905E+03  0.45355522405E+03  0.17300000000E+03 0. -1.
<mgrwt>
<rscale>  2 0.25883781E+03</rscale>
<asrwt>0</asrwt>
<pdfrwt beam="1">  1       21 0.26032714E-01 0.25883781E+03</pdfrwt>
<pdfrwt beam="2">  1       21 0.83566906E-01 0.25883781E+03</pdfrwt>
<totfact> 0.16824745E+04</totfact>
</mgrwt>
</event>
<event>
 4    3  0.4022695E+000  0.1847851E+03  0.7546771E-02  0.1163251E+00
         21   -1    0    0  503  502  0.00000000000E+00  0.00000000000E+00  0.38204079136E+03  0.38204079136E+03  0.00000000000E+00 0. -1.
         21   -1    0    0  501  503 -0.00000000000E+00 -0.00000000000E+00 -0.16268798750E+03  0.16268798750E+03  0.00000000000E+00 0. -1.
          6    1    1    2  501    0 -0.63696525672E+02  0.12620632222E+02 -0.73158094488E+02  0.19874011807E+03  0.17300000000E+03 0. -1.
         -6    1    1    2    0  502  0.63696525672E+02 -0.12620632222E+02  0.29251089835E+03  0.34598866078E+03  0.17300000000E+03 0. -1.
<mgrwt>
<rscale>  2 0.18478509E+03</rscale>
<asrwt>0</asrwt>
<pdfrwt beam="1">  1       21 0.58775506E-01 0.18478509E+03</pdfrwt>
<pdfrwt beam="2">  1       21 0.25028921E-01 0.18478509E+03</pdfrwt>
<totfact> 0.41091810E+04</totfact>
</mgrwt>
</event>
<event>
 4    3  0.4022695E+000  0.2059396E+03  0.7546771E-02  0.1144822E+00
         21   -1    0    0  501  502  0.00000000000E+00  0.00000000000E+00  0.69701644702E+03  0.69701644702E+03  0.00000000000E+00 0. -1.
         21   -1    0    0  502  503 -0.00000000000E+00 -0.00000000000E+00 -0.16216302442E+03  0.16216302442E+03  0.00000000000E+00 0. -1.
          6    1    1    2  501    0  0.13533155311E+02  0.11090079656E+03  0.60698766577E+03  0.64097204258E+03  0.17300000000E+03 0. -1.
         -6    1    1    2    0  503 -0.13533155311E+02 -0.11090079656E+03 -0.72134243168E+02  0.21820742886E+03  0.17300000000E+03 0. -1.
<mgrwt>
<rscale>  2 0.20593963E+03</rscale>
<asrwt>0</asrwt>
<pdfrwt beam="1">  1       21 0.10723330E+00 0.20593963E+03</pdfrwt>
<pdfrwt beam="2">  1       21 0.24948158E-01 0.20593963E+03</pdfrwt>
<totfact> 0.10463846E+04</totfact>
</mgrwt>
</event>
<event>
 4    3  0.4022695E+000  0.1738544E+03  0.7546771E-02  0.1173887E+00
         21   -1    0    0  501  502  0.00000000000E+00  0.00000000000E+00  0.10487268453E+03  0.10487268453E+03  0.00000000000E+00 0.  1.
         21   -1    0    0  502  503 -0.00000000000E+00 -0.00000000000E+00 -0.41755509720E+03  0.41755509720E+03  0.00000000000E+00 0.  1.
          6    1    1    2  501    0  0.65435715779E+01 -0.15923043487E+02 -0.30172442360E+03  0.34822835817E+03  0.17300000000E+03 0. -1.
         -6    1    1    2    0  503 -0.65435715779E+01  0.15923043487E+02 -0.10957989068E+02  0.17419942356E+03  0.17300000000E+03 0. -1.
<mgrwt>
<rscale>  2 0.17385443E+03</rscale>
<asrwt>0</asrwt>
<pdfrwt beam="1">  1       21 0.16134259E-01 0.17385443E+03</pdfrwt>
<pdfrwt beam="2">  1       21 0.64239245E-01 0.17385443E+03</pdfrwt>
<totfact> 0.77395437E+04</totfact>
</mgrwt>
</event>
<event>
 4    3  0.4022695E+000  0.2477689E+03  0.7546771E-02  0.1114723E+00
         21   -1    0    0  503  502  0.00000000000E+00  0.00000000000E+00  0.33649163328E+03  0.33649163328E+03  0.00000000000E+00 0. -1.
         21   -1    0    0  501  503 -0.00000000000E+00 -0.00000000000E+00 -0.18304255104E+03  0.18304255104E+03  0.00000000000E+00 0. -1.
          6    1    1    2  501    0  0.10358214532E+03 -0.14398327755E+03  0.91631869574E+02  0.26417010535E+03  0.17300000000E+03 0. -1.
         -6    1    1    2    0  502 -0.10358214532E+03  0.14398327755E+03  0.61817212671E+02  0.25536407896E+03  0.17300000000E+03 0. -1.
<mgrwt>
<rscale>  2 0.24776893E+03</rscale>
<asrwt>0</asrwt>
<pdfrwt beam="1">  1       21 0.51767943E-01 0.24776893E+03</pdfrwt>
<pdfrwt beam="2">  1       21 0.28160393E-01 0.24776893E+03</pdfrwt>
<totfact> 0.41611468E+04</totfact>
</mgrwt>
</event>
<event>
 4    3  0.4022695E+000  0.2215360E+03  0.7546771E-02  0.1132743E+00
         21   -1    0    0  503  502  0.00000000000E+00  0.00000000000E+00  0.13795920341E+03  0.13795920341E+03  0.00000000000E+00 0. -1.
         21   -1    0    0  501  503 -0.00000000000E+00 -0.00000000000E+00 -0.47182088660E+03  0.47182088660E+03  0.00000000000E+00 0.  1.
          6    1    1    2  501    0 -0.14560227374E+02  0.13761252230E+03 -0.31815699045E+03  0.38768811832E+03  0.17300000000E+03 0.  1.
         -6    1    1    2    0  502  0.14560227374E+02 -0.13761252230E+03 -0.15704692732E+02  0.22209197169E+03  0.17300000000E+03 0. -1.
<mgrwt>
<rscale>  2 0.22153602E+03</rscale>
<asrwt>0</asrwt>
<pdfrwt beam="1">  1       21 0.21224493E-01 0.22153602E+03</pdfrwt>
<pdfrwt beam="2">  1       21 0.72587829E-01 0.22153602E+03</pdfrwt>
<totfact> 0.34784778E+04</totfact>
</mgrwt>
</event>
<event>
 4    3  0.4022695E+000  0.2231925E+03  0.7546771E-02  0.1131525E+00
         21   -1    0    0  503  502  0.00000000000E+00  0.00000000000E+00  0.11838706017E+04  0.11838706017E+04  0.00000000000E+00 0.  1.
         21   -1    0    0  501  503 -0.00000000000E+00 -0.00000000000E+00 -0.29197736363E+03  0.29197736363E+03  0.00000000000E+00 0.  1.
          6    1    1    2  501    0  0.12402645900E+03 -0.67106750539E+02 -0.23673723241E+03  0.32536040894E+03  0.17300000000E+03 0.  1.
         -6    1    1    2    0  502 -0.12402645900E+03  0.67106750539E+02  0.11286304704E+04  0.11504875563E+04  0.17300000000E+03 0.  1.
<mgrwt>
<rscale>  2 0.22319247E+03</rscale>
<asrwt>0</asrwt>
<pdfrwt beam="1">  1       21 0.18213394E+00 0.22319247E+03</pdfrwt>
<pdfrwt beam="2">  1       21 0.44919595E-01 0.22319247E+03</pdfrwt>
<totfact> 0.81033733E+02</totfact>
</mgrwt>
</event>
<event>
 4    3  0.4022695E+000  0.2533825E+03  0.7546771E-02  0.1111186E+00
         21   -1    0    0  503  502  0.00000000000E+00  0.00000000000E+00  0.22734409727E+03  0.22734409727E+03  0.00000000000E+00 0.  1.
         21   -1    0    0  501  503 -0.00000000000E+00 -0.00000000000E+00 -0.28258769456E+03  0.28258769456E+03  0.00000000000E+00 0.  1.
          6    1    1    2  501    0 -0.25996161780E+02  0.18329728888E+03 -0.34136854337E+02  0.25567170622E+03  0.17300000000E+03 0.  1.
         -6    1    1    2    0  502  0.25996161780E+02 -0.18329728888E+03 -0.21106742949E+02  0.25426008561E+03  0.17300000000E+03 0.  1.
<mgrwt>
<rscale>  2 0.25338251E+03</rscale>
<asrwt>0</asrwt>
<pdfrwt beam="1">  1       21 0.34976015E-01 0.25338251E+03</pdfrwt>
<pdfrwt beam="2">  1       21 0.43475030E-01 0.25338251E+03</pdfrwt>
<totfact> 0.38951372E+04</totfact>
</mgrwt>
</event>
<event>
 4    3  0.4022695E+000  0.2056092E+03  0.7546771E-02  0.1145091E+00
         21   -1    0    0  503  502  0.00000000000E+00  0.00000000000E+00  0.45352712038E+03  0.45352712038E+03  0.00000000000E+00 0. -1.
         21   -1    0    0  501  503 -0.00000000000E+00 -0.00000000000E+00 -0.98341887349E+02  0.98341887349E+02  0.00000000000E+00 0. -1.
          6    1    1    2  501    0 -0.10747672751E+03  0.28193973050E+02  0.24060115922E+03  0.31648706907E+03  0.17300000000E+03 0. -1.
         -6    1    1    2    0  502  0.10747672751E+03 -0.28193973050E+02  0.11458407381E+03  0.23538193865E+03  0.17300000000E+03 0. -1.
<mgrwt>
<rscale>  2 0.20560921E+03</rscale>
<asrwt>0</asrwt>
<pdfrwt beam="1">  1       21 0.69773402E-01 0.20560921E+03</pdfrwt>
<pdfrwt beam="2">  1       21 0.15129521E-01 0.20560921E+03</pdfrwt>
<totfact> 0.71650258E+04</totfact>
</mgrwt>
</event>
<event>
 4    3  0.4022695E+000  0.3174735E+03  0.7546771E-02  0.1076818E+00
         21   -1    0    0  501  502  0.00000000000E+00  0.00000000000E+00  0.37298414742E+03  0.37298414742E+03  0.00000000000E+00 0.  1.
         21   -1    0    0  502  503 -0.00000000000E+00 -0.00000000000E+00 -0.28797500771E+03  0.28797500771E+03  0.00000000000E+00 0. -1.
          6    1    1    2  501    0 -0.14427925598E+02 -0.26580486641E+03  0.12455383085E+03  0.34103232812E+03  0.17300000000E+03 0.  1.
         -6    1    1    2    0  503  0.14427925598E+02  0.26580486641E+03 -0.39544691145E+02  0.31992682701E+03  0.17300000000E+03 0. -1.
<mgrwt>
<rscale>  2 0.31747345E+03</rscale>
<asrwt>0</asrwt>
<pdfrwt beam="1">  1       21 0.57382177E-01 0.31747345E+03</pdfrwt>
<pdfrwt beam="2">  1       21 0.44303847E-01 0.31747345E+03</pdfrwt>
<totfact> 0.13074048E+04</totfact>
</mgrwt>
</event>
<event>
 4    3  0.4022695E+000  0.2030828E+03  0.7546771E-02  0.1147164E+00
         21   -1    0    0  501  502  0.00000000000E+00  0.00000000000E+00  0.75938834450E+03  0.75938834450E+03  0.00000000000E+00 0.  1.
         21   -1    0    0  502  503 -0.00000000000E+00 -0.00000000000E+00 -0.54323582643E+02  0.54323582643E+02  0.00000000000E+00 0. -1.
          6    1    1    2  501    0  0.92193022933E+02  0.53047705417E+02  0.34617162690E+03  0.40134450015E+03  0.17300000000E+03 0. -1.
         -6    1    1    2    0  503 -0.92193022933E+02 -0.53047705417E+02  0.35889313495E+03  0.41236742699E+03  0.17300000000E+03 0.  1.
<mgrwt>
<rscale>  2 0.20308277E+03</rscale>
<asrwt>0</asrwt>
<pdfrwt beam="1">  1       21 0.11682897E+00 0.20308277E+03</pdfrwt>
<pdfrwt beam="2">  1       21 0.83574748E-02 0.20308277E+03</pdfrwt>
<totfact> 0.62399109E+04</totfact>
</mgrwt>
</event>
<event>
 4    3  0.4022695E+000  0.1812560E+03  0.7546771E-02  0.1166593E+00
         21   -1    0    0  503  502  0.00000000000E+00  0.00000000000E+00  0.29756651164E+03  0.29756651164E+03  0.00000000000E+00 0. -1.
         21   -1    0    0  501  503 -0.00000000000E+00 -0.00000000000E+00 -0.19841292321E+03  0.19841292321E+03  0.00000000000E+00 0.  1.
          6    1    1    2  501    0  0.28947788488E+02 -0.45681162757E+02 -0.11558211920E+03  0.21497201997E+03  0.17300000000E+03 0.  1.
         -6    1    1    2    0  502 -0.28947788488E+02  0.45681162757E+02  0.21473570763E+03  0.28100741489E+03  0.17300000000E+03 0. -1.
<mgrwt>
<rscale>  2 0.18125602E+03</rscale>
<asrwt>0</asrwt>
<pdfrwt beam="1">  1       21 0.45779464E-01 0.18125602E+03</pdfrwt>
<pdfrwt beam="2">  1       21 0.30525065E-01 0.18125602E+03</pdfrwt>
<totfact> 0.47378443E+04</totfact>
</mgrwt>
</event>
<event>
 4    3  0.4022695E+000  0.2556280E+03  0.7546771E-02  0.1109799E+00
         21   -1    0    0  501  502  0.00000000000E+00  0.00000000000E+00  0.10029173930E+03  0.10029173930E+03  0.00000000000E+00 0.  1.
         21   -1    0    0  502  503 -0.00000000000E+00 -0.00000000000E+00 -0.65259788307E+03  0.65259788307E+03  0.00000000000E+00 0. -1.
          6    1    1    2  501    0  0.99456983113E+02 -0.15976535462E+03 -0.29119622292E+03  0.38748019339E+03  0.17300000000E+03 0.  1.
         -6    1    1    2    0  503 -0.99456983113E+02  0.15976535462E+03 -0.26110992085E+03  0.36540942899E+03  0.17300000000E+03 0.  1.
<mgrwt>
<rscale>  2 0.25562797E+03</rscale>
<asrwt>0</asrwt>
<pdfrwt beam="1">  1       21 0.15429499E-01 0.25562797E+03</pdfrwt>
<pdfrwt beam="2">  1       21 0.10039967E+00 0.25562797E+03</pdfrwt>
<totfact> 0.29329413E+04</totfact>
</mgrwt>
</event>
<event>
 4    3  0.4022695E+000  0.2410735E+03  0.7546771E-02  0.1119080E+00
         21   -1    0    0  503  502  0.00000000000E+00  0.00000000000E+00  0.48830338492E+03  0.48830338492E+03  0.00000000000E+00 0. -1.
         21   -1    0    0  501  503 -0.00000000000E+00 -0.00000000000E+00 -0.11915109425E+03  0.11915109425E+03  0.00000000000E+00 0. -1.
          6    1    1    2  501    0  0.10287724284E+03 -0.13267901984E+03  0.19476180292E+03  0.30991710065E+03  0.17300000000E+03 0. -1.
         -6    1    1    2    0  502 -0.10287724284E+03  0.13267901984E+03  0.17439048774E+03  0.29753737852E+03  0.17300000000E+03 0. -1.
<mgrwt>
<rscale>  2 0.24107354E+03</rscale>
<asrwt>0</asrwt>
<pdfrwt beam="1">  1       21 0.75123596E-01 0.24107354E+03</pdfrwt>
<pdfrwt beam="2">  1       21 0.18330938E-01 0.24107354E+03</pdfrwt>
<totfact> 0.42011102E+04</totfact>
</mgrwt>
</event>
<event>
 4    3  0.4022695E+000  0.1984392E+03  0.7546771E-02  0.1151063E+00
         21   -1    0    0  503  502  0.00000000000E+00  0.00000000000E+00  0.26275979408E+04  0.26275979408E+04  0.00000000000E+00 0. -1.
         21   -1    0    0  501  503 -0.00000000000E+00 -0.00000000000E+00 -0.27181882197E+02  0.27181882197E+02  0.00000000000E+00 0. -1.
          6    1    1    2  501    0 -0.92666973455E+02 -0.29359049698E+02  0.41109085975E+03  0.45647980978E+03  0.17300000000E+03 0. -1.
         -6    1    1    2    0  502  0.92666973455E+02  0.29359049698E+02  0.21893251988E+04  0.21983000132E+04  0.17300000000E+03 0. -1.
<mgrwt>
<rscale>  2 0.19843921E+03</rscale>
<asrwt>0</asrwt>
<pdfrwt beam="1">  1       21 0.40424564E+00 0.19843921E+03</pdfrwt>
<pdfrwt beam="2">  1       21 0.41818301E-02 0.19843921E+03</pdfrwt>
<totfact> 0.29569271E+03</totfact>
</mgrwt>
</event>
<event>
 4    3  0.4022695E+000  0.3699990E+03  0.7546771E-02  0.1054693E+00
         21   -1    0    0  501  502  0.00000000000E+00  0.00000000000E+00  0.35571445628E+03  0.35571445628E+03  0.00000000000E+00 0.  1.
         21   -1    0    0  502  503 -0.00000000000E+00 -0.00000000000E+00 -0.68450224450E+03  0.68450224450E+03  0.00000000000E+00 0.  1.
          6    1    1    2  501    0 -0.24457132234E+03  0.21715225004E+03  0.17972618650E+03  0.41134016766E+03  0.17300000000E+03 0.  1.
         -6    1    1    2    0  503  0.24457132234E+03 -0.21715225004E+03 -0.50851397473E+03  0.62887653312E+03  0.17300000000E+03 0.  1.
<mgrwt>
<rscale>  2 0.36999896E+03</rscale>
<asrwt>0</asrwt>
<pdfrwt beam="1">  1       21 0.54725301E-01 0.36999896E+03</pdfrwt>
<pdfrwt beam="2">  1       21 0.10530804E+00 0.36999896E+03</pdfrwt>
<totfact> 0.20384221E+03</totfact>
</mgrwt>
</event>
<event>
 4    3  0.4022695E+000  0.1750486E+03  0.7546771E-02  0.1172683E+00
         21   -1    0    0  503  502  0.00000000000E+00  0.00000000000E+00  0.51270171710E+02  0.51270171710E+02  0.00000000000E+00 0.  1.
         21   -1    0    0  501  503 -0.00000000000E+00 -0.00000000000E+00 -0.61807472745E+03  0.61807472745E+03  0.00000000000E+00 0.  1.
          6    1    1    2  501    0  0.25923710303E+02 -0.64000232430E+01 -0.34422958617E+03  0.38618131370E+03  0.17300000000E+03 0.  1.
         -6    1    1    2    0  502 -0.25923710303E+02  0.64000232430E+01 -0.22257496957E+03  0.28316358547E+03  0.17300000000E+03 0.  1.
<mgrwt>
<rscale>  2 0.17504856E+03</rscale>
<asrwt>0</asrwt>
<pdfrwt beam="1">  1       21 0.78877185E-02 0.17504856E+03</pdfrwt>
<pdfrwt beam="2">  1       21 0.95088423E-01 0.17504856E+03</pdfrwt>
<totfact> 0.11447329E+05</totfact>
</mgrwt>
</event>
<event>
 4    3  0.4022695E+000  0.1861235E+03  0.7546771E-02  0.1162005E+00
         21   -1    0    0  503  502  0.00000000000E+00  0.00000000000E+00  0.27637603501E+03  0.27637603501E+03  0.00000000000E+00 0. -1.
         21   -1    0    0  501  503 -0.00000000000E+00 -0.00000000000E+00 -0.14808227221E+03  0.14808227221E+03  0.00000000000E+00 0. -1.
          6    1    1    2  501    0 -0.31487990829E+02 -0.61003721852E+02 -0.19017379604E+02  0.18709251287E+03  0.17300000000E+03 0. -1.
         -6    1    1    2    0  502  0.31487990829E+02  0.61003721852E+02  0.14731114241E+03  0.23736579434E+03  0.17300000000E+03 0. -1.
<mgrwt>
<rscale>  2 0.18612347E+03</rscale>
<asrwt>0</asrwt>
<pdfrwt beam="1">  1       21 0.42519390E-01 0.18612347E+03</pdfrwt>
<pdfrwt beam="2">  1       21 0.22781888E-01 0.18612347E+03</pdfrwt>
<totfact> 0.96404054E+04</totfact>
</mgrwt>
</event>
<event>
 4    3  0.4022695E+000  0.2860580E+03  0.7546771E-02  0.1092425E+00
         21   -1    0    0  503  502  0.00000000000E+00  0.00000000000E+00  0.21555678618E+03  0.21555678618E+03  0.00000000000E+00 0. -1.
         21   -1    0    0  501  503 -0.00000000000E+00 -0.00000000000E+00 -0.43223589449E+03  0.43223589449E+03  0.00000000000E+00 0.  1.
          6    1    1    2  501    0  0.58127468851E+02  0.22027564925E+03 -0.22134873662E+03  0.36169659591E+03  0.17300000000E+03 0.  1.
         -6    1    1    2    0  502 -0.58127468851E+02 -0.22027564925E+03  0.46696283137E+01  0.28609608476E+03  0.17300000000E+03 0. -1.
<mgrwt>
<rscale>  2 0.28605797E+03</rscale>
<asrwt>0</asrwt>
<pdfrwt beam="1">  1       21 0.33162583E-01 0.28605797E+03</pdfrwt>
<pdfrwt beam="2">  1       21 0.66497829E-01 0.28605797E+03</pdfrwt>
<totfact> 0.17290658E+04</totfact>
</mgrwt>
</event>
<event>
 4    3  0.4022695E+000  0.2070258E+03  0.7546771E-02  0.1143943E+00
         21   -1    0    0  503  502  0.00000000000E+00  0.00000000000E+00  0.16788248222E+03  0.16788248222E+03  0.00000000000E+00 0.  1.
         21   -1    0    0  501  503 -0.00000000000E+00 -0.00000000000E+00 -0.33636887095E+03  0.33636887095E+03  0.00000000000E+00 0. -1.
          6    1    1    2  501    0 -0.11039454600E+03 -0.27271515485E+02 -0.20802234834E+03  0.29348422232E+03  0.17300000000E+03 0. -1.
         -6    1    1    2    0  502  0.11039454600E+03  0.27271515485E+02  0.39535959615E+02  0.21076713085E+03  0.17300000000E+03 0.  1.
<mgrwt>
<rscale>  2 0.20702582E+03</rscale>
<asrwt>0</asrwt>
<pdfrwt beam="1">  1       21 0.25828074E-01 0.20702582E+03</pdfrwt>
<pdfrwt beam="2">  1       21 0.51749057E-01 0.20702582E+03</pdfrwt>
<totfact> 0.50115992E+04</totfact>
</mgrwt>
</event>
<event>
 4    3  0.4022695E+000  0.1898053E+03  0.7546771E-02  0.1158637E+00
         21   -1    0    0  501  502  0.00000000000E+00  0.00000000000E+00  0.90174134360E+03  0.90174134360E+03  0.00000000000E+00 0. -1.
         21   -1    0    0  502  503 -0.00000000000E+00 -0.00000000000E+00 -0.57072172558E+02  0.57072172558E+02  0.00000000000E+00 0. -1.
          6    1    1    2  501    0 -0.50445670880E+02  0.59601169931E+02  0.68490773179E+03  0.71072122962E+03  0.17300000000E+03 0. -1.
         -6    1    1    2    0  503  0.50445670880E+02 -0.59601169931E+02  0.15976143925E+03  0.24809228654E+03  0.17300000000E+03 0. -1.
<mgrwt>
<rscale>  2 0.18980533E+03</rscale>
<asrwt>0</asrwt>
<pdfrwt beam="1">  1       21 0.13872943E+00 0.18980533E+03</pdfrwt>
<pdfrwt beam="2">  1       21 0.87803349E-02 0.18980533E+03</pdfrwt>
<totfact> 0.37431711E+04</totfact>
</mgrwt>
</event>
<event>
 4    3  0.4022695E+000  0.1995401E+03  0.7546771E-02  0.1150128E+00
         21   -1    0    0  501  502  0.00000000000E+00  0.00000000000E+00  0.99633437964E+03  0.99633437964E+03  0.00000000000E+00 0.  1.
         21   -1    0    0  502  503 -0.00000000000E+00 -0.00000000000E+00 -0.11649786294E+03  0.11649786294E+03  0.00000000000E+00 0.  1.
          6    1    1    2  501    0 -0.94102675689E+02 -0.32123618373E+02  0.89091265864E+03  0.91298499755E+03  0.17300000000E+03 0.  1.
         -6    1    1    2    0  503  0.94102675689E+02  0.32123618373E+02 -0.11076141933E+02  0.19984724504E+03  0.17300000000E+03 0.  1.
<mgrwt>
<rscale>  2 0.19954007E+03</rscale>
<asrwt>0</asrwt>
<pdfrwt beam="1">  1       21 0.15328221E+00 0.19954007E+03</pdfrwt>
<pdfrwt beam="2">  1       21 0.17922749E-01 0.19954007E+03</pdfrwt>
<totfact> 0.79456680E+03</totfact>
</mgrwt>
</event>
<event>
 4    3  0.4022695E+000  0.1874462E+03  0.7546771E-02  0.1160785E+00
         21   -1    0    0  501  502  0.00000000000E+00  0.00000000000E+00  0.58771411941E+03  0.58771411941E+03  0.00000000000E+00 0. -1.
         21   -1    0    0  502  503 -0.00000000000E+00 -0.00000000000E+00 -0.59813835304E+02  0.59813835304E+02  0.00000000000E+00 0.  1.
          6    1    1    2  501    0 -0.21530756573E+02 -0.68873226015E+02  0.27114097588E+03  0.32962633927E+03  0.17300000000E+03 0. -1.
         -6    1    1    2    0  503  0.21530756573E+02  0.68873226015E+02  0.25675930823E+03  0.31790161544E+03  0.17300000000E+03 0. -1.
<mgrwt>
<rscale>  2 0.18744624E+03</rscale>
<asrwt>0</asrwt>
<pdfrwt beam="1">  1       21 0.90417553E-01 0.18744624E+03</pdfrwt>
<pdfrwt beam="2">  1       21 0.92021289E-02 0.18744624E+03</pdfrwt>
<totfact> 0.97852432E+04</totfact>
</mgrwt>
</event>
<event>
 4    3  0.4022695E+000  0.1839697E+03  0.7546771E-02  0.1164015E+00
         21   -1    0    0  503  502  0.00000000000E+00  0.00000000000E+00  0.25242966890E+03  0.25242966890E+03  0.00000000000E+00 0. -1.
         21   -1    0    0  501  503 -0.00000000000E+00 -0.00000000000E+00 -0.19022179312E+03  0.19022179312E+03  0.00000000000E+00 0. -1.
          6    1    1    2  501    0  0.47652076850E+02  0.40560302318E+02 -0.89138805612E+02  0.20442745710E+03  0.17300000000E+03 0. -1.
         -6    1    1    2    0  502 -0.47652076850E+02 -0.40560302318E+02  0.15134668139E+03  0.23822400492E+03  0.17300000000E+03 0. -1.
<mgrwt>
<rscale>  2 0.18396972E+03</rscale>
<asrwt>0</asrwt>
<pdfrwt beam="1">  1       21 0.38835333E-01 0.18396972E+03</pdfrwt>
<pdfrwt beam="2">  1       21 0.29264891E-01 0.18396972E+03</pdfrwt>
<totfact> 0.71757839E+04</totfact>
</mgrwt>
</event>
<event>
 4    3  0.4022695E+000  0.2065100E+03  0.7546771E-02  0.1144360E+00
         21   -1    0    0  501  502  0.00000000000E+00  0.00000000000E+00  0.11661921894E+03  0.11661921894E+03  0.00000000000E+00 0.  1.
         21   -1    0    0  502  503 -0.00000000000E+00 -0.00000000000E+00 -0.37460584836E+03  0.37460584836E+03  0.00000000000E+00 0.  1.
          6    1    1    2  501    0  0.45756313174E+02 -0.10307151909E+03 -0.16688695163E+03  0.26551390334E+03  0.17300000000E+03 0.  1.
         -6    1    1    2    0  503 -0.45756313174E+02  0.10307151909E+03 -0.91099677798E+02  0.22571116396E+03  0.17300000000E+03 0.  1.
<mgrwt>
<rscale>  2 0.20651000E+03</rscale>
<asrwt>0</asrwt>
<pdfrwt beam="1">  1       21 0.17941418E-01 0.20651000E+03</pdfrwt>
<pdfrwt beam="2">  1       21 0.57631669E-01 0.20651000E+03</pdfrwt>
<totfact> 0.79299308E+04</totfact>
</mgrwt>
</event>
<event>
 4    3  0.4022695E+000  0.2128547E+03  0.7546771E-02  0.1139325E+00
         21   -1    0    0  501  502  0.00000000000E+00  0.00000000000E+00  0.53031313335E+02  0.53031313335E+02  0.00000000000E+00 0. -1.
         21   -1    0    0  502  503 -0.00000000000E+00 -0.00000000000E+00 -0.10910678247E+04  0.10910678247E+04  0.00000000000E+00 0.  1.
          6    1    1    2  501    0 -0.72322398358E+02 -0.10073531523E+03 -0.25256182800E+03  0.33029473202E+03  0.17300000000E+03 0. -1.
         -6    1    1    2    0  503  0.72322398358E+02  0.10073531523E+03 -0.78547468333E+03  0.81380440598E+03  0.17300000000E+03 0.  1.
<mgrwt>
<rscale>  2 0.21285472E+03</rscale>
<asrwt>0</asrwt>
<pdfrwt beam="1">  1       21 0.81586642E-02 0.21285472E+03</pdfrwt>
<pdfrwt beam="2">  1       21 0.16785658E+00 0.21285472E+03</pdfrwt>
<totfact> 0.25281940E+04</totfact>
</mgrwt>
</event>
<event>
 4    3  0.4022695E+000  0.1908448E+03  0.7546771E-02  0.1157702E+00
         21   -1    0    0  503  502  0.00000000000E+00  0.00000000000E+00  0.19288343503E+04  0.19288343503E+04  0.00000000000E+00 0. -1.
         21   -1    0    0  501  503 -0.00000000000E+00 -0.00000000000E+00 -0.43326959441E+02  0.43326959441E+02  0.00000000000E+00 0. -1.
          6    1    1    2  501    0  0.97911113951E+01  0.79980467340E+02  0.20208988166E+03  0.27796053908E+03  0.17300000000E+03 0. -1.
         -6    1    1    2    0  502 -0.97911113951E+01 -0.79980467340E+02  0.16834175092E+04  0.16942007707E+04  0.17300000000E+03 0. -1.
<mgrwt>
<rscale>  2 0.19084481E+03</rscale>
<asrwt>0</asrwt>
<pdfrwt beam="1">  1       21 0.29674368E+00 0.19084481E+03</pdfrwt>
<pdfrwt beam="2">  1       21 0.66656876E-02 0.19084481E+03</pdfrwt>
<totfact> 0.58780680E+03</totfact>
</mgrwt>
</event>
<event>
 4    3  0.4022695E+000  0.2030689E+03  0.7546771E-02  0.1147175E+00
         21   -1    0    0  501  502  0.00000000000E+00  0.00000000000E+00  0.44340618725E+03  0.44340618725E+03  0.00000000000E+00 0. -1.
         21   -1    0    0  502  503 -0.00000000000E+00 -0.00000000000E+00 -0.93666289169E+02  0.93666289169E+02  0.00000000000E+00 0. -1.
          6    1    1    2  501    0  0.98575656906E+02 -0.39885167829E+02  0.15222938543E+03  0.25379277479E+03  0.17300000000E+03 0. -1.
         -6    1    1    2    0  503 -0.98575656906E+02  0.39885167829E+02  0.19751051264E+03  0.28327970162E+03  0.17300000000E+03 0. -1.
<mgrwt>
<rscale>  2 0.20306892E+03</rscale>
<asrwt>0</asrwt>
<pdfrwt beam="1">  1       21 0.68216335E-01 0.20306892E+03</pdfrwt>
<pdfrwt beam="2">  1       21 0.14410199E-01 0.20306892E+03</pdfrwt>
<totfact> 0.82378879E+04</totfact>
</mgrwt>
</event>
<event>
 4    3  0.4022695E+000  0.4040367E+03  0.7546771E-02  0.1042391E+00
         21   -1    0    0  503  502  0.00000000000E+00  0.00000000000E+00  0.87866163889E+02  0.87866163889E+02  0.00000000000E+00 0.  1.
         21   -1    0    0  501  503 -0.00000000000E+00 -0.00000000000E+00 -0.26177368884E+04  0.26177368884E+04  0.00000000000E+00 0. -1.
          6    1    1    2  501    0  0.19293049294E+03 -0.30999104709E+03 -0.19937788405E+04  0.20343057020E+04  0.17300000000E+03 0. -1.
         -6    1    1    2    0  502 -0.19293049294E+03  0.30999104709E+03 -0.53609188396E+03  0.67129735024E+03  0.17300000000E+03 0.  1.
<mgrwt>
<rscale>  2 0.40403666E+03</rscale>
<asrwt>0</asrwt>
<pdfrwt beam="1">  1       21 0.13517871E-01 0.40403666E+03</pdfrwt>
<pdfrwt beam="2">  1       21 0.40272875E+00 0.40403666E+03</pdfrwt>
<totfact> 0.31482779E+02</totfact>
</mgrwt>
</event>
<event>
 4    3  0.4022695E+000  0.2349569E+03  0.7546771E-02  0.1123199E+00
         21   -1    0    0  503  502  0.00000000000E+00  0.00000000000E+00  0.17719407619E+03  0.17719407619E+03  0.00000000000E+00 0.  1.
         21   -1    0    0  501  503 -0.00000000000E+00 -0.00000000000E+00 -0.11443981615E+04  0.11443981615E+04  0.00000000000E+00 0.  1.
          6    1    1    2  501    0 -0.14463412023E+03  0.66005339761E+02 -0.10473200945E+04  0.10733518128E+04  0.17300000000E+03 0.  1.
         -6    1    1    2    0  502  0.14463412023E+03 -0.66005339761E+02  0.80116009235E+02  0.24824042488E+03  0.17300000000E+03 0.  1.
<mgrwt>
<rscale>  2 0.23495688E+03</rscale>
<asrwt>0</asrwt>
<pdfrwt beam="1">  1       21 0.27260627E-01 0.23495688E+03</pdfrwt>
<pdfrwt beam="2">  1       21 0.17606126E+00 0.23495688E+03</pdfrwt>
<totfact> 0.23910253E+03</totfact>
</mgrwt>
</event>
<event>
 4    3  0.4022695E+000  0.1738781E+03  0.7546771E-02  0.1173863E+00
         21   -1    0    0  501  502  0.00000000000E+00  0.00000000000E+00  0.17830109083E+03  0.17830109083E+03  0.00000000000E+00 0. -1.
         21   -1    0    0  502  503 -0.00000000000E+00 -0.00000000000E+00 -0.19042157939E+03  0.19042157939E+03  0.00000000000E+00 0. -1.
          6    1    1    2  501    0 -0.31866512949E+01 -0.17159662908E+02  0.54954419254E+02  0.18235568807E+03  0.17300000000E+03 0. -1.
         -6    1    1    2    0  503  0.31866512949E+01  0.17159662908E+02 -0.67074907814E+02  0.18636698215E+03  0.17300000000E+03 0. -1.
<mgrwt>
<rscale>  2 0.17387814E+03</rscale>
<asrwt>0</asrwt>
<pdfrwt beam="1">  1       21 0.27430937E-01 0.17387814E+03</pdfrwt>
<pdfrwt beam="2">  1       21 0.29295628E-01 0.17387814E+03</pdfrwt>
<totfact> 0.14235949E+05</totfact>
</mgrwt>
</event>
<event>
 4    3  0.4022695E+000  0.2504798E+03  0.7546771E-02  0.1113002E+00
         21   -1    0    0  501  502  0.00000000000E+00  0.00000000000E+00  0.16471364578E+03  0.16471364578E+03  0.00000000000E+00 0. -1.
         21   -1    0    0  502  503 -0.00000000000E+00 -0.00000000000E+00 -0.41708856694E+03  0.41708856694E+03  0.00000000000E+00 0.  1.
          6    1    1    2  501    0 -0.14852317985E+03  0.10369182315E+03 -0.21186981022E+03  0.32806850752E+03  0.17300000000E+03 0.  1.
         -6    1    1    2    0  503  0.14852317985E+03 -0.10369182315E+03 -0.40505110942E+02  0.25373370520E+03  0.17300000000E+03 0. -1.
<mgrwt>
<rscale>  2 0.25047980E+03</rscale>
<asrwt>0</asrwt>
<pdfrwt beam="1">  1       21 0.25340561E-01 0.25047980E+03</pdfrwt>
<pdfrwt beam="2">  1       21 0.64167471E-01 0.25047980E+03</pdfrwt>
<totfact> 0.32149822E+04</totfact>
</mgrwt>
</event>
<event>
 4    3  0.4022695E+000  0.1847333E+03  0.7546771E-02  0.1163299E+00
         21   -1    0    0  503  502  0.00000000000E+00  0.00000000000E+00  0.36994139915E+03  0.36994139915E+03  0.00000000000E+00 0. -1.
         21   -1    0    0  501  503 -0.00000000000E+00 -0.00000000000E+00 -0.92250110814E+02  0.92250110814E+02  0.00000000000E+00 0. -1.
          6    1    1    2  501    0  0.48328431445E+02 -0.43148142834E+02  0.13991851676E+03  0.23174035222E+03  0.17300000000E+03 0. -1.
         -6    1    1    2    0  502 -0.48328431445E+02  0.43148142834E+02  0.13777277157E+03  0.23045115774E+03  0.17300000000E+03 0. -1.
<mgrwt>
<rscale>  2 0.18473332E+03</rscale>
<asrwt>0</asrwt>
<pdfrwt beam="1">  1       21 0.56914061E-01 0.18473332E+03</pdfrwt>
<pdfrwt beam="2">  1       21 0.14192325E-01 0.18473332E+03</pdfrwt>
<totfact> 0.12618266E+05</totfact>
</mgrwt>
</event>
<event>
 4    3  0.4022695E+000  0.1909403E+03  0.7546771E-02  0.1157616E+00
         21   -1    0    0  503  502  0.00000000000E+00  0.00000000000E+00  0.57700592818E+03  0.57700592818E+03  0.00000000000E+00 0.  1.
         21   -1    0    0  501  503 -0.00000000000E+00 -0.00000000000E+00 -0.63327074956E+02  0.63327074956E+02  0.00000000000E+00 0.  1.
          6    1    1    2  501    0  0.80226831591E+02  0.96352017813E+01  0.27199860006E+03  0.33232727853E+03  0.17300000000E+03 0.  1.
         -6    1    1    2    0  502 -0.80226831591E+02 -0.96352017813E+01  0.24168025317E+03  0.30800572461E+03  0.17300000000E+03 0.  1.
<mgrwt>
<rscale>  2 0.19094026E+03</rscale>
<asrwt>0</asrwt>
<pdfrwt beam="1">  1       21 0.88770139E-01 0.19094026E+03</pdfrwt>
<pdfrwt beam="2">  1       21 0.97426273E-02 0.19094026E+03</pdfrwt>
<totfact> 0.92216807E+04</totfact>
</mgrwt>
</event>
<event>
 4    3  0.4022695E+000  0.2103078E+03  0.7546771E-02  0.1141322E+00
         21   -1    0    0  503  502  0.00000000000E+00  0.00000000000E+00  0.35704920069E+03  0.35704920069E+03  0.00000000000E+00 0.  1.
         21   -1    0    0  501  503 -0.00000000000E+00 -0.00000000000E+00 -0.13553276823E+03  0.13553276823E+03  0.00000000000E+00 0. -1.
          6    1    1    2  501    0  0.32002322494E+00  0.11958373783E+03  0.38524638277E+02  0.21380720409E+03  0.17300000000E+03 0.  1.
         -6    1    1    2    0  502 -0.32002322494E+00 -0.11958373783E+03  0.18299179418E+03  0.27877476483E+03  0.17300000000E+03 0.  1.
<mgrwt>
<rscale>  2 0.21030780E+03</rscale>
<asrwt>0</asrwt>
<pdfrwt beam="1">  1       21 0.54930646E-01 0.21030780E+03</pdfrwt>
<pdfrwt beam="2">  1       21 0.20851195E-01 0.21030780E+03</pdfrwt>
<totfact> 0.66245172E+04</totfact>
</mgrwt>
</event>
<event>
 4    3  0.4022695E+000  0.2225043E+03  0.7546771E-02  0.1132030E+00
         21   -1    0    0  503  502  0.00000000000E+00  0.00000000000E+00  0.10606447434E+04  0.10606447434E+04  0.00000000000E+00 0.  1.
         21   -1    0    0  501  503 -0.00000000000E+00 -0.00000000000E+00 -0.60144296653E+02  0.60144296653E+02  0.00000000000E+00 0.  1.
          6    1    1    2  501    0  0.12057754912E+03 -0.70994457806E+02  0.76542372440E+03  0.79710829644E+03  0.17300000000E+03 0.  1.
         -6    1    1    2    0  502 -0.12057754912E+03  0.70994457806E+02  0.23507672235E+03  0.32368074360E+03  0.17300000000E+03 0.  1.
<mgrwt>
<rscale>  2 0.22250429E+03</rscale>
<asrwt>0</asrwt>
<pdfrwt beam="1">  1       21 0.16317610E+00 0.22250429E+03</pdfrwt>
<pdfrwt beam="2">  1       21 0.92529695E-02 0.22250429E+03</pdfrwt>
<totfact> 0.21772582E+04</totfact>
</mgrwt>
</event>
<event>
 4    3  0.4022695E+000  0.1917463E+03  0.7546771E-02  0.1156896E+00
         21   -1    0    0  503  502  0.00000000000E+00  0.00000000000E+00  0.11193576374E+03  0.11193576374E+03  0.00000000000E+00 0. -1.
         21   -1    0    0  501  503 -0.00000000000E+00 -0.00000000000E+00 -0.41267053532E+03  0.41267053532E+03  0.00000000000E+00 0. -1.
          6    1    1    2  501    0  0.66527864661E+02 -0.49109088349E+02 -0.26885678494E+03  0.33022814862E+03  0.17300000000E+03 0. -1.
         -6    1    1    2    0  502 -0.66527864661E+02  0.49109088349E+02 -0.31877986639E+02  0.19437815044E+03  0.17300000000E+03 0. -1.
<mgrwt>
<rscale>  2 0.19174634E+03</rscale>
<asrwt>0</asrwt>
<pdfrwt beam="1">  1       21 0.17220887E-01 0.19174634E+03</pdfrwt>
<pdfrwt beam="2">  1       21 0.63487774E-01 0.19174634E+03</pdfrwt>
<totfact> 0.69910595E+04</totfact>
</mgrwt>
</event>
<event>
 4    3  0.4022695E+000  0.2397490E+03  0.7546771E-02  0.1119960E+00
         21   -1    0    0  503  502  0.00000000000E+00  0.00000000000E+00  0.16102533872E+03  0.16102533872E+03  0.00000000000E+00 0.  1.
         21   -1    0    0  501  503 -0.00000000000E+00 -0.00000000000E+00 -0.36220342890E+03  0.36220342890E+03  0.00000000000E+00 0. -1.
          6    1    1    2  501    0  0.16581630788E+03 -0.74517352031E+01 -0.13206655613E+03  0.27371728400E+03  0.17300000000E+03 0. -1.
         -6    1    1    2    0  502 -0.16581630788E+03  0.74517352031E+01 -0.69111534051E+02  0.24951148361E+03  0.17300000000E+03 0. -1.
<mgrwt>
<rscale>  2 0.23974899E+03</rscale>
<asrwt>0</asrwt>
<pdfrwt beam="1">  1       21 0.24773129E-01 0.23974899E+03</pdfrwt>
<pdfrwt beam="2">  1       21 0.55723604E-01 0.23974899E+03</pdfrwt>
<totfact> 0.45747115E+04</totfact>
</mgrwt>
</event>
<event>
 4    3  0.4022695E+000  0.2189462E+03  0.7546771E-02  0.1134671E+00
         21   -1    0    0  503  502  0.00000000000E+00  0.00000000000E+00  0.71528740571E+02  0.71528740571E+02  0.00000000000E+00 0. -1.
         21   -1    0    0  501  503 -0.00000000000E+00 -0.00000000000E+00 -0.79771362831E+03  0.79771362831E+03  0.00000000000E+00 0. -1.
          6    1    1    2  501    0 -0.11932509175E+03  0.61400021604E+02 -0.53686948236E+03  0.57979848332E+03  0.17300000000E+03 0. -1.
         -6    1    1    2    0  502  0.11932509175E+03 -0.61400021604E+02 -0.18931540538E+03  0.28944388556E+03  0.17300000000E+03 0. -1.
<mgrwt>
<rscale>  2 0.21894620E+03</rscale>
<asrwt>0</asrwt>
<pdfrwt beam="1">  1       21 0.11004422E-01 0.21894620E+03</pdfrwt>
<pdfrwt beam="2">  1       21 0.12272517E+00 0.21894620E+03</pdfrwt>
<totfact> 0.33698940E+04</totfact>
</mgrwt>
</event>
<event>
 4    3  0.4022695E+000  0.2004025E+03  0.7546771E-02  0.1149400E+00
         21   -1    0    0  501  502  0.00000000000E+00  0.00000000000E+00  0.18860422664E+03  0.18860422664E+03  0.00000000000E+00 0.  1.
         21   -1    0    0  502  503 -0.00000000000E+00 -0.00000000000E+00 -0.24912025882E+03  0.24912025882E+03  0.00000000000E+00 0. -1.
          6    1    1    2  501    0  0.84567223070E+02 -0.55502787503E+02  0.53150197471E+02  0.20733093867E+03  0.17300000000E+03 0.  1.
         -6    1    1    2    0  503 -0.84567223070E+02  0.55502787503E+02 -0.11366622966E+03  0.23039354679E+03  0.17300000000E+03 0. -1.
<mgrwt>
<rscale>  2 0.20040253E+03</rscale>
<asrwt>0</asrwt>
<pdfrwt beam="1">  1       21 0.29016035E-01 0.20040253E+03</pdfrwt>
<pdfrwt beam="2">  1       21 0.38326194E-01 0.20040253E+03</pdfrwt>
<totfact> 0.74393739E+04</totfact>
</mgrwt>
</event>
<event>
 4    3  0.4022695E+000  0.1904254E+03  0.7546771E-02  0.1158078E+00
         21   -1    0    0  503  502  0.00000000000E+00  0.00000000000E+00  0.95614941369E+02  0.95614941369E+02  0.00000000000E+00 0.  1.
         21   -1    0    0  501  503 -0.00000000000E+00 -0.00000000000E+00 -0.38466774135E+03  0.38466774135E+03  0.00000000000E+00 0.  1.
          6    1    1    2  501    0 -0.68482974521E+02  0.40532937974E+02 -0.17302919997E+03  0.25729543506E+03  0.17300000000E+03 0.  1.
         -6    1    1    2    0  502  0.68482974521E+02 -0.40532937974E+02 -0.11602360002E+03  0.22298724766E+03  0.17300000000E+03 0.  1.
<mgrwt>
<rscale>  2 0.19042541E+03</rscale>
<asrwt>0</asrwt>
<pdfrwt beam="1">  1       21 0.14709991E-01 0.19042541E+03</pdfrwt>
<pdfrwt beam="2">  1       21 0.59179653E-01 0.19042541E+03</pdfrwt>
<totfact> 0.10857330E+05</totfact>
</mgrwt>
</event>
<event>
 4    3  0.4022695E+000  0.2256992E+03  0.7546771E-02  0.1129704E+00
         21   -1    0    0  501  502  0.00000000000E+00  0.00000000000E+00  0.14536614484E+04  0.14536614484E+04  0.00000000000E+00 0.  1.
         21   -1    0    0  502  503 -0.00000000000E+00 -0.00000000000E+00 -0.47203307671E+02  0.47203307671E+02  0.00000000000E+00 0.  1.
          6    1    1    2  501    0 -0.14179487845E+03  0.30089008067E+02  0.10841229934E+04  0.11073675094E+04  0.17300000000E+03 0.  1.
         -6    1    1    2    0  503  0.14179487845E+03 -0.30089008067E+02  0.32233514728E+03  0.39349724666E+03  0.17300000000E+03 0.  1.
<mgrwt>
<rscale>  2 0.22569922E+03</rscale>
<asrwt>0</asrwt>
<pdfrwt beam="1">  1       21 0.22364019E+00 0.22569922E+03</pdfrwt>
<pdfrwt beam="2">  1       21 0.72620484E-02 0.22569922E+03</pdfrwt>
<totfact> 0.13205663E+04</totfact>
</mgrwt>
</event>
<event>
 4    3  0.4022695E+000  0.1909530E+03  0.7546771E-02  0.1157605E+00
         21   -1    0    0  503  502  0.00000000000E+00  0.00000000000E+00  0.17671464854E+03  0.17671464854E+03  0.00000000000E+00 0. -1.
         21   -1    0    0  501  503 -0.00000000000E+00 -0.00000000000E+00 -0.21819011230E+03  0.21819011230E+03  0.00000000000E+00 0. -1.
          6    1    1    2  501    0 -0.47291622687E+01 -0.80695089432E+02 -0.66756052660E+02  0.20228552346E+03  0.17300000000E+03 0. -1.
         -6    1    1    2    0  502  0.47291622687E+01  0.80695089432E+02  0.25280588897E+02  0.19261923738E+03  0.17300000000E+03 0. -1.
<mgrwt>
<rscale>  2 0.19095304E+03</rscale>
<asrwt>0</asrwt>
<pdfrwt beam="1">  1       21 0.27186869E-01 0.19095304E+03</pdfrwt>
<pdfrwt beam="2">  1       21 0.33567710E-01 0.19095304E+03</pdfrwt>
<totfact> 0.11031519E+05</totfact>
</mgrwt>
</event>
<event>
 4    3  0.4022695E+000  0.1900679E+03  0.7546771E-02  0.1158400E+00
         21   -1    0    0  503  502  0.00000000000E+00  0.00000000000E+00  0.25329158389E+03  0.25329158389E+03  0.00000000000E+00 0. -1.
         21   -1    0    0  501  503 -0.00000000000E+00 -0.00000000000E+00 -0.14322378196E+03  0.14322378196E+03  0.00000000000E+00 0.  1.
          6    1    1    2  501    0 -0.30504532806E+02 -0.72569074093E+02  0.42218410127E+02  0.19470025986E+03  0.17300000000E+03 0. -1.
         -6    1    1    2    0  502  0.30504532806E+02  0.72569074093E+02  0.67849391809E+02  0.20181510599E+03  0.17300000000E+03 0. -1.
<mgrwt>
<rscale>  2 0.19006787E+03</rscale>
<asrwt>0</asrwt>
<pdfrwt beam="1">  1       21 0.38967936E-01 0.19006787E+03</pdfrwt>
<pdfrwt beam="2">  1       21 0.22034428E-01 0.19006787E+03</pdfrwt>
<totfact> 0.12231879E+05</totfact>
</mgrwt>
</event>
<event>
 4    3  0.4022695E+000  0.2017296E+03  0.7546771E-02  0.1148288E+00
         21   -1    0    0  501  502  0.00000000000E+00  0.00000000000E+00  0.36708589269E+02  0.36708589269E+02  0.00000000000E+00 0.  1.
         21   -1    0    0  502  503 -0.00000000000E+00 -0.00000000000E+00 -0.11640238426E+04  0.11640238426E+04  0.00000000000E+00 0.  1.
          6    1    1    2  501    0 -0.17543853894E+02  0.10226456980E+03 -0.43264383074E+03  0.47736308333E+03  0.17300000000E+03 0.  1.
         -6    1    1    2    0  503  0.17543853894E+02 -0.10226456980E+03 -0.69467142257E+03  0.72336934852E+03  0.17300000000E+03 0.  1.
<mgrwt>
<rscale>  2 0.20172959E+03</rscale>
<asrwt>0</asrwt>
<pdfrwt beam="1">  1       21 0.56474752E-02 0.20172959E+03</pdfrwt>
<pdfrwt beam="2">  1       21 0.17908059E+00 0.20172959E+03</pdfrwt>
<totfact> 0.40134108E+04</totfact>
</mgrwt>
</event>
<event>
 4    3  0.4022695E+000  0.1759272E+03  0.7546771E-02  0.1171804E+00
         21   -1    0    0  503  502  0.00000000000E+00  0.00000000000E+00  0.38277227120E+03  0.38277227120E+03  0.00000000000E+00 0.  1.
         21   -1    0    0  501  503 -0.00000000000E+00 -0.00000000000E+00 -0.94610242366E+02  0.94610242366E+02  0.00000000000E+00 0.  1.
          6    1    1    2  501    0  0.13528467285E+02  0.28954492450E+02  0.53079903387E+02  0.18376032816E+03  0.17300000000E+03 0.  1.
         -6    1    1    2    0  502 -0.13528467285E+02 -0.28954492450E+02  0.23508212544E+03  0.29362218541E+03  0.17300000000E+03 0.  1.
<mgrwt>
<rscale>  2 0.17592721E+03</rscale>
<asrwt>0</asrwt>
<pdfrwt beam="1">  1       21 0.58888041E-01 0.17592721E+03</pdfrwt>
<pdfrwt beam="2">  1       21 0.14555422E-01 0.17592721E+03</pdfrwt>
<totfact> 0.11245229E+05</totfact>
</mgrwt>
</event>
<event>
 4    3  0.4022695E+000  0.1953259E+03  0.7546771E-02  0.1153744E+00
         21   -1    0    0  501  502  0.00000000000E+00  0.00000000000E+00  0.22008274969E+03  0.22008274969E+03  0.00000000000E+00 0. -1.
         21   -1    0    0  502  503 -0.00000000000E+00 -0.00000000000E+00 -0.22342780726E+03  0.22342780726E+03  0.00000000000E+00 0. -1.
          6    1    1    2  501    0 -0.86504865973E+02 -0.27205007063E+02  0.10330855935E+03  0.22096348722E+03  0.17300000000E+03 0. -1.
         -6    1    1    2    0  503  0.86504865973E+02  0.27205007063E+02 -0.10665361692E+03  0.22254706974E+03  0.17300000000E+03 0. -1.
<mgrwt>
<rscale>  2 0.19532589E+03</rscale>
<asrwt>0</asrwt>
<pdfrwt beam="1">  1       21 0.33858885E-01 0.19532589E+03</pdfrwt>
<pdfrwt beam="2">  1       21 0.34373509E-01 0.19532589E+03</pdfrwt>
<totfact> 0.68461703E+04</totfact>
</mgrwt>
</event>
<event>
 4    3  0.4022695E+000  0.2194427E+03  0.7546771E-02  0.1134299E+00
         21   -1    0    0  503  502  0.00000000000E+00  0.00000000000E+00  0.14754217309E+04  0.14754217309E+04  0.00000000000E+00 0. -1.
         21   -1    0    0  501  503 -0.00000000000E+00 -0.00000000000E+00 -0.42950904907E+02  0.42950904907E+02  0.00000000000E+00 0. -1.
          6    1    1    2  501    0 -0.98699041467E+02 -0.92111992475E+02  0.34423076994E+03  0.40822780762E+03  0.17300000000E+03 0. -1.
         -6    1    1    2    0  502  0.98699041467E+02  0.92111992475E+02  0.10882400561E+04  0.11101448282E+04  0.17300000000E+03 0. -1.
<mgrwt>
<rscale>  2 0.21944275E+03</rscale>
<asrwt>0</asrwt>
<pdfrwt beam="1">  1       21 0.22698792E+00 0.21944275E+03</pdfrwt>
<pdfrwt beam="2">  1       21 0.66078326E-02 0.21944275E+03</pdfrwt>
<totfact> 0.14906499E+04</totfact>
</mgrwt>
</event>
<event>
 4    3  0.4022695E+000  0.2118357E+03  0.7546771E-02  0.1140121E+00
         21   -1    0    0  501  502  0.00000000000E+00  0.00000000000E+00  0.63674341355E+03  0.63674341355E+03  0.00000000000E+00 0.  1.
         21   -1    0    0  502  503 -0.00000000000E+00 -0.00000000000E+00 -0.70756287291E+02  0.70756287291E+02  0.00000000000E+00 0.  1.
          6    1    1    2  501    0 -0.11491281190E+03  0.41718108462E+02  0.30530641213E+03  0.37159973116E+03  0.17300000000E+03 0.  1.
         -6    1    1    2    0  503  0.11491281190E+03 -0.41718108462E+02  0.26068071413E+03  0.33589996968E+03  0.17300000000E+03 0.  1.
<mgrwt>
<rscale>  2 0.21183568E+03</rscale>
<asrwt>0</asrwt>
<pdfrwt beam="1">  1       21 0.97960521E-01 0.21183568E+03</pdfrwt>
<pdfrwt beam="2">  1       21 0.10885583E-01 0.21183568E+03</pdfrwt>
<totfact> 0.59621303E+04</totfact>
</mgrwt>
</event>
<event>
 4    3  0.4022695E+000  0.2062254E+03  0.7546771E-02  0.1144590E+00
         21   -1    0    0  503  502  0.00000000000E+00  0.00000000000E+00  0.33129758737E+03  0.33129758737E+03  0.00000000000E+00 0. -1.
         21   -1    0    0  501  503 -0.00000000000E+00 -0.00000000000E+00 -0.18403653544E+03  0.18403653544E+03  0.00000000000E+00 0.  1.
          6    1    1    2  501    0  0.60718794002E+02 -0.94409485591E+02 -0.68079642280E+02  0.21717219115E+03  0.17300000000E+03 0.  1.
         -6    1    1    2    0  502 -0.60718794002E+02  0.94409485591E+02  0.21534069420E+03  0.29816193166E+03  0.17300000000E+03 0. -1.
<mgrwt>
<rscale>  2 0.20622542E+03</rscale>
<asrwt>0</asrwt>
<pdfrwt beam="1">  1       21 0.50968860E-01 0.20622542E+03</pdfrwt>
<pdfrwt beam="2">  1       21 0.28313313E-01 0.20622542E+03</pdfrwt>
<totfact> 0.43352817E+04</totfact>
</mgrwt>
</event>
<event>
 4    3  0.4022695E+000  0.1984999E+03  0.7546771E-02  0.1151011E+00
         21   -1    0    0  503  502  0.00000000000E+00  0.00000000000E+00  0.99022566115E+03  0.99022566115E+03  0.00000000000E+00 0.  1.
         21   -1    0    0  501  503 -0.00000000000E+00 -0.00000000000E+00 -0.49823827216E+02  0.49823827216E+02  0.00000000000E+00 0. -1.
          6    1    1    2  501    0  0.91159943311E+02  0.34103964973E+02  0.23684762445E+03  0.30902914571E+03  0.17300000000E+03 0. -1.
         -6    1    1    2    0  502 -0.91159943311E+02 -0.34103964973E+02  0.70355420948E+03  0.73102034265E+03  0.17300000000E+03 0.  1.
<mgrwt>
<rscale>  2 0.19849991E+03</rscale>
<asrwt>0</asrwt>
<pdfrwt beam="1">  1       21 0.15234239E+00 0.19849991E+03</pdfrwt>
<pdfrwt beam="2">  1       21 0.76652049E-02 0.19849991E+03</pdfrwt>
<totfact> 0.36957377E+04</totfact>
</mgrwt>
</event>
<event>
 4    3  0.4022695E+000  0.1881590E+03  0.7546771E-02  0.1160132E+00
         21   -1    0    0  503  502  0.00000000000E+00  0.00000000000E+00  0.74134414109E+03  0.74134414109E+03  0.00000000000E+00 0.  1.
         21   -1    0    0  501  503 -0.00000000000E+00 -0.00000000000E+00 -0.58402582324E+02  0.58402582324E+02  0.00000000000E+00 0.  1.
          6    1    1    2  501    0  0.70870510263E+02  0.21264515154E+02  0.17074203004E+03  0.25408000640E+03  0.17300000000E+03 0.  1.
         -6    1    1    2    0  502 -0.70870510263E+02 -0.21264515154E+02  0.51219952873E+03  0.54566671702E+03  0.17300000000E+03 0.  1.
<mgrwt>
<rscale>  2 0.18815900E+03</rscale>
<asrwt>0</asrwt>
<pdfrwt beam="1">  1       21 0.11405294E+00 0.18815900E+03</pdfrwt>
<pdfrwt beam="2">  1       21 0.89850132E-02 0.18815900E+03</pdfrwt>
<totfact> 0.58733398E+04</totfact>
</mgrwt>
</event>
<event>
 4    3  0.4022695E+000  0.1795608E+03  0.7546771E-02  0.1168229E+00
         21   -1    0    0  503  502  0.00000000000E+00  0.00000000000E+00  0.93314802947E+03  0.93314802947E+03  0.00000000000E+00 0.  1.
         21   -1    0    0  501  503 -0.00000000000E+00 -0.00000000000E+00 -0.35474760885E+02  0.35474760885E+02  0.00000000000E+00 0.  1.
          6    1    1    2  501    0 -0.31587641298E+02 -0.36267298436E+02  0.52694872947E+03  0.55670194854E+03  0.17300000000E+03 0.  1.
         -6    1    1    2    0  502  0.31587641298E+02  0.36267298436E+02  0.37072453911E+03  0.41192084181E+03  0.17300000000E+03 0.  1.
<mgrwt>
<rscale>  2 0.17956084E+03</rscale>
<asrwt>0</asrwt>
<pdfrwt beam="1">  1       21 0.14356122E+00 0.17956084E+03</pdfrwt>
<pdfrwt beam="2">  1       21 0.54576562E-02 0.17956084E+03</pdfrwt>
<totfact> 0.78220076E+04</totfact>
</mgrwt>
</event>
<event>
 4    3  0.4022695E+000  0.2437722E+03  0.7546771E-02  0.1117305E+00
         21   -1    0    0  503  502  0.00000000000E+00  0.00000000000E+00  0.21796332582E+03  0.21796332582E+03  0.00000000000E+00 0.  1.
         21   -1    0    0  501  503 -0.00000000000E+00 -0.00000000000E+00 -0.55446616268E+03  0.55446616268E+03  0.00000000000E+00 0.  1.
          6    1    1    2  501    0 -0.48813923163E+01 -0.17167432530E+03 -0.44360083982E+03  0.50616855596E+03  0.17300000000E+03 0.  1.
         -6    1    1    2    0  502  0.48813923163E+01  0.17167432530E+03  0.10709800295E+03  0.26626093254E+03  0.17300000000E+03 0.  1.
<mgrwt>
<rscale>  2 0.24377223E+03</rscale>
<asrwt>0</asrwt>
<pdfrwt beam="1">  1       21 0.33532820E-01 0.24377223E+03</pdfrwt>
<pdfrwt beam="2">  1       21 0.85302485E-01 0.24377223E+03</pdfrwt>
<totfact> 0.98527637E+03</totfact>
</mgrwt>
</event>
<event>
 4    3  0.4022695E+000  0.1995128E+03  0.7546771E-02  0.1150151E+00
         21   -1    0    0  501  502  0.00000000000E+00  0.00000000000E+00  0.14027869359E+03  0.14027869359E+03  0.00000000000E+00 0. -1.
         21   -1    0    0  502  503 -0.00000000000E+00 -0.00000000000E+00 -0.38790512077E+03  0.38790512077E+03  0.00000000000E+00 0. -1.
          6    1    1    2  501    0  0.36823333831E+02  0.92305968613E+02  0.13027007580E+02  0.19993762198E+03  0.17300000000E+03 0. -1.
         -6    1    1    2    0  503 -0.36823333831E+02 -0.92305968613E+02 -0.26065343477E+03  0.32824619238E+03  0.17300000000E+03 0. -1.
<mgrwt>
<rscale>  2 0.19951278E+03</rscale>
<asrwt>0</asrwt>
<pdfrwt beam="1">  1       21 0.21581338E-01 0.19951278E+03</pdfrwt>
<pdfrwt beam="2">  1       21 0.59677710E-01 0.19951278E+03</pdfrwt>
<totfact> 0.52289585E+04</totfact>
</mgrwt>
</event>
<event>
 4    3  0.4022695E+000  0.2389921E+03  0.7546771E-02  0.1120466E+00
         21   -1    0    0  501  502  0.00000000000E+00  0.00000000000E+00  0.10566369409E+04  0.10566369409E+04  0.00000000000E+00 0.  1.
         21   -1    0    0  502  503 -0.00000000000E+00 -0.00000000000E+00 -0.32252315584E+03  0.32252315584E+03  0.00000000000E+00 0.  1.
          6    1    1    2  501    0  0.47855140496E+02 -0.15779130448E+03  0.99620093836E+03  0.10244674323E+04  0.17300000000E+03 0.  1.
         -6    1    1    2    0  503 -0.47855140496E+02  0.15779130448E+03 -0.26208715333E+03  0.35469266441E+03  0.17300000000E+03 0.  1.
<mgrwt>
<rscale>  2 0.23899207E+03</rscale>
<asrwt>0</asrwt>
<pdfrwt beam="1">  1       21 0.16255953E+00 0.23899207E+03</pdfrwt>
<pdfrwt beam="2">  1       21 0.49618947E-01 0.23899207E+03</pdfrwt>
<totfact> 0.89181368E+02</totfact>
</mgrwt>
</event>
<event>
 4    3  0.4022695E+000  0.2274879E+03  0.7546771E-02  0.1128420E+00
         21   -1    0    0  503  502  0.00000000000E+00  0.00000000000E+00  0.88687881087E+03  0.88687881087E+03  0.00000000000E+00 0. -1.
         21   -1    0    0  501  503 -0.00000000000E+00 -0.00000000000E+00 -0.66839784767E+02  0.66839784767E+02  0.00000000000E+00 0. -1.
          6    1    1    2  501    0 -0.14607268369E+03  0.22012213188E+02  0.24008521381E+03  0.33074412518E+03  0.17300000000E+03 0. -1.
         -6    1    1    2    0  502  0.14607268369E+03 -0.22012213188E+02  0.57995381229E+03  0.62297447046E+03  0.17300000000E+03 0. -1.
<mgrwt>
<rscale>  2 0.22748795E+03</rscale>
<asrwt>0</asrwt>
<pdfrwt beam="1">  1       21 0.13644289E+00 0.22748795E+03</pdfrwt>
<pdfrwt beam="2">  1       21 0.10283044E-01 0.22748795E+03</pdfrwt>
<totfact> 0.28934281E+04</totfact>
</mgrwt>
</event>
<event>
 4    3  0.4022695E+000  0.1737757E+03  0.7546771E-02  0.1173967E+00
         21   -1    0    0  503  502  0.00000000000E+00  0.00000000000E+00  0.63267452113E+03  0.63267452113E+03  0.00000000000E+00 0. -1.
         21   -1    0    0  501  503 -0.00000000000E+00 -0.00000000000E+00 -0.52860429216E+02  0.52860429216E+02  0.00000000000E+00 0. -1.
          6    1    1    2  501    0 -0.10398496220E+02  0.12683782013E+02  0.39668481974E+03  0.43307834541E+03  0.17300000000E+03 0. -1.
         -6    1    1    2    0  502  0.10398496220E+02 -0.12683782013E+02  0.18312927217E+03  0.25245660494E+03  0.17300000000E+03 0. -1.
<mgrwt>
<rscale>  2 0.17377574E+03</rscale>
<asrwt>0</asrwt>
<pdfrwt beam="1">  1       21 0.97334536E-01 0.17377574E+03</pdfrwt>
<pdfrwt beam="2">  1       21 0.81323742E-02 0.17377574E+03</pdfrwt>
<totfact> 0.10284021E+05</totfact>
</mgrwt>
</event>
<event>
 4    3  0.4022695E+000  0.2562986E+03  0.7546771E-02  0.1109388E+00
         21   -1    0    0  503  502  0.00000000000E+00  0.00000000000E+00  0.18510926099E+03  0.18510926099E+03  0.00000000000E+00 0.  1.
         21   -1    0    0  501  503 -0.00000000000E+00 -0.00000000000E+00 -0.92462610515E+03  0.92462610515E+03  0.00000000000E+00 0. -1.
          6    1    1    2  501    0 -0.14420838392E+03  0.12232716944E+03 -0.80532279623E+03  0.84512354157E+03  0.17300000000E+03 0. -1.
         -6    1    1    2    0  502  0.14420838392E+03 -0.12232716944E+03  0.65805952071E+02  0.26461182458E+03  0.17300000000E+03 0.  1.
<mgrwt>
<rscale>  2 0.25629864E+03</rscale>
<asrwt>0</asrwt>
<pdfrwt beam="1">  1       21 0.28478347E-01 0.25629864E+03</pdfrwt>
<pdfrwt beam="2">  1       21 0.14225017E+00 0.25629864E+03</pdfrwt>
<totfact> 0.38558507E+03</totfact>
</mgrwt>
</event>
<event>
 4    3  0.4022695E+000  0.2228830E+03  0.7546771E-02  0.1131752E+00
         21   -1    0    0  501  502  0.00000000000E+00  0.00000000000E+00  0.75888520455E+02  0.75888520455E+02  0.00000000000E+00 0. -1.
         21   -1    0    0  502  503 -0.00000000000E+00 -0.00000000000E+00 -0.12797635197E+04  0.12797635197E+04  0.00000000000E+00 0. -1.
          6    1    1    2  501    0  0.21266337375E+02  0.13890844304E+03 -0.12818738248E+03  0.25711635047E+03  0.17300000000E+03 0. -1.
         -6    1    1    2    0  503 -0.21266337375E+02 -0.13890844304E+03 -0.10756876167E+04  0.10985356897E+04  0.17300000000E+03 0. -1.
<mgrwt>
<rscale>  2 0.22288296E+03</rscale>
<asrwt>0</asrwt>
<pdfrwt beam="1">  1       21 0.11675159E-01 0.22288296E+03</pdfrwt>
<pdfrwt beam="2">  1       21 0.19688667E+00 0.22288296E+03</pdfrwt>
<totfact> 0.84550034E+03</totfact>
</mgrwt>
</event>
<event>
 4    3  0.4022695E+000  0.2245368E+03  0.7546771E-02  0.1130545E+00
         21   -1    0    0  501  502  0.00000000000E+00  0.00000000000E+00  0.50569326619E+03  0.50569326619E+03  0.00000000000E+00 0. -1.
         21   -1    0    0  502  503 -0.00000000000E+00 -0.00000000000E+00 -0.11410673735E+03  0.11410673735E+03  0.00000000000E+00 0.  1.
          6    1    1    2  501    0 -0.13363164480E+03 -0.51287159101E+02  0.30591510850E+03  0.37947442969E+03  0.17300000000E+03 0. -1.
         -6    1    1    2    0  503  0.13363164480E+03  0.51287159101E+02  0.85671420349E+02  0.24032557385E+03  0.17300000000E+03 0.  1.
<mgrwt>
<rscale>  2 0.22453683E+03</rscale>
<asrwt>0</asrwt>
<pdfrwt beam="1">  1       21 0.77798963E-01 0.22453683E+03</pdfrwt>
<pdfrwt beam="2">  1       21 0.17554883E-01 0.22453683E+03</pdfrwt>
<totfact> 0.42387734E+04</totfact>
</mgrwt>
</event>
<event>
 4    3  0.4022695E+000  0.1983745E+03  0.7546771E-02  0.1151118E+00
         21   -1    0    0  503  502  0.00000000000E+00  0.00000000000E+00  0.82300043241E+03  0.82300043241E+03  0.00000000000E+00 0.  1.
         21   -1    0    0  501  503 -0.00000000000E+00 -0.00000000000E+00 -0.65177881952E+02  0.65177881952E+02  0.00000000000E+00 0. -1.
          6    1    1    2  501    0 -0.34756437623E+02 -0.90639111059E+02  0.14970820695E+03  0.24852566394E+03  0.17300000000E+03 0. -1.
         -6    1    1    2    0  502  0.34756437623E+02  0.90639111059E+02  0.60811434350E+03  0.63965265042E+03  0.17300000000E+03 0.  1.
<mgrwt>
<rscale>  2 0.19837454E+03</rscale>
<asrwt>0</asrwt>
<pdfrwt beam="1">  1       21 0.12661544E+00 0.19837454E+03</pdfrwt>
<pdfrwt beam="2">  1       21 0.10027367E-01 0.19837454E+03</pdfrwt>
<totfact> 0.37179672E+04</totfact>
</mgrwt>
</event>
<event>
 4    3  0.4022695E+000  0.2259464E+03  0.7546771E-02  0.1129526E+00
         21   -1    0    0  501  502  0.00000000000E+00  0.00000000000E+00  0.11245384940E+03  0.11245384940E+03  0.00000000000E+00 0. -1.
         21   -1    0    0  502  503 -0.00000000000E+00 -0.00000000000E+00 -0.46096987098E+03  0.46096987098E+03  0.00000000000E+00 0.  1.
          6    1    1    2  501    0  0.85113859432E+02 -0.11780668858E+03 -0.20956394655E+03  0.30817013586E+03  0.17300000000E+03 0. -1.
         -6    1    1    2    0  503 -0.85113859432E+02  0.11780668858E+03 -0.13895207503E+03  0.26525358452E+03  0.17300000000E+03 0. -1.
<mgrwt>
<rscale>  2 0.22594642E+03</rscale>
<asrwt>0</asrwt>
<pdfrwt beam="1">  1       21 0.17300592E-01 0.22594642E+03</pdfrwt>
<pdfrwt beam="2">  1       21 0.70918441E-01 0.22594642E+03</pdfrwt>
<totfact> 0.53542217E+04</totfact>
</mgrwt>
</event>
<event>
 4    3  0.4022695E+000  0.1999442E+03  0.7546771E-02  0.1149786E+00
         21   -1    0    0  501  502  0.00000000000E+00  0.00000000000E+00  0.59390283015E+03  0.59390283015E+03  0.00000000000E+00 0. -1.
         21   -1    0    0  502  503 -0.00000000000E+00 -0.00000000000E+00 -0.70357997777E+02  0.70357997777E+02  0.00000000000E+00 0. -1.
          6    1    1    2  501    0 -0.28754316962E+02  0.96030608637E+02  0.33086135063E+03  0.38658365444E+03  0.17300000000E+03 0. -1.
         -6    1    1    2    0  503  0.28754316962E+02 -0.96030608637E+02  0.19268348174E+03  0.27767717349E+03  0.17300000000E+03 0. -1.
<mgrwt>
<rscale>  2 0.19994421E+03</rscale>
<asrwt>0</asrwt>
<pdfrwt beam="1">  1       21 0.91369663E-01 0.19994421E+03</pdfrwt>
<pdfrwt beam="2">  1       21 0.10824308E-01 0.19994421E+03</pdfrwt>
<totfact> 0.71298129E+04</totfact>
</mgrwt>
</event>
<event>
 4    3  0.4022695E+000  0.1796036E+03  0.7546771E-02  0.1168187E+00
         21   -1    0    0  503  502  0.00000000000E+00  0.00000000000E+00  0.67375665979E+03  0.67375665979E+03  0.00000000000E+00 0.  1.
         21   -1    0    0  501  503 -0.00000000000E+00 -0.00000000000E+00 -0.48964813229E+02  0.48964813229E+02  0.00000000000E+00 0.  1.
          6    1    1    2  501    0  0.33037041864E+02  0.35170988960E+02  0.25853460626E+03  0.31479769255E+03  0.17300000000E+03 0.  1.
         -6    1    1    2    0  502 -0.33037041864E+02 -0.35170988960E+02  0.36625724030E+03  0.40792378047E+03  0.17300000000E+03 0.  1.
<mgrwt>
<rscale>  2 0.17960358E+03</rscale>
<asrwt>0</asrwt>
<pdfrwt beam="1">  1       21 0.10365486E+00 0.17960358E+03</pdfrwt>
<pdfrwt beam="2">  1       21 0.75330487E-02 0.17960358E+03</pdfrwt>
<totfact> 0.10093411E+05</totfact>
</mgrwt>
</event>
<event>
 4    3  0.4022695E+000  0.2863564E+03  0.7546771E-02  0.1092267E+00
         21   -1    0    0  503  502  0.00000000000E+00  0.00000000000E+00  0.38266550093E+02  0.38266550093E+02  0.00000000000E+00 0. -1.
         21   -1    0    0  501  503 -0.00000000000E+00 -0.00000000000E+00 -0.30512383581E+04  0.30512383581E+04  0.00000000000E+00 0.  1.
          6    1    1    2  501    0  0.40149074226E+02 -0.22463089542E+03 -0.23493419706E+04  0.23667293217E+04  0.17300000000E+03 0.  1.
         -6    1    1    2    0  502 -0.40149074226E+02  0.22463089542E+03 -0.66362983737E+03  0.72277558646E+03  0.17300000000E+03 0. -1.
<mgrwt>
<rscale>  2 0.28635640E+03</rscale>
<asrwt>0</asrwt>
<pdfrwt beam="1">  1       21 0.58871634E-02 0.28635640E+03</pdfrwt>
<pdfrwt beam="2">  1       21 0.46942114E+00 0.28635640E+03</pdfrwt>
<totfact> 0.55358379E+02</totfact>
</mgrwt>
</event>
<event>
 4    3  0.4022695E+000  0.1922726E+03  0.7546771E-02  0.1156427E+00
         21   -1    0    0  503  502  0.00000000000E+00  0.00000000000E+00  0.57323703882E+02  0.57323703882E+02  0.00000000000E+00 0.  1.
         21   -1    0    0  501  503 -0.00000000000E+00 -0.00000000000E+00 -0.80489885468E+03  0.80489885468E+03  0.00000000000E+00 0.  1.
          6    1    1    2  501    0  0.67371590177E+02  0.50008223860E+02 -0.56599079824E+03  0.59775775805E+03  0.17300000000E+03 0.  1.
         -6    1    1    2    0  502 -0.67371590177E+02 -0.50008223860E+02 -0.18158435256E+03  0.26446480052E+03  0.17300000000E+03 0.  1.
<mgrwt>
<rscale>  2 0.19227260E+03</rscale>
<asrwt>0</asrwt>
<pdfrwt beam="1">  1       21 0.88190315E-02 0.19227260E+03</pdfrwt>
<pdfrwt beam="2">  1       21 0.12383059E+00 0.19227260E+03</pdfrwt>
<totfact> 0.49446174E+04</totfact>
</mgrwt>
</event>
<event>
 4    3  0.4022695E+000  0.2044700E+03  0.7546771E-02  0.1146022E+00
         21   -1    0    0  503  502  0.00000000000E+00  0.00000000000E+00  0.79240933669E+03  0.79240933669E+03  0.00000000000E+00 0. -1.
         21   -1    0    0  501  503 -0.00000000000E+00 -0.00000000000E+00 -0.70539113008E+02  0.70539113008E+02  0.00000000000E+00 0. -1.
          6    1    1    2  501    0  0.83327772878E+02 -0.70252840268E+02  0.14432048770E+03  0.25027261630E+03  0.17300000000E+03 0. -1.
         -6    1    1    2    0  502 -0.83327772878E+02  0.70252840268E+02  0.57754973598E+03  0.61267583340E+03  0.17300000000E+03 0. -1.
<mgrwt>
<rscale>  2 0.20447000E+03</rscale>
<asrwt>0</asrwt>
<pdfrwt beam="1">  1       21 0.12190912E+00 0.20447000E+03</pdfrwt>
<pdfrwt beam="2">  1       21 0.10852172E-01 0.20447000E+03</pdfrwt>
<totfact> 0.35407011E+04</totfact>
</mgrwt>
</event>
<event>
 4    3  0.4022695E+000  0.1739210E+03  0.7546771E-02  0.1173819E+00
         21   -1    0    0  501  502  0.00000000000E+00  0.00000000000E+00  0.25370007177E+03  0.25370007177E+03  0.00000000000E+00 0.  1.
         21   -1    0    0  502  503 -0.00000000000E+00 -0.00000000000E+00 -0.17993016216E+03  0.17993016216E+03  0.00000000000E+00 0.  1.
          6    1    1    2  501    0  0.79306000199E+01  0.16019506674E+02  0.16281648513E+03  0.23823880213E+03  0.17300000000E+03 0.  1.
         -6    1    1    2    0  503 -0.79306000199E+01 -0.16019506674E+02 -0.89046575515E+02  0.19539143180E+03  0.17300000000E+03 0.  1.
<mgrwt>
<rscale>  2 0.17392101E+03</rscale>
<asrwt>0</asrwt>
<pdfrwt beam="1">  1       21 0.39030780E-01 0.17392101E+03</pdfrwt>
<pdfrwt beam="2">  1       21 0.27681563E-01 0.17392101E+03</pdfrwt>
<totfact> 0.79443589E+04</totfact>
</mgrwt>
</event>
<event>
 4    3  0.4022695E+000  0.2140594E+03  0.7546771E-02  0.1138391E+00
         21   -1    0    0  503  502  0.00000000000E+00  0.00000000000E+00  0.13666537422E+03  0.13666537422E+03  0.00000000000E+00 0. -1.
         21   -1    0    0  501  503 -0.00000000000E+00 -0.00000000000E+00 -0.33546642107E+03  0.33546642107E+03  0.00000000000E+00 0. -1.
          6    1    1    2  501    0 -0.69833190969E+02 -0.10495592857E+03 -0.10493750757E+03  0.23839736156E+03  0.17300000000E+03 0. -1.
         -6    1    1    2    0  502  0.69833190969E+02  0.10495592857E+03 -0.93863539278E+02  0.23373443373E+03  0.17300000000E+03 0. -1.
<mgrwt>
<rscale>  2 0.21405939E+03</rscale>
<asrwt>0</asrwt>
<pdfrwt beam="1">  1       21 0.21025442E-01 0.21405939E+03</pdfrwt>
<pdfrwt beam="2">  1       21 0.51610218E-01 0.21405939E+03</pdfrwt>
<totfact> 0.74268058E+04</totfact>
</mgrwt>
</event>
<event>
 4    3  0.4022695E+000  0.2299888E+03  0.7546771E-02  0.1126648E+00
         21   -1    0    0  501  502  0.00000000000E+00  0.00000000000E+00  0.14743996338E+03  0.14743996338E+03  0.00000000000E+00 0.  1.
         21   -1    0    0  502  503 -0.00000000000E+00 -0.00000000000E+00 -0.36497355827E+03  0.36497355827E+03  0.00000000000E+00 0.  1.
          6    1    1    2  501    0  0.13282949134E+03  0.72953346953E+02 -0.75324574516E+02  0.24200961991E+03  0.17300000000E+03 0.  1.
         -6    1    1    2    0  503 -0.13282949134E+03 -0.72953346953E+02 -0.14220902037E+03  0.27040390174E+03  0.17300000000E+03 0.  1.
<mgrwt>
<rscale>  2 0.22998884E+03</rscale>
<asrwt>0</asrwt>
<pdfrwt beam="1">  1       21 0.22683072E-01 0.22998884E+03</pdfrwt>
<pdfrwt beam="2">  1       21 0.56149778E-01 0.22998884E+03</pdfrwt>
<totfact> 0.53472002E+04</totfact>
</mgrwt>
</event>
<event>
 4    3  0.4022695E+000  0.1970324E+03  0.7546771E-02  0.1152267E+00
         21   -1    0    0  501  502  0.00000000000E+00  0.00000000000E+00  0.11542695140E+03  0.11542695140E+03  0.00000000000E+00 0. -1.
         21   -1    0    0  502  503 -0.00000000000E+00 -0.00000000000E+00 -0.35217357351E+03  0.35217357351E+03  0.00000000000E+00 0. -1.
          6    1    1    2  501    0  0.56441576342E+02  0.75545507552E+02 -0.68786517318E+02  0.20869441827E+03  0.17300000000E+03 0. -1.
         -6    1    1    2    0  503 -0.56441576342E+02 -0.75545507552E+02 -0.16796010480E+03  0.25890610664E+03  0.17300000000E+03 0. -1.
<mgrwt>
<rscale>  2 0.19703242E+03</rscale>
<asrwt>0</asrwt>
<pdfrwt beam="1">  1       21 0.17757993E-01 0.19703242E+03</pdfrwt>
<pdfrwt beam="2">  1       21 0.54180549E-01 0.19703242E+03</pdfrwt>
<totfact> 0.92518503E+04</totfact>
</mgrwt>
</event>
<event>
 4    3  0.4022695E+000  0.1983867E+03  0.7546771E-02  0.1151107E+00
         21   -1    0    0  501  502  0.00000000000E+00  0.00000000000E+00  0.34235475784E+03  0.34235475784E+03  0.00000000000E+00 0. -1.
         21   -1    0    0  502  503 -0.00000000000E+00 -0.00000000000E+00 -0.12812601504E+03  0.12812601504E+03  0.00000000000E+00 0.  1.
          6    1    1    2  501    0  0.75325093009E+02 -0.61273228898E+02  0.31707320734E+02  0.20090453555E+03  0.17300000000E+03 0.  1.
         -6    1    1    2    0  503 -0.75325093009E+02  0.61273228898E+02  0.18252142207E+03  0.26957623732E+03  0.17300000000E+03 0. -1.
<mgrwt>
<rscale>  2 0.19838669E+03</rscale>
<asrwt>0</asrwt>
<pdfrwt beam="1">  1       21 0.52669963E-01 0.19838669E+03</pdfrwt>
<pdfrwt beam="2">  1       21 0.19711695E-01 0.19838669E+03</pdfrwt>
<totfact> 0.80848965E+04</totfact>
</mgrwt>
</event>
<event>
 4    3  0.4022695E+000  0.1738626E+03  0.7546771E-02  0.1173879E+00
         21   -1    0    0  503  502  0.00000000000E+00  0.00000000000E+00  0.31039238772E+03  0.31039238772E+03  0.00000000000E+00 0.  1.
         21   -1    0    0  501  503 -0.00000000000E+00 -0.00000000000E+00 -0.97452480419E+02  0.97452480419E+02  0.00000000000E+00 0.  1.
          6    1    1    2  501    0  0.16909384841E+02  0.36455144071E+01  0.11175154643E+03  0.20668000678E+03  0.17300000000E+03 0. -1.
         -6    1    1    2    0  502 -0.16909384841E+02 -0.36455144071E+01  0.10118836086E+03  0.20116486136E+03  0.17300000000E+03 0. -1.
<mgrwt>
<rscale>  2 0.17386264E+03</rscale>
<asrwt>0</asrwt>
<pdfrwt beam="1">  1       21 0.47752675E-01 0.17386264E+03</pdfrwt>
<pdfrwt beam="2">  1       21 0.14992689E-01 0.17386264E+03</pdfrwt>
<totfact> 0.16559112E+05</totfact>
</mgrwt>
</event>
<event>
 4    3  0.4022695E+000  0.2452450E+03  0.7546771E-02  0.1116347E+00
         21   -1    0    0  501  502  0.00000000000E+00  0.00000000000E+00  0.17682787676E+03  0.17682787676E+03  0.00000000000E+00 0.  1.
         21   -1    0    0  502  503 -0.00000000000E+00 -0.00000000000E+00 -0.43317461367E+03  0.43317461367E+03  0.00000000000E+00 0. -1.
          6    1    1    2  501    0  0.88667618455E+02 -0.14951316634E+03  0.13180246433E+02  0.24559896655E+03  0.17300000000E+03 0.  1.
         -6    1    1    2    0  503 -0.88667618455E+02  0.14951316634E+03 -0.26952698334E+03  0.36440352388E+03  0.17300000000E+03 0. -1.
<mgrwt>
<rscale>  2 0.24524505E+03</rscale>
<asrwt>0</asrwt>
<pdfrwt beam="1">  1       21 0.27204289E-01 0.24524505E+03</pdfrwt>
<pdfrwt beam="2">  1       21 0.66642248E-01 0.24524505E+03</pdfrwt>
<totfact> 0.25862232E+04</totfact>
</mgrwt>
</event>
<event>
 4    3  0.4022695E+000  0.2162561E+03  0.7546771E-02  0.1136705E+00
         21   -1    0    0  501  502  0.00000000000E+00  0.00000000000E+00  0.10939764620E+03  0.10939764620E+03  0.00000000000E+00 0.  1.
         21   -1    0    0  502  503 -0.00000000000E+00 -0.00000000000E+00 -0.45731261117E+03  0.45731261117E+03  0.00000000000E+00 0. -1.
          6    1    1    2  501    0 -0.87087433759E+02  0.96195043883E+02 -0.24631386291E+03  0.32777618377E+03  0.17300000000E+03 0. -1.
         -6    1    1    2    0  503  0.87087433759E+02 -0.96195043883E+02 -0.10160110206E+03  0.23893407360E+03  0.17300000000E+03 0.  1.
<mgrwt>
<rscale>  2 0.21625612E+03</rscale>
<asrwt>0</asrwt>
<pdfrwt beam="1">  1       21 0.16830407E-01 0.21625612E+03</pdfrwt>
<pdfrwt beam="2">  1       21 0.70355786E-01 0.21625612E+03</pdfrwt>
<totfact> 0.57586236E+04</totfact>
</mgrwt>
</event>
<event>
 4    3  0.4022695E+000  0.2764226E+03  0.7546771E-02  0.1097659E+00
         21   -1    0    0  501  502  0.00000000000E+00  0.00000000000E+00  0.73616574223E+03  0.73616574223E+03  0.00000000000E+00 0. -1.
         21   -1    0    0  502  503 -0.00000000000E+00 -0.00000000000E+00 -0.10630067340E+03  0.10630067340E+03  0.00000000000E+00 0. -1.
          6    1    1    2  501    0  0.12262551182E+03  0.17732298864E+03  0.25024529730E+03  0.37287017482E+03  0.17300000000E+03 0. -1.
         -6    1    1    2    0  503 -0.12262551182E+03 -0.17732298864E+03  0.37961977153E+03  0.46959624081E+03  0.17300000000E+03 0. -1.
<mgrwt>
<rscale>  2 0.27642261E+03</rscale>
<asrwt>0</asrwt>
<pdfrwt beam="1">  1       21 0.11325626E+00 0.27642261E+03</pdfrwt>
<pdfrwt beam="2">  1       21 0.16353950E-01 0.27642261E+03</pdfrwt>
<totfact> 0.19471303E+04</totfact>
</mgrwt>
</event>
<event>
 4    3  0.4022695E+000  0.3317702E+03  0.7546771E-02  0.1070356E+00
         21   -1    0    0  503  502  0.00000000000E+00  0.00000000000E+00  0.38898581461E+03  0.38898581461E+03  0.00000000000E+00 0. -1.
         21   -1    0    0  501  503 -0.00000000000E+00 -0.00000000000E+00 -0.61625208191E+03  0.61625208191E+03  0.00000000000E+00 0.  1.
          6    1    1    2  501    0 -0.20720265155E+03 -0.19289770275E+03  0.25599531928E+03  0.41905258146E+03  0.17300000000E+03 0.  1.
         -6    1    1    2    0  502  0.20720265155E+03  0.19289770275E+03 -0.48326158658E+03  0.58618531506E+03  0.17300000000E+03 0.  1.
<mgrwt>
<rscale>  2 0.33177020E+03</rscale>
<asrwt>0</asrwt>
<pdfrwt beam="1">  1       21 0.59843972E-01 0.33177020E+03</pdfrwt>
<pdfrwt beam="2">  1       21 0.94808012E-01 0.33177020E+03</pdfrwt>
<totfact> 0.22059405E+03</totfact>
</mgrwt>
</event>
<event>
 4    3  0.4022695E+000  0.2721608E+03  0.7546771E-02  0.1100049E+00
         21   -1    0    0  501  502  0.00000000000E+00  0.00000000000E+00  0.67858977929E+03  0.67858977929E+03  0.00000000000E+00 0. -1.
         21   -1    0    0  502  503 -0.00000000000E+00 -0.00000000000E+00 -0.13378435515E+03  0.13378435515E+03  0.00000000000E+00 0.  1.
          6    1    1    2  501    0  0.14920185091E+03 -0.14792322870E+03  0.44668363949E+03  0.52306572024E+03  0.17300000000E+03 0. -1.
         -6    1    1    2    0  503 -0.14920185091E+03  0.14792322870E+03  0.98121784648E+02  0.28930841420E+03  0.17300000000E+03 0. -1.
<mgrwt>
<rscale>  2 0.27216075E+03</rscale>
<asrwt>0</asrwt>
<pdfrwt beam="1">  1       21 0.10439843E+00 0.27216075E+03</pdfrwt>
<pdfrwt beam="2">  1       21 0.20582209E-01 0.27216075E+03</pdfrwt>
<totfact> 0.15490627E+04</totfact>
</mgrwt>
</event>
<event>
 4    3  0.4022695E+000  0.2877522E+03  0.7546771E-02  0.1091529E+00
         21   -1    0    0  501  502  0.00000000000E+00  0.00000000000E+00  0.67933480496E+03  0.67933480496E+03  0.00000000000E+00 0. -1.
         21   -1    0    0  502  503 -0.00000000000E+00 -0.00000000000E+00 -0.23546526072E+03  0.23546526072E+03  0.00000000000E+00 0.  1.
          6    1    1    2  501    0 -0.16063298830E+03 -0.16452778776E+03  0.53960933111E+03  0.61153869877E+03  0.17300000000E+03 0. -1.
         -6    1    1    2    0  503  0.16063298830E+03  0.16452778776E+03 -0.95739786864E+02  0.30326136692E+03  0.17300000000E+03 0.  1.
<mgrwt>
<rscale>  2 0.28775224E+03</rscale>
<asrwt>0</asrwt>
<pdfrwt beam="1">  1       21 0.10451305E+00 0.28775224E+03</pdfrwt>
<pdfrwt beam="2">  1       21 0.36225425E-01 0.28775224E+03</pdfrwt>
<totfact> 0.50990032E+03</totfact>
</mgrwt>
</event>
<event>
 4    3  0.4022695E+000  0.2311616E+03  0.7546771E-02  0.1125825E+00
         21   -1    0    0  501  502  0.00000000000E+00  0.00000000000E+00  0.28665667618E+03  0.28665667618E+03  0.00000000000E+00 0. -1.
         21   -1    0    0  502  503 -0.00000000000E+00 -0.00000000000E+00 -0.18644789346E+03  0.18644789346E+03  0.00000000000E+00 0.  1.
          6    1    1    2  501    0  0.66783548984E+02  0.13800961705E+03  0.46736065808E+02  0.23583883620E+03  0.17300000000E+03 0.  1.
         -6    1    1    2    0  503 -0.66783548984E+02 -0.13800961705E+03  0.53472716917E+02  0.23726573344E+03  0.17300000000E+03 0. -1.
<mgrwt>
<rscale>  2 0.23116162E+03</rscale>
<asrwt>0</asrwt>
<pdfrwt beam="1">  1       21 0.44101027E-01 0.23116162E+03</pdfrwt>
<pdfrwt beam="2">  1       21 0.28684292E-01 0.23116162E+03</pdfrwt>
<totfact> 0.56440323E+04</totfact>
</mgrwt>
</event>
<event>
 4    3  0.4022695E+000  0.1860402E+03  0.7546771E-02  0.1162082E+00
         21   -1    0    0  501  502  0.00000000000E+00  0.00000000000E+00  0.19861541435E+03  0.19861541435E+03  0.00000000000E+00 0.  1.
         21   -1    0    0  502  503 -0.00000000000E+00 -0.00000000000E+00 -0.22545128621E+03  0.22545128621E+03  0.00000000000E+00 0.  1.
          6    1    1    2  501    0 -0.47346459119E+02 -0.49399171570E+02  0.87616784189E+02  0.20563965137E+03  0.17300000000E+03 0.  1.
         -6    1    1    2    0  503  0.47346459119E+02  0.49399171570E+02 -0.11445265605E+03  0.21842704919E+03  0.17300000000E+03 0.  1.
<mgrwt>
<rscale>  2 0.18604023E+03</rscale>
<asrwt>0</asrwt>
<pdfrwt beam="1">  1       21 0.30556217E-01 0.18604023E+03</pdfrwt>
<pdfrwt beam="2">  1       21 0.34684813E-01 0.18604023E+03</pdfrwt>
<totfact> 0.82588228E+04</totfact>
</mgrwt>
</event>
<event>
 4    3  0.4022695E+000  0.1781921E+03  0.7546771E-02  0.1169564E+00
         21   -1    0    0  503  502  0.00000000000E+00  0.00000000000E+00  0.85865899831E+03  0.85865899831E+03  0.00000000000E+00 0. -1.
         21   -1    0    0  501  503 -0.00000000000E+00 -0.00000000000E+00 -0.38275441289E+02  0.38275441289E+02  0.00000000000E+00 0. -1.
          6    1    1    2  501    0 -0.15630109109E+02  0.39738294215E+02  0.49272545293E+03  0.52395687256E+03  0.17300000000E+03 0.  1.
         -6    1    1    2    0  502  0.15630109109E+02 -0.39738294215E+02  0.32765810409E+03  0.37297756704E+03  0.17300000000E+03 0.  1.
<mgrwt>
<rscale>  2 0.17819212E+03</rscale>
<asrwt>0</asrwt>
<pdfrwt beam="1">  1       21 0.13210137E+00 0.17819212E+03</pdfrwt>
<pdfrwt beam="2">  1       21 0.58885301E-02 0.17819212E+03</pdfrwt>
<totfact> 0.85091058E+04</totfact>
</mgrwt>
</event>
<event>
 4    3  0.4022695E+000  0.1854990E+03  0.7546771E-02  0.1162585E+00
         21   -1    0    0  501  502  0.00000000000E+00  0.00000000000E+00  0.27423288243E+02  0.27423288243E+02  0.00000000000E+00 0. -1.
         21   -1    0    0  502  503 -0.00000000000E+00 -0.00000000000E+00 -0.12895234151E+04  0.12895234151E+04  0.00000000000E+00 0. -1.
          6    1    1    2  501    0 -0.60466643664E+02 -0.28716859832E+02 -0.73915185532E+03  0.76207305310E+03  0.17300000000E+03 0. -1.
         -6    1    1    2    0  503  0.60466643664E+02  0.28716859832E+02 -0.52294827155E+03  0.55487365026E+03  0.17300000000E+03 0. -1.
<mgrwt>
<rscale>  2 0.18549898E+03</rscale>
<asrwt>0</asrwt>
<pdfrwt beam="1">  1       21 0.42189687E-02 0.18549898E+03</pdfrwt>
<pdfrwt beam="2">  1       21 0.19838816E+00 0.18549898E+03</pdfrwt>
<totfact> 0.49503871E+04</totfact>
</mgrwt>
</event>
<event>
 4    3  0.4022695E+000  0.1881256E+03  0.7546771E-02  0.1160163E+00
         21   -1    0    0  501  502  0.00000000000E+00  0.00000000000E+00  0.32347762589E+03  0.32347762589E+03  0.00000000000E+00 0.  1.
         21   -1    0    0  502  503 -0.00000000000E+00 -0.00000000000E+00 -0.13442471395E+03  0.13442471395E+03  0.00000000000E+00 0.  1.
          6    1    1    2  501    0 -0.63506645191E+02  0.37803870270E+02  0.19329381324E+03  0.26972898403E+03  0.17300000000E+03 0.  1.
         -6    1    1    2    0  503  0.63506645191E+02 -0.37803870270E+02 -0.42409013029E+01  0.18817335580E+03  0.17300000000E+03 0.  1.
<mgrwt>
<rscale>  2 0.18812556E+03</rscale>
<asrwt>0</asrwt>
<pdfrwt beam="1">  1       21 0.49765789E-01 0.18812556E+03</pdfrwt>
<pdfrwt beam="2">  1       21 0.20680725E-01 0.18812556E+03</pdfrwt>
<totfact> 0.83582585E+04</totfact>
</mgrwt>
</event>
<event>
 4    3  0.4022695E+000  0.2015517E+03  0.7546771E-02  0.1148436E+00
         21   -1    0    0  503  502  0.00000000000E+00  0.00000000000E+00  0.36812396686E+02  0.36812396686E+02  0.00000000000E+00 0. -1.
         21   -1    0    0  501  503 -0.00000000000E+00 -0.00000000000E+00 -0.12438493210E+04  0.12438493210E+04  0.00000000000E+00 0.  1.
          6    1    1    2  501    0  0.62644890271E+02 -0.82278134718E+02 -0.81859881339E+03  0.84304631606E+03  0.17300000000E+03 0.  1.
         -6    1    1    2    0  502 -0.62644890271E+02  0.82278134718E+02 -0.38843811096E+03  0.43761540167E+03  0.17300000000E+03 0. -1.
<mgrwt>
<rscale>  2 0.20155167E+03</rscale>
<asrwt>0</asrwt>
<pdfrwt beam="1">  1       21 0.56634458E-02 0.20155167E+03</pdfrwt>
<pdfrwt beam="2">  1       21 0.19136143E+00 0.20155167E+03</pdfrwt>
<totfact> 0.33048201E+04</totfact>
</mgrwt>
</event>
<event>
 4    3  0.4022695E+000  0.2306785E+03  0.7546771E-02  0.1126163E+00
         21   -1    0    0  501  502  0.00000000000E+00  0.00000000000E+00  0.15606142408E+04  0.15606142408E+04  0.00000000000E+00 0. -1.
         21   -1    0    0  502  503 -0.00000000000E+00 -0.00000000000E+00 -0.14811373899E+03  0.14811373899E+03  0.00000000000E+00 0. -1.
          6    1    1    2  501    0  0.15016035591E+03 -0.27119092201E+02  0.14558495766E+04  0.14740117256E+04  0.17300000000E+03 0. -1.
         -6    1    1    2    0  503 -0.15016035591E+03  0.27119092201E+02 -0.43349074831E+02  0.23471625410E+03  0.17300000000E+03 0. -1.
<mgrwt>
<rscale>  2 0.23067852E+03</rscale>
<asrwt>0</asrwt>
<pdfrwt beam="1">  1       21 0.24009449E+00 0.23067852E+03</pdfrwt>
<pdfrwt beam="2">  1       21 0.22786730E-01 0.23067852E+03</pdfrwt>
<totfact> 0.13184513E+03</totfact>
</mgrwt>
</event>
<event>
 4    3  0.4022695E+000  0.2382850E+03  0.7546771E-02  0.1120941E+00
         21   -1    0    0  501  502  0.00000000000E+00  0.00000000000E+00  0.63283549120E+03  0.63283549120E+03  0.00000000000E+00 0. -1.
         21   -1    0    0  502  503 -0.00000000000E+00 -0.00000000000E+00 -0.93516263469E+02  0.93516263469E+02  0.00000000000E+00 0.  1.
          6    1    1    2  501    0  0.13773517722E+03 -0.88768077985E+02  0.34280607491E+03  0.41748743179E+03  0.17300000000E+03 0.  1.
         -6    1    1    2    0  503 -0.13773517722E+03  0.88768077985E+02  0.19651315282E+03  0.30886432287E+03  0.17300000000E+03 0. -1.
<mgrwt>
<rscale>  2 0.23828502E+03</rscale>
<asrwt>0</asrwt>
<pdfrwt beam="1">  1       21 0.97359304E-01 0.23828502E+03</pdfrwt>
<pdfrwt beam="2">  1       21 0.14387118E-01 0.23828502E+03</pdfrwt>
<totfact> 0.36152418E+04</totfact>
</mgrwt>
</event>
<event>
 4    3  0.4022695E+000  0.1768174E+03  0.7546771E-02  0.1170919E+00
         21   -1    0    0  501  502  0.00000000000E+00  0.00000000000E+00  0.80683926060E+03  0.80683926060E+03  0.00000000000E+00 0.  1.
         21   -1    0    0  502  503 -0.00000000000E+00 -0.00000000000E+00 -0.39195916381E+02  0.39195916381E+02  0.00000000000E+00 0.  1.
          6    1    1    2  501    0 -0.20706480818E+02 -0.30110221954E+02  0.42898117693E+03  0.46399270897E+03  0.17300000000E+03 0.  1.
         -6    1    1    2    0  503  0.20706480818E+02  0.30110221954E+02  0.33866216729E+03  0.38204246802E+03  0.17300000000E+03 0.  1.
<mgrwt>
<rscale>  2 0.17681737E+03</rscale>
<asrwt>0</asrwt>
<pdfrwt beam="1">  1       21 0.12412910E+00 0.17681737E+03</pdfrwt>
<pdfrwt beam="2">  1       21 0.60301416E-02 0.17681737E+03</pdfrwt>
<totfact> 0.95574006E+04</totfact>
</mgrwt>
</event>
<event>
 4    3  0.4022695E+000  0.2206337E+03  0.7546771E-02  0.1133412E+00
         21   -1    0    0  501  502  0.00000000000E+00  0.00000000000E+00  0.52932112371E+03  0.52932112371E+03  0.00000000000E+00 0.  1.
         21   -1    0    0  502  503 -0.00000000000E+00 -0.00000000000E+00 -0.23412347803E+03  0.23412347803E+03  0.00000000000E+00 0.  1.
          6    1    1    2  501    0  0.10523950304E+03 -0.87606252331E+02  0.44504670417E+03  0.49673511788E+03  0.17300000000E+03 0.  1.
         -6    1    1    2    0  503 -0.10523950304E+03  0.87606252331E+02 -0.14984905849E+03  0.26670948386E+03  0.17300000000E+03 0.  1.
<mgrwt>
<rscale>  2 0.22063365E+03</rscale>
<asrwt>0</asrwt>
<pdfrwt beam="1">  1       21 0.81434019E-01 0.22063365E+03</pdfrwt>
<pdfrwt beam="2">  1       21 0.36018997E-01 0.22063365E+03</pdfrwt>
<totfact> 0.96359475E+03</totfact>
</mgrwt>
</event>
<event>
 4    3  0.4022695E+000  0.2032099E+03  0.7546771E-02  0.1147059E+00
         21   -1    0    0  503  502  0.00000000000E+00  0.00000000000E+00  0.44651578811E+03  0.44651578811E+03  0.00000000000E+00 0.  1.
         21   -1    0    0  501  503 -0.00000000000E+00 -0.00000000000E+00 -0.97873380066E+02  0.97873380066E+02  0.00000000000E+00 0.  1.
          6    1    1    2  501    0  0.10176416977E+03  0.31769770115E+02  0.23821136930E+03  0.31311167498E+03  0.17300000000E+03 0.  1.
         -6    1    1    2    0  502 -0.10176416977E+03 -0.31769770115E+02  0.11043103874E+03  0.23127749320E+03  0.17300000000E+03 0.  1.
<mgrwt>
<rscale>  2 0.20320990E+03</rscale>
<asrwt>0</asrwt>
<pdfrwt beam="1">  1       21 0.68694736E-01 0.20320990E+03</pdfrwt>
<pdfrwt beam="2">  1       21 0.15057443E-01 0.20320990E+03</pdfrwt>
<totfact> 0.74881898E+04</totfact>
</mgrwt>
</event>
<event>
 4    3  0.4022695E+000  0.2157225E+03  0.7546771E-02  0.1137113E+00
         21   -1    0    0  501  502  0.00000000000E+00  0.00000000000E+00  0.59899619270E+03  0.59899619270E+03  0.00000000000E+00 0. -1.
         21   -1    0    0  502  503 -0.00000000000E+00 -0.00000000000E+00 -0.77690412707E+02  0.77690412707E+02  0.00000000000E+00 0. -1.
          6    1    1    2  501    0 -0.47006986573E+02  0.11998979543E+03  0.26101609233E+03  0.33862310649E+03  0.17300000000E+03 0. -1.
         -6    1    1    2    0  503  0.47006986573E+02 -0.11998979543E+03  0.26028968766E+03  0.33806349891E+03  0.17300000000E+03 0. -1.
<mgrwt>
<rscale>  2 0.21572253E+03</rscale>
<asrwt>0</asrwt>
<pdfrwt beam="1">  1       21 0.92153258E-01 0.21572253E+03</pdfrwt>
<pdfrwt beam="2">  1       21 0.11952372E-01 0.21572253E+03</pdfrwt>
<totfact> 0.58128936E+04</totfact>
</mgrwt>
</event>
<event>
 4    3  0.4022695E+000  0.1736064E+03  0.7546771E-02  0.1174138E+00
         21   -1    0    0  501  502  0.00000000000E+00  0.00000000000E+00  0.19729605915E+03  0.19729605915E+03  0.00000000000E+00 0.  1.
         21   -1    0    0  502  503 -0.00000000000E+00 -0.00000000000E+00 -0.18049697179E+03  0.18049697179E+03  0.00000000000E+00 0.  1.
          6    1    1    2  501    0 -0.14035643401E+02 -0.36289535795E+01  0.82446920205E+02  0.19218913403E+03  0.17300000000E+03 0. -1.
         -6    1    1    2    0  503  0.14035643401E+02  0.36289535795E+01 -0.65647832846E+02  0.18560389691E+03  0.17300000000E+03 0. -1.
<mgrwt>
<rscale>  2 0.17360636E+03</rscale>
<asrwt>0</asrwt>
<pdfrwt beam="1">  1       21 0.30353240E-01 0.17360636E+03</pdfrwt>
<pdfrwt beam="2">  1       21 0.27768765E-01 0.17360636E+03</pdfrwt>
<totfact> 0.12979870E+05</totfact>
</mgrwt>
</event>
<event>
 4    3  0.4022695E+000  0.1895460E+03  0.7546771E-02  0.1158871E+00
         21   -1    0    0  503  502  0.00000000000E+00  0.00000000000E+00  0.40167840264E+02  0.40167840264E+02  0.00000000000E+00 0.  1.
         21   -1    0    0  501  503 -0.00000000000E+00 -0.00000000000E+00 -0.92184873177E+03  0.92184873177E+03  0.00000000000E+00 0. -1.
          6    1    1    2  501    0 -0.55729377823E+02  0.53786037346E+02 -0.52378186699E+03  0.55702346948E+03  0.17300000000E+03 0. -1.
         -6    1    1    2    0  502  0.55729377823E+02 -0.53786037346E+02 -0.35789902452E+03  0.40499310256E+03  0.17300000000E+03 0.  1.
<mgrwt>
<rscale>  2 0.18954604E+03</rscale>
<asrwt>0</asrwt>
<pdfrwt beam="1">  1       21 0.61796679E-02 0.18954604E+03</pdfrwt>
<pdfrwt beam="2">  1       21 0.14182288E+00 0.18954604E+03</pdfrwt>
<totfact> 0.64973470E+04</totfact>
</mgrwt>
</event>
<event>
 4    3  0.4022695E+000  0.1936123E+03  0.7546771E-02  0.1155243E+00
         21   -1    0    0  501  502  0.00000000000E+00  0.00000000000E+00  0.17208046537E+03  0.17208046537E+03  0.00000000000E+00 0.  1.
         21   -1    0    0  502  503 -0.00000000000E+00 -0.00000000000E+00 -0.26814222699E+03  0.26814222699E+03  0.00000000000E+00 0.  1.
          6    1    1    2  501    0  0.78398955648E+02  0.37554425159E+02  0.47305879767E+02  0.19930774535E+03  0.17300000000E+03 0.  1.
         -6    1    1    2    0  503 -0.78398955648E+02 -0.37554425159E+02 -0.14336764138E+03  0.24091494701E+03  0.17300000000E+03 0.  1.
<mgrwt>
<rscale>  2 0.19361232E+03</rscale>
<asrwt>0</asrwt>
<pdfrwt beam="1">  1       21 0.26473918E-01 0.19361232E+03</pdfrwt>
<pdfrwt beam="2">  1       21 0.41252650E-01 0.19361232E+03</pdfrwt>
<totfact> 0.76783109E+04</totfact>
</mgrwt>
</event>
<event>
 4    3  0.4022695E+000  0.2218378E+03  0.7546771E-02  0.1132520E+00
         21   -1    0    0  503  502  0.00000000000E+00  0.00000000000E+00  0.81444929800E+03  0.81444929800E+03  0.00000000000E+00 0.  1.
         21   -1    0    0  501  503 -0.00000000000E+00 -0.00000000000E+00 -0.11234135437E+03  0.11234135437E+03  0.00000000000E+00 0. -1.
          6    1    1    2  501    0 -0.38025142737E+02  0.13355553885E+03  0.36032909065E+02  0.22474510890E+03  0.17300000000E+03 0. -1.
         -6    1    1    2    0  502  0.38025142737E+02 -0.13355553885E+03  0.66607503456E+03  0.70204554347E+03  0.17300000000E+03 0.  1.
<mgrwt>
<rscale>  2 0.22183776E+03</rscale>
<asrwt>0</asrwt>
<pdfrwt beam="1">  1       21 0.12529989E+00 0.22183776E+03</pdfrwt>
<pdfrwt beam="2">  1       21 0.17283286E-01 0.22183776E+03</pdfrwt>
<totfact> 0.14075135E+04</totfact>
</mgrwt>
</event>
<event>
 4    3  0.4022695E+000  0.1736659E+03  0.7546771E-02  0.1174078E+00
         21   -1    0    0  503  502  0.00000000000E+00  0.00000000000E+00  0.14906451130E+04  0.14906451130E+04  0.00000000000E+00 0. -1.
         21   -1    0    0  501  503 -0.00000000000E+00 -0.00000000000E+00 -0.38478355091E+02  0.38478355091E+02  0.00000000000E+00 0. -1.
          6    1    1    2  501    0  0.15185131296E+02  0.49793630172E+00  0.19960134679E+03  0.26457613988E+03  0.17300000000E+03 0. -1.
         -6    1    1    2    0  502 -0.15185131296E+02 -0.49793630172E+00  0.12525654111E+04  0.12645473282E+04  0.17300000000E+03 0. -1.
<mgrwt>
<rscale>  2 0.17366588E+03</rscale>
<asrwt>0</asrwt>
<pdfrwt beam="1">  1       21 0.22932997E+00 0.17366588E+03</pdfrwt>
<pdfrwt beam="2">  1       21 0.59197481E-02 0.17366588E+03</pdfrwt>
<totfact> 0.18106391E+04</totfact>
</mgrwt>
</event>
<event>
 4    3  0.4022695E+000  0.1833158E+03  0.7546771E-02  0.1164632E+00
         21   -1    0    0  503  502  0.00000000000E+00  0.00000000000E+00  0.32933863508E+03  0.32933863508E+03  0.00000000000E+00 0.  1.
         21   -1    0    0  501  503 -0.00000000000E+00 -0.00000000000E+00 -0.35797700683E+03  0.35797700683E+03  0.00000000000E+00 0. -1.
          6    1    1    2  501    0  0.34932071764E+02  0.49552465135E+02 -0.30490059893E+03  0.35576547284E+03  0.17300000000E+03 0. -1.
         -6    1    1    2    0  502 -0.34932071764E+02 -0.49552465135E+02  0.27626222718E+03  0.33155016906E+03  0.17300000000E+03 0.  1.
<mgrwt>
<rscale>  2 0.18331584E+03</rscale>
<asrwt>0</asrwt>
<pdfrwt beam="1">  1       21 0.50667482E-01 0.18331584E+03</pdfrwt>
<pdfrwt beam="2">  1       21 0.55073386E-01 0.18331584E+03</pdfrwt>
<totfact> 0.11600522E+04</totfact>
</mgrwt>
</event>
<event>
 4    3  0.4022695E+000  0.2738381E+03  0.7546771E-02  0.1099103E+00
         21   -1    0    0  501  502  0.00000000000E+00  0.00000000000E+00  0.56095716561E+03  0.56095716561E+03  0.00000000000E+00 0. -1.
         21   -1    0    0  502  503 -0.00000000000E+00 -0.00000000000E+00 -0.23596127015E+03  0.23596127015E+03  0.00000000000E+00 0. -1.
          6    1    1    2  501    0 -0.21202789083E+03 -0.10122859802E+02  0.42483949695E+03  0.50544623547E+03  0.17300000000E+03 0. -1.
         -6    1    1    2    0  503  0.21202789083E+03  0.10122859802E+02 -0.99843601488E+02  0.29147220028E+03  0.17300000000E+03 0. -1.
<mgrwt>
<rscale>  2 0.27383809E+03</rscale>
<asrwt>0</asrwt>
<pdfrwt beam="1">  1       21 0.86301102E-01 0.27383809E+03</pdfrwt>
<pdfrwt beam="2">  1       21 0.36301734E-01 0.27383809E+03</pdfrwt>
<totfact> 0.80517863E+03</totfact>
</mgrwt>
</event>
<event>
 4    3  0.4022695E+000  0.2382409E+03  0.7546771E-02  0.1120970E+00
         21   -1    0    0  503  502  0.00000000000E+00  0.00000000000E+00  0.27161637147E+03  0.27161637147E+03  0.00000000000E+00 0. -1.
         21   -1    0    0  501  503 -0.00000000000E+00 -0.00000000000E+00 -0.24259362733E+03  0.24259362733E+03  0.00000000000E+00 0. -1.
          6    1    1    2  501    0  0.12800946988E+03 -0.10219244374E+03 -0.81211511359E+02  0.25170226363E+03  0.17300000000E+03 0. -1.
         -6    1    1    2    0  502 -0.12800946988E+03  0.10219244374E+03  0.11023425550E+03  0.26250773517E+03  0.17300000000E+03 0. -1.
<mgrwt>
<rscale>  2 0.23824089E+03</rscale>
<asrwt>0</asrwt>
<pdfrwt beam="1">  1       21 0.41787134E-01 0.23824089E+03</pdfrwt>
<pdfrwt beam="2">  1       21 0.37322097E-01 0.23824089E+03</pdfrwt>
<totfact> 0.37330446E+04</totfact>
</mgrwt>
</event>
<event>
 4    3  0.4022695E+000  0.3623025E+03  0.7546771E-02  0.1057676E+00
         21   -1    0    0  503  502  0.00000000000E+00  0.00000000000E+00  0.12262246515E+03  0.12262246515E+03  0.00000000000E+00 0.  1.
         21   -1    0    0  501  503 -0.00000000000E+00 -0.00000000000E+00 -0.16755261750E+04  0.16755261750E+04  0.00000000000E+00 0.  1.
          6    1    1    2  501    0 -0.20630022133E+03 -0.24243416501E+03 -0.13167325949E+04  0.13656675409E+04  0.17300000000E+03 0.  1.
         -6    1    1    2    0  502  0.20630022133E+03  0.24243416501E+03 -0.23617111488E+03  0.43248109922E+03  0.17300000000E+03 0.  1.
<mgrwt>
<rscale>  2 0.36230251E+03</rscale>
<asrwt>0</asrwt>
<pdfrwt beam="1">  1       21 0.18864995E-01 0.36230251E+03</pdfrwt>
<pdfrwt beam="2">  1       21 0.25777325E+00 0.36230251E+03</pdfrwt>
<totfact> 0.13311232E+03</totfact>
</mgrwt>
</event>
<event>
 4    3  0.4022695E+000  0.1915629E+03  0.7546771E-02  0.1157059E+00
         21   -1    0    0  503  502  0.00000000000E+00  0.00000000000E+00  0.61496070695E+03  0.61496070695E+03  0.00000000000E+00 0. -1.
         21   -1    0    0  501  503 -0.00000000000E+00 -0.00000000000E+00 -0.60438377286E+02  0.60438377286E+02  0.00000000000E+00 0. -1.
          6    1    1    2  501    0  0.81155321911E+02  0.13459412237E+02  0.23925028719E+03  0.30649150392E+03  0.17300000000E+03 0. -1.
         -6    1    1    2    0  502 -0.81155321911E+02 -0.13459412237E+02  0.31527204247E+03  0.36890758032E+03  0.17300000000E+03 0. -1.
<mgrwt>
<rscale>  2 0.19156289E+03</rscale>
<asrwt>0</asrwt>
<pdfrwt beam="1">  1       21 0.94609335E-01 0.19156289E+03</pdfrwt>
<pdfrwt beam="2">  1       21 0.92982123E-02 0.19156289E+03</pdfrwt>
<totfact> 0.86324212E+04</totfact>
</mgrwt>
</event>
<event>
 4    3  0.4022695E+000  0.2714657E+03  0.7546771E-02  0.1100444E+00
         21   -1    0    0  501  502  0.00000000000E+00  0.00000000000E+00  0.20763401480E+03  0.20763401480E+03  0.00000000000E+00 0.  1.
         21   -1    0    0  502  503 -0.00000000000E+00 -0.00000000000E+00 -0.91980797421E+03  0.91980797421E+03  0.00000000000E+00 0.  1.
          6    1    1    2  501    0  0.97886795848E+02 -0.18488584898E+03  0.85683339962E+02  0.28466688726E+03  0.17300000000E+03 0.  1.
         -6    1    1    2    0  503 -0.97886795848E+02  0.18488584898E+03 -0.79785729937E+03  0.84277510174E+03  0.17300000000E+03 0.  1.
<mgrwt>
<rscale>  2 0.27146566E+03</rscale>
<asrwt>0</asrwt>
<pdfrwt beam="1">  1       21 0.31943695E-01 0.27146566E+03</pdfrwt>
<pdfrwt beam="2">  1       21 0.14150892E+00 0.27146566E+03</pdfrwt>
<totfact> 0.30886013E+03</totfact>
</mgrwt>
</event>
<event>
 4    3  0.4022695E+000  0.2002773E+03  0.7546771E-02  0.1149505E+00
         21   -1    0    0  501  502  0.00000000000E+00  0.00000000000E+00  0.17230354687E+03  0.17230354687E+03  0.00000000000E+00 0. -1.
         21   -1    0    0  502  503 -0.00000000000E+00 -0.00000000000E+00 -0.23322626310E+03  0.23322626310E+03  0.00000000000E+00 0. -1.
          6    1    1    2  501    0  0.32405072279E+02 -0.95561082177E+02 -0.21719039951E+02  0.20145154711E+03  0.17300000000E+03 0. -1.
         -6    1    1    2    0  503 -0.32405072279E+02  0.95561082177E+02 -0.39203676283E+02  0.20407826286E+03  0.17300000000E+03 0. -1.
<mgrwt>
<rscale>  2 0.20027733E+03</rscale>
<asrwt>0</asrwt>
<pdfrwt beam="1">  1       21 0.26508238E-01 0.20027733E+03</pdfrwt>
<pdfrwt beam="2">  1       21 0.35880964E-01 0.20027733E+03</pdfrwt>
<totfact> 0.10110029E+05</totfact>
</mgrwt>
</event>
<event>
 4    3  0.4022695E+000  0.1795521E+03  0.7546771E-02  0.1168237E+00
         21   -1    0    0  501  502  0.00000000000E+00  0.00000000000E+00  0.11184029037E+04  0.11184029037E+04  0.00000000000E+00 0. -1.
         21   -1    0    0  502  503 -0.00000000000E+00 -0.00000000000E+00 -0.29430038011E+02  0.29430038011E+02  0.00000000000E+00 0.  1.
          6    1    1    2  501    0 -0.46100674220E+02 -0.13590389861E+02  0.62671470526E+03  0.65192813458E+03  0.17300000000E+03 0.  1.
         -6    1    1    2    0  503  0.46100674220E+02  0.13590389861E+02  0.46225816046E+03  0.49590480717E+03  0.17300000000E+03 0.  1.
<mgrwt>
<rscale>  2 0.17955214E+03</rscale>
<asrwt>0</asrwt>
<pdfrwt beam="1">  1       21 0.17206195E+00 0.17955214E+03</pdfrwt>
<pdfrwt beam="2">  1       21 0.45276990E-02 0.17955214E+03</pdfrwt>
<totfact> 0.66154922E+04</totfact>
</mgrwt>
</event>
<event>
 4    3  0.4022695E+000  0.1793136E+03  0.7546771E-02  0.1168469E+00
         21   -1    0    0  501  502  0.00000000000E+00  0.00000000000E+00  0.14499017028E+04  0.14499017028E+04  0.00000000000E+00 0. -1.
         21   -1    0    0  502  503 -0.00000000000E+00 -0.00000000000E+00 -0.29390076584E+02  0.29390076584E+02  0.00000000000E+00 0. -1.
          6    1    1    2  501    0 -0.24147689745E+02 -0.40512395564E+02  0.10766990427E+04  0.10915283751E+04  0.17300000000E+03 0. -1.
         -6    1    1    2    0  503  0.24147689745E+02  0.40512395564E+02  0.34381258354E+03  0.38776340430E+03  0.17300000000E+03 0. -1.
<mgrwt>
<rscale>  2 0.17931359E+03</rscale>
<asrwt>0</asrwt>
<pdfrwt beam="1">  1       21 0.22306175E+00 0.17931359E+03</pdfrwt>
<pdfrwt beam="2">  1       21 0.45215514E-02 0.17931359E+03</pdfrwt>
<totfact> 0.31041637E+04</totfact>
</mgrwt>
</event>
<event>
 4    3  0.4022695E+000  0.1851112E+03  0.7546771E-02  0.1162946E+00
         21   -1    0    0  503  502  0.00000000000E+00  0.00000000000E+00  0.22205891741E+02  0.22205891741E+02  0.00000000000E+00 0. -1.
         21   -1    0    0  501  503 -0.00000000000E+00 -0.00000000000E+00 -0.17291280948E+04  0.17291280948E+04  0.00000000000E+00 0. -1.
          6    1    1    2  501    0 -0.64760004175E+02  0.11970429833E+02 -0.11406728267E+04  0.11555953647E+04  0.17300000000E+03 0. -1.
         -6    1    1    2    0  502  0.64760004175E+02 -0.11970429833E+02 -0.56624937632E+03  0.59573862181E+03  0.17300000000E+03 0. -1.
<mgrwt>
<rscale>  2 0.18511118E+03</rscale>
<asrwt>0</asrwt>
<pdfrwt beam="1">  1       21 0.34162911E-02 0.18511118E+03</pdfrwt>
<pdfrwt beam="2">  1       21 0.26601970E+00 0.18511118E+03</pdfrwt>
<totfact> 0.27524180E+04</totfact>
</mgrwt>
</event>
<event>
 4    3  0.4022695E+000  0.1841116E+03  0.7546771E-02  0.1163882E+00
         21   -1    0    0  503  502  0.00000000000E+00  0.00000000000E+00  0.36413553553E+03  0.36413553553E+03  0.00000000000E+00 0.  1.
         21   -1    0    0  501  503 -0.00000000000E+00 -0.00000000000E+00 -0.13714180881E+03  0.13714180881E+03  0.00000000000E+00 0.  1.
          6    1    1    2  501    0 -0.38484394655E+02 -0.49870055984E+02  0.25554945389E+03  0.31496443370E+03  0.17300000000E+03 0.  1.
         -6    1    1    2    0  502  0.38484394655E+02  0.49870055984E+02 -0.28555727168E+02  0.18631291064E+03  0.17300000000E+03 0.  1.
<mgrwt>
<rscale>  2 0.18411157E+03</rscale>
<asrwt>0</asrwt>
<pdfrwt beam="1">  1       21 0.56020851E-01 0.18411157E+03</pdfrwt>
<pdfrwt beam="2">  1       21 0.21098740E-01 0.18411157E+03</pdfrwt>
<totfact> 0.62885487E+04</totfact>
</mgrwt>
</event>
<event>
 4    3  0.4022695E+000  0.1734853E+03  0.7546771E-02  0.1174261E+00
         21   -1    0    0  503  502  0.00000000000E+00  0.00000000000E+00  0.94820655115E+02  0.94820655115E+02  0.00000000000E+00 0.  1.
         21   -1    0    0  501  503 -0.00000000000E+00 -0.00000000000E+00 -0.95211333418E+03  0.95211333418E+03  0.00000000000E+00 0.  1.
          6    1    1    2  501    0 -0.36714625141E+01 -0.12435949623E+02 -0.85604187301E+03  0.87344422881E+03  0.17300000000E+03 0. -1.
         -6    1    1    2    0  502  0.36714625141E+01  0.12435949623E+02 -0.12508060531E+01  0.17348976049E+03  0.17300000000E+03 0. -1.
<mgrwt>
<rscale>  2 0.17348525E+03</rscale>
<asrwt>0</asrwt>
<pdfrwt beam="1">  1       21 0.14587793E-01 0.17348525E+03</pdfrwt>
<pdfrwt beam="2">  1       21 0.14647898E+00 0.17348525E+03</pdfrwt>
<totfact> 0.13314736E+04</totfact>
</mgrwt>
</event>
<event>
 4    3  0.4022695E+000  0.1734475E+03  0.7546771E-02  0.1174300E+00
         21   -1    0    0  501  502  0.00000000000E+00  0.00000000000E+00  0.11125826159E+03  0.11125826159E+03  0.00000000000E+00 0.  1.
         21   -1    0    0  502  503 -0.00000000000E+00 -0.00000000000E+00 -0.42204072000E+03  0.42204072000E+03  0.00000000000E+00 0.  1.
          6    1    1    2  501    0 -0.10852856025E+02 -0.61030202161E+01  0.44445885972E+01  0.17350442561E+03  0.17300000000E+03 0.  1.
         -6    1    1    2    0  503  0.10852856025E+02  0.61030202161E+01 -0.31522704701E+03  0.35979455597E+03  0.17300000000E+03 0.  1.
<mgrwt>
<rscale>  2 0.17344749E+03</rscale>
<asrwt>0</asrwt>
<pdfrwt beam="1">  1       21 0.17116656E-01 0.17344749E+03</pdfrwt>
<pdfrwt beam="2">  1       21 0.64929341E-01 0.17344749E+03</pdfrwt>
<totfact> 0.67876156E+04</totfact>
</mgrwt>
</event>
<event>
 4    3  0.4022695E+000  0.2454556E+03  0.7546771E-02  0.1116211E+00
         21   -1    0    0  501  502  0.00000000000E+00  0.00000000000E+00  0.43642997293E+02  0.43642997293E+02  0.00000000000E+00 0.  1.
         21   -1    0    0  502  503 -0.00000000000E+00 -0.00000000000E+00 -0.13807116338E+04  0.13807116338E+04  0.00000000000E+00 0.  1.
          6    1    1    2  501    0  0.99019428155E+02  0.14322918667E+03 -0.67768442380E+03  0.72076669271E+03  0.17300000000E+03 0.  1.
         -6    1    1    2    0  503 -0.99019428155E+02 -0.14322918667E+03 -0.65938421272E+03  0.70358793839E+03  0.17300000000E+03 0.  1.
<mgrwt>
<rscale>  2 0.24545559E+03</rscale>
<asrwt>0</asrwt>
<pdfrwt beam="1">  1       21 0.67143062E-02 0.24545559E+03</pdfrwt>
<pdfrwt beam="2">  1       21 0.21241721E+00 0.24545559E+03</pdfrwt>
<totfact> 0.17528255E+04</totfact>
</mgrwt>
</event>
<event>
 4    3  0.4022695E+000  0.1797721E+03  0.7546771E-02  0.1168024E+00
         21   -1    0    0  501  502  0.00000000000E+00  0.00000000000E+00  0.66216343063E+03  0.66216343063E+03  0.00000000000E+00 0. -1.
         21   -1    0    0  502  503 -0.00000000000E+00 -0.00000000000E+00 -0.64555491728E+02  0.64555491728E+02  0.00000000000E+00 0. -1.
          6    1    1    2  501    0  0.33458248669E+01  0.48762660532E+02  0.47827481903E+03  0.51094500108E+03  0.17300000000E+03 0. -1.
         -6    1    1    2    0  503 -0.33458248669E+01 -0.48762660532E+02  0.11933311987E+03  0.21577392128E+03  0.17300000000E+03 0. -1.
<mgrwt>
<rscale>  2 0.17977205E+03</rscale>
<asrwt>0</asrwt>
<pdfrwt beam="1">  1       21 0.10187129E+00 0.17977205E+03</pdfrwt>
<pdfrwt beam="2">  1       21 0.99316145E-02 0.17977205E+03</pdfrwt>
<totfact> 0.64906145E+04</totfact>
</mgrwt>
</event>
<event>
 4    3  0.4022695E+000  0.1855680E+03  0.7546771E-02  0.1162521E+00
         21   -1    0    0  501  502  0.00000000000E+00  0.00000000000E+00  0.43813358000E+02  0.43813358000E+02  0.00000000000E+00 0. -1.
         21   -1    0    0  502  503 -0.00000000000E+00 -0.00000000000E+00 -0.81341230936E+03  0.81341230936E+03  0.00000000000E+00 0.  1.
          6    1    1    2  501    0 -0.62211316643E+02  0.25223445090E+02 -0.30605626855E+03  0.35791885899E+03  0.17300000000E+03 0.  1.
         -6    1    1    2    0  503  0.62211316643E+02 -0.25223445090E+02 -0.46354268281E+03  0.49930680838E+03  0.17300000000E+03 0. -1.
<mgrwt>
<rscale>  2 0.18556797E+03</rscale>
<asrwt>0</asrwt>
<pdfrwt beam="1">  1       21 0.67405176E-02 0.18556797E+03</pdfrwt>
<pdfrwt beam="2">  1       21 0.12514034E+00 0.18556797E+03</pdfrwt>
<totfact> 0.77056407E+04</totfact>
</mgrwt>
</event>
<event>
 4    3  0.4022695E+000  0.1758135E+03  0.7546771E-02  0.1171917E+00
         21   -1    0    0  503  502  0.00000000000E+00  0.00000000000E+00  0.56552027668E+02  0.56552027668E+02  0.00000000000E+00 0. -1.
         21   -1    0    0  501  503 -0.00000000000E+00 -0.00000000000E+00 -0.16681122631E+04  0.16681122631E+04  0.00000000000E+00 0. -1.
          6    1    1    2  501    0  0.82155113126E+01  0.30230491115E+02 -0.15128579830E+04  0.15230396101E+04  0.17300000000E+03 0. -1.
         -6    1    1    2    0  502 -0.82155113126E+01 -0.30230491115E+02 -0.98702252441E+02  0.20162468067E+03  0.17300000000E+03 0. -1.
<mgrwt>
<rscale>  2 0.17581347E+03</rscale>
<asrwt>0</asrwt>
<pdfrwt beam="1">  1       21 0.87003127E-02 0.17581347E+03</pdfrwt>
<pdfrwt beam="2">  1       21 0.25663263E+00 0.17581347E+03</pdfrwt>
<totfact> 0.64158107E+03</totfact>
</mgrwt>
</event>
<event>
 4    3  0.4022695E+000  0.1930558E+03  0.7546771E-02  0.1155734E+00
         21   -1    0    0  501  502  0.00000000000E+00  0.00000000000E+00  0.34118075772E+03  0.34118075772E+03  0.00000000000E+00 0. -1.
         21   -1    0    0  502  503 -0.00000000000E+00 -0.00000000000E+00 -0.20762284458E+03  0.20762284458E+03  0.00000000000E+00 0. -1.
          6    1    1    2  501    0 -0.79915925846E+02 -0.30903072684E+02  0.25566909141E+03  0.32037047212E+03  0.17300000000E+03 0. -1.
         -6    1    1    2    0  503  0.79915925846E+02  0.30903072684E+02 -0.12211117827E+03  0.22843313018E+03  0.17300000000E+03 0. -1.
<mgrwt>
<rscale>  2 0.19305583E+03</rscale>
<asrwt>0</asrwt>
<pdfrwt beam="1">  1       21 0.52489347E-01 0.19305583E+03</pdfrwt>
<pdfrwt beam="2">  1       21 0.31941976E-01 0.19305583E+03</pdfrwt>
<totfact> 0.32439363E+04</totfact>
</mgrwt>
</event>
<event>
 4    3  0.4022695E+000  0.1809100E+03  0.7546771E-02  0.1166925E+00
         21   -1    0    0  503  502  0.00000000000E+00  0.00000000000E+00  0.21519187206E+03  0.21519187206E+03  0.00000000000E+00 0. -1.
         21   -1    0    0  501  503 -0.00000000000E+00 -0.00000000000E+00 -0.17490389553E+03  0.17490389553E+03  0.00000000000E+00 0. -1.
          6    1    1    2  501    0  0.44381843777E+02 -0.28804478749E+02 -0.50300175721E+02  0.18777261177E+03  0.17300000000E+03 0.  1.
         -6    1    1    2    0  502 -0.44381843777E+02  0.28804478749E+02  0.90588152249E+02  0.20232315582E+03  0.17300000000E+03 0.  1.
<mgrwt>
<rscale>  2 0.18091005E+03</rscale>
<asrwt>0</asrwt>
<pdfrwt beam="1">  1       21 0.33106442E-01 0.18091005E+03</pdfrwt>
<pdfrwt beam="2">  1       21 0.26908291E-01 0.18091005E+03</pdfrwt>
<totfact> 0.11604559E+05</totfact>
</mgrwt>
</event>
<event>
 4    3  0.4022695E+000  0.1820896E+03  0.7546771E-02  0.1165796E+00
         21   -1    0    0  503  502  0.00000000000E+00  0.00000000000E+00  0.80267880261E+02  0.80267880261E+02  0.00000000000E+00 0. -1.
         21   -1    0    0  501  503 -0.00000000000E+00 -0.00000000000E+00 -0.59326570177E+03  0.59326570177E+03  0.00000000000E+00 0. -1.
          6    1    1    2  501    0 -0.55449633339E+02  0.12367991559E+02 -0.44209602120E+03  0.47812709714E+03  0.17300000000E+03 0. -1.
         -6    1    1    2    0  502  0.55449633339E+02 -0.12367991559E+02 -0.70901800307E+02  0.19540648490E+03  0.17300000000E+03 0. -1.
<mgrwt>
<rscale>  2 0.18208962E+03</rscale>
<asrwt>0</asrwt>
<pdfrwt beam="1">  1       21 0.12348905E-01 0.18208962E+03</pdfrwt>
<pdfrwt beam="2">  1       21 0.91271647E-01 0.18208962E+03</pdfrwt>
<totfact> 0.56976079E+04</totfact>
</mgrwt>
</event>
<event>
 4    3  0.4022695E+000  0.1954945E+03  0.7546771E-02  0.1153597E+00
         21   -1    0    0  501  502  0.00000000000E+00  0.00000000000E+00  0.10884607062E+03  0.10884607062E+03  0.00000000000E+00 0.  1.
         21   -1    0    0  502  503 -0.00000000000E+00 -0.00000000000E+00 -0.35589691436E+03  0.35589691436E+03  0.00000000000E+00 0.  1.
          6    1    1    2  501    0  0.47550001365E+02 -0.77640722558E+02 -0.15044527580E+03  0.24668170877E+03  0.17300000000E+03 0.  1.
         -6    1    1    2    0  503 -0.47550001365E+02  0.77640722558E+02 -0.96605567930E+02  0.21806127621E+03  0.17300000000E+03 0.  1.
<mgrwt>
<rscale>  2 0.19549446E+03</rscale>
<asrwt>0</asrwt>
<pdfrwt beam="1">  1       21 0.16745549E-01 0.19549446E+03</pdfrwt>
<pdfrwt beam="2">  1       21 0.54753371E-01 0.19549446E+03</pdfrwt>
<totfact> 0.10088823E+05</totfact>
</mgrwt>
</event>
<event>
 4    3  0.4022695E+000  0.2181096E+03  0.7546771E-02  0.1135300E+00
         21   -1    0    0  501  502  0.00000000000E+00  0.00000000000E+00  0.76590055616E+02  0.76590055616E+02  0.00000000000E+00 0.  1.
         21   -1    0    0  502  503 -0.00000000000E+00 -0.00000000000E+00 -0.85124684591E+03  0.85124684591E+03  0.00000000000E+00 0. -1.
          6    1    1    2  501    0  0.69723097988E+02  0.11305528451E+03 -0.62853831239E+03  0.66530610841E+03  0.17300000000E+03 0. -1.
         -6    1    1    2    0  503 -0.69723097988E+02 -0.11305528451E+03 -0.14611847790E+03  0.26253079311E+03  0.17300000000E+03 0.  1.
<mgrwt>
<rscale>  2 0.21810962E+03</rscale>
<asrwt>0</asrwt>
<pdfrwt beam="1">  1       21 0.11783085E-01 0.21810962E+03</pdfrwt>
<pdfrwt beam="2">  1       21 0.13096106E+00 0.21810962E+03</pdfrwt>
<totfact> 0.25329890E+04</totfact>
</mgrwt>
</event>
<event>
 4    3  0.4022695E+000  0.3637824E+03  0.7546771E-02  0.1057096E+00
         21   -1    0    0  503  502  0.00000000000E+00  0.00000000000E+00  0.90589259802E+03  0.90589259802E+03  0.00000000000E+00 0.  1.
         21   -1    0    0  501  503 -0.00000000000E+00 -0.00000000000E+00 -0.23752968297E+03  0.23752968297E+03  0.00000000000E+00 0.  1.
          6    1    1    2  501    0  0.16509234332E+03 -0.27414076802E+03 -0.20547052615E+02  0.36436221523E+03  0.17300000000E+03 0.  1.
         -6    1    1    2    0  502 -0.16509234332E+03  0.27414076802E+03  0.68890996767E+03  0.77906006576E+03  0.17300000000E+03 0.  1.
<mgrwt>
<rscale>  2 0.36378241E+03</rscale>
<asrwt>0</asrwt>
<pdfrwt beam="1">  1       21 0.13936809E+00 0.36378241E+03</pdfrwt>
<pdfrwt beam="2">  1       21 0.36543029E-01 0.36378241E+03</pdfrwt>
<totfact> 0.23333536E+03</totfact>
</mgrwt>
</event>
<event>
 4    3  0.4022695E+000  0.3268057E+03  0.7546771E-02  0.1072559E+00
         21   -1    0    0  501  502  0.00000000000E+00  0.00000000000E+00  0.17591864870E+03  0.17591864870E+03  0.00000000000E+00 0. -1.
         21   -1    0    0  502  503 -0.00000000000E+00 -0.00000000000E+00 -0.60858133205E+03  0.60858133205E+03  0.00000000000E+00 0.  1.
          6    1    1    2  501    0  0.27699831340E+03 -0.12036761945E+02 -0.19704379219E+03  0.38161263777E+03  0.17300000000E+03 0.  1.
         -6    1    1    2    0  503 -0.27699831340E+03  0.12036761945E+02 -0.23561889116E+03  0.40288734298E+03  0.17300000000E+03 0.  1.
<mgrwt>
<rscale>  2 0.32680568E+03</rscale>
<asrwt>0</asrwt>
<pdfrwt beam="1">  1       21 0.27064407E-01 0.32680568E+03</pdfrwt>
<pdfrwt beam="2">  1       21 0.93627899E-01 0.32680568E+03</pdfrwt>
<totfact> 0.11610103E+04</totfact>
</mgrwt>
</event>
<event>
 4    3  0.4022695E+000  0.2550081E+03  0.7546771E-02  0.1110180E+00
         21   -1    0    0  501  502  0.00000000000E+00  0.00000000000E+00  0.13408728980E+04  0.13408728980E+04  0.00000000000E+00 0.  1.
         21   -1    0    0  502  503 -0.00000000000E+00 -0.00000000000E+00 -0.58073430082E+02  0.58073430082E+02  0.00000000000E+00 0.  1.
          6    1    1    2  501    0  0.17979456472E+03 -0.52669155545E+02  0.92543377867E+03  0.95992541593E+03  0.17300000000E+03 0.  1.
         -6    1    1    2    0  503 -0.17979456472E+03  0.52669155545E+02  0.35736568922E+03  0.43902091212E+03  0.17300000000E+03 0.  1.
<mgrwt>
<rscale>  2 0.25500809E+03</rscale>
<asrwt>0</asrwt>
<pdfrwt beam="1">  1       21 0.20628811E+00 0.25500809E+03</pdfrwt>
<pdfrwt beam="2">  1       21 0.89343749E-02 0.25500809E+03</pdfrwt>
<totfact> 0.11566054E+04</totfact>
</mgrwt>
</event>
<event>
 4    3  0.4022695E+000  0.1800437E+03  0.7546771E-02  0.1167761E+00
         21   -1    0    0  501  502  0.00000000000E+00  0.00000000000E+00  0.49964428647E+03  0.49964428647E+03  0.00000000000E+00 0. -1.
         21   -1    0    0  502  503 -0.00000000000E+00 -0.00000000000E+00 -0.15273847412E+03  0.15273847412E+03  0.00000000000E+00 0. -1.
          6    1    1    2  501    0  0.32298488255E+02 -0.37993928094E+02  0.42085078587E+03  0.45774568800E+03  0.17300000000E+03 0. -1.
         -6    1    1    2    0  503 -0.32298488255E+02  0.37993928094E+02 -0.73944973521E+02  0.19463707259E+03  0.17300000000E+03 0. -1.
<mgrwt>
<rscale>  2 0.18004369E+03</rscale>
<asrwt>0</asrwt>
<pdfrwt beam="1">  1       21 0.76868351E-01 0.18004369E+03</pdfrwt>
<pdfrwt beam="2">  1       21 0.23498227E-01 0.18004369E+03</pdfrwt>
<totfact> 0.25828762E+04</totfact>
</mgrwt>
</event>
<event>
 4    3  0.4022695E+000  0.1924906E+03  0.7546771E-02  0.1156234E+00
         21   -1    0    0  501  502  0.00000000000E+00  0.00000000000E+00  0.29812784868E+02  0.29812784868E+02  0.00000000000E+00 0.  1.
         21   -1    0    0  502  503 -0.00000000000E+00 -0.00000000000E+00 -0.13741281138E+04  0.13741281138E+04  0.00000000000E+00 0.  1.
          6    1    1    2  501    0 -0.84155816888E+02 -0.64365149788E+01 -0.88913376097E+03  0.90973154015E+03  0.17300000000E+03 0.  1.
         -6    1    1    2    0  503  0.84155816888E+02  0.64365149788E+01 -0.45518156800E+03  0.49420935856E+03  0.17300000000E+03 0.  1.
<mgrwt>
<rscale>  2 0.19249060E+03</rscale>
<asrwt>0</asrwt>
<pdfrwt beam="1">  1       21 0.45865819E-02 0.19249060E+03</pdfrwt>
<pdfrwt beam="2">  1       21 0.21140434E+00 0.19249060E+03</pdfrwt>
<totfact> 0.35401766E+04</totfact>
</mgrwt>
</event>
<event>
 4    3  0.4022695E+000  0.1910371E+03  0.7546771E-02  0.1157529E+00
         21   -1    0    0  501  502  0.00000000000E+00  0.00000000000E+00  0.69141190980E+03  0.69141190980E+03  0.00000000000E+00 0.  1.
         21   -1    0    0  502  503 -0.00000000000E+00 -0.00000000000E+00 -0.52851795050E+02  0.52851795050E+02  0.00000000000E+00 0.  1.
          6    1    1    2  501    0 -0.74594838521E+02  0.31650842644E+02  0.33265357078E+03  0.38360600090E+03  0.17300000000E+03 0.  1.
         -6    1    1    2    0  503  0.74594838521E+02 -0.31650842644E+02  0.30590654397E+03  0.36065770395E+03  0.17300000000E+03 0.  1.
<mgrwt>
<rscale>  2 0.19103708E+03</rscale>
<asrwt>0</asrwt>
<pdfrwt beam="1">  1       21 0.10637106E+00 0.19103708E+03</pdfrwt>
<pdfrwt beam="2">  1       21 0.81310459E-02 0.19103708E+03</pdfrwt>
<totfact> 0.82673296E+04</totfact>
</mgrwt>
</event>
<event>
 4    3  0.4022695E+000  0.1835096E+03  0.7546771E-02  0.1164449E+00
         21   -1    0    0  501  502  0.00000000000E+00  0.00000000000E+00  0.14745791803E+03  0.14745791803E+03  0.00000000000E+00 0. -1.
         21   -1    0    0  502  503 -0.00000000000E+00 -0.00000000000E+00 -0.25991137527E+03  0.25991137527E+03  0.00000000000E+00 0. -1.
          6    1    1    2  501    0 -0.20142185135E+02 -0.57801910678E+02 -0.12717608074E+03  0.22327006967E+03  0.17300000000E+03 0. -1.
         -6    1    1    2    0  503  0.20142185135E+02  0.57801910678E+02  0.14722623496E+02  0.18409922363E+03  0.17300000000E+03 0. -1.
<mgrwt>
<rscale>  2 0.18350959E+03</rscale>
<asrwt>0</asrwt>
<pdfrwt beam="1">  1       21 0.22685834E-01 0.18350959E+03</pdfrwt>
<pdfrwt beam="2">  1       21 0.39986365E-01 0.18350959E+03</pdfrwt>
<totfact> 0.11016579E+05</totfact>
</mgrwt>
</event>
<event>
 4    3  0.4022695E+000  0.1868846E+03  0.7546771E-02  0.1161302E+00
         21   -1    0    0  503  502  0.00000000000E+00  0.00000000000E+00  0.12161123879E+04  0.12161123879E+04  0.00000000000E+00 0. -1.
         21   -1    0    0  501  503 -0.00000000000E+00 -0.00000000000E+00 -0.33139883729E+02  0.33139883729E+02  0.00000000000E+00 0. -1.
          6    1    1    2  501    0 -0.24964949765E+02 -0.66133141389E+02  0.36335398837E+03  0.40859755502E+03  0.17300000000E+03 0. -1.
         -6    1    1    2    0  502  0.24964949765E+02  0.66133141389E+02  0.81961851583E+03  0.84065471663E+03  0.17300000000E+03 0. -1.
<mgrwt>
<rscale>  2 0.18688457E+03</rscale>
<asrwt>0</asrwt>
<pdfrwt beam="1">  1       21 0.18709418E+00 0.18688457E+03</pdfrwt>
<pdfrwt beam="2">  1       21 0.50984446E-02 0.18688457E+03</pdfrwt>
<totfact> 0.42584881E+04</totfact>
</mgrwt>
</event>
<event>
 4    3  0.4022695E+000  0.1746671E+03  0.7546771E-02  0.1173066E+00
         21   -1    0    0  501  502  0.00000000000E+00  0.00000000000E+00  0.16865627215E+04  0.16865627215E+04  0.00000000000E+00 0.  1.
         21   -1    0    0  502  503 -0.00000000000E+00 -0.00000000000E+00 -0.18090650933E+02  0.18090650933E+02  0.00000000000E+00 0.  1.
          6    1    1    2  501    0 -0.13152675853E+02  0.20164774933E+02  0.82666656618E+03  0.84491787925E+03  0.17300000000E+03 0.  1.
         -6    1    1    2    0  503  0.13152675853E+02 -0.20164774933E+02  0.84180550439E+03  0.85973549319E+03  0.17300000000E+03 0.  1.
<mgrwt>
<rscale>  2 0.17466714E+03</rscale>
<asrwt>0</asrwt>
<pdfrwt beam="1">  1       21 0.25947107E+00 0.17466714E+03</pdfrwt>
<pdfrwt beam="2">  1       21 0.27831784E-02 0.17466714E+03</pdfrwt>
<totfact> 0.42553468E+04</totfact>
</mgrwt>
</event>
<event>
 4    3  0.4022695E+000  0.1836510E+03  0.7546771E-02  0.1164316E+00
         21   -1    0    0  501  502  0.00000000000E+00  0.00000000000E+00  0.19779071367E+03  0.19779071367E+03  0.00000000000E+00 0.  1.
         21   -1    0    0  502  503 -0.00000000000E+00 -0.00000000000E+00 -0.26585446348E+03  0.26585446348E+03  0.00000000000E+00 0.  1.
          6    1    1    2  501    0  0.20788371002E+01  0.61598513375E+02  0.10478869767E+03  0.21144353755E+03  0.17300000000E+03 0. -1.
         -6    1    1    2    0  503 -0.20788371002E+01 -0.61598513375E+02 -0.17285244749E+03  0.25220163960E+03  0.17300000000E+03 0. -1.
<mgrwt>
<rscale>  2 0.18365102E+03</rscale>
<asrwt>0</asrwt>
<pdfrwt beam="1">  1       21 0.30429341E-01 0.18365102E+03</pdfrwt>
<pdfrwt beam="2">  1       21 0.40900687E-01 0.18365102E+03</pdfrwt>
<totfact> 0.59920656E+04</totfact>
</mgrwt>
</event>
<event>
 4    3  0.4022695E+000  0.2867803E+03  0.7546771E-02  0.1092042E+00
         21   -1    0    0  503  502  0.00000000000E+00  0.00000000000E+00  0.21191726225E+03  0.21191726225E+03  0.00000000000E+00 0. -1.
         21   -1    0    0  501  503 -0.00000000000E+00 -0.00000000000E+00 -0.39892051940E+03  0.39892051940E+03  0.00000000000E+00 0.  1.
          6    1    1    2  501    0 -0.62992400001E+01 -0.22863565051E+03 -0.43177054015E+02  0.29001241198E+03  0.17300000000E+03 0. -1.
         -6    1    1    2    0  502  0.62992400001E+01  0.22863565051E+03 -0.14382620314E+03  0.32082536966E+03  0.17300000000E+03 0.  1.
<mgrwt>
<rscale>  2 0.28678030E+03</rscale>
<asrwt>0</asrwt>
<pdfrwt beam="1">  1       21 0.32602657E-01 0.28678030E+03</pdfrwt>
<pdfrwt beam="2">  1       21 0.61372386E-01 0.28678030E+03</pdfrwt>
<totfact> 0.21317958E+04</totfact>
</mgrwt>
</event>
<event>
 4    3  0.4022695E+000  0.1967192E+03  0.7546771E-02  0.1152537E+00
         21   -1    0    0  503  502  0.00000000000E+00  0.00000000000E+00  0.25403025484E+03  0.25403025484E+03  0.00000000000E+00 0.  1.
         21   -1    0    0  501  503 -0.00000000000E+00 -0.00000000000E+00 -0.21557259290E+03  0.21557259290E+03  0.00000000000E+00 0.  1.
          6    1    1    2  501    0 -0.16475294172E+01 -0.93630885153E+02 -0.10794020247E+03  0.22438704133E+03  0.17300000000E+03 0.  1.
         -6    1    1    2    0  502  0.16475294172E+01  0.93630885153E+02  0.14639786441E+03  0.24521580641E+03  0.17300000000E+03 0.  1.
<mgrwt>
<rscale>  2 0.19671923E+03</rscale>
<asrwt>0</asrwt>
<pdfrwt beam="1">  1       21 0.39081578E-01 0.19671923E+03</pdfrwt>
<pdfrwt beam="2">  1       21 0.33165014E-01 0.19671923E+03</pdfrwt>
<totfact> 0.55154229E+04</totfact>
</mgrwt>
</event>
<event>
 4    3  0.4022695E+000  0.1730838E+03  0.7546771E-02  0.1174670E+00
         21   -1    0    0  503  502  0.00000000000E+00  0.00000000000E+00  0.21235133811E+03  0.21235133811E+03  0.00000000000E+00 0.  1.
         21   -1    0    0  501  503 -0.00000000000E+00 -0.00000000000E+00 -0.23202646449E+03  0.23202646449E+03  0.00000000000E+00 0.  1.
          6    1    1    2  501    0 -0.24795517987E+01  0.47791791828E+01 -0.14894570845E+03  0.22834800808E+03  0.17300000000E+03 0.  1.
         -6    1    1    2    0  502  0.24795517987E+01 -0.47791791828E+01  0.12927058206E+03  0.21602979451E+03  0.17300000000E+03 0.  1.
<mgrwt>
<rscale>  2 0.17308376E+03</rscale>
<asrwt>0</asrwt>
<pdfrwt beam="1">  1       21 0.32669437E-01 0.17308376E+03</pdfrwt>
<pdfrwt beam="2">  1       21 0.35696379E-01 0.17308376E+03</pdfrwt>
<totfact> 0.68818744E+04</totfact>
</mgrwt>
</event>
<event>
 4    3  0.4022695E+000  0.1758811E+03  0.7546771E-02  0.1171850E+00
         21   -1    0    0  503  502  0.00000000000E+00  0.00000000000E+00  0.22219622351E+03  0.22219622351E+03  0.00000000000E+00 0. -1.
         21   -1    0    0  501  503 -0.00000000000E+00 -0.00000000000E+00 -0.17955594157E+03  0.17955594157E+03  0.00000000000E+00 0. -1.
          6    1    1    2  501    0 -0.20398674670E+02 -0.24270356314E+02 -0.73888088891E+02  0.19077108220E+03  0.17300000000E+03 0. -1.
         -6    1    1    2    0  502  0.20398674670E+02  0.24270356314E+02  0.11652837083E+03  0.21098108288E+03  0.17300000000E+03 0. -1.
<mgrwt>
<rscale>  2 0.17588109E+03</rscale>
<asrwt>0</asrwt>
<pdfrwt beam="1">  1       21 0.34184035E-01 0.17588109E+03</pdfrwt>
<pdfrwt beam="2">  1       21 0.27623991E-01 0.17588109E+03</pdfrwt>
<totfact> 0.10377310E+05</totfact>
</mgrwt>
</event>
<event>
 4    3  0.4022695E+000  0.1989192E+03  0.7546771E-02  0.1150654E+00
         21   -1    0    0  501  502  0.00000000000E+00  0.00000000000E+00  0.48599538912E+03  0.48599538912E+03  0.00000000000E+00 0. -1.
         21   -1    0    0  502  503 -0.00000000000E+00 -0.00000000000E+00 -0.20603343125E+03  0.20603343125E+03  0.00000000000E+00 0.  1.
          6    1    1    2  501    0  0.95639050392E+02  0.22203936876E+02  0.40907930671E+03  0.45487879919E+03  0.17300000000E+03 0. -1.
         -6    1    1    2    0  503 -0.95639050392E+02 -0.22203936876E+02 -0.12911734884E+03  0.23715002118E+03  0.17300000000E+03 0.  1.
<mgrwt>
<rscale>  2 0.19891919E+03</rscale>
<asrwt>0</asrwt>
<pdfrwt beam="1">  1       21 0.74768521E-01 0.19891919E+03</pdfrwt>
<pdfrwt beam="2">  1       21 0.31697451E-01 0.19891919E+03</pdfrwt>
<totfact> 0.15257910E+04</totfact>
</mgrwt>
</event>
<event>
 4    3  0.4022695E+000  0.2677030E+03  0.7546771E-02  0.1102601E+00
         21   -1    0    0  501  502  0.00000000000E+00  0.00000000000E+00  0.22074098703E+03  0.22074098703E+03  0.00000000000E+00 0. -1.
         21   -1    0    0  502  503 -0.00000000000E+00 -0.00000000000E+00 -0.32541942938E+03  0.32541942938E+03  0.00000000000E+00 0. -1.
          6    1    1    2  501    0  0.26954434679E+02 -0.20250766183E+03 -0.39112821873E+02  0.27054520414E+03  0.17300000000E+03 0. -1.
         -6    1    1    2    0  503 -0.26954434679E+02  0.20250766183E+03 -0.65565620479E+02  0.27561521227E+03  0.17300000000E+03 0. -1.
<mgrwt>
<rscale>  2 0.26770300E+03</rscale>
<asrwt>0</asrwt>
<pdfrwt beam="1">  1       21 0.33960152E-01 0.26770300E+03</pdfrwt>
<pdfrwt beam="2">  1       21 0.50064528E-01 0.26770300E+03</pdfrwt>
<totfact> 0.30622797E+04</totfact>
</mgrwt>
</event>
<event>
 4    3  0.4022695E+000  0.2511622E+03  0.7546771E-02  0.1112573E+00
         21   -1    0    0  503  502  0.00000000000E+00  0.00000000000E+00  0.57575414461E+03  0.57575414461E+03  0.00000000000E+00 0. -1.
         21   -1    0    0  501  503 -0.00000000000E+00 -0.00000000000E+00 -0.11174989623E+03  0.11174989623E+03  0.00000000000E+00 0. -1.
          6    1    1    2  501    0 -0.46868070399E+02  0.17594554938E+03  0.28006899136E+03  0.37619289240E+03  0.17300000000E+03 0. -1.
         -6    1    1    2    0  502  0.46868070399E+02 -0.17594554938E+03  0.18393525702E+03  0.31131114844E+03  0.17300000000E+03 0. -1.
<mgrwt>
<rscale>  2 0.25116220E+03</rscale>
<asrwt>0</asrwt>
<pdfrwt beam="1">  1       21 0.88577559E-01 0.25116220E+03</pdfrwt>
<pdfrwt beam="2">  1       21 0.17192292E-01 0.25116220E+03</pdfrwt>
<totfact> 0.32338404E+04</totfact>
</mgrwt>
</event>
<event>
 4    3  0.4022695E+000  0.2508108E+03  0.7546771E-02  0.1112793E+00
         21   -1    0    0  501  502  0.00000000000E+00  0.00000000000E+00  0.71434692363E+03  0.71434692363E+03  0.00000000000E+00 0. -1.
         21   -1    0    0  502  503 -0.00000000000E+00 -0.00000000000E+00 -0.13868670024E+03  0.13868670024E+03  0.00000000000E+00 0.  1.
          6    1    1    2  501    0 -0.13259670678E+03  0.12407734788E+03  0.30136029257E+02  0.25261483560E+03  0.17300000000E+03 0.  1.
         -6    1    1    2    0  503  0.13259670678E+03 -0.12407734788E+03  0.54552419413E+03  0.60041878826E+03  0.17300000000E+03 0. -1.
<mgrwt>
<rscale>  2 0.25081083E+03</rscale>
<asrwt>0</asrwt>
<pdfrwt beam="1">  1       21 0.10989952E+00 0.25081083E+03</pdfrwt>
<pdfrwt beam="2">  1       21 0.21336416E-01 0.25081083E+03</pdfrwt>
<totfact> 0.12913324E+04</totfact>
</mgrwt>
</event>
<event>
 4    3  0.4022695E+000  0.2189366E+03  0.7546771E-02  0.1134678E+00
         21   -1    0    0  501  502  0.00000000000E+00  0.00000000000E+00  0.98098175866E+03  0.98098175866E+03  0.00000000000E+00 0. -1.
         21   -1    0    0  502  503 -0.00000000000E+00 -0.00000000000E+00 -0.86787617534E+02  0.86787617534E+02  0.00000000000E+00 0.  1.
          6    1    1    2  501    0 -0.13189284241E+03 -0.24668047944E+02  0.80002170403E+03  0.82943834092E+03  0.17300000000E+03 0. -1.
         -6    1    1    2    0  503  0.13189284241E+03  0.24668047944E+02  0.94172437099E+02  0.23833103528E+03  0.17300000000E+03 0.  1.
<mgrwt>
<rscale>  2 0.21893660E+03</rscale>
<asrwt>0</asrwt>
<pdfrwt beam="1">  1       21 0.15092026E+00 0.21893660E+03</pdfrwt>
<pdfrwt beam="2">  1       21 0.13351942E-01 0.21893660E+03</pdfrwt>
<totfact> 0.13989649E+04</totfact>
</mgrwt>
</event>
<event>
 4    3  0.4022695E+000  0.2607232E+03  0.7546771E-02  0.1106709E+00
         21   -1    0    0  501  502  0.00000000000E+00  0.00000000000E+00  0.45826186436E+03  0.45826186436E+03  0.00000000000E+00 0.  1.
         21   -1    0    0  502  503 -0.00000000000E+00 -0.00000000000E+00 -0.57715824665E+03  0.57715824665E+03  0.00000000000E+00 0. -1.
          6    1    1    2  501    0 -0.19492955282E+03  0.70756338045E+01  0.38680152482E+03  0.46646759241E+03  0.17300000000E+03 0.  1.
         -6    1    1    2    0  503  0.19492955282E+03 -0.70756338045E+01 -0.50569790711E+03  0.56895251860E+03  0.17300000000E+03 0. -1.
<mgrwt>
<rscale>  2 0.26072322E+03</rscale>
<asrwt>0</asrwt>
<pdfrwt beam="1">  1       21 0.70501825E-01 0.26072322E+03</pdfrwt>
<pdfrwt beam="2">  1       21 0.88793576E-01 0.26072322E+03</pdfrwt>
<totfact> 0.18720743E+03</totfact>
</mgrwt>
</event>
<event>
 4    3  0.4022695E+000  0.1788918E+03  0.7546771E-02  0.1168880E+00
         21   -1    0    0  501  502  0.00000000000E+00  0.00000000000E+00  0.21516999013E+03  0.21516999013E+03  0.00000000000E+00 0. -1.
         21   -1    0    0  502  503 -0.00000000000E+00 -0.00000000000E+00 -0.14881264830E+03  0.14881264830E+03  0.00000000000E+00 0. -1.
          6    1    1    2  501    0  0.91249247623E+01 -0.44609682330E+02  0.37460905520E+02  0.18277200949E+03  0.17300000000E+03 0.  1.
         -6    1    1    2    0  503 -0.91249247623E+01  0.44609682330E+02  0.28896436305E+02  0.18121062894E+03  0.17300000000E+03 0.  1.
<mgrwt>
<rscale>  2 0.17889183E+03</rscale>
<asrwt>0</asrwt>
<pdfrwt beam="1">  1       21 0.33103075E-01 0.17889183E+03</pdfrwt>
<pdfrwt beam="2">  1       21 0.22894254E-01 0.17889183E+03</pdfrwt>
<totfact> 0.15799373E+05</totfact>
</mgrwt>
</event>
<event>
 4    3  0.4022695E+000  0.2117462E+03  0.7546771E-02  0.1140191E+00
         21   -1    0    0  503  502  0.00000000000E+00  0.00000000000E+00  0.49539572406E+03  0.49539572406E+03  0.00000000000E+00 0. -1.
         21   -1    0    0  501  503 -0.00000000000E+00 -0.00000000000E+00 -0.11497347327E+03  0.11497347327E+03  0.00000000000E+00 0.  1.
          6    1    1    2  501    0  0.92221675590E+02 -0.80016446459E+02  0.49426556065E+02  0.21743839035E+03  0.17300000000E+03 0.  1.
         -6    1    1    2    0  502 -0.92221675590E+02  0.80016446459E+02  0.33099569472E+03  0.39293080698E+03  0.17300000000E+03 0. -1.
<mgrwt>
<rscale>  2 0.21174624E+03</rscale>
<asrwt>0</asrwt>
<pdfrwt beam="1">  1       21 0.76214725E-01 0.21174624E+03</pdfrwt>
<pdfrwt beam="2">  1       21 0.17688227E-01 0.21174624E+03</pdfrwt>
<totfact> 0.44048090E+04</totfact>
</mgrwt>
</event>
<event>
 4    3  0.4022695E+000  0.1777332E+03  0.7546771E-02  0.1170015E+00
         21   -1    0    0  503  502  0.00000000000E+00  0.00000000000E+00  0.25753029046E+03  0.25753029046E+03  0.00000000000E+00 0. -1.
         21   -1    0    0  501  503 -0.00000000000E+00 -0.00000000000E+00 -0.14589433050E+03  0.14589433050E+03  0.00000000000E+00 0. -1.
          6    1    1    2  501    0 -0.36441344227E+02  0.18223774338E+02 -0.24675985280E+02  0.17943796078E+03  0.17300000000E+03 0. -1.
         -6    1    1    2    0  502  0.36441344227E+02 -0.18223774338E+02  0.13631194524E+03  0.22398666017E+03  0.17300000000E+03 0. -1.
<mgrwt>
<rscale>  2 0.17773316E+03</rscale>
<asrwt>0</asrwt>
<pdfrwt beam="1">  1       21 0.39620045E-01 0.17773316E+03</pdfrwt>
<pdfrwt beam="2">  1       21 0.22445282E-01 0.17773316E+03</pdfrwt>
<totfact> 0.11475107E+05</totfact>
</mgrwt>
</event>
<event>
 4    3  0.4022695E+000  0.1800606E+03  0.7546771E-02  0.1167744E+00
         21   -1    0    0  501  502  0.00000000000E+00  0.00000000000E+00  0.26106849890E+03  0.26106849890E+03  0.00000000000E+00 0.  1.
         21   -1    0    0  502  503 -0.00000000000E+00 -0.00000000000E+00 -0.13260601077E+03  0.13260601077E+03  0.00000000000E+00 0. -1.
          6    1    1    2  501    0 -0.21960683037E+02  0.44839302947E+02  0.11382245885E+03  0.21301968648E+03  0.17300000000E+03 0.  1.
         -6    1    1    2    0  503  0.21960683037E+02 -0.44839302947E+02  0.14640029284E+02  0.18065482320E+03  0.17300000000E+03 0. -1.
<mgrwt>
<rscale>  2 0.18006064E+03</rscale>
<asrwt>0</asrwt>
<pdfrwt beam="1">  1       21 0.40164384E-01 0.18006064E+03</pdfrwt>
<pdfrwt beam="2">  1       21 0.20400925E-01 0.18006064E+03</pdfrwt>
<totfact> 0.13343661E+05</totfact>
</mgrwt>
</event>
<event>
 4    3  0.4022695E+000  0.1841380E+03  0.7546771E-02  0.1163857E+00
         21   -1    0    0  501  502  0.00000000000E+00  0.00000000000E+00  0.64494453090E+03  0.64494453090E+03  0.00000000000E+00 0. -1.
         21   -1    0    0  502  503 -0.00000000000E+00 -0.00000000000E+00 -0.11234383314E+03  0.11234383314E+03  0.00000000000E+00 0. -1.
          6    1    1    2  501    0  0.48776848247E+02 -0.39982909486E+02  0.54248561508E+03  0.57288520363E+03  0.17300000000E+03 0. -1.
         -6    1    1    2    0  503 -0.48776848247E+02  0.39982909486E+02 -0.98849173160E+01  0.18440316040E+03  0.17300000000E+03 0. -1.
<mgrwt>
<rscale>  2 0.18413803E+03</rscale>
<asrwt>0</asrwt>
<pdfrwt beam="1">  1       21 0.99222233E-01 0.18413803E+03</pdfrwt>
<pdfrwt beam="2">  1       21 0.17283667E-01 0.18413803E+03</pdfrwt>
<totfact> 0.25432392E+04</totfact>
</mgrwt>
</event>
<event>
 4    3  0.4022695E+000  0.1870170E+03  0.7546771E-02  0.1161180E+00
         21   -1    0    0  501  502  0.00000000000E+00  0.00000000000E+00  0.35236446979E+02  0.35236446979E+02  0.00000000000E+00 0.  1.
         21   -1    0    0  502  503 -0.00000000000E+00 -0.00000000000E+00 -0.10470036193E+04  0.10470036193E+04  0.00000000000E+00 0.  1.
          6    1    1    2  501    0 -0.18564358725E+02  0.68568980163E+02 -0.62924343594E+03  0.65644698349E+03  0.17300000000E+03 0.  1.
         -6    1    1    2    0  503  0.18564358725E+02 -0.68568980163E+02 -0.38252373635E+03  0.42579308276E+03  0.17300000000E+03 0.  1.
<mgrwt>
<rscale>  2 0.18701695E+03</rscale>
<asrwt>0</asrwt>
<pdfrwt beam="1">  1       21 0.54209919E-02 0.18701695E+03</pdfrwt>
<pdfrwt beam="2">  1       21 0.16107748E+00 0.18701695E+03</pdfrwt>
<totfact> 0.58137819E+04</totfact>
</mgrwt>
</event>
<event>
 4    3  0.4022695E+000  0.1862877E+03  0.7546771E-02  0.1161853E+00
         21   -1    0    0  503  502  0.00000000000E+00  0.00000000000E+00  0.10779109194E+04  0.10779109194E+04  0.00000000000E+00 0.  1.
         21   -1    0    0  501  503 -0.00000000000E+00 -0.00000000000E+00 -0.42120857732E+02  0.42120857732E+02  0.00000000000E+00 0.  1.
          6    1    1    2  501    0 -0.68313671216E+02 -0.10361106857E+02  0.24603805968E+03  0.30860628157E+03  0.17300000000E+03 0.  1.
         -6    1    1    2    0  502  0.68313671216E+02  0.10361106857E+02  0.78975200195E+03  0.81142549553E+03  0.17300000000E+03 0.  1.
<mgrwt>
<rscale>  2 0.18628771E+03</rscale>
<asrwt>0</asrwt>
<pdfrwt beam="1">  1       21 0.16583243E+00 0.18628771E+03</pdfrwt>
<pdfrwt beam="2">  1       21 0.64801328E-02 0.18628771E+03</pdfrwt>
<totfact> 0.39617132E+04</totfact>
</mgrwt>
</event>
<event>
 4    3  0.4022695E+000  0.2192240E+03  0.7546771E-02  0.1134463E+00
         21   -1    0    0  503  502  0.00000000000E+00  0.00000000000E+00  0.85675639158E+02  0.85675639158E+02  0.00000000000E+00 0. -1.
         21   -1    0    0  501  503 -0.00000000000E+00 -0.00000000000E+00 -0.59262948180E+03  0.59262948180E+03  0.00000000000E+00 0.  1.
          6    1    1    2  501    0 -0.88332747984E+02 -0.10162421418E+03 -0.33189931015E+03  0.39776413533E+03  0.17300000000E+03 0.  1.
         -6    1    1    2    0  502  0.88332747984E+02  0.10162421418E+03 -0.17505453249E+03  0.28054098563E+03  0.17300000000E+03 0. -1.
<mgrwt>
<rscale>  2 0.21922398E+03</rscale>
<asrwt>0</asrwt>
<pdfrwt beam="1">  1       21 0.13180868E-01 0.21922398E+03</pdfrwt>
<pdfrwt beam="2">  1       21 0.91173765E-01 0.21922398E+03</pdfrwt>
<totfact> 0.49890261E+04</totfact>
</mgrwt>
</event>
<event>
 4    3  0.4022695E+000  0.2658982E+03  0.7546771E-02  0.1103650E+00
         21   -1    0    0  501  502  0.00000000000E+00  0.00000000000E+00  0.27683899311E+03  0.27683899311E+03  0.00000000000E+00 0.  1.
         21   -1    0    0  502  503 -0.00000000000E+00 -0.00000000000E+00 -0.26833374249E+03  0.26833374249E+03  0.00000000000E+00 0. -1.
          6    1    1    2  501    0 -0.20187796339E+03  0.42611333656E+01  0.64121198887E+02  0.27352037860E+03  0.17300000000E+03 0. -1.
         -6    1    1    2    0  503  0.20187796339E+03 -0.42611333656E+01 -0.55615948268E+02  0.27165235700E+03  0.17300000000E+03 0.  1.
<mgrwt>
<rscale>  2 0.26589823E+03</rscale>
<asrwt>0</asrwt>
<pdfrwt beam="1">  1       21 0.42590614E-01 0.26589823E+03</pdfrwt>
<pdfrwt beam="2">  1       21 0.41282114E-01 0.26589823E+03</pdfrwt>
<totfact> 0.28916641E+04</totfact>
</mgrwt>
</event>
<event>
 4    3  0.4022695E+000  0.1911119E+03  0.7546771E-02  0.1157462E+00
         21   -1    0    0  501  502  0.00000000000E+00  0.00000000000E+00  0.59356786658E+03  0.59356786658E+03  0.00000000000E+00 0. -1.
         21   -1    0    0  502  503 -0.00000000000E+00 -0.00000000000E+00 -0.17173937298E+03  0.17173937298E+03  0.00000000000E+00 0. -1.
          6    1    1    2  501    0 -0.26353280168E+01  0.81165232923E+02 -0.95617278056E+02  0.21369699074E+03  0.17300000000E+03 0. -1.
         -6    1    1    2    0  503  0.26353280168E+01 -0.81165232923E+02  0.51744577165E+03  0.55161024881E+03  0.17300000000E+03 0. -1.
<mgrwt>
<rscale>  2 0.19111185E+03</rscale>
<asrwt>0</asrwt>
<pdfrwt beam="1">  1       21 0.91318132E-01 0.19111185E+03</pdfrwt>
<pdfrwt beam="2">  1       21 0.26421442E-01 0.19111185E+03</pdfrwt>
<totfact> 0.13854288E+04</totfact>
</mgrwt>
</event>
<event>
 4    3  0.4022695E+000  0.1990839E+03  0.7546771E-02  0.1150514E+00
         21   -1    0    0  501  502  0.00000000000E+00  0.00000000000E+00  0.21171464599E+02  0.21171464599E+02  0.00000000000E+00 0. -1.
         21   -1    0    0  502  503 -0.00000000000E+00 -0.00000000000E+00 -0.24709424343E+04  0.24709424343E+04  0.00000000000E+00 0. -1.
          6    1    1    2  501    0  0.90304812185E+02  0.39375445565E+02 -0.61144124771E+03  0.64303560105E+03  0.17300000000E+03 0. -1.
         -6    1    1    2    0  503 -0.90304812185E+02 -0.39375445565E+02 -0.18383297220E+04  0.18490782978E+04  0.17300000000E+03 0. -1.
<mgrwt>
<rscale>  2 0.19908386E+03</rscale>
<asrwt>0</asrwt>
<pdfrwt beam="1">  1       21 0.32571493E-02 0.19908386E+03</pdfrwt>
<pdfrwt beam="2">  1       21 0.38014488E+00 0.19908386E+03</pdfrwt>
<totfact> 0.63190900E+03</totfact>
</mgrwt>
</event>
<event>
 4    3  0.4022695E+000  0.2187206E+03  0.7546771E-02  0.1134841E+00
         21   -1    0    0  503  502  0.00000000000E+00  0.00000000000E+00  0.25310961257E+04  0.25310961257E+04  0.00000000000E+00 0.  1.
         21   -1    0    0  501  503 -0.00000000000E+00 -0.00000000000E+00 -0.19423346530E+02  0.19423346530E+02  0.00000000000E+00 0. -1.
          6    1    1    2  501    0  0.37471830768E+02  0.12847393492E+03  0.10465833932E+04  0.10691938500E+04  0.17300000000E+03 0.  1.
         -6    1    1    2    0  502 -0.37471830768E+02 -0.12847393492E+03  0.14650893860E+04  0.14813256222E+04  0.17300000000E+03 0. -1.
<mgrwt>
<rscale>  2 0.21872058E+03</rscale>
<asrwt>0</asrwt>
<pdfrwt beam="1">  1       21 0.38939914E+00 0.21872058E+03</pdfrwt>
<pdfrwt beam="2">  1       21 0.29882092E-02 0.21872058E+03</pdfrwt>
<totfact> 0.62466640E+03</totfact>
</mgrwt>
</event>
<event>
 4    3  0.4022695E+000  0.2228478E+03  0.7546771E-02  0.1131778E+00
         21   -1    0    0  503  502  0.00000000000E+00  0.00000000000E+00  0.74504826323E+02  0.74504826323E+02  0.00000000000E+00 0. -1.
         21   -1    0    0  501  503 -0.00000000000E+00 -0.00000000000E+00 -0.77371846292E+03  0.77371846292E+03  0.00000000000E+00 0.  1.
          6    1    1    2  501    0  0.13717932869E+03  0.30232013552E+02 -0.50744917385E+03  0.55422541164E+03  0.17300000000E+03 0. -1.
         -6    1    1    2    0  502 -0.13717932869E+03 -0.30232013552E+02 -0.19176446274E+03  0.29399787760E+03  0.17300000000E+03 0.  1.
<mgrwt>
<rscale>  2 0.22284780E+03</rscale>
<asrwt>0</asrwt>
<pdfrwt beam="1">  1       21 0.11462281E-01 0.22284780E+03</pdfrwt>
<pdfrwt beam="2">  1       21 0.11903361E+00 0.22284780E+03</pdfrwt>
<totfact> 0.33744127E+04</totfact>
</mgrwt>
</event>
<event>
 4    3  0.4022695E+000  0.1825188E+03  0.7546771E-02  0.1165387E+00
         21   -1    0    0  503  502  0.00000000000E+00  0.00000000000E+00  0.32274921892E+02  0.32274921892E+02  0.00000000000E+00 0.  1.
         21   -1    0    0  501  503 -0.00000000000E+00 -0.00000000000E+00 -0.11044522495E+04  0.11044522495E+04  0.00000000000E+00 0.  1.
          6    1    1    2  501    0  0.49407540999E+02  0.30708562964E+02 -0.68149272346E+03  0.70551077459E+03  0.17300000000E+03 0.  1.
         -6    1    1    2    0  502 -0.49407540999E+02 -0.30708562964E+02 -0.39068460417E+03  0.43121639682E+03  0.17300000000E+03 0.  1.
<mgrwt>
<rscale>  2 0.18251882E+03</rscale>
<asrwt>0</asrwt>
<pdfrwt beam="1">  1       21 0.49653724E-02 0.18251882E+03</pdfrwt>
<pdfrwt beam="2">  1       21 0.16991574E+00 0.18251882E+03</pdfrwt>
<totfact> 0.58496821E+04</totfact>
</mgrwt>
</event>
<event>
 4    3  0.4022695E+000  0.1854513E+03  0.7546771E-02  0.1162629E+00
         21   -1    0    0  503  502  0.00000000000E+00  0.00000000000E+00  0.16307558485E+03  0.16307558485E+03  0.00000000000E+00 0. -1.
         21   -1    0    0  501  503 -0.00000000000E+00 -0.00000000000E+00 -0.22880774758E+03  0.22880774758E+03  0.00000000000E+00 0. -1.
          6    1    1    2  501    0 -0.81723648319E+01 -0.66305454852E+02 -0.87686787758E+02  0.20513696312E+03  0.17300000000E+03 0. -1.
         -6    1    1    2    0  502  0.81723648319E+01  0.66305454852E+02  0.21954625036E+02  0.18674636931E+03  0.17300000000E+03 0. -1.
<mgrwt>
<rscale>  2 0.18545134E+03</rscale>
<asrwt>0</asrwt>
<pdfrwt beam="1">  1       21 0.25088551E-01 0.18545134E+03</pdfrwt>
<pdfrwt beam="2">  1       21 0.35201192E-01 0.18545134E+03</pdfrwt>
<totfact> 0.11735151E+05</totfact>
</mgrwt>
</event>
<event>
 4    3  0.4022695E+000  0.2090960E+03  0.7546771E-02  0.1142284E+00
         21   -1    0    0  501  502  0.00000000000E+00  0.00000000000E+00  0.13234301479E+03  0.13234301479E+03  0.00000000000E+00 0.  1.
         21   -1    0    0  502  503 -0.00000000000E+00 -0.00000000000E+00 -0.35492914135E+03  0.35492914135E+03  0.00000000000E+00 0.  1.
          6    1    1    2  501    0  0.59432358394E+02  0.10129142255E+03 -0.47195068099E+02  0.21435608683E+03  0.17300000000E+03 0.  1.
         -6    1    1    2    0  503 -0.59432358394E+02 -0.10129142255E+03 -0.17539105846E+03  0.27291606932E+03  0.17300000000E+03 0.  1.
<mgrwt>
<rscale>  2 0.20909605E+03</rscale>
<asrwt>0</asrwt>
<pdfrwt beam="1">  1       21 0.20360464E-01 0.20909605E+03</pdfrwt>
<pdfrwt beam="2">  1       21 0.54604483E-01 0.20909605E+03</pdfrwt>
<totfact> 0.70190265E+04</totfact>
</mgrwt>
</event>
<event>
 4    3  0.4022695E+000  0.2717862E+03  0.7546771E-02  0.1100262E+00
         21   -1    0    0  501  502  0.00000000000E+00  0.00000000000E+00  0.17938532887E+03  0.17938532887E+03  0.00000000000E+00 0. -1.
         21   -1    0    0  502  503 -0.00000000000E+00 -0.00000000000E+00 -0.11357792059E+04  0.11357792059E+04  0.00000000000E+00 0.  1.
          6    1    1    2  501    0  0.11212724228E+02  0.20931563610E+03  0.46817679721E+02  0.27578915105E+03  0.17300000000E+03 0.  1.
         -6    1    1    2    0  503 -0.11212724228E+02 -0.20931563610E+03 -0.10032115568E+04  0.10393753837E+04  0.17300000000E+03 0.  1.
<mgrwt>
<rscale>  2 0.27178624E+03</rscale>
<asrwt>0</asrwt>
<pdfrwt beam="1">  1       21 0.27597743E-01 0.27178624E+03</pdfrwt>
<pdfrwt beam="2">  1       21 0.17473526E+00 0.27178624E+03</pdfrwt>
<totfact> 0.23198702E+03</totfact>
</mgrwt>
</event>
<event>
 4    3  0.4022695E+000  0.2659891E+03  0.7546771E-02  0.1103597E+00
         21   -1    0    0  503  502  0.00000000000E+00  0.00000000000E+00  0.19529378765E+03  0.19529378765E+03  0.00000000000E+00 0.  1.
         21   -1    0    0  501  503 -0.00000000000E+00 -0.00000000000E+00 -0.49441894408E+03  0.49441894408E+03  0.00000000000E+00 0. -1.
          6    1    1    2  501    0 -0.20036211252E+03  0.26004116127E+02 -0.32784692206E+03  0.42217744432E+03  0.17300000000E+03 0. -1.
         -6    1    1    2    0  502  0.20036211252E+03 -0.26004116127E+02  0.28721765623E+02  0.26753528741E+03  0.17300000000E+03 0.  1.
<mgrwt>
<rscale>  2 0.26598908E+03</rscale>
<asrwt>0</asrwt>
<pdfrwt beam="1">  1       21 0.30045199E-01 0.26598908E+03</pdfrwt>
<pdfrwt beam="2">  1       21 0.76064452E-01 0.26598908E+03</pdfrwt>
<totfact> 0.15712752E+04</totfact>
</mgrwt>
</event>
<event>
 4    3  0.4022695E+000  0.3763460E+03  0.7546771E-02  0.1052293E+00
         21   -1    0    0  503  502  0.00000000000E+00  0.00000000000E+00  0.27508928739E+03  0.27508928739E+03  0.00000000000E+00 0. -1.
         21   -1    0    0  501  503 -0.00000000000E+00 -0.00000000000E+00 -0.20085977876E+04  0.20085977876E+04  0.00000000000E+00 0.  1.
          6    1    1    2  501    0  0.28893010234E+03  0.16800794695E+03 -0.18514346241E+04  0.18892978700E+04  0.17300000000E+03 0.  1.
         -6    1    1    2    0  502 -0.28893010234E+03 -0.16800794695E+03  0.11792612393E+03  0.39438920495E+03  0.17300000000E+03 0. -1.
<mgrwt>
<rscale>  2 0.37634595E+03</rscale>
<asrwt>0</asrwt>
<pdfrwt beam="1">  1       21 0.42321427E-01 0.37634595E+03</pdfrwt>
<pdfrwt beam="2">  1       21 0.30901505E+00 0.37634595E+03</pdfrwt>
<totfact> 0.13271139E+02</totfact>
</mgrwt>
</event>
<event>
 4    3  0.4022695E+000  0.2157036E+03  0.7546771E-02  0.1137127E+00
         21   -1    0    0  503  502  0.00000000000E+00  0.00000000000E+00  0.33898264402E+03  0.33898264402E+03  0.00000000000E+00 0.  1.
         21   -1    0    0  501  503 -0.00000000000E+00 -0.00000000000E+00 -0.30191815829E+03  0.30191815829E+03  0.00000000000E+00 0.  1.
          6    1    1    2  501    0  0.12265850234E+03  0.39419973610E+02 -0.21811999296E+03  0.30676436208E+03  0.17300000000E+03 0.  1.
         -6    1    1    2    0  502 -0.12265850234E+03 -0.39419973610E+02  0.25518447869E+03  0.33413644022E+03  0.17300000000E+03 0.  1.
<mgrwt>
<rscale>  2 0.21570360E+03</rscale>
<asrwt>0</asrwt>
<pdfrwt beam="1">  1       21 0.52151176E-01 0.21570360E+03</pdfrwt>
<pdfrwt beam="2">  1       21 0.46448947E-01 0.21570360E+03</pdfrwt>
<totfact> 0.15269434E+04</totfact>
</mgrwt>
</event>
<event>
 4    3  0.4022695E+000  0.2394728E+03  0.7546771E-02  0.1120145E+00
         21   -1    0    0  501  502  0.00000000000E+00  0.00000000000E+00  0.10205325176E+03  0.10205325176E+03  0.00000000000E+00 0.  1.
         21   -1    0    0  502  503 -0.00000000000E+00 -0.00000000000E+00 -0.10135715885E+04  0.10135715885E+04  0.00000000000E+00 0.  1.
          6    1    1    2  501    0  0.16414355143E+03 -0.21796824180E+02 -0.83405244472E+02  0.25358162754E+03  0.17300000000E+03 0.  1.
         -6    1    1    2    0  503 -0.16414355143E+03  0.21796824180E+02 -0.82811309230E+03  0.86204321275E+03  0.17300000000E+03 0.  1.
<mgrwt>
<rscale>  2 0.23947277E+03</rscale>
<asrwt>0</asrwt>
<pdfrwt beam="1">  1       21 0.15700499E-01 0.23947277E+03</pdfrwt>
<pdfrwt beam="2">  1       21 0.15593410E+00 0.23947277E+03</pdfrwt>
<totfact> 0.94147909E+03</totfact>
</mgrwt>
</event>
<event>
 4    3  0.4022695E+000  0.1826652E+03  0.7546771E-02  0.1165248E+00
         21   -1    0    0  503  502  0.00000000000E+00  0.00000000000E+00  0.93049193108E+02  0.93049193108E+02  0.00000000000E+00 0. -1.
         21   -1    0    0  501  503 -0.00000000000E+00 -0.00000000000E+00 -0.45788588201E+03  0.45788588201E+03  0.00000000000E+00 0. -1.
          6    1    1    2  501    0 -0.17086996441E+02 -0.56085877127E+02 -0.31069733028E+03  0.36041562411E+03  0.17300000000E+03 0. -1.
         -6    1    1    2    0  502  0.17086996441E+02  0.56085877127E+02 -0.54139358623E+02  0.19051945101E+03  0.17300000000E+03 0. -1.
<mgrwt>
<rscale>  2 0.18266524E+03</rscale>
<asrwt>0</asrwt>
<pdfrwt beam="1">  1       21 0.14315260E-01 0.18266524E+03</pdfrwt>
<pdfrwt beam="2">  1       21 0.70443982E-01 0.18266524E+03</pdfrwt>
<totfact> 0.78359397E+04</totfact>
</mgrwt>
</event>
<event>
 4    3  0.4022695E+000  0.2303334E+03  0.7546771E-02  0.1126405E+00
         21   -1    0    0  501  502  0.00000000000E+00  0.00000000000E+00  0.53447529076E+02  0.53447529076E+02  0.00000000000E+00 0.  1.
         21   -1    0    0  502  503 -0.00000000000E+00 -0.00000000000E+00 -0.10765309391E+04  0.10765309391E+04  0.00000000000E+00 0.  1.
          6    1    1    2  501    0  0.81207401083E+02  0.12856840508E+03 -0.35381061704E+03  0.42217938072E+03  0.17300000000E+03 0.  1.
         -6    1    1    2    0  503 -0.81207401083E+02 -0.12856840508E+03 -0.66927279300E+03  0.70779908747E+03  0.17300000000E+03 0.  1.
<mgrwt>
<rscale>  2 0.23033340E+03</rscale>
<asrwt>0</asrwt>
<pdfrwt beam="1">  1       21 0.82226977E-02 0.23033340E+03</pdfrwt>
<pdfrwt beam="2">  1       21 0.16562013E+00 0.23033340E+03</pdfrwt>
<totfact> 0.25599134E+04</totfact>
</mgrwt>
</event>
<event>
 4    3  0.4022695E+000  0.1954638E+03  0.7546771E-02  0.1153624E+00
         21   -1    0    0  503  502  0.00000000000E+00  0.00000000000E+00  0.10208326436E+03  0.10208326436E+03  0.00000000000E+00 0.  1.
         21   -1    0    0  501  503 -0.00000000000E+00 -0.00000000000E+00 -0.37714710222E+03  0.37714710222E+03  0.00000000000E+00 0.  1.
          6    1    1    2  501    0 -0.86387518859E+02 -0.28536170627E+02 -0.15848124622E+03  0.25163946799E+03  0.17300000000E+03 0.  1.
         -6    1    1    2    0  502  0.86387518859E+02  0.28536170627E+02 -0.11658259164E+03  0.22759089859E+03  0.17300000000E+03 0.  1.
<mgrwt>
<rscale>  2 0.19546385E+03</rscale>
<asrwt>0</asrwt>
<pdfrwt beam="1">  1       21 0.15705117E-01 0.19546385E+03</pdfrwt>
<pdfrwt beam="2">  1       21 0.58022633E-01 0.19546385E+03</pdfrwt>
<totfact> 0.10032101E+05</totfact>
</mgrwt>
</event>
<event>
 4    3  0.4022695E+000  0.1736886E+03  0.7546771E-02  0.1174055E+00
         21   -1    0    0  501  502  0.00000000000E+00  0.00000000000E+00  0.21300365259E+03  0.21300365259E+03  0.00000000000E+00 0. -1.
         21   -1    0    0  502  503 -0.00000000000E+00 -0.00000000000E+00 -0.14168489991E+03  0.14168489991E+03  0.00000000000E+00 0. -1.
          6    1    1    2  501    0 -0.99318773736E+01 -0.11835253622E+02  0.32169654903E+02  0.17664258295E+03  0.17300000000E+03 0.  1.
         -6    1    1    2    0  503  0.99318773736E+01  0.11835253622E+02  0.39149097773E+02  0.17804596955E+03  0.17300000000E+03 0.  1.
<mgrwt>
<rscale>  2 0.17368856E+03</rscale>
<asrwt>0</asrwt>
<pdfrwt beam="1">  1       21 0.32769793E-01 0.17368856E+03</pdfrwt>
<pdfrwt beam="2">  1       21 0.21797677E-01 0.17368856E+03</pdfrwt>
<totfact> 0.17707120E+05</totfact>
</mgrwt>
</event>
<event>
 4    3  0.4022695E+000  0.2128936E+03  0.7546771E-02  0.1139295E+00
         21   -1    0    0  503  502  0.00000000000E+00  0.00000000000E+00  0.15570464243E+03  0.15570464243E+03  0.00000000000E+00 0. -1.
         21   -1    0    0  501  503 -0.00000000000E+00 -0.00000000000E+00 -0.30231646878E+03  0.30231646878E+03  0.00000000000E+00 0. -1.
          6    1    1    2  501    0 -0.39994216858E+02  0.11745268546E+03 -0.11744212762E+03  0.24313848737E+03  0.17300000000E+03 0. -1.
         -6    1    1    2    0  502  0.39994216858E+02 -0.11745268546E+03 -0.29169698727E+02  0.21488262384E+03  0.17300000000E+03 0. -1.
<mgrwt>
<rscale>  2 0.21289357E+03</rscale>
<asrwt>0</asrwt>
<pdfrwt beam="1">  1       21 0.23954560E-01 0.21289357E+03</pdfrwt>
<pdfrwt beam="2">  1       21 0.46510226E-01 0.21289357E+03</pdfrwt>
<totfact> 0.72104019E+04</totfact>
</mgrwt>
</event>
<event>
 4    3  0.4022695E+000  0.1779885E+03  0.7546771E-02  0.1169764E+00
         21   -1    0    0  501  502  0.00000000000E+00  0.00000000000E+00  0.67638354607E+02  0.67638354607E+02  0.00000000000E+00 0.  1.
         21   -1    0    0  502  503 -0.00000000000E+00 -0.00000000000E+00 -0.61526130863E+03  0.61526130863E+03  0.00000000000E+00 0. -1.
          6    1    1    2  501    0 -0.33856386467E+02 -0.24589914458E+02 -0.44064834667E+03  0.47523771339E+03  0.17300000000E+03 0. -1.
         -6    1    1    2    0  503  0.33856386467E+02  0.24589914458E+02 -0.10697460734E+03  0.20766194985E+03  0.17300000000E+03 0.  1.
<mgrwt>
<rscale>  2 0.17798854E+03</rscale>
<asrwt>0</asrwt>
<pdfrwt beam="1">  1       21 0.10405901E-01 0.17798854E+03</pdfrwt>
<pdfrwt beam="2">  1       21 0.94655587E-01 0.17798854E+03</pdfrwt>
<totfact> 0.71126849E+04</totfact>
</mgrwt>
</event>
<event>
 4    3  0.4022695E+000  0.2107503E+03  0.7546771E-02  0.1140973E+00
         21   -1    0    0  503  502  0.00000000000E+00  0.00000000000E+00  0.10429263759E+03  0.10429263759E+03  0.00000000000E+00 0. -1.
         21   -1    0    0  501  503 -0.00000000000E+00 -0.00000000000E+00 -0.18286788153E+04  0.18286788153E+04  0.00000000000E+00 0. -1.
          6    1    1    2  501    0 -0.12030900850E+03 -0.35282099605E+01 -0.17086894196E+04  0.17216373714E+04  0.17300000000E+03 0. -1.
         -6    1    1    2    0  502  0.12030900850E+03  0.35282099605E+01 -0.15696758075E+02  0.21133408151E+03  0.17300000000E+03 0. -1.
<mgrwt>
<rscale>  2 0.21075034E+03</rscale>
<asrwt>0</asrwt>
<pdfrwt beam="1">  1       21 0.16045023E-01 0.21075034E+03</pdfrwt>
<pdfrwt beam="2">  1       21 0.28133517E+00 0.21075034E+03</pdfrwt>
<totfact> 0.14836727E+03</totfact>
</mgrwt>
</event>
<event>
 4    3  0.4022695E+000  0.1901232E+03  0.7546771E-02  0.1158350E+00
         21   -1    0    0  501  502  0.00000000000E+00  0.00000000000E+00  0.85626106308E+02  0.85626106308E+02  0.00000000000E+00 0. -1.
         21   -1    0    0  502  503 -0.00000000000E+00 -0.00000000000E+00 -0.52160080706E+03  0.52160080706E+03  0.00000000000E+00 0.  1.
          6    1    1    2  501    0  0.38833263884E+02  0.68627935846E+02 -0.85412151394E+02  0.20842756912E+03  0.17300000000E+03 0.  1.
         -6    1    1    2    0  503 -0.38833263884E+02 -0.68627935846E+02 -0.35056254935E+03  0.39879934425E+03  0.17300000000E+03 0.  1.
<mgrwt>
<rscale>  2 0.19012316E+03</rscale>
<asrwt>0</asrwt>
<pdfrwt beam="1">  1       21 0.13173247E-01 0.19012316E+03</pdfrwt>
<pdfrwt beam="2">  1       21 0.80246280E-01 0.19012316E+03</pdfrwt>
<totfact> 0.67867748E+04</totfact>
</mgrwt>
</event>
<event>
 4    3  0.4022695E+000  0.4547103E+03  0.7546771E-02  0.1026327E+00
         21   -1    0    0  501  502  0.00000000000E+00  0.00000000000E+00  0.67510455657E+03  0.67510455657E+03  0.00000000000E+00 0. -1.
         21   -1    0    0  502  503 -0.00000000000E+00 -0.00000000000E+00 -0.56076445052E+03  0.56076445052E+03  0.00000000000E+00 0.  1.
          6    1    1    2  501    0 -0.40979885540E+03 -0.94325897017E+02  0.47345901965E+03  0.65644871850E+03  0.17300000000E+03 0. -1.
         -6    1    1    2    0  503  0.40979885540E+03  0.94325897017E+02 -0.35911891360E+03  0.57942028859E+03  0.17300000000E+03 0.  1.
<mgrwt>
<rscale>  2 0.45471032E+03</rscale>
<asrwt>0</asrwt>
<pdfrwt beam="1">  1       21 0.10386224E+00 0.45471032E+03</pdfrwt>
<pdfrwt beam="2">  1       21 0.86271454E-01 0.45471032E+03</pdfrwt>
<totfact> 0.73178837E+02</totfact>
</mgrwt>
</event>
<event>
 4    3  0.4022695E+000  0.2450448E+03  0.7546771E-02  0.1116477E+00
         21   -1    0    0  501  502  0.00000000000E+00  0.00000000000E+00  0.10924084438E+03  0.10924084438E+03  0.00000000000E+00 0.  1.
         21   -1    0    0  502  503 -0.00000000000E+00 -0.00000000000E+00 -0.83163703012E+03  0.83163703012E+03  0.00000000000E+00 0. -1.
          6    1    1    2  501    0 -0.12004552212E+03  0.12532764123E+03 -0.87273024532E+02  0.26012213641E+03  0.17300000000E+03 0.  1.
         -6    1    1    2    0  503  0.12004552212E+03 -0.12532764123E+03 -0.63512316121E+03  0.68075573809E+03  0.17300000000E+03 0. -1.
<mgrwt>
<rscale>  2 0.24504478E+03</rscale>
<asrwt>0</asrwt>
<pdfrwt beam="1">  1       21 0.16806283E-01 0.24504478E+03</pdfrwt>
<pdfrwt beam="2">  1       21 0.12794416E+00 0.24504478E+03</pdfrwt>
<totfact> 0.13869503E+04</totfact>
</mgrwt>
</event>
<event>
 4    3  0.4022695E+000  0.2199727E+03  0.7546771E-02  0.1133903E+00
         21   -1    0    0  501  502  0.00000000000E+00  0.00000000000E+00  0.36048131349E+03  0.36048131349E+03  0.00000000000E+00 0. -1.
         21   -1    0    0  502  503 -0.00000000000E+00 -0.00000000000E+00 -0.18033691920E+03  0.18033691920E+03  0.00000000000E+00 0. -1.
          6    1    1    2  501    0 -0.80675714479E+02 -0.10931793540E+03  0.22679927843E+03  0.31595236129E+03  0.17300000000E+03 0. -1.
         -6    1    1    2    0  503  0.80675714479E+02  0.10931793540E+03 -0.46654884139E+02  0.22486587140E+03  0.17300000000E+03 0. -1.
<mgrwt>
<rscale>  2 0.21997268E+03</rscale>
<asrwt>0</asrwt>
<pdfrwt beam="1">  1       21 0.55458663E-01 0.21997268E+03</pdfrwt>
<pdfrwt beam="2">  1       21 0.27744141E-01 0.21997268E+03</pdfrwt>
<totfact> 0.37483767E+04</totfact>
</mgrwt>
</event>
<event>
 4    3  0.4022695E+000  0.2157900E+03  0.7546771E-02  0.1137061E+00
         21   -1    0    0  503  502  0.00000000000E+00  0.00000000000E+00  0.60786183417E+03  0.60786183417E+03  0.00000000000E+00 0. -1.
         21   -1    0    0  501  503 -0.00000000000E+00 -0.00000000000E+00 -0.83766119291E+02  0.83766119291E+02  0.00000000000E+00 0.  1.
          6    1    1    2  501    0  0.43328760056E+02 -0.12148646836E+03  0.16093778384E+03  0.26919567922E+03  0.17300000000E+03 0.  1.
         -6    1    1    2    0  502 -0.43328760056E+02  0.12148646836E+03  0.36315793104E+03  0.42243227424E+03  0.17300000000E+03 0. -1.
<mgrwt>
<rscale>  2 0.21579004E+03</rscale>
<asrwt>0</asrwt>
<pdfrwt beam="1">  1       21 0.93517202E-01 0.21579004E+03</pdfrwt>
<pdfrwt beam="2">  1       21 0.12887096E-01 0.21579004E+03</pdfrwt>
<totfact> 0.49052795E+04</totfact>
</mgrwt>
</event>
<event>
 4    3  0.4022695E+000  0.2214261E+03  0.7546771E-02  0.1132824E+00
         21   -1    0    0  501  502  0.00000000000E+00  0.00000000000E+00  0.54199348012E+03  0.54199348012E+03  0.00000000000E+00 0. -1.
         21   -1    0    0  502  503 -0.00000000000E+00 -0.00000000000E+00 -0.18391891801E+03  0.18391891801E+03  0.00000000000E+00 0.  1.
          6    1    1    2  501    0  0.13353379710E+03  0.35626649502E+02  0.43776797243E+03  0.49058162502E+03  0.17300000000E+03 0. -1.
         -6    1    1    2    0  503 -0.13353379710E+03 -0.35626649502E+02 -0.79693410321E+02  0.23533077311E+03  0.17300000000E+03 0.  1.
<mgrwt>
<rscale>  2 0.22142613E+03</rscale>
<asrwt>0</asrwt>
<pdfrwt beam="1">  1       21 0.83383611E-01 0.22142613E+03</pdfrwt>
<pdfrwt beam="2">  1       21 0.28295218E-01 0.22142613E+03</pdfrwt>
<totfact> 0.14679895E+04</totfact>
</mgrwt>
</event>
<event>
 4    3  0.4022695E+000  0.2348899E+03  0.7546771E-02  0.1123245E+00
         21   -1    0    0  501  502  0.00000000000E+00  0.00000000000E+00  0.77950029676E+02  0.77950029676E+02  0.00000000000E+00 0.  1.
         21   -1    0    0  502  503 -0.00000000000E+00 -0.00000000000E+00 -0.91212639015E+03  0.91212639015E+03  0.00000000000E+00 0.  1.
          6    1    1    2  501    0 -0.48978611792E+02  0.15114678484E+03 -0.18278920530E+03  0.29763257307E+03  0.17300000000E+03 0.  1.
         -6    1    1    2    0  503  0.48978611792E+02 -0.15114678484E+03 -0.65138715518E+03  0.69244384676E+03  0.17300000000E+03 0.  1.
<mgrwt>
<rscale>  2 0.23488988E+03</rscale>
<asrwt>0</asrwt>
<pdfrwt beam="1">  1       21 0.11992312E-01 0.23488988E+03</pdfrwt>
<pdfrwt beam="2">  1       21 0.14032714E+00 0.23488988E+03</pdfrwt>
<totfact> 0.20356252E+04</totfact>
</mgrwt>
</event>
<event>
 4    3  0.4022695E+000  0.1884265E+03  0.7546771E-02  0.1159888E+00
         21   -1    0    0  501  502  0.00000000000E+00  0.00000000000E+00  0.10898490108E+03  0.10898490108E+03  0.00000000000E+00 0. -1.
         21   -1    0    0  502  503 -0.00000000000E+00 -0.00000000000E+00 -0.36173417144E+03  0.36173417144E+03  0.00000000000E+00 0. -1.
          6    1    1    2  501    0 -0.55601425068E+02  0.49840052053E+02 -0.52168083384E+02  0.19551485412E+03  0.17300000000E+03 0. -1.
         -6    1    1    2    0  503  0.55601425068E+02 -0.49840052053E+02 -0.20058118698E+03  0.27520421840E+03  0.17300000000E+03 0. -1.
<mgrwt>
<rscale>  2 0.18842651E+03</rscale>
<asrwt>0</asrwt>
<pdfrwt beam="1">  1       21 0.16766908E-01 0.18842651E+03</pdfrwt>
<pdfrwt beam="2">  1       21 0.55651411E-01 0.18842651E+03</pdfrwt>
<totfact> 0.97511945E+04</totfact>
</mgrwt>
</event>
<event>
 4    3  0.4022695E+000  0.1763141E+03  0.7546771E-02  0.1171419E+00
         21   -1    0    0  501  502  0.00000000000E+00  0.00000000000E+00  0.10798670089E+03  0.10798670089E+03  0.00000000000E+00 0. -1.
         21   -1    0    0  502  503 -0.00000000000E+00 -0.00000000000E+00 -0.42000069557E+03  0.42000069557E+03  0.00000000000E+00 0. -1.
          6    1    1    2  501    0 -0.13267424507E+02 -0.31331312761E+02 -0.79386821714E+01  0.17649277149E+03  0.17300000000E+03 0. -1.
         -6    1    1    2    0  503  0.13267424507E+02  0.31331312761E+02 -0.30407531251E+03  0.35149462498E+03  0.17300000000E+03 0. -1.
<mgrwt>
<rscale>  2 0.17631414E+03</rscale>
<asrwt>0</asrwt>
<pdfrwt beam="1">  1       21 0.16613338E-01 0.17631414E+03</pdfrwt>
<pdfrwt beam="2">  1       21 0.64615492E-01 0.17631414E+03</pdfrwt>
<totfact> 0.72359131E+04</totfact>
</mgrwt>
</event>
<event>
 4    3  0.4022695E+000  0.1828975E+03  0.7546771E-02  0.1165028E+00
         21   -1    0    0  503  502  0.00000000000E+00  0.00000000000E+00  0.24556810767E+03  0.24556810767E+03  0.00000000000E+00 0. -1.
         21   -1    0    0  501  503 -0.00000000000E+00 -0.00000000000E+00 -0.16942201785E+03  0.16942201785E+03  0.00000000000E+00 0. -1.
          6    1    1    2  501    0 -0.45034406131E+02 -0.38657487027E+02 -0.53781246472E+02  0.19064081806E+03  0.17300000000E+03 0. -1.
         -6    1    1    2    0  502  0.45034406131E+02  0.38657487027E+02  0.12992733630E+03  0.22434930746E+03  0.17300000000E+03 0. -1.
<mgrwt>
<rscale>  2 0.18289751E+03</rscale>
<asrwt>0</asrwt>
<pdfrwt beam="1">  1       21 0.37779709E-01 0.18289751E+03</pdfrwt>
<pdfrwt beam="2">  1       21 0.26064926E-01 0.18289751E+03</pdfrwt>
<totfact> 0.94846382E+04</totfact>
</mgrwt>
</event>
<event>
 4    3  0.4022695E+000  0.2237446E+03  0.7546771E-02  0.1131122E+00
         21   -1    0    0  503  502  0.00000000000E+00  0.00000000000E+00  0.37706281682E+03  0.37706281682E+03  0.00000000000E+00 0. -1.
         21   -1    0    0  501  503 -0.00000000000E+00 -0.00000000000E+00 -0.22112945656E+03  0.22112945656E+03  0.00000000000E+00 0. -1.
          6    1    1    2  501    0  0.10777990456E+03 -0.92282948483E+02 -0.11110235502E+03  0.24981069573E+03  0.17300000000E+03 0. -1.
         -6    1    1    2    0  502 -0.10777990456E+03  0.92282948483E+02  0.26703571528E+03  0.34838157765E+03  0.17300000000E+03 0. -1.
<mgrwt>
<rscale>  2 0.22374461E+03</rscale>
<asrwt>0</asrwt>
<pdfrwt beam="1">  1       21 0.58009664E-01 0.22374461E+03</pdfrwt>
<pdfrwt beam="2">  1       21 0.34019917E-01 0.22374461E+03</pdfrwt>
<totfact> 0.22784816E+04</totfact>
</mgrwt>
</event>
<event>
 4    3  0.4022695E+000  0.1779640E+03  0.7546771E-02  0.1169788E+00
         21   -1    0    0  503  502  0.00000000000E+00  0.00000000000E+00  0.17434564412E+03  0.17434564412E+03  0.00000000000E+00 0.  1.
         21   -1    0    0  501  503 -0.00000000000E+00 -0.00000000000E+00 -0.24360190381E+03  0.24360190381E+03  0.00000000000E+00 0.  1.
          6    1    1    2  501    0 -0.41676542228E+02 -0.22882175294E+01 -0.14000686047E+03  0.22643562240E+03  0.17300000000E+03 0.  1.
         -6    1    1    2    0  502  0.41676542228E+02  0.22882175294E+01  0.70750600777E+02  0.19151192553E+03  0.17300000000E+03 0.  1.
<mgrwt>
<rscale>  2 0.17796396E+03</rscale>
<asrwt>0</asrwt>
<pdfrwt beam="1">  1       21 0.26822407E-01 0.17796396E+03</pdfrwt>
<pdfrwt beam="2">  1       21 0.37477216E-01 0.17796396E+03</pdfrwt>
<totfact> 0.91408969E+04</totfact>
</mgrwt>
</event>
<event>
 4    3  0.4022695E+000  0.1894079E+03  0.7546771E-02  0.1158996E+00
         21   -1    0    0  501  502  0.00000000000E+00  0.00000000000E+00  0.11880569556E+03  0.11880569556E+03  0.00000000000E+00 0. -1.
         21   -1    0    0  502  503 -0.00000000000E+00 -0.00000000000E+00 -0.33572292005E+03  0.33572292005E+03  0.00000000000E+00 0. -1.
          6    1    1    2  501    0  0.47003069049E+02 -0.61131565385E+02 -0.36394668670E+02  0.19287283037E+03  0.17300000000E+03 0. -1.
         -6    1    1    2    0  503 -0.47003069049E+02  0.61131565385E+02 -0.18052255582E+03  0.26165578524E+03  0.17300000000E+03 0. -1.
<mgrwt>
<rscale>  2 0.18940791E+03</rscale>
<asrwt>0</asrwt>
<pdfrwt beam="1">  1       21 0.18277800E-01 0.18940791E+03</pdfrwt>
<pdfrwt beam="2">  1       21 0.51649679E-01 0.18940791E+03</pdfrwt>
<totfact> 0.97292229E+04</totfact>
</mgrwt>
</event>
<event>
 4    3  0.4022695E+000  0.2275912E+03  0.7546771E-02  0.1128347E+00
         21   -1    0    0  503  502  0.00000000000E+00  0.00000000000E+00  0.47217266977E+02  0.47217266977E+02  0.00000000000E+00 0.  1.
         21   -1    0    0  501  503 -0.00000000000E+00 -0.00000000000E+00 -0.10977916497E+04  0.10977916497E+04  0.00000000000E+00 0. -1.
          6    1    1    2  501    0  0.14784145412E+03 -0.34121514185E+01 -0.50999498975E+03  0.55847348003E+03  0.17300000000E+03 0.  1.
         -6    1    1    2    0  502 -0.14784145412E+03  0.34121514185E+01 -0.54057939303E+03  0.58653543669E+03  0.17300000000E+03 0.  1.
<mgrwt>
<rscale>  2 0.22759116E+03</rscale>
<asrwt>0</asrwt>
<pdfrwt beam="1">  1       21 0.72641950E-02 0.22759116E+03</pdfrwt>
<pdfrwt beam="2">  1       21 0.16889102E+00 0.22759116E+03</pdfrwt>
<totfact> 0.30157056E+04</totfact>
</mgrwt>
</event>
<event>
 4    3  0.4022695E+000  0.2042962E+03  0.7546771E-02  0.1146164E+00
         21   -1    0    0  501  502  0.00000000000E+00  0.00000000000E+00  0.49436602433E+02  0.49436602433E+02  0.00000000000E+00 0.  1.
         21   -1    0    0  502  503 -0.00000000000E+00 -0.00000000000E+00 -0.11812102061E+04  0.11812102061E+04  0.00000000000E+00 0.  1.
          6    1    1    2  501    0 -0.24666900798E+02 -0.10582766969E+03 -0.23724118692E+03  0.31308198997E+03  0.17300000000E+03 0.  1.
         -6    1    1    2    0  503  0.24666900798E+02  0.10582766969E+03 -0.89453241670E+03  0.91756481853E+03  0.17300000000E+03 0.  1.
<mgrwt>
<rscale>  2 0.20429624E+03</rscale>
<asrwt>0</asrwt>
<pdfrwt beam="1">  1       21 0.76056309E-02 0.20429624E+03</pdfrwt>
<pdfrwt beam="2">  1       21 0.18172465E+00 0.20429624E+03</pdfrwt>
<totfact> 0.23017318E+04</totfact>
</mgrwt>
</event>
<event>
 4    3  0.4022695E+000  0.1778705E+03  0.7546771E-02  0.1169880E+00
         21   -1    0    0  503  502  0.00000000000E+00  0.00000000000E+00  0.57051000382E+02  0.57051000382E+02  0.00000000000E+00 0. -1.
         21   -1    0    0  501  503 -0.00000000000E+00 -0.00000000000E+00 -0.70090502546E+03  0.70090502546E+03  0.00000000000E+00 0. -1.
          6    1    1    2  501    0 -0.40483642423E+02  0.83659250337E+01 -0.49510030733E+03  0.52608195970E+03  0.17300000000E+03 0. -1.
         -6    1    1    2    0  502  0.40483642423E+02 -0.83659250337E+01 -0.14875371776E+03  0.23187406615E+03  0.17300000000E+03 0. -1.
<mgrwt>
<rscale>  2 0.17787050E+03</rscale>
<asrwt>0</asrwt>
<pdfrwt beam="1">  1       21 0.87770769E-02 0.17787050E+03</pdfrwt>
<pdfrwt beam="2">  1       21 0.10783154E+00 0.17787050E+03</pdfrwt>
<totfact> 0.70431752E+04</totfact>
</mgrwt>
</event>
<event>
 4    3  0.4022695E+000  0.1975957E+03  0.7546771E-02  0.1151784E+00
         21   -1    0    0  503  502  0.00000000000E+00  0.00000000000E+00  0.88221376841E+03  0.88221376841E+03  0.00000000000E+00 0. -1.
         21   -1    0    0  501  503 -0.00000000000E+00 -0.00000000000E+00 -0.87496671653E+02  0.87496671653E+02  0.00000000000E+00 0.  1.
          6    1    1    2  501    0 -0.66133391516E+02  0.68857992798E+02  0.56512712135E+02  0.20551821155E+03  0.17300000000E+03 0.  1.
         -6    1    1    2    0  502  0.66133391516E+02 -0.68857992798E+02  0.73820438462E+03  0.76419222851E+03  0.17300000000E+03 0. -1.
<mgrwt>
<rscale>  2 0.19759567E+03</rscale>
<asrwt>0</asrwt>
<pdfrwt beam="1">  1       21 0.13572519E+00 0.19759567E+03</pdfrwt>
<pdfrwt beam="2">  1       21 0.13461027E-01 0.19759567E+03</pdfrwt>
<totfact> 0.18437336E+04</totfact>
</mgrwt>
</event>
<event>
 4    3  0.4022695E+000  0.2008837E+03  0.7546771E-02  0.1148996E+00
         21   -1    0    0  501  502  0.00000000000E+00  0.00000000000E+00  0.13392044633E+04  0.13392044633E+04  0.00000000000E+00 0.  1.
         21   -1    0    0  502  503 -0.00000000000E+00 -0.00000000000E+00 -0.37201022238E+02  0.37201022238E+02  0.00000000000E+00 0.  1.
          6    1    1    2  501    0 -0.79534506003E+02  0.64027378346E+02  0.95097877519E+03  0.97196444054E+03  0.17300000000E+03 0.  1.
         -6    1    1    2    0  503  0.79534506003E+02 -0.64027378346E+02  0.35102466586E+03  0.40444104498E+03  0.17300000000E+03 0.  1.
<mgrwt>
<rscale>  2 0.20088365E+03</rscale>
<asrwt>0</asrwt>
<pdfrwt beam="1">  1       21 0.20603142E+00 0.20088365E+03</pdfrwt>
<pdfrwt beam="2">  1       21 0.57232352E-02 0.20088365E+03</pdfrwt>
<totfact> 0.26111918E+04</totfact>
</mgrwt>
</event>
<event>
 4    3  0.4022695E+000  0.1840679E+03  0.7546771E-02  0.1163923E+00
         21   -1    0    0  503  502  0.00000000000E+00  0.00000000000E+00  0.33402856579E+03  0.33402856579E+03  0.00000000000E+00 0. -1.
         21   -1    0    0  501  503 -0.00000000000E+00 -0.00000000000E+00 -0.10443512962E+03  0.10443512962E+03  0.00000000000E+00 0. -1.
          6    1    1    2  501    0 -0.58886041575E+02 -0.22009700258E+02  0.77616743820E+02  0.19976323916E+03  0.17300000000E+03 0. -1.
         -6    1    1    2    0  502  0.58886041575E+02  0.22009700258E+02  0.15197669235E+03  0.23870045625E+03  0.17300000000E+03 0. -1.
<mgrwt>
<rscale>  2 0.18406790E+03</rscale>
<asrwt>0</asrwt>
<pdfrwt beam="1">  1       21 0.51389010E-01 0.18406790E+03</pdfrwt>
<pdfrwt beam="2">  1       21 0.16066943E-01 0.18406790E+03</pdfrwt>
<totfact> 0.12488733E+05</totfact>
</mgrwt>
</event>
<event>
 4    3  0.4022695E+000  0.2319286E+03  0.7546771E-02  0.1125290E+00
         21   -1    0    0  501  502  0.00000000000E+00  0.00000000000E+00  0.87051319184E+03  0.87051319184E+03  0.00000000000E+00 0. -1.
         21   -1    0    0  502  503 -0.00000000000E+00 -0.00000000000E+00 -0.79897642046E+02  0.79897642046E+02  0.00000000000E+00 0. -1.
          6    1    1    2  501    0  0.98757669596E+02  0.11878039649E+03  0.62152197750E+03  0.66338558049E+03  0.17300000000E+03 0. -1.
         -6    1    1    2    0  503 -0.98757669596E+02 -0.11878039649E+03  0.16909357230E+03  0.28702525340E+03  0.17300000000E+03 0. -1.
<mgrwt>
<rscale>  2 0.23192857E+03</rscale>
<asrwt>0</asrwt>
<pdfrwt beam="1">  1       21 0.13392510E+00 0.23192857E+03</pdfrwt>
<pdfrwt beam="2">  1       21 0.12291945E-01 0.23192857E+03</pdfrwt>
<totfact> 0.22003026E+04</totfact>
</mgrwt>
</event>
<event>
 4    3  0.4022695E+000  0.1766790E+03  0.7546771E-02  0.1171056E+00
         21   -1    0    0  503  502  0.00000000000E+00  0.00000000000E+00  0.67634041668E+03  0.67634041668E+03  0.00000000000E+00 0. -1.
         21   -1    0    0  501  503 -0.00000000000E+00 -0.00000000000E+00 -0.46904621100E+02  0.46904621100E+02  0.00000000000E+00 0. -1.
          6    1    1    2  501    0  0.35247072597E+02  0.66419541074E+01  0.26895588842E+03  0.32179611805E+03  0.17300000000E+03 0. -1.
         -6    1    1    2    0  502 -0.35247072597E+02 -0.66419541074E+01  0.36047990717E+03  0.40144891973E+03  0.17300000000E+03 0. -1.
<mgrwt>
<rscale>  2 0.17667901E+03</rscale>
<asrwt>0</asrwt>
<pdfrwt beam="1">  1       21 0.10405236E+00 0.17667901E+03</pdfrwt>
<pdfrwt beam="2">  1       21 0.72160960E-02 0.17667901E+03</pdfrwt>
<totfact> 0.10786521E+05</totfact>
</mgrwt>
</event>
<event>
 4    3  0.4022695E+000  0.3195735E+03  0.7546771E-02  0.1075846E+00
         21   -1    0    0  503  502  0.00000000000E+00  0.00000000000E+00  0.43238618278E+03  0.43238618278E+03  0.00000000000E+00 0. -1.
         21   -1    0    0  501  503 -0.00000000000E+00 -0.00000000000E+00 -0.23802456569E+03  0.23802456569E+03  0.00000000000E+00 0. -1.
          6    1    1    2  501    0  0.23408400985E+03 -0.13192012880E+03  0.67788626467E+02  0.32668416235E+03  0.17300000000E+03 0. -1.
         -6    1    1    2    0  502 -0.23408400985E+03  0.13192012880E+03  0.12657299063E+03  0.34372658612E+03  0.17300000000E+03 0. -1.
<mgrwt>
<rscale>  2 0.31957353E+03</rscale>
<asrwt>0</asrwt>
<pdfrwt beam="1">  1       21 0.66520952E-01 0.31957353E+03</pdfrwt>
<pdfrwt beam="2">  1       21 0.36619164E-01 0.31957353E+03</pdfrwt>
<totfact> 0.13967119E+04</totfact>
</mgrwt>
</event>
<event>
 4    3  0.4022695E+000  0.2097395E+03  0.7546771E-02  0.1141772E+00
         21   -1    0    0  501  502  0.00000000000E+00  0.00000000000E+00  0.10173070397E+03  0.10173070397E+03  0.00000000000E+00 0.  1.
         21   -1    0    0  502  503 -0.00000000000E+00 -0.00000000000E+00 -0.53326690367E+03  0.53326690367E+03  0.00000000000E+00 0.  1.
          6    1    1    2  501    0  0.17882029954E+02  0.11722581940E+03 -0.77699355721E+02  0.22366906270E+03  0.17300000000E+03 0. -1.
         -6    1    1    2    0  503 -0.17882029954E+02 -0.11722581940E+03 -0.35383684398E+03  0.41132854494E+03  0.17300000000E+03 0. -1.
<mgrwt>
<rscale>  2 0.20973950E+03</rscale>
<asrwt>0</asrwt>
<pdfrwt beam="1">  1       21 0.15650877E-01 0.20973950E+03</pdfrwt>
<pdfrwt beam="2">  1       21 0.82041064E-01 0.20973950E+03</pdfrwt>
<totfact> 0.46755946E+04</totfact>
</mgrwt>
</event>
<event>
 4    3  0.4022695E+000  0.1873475E+03  0.7546771E-02  0.1160876E+00
         21   -1    0    0  503  502  0.00000000000E+00  0.00000000000E+00  0.55215714663E+02  0.55215714663E+02  0.00000000000E+00 0. -1.
         21   -1    0    0  501  503 -0.00000000000E+00 -0.00000000000E+00 -0.70457519591E+03  0.70457519591E+03  0.00000000000E+00 0. -1.
          6    1    1    2  501    0 -0.73999133215E+01  0.71521393914E+02 -0.44348098166E+03  0.48142958945E+03  0.17300000000E+03 0.  1.
         -6    1    1    2    0  502  0.73999133215E+01 -0.71521393914E+02 -0.20587849959E+03  0.27836132112E+03  0.17300000000E+03 0.  1.
<mgrwt>
<rscale>  2 0.18734745E+03</rscale>
<asrwt>0</asrwt>
<pdfrwt beam="1">  1       21 0.84947261E-02 0.18734745E+03</pdfrwt>
<pdfrwt beam="2">  1       21 0.10839617E+00 0.18734745E+03</pdfrwt>
<totfact> 0.73315601E+04</totfact>
</mgrwt>
</event>
<event>
 4    3  0.4022695E+000  0.2324264E+03  0.7546771E-02  0.1124944E+00
         21   -1    0    0  503  502  0.00000000000E+00  0.00000000000E+00  0.80283785133E+03  0.80283785133E+03  0.00000000000E+00 0. -1.
         21   -1    0    0  501  503 -0.00000000000E+00 -0.00000000000E+00 -0.70488145679E+02  0.70488145679E+02  0.00000000000E+00 0.  1.
          6    1    1    2  501    0 -0.11270509647E+03  0.10672662597E+03  0.27314601551E+03  0.35865130315E+03  0.17300000000E+03 0. -1.
         -6    1    1    2    0  502  0.11270509647E+03 -0.10672662597E+03  0.45920369014E+03  0.51467469386E+03  0.17300000000E+03 0.  1.
<mgrwt>
<rscale>  2 0.23242636E+03</rscale>
<asrwt>0</asrwt>
<pdfrwt beam="1">  1       21 0.12351351E+00 0.23242636E+03</pdfrwt>
<pdfrwt beam="2">  1       21 0.10844331E-01 0.23242636E+03</pdfrwt>
<totfact> 0.33801600E+04</totfact>
</mgrwt>
</event>
<event>
 4    3  0.4022695E+000  0.1979898E+03  0.7546771E-02  0.1151446E+00
         21   -1    0    0  503  502  0.00000000000E+00  0.00000000000E+00  0.14005746591E+03  0.14005746591E+03  0.00000000000E+00 0. -1.
         21   -1    0    0  501  503 -0.00000000000E+00 -0.00000000000E+00 -0.76054121885E+03  0.76054121885E+03  0.00000000000E+00 0.  1.
          6    1    1    2  501    0  0.81715056918E+02  0.50927620490E+02 -0.66822063056E+03  0.69693527975E+03  0.17300000000E+03 0.  1.
         -6    1    1    2    0  502 -0.81715056918E+02 -0.50927620490E+02  0.47736877615E+02  0.20366340501E+03  0.17300000000E+03 0. -1.
<mgrwt>
<rscale>  2 0.19798983E+03</rscale>
<asrwt>0</asrwt>
<pdfrwt beam="1">  1       21 0.21547303E-01 0.19798983E+03</pdfrwt>
<pdfrwt beam="2">  1       21 0.11700634E+00 0.19798983E+03</pdfrwt>
<totfact> 0.11239381E+04</totfact>
</mgrwt>
</event>
<event>
 4    3  0.4022695E+000  0.2555947E+03  0.7546771E-02  0.1109819E+00
         21   -1    0    0  501  502  0.00000000000E+00  0.00000000000E+00  0.17278670179E+03  0.17278670179E+03  0.00000000000E+00 0. -1.
         21   -1    0    0  502  503 -0.00000000000E+00 -0.00000000000E+00 -0.10333595383E+04  0.10333595383E+04  0.00000000000E+00 0. -1.
          6    1    1    2  501    0 -0.12713588267E+03 -0.13869437825E+03  0.49949606441E+02  0.26042969570E+03  0.17300000000E+03 0. -1.
         -6    1    1    2    0  503  0.12713588267E+03  0.13869437825E+03 -0.91052244298E+03  0.94571654442E+03  0.17300000000E+03 0. -1.
<mgrwt>
<rscale>  2 0.25559472E+03</rscale>
<asrwt>0</asrwt>
<pdfrwt beam="1">  1       21 0.26582570E-01 0.25559472E+03</pdfrwt>
<pdfrwt beam="2">  1       21 0.15897839E+00 0.25559472E+03</pdfrwt>
<totfact> 0.32785647E+03</totfact>
</mgrwt>
</event>
<event>
 4    3  0.4022695E+000  0.2059864E+03  0.7546771E-02  0.1144784E+00
         21   -1    0    0  501  502  0.00000000000E+00  0.00000000000E+00  0.46294657987E+02  0.46294657987E+02  0.00000000000E+00 0. -1.
         21   -1    0    0  502  503 -0.00000000000E+00 -0.00000000000E+00 -0.92503505296E+03  0.92503505296E+03  0.00000000000E+00 0. -1.
          6    1    1    2  501    0 -0.50582621712E+02 -0.99713467125E+02 -0.39279739780E+03  0.44353147900E+03  0.17300000000E+03 0. -1.
         -6    1    1    2    0  503  0.50582621712E+02  0.99713467125E+02 -0.48594299716E+03  0.52779823194E+03  0.17300000000E+03 0. -1.
<mgrwt>
<rscale>  2 0.20598635E+03</rscale>
<asrwt>0</asrwt>
<pdfrwt beam="1">  1       21 0.71222551E-02 0.20598635E+03</pdfrwt>
<pdfrwt beam="2">  1       21 0.14231308E+00 0.20598635E+03</pdfrwt>
<totfact> 0.49977284E+04</totfact>
</mgrwt>
</event>
<event>
 4    3  0.4022695E+000  0.3479119E+03  0.7546771E-02  0.1063475E+00
         21   -1    0    0  501  502  0.00000000000E+00  0.00000000000E+00  0.14800205367E+03  0.14800205367E+03  0.00000000000E+00 0.  1.
         21   -1    0    0  502  503 -0.00000000000E+00 -0.00000000000E+00 -0.11381727673E+04  0.11381727673E+04  0.00000000000E+00 0. -1.
          6    1    1    2  501    0  0.21391266746E+03 -0.21296734272E+03 -0.15392127403E+03  0.38043984671E+03  0.17300000000E+03 0.  1.
         -6    1    1    2    0  503 -0.21391266746E+03  0.21296734272E+03 -0.83624943962E+03  0.90573497428E+03  0.17300000000E+03 0. -1.
<mgrwt>
<rscale>  2 0.34791194E+03</rscale>
<asrwt>0</asrwt>
<pdfrwt beam="1">  1       21 0.22769546E-01 0.34791194E+03</pdfrwt>
<pdfrwt beam="2">  1       21 0.17510351E+00 0.34791194E+03</pdfrwt>
<totfact> 0.31941365E+03</totfact>
</mgrwt>
</event>
<event>
 4    3  0.4022695E+000  0.2164732E+03  0.7546771E-02  0.1136540E+00
         21   -1    0    0  501  502  0.00000000000E+00  0.00000000000E+00  0.54674576147E+03  0.54674576147E+03  0.00000000000E+00 0.  1.
         21   -1    0    0  502  503 -0.00000000000E+00 -0.00000000000E+00 -0.11177245994E+03  0.11177245994E+03  0.00000000000E+00 0.  1.
          6    1    1    2  501    0 -0.86786921177E+02 -0.96951894648E+02  0.37648492752E+03  0.43428278830E+03  0.17300000000E+03 0.  1.
         -6    1    1    2    0  503  0.86786921177E+02  0.96951894648E+02  0.58488374008E+02  0.22423543310E+03  0.17300000000E+03 0.  1.
<mgrwt>
<rscale>  2 0.21647318E+03</rscale>
<asrwt>0</asrwt>
<pdfrwt beam="1">  1       21 0.84114731E-01 0.21647318E+03</pdfrwt>
<pdfrwt beam="2">  1       21 0.17195763E-01 0.21647318E+03</pdfrwt>
<totfact> 0.37022371E+04</totfact>
</mgrwt>
</event>
<event>
 4    3  0.4022695E+000  0.1747352E+03  0.7546771E-02  0.1172998E+00
         21   -1    0    0  501  502  0.00000000000E+00  0.00000000000E+00  0.38768997367E+03  0.38768997367E+03  0.00000000000E+00 0. -1.
         21   -1    0    0  502  503 -0.00000000000E+00 -0.00000000000E+00 -0.86655070349E+02  0.86655070349E+02  0.00000000000E+00 0. -1.
          6    1    1    2  501    0 -0.12972072393E+02 -0.20859278802E+02  0.22213059981E+03  0.28262057170E+03  0.17300000000E+03 0. -1.
         -6    1    1    2    0  503  0.12972072393E+02  0.20859278802E+02  0.78904303509E+02  0.19172447232E+03  0.17300000000E+03 0. -1.
<mgrwt>
<rscale>  2 0.17473518E+03</rscale>
<asrwt>0</asrwt>
<pdfrwt beam="1">  1       21 0.59644610E-01 0.17473518E+03</pdfrwt>
<pdfrwt beam="2">  1       21 0.13331550E-01 0.17473518E+03</pdfrwt>
<totfact> 0.12829380E+05</totfact>
</mgrwt>
</event>
<event>
 4    3  0.4022695E+000  0.2137208E+03  0.7546771E-02  0.1138653E+00
         21   -1    0    0  501  502  0.00000000000E+00  0.00000000000E+00  0.21160008108E+03  0.21160008108E+03  0.00000000000E+00 0.  1.
         21   -1    0    0  502  503 -0.00000000000E+00 -0.00000000000E+00 -0.59972462068E+03  0.59972462068E+03  0.00000000000E+00 0.  1.
          6    1    1    2  501    0  0.71119977356E+01 -0.12528764793E+03  0.13048372364E+03  0.25040482697E+03  0.17300000000E+03 0.  1.
         -6    1    1    2    0  503 -0.71119977356E+01  0.12528764793E+03 -0.51860826324E+03  0.56091987479E+03  0.17300000000E+03 0.  1.
<mgrwt>
<rscale>  2 0.21372079E+03</rscale>
<asrwt>0</asrwt>
<pdfrwt beam="1">  1       21 0.32553859E-01 0.21372079E+03</pdfrwt>
<pdfrwt beam="2">  1       21 0.92265326E-01 0.21372079E+03</pdfrwt>
<totfact> 0.88733816E+03</totfact>
</mgrwt>
</event>
<event>
 4    3  0.4022695E+000  0.2023102E+03  0.7546771E-02  0.1147804E+00
         21   -1    0    0  503  502  0.00000000000E+00  0.00000000000E+00  0.24645702349E+03  0.24645702349E+03  0.00000000000E+00 0. -1.
         21   -1    0    0  501  503 -0.00000000000E+00 -0.00000000000E+00 -0.16642468657E+03  0.16642468657E+03  0.00000000000E+00 0. -1.
          6    1    1    2  501    0  0.92289228456E+02 -0.49831019765E+02  0.49529374797E+02  0.20828487988E+03  0.17300000000E+03 0. -1.
         -6    1    1    2    0  502 -0.92289228456E+02  0.49831019765E+02  0.30502962128E+02  0.20459683018E+03  0.17300000000E+03 0. -1.
<mgrwt>
<rscale>  2 0.20231024E+03</rscale>
<asrwt>0</asrwt>
<pdfrwt beam="1">  1       21 0.37916465E-01 0.20231024E+03</pdfrwt>
<pdfrwt beam="2">  1       21 0.25603798E-01 0.20231024E+03</pdfrwt>
<totfact> 0.96694727E+04</totfact>
</mgrwt>
</event>
<event>
 4    3  0.4022695E+000  0.1774872E+03  0.7546771E-02  0.1170257E+00
         21   -1    0    0  503  502  0.00000000000E+00  0.00000000000E+00  0.51806229720E+03  0.51806229720E+03  0.00000000000E+00 0.  1.
         21   -1    0    0  501  503 -0.00000000000E+00 -0.00000000000E+00 -0.11004770292E+03  0.11004770292E+03  0.00000000000E+00 0.  1.
          6    1    1    2  501    0 -0.16335688485E+02  0.36136441737E+02 -0.60696216409E+01  0.17759092726E+03  0.17300000000E+03 0.  1.
         -6    1    1    2    0  502  0.16335688485E+02 -0.36136441737E+02  0.41408421591E+03  0.45051907286E+03  0.17300000000E+03 0.  1.
<mgrwt>
<rscale>  2 0.17748717E+03</rscale>
<asrwt>0</asrwt>
<pdfrwt beam="1">  1       21 0.79701891E-01 0.17748717E+03</pdfrwt>
<pdfrwt beam="2">  1       21 0.16930416E-01 0.17748717E+03</pdfrwt>
<totfact> 0.43932188E+04</totfact>
</mgrwt>
</event>
<event>
 4    3  0.4022695E+000  0.1765356E+03  0.7546771E-02  0.1171199E+00
         21   -1    0    0  501  502  0.00000000000E+00  0.00000000000E+00  0.37545435100E+02  0.37545435100E+02  0.00000000000E+00 0.  1.
         21   -1    0    0  502  503 -0.00000000000E+00 -0.00000000000E+00 -0.85541263789E+03  0.85541263789E+03  0.00000000000E+00 0.  1.
          6    1    1    2  501    0  0.15695744873E+02 -0.31455845730E+02 -0.33206373621E+03  0.37607333267E+03  0.17300000000E+03 0. -1.
         -6    1    1    2    0  503 -0.15695744873E+02  0.31455845730E+02 -0.48580346658E+03  0.51688474033E+03  0.17300000000E+03 0. -1.
<mgrwt>
<rscale>  2 0.17653562E+03</rscale>
<asrwt>0</asrwt>
<pdfrwt beam="1">  1       21 0.57762208E-02 0.17653562E+03</pdfrwt>
<pdfrwt beam="2">  1       21 0.13160194E+00 0.17653562E+03</pdfrwt>
<totfact> 0.88847639E+04</totfact>
</mgrwt>
</event>
<event>
 4    3  0.4022695E+000  0.1961496E+03  0.7546771E-02  0.1153029E+00
         21   -1    0    0  501  502  0.00000000000E+00  0.00000000000E+00  0.29190710107E+03  0.29190710107E+03  0.00000000000E+00 0.  1.
         21   -1    0    0  502  503 -0.00000000000E+00 -0.00000000000E+00 -0.24872306554E+03  0.24872306554E+03  0.00000000000E+00 0.  1.
          6    1    1    2  501    0  0.34434984502E+01 -0.92378530010E+02 -0.16374155967E+03  0.25551115210E+03  0.17300000000E+03 0.  1.
         -6    1    1    2    0  503 -0.34434984502E+01  0.92378530010E+02  0.20692559519E+03  0.28511901451E+03  0.17300000000E+03 0.  1.
<mgrwt>
<rscale>  2 0.19614956E+03</rscale>
<asrwt>0</asrwt>
<pdfrwt beam="1">  1       21 0.44908785E-01 0.19614956E+03</pdfrwt>
<pdfrwt beam="2">  1       21 0.38265087E-01 0.19614956E+03</pdfrwt>
<totfact> 0.31280590E+04</totfact>
</mgrwt>
</event>
<event>
 4    3  0.4022695E+000  0.2176174E+03  0.7546771E-02  0.1135672E+00
         21   -1    0    0  503  502  0.00000000000E+00  0.00000000000E+00  0.81299824863E+02  0.81299824863E+02  0.00000000000E+00 0. -1.
         21   -1    0    0  501  503 -0.00000000000E+00 -0.00000000000E+00 -0.10152327750E+04  0.10152327750E+04  0.00000000000E+00 0. -1.
          6    1    1    2  501    0  0.43064866750E+01 -0.13194608240E+03 -0.10902040025E+03  0.24339836104E+03  0.17300000000E+03 0. -1.
         -6    1    1    2    0  502 -0.43064866750E+01  0.13194608240E+03 -0.82491254991E+03  0.85313423884E+03  0.17300000000E+03 0. -1.
<mgrwt>
<rscale>  2 0.21761736E+03</rscale>
<asrwt>0</asrwt>
<pdfrwt beam="1">  1       21 0.12507666E-01 0.21761736E+03</pdfrwt>
<pdfrwt beam="2">  1       21 0.15618965E+00 0.21761736E+03</pdfrwt>
<totfact> 0.14376555E+04</totfact>
</mgrwt>
</event>
<event>
 4    3  0.4022695E+000  0.1923967E+03  0.7546771E-02  0.1156317E+00
         21   -1    0    0  503  502  0.00000000000E+00  0.00000000000E+00  0.37851205118E+03  0.37851205118E+03  0.00000000000E+00 0.  1.
         21   -1    0    0  501  503 -0.00000000000E+00 -0.00000000000E+00 -0.97943040643E+02  0.97943040643E+02  0.00000000000E+00 0.  1.
          6    1    1    2  501    0  0.79286064427E+02 -0.28305806891E+02  0.14955352532E+03  0.24368577236E+03  0.17300000000E+03 0.  1.
         -6    1    1    2    0  502 -0.79286064427E+02  0.28305806891E+02  0.13101548522E+03  0.23276931946E+03  0.17300000000E+03 0.  1.
<mgrwt>
<rscale>  2 0.19239672E+03</rscale>
<asrwt>0</asrwt>
<pdfrwt beam="1">  1       21 0.58232623E-01 0.19239672E+03</pdfrwt>
<pdfrwt beam="2">  1       21 0.15068160E-01 0.19239672E+03</pdfrwt>
<totfact> 0.10749652E+05</totfact>
</mgrwt>
</event>
<event>
 4    3  0.4022695E+000  0.1813734E+03  0.7546771E-02  0.1166480E+00
         21   -1    0    0  501  502  0.00000000000E+00  0.00000000000E+00  0.14411394526E+03  0.14411394526E+03  0.00000000000E+00 0. -1.
         21   -1    0    0  502  503 -0.00000000000E+00 -0.00000000000E+00 -0.60868770464E+03  0.60868770464E+03  0.00000000000E+00 0. -1.
          6    1    1    2  501    0  0.51840585255E+02  0.16729011145E+02  0.65280949187E+02  0.19276386700E+03  0.17300000000E+03 0. -1.
         -6    1    1    2    0  503 -0.51840585255E+02 -0.16729011145E+02 -0.52985470857E+03  0.56003778291E+03  0.17300000000E+03 0. -1.
<mgrwt>
<rscale>  2 0.18137339E+03</rscale>
<asrwt>0</asrwt>
<pdfrwt beam="1">  1       21 0.22171376E-01 0.18137339E+03</pdfrwt>
<pdfrwt beam="2">  1       21 0.93644264E-01 0.18137339E+03</pdfrwt>
<totfact> 0.18352544E+04</totfact>
</mgrwt>
</event>
<event>
 4    3  0.4022695E+000  0.1886001E+03  0.7546771E-02  0.1159730E+00
         21   -1    0    0  503  502  0.00000000000E+00  0.00000000000E+00  0.40644304017E+02  0.40644304017E+02  0.00000000000E+00 0. -1.
         21   -1    0    0  501  503 -0.00000000000E+00 -0.00000000000E+00 -0.88555130421E+03  0.88555130421E+03  0.00000000000E+00 0. -1.
          6    1    1    2  501    0  0.71154143857E+02 -0.24043497804E+02 -0.37227263004E+03  0.41732111503E+03  0.17300000000E+03 0. -1.
         -6    1    1    2    0  502 -0.71154143857E+02  0.24043497804E+02 -0.47263437015E+03  0.50887449319E+03  0.17300000000E+03 0. -1.
<mgrwt>
<rscale>  2 0.18860011E+03</rscale>
<asrwt>0</asrwt>
<pdfrwt beam="1">  1       21 0.62529695E-02 0.18860011E+03</pdfrwt>
<pdfrwt beam="2">  1       21 0.13623867E+00 0.18860011E+03</pdfrwt>
<totfact> 0.70648609E+04</totfact>
</mgrwt>
</event>
<event>
 4    3  0.4022695E+000  0.1737022E+03  0.7546771E-02  0.1174041E+00
         21   -1    0    0  501  502  0.00000000000E+00  0.00000000000E+00  0.17970075703E+04  0.17970075703E+04  0.00000000000E+00 0. -1.
         21   -1    0    0  502  503 -0.00000000000E+00 -0.00000000000E+00 -0.43753051566E+02  0.43753051566E+02  0.00000000000E+00 0. -1.
          6    1    1    2  501    0  0.11806793996E+02  0.10200916312E+02  0.15991383542E+04  0.16085446637E+04  0.17300000000E+03 0. -1.
         -6    1    1    2    0  503 -0.11806793996E+02 -0.10200916312E+02  0.15411616452E+03  0.23221595820E+03  0.17300000000E+03 0. -1.
<mgrwt>
<rscale>  2 0.17370221E+03</rscale>
<asrwt>0</asrwt>
<pdfrwt beam="1">  1       21 0.27646265E+00 0.17370221E+03</pdfrwt>
<pdfrwt beam="2">  1       21 0.67312401E-02 0.17370221E+03</pdfrwt>
<totfact> 0.77070924E+03</totfact>
</mgrwt>
</event>
<event>
 4    3  0.4022695E+000  0.1764031E+03  0.7546771E-02  0.1171330E+00
         21   -1    0    0  501  502  0.00000000000E+00  0.00000000000E+00  0.11304565597E+03  0.11304565597E+03  0.00000000000E+00 0.  1.
         21   -1    0    0  502  503 -0.00000000000E+00 -0.00000000000E+00 -0.51164491676E+03  0.51164491676E+03  0.00000000000E+00 0.  1.
          6    1    1    2  501    0 -0.94359369566E+01  0.33166433333E+02  0.13001130482E+02  0.17688153832E+03  0.17300000000E+03 0.  1.
         -6    1    1    2    0  503  0.94359369566E+01 -0.33166433333E+02 -0.41160039127E+03  0.44780903441E+03  0.17300000000E+03 0.  1.
<mgrwt>
<rscale>  2 0.17640309E+03</rscale>
<asrwt>0</asrwt>
<pdfrwt beam="1">  1       21 0.17391640E-01 0.17640309E+03</pdfrwt>
<pdfrwt beam="2">  1       21 0.78714601E-01 0.17640309E+03</pdfrwt>
<totfact> 0.43029111E+04</totfact>
</mgrwt>
</event>
<event>
 4    3  0.4022695E+000  0.2039944E+03  0.7546771E-02  0.1146412E+00
         21   -1    0    0  501  502  0.00000000000E+00  0.00000000000E+00  0.41310427210E+03  0.41310427210E+03  0.00000000000E+00 0.  1.
         21   -1    0    0  502  503 -0.00000000000E+00 -0.00000000000E+00 -0.15649807556E+03  0.15649807556E+03  0.00000000000E+00 0.  1.
          6    1    1    2  501    0 -0.97098349439E+02 -0.47503843529E+02  0.29830899010E+03  0.36138892926E+03  0.17300000000E+03 0.  1.
         -6    1    1    2    0  503  0.97098349439E+02  0.47503843529E+02 -0.41702793567E+02  0.20821341841E+03  0.17300000000E+03 0.  1.
<mgrwt>
<rscale>  2 0.20399437E+03</rscale>
<asrwt>0</asrwt>
<pdfrwt beam="1">  1       21 0.63554503E-01 0.20399437E+03</pdfrwt>
<pdfrwt beam="2">  1       21 0.24076627E-01 0.20399437E+03</pdfrwt>
<totfact> 0.37019725E+04</totfact>
</mgrwt>
</event>
<event>
 4    3  0.4022695E+000  0.1915434E+03  0.7546771E-02  0.1157077E+00
         21   -1    0    0  501  502  0.00000000000E+00  0.00000000000E+00  0.24972750977E+03  0.24972750977E+03  0.00000000000E+00 0. -1.
         21   -1    0    0  502  503 -0.00000000000E+00 -0.00000000000E+00 -0.14691566365E+03  0.14691566365E+03  0.00000000000E+00 0. -1.
          6    1    1    2  501    0  0.31001263778E+02 -0.76149788729E+02  0.51529092153E+02  0.19835351274E+03  0.17300000000E+03 0. -1.
         -6    1    1    2    0  503 -0.31001263778E+02  0.76149788729E+02  0.51282753963E+02  0.19828966068E+03  0.17300000000E+03 0. -1.
<mgrwt>
<rscale>  2 0.19154339E+03</rscale>
<asrwt>0</asrwt>
<pdfrwt beam="1">  1       21 0.38419617E-01 0.19154339E+03</pdfrwt>
<pdfrwt beam="2">  1       21 0.22602410E-01 0.19154339E+03</pdfrwt>
<totfact> 0.11989146E+05</totfact>
</mgrwt>
</event>
<event>
 4    3  0.4022695E+000  0.1911020E+03  0.7546771E-02  0.1157471E+00
         21   -1    0    0  503  502  0.00000000000E+00  0.00000000000E+00  0.67071591959E+03  0.67071591959E+03  0.00000000000E+00 0.  1.
         21   -1    0    0  501  503 -0.00000000000E+00 -0.00000000000E+00 -0.68193389979E+02  0.68193389979E+02  0.00000000000E+00 0.  1.
          6    1    1    2  501    0  0.45711094223E+02 -0.67093064078E+02  0.13539858458E+03  0.23420666107E+03  0.17300000000E+03 0.  1.
         -6    1    1    2    0  502 -0.45711094223E+02  0.67093064078E+02  0.46712394503E+03  0.50470264850E+03  0.17300000000E+03 0.  1.
<mgrwt>
<rscale>  2 0.19110202E+03</rscale>
<asrwt>0</asrwt>
<pdfrwt beam="1">  1       21 0.10318706E+00 0.19110202E+03</pdfrwt>
<pdfrwt beam="2">  1       21 0.10491291E-01 0.19110202E+03</pdfrwt>
<totfact> 0.56828392E+04</totfact>
</mgrwt>
</event>
<event>
 4    3  0.4022695E+000  0.2698339E+03  0.7546771E-02  0.1101375E+00
         21   -1    0    0  503  502  0.00000000000E+00  0.00000000000E+00  0.15384520385E+04  0.15384520385E+04  0.00000000000E+00 0.  1.
         21   -1    0    0  501  503 -0.00000000000E+00 -0.00000000000E+00 -0.54098942288E+02  0.54098942288E+02  0.00000000000E+00 0.  1.
          6    1    1    2  501    0  0.35560081623E+02  0.20400202613E+03  0.46045177740E+03  0.53369109547E+03  0.17300000000E+03 0.  1.
         -6    1    1    2    0  502 -0.35560081623E+02 -0.20400202613E+03  0.10239013188E+04  0.10588598853E+04  0.17300000000E+03 0.  1.
<mgrwt>
<rscale>  2 0.26983392E+03</rscale>
<asrwt>0</asrwt>
<pdfrwt beam="1">  1       21 0.23668490E+00 0.26983392E+03</pdfrwt>
<pdfrwt beam="2">  1       21 0.83229154E-02 0.26983392E+03</pdfrwt>
<totfact> 0.83909073E+03</totfact>
</mgrwt>
</event>
<event>
 4    3  0.4022695E+000  0.1776997E+03  0.7546771E-02  0.1170048E+00
         21   -1    0    0  501  502  0.00000000000E+00  0.00000000000E+00  0.86944549217E+02  0.86944549217E+02  0.00000000000E+00 0. -1.
         21   -1    0    0  502  503 -0.00000000000E+00 -0.00000000000E+00 -0.38488303758E+03  0.38488303758E+03  0.00000000000E+00 0. -1.
          6    1    1    2  501    0  0.24077852801E+02 -0.32686807734E+02 -0.92958091559E+02  0.20054519985E+03  0.17300000000E+03 0. -1.
         -6    1    1    2    0  503 -0.24077852801E+02  0.32686807734E+02 -0.20498039680E+03  0.27128238695E+03  0.17300000000E+03 0. -1.
<mgrwt>
<rscale>  2 0.17769966E+03</rscale>
<asrwt>0</asrwt>
<pdfrwt beam="1">  1       21 0.13376085E-01 0.17769966E+03</pdfrwt>
<pdfrwt beam="2">  1       21 0.59212775E-01 0.17769966E+03</pdfrwt>
<totfact> 0.12938385E+05</totfact>
</mgrwt>
</event>
<event>
 4    3  0.4022695E+000  0.1821159E+03  0.7546771E-02  0.1165771E+00
         21   -1    0    0  501  502  0.00000000000E+00  0.00000000000E+00  0.91715218401E+02  0.91715218401E+02  0.00000000000E+00 0. -1.
         21   -1    0    0  502  503 -0.00000000000E+00 -0.00000000000E+00 -0.40037743569E+03  0.40037743569E+03  0.00000000000E+00 0. -1.
          6    1    1    2  501    0  0.47960500798E+02  0.30610196126E+02 -0.23088217952E+03  0.29406253512E+03  0.17300000000E+03 0. -1.
         -6    1    1    2    0  503 -0.47960500798E+02 -0.30610196126E+02 -0.77780037774E+02  0.19803011897E+03  0.17300000000E+03 0. -1.
<mgrwt>
<rscale>  2 0.18211588E+03</rscale>
<asrwt>0</asrwt>
<pdfrwt beam="1">  1       21 0.14110034E-01 0.18211588E+03</pdfrwt>
<pdfrwt beam="2">  1       21 0.61596527E-01 0.18211588E+03</pdfrwt>
<totfact> 0.10777406E+05</totfact>
</mgrwt>
</event>
<event>
 4    3  0.4022695E+000  0.1835636E+03  0.7546771E-02  0.1164398E+00
         21   -1    0    0  501  502  0.00000000000E+00  0.00000000000E+00  0.97364241614E+03  0.97364241614E+03  0.00000000000E+00 0.  1.
         21   -1    0    0  502  503 -0.00000000000E+00 -0.00000000000E+00 -0.34607830401E+02  0.34607830401E+02  0.00000000000E+00 0.  1.
          6    1    1    2  501    0  0.60516142058E+02  0.10217495786E+02  0.46889745852E+03  0.50354784011E+03  0.17300000000E+03 0.  1.
         -6    1    1    2    0  503 -0.60516142058E+02 -0.10217495786E+02  0.47013712721E+03  0.50470240643E+03  0.17300000000E+03 0.  1.
<mgrwt>
<rscale>  2 0.18356361E+03</rscale>
<asrwt>0</asrwt>
<pdfrwt beam="1">  1       21 0.14979112E+00 0.18356361E+03</pdfrwt>
<pdfrwt beam="2">  1       21 0.53242824E-02 0.18356361E+03</pdfrwt>
<totfact> 0.72867936E+04</totfact>
</mgrwt>
</event>
<event>
 4    3  0.4022695E+000  0.1807012E+03  0.7546771E-02  0.1167126E+00
         21   -1    0    0  503  502  0.00000000000E+00  0.00000000000E+00  0.67490651433E+03  0.67490651433E+03  0.00000000000E+00 0.  1.
         21   -1    0    0  501  503 -0.00000000000E+00 -0.00000000000E+00 -0.48669509383E+02  0.48669509383E+02  0.00000000000E+00 0.  1.
          6    1    1    2  501    0 -0.51448501656E+02 -0.87727834471E+01  0.34095520367E+03  0.38587998259E+03  0.17300000000E+03 0.  1.
         -6    1    1    2    0  502  0.51448501656E+02  0.87727834471E+01  0.28528180128E+03  0.33769604113E+03  0.17300000000E+03 0.  1.
<mgrwt>
<rscale>  2 0.18070116E+03</rscale>
<asrwt>0</asrwt>
<pdfrwt beam="1">  1       21 0.10383176E+00 0.18070116E+03</pdfrwt>
<pdfrwt beam="2">  1       21 0.74876174E-02 0.18070116E+03</pdfrwt>
<totfact> 0.10153501E+05</totfact>
</mgrwt>
</event>
<event>
 4    3  0.4022695E+000  0.1763050E+03  0.7546771E-02  0.1171428E+00
         21   -1    0    0  503  502  0.00000000000E+00  0.00000000000E+00  0.45444802741E+03  0.45444802741E+03  0.00000000000E+00 0. -1.
         21   -1    0    0  501  503 -0.00000000000E+00 -0.00000000000E+00 -0.12324792005E+03  0.12324792005E+03  0.00000000000E+00 0. -1.
          6    1    1    2  501    0 -0.22481264189E+02  0.25476418792E+02 -0.27093190650E+02  0.17837459498E+03  0.17300000000E+03 0. -1.
         -6    1    1    2    0  502  0.22481264189E+02 -0.25476418792E+02  0.35829329801E+03  0.39932135249E+03  0.17300000000E+03 0. -1.
<mgrwt>
<rscale>  2 0.17630501E+03</rscale>
<asrwt>0</asrwt>
<pdfrwt beam="1">  1       21 0.69915080E-01 0.17630501E+03</pdfrwt>
<pdfrwt beam="2">  1       21 0.18961219E-01 0.17630501E+03</pdfrwt>
<totfact> 0.47746106E+04</totfact>
</mgrwt>
</event>
<event>
 4    3  0.4022695E+000  0.1872474E+03  0.7546771E-02  0.1160968E+00
         21   -1    0    0  501  502  0.00000000000E+00  0.00000000000E+00  0.33189489672E+03  0.33189489672E+03  0.00000000000E+00 0.  1.
         21   -1    0    0  502  503 -0.00000000000E+00 -0.00000000000E+00 -0.11701599407E+03  0.11701599407E+03  0.00000000000E+00 0.  1.
          6    1    1    2  501    0 -0.13196310360E+01 -0.71629833969E+02  0.17742217545E+03  0.25795387743E+03  0.17300000000E+03 0. -1.
         -6    1    1    2    0  503  0.13196310360E+01  0.71629833969E+02  0.37456727198E+02  0.19095701336E+03  0.17300000000E+03 0. -1.
<mgrwt>
<rscale>  2 0.18724736E+03</rscale>
<asrwt>0</asrwt>
<pdfrwt beam="1">  1       21 0.51060753E-01 0.18724736E+03</pdfrwt>
<pdfrwt beam="2">  1       21 0.18002461E-01 0.18724736E+03</pdfrwt>
<totfact> 0.10257347E+05</totfact>
</mgrwt>
</event>
<event>
 4    3  0.4022695E+000  0.2059128E+03  0.7546771E-02  0.1144844E+00
         21   -1    0    0  501  502  0.00000000000E+00  0.00000000000E+00  0.20967098315E+03  0.20967098315E+03  0.00000000000E+00 0. -1.
         21   -1    0    0  502  503 -0.00000000000E+00 -0.00000000000E+00 -0.50052710786E+03  0.50052710786E+03  0.00000000000E+00 0. -1.
          6    1    1    2  501    0  0.84511187005E+02 -0.72999597821E+02  0.12870793067E+03  0.24282877389E+03  0.17300000000E+03 0. -1.
         -6    1    1    2    0  503 -0.84511187005E+02  0.72999597821E+02 -0.41956405538E+03  0.46736931711E+03  0.17300000000E+03 0. -1.
<mgrwt>
<rscale>  2 0.20591280E+03</rscale>
<asrwt>0</asrwt>
<pdfrwt beam="1">  1       21 0.32257075E-01 0.20591280E+03</pdfrwt>
<pdfrwt beam="2">  1       21 0.77004169E-01 0.20591280E+03</pdfrwt>
<totfact> 0.13738439E+04</totfact>
</mgrwt>
</event>
<event>
 4    3  0.4022695E+000  0.1899798E+03  0.7546771E-02  0.1158480E+00
         21   -1    0    0  503  502  0.00000000000E+00  0.00000000000E+00  0.31065868269E+02  0.31065868269E+02  0.00000000000E+00 0.  1.
         21   -1    0    0  501  503 -0.00000000000E+00 -0.00000000000E+00 -0.12147826978E+04  0.12147826978E+04  0.00000000000E+00 0.  1.
          6    1    1    2  501    0  0.61376690682E+02  0.48951232831E+02 -0.46176552021E+03  0.49931925359E+03  0.17300000000E+03 0. -1.
         -6    1    1    2    0  502 -0.61376690682E+02 -0.48951232831E+02 -0.72195130932E+03  0.74652931248E+03  0.17300000000E+03 0. -1.
<mgrwt>
<rscale>  2 0.18997979E+03</rscale>
<asrwt>0</asrwt>
<pdfrwt beam="1">  1       21 0.47793648E-02 0.18997979E+03</pdfrwt>
<pdfrwt beam="2">  1       21 0.18688963E+00 0.18997979E+03</pdfrwt>
<totfact> 0.47565402E+04</totfact>
</mgrwt>
</event>
<event>
 4    3  0.4022695E+000  0.2329866E+03  0.7546771E-02  0.1124555E+00
         21   -1    0    0  501  502  0.00000000000E+00  0.00000000000E+00  0.31241502625E+03  0.31241502625E+03  0.00000000000E+00 0. -1.
         21   -1    0    0  502  503 -0.00000000000E+00 -0.00000000000E+00 -0.81571138934E+03  0.81571138934E+03  0.00000000000E+00 0. -1.
          6    1    1    2  501    0 -0.24566306956E+02 -0.15411116624E+03  0.24874716981E+03  0.34081946759E+03  0.17300000000E+03 0. -1.
         -6    1    1    2    0  503  0.24566306956E+02  0.15411116624E+03 -0.75204353290E+03  0.78730694800E+03  0.17300000000E+03 0. -1.
<mgrwt>
<rscale>  2 0.23298660E+03</rscale>
<asrwt>0</asrwt>
<pdfrwt beam="1">  1       21 0.48063850E-01 0.23298660E+03</pdfrwt>
<pdfrwt beam="2">  1       21 0.12549406E+00 0.23298660E+03</pdfrwt>
<totfact> 0.18860552E+03</totfact>
</mgrwt>
</event>
<event>
 4    3  0.4022695E+000  0.2362059E+03  0.7546771E-02  0.1122346E+00
         21   -1    0    0  501  502  0.00000000000E+00  0.00000000000E+00  0.25397393299E+03  0.25397393299E+03  0.00000000000E+00 0. -1.
         21   -1    0    0  502  503 -0.00000000000E+00 -0.00000000000E+00 -0.38370596285E+03  0.38370596285E+03  0.00000000000E+00 0. -1.
          6    1    1    2  501    0  0.13542850696E+03 -0.86737239476E+02  0.14359676509E+03  0.27642948496E+03  0.17300000000E+03 0. -1.
         -6    1    1    2    0  503 -0.13542850696E+03  0.86737239476E+02 -0.27332879495E+03  0.36125041088E+03  0.17300000000E+03 0. -1.
<mgrwt>
<rscale>  2 0.23620590E+03</rscale>
<asrwt>0</asrwt>
<pdfrwt beam="1">  1       21 0.39072913E-01 0.23620590E+03</pdfrwt>
<pdfrwt beam="2">  1       21 0.59031686E-01 0.23620590E+03</pdfrwt>
<totfact> 0.16518739E+04</totfact>
</mgrwt>
</event>
<event>
 4    3  0.4022695E+000  0.1744499E+03  0.7546771E-02  0.1173285E+00
         21   -1    0    0  501  502  0.00000000000E+00  0.00000000000E+00  0.26499248584E+03  0.26499248584E+03  0.00000000000E+00 0.  1.
         21   -1    0    0  502  503 -0.00000000000E+00 -0.00000000000E+00 -0.28489074030E+03  0.28489074030E+03  0.00000000000E+00 0.  1.
          6    1    1    2  501    0 -0.22104122925E+02  0.38949371767E+01  0.20246609203E+03  0.26725508640E+03  0.17300000000E+03 0.  1.
         -6    1    1    2    0  503  0.22104122925E+02 -0.38949371767E+01 -0.22236434649E+03  0.28262813975E+03  0.17300000000E+03 0.  1.
<mgrwt>
<rscale>  2 0.17444989E+03</rscale>
<asrwt>0</asrwt>
<pdfrwt beam="1">  1       21 0.40768075E-01 0.17444989E+03</pdfrwt>
<pdfrwt beam="2">  1       21 0.43829345E-01 0.17444989E+03</pdfrwt>
<totfact> 0.29282351E+04</totfact>
</mgrwt>
</event>
<event>
 4    3  0.4022695E+000  0.2048909E+03  0.7546771E-02  0.1145677E+00
         21   -1    0    0  503  502  0.00000000000E+00  0.00000000000E+00  0.13945164589E+03  0.13945164589E+03  0.00000000000E+00 0.  1.
         21   -1    0    0  501  503 -0.00000000000E+00 -0.00000000000E+00 -0.53895918174E+03  0.53895918174E+03  0.00000000000E+00 0.  1.
          6    1    1    2  501    0 -0.29736175400E+02 -0.10567414040E+03 -0.42512644534E+03  0.47192452638E+03  0.17300000000E+03 0.  1.
         -6    1    1    2    0  502  0.29736175400E+02  0.10567414040E+03  0.25618909491E+02  0.20648630124E+03  0.17300000000E+03 0.  1.
<mgrwt>
<rscale>  2 0.20489086E+03</rscale>
<asrwt>0</asrwt>
<pdfrwt beam="1">  1       21 0.21454099E-01 0.20489086E+03</pdfrwt>
<pdfrwt beam="2">  1       21 0.82916797E-01 0.20489086E+03</pdfrwt>
<totfact> 0.25481686E+04</totfact>
</mgrwt>
</event>
<event>
 4    3  0.4022695E+000  0.1834293E+03  0.7546771E-02  0.1164525E+00
         21   -1    0    0  503  502  0.00000000000E+00  0.00000000000E+00  0.23096098224E+03  0.23096098224E+03  0.00000000000E+00 0. -1.
         21   -1    0    0  501  503 -0.00000000000E+00 -0.00000000000E+00 -0.16490469709E+03  0.16490469709E+03  0.00000000000E+00 0. -1.
          6    1    1    2  501    0 -0.50108682593E+02  0.34733459308E+02  0.10061093216E+03  0.20921006892E+03  0.17300000000E+03 0. -1.
         -6    1    1    2    0  502  0.50108682593E+02 -0.34733459308E+02 -0.34554647009E+02  0.18665561041E+03  0.17300000000E+03 0. -1.
<mgrwt>
<rscale>  2 0.18342926E+03</rscale>
<asrwt>0</asrwt>
<pdfrwt beam="1">  1       21 0.35532459E-01 0.18342926E+03</pdfrwt>
<pdfrwt beam="2">  1       21 0.25369953E-01 0.18342926E+03</pdfrwt>
<totfact> 0.11284383E+05</totfact>
</mgrwt>
</event>
<event>
 4    3  0.4022695E+000  0.1913875E+03  0.7546771E-02  0.1157216E+00
         21   -1    0    0  503  502  0.00000000000E+00  0.00000000000E+00  0.73165999711E+02  0.73165999711E+02  0.00000000000E+00 0.  1.
         21   -1    0    0  501  503 -0.00000000000E+00 -0.00000000000E+00 -0.63816392994E+03  0.63816392994E+03  0.00000000000E+00 0.  1.
          6    1    1    2  501    0 -0.55180743712E+02 -0.60458892631E+02 -0.44761063782E+03  0.48681051269E+03  0.17300000000E+03 0.  1.
         -6    1    1    2    0  502  0.55180743712E+02  0.60458892631E+02 -0.11738729241E+03  0.22451941697E+03  0.17300000000E+03 0.  1.
<mgrwt>
<rscale>  2 0.19138754E+03</rscale>
<asrwt>0</asrwt>
<pdfrwt beam="1">  1       21 0.11256308E-01 0.19138754E+03</pdfrwt>
<pdfrwt beam="2">  1       21 0.98179067E-01 0.19138754E+03</pdfrwt>
<totfact> 0.56437398E+04</totfact>
</mgrwt>
</event>
<event>
 4    3  0.4022695E+000  0.2013409E+03  0.7546771E-02  0.1148613E+00
         21   -1    0    0  501  502  0.00000000000E+00  0.00000000000E+00  0.63237790268E+02  0.63237790268E+02  0.00000000000E+00 0. -1.
         21   -1    0    0  502  503 -0.00000000000E+00 -0.00000000000E+00 -0.83785794181E+03  0.83785794181E+03  0.00000000000E+00 0. -1.
          6    1    1    2  501    0 -0.20185657776E+02 -0.10100340952E+03 -0.16894425746E+03  0.26283133687E+03  0.17300000000E+03 0. -1.
         -6    1    1    2    0  503  0.20185657776E+02  0.10100340952E+03 -0.60567589408E+03  0.63826439520E+03  0.17300000000E+03 0. -1.
<mgrwt>
<rscale>  2 0.20134088E+03</rscale>
<asrwt>0</asrwt>
<pdfrwt beam="1">  1       21 0.97288910E-02 0.20134088E+03</pdfrwt>
<pdfrwt beam="2">  1       21 0.12890122E+00 0.20134088E+03</pdfrwt>
<totfact> 0.37427355E+04</totfact>
</mgrwt>
</event>
<event>
 4    3  0.4022695E+000  0.2542194E+03  0.7546771E-02  0.1110667E+00
         21   -1    0    0  503  502  0.00000000000E+00  0.00000000000E+00  0.12274508991E+03  0.12274508991E+03  0.00000000000E+00 0. -1.
         21   -1    0    0  501  503 -0.00000000000E+00 -0.00000000000E+00 -0.71591995408E+03  0.71591995408E+03  0.00000000000E+00 0.  1.
          6    1    1    2  501    0 -0.70319988303E+02 -0.17249225454E+03 -0.51227183116E+03  0.57188277438E+03  0.17300000000E+03 0.  1.
         -6    1    1    2    0  502  0.70319988303E+02  0.17249225454E+03 -0.80903033011E+02  0.26678226962E+03  0.17300000000E+03 0. -1.
<mgrwt>
<rscale>  2 0.25421935E+03</rscale>
<asrwt>0</asrwt>
<pdfrwt beam="1">  1       21 0.18883859E-01 0.25421935E+03</pdfrwt>
<pdfrwt beam="2">  1       21 0.11014154E+00 0.25421935E+03</pdfrwt>
<totfact> 0.16130582E+04</totfact>
</mgrwt>
</event>
<event>
 4    3  0.4022695E+000  0.2030963E+03  0.7546771E-02  0.1147153E+00
         21   -1    0    0  503  502  0.00000000000E+00  0.00000000000E+00  0.26024004500E+02  0.26024004500E+02  0.00000000000E+00 0.  1.
         21   -1    0    0  501  503 -0.00000000000E+00 -0.00000000000E+00 -0.18989553345E+04  0.18989553345E+04  0.00000000000E+00 0.  1.
          6    1    1    2  501    0 -0.38835584218E+02 -0.99049927472E+02 -0.13278211964E+04  0.13432636451E+04  0.17300000000E+03 0.  1.
         -6    1    1    2    0  502  0.38835584218E+02  0.99049927472E+02 -0.54511013358E+03  0.58171569384E+03  0.17300000000E+03 0.  1.
<mgrwt>
<rscale>  2 0.20309626E+03</rscale>
<asrwt>0</asrwt>
<pdfrwt beam="1">  1       21 0.40036927E-02 0.20309626E+03</pdfrwt>
<pdfrwt beam="2">  1       21 0.29214700E+00 0.20309626E+03</pdfrwt>
<totfact> 0.14666976E+04</totfact>
</mgrwt>
</event>
<event>
 4    3  0.4022695E+000  0.3855978E+03  0.7546771E-02  0.1048884E+00
         21   -1    0    0  501  502  0.00000000000E+00  0.00000000000E+00  0.22271052461E+04  0.22271052461E+04  0.00000000000E+00 0. -1.
         21   -1    0    0  502  503 -0.00000000000E+00 -0.00000000000E+00 -0.15325434433E+03  0.15325434433E+03  0.00000000000E+00 0. -1.
          6    1    1    2  501    0 -0.80516148956E+01 -0.34451676368E+03  0.19310446680E+04  0.19691671180E+04  0.17300000000E+03 0. -1.
         -6    1    1    2    0  503  0.80516148956E+01  0.34451676368E+03  0.14280623379E+03  0.41119247241E+03  0.17300000000E+03 0. -1.
<mgrwt>
<rscale>  2 0.38559776E+03</rscale>
<asrwt>0</asrwt>
<pdfrwt beam="1">  1       21 0.34263155E+00 0.38559776E+03</pdfrwt>
<pdfrwt beam="2">  1       21 0.23577593E-01 0.38559776E+03</pdfrwt>
<totfact> 0.26564831E+02</totfact>
</mgrwt>
</event>
<event>
 4    3  0.4022695E+000  0.2669362E+03  0.7546771E-02  0.1103046E+00
         21   -1    0    0  503  502  0.00000000000E+00  0.00000000000E+00  0.17371015049E+03  0.17371015049E+03  0.00000000000E+00 0. -1.
         21   -1    0    0  501  503 -0.00000000000E+00 -0.00000000000E+00 -0.42044996149E+03  0.42044996149E+03  0.00000000000E+00 0. -1.
          6    1    1    2  501    0  0.20145676436E+03  0.27223699752E+02 -0.16976721481E+03  0.31634769631E+03  0.17300000000E+03 0. -1.
         -6    1    1    2    0  502 -0.20145676436E+03 -0.27223699752E+02 -0.76972596189E+02  0.27781241567E+03  0.17300000000E+03 0. -1.
<mgrwt>
<rscale>  2 0.26693624E+03</rscale>
<asrwt>0</asrwt>
<pdfrwt beam="1">  1       21 0.26724639E-01 0.26693624E+03</pdfrwt>
<pdfrwt beam="2">  1       21 0.64684609E-01 0.26693624E+03</pdfrwt>
<totfact> 0.28306764E+04</totfact>
</mgrwt>
</event>
<event>
 4    3  0.4022695E+000  0.1881001E+03  0.7546771E-02  0.1160186E+00
         21   -1    0    0  503  502  0.00000000000E+00  0.00000000000E+00  0.26377323030E+03  0.26377323030E+03  0.00000000000E+00 0.  1.
         21   -1    0    0  501  503 -0.00000000000E+00 -0.00000000000E+00 -0.13690477804E+03  0.13690477804E+03  0.00000000000E+00 0.  1.
          6    1    1    2  501    0  0.73744460213E+02 -0.37938372926E+01  0.91921763224E+02  0.20935913920E+03  0.17300000000E+03 0.  1.
         -6    1    1    2    0  502 -0.73744460213E+02  0.37938372926E+01  0.34946689036E+02  0.19131886914E+03  0.17300000000E+03 0.  1.
<mgrwt>
<rscale>  2 0.18810008E+03</rscale>
<asrwt>0</asrwt>
<pdfrwt beam="1">  1       21 0.40580497E-01 0.18810008E+03</pdfrwt>
<pdfrwt beam="2">  1       21 0.21062274E-01 0.18810008E+03</pdfrwt>
<totfact> 0.12277144E+05</totfact>
</mgrwt>
</event>
<event>
 4    3  0.4022695E+000  0.1830170E+03  0.7546771E-02  0.1164915E+00
         21   -1    0    0  503  502  0.00000000000E+00  0.00000000000E+00  0.46415702401E+02  0.46415702401E+02  0.00000000000E+00 0. -1.
         21   -1    0    0  501  503 -0.00000000000E+00 -0.00000000000E+00 -0.79623126535E+03  0.79623126535E+03  0.00000000000E+00 0. -1.
          6    1    1    2  501    0 -0.59280628983E+02  0.72142939228E+01 -0.50386684210E+03  0.53607558570E+03  0.17300000000E+03 0. -1.
         -6    1    1    2    0  502  0.59280628983E+02 -0.72142939228E+01 -0.24594872085E+03  0.30657138206E+03  0.17300000000E+03 0. -1.
<mgrwt>
<rscale>  2 0.18301705E+03</rscale>
<asrwt>0</asrwt>
<pdfrwt beam="1">  1       21 0.71408773E-02 0.18301705E+03</pdfrwt>
<pdfrwt beam="2">  1       21 0.12249712E+00 0.18301705E+03</pdfrwt>
<totfact> 0.73661388E+04</totfact>
</mgrwt>
</event>
<event>
 4    3  0.4022695E+000  0.1738218E+03  0.7546771E-02  0.1173920E+00
         21   -1    0    0  503  502  0.00000000000E+00  0.00000000000E+00  0.59763585716E+02  0.59763585716E+02  0.00000000000E+00 0. -1.
         21   -1    0    0  501  503 -0.00000000000E+00 -0.00000000000E+00 -0.93985698482E+03  0.93985698482E+03  0.00000000000E+00 0. -1.
          6    1    1    2  501    0 -0.88441651853E+01 -0.14380687458E+02 -0.77980350865E+03  0.79894150946E+03  0.17300000000E+03 0. -1.
         -6    1    1    2    0  502  0.88441651853E+01  0.14380687458E+02 -0.10028989046E+03  0.20067906108E+03  0.17300000000E+03 0. -1.
<mgrwt>
<rscale>  2 0.17382182E+03</rscale>
<asrwt>0</asrwt>
<pdfrwt beam="1">  1       21 0.91943979E-02 0.17382182E+03</pdfrwt>
<pdfrwt beam="2">  1       21 0.14459338E+00 0.17382182E+03</pdfrwt>
<totfact> 0.31324463E+04</totfact>
</mgrwt>
</event>
<event>
 4    3  0.4022695E+000  0.2848234E+03  0.7546771E-02  0.1093083E+00
         21   -1    0    0  503  502  0.00000000000E+00  0.00000000000E+00  0.63579545899E+03  0.63579545899E+03  0.00000000000E+00 0. -1.
         21   -1    0    0  501  503 -0.00000000000E+00 -0.00000000000E+00 -0.22827445223E+03  0.22827445223E+03  0.00000000000E+00 0. -1.
          6    1    1    2  501    0  0.18415545872E+03  0.13146146372E+03  0.49068032991E+03  0.56735485861E+03  0.17300000000E+03 0. -1.
         -6    1    1    2    0  502 -0.18415545872E+03 -0.13146146372E+03 -0.83159323156E+02  0.29671505261E+03  0.17300000000E+03 0. -1.
<mgrwt>
<rscale>  2 0.28482337E+03</rscale>
<asrwt>0</asrwt>
<pdfrwt beam="1">  1       21 0.97814685E-01 0.28482337E+03</pdfrwt>
<pdfrwt beam="2">  1       21 0.35119147E-01 0.28482337E+03</pdfrwt>
<totfact> 0.63749676E+03</totfact>
</mgrwt>
</event>
<event>
 4    3  0.4022695E+000  0.2670416E+03  0.7546771E-02  0.1102985E+00
         21   -1    0    0  501  502  0.00000000000E+00  0.00000000000E+00  0.73078316227E+02  0.73078316227E+02  0.00000000000E+00 0.  1.
         21   -1    0    0  502  503 -0.00000000000E+00 -0.00000000000E+00 -0.10120474515E+04  0.10120474515E+04  0.00000000000E+00 0. -1.
          6    1    1    2  501    0 -0.17992946863E+03 -0.94908429861E+02 -0.36683116303E+03  0.45373596497E+03  0.17300000000E+03 0. -1.
         -6    1    1    2    0  503  0.17992946863E+03  0.94908429861E+02 -0.57213797226E+03  0.63138980277E+03  0.17300000000E+03 0.  1.
<mgrwt>
<rscale>  2 0.26704161E+03</rscale>
<asrwt>0</asrwt>
<pdfrwt beam="1">  1       21 0.11242818E-01 0.26704161E+03</pdfrwt>
<pdfrwt beam="2">  1       21 0.15569960E+00 0.26704161E+03</pdfrwt>
<totfact> 0.17056281E+04</totfact>
</mgrwt>
</event>
<event>
 4    3  0.4022695E+000  0.1976247E+03  0.7546771E-02  0.1151759E+00
         21   -1    0    0  501  502  0.00000000000E+00  0.00000000000E+00  0.76880497030E+03  0.76880497030E+03  0.00000000000E+00 0.  1.
         21   -1    0    0  502  503 -0.00000000000E+00 -0.00000000000E+00 -0.68413205968E+02  0.68413205968E+02  0.00000000000E+00 0.  1.
          6    1    1    2  501    0  0.10470664093E+02 -0.94957392971E+02  0.56259558193E+03  0.59629634419E+03  0.17300000000E+03 0.  1.
         -6    1    1    2    0  503 -0.10470664093E+02  0.94957392971E+02  0.13779618239E+03  0.24092183207E+03  0.17300000000E+03 0.  1.
<mgrwt>
<rscale>  2 0.19762475E+03</rscale>
<asrwt>0</asrwt>
<pdfrwt beam="1">  1       21 0.11827768E+00 0.19762475E+03</pdfrwt>
<pdfrwt beam="2">  1       21 0.10525109E-01 0.19762475E+03</pdfrwt>
<totfact> 0.40456655E+04</totfact>
</mgrwt>
</event>
<event>
 4    3  0.4022695E+000  0.1774764E+03  0.7546771E-02  0.1170268E+00
         21   -1    0    0  501  502  0.00000000000E+00  0.00000000000E+00  0.22189594604E+03  0.22189594604E+03  0.00000000000E+00 0. -1.
         21   -1    0    0  502  503 -0.00000000000E+00 -0.00000000000E+00 -0.20267116808E+03  0.20267116808E+03  0.00000000000E+00 0. -1.
          6    1    1    2  501    0  0.39559763251E+02 -0.19743602347E+01  0.12580929509E+03  0.21754505670E+03  0.17300000000E+03 0. -1.
         -6    1    1    2    0  503 -0.39559763251E+02  0.19743602347E+01 -0.10658451712E+03  0.20702205742E+03  0.17300000000E+03 0. -1.
<mgrwt>
<rscale>  2 0.17747640E+03</rscale>
<asrwt>0</asrwt>
<pdfrwt beam="1">  1       21 0.34137838E-01 0.17747640E+03</pdfrwt>
<pdfrwt beam="2">  1       21 0.31180180E-01 0.17747640E+03</pdfrwt>
<totfact> 0.82212931E+04</totfact>
</mgrwt>
</event>
<event>
 4    3  0.4022695E+000  0.1800936E+03  0.7546771E-02  0.1167713E+00
         21   -1    0    0  501  502  0.00000000000E+00  0.00000000000E+00  0.10159896409E+03  0.10159896409E+03  0.00000000000E+00 0.  1.
         21   -1    0    0  502  503 -0.00000000000E+00 -0.00000000000E+00 -0.32999836251E+03  0.32999836251E+03  0.00000000000E+00 0.  1.
          6    1    1    2  501    0 -0.31755610703E+02  0.38681717689E+02 -0.75221953441E+02  0.19517181245E+03  0.17300000000E+03 0.  1.
         -6    1    1    2    0  503  0.31755610703E+02 -0.38681717689E+02 -0.15317744498E+03  0.23642551416E+03  0.17300000000E+03 0.  1.
<mgrwt>
<rscale>  2 0.18009357E+03</rscale>
<asrwt>0</asrwt>
<pdfrwt beam="1">  1       21 0.15630610E-01 0.18009357E+03</pdfrwt>
<pdfrwt beam="2">  1       21 0.50768979E-01 0.18009357E+03</pdfrwt>
<totfact> 0.13488673E+05</totfact>
</mgrwt>
</event>
<event>
 4    3  0.4022695E+000  0.2859589E+03  0.7546771E-02  0.1092478E+00
         21   -1    0    0  501  502  0.00000000000E+00  0.00000000000E+00  0.25197595441E+03  0.25197595441E+03  0.00000000000E+00 0. -1.
         21   -1    0    0  502  503 -0.00000000000E+00 -0.00000000000E+00 -0.35183643337E+03  0.35183643337E+03  0.00000000000E+00 0. -1.
          6    1    1    2  501    0  0.21421651157E+03  0.77167261646E+02  0.34184819709E+02  0.28799496870E+03  0.17300000000E+03 0. -1.
         -6    1    1    2    0  503 -0.21421651157E+03 -0.77167261646E+02 -0.13404529868E+03  0.31581741908E+03  0.17300000000E+03 0. -1.
<mgrwt>
<rscale>  2 0.28595891E+03</rscale>
<asrwt>0</asrwt>
<pdfrwt beam="1">  1       21 0.38765532E-01 0.28595891E+03</pdfrwt>
<pdfrwt beam="2">  1       21 0.54128682E-01 0.28595891E+03</pdfrwt>
<totfact> 0.19742496E+04</totfact>
</mgrwt>
</event>
<event>
 4    3  0.4022695E+000  0.1991458E+03  0.7546771E-02  0.1150462E+00
         21   -1    0    0  501  502  0.00000000000E+00  0.00000000000E+00  0.35815021924E+02  0.35815021924E+02  0.00000000000E+00 0. -1.
         21   -1    0    0  502  503 -0.00000000000E+00 -0.00000000000E+00 -0.12150002663E+04  0.12150002663E+04  0.00000000000E+00 0.  1.
          6    1    1    2  501    0 -0.42119754883E+02  0.89196273185E+02 -0.40341698272E+03  0.44989366616E+03  0.17300000000E+03 0. -1.
         -6    1    1    2    0  503  0.42119754883E+02 -0.89196273185E+02 -0.77576826164E+03  0.80092162206E+03  0.17300000000E+03 0. -1.
<mgrwt>
<rscale>  2 0.19914580E+03</rscale>
<asrwt>0</asrwt>
<pdfrwt beam="1">  1       21 0.55100031E-02 0.19914580E+03</pdfrwt>
<pdfrwt beam="2">  1       21 0.18692313E+00 0.19914580E+03</pdfrwt>
<totfact> 0.37117049E+04</totfact>
</mgrwt>
</event>
<event>
 4    3  0.4022695E+000  0.1875477E+03  0.7546771E-02  0.1160692E+00
         21   -1    0    0  501  502  0.00000000000E+00  0.00000000000E+00  0.16075004175E+03  0.16075004175E+03  0.00000000000E+00 0.  1.
         21   -1    0    0  502  503 -0.00000000000E+00 -0.00000000000E+00 -0.22389046505E+03  0.22389046505E+03  0.00000000000E+00 0.  1.
          6    1    1    2  501    0  0.38999644160E+02 -0.61025938438E+02 -0.60533445479E+02  0.19707469505E+03  0.17300000000E+03 0.  1.
         -6    1    1    2    0  503 -0.38999644160E+02  0.61025938438E+02 -0.26069778187E+01  0.18756581176E+03  0.17300000000E+03 0.  1.
<mgrwt>
<rscale>  2 0.18754769E+03</rscale>
<asrwt>0</asrwt>
<pdfrwt beam="1">  1       21 0.24730776E-01 0.18754769E+03</pdfrwt>
<pdfrwt beam="2">  1       21 0.34444687E-01 0.18754769E+03</pdfrwt>
<totfact> 0.12582621E+05</totfact>
</mgrwt>
</event>
<event>
 4    3  0.4022695E+000  0.2074623E+03  0.7546771E-02  0.1143591E+00
         21   -1    0    0  501  502  0.00000000000E+00  0.00000000000E+00  0.20860989814E+04  0.20860989814E+04  0.00000000000E+00 0. -1.
         21   -1    0    0  502  503 -0.00000000000E+00 -0.00000000000E+00 -0.10638231741E+03  0.10638231741E+03  0.00000000000E+00 0. -1.
          6    1    1    2  501    0  0.11050342540E+03  0.30009944509E+02  0.19740706414E+04  0.19849421908E+04  0.17300000000E+03 0. -1.
         -6    1    1    2    0  503 -0.11050342540E+03 -0.30009944509E+02  0.56460226647E+01  0.20753910804E+03  0.17300000000E+03 0. -1.
<mgrwt>
<rscale>  2 0.20746229E+03</rscale>
<asrwt>0</asrwt>
<pdfrwt beam="1">  1       21 0.32093827E+00 0.20746229E+03</pdfrwt>
<pdfrwt beam="2">  1       21 0.16366512E-01 0.20746229E+03</pdfrwt>
<totfact> 0.84725330E+02</totfact>
</mgrwt>
</event>
<event>
 4    3  0.4022695E+000  0.1994667E+03  0.7546771E-02  0.1150190E+00
         21   -1    0    0  501  502  0.00000000000E+00  0.00000000000E+00  0.17555426561E+04  0.17555426561E+04  0.00000000000E+00 0.  1.
         21   -1    0    0  502  503 -0.00000000000E+00 -0.00000000000E+00 -0.22667714287E+02  0.22667714287E+02  0.00000000000E+00 0.  1.
          6    1    1    2  501    0 -0.89665837614E+02 -0.42638041920E+02  0.85449942791E+03  0.87747150230E+03  0.17300000000E+03 0.  1.
         -6    1    1    2    0  503  0.89665837614E+02  0.42638041920E+02  0.87837551387E+03  0.90073886805E+03  0.17300000000E+03 0.  1.
<mgrwt>
<rscale>  2 0.19946670E+03</rscale>
<asrwt>0</asrwt>
<pdfrwt beam="1">  1       21 0.27008338E+00 0.19946670E+03</pdfrwt>
<pdfrwt beam="2">  1       21 0.34873420E-02 0.19946670E+03</pdfrwt>
<totfact> 0.24871526E+04</totfact>
</mgrwt>
</event>
<event>
 4    3  0.4022695E+000  0.2228745E+03  0.7546771E-02  0.1131758E+00
         21   -1    0    0  501  502  0.00000000000E+00  0.00000000000E+00  0.11241374008E+03  0.11241374008E+03  0.00000000000E+00 0. -1.
         21   -1    0    0  502  503 -0.00000000000E+00 -0.00000000000E+00 -0.67545903438E+03  0.67545903438E+03  0.00000000000E+00 0. -1.
          6    1    1    2  501    0  0.11467087504E+03  0.81207366031E+02 -0.49865175828E+02  0.22838472287E+03  0.17300000000E+03 0. -1.
         -6    1    1    2    0  503 -0.11467087504E+03 -0.81207366031E+02 -0.51318011847E+03  0.55948805159E+03  0.17300000000E+03 0. -1.
<mgrwt>
<rscale>  2 0.22287451E+03</rscale>
<asrwt>0</asrwt>
<pdfrwt beam="1">  1       21 0.17294421E-01 0.22287451E+03</pdfrwt>
<pdfrwt beam="2">  1       21 0.10391678E+00 0.22287451E+03</pdfrwt>
<totfact> 0.22239932E+04</totfact>
</mgrwt>
</event>
<event>
 4    3  0.4022695E+000  0.2156010E+03  0.7546771E-02  0.1137206E+00
         21   -1    0    0  503  502  0.00000000000E+00  0.00000000000E+00  0.10043804882E+03  0.10043804882E+03  0.00000000000E+00 0.  1.
         21   -1    0    0  501  503 -0.00000000000E+00 -0.00000000000E+00 -0.10097351511E+04  0.10097351511E+04  0.00000000000E+00 0. -1.
          6    1    1    2  501    0 -0.10023703468E+03  0.80667919339E+02 -0.86317556885E+03  0.88969423904E+03  0.17300000000E+03 0. -1.
         -6    1    1    2    0  502  0.10023703468E+03 -0.80667919339E+02 -0.46121533405E+02  0.22047896085E+03  0.17300000000E+03 0. -1.
<mgrwt>
<rscale>  2 0.21560097E+03</rscale>
<asrwt>0</asrwt>
<pdfrwt beam="1">  1       21 0.15452008E-01 0.21560097E+03</pdfrwt>
<pdfrwt beam="2">  1       21 0.15534387E+00 0.21560097E+03</pdfrwt>
<totfact> 0.99533993E+03</totfact>
</mgrwt>
</event>
<event>
 4    3  0.4022695E+000  0.1858303E+03  0.7546771E-02  0.1162277E+00
         21   -1    0    0  503  502  0.00000000000E+00  0.00000000000E+00  0.25762635132E+03  0.25762635132E+03  0.00000000000E+00 0. -1.
         21   -1    0    0  501  503 -0.00000000000E+00 -0.00000000000E+00 -0.13448142308E+03  0.13448142308E+03  0.00000000000E+00 0. -1.
          6    1    1    2  501    0 -0.67693321449E+02 -0.46383170207E+01  0.50372904111E+02  0.19253656594E+03  0.17300000000E+03 0. -1.
         -6    1    1    2    0  502  0.67693321449E+02  0.46383170207E+01  0.72772024125E+02  0.19957120847E+03  0.17300000000E+03 0. -1.
<mgrwt>
<rscale>  2 0.18583030E+03</rscale>
<asrwt>0</asrwt>
<pdfrwt beam="1">  1       21 0.39634823E-01 0.18583030E+03</pdfrwt>
<pdfrwt beam="2">  1       21 0.20689450E-01 0.18583030E+03</pdfrwt>
<totfact> 0.13324432E+05</totfact>
</mgrwt>
</event>
<event>
 4    3  0.4022695E+000  0.1743433E+03  0.7546771E-02  0.1173393E+00
         21   -1    0    0  503  502  0.00000000000E+00  0.00000000000E+00  0.30304672989E+02  0.30304672989E+02  0.00000000000E+00 0. -1.
         21   -1    0    0  501  503 -0.00000000000E+00 -0.00000000000E+00 -0.10706880616E+04  0.10706880616E+04  0.00000000000E+00 0. -1.
          6    1    1    2  501    0  0.18582388549E+02  0.11012052163E+02 -0.38177745572E+03  0.41970179432E+03  0.17300000000E+03 0. -1.
         -6    1    1    2    0  502 -0.18582388549E+02 -0.11012052163E+02 -0.65860593285E+03  0.68129094023E+03  0.17300000000E+03 0. -1.
<mgrwt>
<rscale>  2 0.17434325E+03</rscale>
<asrwt>0</asrwt>
<pdfrwt beam="1">  1       21 0.46622578E-02 0.17434325E+03</pdfrwt>
<pdfrwt beam="2">  1       21 0.16472123E+00 0.17434325E+03</pdfrwt>
<totfact> 0.71148948E+04</totfact>
</mgrwt>
</event>
<event>
 4    3  0.4022695E+000  0.1832150E+03  0.7546771E-02  0.1164727E+00
         21   -1    0    0  503  502  0.00000000000E+00  0.00000000000E+00  0.20382218485E+03  0.20382218485E+03  0.00000000000E+00 0. -1.
         21   -1    0    0  501  503 -0.00000000000E+00 -0.00000000000E+00 -0.18744287701E+03  0.18744287701E+03  0.00000000000E+00 0. -1.
          6    1    1    2  501    0 -0.11320012692E+02 -0.59250216344E+02 -0.59967714301E+02  0.19277929760E+03  0.17300000000E+03 0. -1.
         -6    1    1    2    0  502  0.11320012692E+02  0.59250216344E+02  0.76347022148E+02  0.19848576426E+03  0.17300000000E+03 0. -1.
<mgrwt>
<rscale>  2 0.18321499E+03</rscale>
<asrwt>0</asrwt>
<pdfrwt beam="1">  1       21 0.31357259E-01 0.18321499E+03</pdfrwt>
<pdfrwt beam="2">  1       21 0.28837366E-01 0.18321499E+03</pdfrwt>
<totfact> 0.11285007E+05</totfact>
</mgrwt>
</event>
<event>
 4    3  0.4022695E+000  0.2172632E+03  0.7546771E-02  0.1135940E+00
         21   -1    0    0  501  502  0.00000000000E+00  0.00000000000E+00  0.48015443076E+02  0.48015443076E+02  0.00000000000E+00 0.  1.
         21   -1    0    0  502  503 -0.00000000000E+00 -0.00000000000E+00 -0.10297502707E+04  0.10297502707E+04  0.00000000000E+00 0. -1.
          6    1    1    2  501    0  0.48738664039E+02  0.12206085500E+03 -0.37615229244E+03  0.43438906156E+03  0.17300000000E+03 0.  1.
         -6    1    1    2    0  503 -0.48738664039E+02 -0.12206085500E+03 -0.60558253520E+03  0.64337665223E+03  0.17300000000E+03 0.  1.
<mgrwt>
<rscale>  2 0.21726323E+03</rscale>
<asrwt>0</asrwt>
<pdfrwt beam="1">  1       21 0.73869918E-02 0.21726323E+03</pdfrwt>
<pdfrwt beam="2">  1       21 0.15842311E+00 0.21726323E+03</pdfrwt>
<totfact> 0.35099286E+04</totfact>
</mgrwt>
</event>
<event>
 4    3  0.4022695E+000  0.2235578E+03  0.7546771E-02  0.1131258E+00
         21   -1    0    0  501  502  0.00000000000E+00  0.00000000000E+00  0.14730598700E+03  0.14730598700E+03  0.00000000000E+00 0. -1.
         21   -1    0    0  502  503 -0.00000000000E+00 -0.00000000000E+00 -0.45771292430E+03  0.45771292430E+03  0.00000000000E+00 0.  1.
          6    1    1    2  501    0 -0.10100250181E+03  0.99234950986E+02 -0.13252045845E+01  0.22356170744E+03  0.17300000000E+03 0. -1.
         -6    1    1    2    0  503  0.10100250181E+03 -0.99234950986E+02 -0.30908173272E+03  0.38145720385E+03  0.17300000000E+03 0. -1.
<mgrwt>
<rscale>  2 0.22355778E+03</rscale>
<asrwt>0</asrwt>
<pdfrwt beam="1">  1       21 0.22662460E-01 0.22355778E+03</pdfrwt>
<pdfrwt beam="2">  1       21 0.70417371E-01 0.22355778E+03</pdfrwt>
<totfact> 0.32841006E+04</totfact>
</mgrwt>
</event>
<event>
 4    3  0.4022695E+000  0.2933320E+03  0.7546771E-02  0.1088622E+00
         21   -1    0    0  501  502  0.00000000000E+00  0.00000000000E+00  0.29712992351E+03  0.29712992351E+03  0.00000000000E+00 0.  1.
         21   -1    0    0  502  503 -0.00000000000E+00 -0.00000000000E+00 -0.31430714454E+03  0.31430714454E+03  0.00000000000E+00 0. -1.
          6    1    1    2  501    0  0.13202735679E+03  0.19668103455E+03  0.77156407371E+02  0.30330968249E+03  0.17300000000E+03 0.  1.
         -6    1    1    2    0  503 -0.13202735679E+03 -0.19668103455E+03 -0.94333628399E+02  0.30812738557E+03  0.17300000000E+03 0. -1.
<mgrwt>
<rscale>  2 0.29333198E+03</rscale>
<asrwt>0</asrwt>
<pdfrwt beam="1">  1       21 0.45712296E-01 0.29333198E+03</pdfrwt>
<pdfrwt beam="2">  1       21 0.48354945E-01 0.29333198E+03</pdfrwt>
<totfact> 0.17803267E+04</totfact>
</mgrwt>
</event>
<event>
 4    3  0.4022695E+000  0.2058306E+03  0.7546771E-02  0.1144911E+00
         21   -1    0    0  501  502  0.00000000000E+00  0.00000000000E+00  0.59554639883E+03  0.59554639883E+03  0.00000000000E+00 0.  1.
         21   -1    0    0  502  503 -0.00000000000E+00 -0.00000000000E+00 -0.77529995713E+02  0.77529995713E+02  0.00000000000E+00 0.  1.
          6    1    1    2  501    0 -0.27004405061E+02  0.10820352908E+03  0.35563615530E+03  0.41090548372E+03  0.17300000000E+03 0.  1.
         -6    1    1    2    0  503  0.27004405061E+02 -0.10820352908E+03  0.16238024782E+03  0.26217091082E+03  0.17300000000E+03 0.  1.
<mgrwt>
<rscale>  2 0.20583061E+03</rscale>
<asrwt>0</asrwt>
<pdfrwt beam="1">  1       21 0.91622520E-01 0.20583061E+03</pdfrwt>
<pdfrwt beam="2">  1       21 0.11927692E-01 0.20583061E+03</pdfrwt>
<totfact> 0.59409958E+04</totfact>
</mgrwt>
</event>
<event>
 4    3  0.4022695E+000  0.2145066E+03  0.7546771E-02  0.1138046E+00
         21   -1    0    0  503  502  0.00000000000E+00  0.00000000000E+00  0.14385030530E+03  0.14385030530E+03  0.00000000000E+00 0.  1.
         21   -1    0    0  501  503 -0.00000000000E+00 -0.00000000000E+00 -0.33839074174E+03  0.33839074174E+03  0.00000000000E+00 0.  1.
          6    1    1    2  501    0 -0.48154276506E+02 -0.11732537416E+03 -0.40857092989E+02  0.21836295431E+03  0.17300000000E+03 0.  1.
         -6    1    1    2    0  502  0.48154276506E+02  0.11732537416E+03 -0.15368334345E+03  0.26387809273E+03  0.17300000000E+03 0.  1.
<mgrwt>
<rscale>  2 0.21450659E+03</rscale>
<asrwt>0</asrwt>
<pdfrwt beam="1">  1       21 0.22130816E-01 0.21450659E+03</pdfrwt>
<pdfrwt beam="2">  1       21 0.52060114E-01 0.21450659E+03</pdfrwt>
<totfact> 0.66195247E+04</totfact>
</mgrwt>
</event>
<event>
 4    3  0.4022695E+000  0.2225208E+03  0.7546771E-02  0.1132018E+00
         21   -1    0    0  501  502  0.00000000000E+00  0.00000000000E+00  0.57994635967E+03  0.57994635967E+03  0.00000000000E+00 0. -1.
         21   -1    0    0  502  503 -0.00000000000E+00 -0.00000000000E+00 -0.10971147151E+03  0.10971147151E+03  0.00000000000E+00 0.  1.
          6    1    1    2  501    0 -0.13291452606E+03 -0.43820497045E+02  0.39751020301E+03  0.45555446293E+03  0.17300000000E+03 0.  1.
         -6    1    1    2    0  503  0.13291452606E+03  0.43820497045E+02  0.72724685153E+02  0.23410336826E+03  0.17300000000E+03 0.  1.
<mgrwt>
<rscale>  2 0.22252080E+03</rscale>
<asrwt>0</asrwt>
<pdfrwt beam="1">  1       21 0.89222515E-01 0.22252080E+03</pdfrwt>
<pdfrwt beam="2">  1       21 0.16878688E-01 0.22252080E+03</pdfrwt>
<totfact> 0.33346546E+04</totfact>
</mgrwt>
</event>
<event>
 4    3  0.4022695E+000  0.2120028E+03  0.7546771E-02  0.1139990E+00
         21   -1    0    0  501  502  0.00000000000E+00  0.00000000000E+00  0.69831121146E+03  0.69831121146E+03  0.00000000000E+00 0.  1.
         21   -1    0    0  502  503 -0.00000000000E+00 -0.00000000000E+00 -0.67943270099E+02  0.67943270099E+02  0.00000000000E+00 0.  1.
          6    1    1    2  501    0 -0.11943690930E+03 -0.27404521156E+02  0.40313621687E+03  0.45548215380E+03  0.17300000000E+03 0.  1.
         -6    1    1    2    0  503  0.11943690930E+03  0.27404521156E+02  0.22723172449E+03  0.31077232775E+03  0.17300000000E+03 0.  1.
<mgrwt>
<rscale>  2 0.21200279E+03</rscale>
<asrwt>0</asrwt>
<pdfrwt beam="1">  1       21 0.10743249E+00 0.21200279E+03</pdfrwt>
<pdfrwt beam="2">  1       21 0.10452811E-01 0.21200279E+03</pdfrwt>
<totfact> 0.51369968E+04</totfact>
</mgrwt>
</event>
<event>
 4    3  0.4022695E+000  0.1995501E+03  0.7546771E-02  0.1150119E+00
         21   -1    0    0  503  502  0.00000000000E+00  0.00000000000E+00  0.35238337693E+02  0.35238337693E+02  0.00000000000E+00 0.  1.
         21   -1    0    0  501  503 -0.00000000000E+00 -0.00000000000E+00 -0.16464030303E+04  0.16464030303E+04  0.00000000000E+00 0.  1.
          6    1    1    2  501    0 -0.97333546908E+02 -0.20431170822E+02 -0.12764714005E+04  0.12919750340E+04  0.17300000000E+03 0.  1.
         -6    1    1    2    0  502  0.97333546908E+02  0.20431170822E+02 -0.33469329213E+03  0.38966633405E+03  0.17300000000E+03 0.  1.
<mgrwt>
<rscale>  2 0.19955012E+03</rscale>
<asrwt>0</asrwt>
<pdfrwt beam="1">  1       21 0.54212819E-02 0.19955012E+03</pdfrwt>
<pdfrwt beam="2">  1       21 0.25329281E+00 0.19955012E+03</pdfrwt>
<totfact> 0.14817138E+04</totfact>
</mgrwt>
</event>
<event>
 4    3  0.4022695E+000  0.1792490E+03  0.7546771E-02  0.1168532E+00
         21   -1    0    0  501  502  0.00000000000E+00  0.00000000000E+00  0.10908084184E+03  0.10908084184E+03  0.00000000000E+00 0.  1.
         21   -1    0    0  502  503 -0.00000000000E+00 -0.00000000000E+00 -0.56250545607E+03  0.56250545607E+03  0.00000000000E+00 0.  1.
          6    1    1    2  501    0  0.24920533835E+02 -0.39751411726E+02  0.50466094634E+01  0.17932003794E+03  0.17300000000E+03 0.  1.
         -6    1    1    2    0  503 -0.24920533835E+02  0.39751411726E+02 -0.45847122369E+03  0.49226625996E+03  0.17300000000E+03 0.  1.
<mgrwt>
<rscale>  2 0.17924901E+03</rscale>
<asrwt>0</asrwt>
<pdfrwt beam="1">  1       21 0.16781668E-01 0.17924901E+03</pdfrwt>
<pdfrwt beam="2">  1       21 0.86539300E-01 0.17924901E+03</pdfrwt>
<totfact> 0.36999721E+04</totfact>
</mgrwt>
</event>
<event>
 4    3  0.4022695E+000  0.1840228E+03  0.7546771E-02  0.1163966E+00
         21   -1    0    0  501  502  0.00000000000E+00  0.00000000000E+00  0.23767752982E+03  0.23767752982E+03  0.00000000000E+00 0. -1.
         21   -1    0    0  502  503 -0.00000000000E+00 -0.00000000000E+00 -0.15464305459E+03  0.15464305459E+03  0.00000000000E+00 0. -1.
          6    1    1    2  501    0  0.37530962460E+02  0.50267320768E+02  0.96529694480E+02  0.20780365395E+03  0.17300000000E+03 0. -1.
         -6    1    1    2    0  503 -0.37530962460E+02 -0.50267320768E+02 -0.13495219254E+02  0.18451693045E+03  0.17300000000E+03 0. -1.
<mgrwt>
<rscale>  2 0.18402276E+03</rscale>
<asrwt>0</asrwt>
<pdfrwt beam="1">  1       21 0.36565774E-01 0.18402276E+03</pdfrwt>
<pdfrwt beam="2">  1       21 0.23791239E-01 0.18402276E+03</pdfrwt>
<totfact> 0.12042795E+05</totfact>
</mgrwt>
</event>
<event>
 4    3  0.4022695E+000  0.2187913E+03  0.7546771E-02  0.1134787E+00
         21   -1    0    0  501  502  0.00000000000E+00  0.00000000000E+00  0.22688130423E+04  0.22688130423E+04  0.00000000000E+00 0. -1.
         21   -1    0    0  502  503 -0.00000000000E+00 -0.00000000000E+00 -0.45045526099E+02  0.45045526099E+02  0.00000000000E+00 0.  1.
          6    1    1    2  501    0 -0.23277038554E+02  0.13190461375E+03  0.19554173788E+04  0.19676195702E+04  0.17300000000E+03 0. -1.
         -6    1    1    2    0  503  0.23277038554E+02 -0.13190461375E+03  0.26835013747E+03  0.34623899828E+03  0.17300000000E+03 0.  1.
<mgrwt>
<rscale>  2 0.21879133E+03</rscale>
<asrwt>0</asrwt>
<pdfrwt beam="1">  1       21 0.34904807E+00 0.21879133E+03</pdfrwt>
<pdfrwt beam="2">  1       21 0.69300827E-02 0.21879133E+03</pdfrwt>
<totfact> 0.26375574E+03</totfact>
</mgrwt>
</event>
<event>
 4    3  0.4022695E+000  0.2374592E+03  0.7546771E-02  0.1121497E+00
         21   -1    0    0  501  502  0.00000000000E+00  0.00000000000E+00  0.21022256431E+02  0.21022256431E+02  0.00000000000E+00 0. -1.
         21   -1    0    0  502  503 -0.00000000000E+00 -0.00000000000E+00 -0.27305487687E+04  0.27305487687E+04  0.00000000000E+00 0.  1.
          6    1    1    2  501    0  0.94647815603E+02  0.13228623042E+03 -0.11717791487E+04  0.11955974361E+04  0.17300000000E+03 0. -1.
         -6    1    1    2    0  503 -0.94647815603E+02 -0.13228623042E+03 -0.15377473635E+04  0.15559735890E+04  0.17300000000E+03 0.  1.
<mgrwt>
<rscale>  2 0.23745917E+03</rscale>
<asrwt>0</asrwt>
<pdfrwt beam="1">  1       21 0.32341939E-02 0.23745917E+03</pdfrwt>
<pdfrwt beam="2">  1       21 0.42008435E+00 0.23745917E+03</pdfrwt>
<totfact> 0.34322180E+03</totfact>
</mgrwt>
</event>
<event>
 4    3  0.4022695E+000  0.2700110E+03  0.7546771E-02  0.1101273E+00
         21   -1    0    0  501  502  0.00000000000E+00  0.00000000000E+00  0.54671729725E+03  0.54671729725E+03  0.00000000000E+00 0.  1.
         21   -1    0    0  502  503 -0.00000000000E+00 -0.00000000000E+00 -0.17544907930E+03  0.17544907930E+03  0.00000000000E+00 0. -1.
          6    1    1    2  501    0  0.10987734708E+03  0.17579502869E+03  0.36250524447E+03  0.45201324735E+03  0.17300000000E+03 0.  1.
         -6    1    1    2    0  503 -0.10987734708E+03 -0.17579502869E+03  0.87629734841E+01  0.27015312920E+03  0.17300000000E+03 0.  1.
<mgrwt>
<rscale>  2 0.27001097E+03</rscale>
<asrwt>0</asrwt>
<pdfrwt beam="1">  1       21 0.84110353E-01 0.27001097E+03</pdfrwt>
<pdfrwt beam="2">  1       21 0.26992166E-01 0.27001097E+03</pdfrwt>
<totfact> 0.15371349E+04</totfact>
</mgrwt>
</event>
<event>
 4    3  0.4022695E+000  0.1844782E+03  0.7546771E-02  0.1163538E+00
         21   -1    0    0  501  502  0.00000000000E+00  0.00000000000E+00  0.17759444560E+04  0.17759444560E+04  0.00000000000E+00 0.  1.
         21   -1    0    0  502  503 -0.00000000000E+00 -0.00000000000E+00 -0.69162086916E+02  0.69162086916E+02  0.00000000000E+00 0.  1.
          6    1    1    2  501    0 -0.57770118985E+02 -0.27673690168E+02  0.16377936386E+04  0.16481505460E+04  0.17300000000E+03 0.  1.
         -6    1    1    2    0  503  0.57770118985E+02  0.27673690168E+02  0.68988730500E+02  0.19695599689E+03  0.17300000000E+03 0.  1.
<mgrwt>
<rscale>  2 0.18447824E+03</rscale>
<asrwt>0</asrwt>
<pdfrwt beam="1">  1       21 0.27322219E+00 0.18447824E+03</pdfrwt>
<pdfrwt beam="2">  1       21 0.10640322E-01 0.18447824E+03</pdfrwt>
<totfact> 0.35740985E+03</totfact>
</mgrwt>
</event>
<event>
 4    3  0.4022695E+000  0.2455838E+03  0.7546771E-02  0.1116128E+00
         21   -1    0    0  501  502  0.00000000000E+00  0.00000000000E+00  0.20035120703E+03  0.20035120703E+03  0.00000000000E+00 0.  1.
         21   -1    0    0  502  503 -0.00000000000E+00 -0.00000000000E+00 -0.37708681584E+03  0.37708681584E+03  0.00000000000E+00 0. -1.
          6    1    1    2  501    0  0.16879564719E+03 -0.43478859952E+02  0.41298953532E+02  0.24903209700E+03  0.17300000000E+03 0.  1.
         -6    1    1    2    0  503 -0.16879564719E+03  0.43478859952E+02 -0.21803456234E+03  0.32840592587E+03  0.17300000000E+03 0. -1.
<mgrwt>
<rscale>  2 0.24558376E+03</rscale>
<asrwt>0</asrwt>
<pdfrwt beam="1">  1       21 0.30823263E-01 0.24558376E+03</pdfrwt>
<pdfrwt beam="2">  1       21 0.58013356E-01 0.24558376E+03</pdfrwt>
<totfact> 0.27390002E+04</totfact>
</mgrwt>
</event>
<event>
 4    3  0.4022695E+000  0.1755417E+03  0.7546771E-02  0.1172189E+00
         21   -1    0    0  501  502  0.00000000000E+00  0.00000000000E+00  0.55162123177E+03  0.55162123177E+03  0.00000000000E+00 0.  1.
         21   -1    0    0  502  503 -0.00000000000E+00 -0.00000000000E+00 -0.13476056117E+03  0.13476056117E+03  0.00000000000E+00 0.  1.
          6    1    1    2  501    0 -0.32389242969E+01 -0.29587418266E+02  0.47102608623E+03  0.50267333315E+03  0.17300000000E+03 0.  1.
         -6    1    1    2    0  503  0.32389242969E+01  0.29587418266E+02 -0.54165415632E+02  0.18370845980E+03  0.17300000000E+03 0.  1.
<mgrwt>
<rscale>  2 0.17554175E+03</rscale>
<asrwt>0</asrwt>
<pdfrwt beam="1">  1       21 0.84864803E-01 0.17554175E+03</pdfrwt>
<pdfrwt beam="2">  1       21 0.20732394E-01 0.17554175E+03</pdfrwt>
<totfact> 0.26211589E+04</totfact>
</mgrwt>
</event>
<event>
 4    3  0.4022695E+000  0.1997587E+03  0.7546771E-02  0.1149943E+00
         21   -1    0    0  503  502  0.00000000000E+00  0.00000000000E+00  0.52402161862E+02  0.52402161862E+02  0.00000000000E+00 0.  1.
         21   -1    0    0  501  503 -0.00000000000E+00 -0.00000000000E+00 -0.76990132437E+03  0.76990132437E+03  0.00000000000E+00 0. -1.
          6    1    1    2  501    0 -0.48194714471E+02 -0.87474601830E+02 -0.40173372629E+03  0.44865746768E+03  0.17300000000E+03 0.  1.
         -6    1    1    2    0  502  0.48194714471E+02  0.87474601830E+02 -0.31576543622E+03  0.37364601855E+03  0.17300000000E+03 0. -1.
<mgrwt>
<rscale>  2 0.19975870E+03</rscale>
<asrwt>0</asrwt>
<pdfrwt beam="1">  1       21 0.80618710E-02 0.19975870E+03</pdfrwt>
<pdfrwt beam="2">  1       21 0.11844636E+00 0.19975870E+03</pdfrwt>
<totfact> 0.64350128E+04</totfact>
</mgrwt>
</event>
<event>
 4    3  0.4022695E+000  0.2079673E+03  0.7546771E-02  0.1143186E+00
         21   -1    0    0  501  502  0.00000000000E+00  0.00000000000E+00  0.83047350136E+03  0.83047350136E+03  0.00000000000E+00 0.  1.
         21   -1    0    0  502  503 -0.00000000000E+00 -0.00000000000E+00 -0.14364463440E+03  0.14364463440E+03  0.00000000000E+00 0. -1.
          6    1    1    2  501    0 -0.21866198114E+02  0.11332812760E+03  0.73228288476E+03  0.76124149810E+03  0.17300000000E+03 0.  1.
         -6    1    1    2    0  503  0.21866198114E+02 -0.11332812760E+03 -0.45454017804E+02  0.21287663766E+03  0.17300000000E+03 0. -1.
<mgrwt>
<rscale>  2 0.20796729E+03</rscale>
<asrwt>0</asrwt>
<pdfrwt beam="1">  1       21 0.12776515E+00 0.20796729E+03</pdfrwt>
<pdfrwt beam="2">  1       21 0.22099175E-01 0.20796729E+03</pdfrwt>
<totfact> 0.85451629E+03</totfact>
</mgrwt>
</event>
<event>
 4    3  0.4022695E+000  0.1817713E+03  0.7546771E-02  0.1166100E+00
         21   -1    0    0  501  502  0.00000000000E+00  0.00000000000E+00  0.17418729171E+04  0.17418729171E+04  0.00000000000E+00 0.  1.
         21   -1    0    0  502  503 -0.00000000000E+00 -0.00000000000E+00 -0.46034996170E+02  0.46034996170E+02  0.00000000000E+00 0.  1.
          6    1    1    2  501    0 -0.54228679166E+02  0.13078841161E+02  0.15333861999E+04  0.15441224186E+04  0.17300000000E+03 0. -1.
         -6    1    1    2    0  503  0.54228679166E+02 -0.13078841161E+02  0.16245172108E+03  0.24378549467E+03  0.17300000000E+03 0. -1.
<mgrwt>
<rscale>  2 0.18177130E+03</rscale>
<asrwt>0</asrwt>
<pdfrwt beam="1">  1       21 0.26798040E+00 0.18177130E+03</pdfrwt>
<pdfrwt beam="2">  1       21 0.70823084E-02 0.18177130E+03</pdfrwt>
<totfact> 0.78309551E+03</totfact>
</mgrwt>
</event>
<event>
 4    3  0.4022695E+000  0.1910619E+03  0.7546771E-02  0.1157507E+00
         21   -1    0    0  501  502  0.00000000000E+00  0.00000000000E+00  0.40138986382E+03  0.40138986382E+03  0.00000000000E+00 0.  1.
         21   -1    0    0  502  503 -0.00000000000E+00 -0.00000000000E+00 -0.16260206501E+03  0.16260206501E+03  0.00000000000E+00 0.  1.
          6    1    1    2  501    0  0.38968563656E+02 -0.71113238179E+02  0.30659463791E+03  0.36125463816E+03  0.17300000000E+03 0.  1.
         -6    1    1    2    0  503 -0.38968563656E+02  0.71113238179E+02 -0.67806839096E+02  0.20273729066E+03  0.17300000000E+03 0.  1.
<mgrwt>
<rscale>  2 0.19106188E+03</rscale>
<asrwt>0</asrwt>
<pdfrwt beam="1">  1       21 0.61752287E-01 0.19106188E+03</pdfrwt>
<pdfrwt beam="2">  1       21 0.25015702E-01 0.19106188E+03</pdfrwt>
<totfact> 0.36877526E+04</totfact>
</mgrwt>
</event>
<event>
 4    3  0.4022695E+000  0.2083496E+03  0.7546771E-02  0.1142880E+00
         21   -1    0    0  501  502  0.00000000000E+00  0.00000000000E+00  0.18814266097E+02  0.18814266097E+02  0.00000000000E+00 0.  1.
         21   -1    0    0  502  503 -0.00000000000E+00 -0.00000000000E+00 -0.25976230218E+04  0.25976230218E+04  0.00000000000E+00 0.  1.
          6    1    1    2  501    0 -0.35118998444E+02  0.11066713317E+03 -0.17267822138E+04  0.17393062905E+04  0.17300000000E+03 0.  1.
         -6    1    1    2    0  503  0.35118998444E+02 -0.11066713317E+03 -0.85202654188E+03  0.87713099734E+03  0.17300000000E+03 0.  1.
<mgrwt>
<rscale>  2 0.20834961E+03</rscale>
<asrwt>0</asrwt>
<pdfrwt beam="1">  1       21 0.28945041E-02 0.20834961E+03</pdfrwt>
<pdfrwt beam="2">  1       21 0.39963409E+00 0.20834961E+03</pdfrwt>
<totfact> 0.57617295E+03</totfact>
</mgrwt>
</event>
<event>
 4    3  0.4022695E+000  0.1963435E+03  0.7546771E-02  0.1152861E+00
         21   -1    0    0  503  502  0.00000000000E+00  0.00000000000E+00  0.61239870772E+02  0.61239870772E+02  0.00000000000E+00 0. -1.
         21   -1    0    0  501  503 -0.00000000000E+00 -0.00000000000E+00 -0.70730710363E+03  0.70730710363E+03  0.00000000000E+00 0. -1.
          6    1    1    2  501    0  0.83685723371E+02  0.40230211141E+02 -0.45048180328E+03  0.49141085180E+03  0.17300000000E+03 0. -1.
         -6    1    1    2    0  502 -0.83685723371E+02 -0.40230211141E+02 -0.19558542957E+03  0.27713612259E+03  0.17300000000E+03 0. -1.
<mgrwt>
<rscale>  2 0.19634350E+03</rscale>
<asrwt>0</asrwt>
<pdfrwt beam="1">  1       21 0.94215191E-02 0.19634350E+03</pdfrwt>
<pdfrwt beam="2">  1       21 0.10881647E+00 0.19634350E+03</pdfrwt>
<totfact> 0.60317091E+04</totfact>
</mgrwt>
</event>
<event>
 4    3  0.4022695E+000  0.1903735E+03  0.7546771E-02  0.1158125E+00
         21   -1    0    0  503  502  0.00000000000E+00  0.00000000000E+00  0.27985928449E+03  0.27985928449E+03  0.00000000000E+00 0.  1.
         21   -1    0    0  501  503 -0.00000000000E+00 -0.00000000000E+00 -0.14168965536E+03  0.14168965536E+03  0.00000000000E+00 0.  1.
          6    1    1    2  501    0  0.54379953887E+02 -0.57929982516E+02  0.72651690349E+01  0.19051205983E+03  0.17300000000E+03 0.  1.
         -6    1    1    2    0  502 -0.54379953887E+02  0.57929982516E+02  0.13090446009E+03  0.23103688002E+03  0.17300000000E+03 0.  1.
<mgrwt>
<rscale>  2 0.19037348E+03</rscale>
<asrwt>0</asrwt>
<pdfrwt beam="1">  1       21 0.43055274E-01 0.19037348E+03</pdfrwt>
<pdfrwt beam="2">  1       21 0.21798409E-01 0.19037348E+03</pdfrwt>
<totfact> 0.10197118E+05</totfact>
</mgrwt>
</event>
<event>
 4    3  0.4022695E+000  0.1890332E+03  0.7546771E-02  0.1159336E+00
         21   -1    0    0  503  502  0.00000000000E+00  0.00000000000E+00  0.11733456393E+04  0.11733456393E+04  0.00000000000E+00 0. -1.
         21   -1    0    0  501  503 -0.00000000000E+00 -0.00000000000E+00 -0.30832689161E+02  0.30832689161E+02  0.00000000000E+00 0.  1.
          6    1    1    2  501    0 -0.14349538399E+02 -0.74824048632E+02  0.50456625785E+03  0.53881412014E+03  0.17300000000E+03 0.  1.
         -6    1    1    2    0  502  0.14349538399E+02  0.74824048632E+02  0.63794669230E+03  0.66536420833E+03  0.17300000000E+03 0. -1.
<mgrwt>
<rscale>  2 0.18903319E+03</rscale>
<asrwt>0</asrwt>
<pdfrwt beam="1">  1       21 0.18051468E+00 0.18903319E+03</pdfrwt>
<pdfrwt beam="2">  1       21 0.47434915E-02 0.18903319E+03</pdfrwt>
<totfact> 0.53197390E+04</totfact>
</mgrwt>
</event>
<event>
 4    3  0.4022695E+000  0.1751880E+03  0.7546771E-02  0.1172543E+00
         21   -1    0    0  501  502  0.00000000000E+00  0.00000000000E+00  0.40450658475E+03  0.40450658475E+03  0.00000000000E+00 0.  1.
         21   -1    0    0  502  503 -0.00000000000E+00 -0.00000000000E+00 -0.80091594431E+02  0.80091594431E+02  0.00000000000E+00 0.  1.
          6    1    1    2  501    0  0.23328381304E+02  0.14752118201E+02  0.21782084642E+03  0.27952953243E+03  0.17300000000E+03 0.  1.
         -6    1    1    2    0  503 -0.23328381304E+02 -0.14752118201E+02  0.10659414389E+03  0.20506864675E+03  0.17300000000E+03 0.  1.
<mgrwt>
<rscale>  2 0.17518801E+03</rscale>
<asrwt>0</asrwt>
<pdfrwt beam="1">  1       21 0.62231781E-01 0.17518801E+03</pdfrwt>
<pdfrwt beam="2">  1       21 0.12321784E-01 0.17518801E+03</pdfrwt>
<totfact> 0.13486680E+05</totfact>
</mgrwt>
</event>
<event>
 4    3  0.4022695E+000  0.1824017E+03  0.7546771E-02  0.1165499E+00
         21   -1    0    0  503  502  0.00000000000E+00  0.00000000000E+00  0.35369871448E+02  0.35369871448E+02  0.00000000000E+00 0. -1.
         21   -1    0    0  501  503 -0.00000000000E+00 -0.00000000000E+00 -0.13825751225E+04  0.13825751225E+04  0.00000000000E+00 0. -1.
          6    1    1    2  501    0 -0.51403006823E+02  0.26440756174E+02 -0.10744355154E+04  0.10898082673E+04  0.17300000000E+03 0. -1.
         -6    1    1    2    0  502  0.51403006823E+02 -0.26440756174E+02 -0.27276973567E+03  0.32813672668E+03  0.17300000000E+03 0. -1.
<mgrwt>
<rscale>  2 0.18240171E+03</rscale>
<asrwt>0</asrwt>
<pdfrwt beam="1">  1       21 0.54415179E-02 0.18240171E+03</pdfrwt>
<pdfrwt beam="2">  1       21 0.21270390E+00 0.18240171E+03</pdfrwt>
<totfact> 0.26206363E+04</totfact>
</mgrwt>
</event>
<event>
 4    3  0.4022695E+000  0.2445761E+03  0.7546771E-02  0.1116781E+00
         21   -1    0    0  501  502  0.00000000000E+00  0.00000000000E+00  0.48627598739E+03  0.48627598739E+03  0.00000000000E+00 0. -1.
         21   -1    0    0  502  503 -0.00000000000E+00 -0.00000000000E+00 -0.16046471929E+03  0.16046471929E+03  0.00000000000E+00 0. -1.
          6    1    1    2  501    0 -0.14511001634E+03 -0.93976224383E+02  0.66786377392E+01  0.24466722664E+03  0.17300000000E+03 0. -1.
         -6    1    1    2    0  503  0.14511001634E+03  0.93976224383E+02  0.31913263036E+03  0.40207348004E+03  0.17300000000E+03 0. -1.
<mgrwt>
<rscale>  2 0.24457606E+03</rscale>
<asrwt>0</asrwt>
<pdfrwt beam="1">  1       21 0.74811690E-01 0.24457606E+03</pdfrwt>
<pdfrwt beam="2">  1       21 0.24686880E-01 0.24457606E+03</pdfrwt>
<totfact> 0.24125313E+04</totfact>
</mgrwt>
</event>
<event>
 4    3  0.4022695E+000  0.1831580E+03  0.7546771E-02  0.1164781E+00
         21   -1    0    0  501  502  0.00000000000E+00  0.00000000000E+00  0.27196125245E+03  0.27196125245E+03  0.00000000000E+00 0. -1.
         21   -1    0    0  502  503 -0.00000000000E+00 -0.00000000000E+00 -0.22949724526E+03  0.22949724526E+03  0.00000000000E+00 0. -1.
          6    1    1    2  501    0  0.43688887449E+02 -0.41341760789E+02  0.19174886035E+03  0.26516878685E+03  0.17300000000E+03 0. -1.
         -6    1    1    2    0  503 -0.43688887449E+02  0.41341760789E+02 -0.14928485317E+03  0.23628971086E+03  0.17300000000E+03 0. -1.
<mgrwt>
<rscale>  2 0.18315802E+03</rscale>
<asrwt>0</asrwt>
<pdfrwt beam="1">  1       21 0.41840193E-01 0.18315802E+03</pdfrwt>
<pdfrwt beam="2">  1       21 0.35307269E-01 0.18315802E+03</pdfrwt>
<totfact> 0.42724545E+04</totfact>
</mgrwt>
</event>
<event>
 4    3  0.4022695E+000  0.2460063E+03  0.7546771E-02  0.1115855E+00
         21   -1    0    0  503  502  0.00000000000E+00  0.00000000000E+00  0.81209828611E+03  0.81209828611E+03  0.00000000000E+00 0.  1.
         21   -1    0    0  501  503 -0.00000000000E+00 -0.00000000000E+00 -0.82482152216E+02  0.82482152216E+02  0.00000000000E+00 0. -1.
          6    1    1    2  501    0  0.11464233322E+03 -0.13208806649E+03  0.50376247641E+03  0.56062086522E+03  0.17300000000E+03 0.  1.
         -6    1    1    2    0  502 -0.11464233322E+03  0.13208806649E+03  0.22585365748E+03  0.33395957311E+03  0.17300000000E+03 0. -1.
<mgrwt>
<rscale>  2 0.24600635E+03</rscale>
<asrwt>0</asrwt>
<pdfrwt beam="1">  1       21 0.12493819E+00 0.24600635E+03</pdfrwt>
<pdfrwt beam="2">  1       21 0.12689562E-01 0.24600635E+03</pdfrwt>
<totfact> 0.24600479E+04</totfact>
</mgrwt>
</event>
<event>
 4    3  0.4022695E+000  0.2617964E+03  0.7546771E-02  0.1106069E+00
         21   -1    0    0  503  502  0.00000000000E+00  0.00000000000E+00  0.94428474648E+02  0.94428474648E+02  0.00000000000E+00 0. -1.
         21   -1    0    0  501  503 -0.00000000000E+00 -0.00000000000E+00 -0.73598811967E+03  0.73598811967E+03  0.00000000000E+00 0.  1.
          6    1    1    2  501    0 -0.33648688096E+02  0.19358750307E+03 -0.36960161253E+03  0.45292682360E+03  0.17300000000E+03 0.  1.
         -6    1    1    2    0  502  0.33648688096E+02 -0.19358750307E+03 -0.27195803249E+03  0.37748977071E+03  0.17300000000E+03 0. -1.
<mgrwt>
<rscale>  2 0.26179640E+03</rscale>
<asrwt>0</asrwt>
<pdfrwt beam="1">  1       21 0.14527458E-01 0.26179640E+03</pdfrwt>
<pdfrwt beam="2">  1       21 0.11322894E+00 0.26179640E+03</pdfrwt>
<totfact> 0.24388787E+04</totfact>
</mgrwt>
</event>
<event>
 4    3  0.4022695E+000  0.1733782E+03  0.7546771E-02  0.1174370E+00
         21   -1    0    0  501  502  0.00000000000E+00  0.00000000000E+00  0.12722504014E+03  0.12722504014E+03  0.00000000000E+00 0. -1.
         21   -1    0    0  502  503 -0.00000000000E+00 -0.00000000000E+00 -0.31514462026E+03  0.31514462026E+03  0.00000000000E+00 0. -1.
          6    1    1    2  501    0  0.76532826363E+01 -0.85099632038E+01  0.16691763983E+02  0.17417981282E+03  0.17300000000E+03 0. -1.
         -6    1    1    2    0  503 -0.76532826363E+01  0.85099632038E+01 -0.20461134410E+03  0.26818984758E+03  0.17300000000E+03 0. -1.
<mgrwt>
<rscale>  2 0.17337818E+03</rscale>
<asrwt>0</asrwt>
<pdfrwt beam="1">  1       21 0.19573083E-01 0.17337818E+03</pdfrwt>
<pdfrwt beam="2">  1       21 0.48483788E-01 0.17337818E+03</pdfrwt>
<totfact> 0.98356944E+04</totfact>
</mgrwt>
</event>
<event>
 4    3  0.4022695E+000  0.1970752E+03  0.7546771E-02  0.1152230E+00
         21   -1    0    0  503  502  0.00000000000E+00  0.00000000000E+00  0.18229325086E+03  0.18229325086E+03  0.00000000000E+00 0. -1.
         21   -1    0    0  501  503 -0.00000000000E+00 -0.00000000000E+00 -0.21595378292E+03  0.21595378292E+03  0.00000000000E+00 0.  1.
          6    1    1    2  501    0 -0.10613566875E+02 -0.93792331942E+02  0.62363516676E+01  0.19717388624E+03  0.17300000000E+03 0. -1.
         -6    1    1    2    0  502  0.10613566875E+02  0.93792331942E+02 -0.39896883729E+02  0.20107314755E+03  0.17300000000E+03 0.  1.
<mgrwt>
<rscale>  2 0.19707524E+03</rscale>
<asrwt>0</asrwt>
<pdfrwt beam="1">  1       21 0.28045115E-01 0.19707524E+03</pdfrwt>
<pdfrwt beam="2">  1       21 0.33223659E-01 0.19707524E+03</pdfrwt>
<totfact> 0.10577168E+05</totfact>
</mgrwt>
</event>
<event>
 4    3  0.4022695E+000  0.1896726E+03  0.7546771E-02  0.1158757E+00
         21   -1    0    0  503  502  0.00000000000E+00  0.00000000000E+00  0.11502735827E+03  0.11502735827E+03  0.00000000000E+00 0. -1.
         21   -1    0    0  501  503 -0.00000000000E+00 -0.00000000000E+00 -0.32023935925E+03  0.32023935925E+03  0.00000000000E+00 0. -1.
          6    1    1    2  501    0  0.61471148606E+02  0.47623384634E+02 -0.13587102624E+03  0.23331657602E+03  0.17300000000E+03 0.  1.
         -6    1    1    2    0  502 -0.61471148606E+02 -0.47623384634E+02 -0.69340974742E+02  0.20195014150E+03  0.17300000000E+03 0.  1.
<mgrwt>
<rscale>  2 0.18967258E+03</rscale>
<asrwt>0</asrwt>
<pdfrwt beam="1">  1       21 0.17696517E-01 0.18967258E+03</pdfrwt>
<pdfrwt beam="2">  1       21 0.49267593E-01 0.18967258E+03</pdfrwt>
<totfact> 0.11396523E+05</totfact>
</mgrwt>
</event>
<event>
 4    3  0.4022695E+000  0.2571714E+03  0.7546771E-02  0.1108855E+00
         21   -1    0    0  503  502  0.00000000000E+00  0.00000000000E+00  0.70840309138E+03  0.70840309138E+03  0.00000000000E+00 0.  1.
         21   -1    0    0  501  503 -0.00000000000E+00 -0.00000000000E+00 -0.12704443868E+03  0.12704443868E+03  0.00000000000E+00 0.  1.
          6    1    1    2  501    0  0.56405011660E+02 -0.18173220484E+03  0.50576945921E+03  0.56739744931E+03  0.17300000000E+03 0.  1.
         -6    1    1    2    0  502 -0.56405011660E+02  0.18173220484E+03  0.75589193482E+02  0.26805008075E+03  0.17300000000E+03 0.  1.
<mgrwt>
<rscale>  2 0.25717138E+03</rscale>
<asrwt>0</asrwt>
<pdfrwt beam="1">  1       21 0.10898509E+00 0.25717138E+03</pdfrwt>
<pdfrwt beam="2">  1       21 0.19545299E-01 0.25717138E+03</pdfrwt>
<totfact> 0.15494108E+04</totfact>
</mgrwt>
</event>
<event>
 4    3  0.4022695E+000  0.3052567E+03  0.7546771E-02  0.1082642E+00
         21   -1    0    0  503  502  0.00000000000E+00  0.00000000000E+00  0.73108479781E+02  0.73108479781E+02  0.00000000000E+00 0. -1.
         21   -1    0    0  501  503 -0.00000000000E+00 -0.00000000000E+00 -0.12747922912E+04  0.12747922912E+04  0.00000000000E+00 0. -1.
          6    1    1    2  501    0  0.18683072538E+03 -0.16836555550E+03 -0.59188913677E+03  0.66596879090E+03  0.17300000000E+03 0. -1.
         -6    1    1    2    0  502 -0.18683072538E+03  0.16836555550E+03 -0.60979467462E+03  0.68193198005E+03  0.17300000000E+03 0. -1.
<mgrwt>
<rscale>  2 0.30525674E+03</rscale>
<asrwt>0</asrwt>
<pdfrwt beam="1">  1       21 0.11247459E-01 0.30525674E+03</pdfrwt>
<pdfrwt beam="2">  1       21 0.19612189E+00 0.30525674E+03</pdfrwt>
<totfact> 0.86757399E+03</totfact>
</mgrwt>
</event>
<event>
 4    3  0.4022695E+000  0.2804509E+03  0.7546771E-02  0.1095443E+00
         21   -1    0    0  501  502  0.00000000000E+00  0.00000000000E+00  0.72716055238E+03  0.72716055238E+03  0.00000000000E+00 0.  1.
         21   -1    0    0  502  503 -0.00000000000E+00 -0.00000000000E+00 -0.15658218586E+03  0.15658218586E+03  0.00000000000E+00 0. -1.
          6    1    1    2  501    0  0.21586530033E+03  0.46107404939E+02  0.39576167623E+02  0.28322957777E+03  0.17300000000E+03 0. -1.
         -6    1    1    2    0  503 -0.21586530033E+03 -0.46107404939E+02  0.53100219889E+03  0.60051316048E+03  0.17300000000E+03 0.  1.
<mgrwt>
<rscale>  2 0.28045092E+03</rscale>
<asrwt>0</asrwt>
<pdfrwt beam="1">  1       21 0.11187085E+00 0.28045092E+03</pdfrwt>
<pdfrwt beam="2">  1       21 0.24089567E-01 0.28045092E+03</pdfrwt>
<totfact> 0.96599033E+03</totfact>
</mgrwt>
</event>
<event>
 4    3  0.4022695E+000  0.1731870E+03  0.7546771E-02  0.1174565E+00
         21   -1    0    0  503  502  0.00000000000E+00  0.00000000000E+00  0.23093224156E+02  0.23093224156E+02  0.00000000000E+00 0. -1.
         21   -1    0    0  501  503 -0.00000000000E+00 -0.00000000000E+00 -0.12997353335E+04  0.12997353335E+04  0.00000000000E+00 0. -1.
          6    1    1    2  501    0 -0.44128750479E+01 -0.67274381086E+01 -0.62068191340E+03  0.64439100670E+03  0.17300000000E+03 0.  1.
         -6    1    1    2    0  502  0.44128750479E+01  0.67274381086E+01 -0.65596019595E+03  0.67843755097E+03  0.17300000000E+03 0.  1.
<mgrwt>
<rscale>  2 0.17318699E+03</rscale>
<asrwt>0</asrwt>
<pdfrwt beam="1">  1       21 0.35528041E-02 0.17318699E+03</pdfrwt>
<pdfrwt beam="2">  1       21 0.19995926E+00 0.17318699E+03</pdfrwt>
<totfact> 0.64986977E+04</totfact>
</mgrwt>
</event>
<event>
 4    3  0.4022695E+000  0.2007334E+03  0.7546771E-02  0.1149122E+00
         21   -1    0    0  501  502  0.00000000000E+00  0.00000000000E+00  0.23350264714E+03  0.23350264714E+03  0.00000000000E+00 0. -1.
         21   -1    0    0  502  503 -0.00000000000E+00 -0.00000000000E+00 -0.29571638836E+03  0.29571638836E+03  0.00000000000E+00 0. -1.
          6    1    1    2  501    0 -0.67050361064E+02  0.76610309953E+02  0.13965509666E+03  0.24453514376E+03  0.17300000000E+03 0. -1.
         -6    1    1    2    0  503  0.67050361064E+02 -0.76610309953E+02 -0.20186883789E+03  0.28468389175E+03  0.17300000000E+03 0. -1.
<mgrwt>
<rscale>  2 0.20073338E+03</rscale>
<asrwt>0</asrwt>
<pdfrwt beam="1">  1       21 0.35923484E-01 0.20073338E+03</pdfrwt>
<pdfrwt beam="2">  1       21 0.45494829E-01 0.20073338E+03</pdfrwt>
<totfact> 0.34472603E+04</totfact>
</mgrwt>
</event>
<event>
 4    3  0.4022695E+000  0.2459522E+03  0.7546771E-02  0.1115890E+00
         21   -1    0    0  503  502  0.00000000000E+00  0.00000000000E+00  0.26868164047E+03  0.26868164047E+03  0.00000000000E+00 0. -1.
         21   -1    0    0  501  503 -0.00000000000E+00 -0.00000000000E+00 -0.24643930628E+03  0.24643930628E+03  0.00000000000E+00 0. -1.
          6    1    1    2  501    0 -0.16781628560E+03 -0.49001736092E+02  0.86830663988E+02  0.26082952299E+03  0.17300000000E+03 0. -1.
         -6    1    1    2    0  502  0.16781628560E+03  0.49001736092E+02 -0.64588329802E+02  0.25429142376E+03  0.17300000000E+03 0. -1.
<mgrwt>
<rscale>  2 0.24595218E+03</rscale>
<asrwt>0</asrwt>
<pdfrwt beam="1">  1       21 0.41335637E-01 0.24595218E+03</pdfrwt>
<pdfrwt beam="2">  1       21 0.37913740E-01 0.24595218E+03</pdfrwt>
<totfact> 0.36854395E+04</totfact>
</mgrwt>
</event>
<event>
 4    3  0.4022695E+000  0.2340175E+03  0.7546771E-02  0.1123844E+00
         21   -1    0    0  501  502  0.00000000000E+00  0.00000000000E+00  0.38047163570E+03  0.38047163570E+03  0.00000000000E+00 0.  1.
         21   -1    0    0  502  503 -0.00000000000E+00 -0.00000000000E+00 -0.15161622907E+03  0.15161622907E+03  0.00000000000E+00 0. -1.
          6    1    1    2  501    0 -0.12487696044E+03  0.96129814162E+02  0.54556126077E+02  0.24029267012E+03  0.17300000000E+03 0. -1.
         -6    1    1    2    0  503  0.12487696044E+03 -0.96129814162E+02  0.17429928056E+03  0.29179519466E+03  0.17300000000E+03 0.  1.
<mgrwt>
<rscale>  2 0.23401751E+03</rscale>
<asrwt>0</asrwt>
<pdfrwt beam="1">  1       21 0.58534097E-01 0.23401751E+03</pdfrwt>
<pdfrwt beam="2">  1       21 0.23325574E-01 0.23401751E+03</pdfrwt>
<totfact> 0.46307310E+04</totfact>
</mgrwt>
</event>
<event>
 4    3  0.4022695E+000  0.1915727E+03  0.7546771E-02  0.1157050E+00
         21   -1    0    0  501  502  0.00000000000E+00  0.00000000000E+00  0.16578091272E+03  0.16578091272E+03  0.00000000000E+00 0. -1.
         21   -1    0    0  502  503 -0.00000000000E+00 -0.00000000000E+00 -0.45598594346E+03  0.45598594346E+03  0.00000000000E+00 0.  1.
          6    1    1    2  501    0  0.82056141267E+02  0.61542547119E+01  0.77891960146E+02  0.20680242413E+03  0.17300000000E+03 0. -1.
         -6    1    1    2    0  503 -0.82056141267E+02 -0.61542547119E+01 -0.36809699088E+03  0.41496443205E+03  0.17300000000E+03 0.  1.
<mgrwt>
<rscale>  2 0.19157266E+03</rscale>
<asrwt>0</asrwt>
<pdfrwt beam="1">  1       21 0.25504756E-01 0.19157266E+03</pdfrwt>
<pdfrwt beam="2">  1       21 0.70151684E-01 0.19157266E+03</pdfrwt>
<totfact> 0.26902402E+04</totfact>
</mgrwt>
</event>
<event>
 4    3  0.4022695E+000  0.2325117E+03  0.7546771E-02  0.1124884E+00
         21   -1    0    0  503  502  0.00000000000E+00  0.00000000000E+00  0.14156024493E+04  0.14156024493E+04  0.00000000000E+00 0. -1.
         21   -1    0    0  501  503 -0.00000000000E+00 -0.00000000000E+00 -0.21181424668E+03  0.21181424668E+03  0.00000000000E+00 0. -1.
          6    1    1    2  501    0 -0.88510771024E+02  0.12766575694E+03 -0.13481580943E+03  0.26876942638E+03  0.17300000000E+03 0. -1.
         -6    1    1    2    0  502  0.88510771024E+02 -0.12766575694E+03  0.13386040121E+04  0.13586472696E+04  0.17300000000E+03 0. -1.
<mgrwt>
<rscale>  2 0.23251172E+03</rscale>
<asrwt>0</asrwt>
<pdfrwt beam="1">  1       21 0.21778499E+00 0.23251172E+03</pdfrwt>
<pdfrwt beam="2">  1       21 0.32586808E-01 0.23251172E+03</pdfrwt>
<totfact> 0.90073213E+02</totfact>
</mgrwt>
</event>
<event>
 4    3  0.4022695E+000  0.2071076E+03  0.7546771E-02  0.1143877E+00
         21   -1    0    0  503  502  0.00000000000E+00  0.00000000000E+00  0.30694830202E+03  0.30694830202E+03  0.00000000000E+00 0. -1.
         21   -1    0    0  501  503 -0.00000000000E+00 -0.00000000000E+00 -0.26060548827E+03  0.26060548827E+03  0.00000000000E+00 0.  1.
          6    1    1    2  501    0 -0.94116542927E+02  0.64083050532E+02 -0.17008453980E+03  0.26799685016E+03  0.17300000000E+03 0.  1.
         -6    1    1    2    0  502  0.94116542927E+02 -0.64083050532E+02  0.21642735355E+03  0.29955694013E+03  0.17300000000E+03 0. -1.
<mgrwt>
<rscale>  2 0.20710761E+03</rscale>
<asrwt>0</asrwt>
<pdfrwt beam="1">  1       21 0.47222816E-01 0.20710761E+03</pdfrwt>
<pdfrwt beam="2">  1       21 0.40093152E-01 0.20710761E+03</pdfrwt>
<totfact> 0.25512487E+04</totfact>
</mgrwt>
</event>
<event>
 4    3  0.4022695E+000  0.1834776E+03  0.7546771E-02  0.1164479E+00
         21   -1    0    0  501  502  0.00000000000E+00  0.00000000000E+00  0.12036631503E+03  0.12036631503E+03  0.00000000000E+00 0. -1.
         21   -1    0    0  502  503 -0.00000000000E+00 -0.00000000000E+00 -0.28137422371E+03  0.28137422371E+03  0.00000000000E+00 0. -1.
          6    1    1    2  501    0  0.58850173557E+02  0.16482664821E+02 -0.96091962888E+02  0.20711756685E+03  0.17300000000E+03 0. -1.
         -6    1    1    2    0  503 -0.58850173557E+02 -0.16482664821E+02 -0.64915945799E+02  0.19462297189E+03  0.17300000000E+03 0. -1.
<mgrwt>
<rscale>  2 0.18347758E+03</rscale>
<asrwt>0</asrwt>
<pdfrwt beam="1">  1       21 0.18517895E-01 0.18347758E+03</pdfrwt>
<pdfrwt beam="2">  1       21 0.43288342E-01 0.18347758E+03</pdfrwt>
<totfact> 0.13708904E+05</totfact>
</mgrwt>
</event>
<event>
 4    3  0.4022695E+000  0.3228464E+03  0.7546771E-02  0.1074347E+00
         21   -1    0    0  503  502  0.00000000000E+00  0.00000000000E+00  0.87602734758E+02  0.87602734758E+02  0.00000000000E+00 0. -1.
         21   -1    0    0  501  503 -0.00000000000E+00 -0.00000000000E+00 -0.13882978018E+04  0.13882978018E+04  0.00000000000E+00 0.  1.
          6    1    1    2  501    0  0.14815196743E+03  0.22880518083E+03 -0.92938505043E+03  0.98386299259E+03  0.17300000000E+03 0. -1.
         -6    1    1    2    0  502 -0.14815196743E+03 -0.22880518083E+03 -0.37131001659E+03  0.49203754394E+03  0.17300000000E+03 0. -1.
<mgrwt>
<rscale>  2 0.32284643E+03</rscale>
<asrwt>0</asrwt>
<pdfrwt beam="1">  1       21 0.13477345E-01 0.32284643E+03</pdfrwt>
<pdfrwt beam="2">  1       21 0.21358426E+00 0.32284643E+03</pdfrwt>
<totfact> 0.47672983E+03</totfact>
</mgrwt>
</event>
<event>
 4    3  0.4022695E+000  0.2002155E+03  0.7546771E-02  0.1149557E+00
         21   -1    0    0  503  502  0.00000000000E+00  0.00000000000E+00  0.13573024180E+04  0.13573024180E+04  0.00000000000E+00 0.  1.
         21   -1    0    0  501  503 -0.00000000000E+00 -0.00000000000E+00 -0.30502197315E+02  0.30502197315E+02  0.00000000000E+00 0.  1.
          6    1    1    2  501    0 -0.58874937225E+02  0.81798371958E+02  0.53975683417E+03  0.57569407841E+03  0.17300000000E+03 0.  1.
         -6    1    1    2    0  502  0.58874937225E+02 -0.81798371958E+02  0.78704338654E+03  0.81211053692E+03  0.17300000000E+03 0.  1.
<mgrwt>
<rscale>  2 0.20021546E+03</rscale>
<asrwt>0</asrwt>
<pdfrwt beam="1">  1       21 0.20881571E+00 0.20021546E+03</pdfrwt>
<pdfrwt beam="2">  1       21 0.46926468E-02 0.20021546E+03</pdfrwt>
<totfact> 0.35161285E+04</totfact>
</mgrwt>
</event>
<event>
 4    3  0.4022695E+000  0.1733139E+03  0.7546771E-02  0.1174435E+00
         21   -1    0    0  501  502  0.00000000000E+00  0.00000000000E+00  0.30248569060E+03  0.30248569060E+03  0.00000000000E+00 0.  1.
         21   -1    0    0  502  503 -0.00000000000E+00 -0.00000000000E+00 -0.21790896835E+03  0.21790896835E+03  0.00000000000E+00 0.  1.
          6    1    1    2  501    0  0.27267209642E+01 -0.10064275637E+02  0.23425184639E+03  0.29139604010E+03  0.17300000000E+03 0.  1.
         -6    1    1    2    0  503 -0.27267209642E+01  0.10064275637E+02 -0.14967512413E+03  0.22899861885E+03  0.17300000000E+03 0.  1.
<mgrwt>
<rscale>  2 0.17331395E+03</rscale>
<asrwt>0</asrwt>
<pdfrwt beam="1">  1       21 0.46536260E-01 0.17331395E+03</pdfrwt>
<pdfrwt beam="2">  1       21 0.33524457E-01 0.17331395E+03</pdfrwt>
<totfact> 0.38277040E+04</totfact>
</mgrwt>
</event>
<event>
 4    3  0.4022695E+000  0.2195099E+03  0.7546771E-02  0.1134249E+00
         21   -1    0    0  501  502  0.00000000000E+00  0.00000000000E+00  0.21290342554E+03  0.21290342554E+03  0.00000000000E+00 0. -1.
         21   -1    0    0  502  503 -0.00000000000E+00 -0.00000000000E+00 -0.25259321032E+03  0.25259321032E+03  0.00000000000E+00 0. -1.
          6    1    1    2  501    0  0.35209673325E+02 -0.13044497084E+03  0.55217140055E+02  0.22634828046E+03  0.17300000000E+03 0. -1.
         -6    1    1    2    0  503 -0.35209673325E+02  0.13044497084E+03 -0.94906924836E+02  0.23914835541E+03  0.17300000000E+03 0. -1.
<mgrwt>
<rscale>  2 0.21950993E+03</rscale>
<asrwt>0</asrwt>
<pdfrwt beam="1">  1       21 0.32754373E-01 0.21950993E+03</pdfrwt>
<pdfrwt beam="2">  1       21 0.38860494E-01 0.21950993E+03</pdfrwt>
<totfact> 0.56581541E+04</totfact>
</mgrwt>
</event>
<event>
 4    3  0.4022695E+000  0.1806184E+03  0.7546771E-02  0.1167206E+00
         21   -1    0    0  501  502  0.00000000000E+00  0.00000000000E+00  0.87222605967E+03  0.87222605967E+03  0.00000000000E+00 0.  1.
         21   -1    0    0  502  503 -0.00000000000E+00 -0.00000000000E+00 -0.37406357483E+02  0.37406357483E+02  0.00000000000E+00 0.  1.
          6    1    1    2  501    0 -0.89374004365E+01 -0.51128383783E+02  0.42232538168E+03  0.45932746137E+03  0.17300000000E+03 0. -1.
         -6    1    1    2    0  503  0.89374004365E+01  0.51128383783E+02  0.41249432050E+03  0.45030495578E+03  0.17300000000E+03 0. -1.
<mgrwt>
<rscale>  2 0.18061835E+03</rscale>
<asrwt>0</asrwt>
<pdfrwt beam="1">  1       21 0.13418861E+00 0.18061835E+03</pdfrwt>
<pdfrwt beam="2">  1       21 0.57548249E-02 0.18061835E+03</pdfrwt>
<totfact> 0.84951533E+04</totfact>
</mgrwt>
</event>
<event>
 4    3  0.4022695E+000  0.3251248E+03  0.7546771E-02  0.1073315E+00
         21   -1    0    0  501  502  0.00000000000E+00  0.00000000000E+00  0.84751017944E+03  0.84751017944E+03  0.00000000000E+00 0.  1.
         21   -1    0    0  502  503 -0.00000000000E+00 -0.00000000000E+00 -0.22074208573E+03  0.22074208573E+03  0.00000000000E+00 0. -1.
          6    1    1    2  501    0  0.23750229189E+03 -0.13917546030E+03  0.66565297759E+03  0.74081039003E+03  0.17300000000E+03 0.  1.
         -6    1    1    2    0  503 -0.23750229189E+03  0.13917546030E+03 -0.38884883866E+02  0.32744187514E+03  0.17300000000E+03 0. -1.
<mgrwt>
<rscale>  2 0.32512482E+03</rscale>
<asrwt>0</asrwt>
<pdfrwt beam="1">  1       21 0.13038618E+00 0.32512482E+03</pdfrwt>
<pdfrwt beam="2">  1       21 0.33960321E-01 0.32512482E+03</pdfrwt>
<totfact> 0.32785591E+03</totfact>
</mgrwt>
</event>
<event>
 4    3  0.4022695E+000  0.2125300E+03  0.7546771E-02  0.1139578E+00
         21   -1    0    0  501  502  0.00000000000E+00  0.00000000000E+00  0.37820277000E+03  0.37820277000E+03  0.00000000000E+00 0. -1.
         21   -1    0    0  502  503 -0.00000000000E+00 -0.00000000000E+00 -0.12810122996E+03  0.12810122996E+03  0.00000000000E+00 0. -1.
          6    1    1    2  501    0 -0.48165466145E+02  0.11366648245E+03  0.19091205454E+03  0.28568583082E+03  0.17300000000E+03 0. -1.
         -6    1    1    2    0  503  0.48165466145E+02 -0.11366648245E+03  0.59189485505E+02  0.22061816914E+03  0.17300000000E+03 0. -1.
<mgrwt>
<rscale>  2 0.21252995E+03</rscale>
<asrwt>0</asrwt>
<pdfrwt beam="1">  1       21 0.58185041E-01 0.21252995E+03</pdfrwt>
<pdfrwt beam="2">  1       21 0.19707882E-01 0.21252995E+03</pdfrwt>
<totfact> 0.65070810E+04</totfact>
</mgrwt>
</event>
<event>
 4    3  0.4022695E+000  0.2305658E+03  0.7546771E-02  0.1126242E+00
         21   -1    0    0  503  502  0.00000000000E+00  0.00000000000E+00  0.28950480214E+02  0.28950480214E+02  0.00000000000E+00 0.  1.
         21   -1    0    0  501  503 -0.00000000000E+00 -0.00000000000E+00 -0.19107859314E+04  0.19107859314E+04  0.00000000000E+00 0. -1.
          6    1    1    2  501    0 -0.13460728841E+03  0.71501552999E+02 -0.74937666716E+03  0.78404463104E+03  0.17300000000E+03 0.  1.
         -6    1    1    2    0  502  0.13460728841E+03 -0.71501552999E+02 -0.11324587840E+04  0.11556917806E+04  0.17300000000E+03 0.  1.
<mgrwt>
<rscale>  2 0.23056581E+03</rscale>
<asrwt>0</asrwt>
<pdfrwt beam="1">  1       21 0.44539217E-02 0.23056581E+03</pdfrwt>
<pdfrwt beam="2">  1       21 0.29396695E+00 0.23056581E+03</pdfrwt>
<totfact> 0.11655749E+04</totfact>
</mgrwt>
</event>
<event>
 4    3  0.4022695E+000  0.2378054E+03  0.7546771E-02  0.1121263E+00
         21   -1    0    0  501  502  0.00000000000E+00  0.00000000000E+00  0.69708969789E+03  0.69708969789E+03  0.00000000000E+00 0. -1.
         21   -1    0    0  502  503 -0.00000000000E+00 -0.00000000000E+00 -0.81238285539E+02  0.81238285539E+02  0.00000000000E+00 0. -1.
          6    1    1    2  501    0 -0.11331782896E+03 -0.11739464060E+03  0.32245539420E+03  0.40066059608E+03  0.17300000000E+03 0. -1.
         -6    1    1    2    0  503  0.11331782896E+03  0.11739464060E+03  0.29339601815E+03  0.37766738735E+03  0.17300000000E+03 0. -1.
<mgrwt>
<rscale>  2 0.23780545E+03</rscale>
<asrwt>0</asrwt>
<pdfrwt beam="1">  1       21 0.10724456E+00 0.23780545E+03</pdfrwt>
<pdfrwt beam="2">  1       21 0.12498198E-01 0.23780545E+03</pdfrwt>
<totfact> 0.37006316E+04</totfact>
</mgrwt>
</event>
<event>
 4    3  0.4022695E+000  0.2664430E+03  0.7546771E-02  0.1103333E+00
         21   -1    0    0  503  502  0.00000000000E+00  0.00000000000E+00  0.72641419659E+03  0.72641419659E+03  0.00000000000E+00 0. -1.
         21   -1    0    0  501  503 -0.00000000000E+00 -0.00000000000E+00 -0.99672650524E+02  0.99672650524E+02  0.00000000000E+00 0.  1.
          6    1    1    2  501    0 -0.48238985360E+02  0.19681424369E+03  0.25569420824E+03  0.36928495008E+03  0.17300000000E+03 0.  1.
         -6    1    1    2    0  502  0.48238985360E+02 -0.19681424369E+03  0.37104733783E+03  0.45680189704E+03  0.17300000000E+03 0. -1.
<mgrwt>
<rscale>  2 0.26644295E+03</rscale>
<asrwt>0</asrwt>
<pdfrwt beam="1">  1       21 0.11175603E+00 0.26644295E+03</pdfrwt>
<pdfrwt beam="2">  1       21 0.15334254E-01 0.26644295E+03</pdfrwt>
<totfact> 0.22759487E+04</totfact>
</mgrwt>
</event>
<event>
 4    3  0.4022695E+000  0.1868313E+03  0.7546771E-02  0.1161351E+00
         21   -1    0    0  501  502  0.00000000000E+00  0.00000000000E+00  0.99574580561E+02  0.99574580561E+02  0.00000000000E+00 0. -1.
         21   -1    0    0  502  503 -0.00000000000E+00 -0.00000000000E+00 -0.56047862874E+03  0.56047862874E+03  0.00000000000E+00 0. -1.
          6    1    1    2  501    0 -0.66995226047E+02 -0.22103745039E+02 -0.28473792781E+02  0.18898860477E+03  0.17300000000E+03 0. -1.
         -6    1    1    2    0  503  0.66995226047E+02  0.22103745039E+02 -0.43243025540E+03  0.47106460453E+03  0.17300000000E+03 0. -1.
<mgrwt>
<rscale>  2 0.18683130E+03</rscale>
<asrwt>0</asrwt>
<pdfrwt beam="1">  1       21 0.15319166E-01 0.18683130E+03</pdfrwt>
<pdfrwt beam="2">  1       21 0.86227481E-01 0.18683130E+03</pdfrwt>
<totfact> 0.43902416E+04</totfact>
</mgrwt>
</event>
<event>
 4    3  0.4022695E+000  0.2189587E+03  0.7546771E-02  0.1134662E+00
         21   -1    0    0  503  502  0.00000000000E+00  0.00000000000E+00  0.42353275272E+03  0.42353275272E+03  0.00000000000E+00 0. -1.
         21   -1    0    0  501  503 -0.00000000000E+00 -0.00000000000E+00 -0.19025364645E+03  0.19025364645E+03  0.00000000000E+00 0.  1.
          6    1    1    2  501    0  0.11464170601E+03 -0.69793951769E+02 -0.78670214439E+02  0.23266267234E+03  0.17300000000E+03 0.  1.
         -6    1    1    2    0  502 -0.11464170601E+03  0.69793951769E+02  0.31194932071E+03  0.38112372683E+03  0.17300000000E+03 0. -1.
<mgrwt>
<rscale>  2 0.21895871E+03</rscale>
<asrwt>0</asrwt>
<pdfrwt beam="1">  1       21 0.65158885E-01 0.21895871E+03</pdfrwt>
<pdfrwt beam="2">  1       21 0.29269792E-01 0.21895871E+03</pdfrwt>
<totfact> 0.23879048E+04</totfact>
</mgrwt>
</event>
<event>
 4    3  0.4022695E+000  0.1734169E+03  0.7546771E-02  0.1174331E+00
         21   -1    0    0  501  502  0.00000000000E+00  0.00000000000E+00  0.76629245530E+03  0.76629245530E+03  0.00000000000E+00 0. -1.
         21   -1    0    0  502  503 -0.00000000000E+00 -0.00000000000E+00 -0.11841506742E+03  0.11841506742E+03  0.00000000000E+00 0. -1.
          6    1    1    2  501    0  0.11621545522E+02  0.30586977399E+01  0.68563642743E+03  0.70722749280E+03  0.17300000000E+03 0. -1.
         -6    1    1    2    0  503 -0.11621545522E+02 -0.30586977399E+01 -0.37759039545E+02  0.17748002992E+03  0.17300000000E+03 0. -1.
<mgrwt>
<rscale>  2 0.17341688E+03</rscale>
<asrwt>0</asrwt>
<pdfrwt beam="1">  1       21 0.11789114E+00 0.17341688E+03</pdfrwt>
<pdfrwt beam="2">  1       21 0.18217703E-01 0.17341688E+03</pdfrwt>
<totfact> 0.15349639E+04</totfact>
</mgrwt>
</event>
<event>
 4    3  0.4022695E+000  0.3079319E+03  0.7546771E-02  0.1081341E+00
         21   -1    0    0  501  502  0.00000000000E+00  0.00000000000E+00  0.19171939694E+03  0.19171939694E+03  0.00000000000E+00 0. -1.
         21   -1    0    0  502  503 -0.00000000000E+00 -0.00000000000E+00 -0.59356107988E+03  0.59356107988E+03  0.00000000000E+00 0. -1.
          6    1    1    2  501    0 -0.41820507538E+02  0.25128488314E+03 -0.40588405299E+02  0.31059534122E+03  0.17300000000E+03 0. -1.
         -6    1    1    2    0  503  0.41820507538E+02 -0.25128488314E+03 -0.36125327765E+03  0.47468513560E+03  0.17300000000E+03 0. -1.
<mgrwt>
<rscale>  2 0.30793189E+03</rscale>
<asrwt>0</asrwt>
<pdfrwt beam="1">  1       21 0.29495293E-01 0.30793189E+03</pdfrwt>
<pdfrwt beam="2">  1       21 0.91317086E-01 0.30793189E+03</pdfrwt>
<totfact> 0.10490648E+04</totfact>
</mgrwt>
</event>
<event>
 4    3  0.4022695E+000  0.1740512E+03  0.7546771E-02  0.1173688E+00
         21   -1    0    0  501  502  0.00000000000E+00  0.00000000000E+00  0.12563484178E+03  0.12563484178E+03  0.00000000000E+00 0.  1.
         21   -1    0    0  502  503 -0.00000000000E+00 -0.00000000000E+00 -0.63264935682E+03  0.63264935682E+03  0.00000000000E+00 0.  1.
          6    1    1    2  501    0  0.20135965582E+01 -0.18993556900E+02  0.44755746881E+02  0.17971334579E+03  0.17300000000E+03 0.  1.
         -6    1    1    2    0  503 -0.20135965582E+01  0.18993556900E+02 -0.55177026192E+03  0.57857085281E+03  0.17300000000E+03 0.  1.
<mgrwt>
<rscale>  2 0.17405117E+03</rscale>
<asrwt>0</asrwt>
<pdfrwt beam="1">  1       21 0.19328437E-01 0.17405117E+03</pdfrwt>
<pdfrwt beam="2">  1       21 0.97330670E-01 0.17405117E+03</pdfrwt>
<totfact> 0.21776218E+04</totfact>
</mgrwt>
</event>
<event>
 4    3  0.4022695E+000  0.2415438E+03  0.7546771E-02  0.1118769E+00
         21   -1    0    0  503  502  0.00000000000E+00  0.00000000000E+00  0.81119751815E+03  0.81119751815E+03  0.00000000000E+00 0. -1.
         21   -1    0    0  501  503 -0.00000000000E+00 -0.00000000000E+00 -0.10239710792E+03  0.10239710792E+03  0.00000000000E+00 0. -1.
          6    1    1    2  501    0  0.14728468018E+03  0.81985436549E+02  0.10519996960E+03  0.26345857820E+03  0.17300000000E+03 0. -1.
         -6    1    1    2    0  502 -0.14728468018E+03 -0.81985436549E+02  0.60360044063E+03  0.65013604788E+03  0.17300000000E+03 0. -1.
<mgrwt>
<rscale>  2 0.24154376E+03</rscale>
<asrwt>0</asrwt>
<pdfrwt beam="1">  1       21 0.12479961E+00 0.24154376E+03</pdfrwt>
<pdfrwt beam="2">  1       21 0.15753402E-01 0.24154376E+03</pdfrwt>
<totfact> 0.16672814E+04</totfact>
</mgrwt>
</event>
<event>
 4    3  0.4022695E+000  0.1787837E+03  0.7546771E-02  0.1168985E+00
         21   -1    0    0  501  502  0.00000000000E+00  0.00000000000E+00  0.11026518560E+03  0.11026518560E+03  0.00000000000E+00 0. -1.
         21   -1    0    0  502  503 -0.00000000000E+00 -0.00000000000E+00 -0.58478416908E+03  0.58478416908E+03  0.00000000000E+00 0. -1.
          6    1    1    2  501    0 -0.27352260066E+02  0.35867384194E+02  0.95311455383E+01  0.17903758855E+03  0.17300000000E+03 0. -1.
         -6    1    1    2    0  503  0.27352260066E+02 -0.35867384194E+02 -0.48405012901E+03  0.51601176612E+03  0.17300000000E+03 0. -1.
<mgrwt>
<rscale>  2 0.17878371E+03</rscale>
<asrwt>0</asrwt>
<pdfrwt beam="1">  1       21 0.16963874E-01 0.17878371E+03</pdfrwt>
<pdfrwt beam="2">  1       21 0.89966797E-01 0.17878371E+03</pdfrwt>
<totfact> 0.33182015E+04</totfact>
</mgrwt>
</event>
<event>
 4    3  0.4022695E+000  0.2112319E+03  0.7546771E-02  0.1140594E+00
         21   -1    0    0  501  502  0.00000000000E+00  0.00000000000E+00  0.93531258531E+02  0.93531258531E+02  0.00000000000E+00 0. -1.
         21   -1    0    0  502  503 -0.00000000000E+00 -0.00000000000E+00 -0.66658314120E+03  0.66658314120E+03  0.00000000000E+00 0. -1.
          6    1    1    2  501    0 -0.26447695939E+02  0.11828119104E+03 -0.83866698188E+02  0.22727196008E+03  0.17300000000E+03 0. -1.
         -6    1    1    2    0  503  0.26447695939E+02 -0.11828119104E+03 -0.48918518448E+03  0.53284243965E+03  0.17300000000E+03 0. -1.
<mgrwt>
<rscale>  2 0.21123191E+03</rscale>
<asrwt>0</asrwt>
<pdfrwt beam="1">  1       21 0.14389425E-01 0.21123191E+03</pdfrwt>
<pdfrwt beam="2">  1       21 0.10255125E+00 0.21123191E+03</pdfrwt>
<totfact> 0.32369594E+04</totfact>
</mgrwt>
</event>
<event>
 4    3  0.4022695E+000  0.2410316E+03  0.7546771E-02  0.1119108E+00
         21   -1    0    0  503  502  0.00000000000E+00  0.00000000000E+00  0.13205714908E+03  0.13205714908E+03  0.00000000000E+00 0.  1.
         21   -1    0    0  501  503 -0.00000000000E+00 -0.00000000000E+00 -0.56653911710E+03  0.56653911710E+03  0.00000000000E+00 0. -1.
          6    1    1    2  501    0 -0.88503688265E+02  0.14259843708E+03 -0.38236479609E+03  0.45199452915E+03  0.17300000000E+03 0. -1.
         -6    1    1    2    0  502  0.88503688265E+02 -0.14259843708E+03 -0.52117171930E+02  0.24660173703E+03  0.17300000000E+03 0.  1.
<mgrwt>
<rscale>  2 0.24103157E+03</rscale>
<asrwt>0</asrwt>
<pdfrwt beam="1">  1       21 0.20316484E-01 0.24103157E+03</pdfrwt>
<pdfrwt beam="2">  1       21 0.87159865E-01 0.24103157E+03</pdfrwt>
<totfact> 0.24698346E+04</totfact>
</mgrwt>
</event>
<event>
 4    3  0.4022695E+000  0.1758872E+03  0.7546771E-02  0.1171844E+00
         21   -1    0    0  501  502  0.00000000000E+00  0.00000000000E+00  0.13450157497E+04  0.13450157497E+04  0.00000000000E+00 0. -1.
         21   -1    0    0  502  503 -0.00000000000E+00 -0.00000000000E+00 -0.25689552444E+02  0.25689552444E+02  0.00000000000E+00 0. -1.
          6    1    1    2  501    0 -0.50615321122E+01 -0.31331976549E+02  0.88139022378E+03  0.89876862341E+03  0.17300000000E+03 0. -1.
         -6    1    1    2    0  503  0.50615321122E+01  0.31331976549E+02  0.43793597344E+03  0.47193667869E+03  0.17300000000E+03 0. -1.
<mgrwt>
<rscale>  2 0.17588721E+03</rscale>
<asrwt>0</asrwt>
<pdfrwt beam="1">  1       21 0.20692545E+00 0.17588721E+03</pdfrwt>
<pdfrwt beam="2">  1       21 0.39522399E-02 0.17588721E+03</pdfrwt>
<totfact> 0.49064399E+04</totfact>
</mgrwt>
</event>
<event>
 4    3  0.4022695E+000  0.3154351E+03  0.7546771E-02  0.1077770E+00
         21   -1    0    0  501  502  0.00000000000E+00  0.00000000000E+00  0.27332281191E+03  0.27332281191E+03  0.00000000000E+00 0.  1.
         21   -1    0    0  502  503 -0.00000000000E+00 -0.00000000000E+00 -0.38931362037E+03  0.38931362037E+03  0.00000000000E+00 0. -1.
          6    1    1    2  501    0  0.25922082861E+03  0.48732869029E+02  0.26428222787E+02  0.31654033150E+03  0.17300000000E+03 0. -1.
         -6    1    1    2    0  503 -0.25922082861E+03 -0.48732869029E+02 -0.14241903125E+03  0.34609610077E+03  0.17300000000E+03 0.  1.
<mgrwt>
<rscale>  2 0.31543514E+03</rscale>
<asrwt>0</asrwt>
<pdfrwt beam="1">  1       21 0.42049664E-01 0.31543514E+03</pdfrwt>
<pdfrwt beam="2">  1       21 0.59894403E-01 0.31543514E+03</pdfrwt>
<totfact> 0.13284026E+04</totfact>
</mgrwt>
</event>
<event>
 4    3  0.4022695E+000  0.2576298E+03  0.7546771E-02  0.1108576E+00
         21   -1    0    0  501  502  0.00000000000E+00  0.00000000000E+00  0.41112355098E+03  0.41112355098E+03  0.00000000000E+00 0.  1.
         21   -1    0    0  502  503 -0.00000000000E+00 -0.00000000000E+00 -0.23036141716E+03  0.23036141716E+03  0.00000000000E+00 0. -1.
          6    1    1    2  501    0 -0.11628143040E+03 -0.15140262788E+03  0.26581695600E+03  0.37017803944E+03  0.17300000000E+03 0. -1.
         -6    1    1    2    0  503  0.11628143040E+03  0.15140262788E+03 -0.85054822179E+02  0.27130692870E+03  0.17300000000E+03 0.  1.
<mgrwt>
<rscale>  2 0.25762983E+03</rscale>
<asrwt>0</asrwt>
<pdfrwt beam="1">  1       21 0.63249777E-01 0.25762983E+03</pdfrwt>
<pdfrwt beam="2">  1       21 0.35440218E-01 0.25762983E+03</pdfrwt>
<totfact> 0.17123780E+04</totfact>
</mgrwt>
</event>
<event>
 4    3  0.4022695E+000  0.2315630E+03  0.7546771E-02  0.1125544E+00
         21   -1    0    0  501  502  0.00000000000E+00  0.00000000000E+00  0.38674993328E+03  0.38674993328E+03  0.00000000000E+00 0. -1.
         21   -1    0    0  502  503 -0.00000000000E+00 -0.00000000000E+00 -0.24622317033E+03  0.24622317033E+03  0.00000000000E+00 0. -1.
          6    1    1    2  501    0 -0.13568633056E+03  0.72675009475E+02  0.27945790257E+03  0.36292996103E+03  0.17300000000E+03 0. -1.
         -6    1    1    2    0  503  0.13568633056E+03 -0.72675009475E+02 -0.13893113962E+03  0.27004314259E+03  0.17300000000E+03 0. -1.
<mgrwt>
<rscale>  2 0.23156303E+03</rscale>
<asrwt>0</asrwt>
<pdfrwt beam="1">  1       21 0.59499990E-01 0.23156303E+03</pdfrwt>
<pdfrwt beam="2">  1       21 0.37880488E-01 0.23156303E+03</pdfrwt>
<totfact> 0.17331045E+04</totfact>
</mgrwt>
</event>
<event>
 4    3  0.4022695E+000  0.1870092E+03  0.7546771E-02  0.1161187E+00
         21   -1    0    0  503  502  0.00000000000E+00  0.00000000000E+00  0.66345960935E+03  0.66345960935E+03  0.00000000000E+00 0. -1.
         21   -1    0    0  501  503 -0.00000000000E+00 -0.00000000000E+00 -0.15954328384E+03  0.15954328384E+03  0.00000000000E+00 0.  1.
          6    1    1    2  501    0 -0.55553691153E+02 -0.44240409808E+02 -0.84771121270E+02  0.20532552073E+03  0.17300000000E+03 0.  1.
         -6    1    1    2    0  502  0.55553691153E+02  0.44240409808E+02  0.58868744678E+03  0.61767737246E+03  0.17300000000E+03 0. -1.
<mgrwt>
<rscale>  2 0.18700916E+03</rscale>
<asrwt>0</asrwt>
<pdfrwt beam="1">  1       21 0.10207071E+00 0.18700916E+03</pdfrwt>
<pdfrwt beam="2">  1       21 0.24545121E-01 0.18700916E+03</pdfrwt>
<totfact> 0.12311451E+04</totfact>
</mgrwt>
</event>
<event>
 4    3  0.4022695E+000  0.2132797E+03  0.7546771E-02  0.1138995E+00
         21   -1    0    0  503  502  0.00000000000E+00  0.00000000000E+00  0.88066168434E+03  0.88066168434E+03  0.00000000000E+00 0. -1.
         21   -1    0    0  501  503 -0.00000000000E+00 -0.00000000000E+00 -0.61982615238E+02  0.61982615238E+02  0.00000000000E+00 0. -1.
          6    1    1    2  501    0  0.10708447069E+03  0.63969932633E+02  0.21692456231E+03  0.30421127836E+03  0.17300000000E+03 0.  1.
         -6    1    1    2    0  502 -0.10708447069E+03 -0.63969932633E+02  0.60175450679E+03  0.63843302122E+03  0.17300000000E+03 0.  1.
<mgrwt>
<rscale>  2 0.21327971E+03</rscale>
<asrwt>0</asrwt>
<pdfrwt beam="1">  1       21 0.13548640E+00 0.21327971E+03</pdfrwt>
<pdfrwt beam="2">  1       21 0.95357876E-02 0.21327971E+03</pdfrwt>
<totfact> 0.33937792E+04</totfact>
</mgrwt>
</event>
<event>
 4    3  0.4022695E+000  0.2123719E+03  0.7546771E-02  0.1139701E+00
         21   -1    0    0  501  502  0.00000000000E+00  0.00000000000E+00  0.79056262365E+02  0.79056262365E+02  0.00000000000E+00 0. -1.
         21   -1    0    0  502  503 -0.00000000000E+00 -0.00000000000E+00 -0.71170902582E+03  0.71170902582E+03  0.00000000000E+00 0. -1.
          6    1    1    2  501    0  0.80931278140E+02  0.92859742741E+02 -0.14021250081E+03  0.25448251214E+03  0.17300000000E+03 0. -1.
         -6    1    1    2    0  503 -0.80931278140E+02 -0.92859742741E+02 -0.49244026264E+03  0.53628277604E+03  0.17300000000E+03 0. -1.
<mgrwt>
<rscale>  2 0.21237185E+03</rscale>
<asrwt>0</asrwt>
<pdfrwt beam="1">  1       21 0.12162502E-01 0.21237185E+03</pdfrwt>
<pdfrwt beam="2">  1       21 0.10949370E+00 0.21237185E+03</pdfrwt>
<totfact> 0.37427786E+04</totfact>
</mgrwt>
</event>
<event>
 4    3  0.4022695E+000  0.2354236E+03  0.7546771E-02  0.1122880E+00
         21   -1    0    0  503  502  0.00000000000E+00  0.00000000000E+00  0.53498889393E+03  0.53498889393E+03  0.00000000000E+00 0.  1.
         21   -1    0    0  501  503 -0.00000000000E+00 -0.00000000000E+00 -0.11602895935E+03  0.11602895935E+03  0.00000000000E+00 0.  1.
          6    1    1    2  501    0  0.25147459680E+02  0.15767969207E+03  0.10293923392E+03  0.25694506398E+03  0.17300000000E+03 0.  1.
         -6    1    1    2    0  502 -0.25147459680E+02 -0.15767969207E+03  0.31602070066E+03  0.39407278930E+03  0.17300000000E+03 0.  1.
<mgrwt>
<rscale>  2 0.23542362E+03</rscale>
<asrwt>0</asrwt>
<pdfrwt beam="1">  1       21 0.82305982E-01 0.23542362E+03</pdfrwt>
<pdfrwt beam="2">  1       21 0.17850609E-01 0.23542362E+03</pdfrwt>
<totfact> 0.35978444E+04</totfact>
</mgrwt>
</event>
<event>
 4    3  0.4022695E+000  0.2683163E+03  0.7546771E-02  0.1102247E+00
         21   -1    0    0  501  502  0.00000000000E+00  0.00000000000E+00  0.94331008910E+03  0.94331008910E+03  0.00000000000E+00 0. -1.
         21   -1    0    0  502  503 -0.00000000000E+00 -0.00000000000E+00 -0.11317495636E+03  0.11317495636E+03  0.00000000000E+00 0.  1.
          6    1    1    2  501    0 -0.12713138479E+03  0.16094180295E+03  0.71651023347E+03  0.76510167142E+03  0.17300000000E+03 0. -1.
         -6    1    1    2    0  503  0.12713138479E+03 -0.16094180295E+03  0.11362489928E+03  0.29138337404E+03  0.17300000000E+03 0.  1.
<mgrwt>
<rscale>  2 0.26831633E+03</rscale>
<asrwt>0</asrwt>
<pdfrwt beam="1">  1       21 0.14512462E+00 0.26831633E+03</pdfrwt>
<pdfrwt beam="2">  1       21 0.17411532E-01 0.26831633E+03</pdfrwt>
<totfact> 0.92562014E+03</totfact>
</mgrwt>
</event>
<event>
 4    3  0.4022695E+000  0.1803938E+03  0.7546771E-02  0.1167422E+00
         21   -1    0    0  501  502  0.00000000000E+00  0.00000000000E+00  0.57655022595E+03  0.57655022595E+03  0.00000000000E+00 0.  1.
         21   -1    0    0  502  503 -0.00000000000E+00 -0.00000000000E+00 -0.56459553555E+02  0.56459553555E+02  0.00000000000E+00 0. -1.
          6    1    1    2  501    0 -0.35165998069E+02 -0.37098303974E+02  0.25454334834E+03  0.31198437103E+03  0.17300000000E+03 0. -1.
         -6    1    1    2    0  503  0.35165998069E+02  0.37098303974E+02  0.26554732405E+03  0.32102540848E+03  0.17300000000E+03 0.  1.
<mgrwt>
<rscale>  2 0.18039382E+03</rscale>
<asrwt>0</asrwt>
<pdfrwt beam="1">  1       21 0.88700030E-01 0.18039382E+03</pdfrwt>
<pdfrwt beam="2">  1       21 0.86860856E-02 0.18039382E+03</pdfrwt>
<totfact> 0.11347730E+05</totfact>
</mgrwt>
</event>
<event>
 4    3  0.4022695E+000  0.2022504E+03  0.7546771E-02  0.1147854E+00
         21   -1    0    0  501  502  0.00000000000E+00  0.00000000000E+00  0.16388846310E+03  0.16388846310E+03  0.00000000000E+00 0. -1.
         21   -1    0    0  502  503 -0.00000000000E+00 -0.00000000000E+00 -0.80278427458E+03  0.80278427458E+03  0.00000000000E+00 0.  1.
          6    1    1    2  501    0 -0.22105751049E+02  0.10240883085E+03  0.81777236104E+02  0.21815762469E+03  0.17300000000E+03 0. -1.
         -6    1    1    2    0  503  0.22105751049E+02 -0.10240883085E+03 -0.72067304758E+03  0.74851511299E+03  0.17300000000E+03 0.  1.
<mgrwt>
<rscale>  2 0.20225042E+03</rscale>
<asrwt>0</asrwt>
<pdfrwt beam="1">  1       21 0.25213610E-01 0.20225042E+03</pdfrwt>
<pdfrwt beam="2">  1       21 0.12350527E+00 0.20225042E+03</pdfrwt>
<totfact> 0.72724281E+03</totfact>
</mgrwt>
</event>
<event>
 4    3  0.4022695E+000  0.2017951E+03  0.7546771E-02  0.1148233E+00
         21   -1    0    0  501  502  0.00000000000E+00  0.00000000000E+00  0.26559824428E+03  0.26559824428E+03  0.00000000000E+00 0.  1.
         21   -1    0    0  502  503 -0.00000000000E+00 -0.00000000000E+00 -0.23133267397E+03  0.23133267397E+03  0.00000000000E+00 0.  1.
          6    1    1    2  501    0  0.89133718622E+02 -0.53361336614E+02  0.16142169555E+03  0.25841481350E+03  0.17300000000E+03 0.  1.
         -6    1    1    2    0  503 -0.89133718622E+02  0.53361336614E+02 -0.12715612525E+03  0.23851610476E+03  0.17300000000E+03 0.  1.
<mgrwt>
<rscale>  2 0.20179507E+03</rscale>
<asrwt>0</asrwt>
<pdfrwt beam="1">  1       21 0.40861268E-01 0.20179507E+03</pdfrwt>
<pdfrwt beam="2">  1       21 0.35589642E-01 0.20179507E+03</pdfrwt>
<totfact> 0.43717096E+04</totfact>
</mgrwt>
</event>
<event>
 4    3  0.4022695E+000  0.1806228E+03  0.7546771E-02  0.1167202E+00
         21   -1    0    0  501  502  0.00000000000E+00  0.00000000000E+00  0.18591300841E+03  0.18591300841E+03  0.00000000000E+00 0. -1.
         21   -1    0    0  502  503 -0.00000000000E+00 -0.00000000000E+00 -0.24256947474E+03  0.24256947474E+03  0.00000000000E+00 0. -1.
          6    1    1    2  501    0  0.25918462442E+02  0.44986949988E+02  0.84340170615E+02  0.19934356459E+03  0.17300000000E+03 0. -1.
         -6    1    1    2    0  503 -0.25918462442E+02 -0.44986949988E+02 -0.14099663695E+03  0.22913891855E+03  0.17300000000E+03 0. -1.
<mgrwt>
<rscale>  2 0.18062279E+03</rscale>
<asrwt>0</asrwt>
<pdfrwt beam="1">  1       21 0.28602001E-01 0.18062279E+03</pdfrwt>
<pdfrwt beam="2">  1       21 0.37318381E-01 0.18062279E+03</pdfrwt>
<totfact> 0.81362249E+04</totfact>
</mgrwt>
</event>
<event>
 4    3  0.4022695E+000  0.1899926E+03  0.7546771E-02  0.1158468E+00
         21   -1    0    0  503  502  0.00000000000E+00  0.00000000000E+00  0.31060777575E+02  0.31060777575E+02  0.00000000000E+00 0. -1.
         21   -1    0    0  501  503 -0.00000000000E+00 -0.00000000000E+00 -0.11637375621E+04  0.11637375621E+04  0.00000000000E+00 0. -1.
          6    1    1    2  501    0  0.78318895043E+02 -0.58584000782E+01 -0.58842846964E+03  0.61834071034E+03  0.17300000000E+03 0. -1.
         -6    1    1    2    0  502 -0.78318895043E+02  0.58584000782E+01 -0.54424831490E+03  0.57645762936E+03  0.17300000000E+03 0. -1.
<mgrwt>
<rscale>  2 0.18999255E+03</rscale>
<asrwt>0</asrwt>
<pdfrwt beam="1">  1       21 0.47785824E-02 0.18999255E+03</pdfrwt>
<pdfrwt beam="2">  1       21 0.17903650E+00 0.18999255E+03</pdfrwt>
<totfact> 0.53738966E+04</totfact>
</mgrwt>
</event>
<event>
 4    3  0.4022695E+000  0.1836056E+03  0.7546771E-02  0.1164358E+00
         21   -1    0    0  503  502  0.00000000000E+00  0.00000000000E+00  0.22364803125E+03  0.22364803125E+03  0.00000000000E+00 0.  1.
         21   -1    0    0  501  503 -0.00000000000E+00 -0.00000000000E+00 -0.15328957870E+03  0.15328957870E+03  0.00000000000E+00 0.  1.
          6    1    1    2  501    0 -0.44402045033E+02 -0.42549714896E+02  0.59521317054E+02  0.19301245303E+03  0.17300000000E+03 0. -1.
         -6    1    1    2    0  502  0.44402045033E+02  0.42549714896E+02  0.10837135500E+02  0.18392515692E+03  0.17300000000E+03 0. -1.
<mgrwt>
<rscale>  2 0.18360561E+03</rscale>
<asrwt>0</asrwt>
<pdfrwt beam="1">  1       21 0.34407390E-01 0.18360561E+03</pdfrwt>
<pdfrwt beam="2">  1       21 0.23583012E-01 0.18360561E+03</pdfrwt>
<totfact> 0.13819745E+05</totfact>
</mgrwt>
</event>
<event>
 4    3  0.4022695E+000  0.1834967E+03  0.7546771E-02  0.1164461E+00
         21   -1    0    0  503  502  0.00000000000E+00  0.00000000000E+00  0.28538709150E+03  0.28538709150E+03  0.00000000000E+00 0.  1.
         21   -1    0    0  501  503 -0.00000000000E+00 -0.00000000000E+00 -0.18494216135E+03  0.18494216135E+03  0.00000000000E+00 0.  1.
          6    1    1    2  501    0 -0.52159231419E+02 -0.31959977091E+02 -0.91277638369E+02  0.20494543865E+03  0.17300000000E+03 0.  1.
         -6    1    1    2    0  502  0.52159231419E+02  0.31959977091E+02  0.19172256852E+03  0.26538381420E+03  0.17300000000E+03 0.  1.
<mgrwt>
<rscale>  2 0.18349666E+03</rscale>
<asrwt>0</asrwt>
<pdfrwt beam="1">  1       21 0.43905706E-01 0.18349666E+03</pdfrwt>
<pdfrwt beam="2">  1       21 0.28452640E-01 0.18349666E+03</pdfrwt>
<totfact> 0.59106576E+04</totfact>
</mgrwt>
</event>
<event>
 4    3  0.4022695E+000  0.1915170E+03  0.7546771E-02  0.1157100E+00
         21   -1    0    0  501  502  0.00000000000E+00  0.00000000000E+00  0.68257849909E+02  0.68257849909E+02  0.00000000000E+00 0.  1.
         21   -1    0    0  502  503 -0.00000000000E+00 -0.00000000000E+00 -0.96073601235E+03  0.96073601235E+03  0.00000000000E+00 0.  1.
          6    1    1    2  501    0  0.71683975689E+01  0.81843526196E+02 -0.10469555880E+03  0.21826568383E+03  0.17300000000E+03 0.  1.
         -6    1    1    2    0  503 -0.71683975689E+01 -0.81843526196E+02 -0.78778260364E+03  0.81072817843E+03  0.17300000000E+03 0.  1.
<mgrwt>
<rscale>  2 0.19151697E+03</rscale>
<asrwt>0</asrwt>
<pdfrwt beam="1">  1       21 0.10501208E-01 0.19151697E+03</pdfrwt>
<pdfrwt beam="2">  1       21 0.14780553E+00 0.19151697E+03</pdfrwt>
<totfact> 0.23139469E+04</totfact>
</mgrwt>
</event>
<event>
 4    3  0.4022695E+000  0.2631145E+03  0.7546771E-02  0.1105286E+00
         21   -1    0    0  501  502  0.00000000000E+00  0.00000000000E+00  0.63735497509E+03  0.63735497509E+03  0.00000000000E+00 0. -1.
         21   -1    0    0  502  503 -0.00000000000E+00 -0.00000000000E+00 -0.21976346922E+03  0.21976346922E+03  0.00000000000E+00 0. -1.
          6    1    1    2  501    0 -0.19634018204E+03 -0.27399993734E+02  0.51356833746E+03  0.57704563423E+03  0.17300000000E+03 0. -1.
         -6    1    1    2    0  503  0.19634018204E+03  0.27399993734E+02 -0.95976831589E+02  0.28007281007E+03  0.17300000000E+03 0. -1.
<mgrwt>
<rscale>  2 0.26311447E+03</rscale>
<asrwt>0</asrwt>
<pdfrwt beam="1">  1       21 0.98054611E-01 0.26311447E+03</pdfrwt>
<pdfrwt beam="2">  1       21 0.33809765E-01 0.26311447E+03</pdfrwt>
<totfact> 0.69192540E+03</totfact>
</mgrwt>
</event>
<event>
 4    3  0.4022695E+000  0.2291151E+03  0.7546771E-02  0.1127264E+00
         21   -1    0    0  503  502  0.00000000000E+00  0.00000000000E+00  0.37109558088E+02  0.37109558088E+02  0.00000000000E+00 0.  1.
         21   -1    0    0  501  503 -0.00000000000E+00 -0.00000000000E+00 -0.14162598292E+04  0.14162598292E+04  0.00000000000E+00 0.  1.
          6    1    1    2  501    0 -0.85991650304E+02 -0.12316722801E+03 -0.66440637229E+03  0.70280122190E+03  0.17300000000E+03 0.  1.
         -6    1    1    2    0  502  0.85991650304E+02  0.12316722801E+03 -0.71474389881E+03  0.75056816537E+03  0.17300000000E+03 0.  1.
<mgrwt>
<rscale>  2 0.22911510E+03</rscale>
<asrwt>0</asrwt>
<pdfrwt beam="1">  1       21 0.57091622E-02 0.22911510E+03</pdfrwt>
<pdfrwt beam="2">  1       21 0.21788615E+00 0.22911510E+03</pdfrwt>
<totfact> 0.21652363E+04</totfact>
</mgrwt>
</event>
<event>
 4    3  0.4022695E+000  0.1892438E+03  0.7546771E-02  0.1159145E+00
         21   -1    0    0  503  502  0.00000000000E+00  0.00000000000E+00  0.62689936173E+02  0.62689936173E+02  0.00000000000E+00 0.  1.
         21   -1    0    0  501  503 -0.00000000000E+00 -0.00000000000E+00 -0.80478345658E+03  0.80478345658E+03  0.00000000000E+00 0.  1.
          6    1    1    2  501    0  0.45301071210E+02  0.61903452288E+02 -0.60468153857E+03  0.63360317829E+03  0.17300000000E+03 0.  1.
         -6    1    1    2    0  502 -0.45301071210E+02 -0.61903452288E+02 -0.13741198184E+03  0.23387021446E+03  0.17300000000E+03 0.  1.
<mgrwt>
<rscale>  2 0.18924382E+03</rscale>
<asrwt>0</asrwt>
<pdfrwt beam="1">  1       21 0.96446063E-02 0.18924382E+03</pdfrwt>
<pdfrwt beam="2">  1       21 0.12381283E+00 0.18924382E+03</pdfrwt>
<totfact> 0.42335079E+04</totfact>
</mgrwt>
</event>
<event>
 4    3  0.4022695E+000  0.2633055E+03  0.7546771E-02  0.1105173E+00
         21   -1    0    0  501  502  0.00000000000E+00  0.00000000000E+00  0.20238813202E+03  0.20238813202E+03  0.00000000000E+00 0.  1.
         21   -1    0    0  502  503 -0.00000000000E+00 -0.00000000000E+00 -0.34721911969E+03  0.34721911969E+03  0.00000000000E+00 0. -1.
          6    1    1    2  501    0 -0.70945650839E+02 -0.18538478352E+03 -0.40578215463E+02  0.26641395403E+03  0.17300000000E+03 0. -1.
         -6    1    1    2    0  503  0.70945650839E+02  0.18538478352E+03 -0.10425277221E+03  0.28319329767E+03  0.17300000000E+03 0.  1.
<mgrwt>
<rscale>  2 0.26330553E+03</rscale>
<asrwt>0</asrwt>
<pdfrwt beam="1">  1       21 0.31136636E-01 0.26330553E+03</pdfrwt>
<pdfrwt beam="2">  1       21 0.53418326E-01 0.26330553E+03</pdfrwt>
<totfact> 0.31775027E+04</totfact>
</mgrwt>
</event>
<event>
 4    3  0.4022695E+000  0.2658588E+03  0.7546771E-02  0.1103673E+00
         21   -1    0    0  501  502  0.00000000000E+00  0.00000000000E+00  0.21589810349E+03  0.21589810349E+03  0.00000000000E+00 0. -1.
         21   -1    0    0  502  503 -0.00000000000E+00 -0.00000000000E+00 -0.33012642646E+03  0.33012642646E+03  0.00000000000E+00 0. -1.
          6    1    1    2  501    0  0.12105725612E+03 -0.16154573229E+03 -0.82012292831E+02  0.27822095366E+03  0.17300000000E+03 0. -1.
         -6    1    1    2    0  503 -0.12105725612E+03  0.16154573229E+03 -0.32216030140E+02  0.26780357630E+03  0.17300000000E+03 0. -1.
<mgrwt>
<rscale>  2 0.26585876E+03</rscale>
<asrwt>0</asrwt>
<pdfrwt beam="1">  1       21 0.33215093E-01 0.26585876E+03</pdfrwt>
<pdfrwt beam="2">  1       21 0.50788681E-01 0.26585876E+03</pdfrwt>
<totfact> 0.31075972E+04</totfact>
</mgrwt>
</event>
<event>
 4    3  0.4022695E+000  0.1834874E+03  0.7546771E-02  0.1164470E+00
         21   -1    0    0  503  502  0.00000000000E+00  0.00000000000E+00  0.29067278073E+03  0.29067278073E+03  0.00000000000E+00 0.  1.
         21   -1    0    0  501  503 -0.00000000000E+00 -0.00000000000E+00 -0.19938425668E+03  0.19938425668E+03  0.00000000000E+00 0.  1.
          6    1    1    2  501    0  0.60108238127E+02  0.11208851822E+02 -0.11297807346E+03  0.21548012375E+03  0.17300000000E+03 0.  1.
         -6    1    1    2    0  502 -0.60108238127E+02 -0.11208851822E+02  0.20426659751E+03  0.27457691365E+03  0.17300000000E+03 0.  1.
<mgrwt>
<rscale>  2 0.18348743E+03</rscale>
<asrwt>0</asrwt>
<pdfrwt beam="1">  1       21 0.44718889E-01 0.18348743E+03</pdfrwt>
<pdfrwt beam="2">  1       21 0.30674501E-01 0.18348743E+03</pdfrwt>
<totfact> 0.49189300E+04</totfact>
</mgrwt>
</event>
<event>
 4    3  0.4022695E+000  0.2188072E+03  0.7546771E-02  0.1134775E+00
         21   -1    0    0  501  502  0.00000000000E+00  0.00000000000E+00  0.16714841879E+03  0.16714841879E+03  0.00000000000E+00 0.  1.
         21   -1    0    0  502  503 -0.00000000000E+00 -0.00000000000E+00 -0.29205369085E+03  0.29205369085E+03  0.00000000000E+00 0.  1.
          6    1    1    2  501    0  0.25757386730E+01  0.13394383788E+03 -0.94308700968E+02  0.23826606392E+03  0.17300000000E+03 0.  1.
         -6    1    1    2    0  503 -0.25757386730E+01 -0.13394383788E+03 -0.30596571094E+02  0.22093604572E+03  0.17300000000E+03 0.  1.
<mgrwt>
<rscale>  2 0.21880719E+03</rscale>
<asrwt>0</asrwt>
<pdfrwt beam="1">  1       21 0.25715142E-01 0.21880719E+03</pdfrwt>
<pdfrwt beam="2">  1       21 0.44931337E-01 0.21880719E+03</pdfrwt>
<totfact> 0.67440629E+04</totfact>
</mgrwt>
</event>
<event>
 4    3  0.4022695E+000  0.1833903E+03  0.7546771E-02  0.1164562E+00
         21   -1    0    0  503  502  0.00000000000E+00  0.00000000000E+00  0.56610323353E+03  0.56610323353E+03  0.00000000000E+00 0. -1.
         21   -1    0    0  501  503 -0.00000000000E+00 -0.00000000000E+00 -0.13454837371E+03  0.13454837371E+03  0.00000000000E+00 0. -1.
          6    1    1    2  501    0  0.60834526885E+02  0.14651275730E+01 -0.46019682450E+02  0.18907616834E+03  0.17300000000E+03 0. -1.
         -6    1    1    2    0  502 -0.60834526885E+02 -0.14651275730E+01  0.47757454228E+03  0.51157543890E+03  0.17300000000E+03 0. -1.
<mgrwt>
<rscale>  2 0.18339026E+03</rscale>
<asrwt>0</asrwt>
<pdfrwt beam="1">  1       21 0.87092804E-01 0.18339026E+03</pdfrwt>
<pdfrwt beam="2">  1       21 0.20699750E-01 0.18339026E+03</pdfrwt>
<totfact> 0.24660563E+04</totfact>
</mgrwt>
</event>
<event>
 4    3  0.4022695E+000  0.1791608E+03  0.7546771E-02  0.1168618E+00
         21   -1    0    0  501  502  0.00000000000E+00  0.00000000000E+00  0.38043217238E+02  0.38043217238E+02  0.00000000000E+00 0.  1.
         21   -1    0    0  502  503 -0.00000000000E+00 -0.00000000000E+00 -0.10973629810E+04  0.10973629810E+04  0.00000000000E+00 0.  1.
          6    1    1    2  501    0  0.17075250733E+02 -0.43336253932E+02 -0.25673686290E+03  0.31306934035E+03  0.17300000000E+03 0.  1.
         -6    1    1    2    0  503 -0.17075250733E+02  0.43336253932E+02 -0.80258290088E+03  0.82233685791E+03  0.17300000000E+03 0.  1.
<mgrwt>
<rscale>  2 0.17916081E+03</rscale>
<asrwt>0</asrwt>
<pdfrwt beam="1">  1       21 0.58528029E-02 0.17916081E+03</pdfrwt>
<pdfrwt beam="2">  1       21 0.16882507E+00 0.17916081E+03</pdfrwt>
<totfact> 0.45113999E+04</totfact>
</mgrwt>
</event>
<event>
 4    3  0.4022695E+000  0.2221221E+03  0.7546771E-02  0.1132311E+00
         21   -1    0    0  501  502  0.00000000000E+00  0.00000000000E+00  0.69489266072E+03  0.69489266072E+03  0.00000000000E+00 0. -1.
         21   -1    0    0  502  503 -0.00000000000E+00 -0.00000000000E+00 -0.13747228303E+03  0.13747228303E+03  0.00000000000E+00 0.  1.
          6    1    1    2  501    0  0.64557071593E+02  0.12345685155E+03  0.56810624261E+03  0.60998599376E+03  0.17300000000E+03 0. -1.
         -6    1    1    2    0  503 -0.64557071593E+02 -0.12345685155E+03 -0.10685864918E+02  0.22237894999E+03  0.17300000000E+03 0.  1.
<mgrwt>
<rscale>  2 0.22212206E+03</rscale>
<asrwt>0</asrwt>
<pdfrwt beam="1">  1       21 0.10690656E+00 0.22212206E+03</pdfrwt>
<pdfrwt beam="2">  1       21 0.21149582E-01 0.22212206E+03</pdfrwt>
<totfact> 0.14272312E+04</totfact>
</mgrwt>
</event>
<event>
 4    3  0.4022695E+000  0.2097444E+03  0.7546771E-02  0.1141769E+00
         21   -1    0    0  503  502  0.00000000000E+00  0.00000000000E+00  0.19008178574E+03  0.19008178574E+03  0.00000000000E+00 0. -1.
         21   -1    0    0  501  503 -0.00000000000E+00 -0.00000000000E+00 -0.39098718964E+03  0.39098718964E+03  0.00000000000E+00 0. -1.
          6    1    1    2  501    0 -0.11748049444E+03  0.16188471736E+02 -0.28604482588E+03  0.35470322187E+03  0.17300000000E+03 0. -1.
         -6    1    1    2    0  502  0.11748049444E+03 -0.16188471736E+02  0.85139421976E+02  0.22636575352E+03  0.17300000000E+03 0. -1.
<mgrwt>
<rscale>  2 0.20974445E+03</rscale>
<asrwt>0</asrwt>
<pdfrwt beam="1">  1       21 0.29243352E-01 0.20974445E+03</pdfrwt>
<pdfrwt beam="2">  1       21 0.60151876E-01 0.20974445E+03</pdfrwt>
<totfact> 0.28591077E+04</totfact>
</mgrwt>
</event>
<event>
 4    3  0.4022695E+000  0.1974775E+03  0.7546771E-02  0.1151885E+00
         21   -1    0    0  501  502  0.00000000000E+00  0.00000000000E+00  0.85876827548E+03  0.85876827548E+03  0.00000000000E+00 0.  1.
         21   -1    0    0  502  503 -0.00000000000E+00 -0.00000000000E+00 -0.11409370332E+03  0.11409370332E+03  0.00000000000E+00 0.  1.
          6    1    1    2  501    0 -0.13633860009E+02  0.94246865623E+02  0.74974843151E+03  0.77531933058E+03  0.17300000000E+03 0.  1.
         -6    1    1    2    0  503  0.13633860009E+02 -0.94246865623E+02 -0.50738593539E+01  0.19754264822E+03  0.17300000000E+03 0.  1.
<mgrwt>
<rscale>  2 0.19747748E+03</rscale>
<asrwt>0</asrwt>
<pdfrwt beam="1">  1       21 0.13211819E+00 0.19747748E+03</pdfrwt>
<pdfrwt beam="2">  1       21 0.17552878E-01 0.19747748E+03</pdfrwt>
<totfact> 0.12162177E+04</totfact>
</mgrwt>
</event>
<event>
 4    3  0.4022695E+000  0.2112756E+03  0.7546771E-02  0.1140560E+00
         21   -1    0    0  501  502  0.00000000000E+00  0.00000000000E+00  0.34293034159E+03  0.34293034159E+03  0.00000000000E+00 0. -1.
         21   -1    0    0  502  503 -0.00000000000E+00 -0.00000000000E+00 -0.13816523505E+03  0.13816523505E+03  0.00000000000E+00 0. -1.
          6    1    1    2  501    0 -0.73351453097E+02  0.96581177873E+02  0.44497468511E+02  0.21591059329E+03  0.17300000000E+03 0.  1.
         -6    1    1    2    0  503  0.73351453097E+02 -0.96581177873E+02  0.16026763803E+03  0.26518498334E+03  0.17300000000E+03 0.  1.
<mgrwt>
<rscale>  2 0.21127555E+03</rscale>
<asrwt>0</asrwt>
<pdfrwt beam="1">  1       21 0.52758514E-01 0.21127555E+03</pdfrwt>
<pdfrwt beam="2">  1       21 0.21256190E-01 0.21127555E+03</pdfrwt>
<totfact> 0.69548490E+04</totfact>
</mgrwt>
</event>
<event>
 4    3  0.4022695E+000  0.2191324E+03  0.7546771E-02  0.1134532E+00
         21   -1    0    0  503  502  0.00000000000E+00  0.00000000000E+00  0.65444133690E+03  0.65444133690E+03  0.00000000000E+00 0.  1.
         21   -1    0    0  501  503 -0.00000000000E+00 -0.00000000000E+00 -0.78874197095E+02  0.78874197095E+02  0.00000000000E+00 0.  1.
          6    1    1    2  501    0 -0.13373429068E+03  0.14323643942E+02  0.19096033105E+03  0.29066282066E+03  0.17300000000E+03 0.  1.
         -6    1    1    2    0  502  0.13373429068E+03 -0.14323643942E+02  0.38460680876E+03  0.44265271333E+03  0.17300000000E+03 0.  1.
<mgrwt>
<rscale>  2 0.21913244E+03</rscale>
<asrwt>0</asrwt>
<pdfrwt beam="1">  1       21 0.10068328E+00 0.21913244E+03</pdfrwt>
<pdfrwt beam="2">  1       21 0.12134492E-01 0.21913244E+03</pdfrwt>
<totfact> 0.45842701E+04</totfact>
</mgrwt>
</event>
<event>
 4    3  0.4022695E+000  0.1845654E+03  0.7546771E-02  0.1163456E+00
         21   -1    0    0  503  502  0.00000000000E+00  0.00000000000E+00  0.49926205832E+03  0.49926205832E+03  0.00000000000E+00 0.  1.
         21   -1    0    0  501  503 -0.00000000000E+00 -0.00000000000E+00 -0.16214367015E+03  0.16214367015E+03  0.00000000000E+00 0.  1.
          6    1    1    2  501    0  0.62255312756E+02  0.16114245165E+02 -0.83123616610E+02  0.20242017810E+03  0.17300000000E+03 0.  1.
         -6    1    1    2    0  502 -0.62255312756E+02 -0.16114245165E+02  0.42024200478E+03  0.45898555037E+03  0.17300000000E+03 0.  1.
<mgrwt>
<rscale>  2 0.18456542E+03</rscale>
<asrwt>0</asrwt>
<pdfrwt beam="1">  1       21 0.76809547E-01 0.18456542E+03</pdfrwt>
<pdfrwt beam="2">  1       21 0.24945180E-01 0.18456542E+03</pdfrwt>
<totfact> 0.23034920E+04</totfact>
</mgrwt>
</event>
<event>
 4    3  0.4022695E+000  0.1824474E+03  0.7546771E-02  0.1165455E+00
         21   -1    0    0  501  502  0.00000000000E+00  0.00000000000E+00  0.49971962545E+03  0.49971962545E+03  0.00000000000E+00 0. -1.
         21   -1    0    0  502  503 -0.00000000000E+00 -0.00000000000E+00 -0.67761988413E+02  0.67761988413E+02  0.00000000000E+00 0. -1.
          6    1    1    2  501    0 -0.25989588818E+02  0.51793602101E+02  0.17900586353E+03  0.25559760390E+03  0.17300000000E+03 0. -1.
         -6    1    1    2    0  503  0.25989588818E+02 -0.51793602101E+02  0.25295177352E+03  0.31188400996E+03  0.17300000000E+03 0. -1.
<mgrwt>
<rscale>  2 0.18244735E+03</rscale>
<asrwt>0</asrwt>
<pdfrwt beam="1">  1       21 0.76879940E-01 0.18244735E+03</pdfrwt>
<pdfrwt beam="2">  1       21 0.10424922E-01 0.18244735E+03</pdfrwt>
<totfact> 0.11383183E+05</totfact>
</mgrwt>
</event>
<event>
 4    3  0.4022695E+000  0.1971114E+03  0.7546771E-02  0.1152199E+00
         21   -1    0    0  503  502  0.00000000000E+00  0.00000000000E+00  0.27272582209E+03  0.27272582209E+03  0.00000000000E+00 0. -1.
         21   -1    0    0  501  503 -0.00000000000E+00 -0.00000000000E+00 -0.14346026685E+03  0.14346026685E+03  0.00000000000E+00 0.  1.
          6    1    1    2  501    0 -0.53314378117E+02  0.77983796587E+02  0.81996831194E+02  0.21348624258E+03  0.17300000000E+03 0.  1.
         -6    1    1    2    0  502  0.53314378117E+02 -0.77983796587E+02  0.47268724042E+02  0.20269984637E+03  0.17300000000E+03 0.  1.
<mgrwt>
<rscale>  2 0.19711138E+03</rscale>
<asrwt>0</asrwt>
<pdfrwt beam="1">  1       21 0.41957819E-01 0.19711138E+03</pdfrwt>
<pdfrwt beam="2">  1       21 0.22070810E-01 0.19711138E+03</pdfrwt>
<totfact> 0.10471698E+05</totfact>
</mgrwt>
</event>
<event>
 4    3  0.4022695E+000  0.1973160E+03  0.7546771E-02  0.1152023E+00
         21   -1    0    0  501  502  0.00000000000E+00  0.00000000000E+00  0.77089660120E+03  0.77089660120E+03  0.00000000000E+00 0. -1.
         21   -1    0    0  502  503 -0.00000000000E+00 -0.00000000000E+00 -0.54359082758E+02  0.54359082758E+02  0.00000000000E+00 0.  1.
          6    1    1    2  501    0  0.66602310761E+02 -0.67592280404E+02  0.24838763768E+03  0.31722232381E+03  0.17300000000E+03 0. -1.
         -6    1    1    2    0  503 -0.66602310761E+02  0.67592280404E+02  0.46814988077E+03  0.50803336016E+03  0.17300000000E+03 0.  1.
<mgrwt>
<rscale>  2 0.19731595E+03</rscale>
<asrwt>0</asrwt>
<pdfrwt beam="1">  1       21 0.11859947E+00 0.19731595E+03</pdfrwt>
<pdfrwt beam="2">  1       21 0.83629363E-02 0.19731595E+03</pdfrwt>
<totfact> 0.60244967E+04</totfact>
</mgrwt>
</event>
<event>
 4    3  0.4022695E+000  0.4118381E+03  0.7546771E-02  0.1039756E+00
         21   -1    0    0  501  502  0.00000000000E+00  0.00000000000E+00  0.15172172114E+03  0.15172172114E+03  0.00000000000E+00 0.  1.
         21   -1    0    0  502  503 -0.00000000000E+00 -0.00000000000E+00 -0.20728905006E+04  0.20728905006E+04  0.00000000000E+00 0. -1.
          6    1    1    2  501    0  0.18419977743E+03 -0.32519536620E+03 -0.20560627712E+03  0.46030916284E+03  0.17300000000E+03 0.  1.
         -6    1    1    2    0  503 -0.18419977743E+03  0.32519536620E+03 -0.17155625023E+04  0.17643030589E+04  0.17300000000E+03 0. -1.
<mgrwt>
<rscale>  2 0.41183806E+03</rscale>
<asrwt>0</asrwt>
<pdfrwt beam="1">  1       21 0.23341805E-01 0.41183806E+03</pdfrwt>
<pdfrwt beam="2">  1       21 0.31890621E+00 0.41183806E+03</pdfrwt>
<totfact> 0.36959708E+02</totfact>
</mgrwt>
</event>
<event>
 4    3  0.4022695E+000  0.1917581E+03  0.7546771E-02  0.1156885E+00
         21   -1    0    0  501  502  0.00000000000E+00  0.00000000000E+00  0.85500669556E+02  0.85500669556E+02  0.00000000000E+00 0.  1.
         21   -1    0    0  502  503 -0.00000000000E+00 -0.00000000000E+00 -0.80599804915E+03  0.80599804915E+03  0.00000000000E+00 0.  1.
          6    1    1    2  501    0  0.65732004454E+01  0.82455753956E+02 -0.55826102820E+02  0.19971908292E+03  0.17300000000E+03 0.  1.
         -6    1    1    2    0  503 -0.65732004454E+01 -0.82455753956E+02 -0.66467127677E+03  0.69177963579E+03  0.17300000000E+03 0.  1.
<mgrwt>
<rscale>  2 0.19175807E+03</rscale>
<asrwt>0</asrwt>
<pdfrwt beam="1">  1       21 0.13153950E-01 0.19175807E+03</pdfrwt>
<pdfrwt beam="2">  1       21 0.12399969E+00 0.19175807E+03</pdfrwt>
<totfact> 0.24234757E+04</totfact>
</mgrwt>
</event>
<event>
 4    3  0.4022695E+000  0.2008727E+03  0.7546771E-02  0.1149005E+00
         21   -1    0    0  503  502  0.00000000000E+00  0.00000000000E+00  0.44886686296E+03  0.44886686296E+03  0.00000000000E+00 0.  1.
         21   -1    0    0  501  503 -0.00000000000E+00 -0.00000000000E+00 -0.16267076174E+03  0.16267076174E+03  0.00000000000E+00 0.  1.
          6    1    1    2  501    0  0.59125178628E+02  0.83216859740E+02 -0.61423380690E+02  0.21005395542E+03  0.17300000000E+03 0.  1.
         -6    1    1    2    0  502 -0.59125178628E+02 -0.83216859740E+02  0.34761948191E+03  0.40148366928E+03  0.17300000000E+03 0.  1.
<mgrwt>
<rscale>  2 0.20087268E+03</rscale>
<asrwt>0</asrwt>
<pdfrwt beam="1">  1       21 0.69056440E-01 0.20087268E+03</pdfrwt>
<pdfrwt beam="2">  1       21 0.25026271E-01 0.20087268E+03</pdfrwt>
<totfact> 0.28726075E+04</totfact>
</mgrwt>
</event>
<event>
 4    3  0.4022695E+000  0.2095441E+03  0.7546771E-02  0.1141928E+00
         21   -1    0    0  501  502  0.00000000000E+00  0.00000000000E+00  0.39018275121E+03  0.39018275121E+03  0.00000000000E+00 0. -1.
         21   -1    0    0  502  503 -0.00000000000E+00 -0.00000000000E+00 -0.19874944883E+03  0.19874944883E+03  0.00000000000E+00 0.  1.
          6    1    1    2  501    0  0.97036171825E+02  0.67555266465E+02  0.28966026576E+03  0.35750776527E+03  0.17300000000E+03 0.  1.
         -6    1    1    2    0  503 -0.97036171825E+02 -0.67555266465E+02 -0.98226963385E+02  0.23142443476E+03  0.17300000000E+03 0.  1.
<mgrwt>
<rscale>  2 0.20954411E+03</rscale>
<asrwt>0</asrwt>
<pdfrwt beam="1">  1       21 0.60028115E-01 0.20954411E+03</pdfrwt>
<pdfrwt beam="2">  1       21 0.30576838E-01 0.20954411E+03</pdfrwt>
<totfact> 0.26326717E+04</totfact>
</mgrwt>
</event>
<event>
 4    3  0.4022695E+000  0.1731984E+03  0.7546771E-02  0.1174553E+00
         21   -1    0    0  501  502  0.00000000000E+00  0.00000000000E+00  0.18185508991E+04  0.18185508991E+04  0.00000000000E+00 0.  1.
         21   -1    0    0  502  503 -0.00000000000E+00 -0.00000000000E+00 -0.18195005878E+02  0.18195005878E+02  0.00000000000E+00 0.  1.
          6    1    1    2  501    0  0.43662614888E+01  0.70450191064E+01  0.11808628543E+04  0.11934968694E+04  0.17300000000E+03 0.  1.
         -6    1    1    2    0  503 -0.43662614888E+01 -0.70450191064E+01  0.61949303889E+03  0.64324903557E+03  0.17300000000E+03 0.  1.
<mgrwt>
<rscale>  2 0.17319843E+03</rscale>
<asrwt>0</asrwt>
<pdfrwt beam="1">  1       21 0.27977692E+00 0.17319843E+03</pdfrwt>
<pdfrwt beam="2">  1       21 0.27992331E-02 0.17319843E+03</pdfrwt>
<totfact> 0.32244907E+04</totfact>
</mgrwt>
</event>
<event>
 4    3  0.4022695E+000  0.1974345E+03  0.7546771E-02  0.1151922E+00
         21   -1    0    0  503  502  0.00000000000E+00  0.00000000000E+00  0.17881110018E+04  0.17881110018E+04  0.00000000000E+00 0. -1.
         21   -1    0    0  501  503 -0.00000000000E+00 -0.00000000000E+00 -0.37780418682E+02  0.37780418682E+02  0.00000000000E+00 0. -1.
          6    1    1    2  501    0 -0.41566026332E+02  0.85578321540E+02  0.28140799391E+03  0.34375986196E+03  0.17300000000E+03 0. -1.
         -6    1    1    2    0  502  0.41566026332E+02 -0.85578321540E+02  0.14689225893E+04  0.14821315586E+04  0.17300000000E+03 0. -1.
<mgrwt>
<rscale>  2 0.19743450E+03</rscale>
<asrwt>0</asrwt>
<pdfrwt beam="1">  1       21 0.27509394E+00 0.19743450E+03</pdfrwt>
<pdfrwt beam="2">  1       21 0.58123735E-02 0.19743450E+03</pdfrwt>
<totfact> 0.98410209E+03</totfact>
</mgrwt>
</event>
<event>
 4    3  0.4022695E+000  0.1796093E+03  0.7546771E-02  0.1168182E+00
         21   -1    0    0  503  502  0.00000000000E+00  0.00000000000E+00  0.82870509955E+02  0.82870509955E+02  0.00000000000E+00 0. -1.
         21   -1    0    0  501  503 -0.00000000000E+00 -0.00000000000E+00 -0.66178657358E+03  0.66178657358E+03  0.00000000000E+00 0. -1.
          6    1    1    2  501    0 -0.31827959795E+02  0.36297310584E+02 -0.52838155263E+03  0.55807399056E+03  0.17300000000E+03 0. -1.
         -6    1    1    2    0  502  0.31827959795E+02 -0.36297310584E+02 -0.50534510988E+02  0.18658309297E+03  0.17300000000E+03 0. -1.
<mgrwt>
<rscale>  2 0.17960934E+03</rscale>
<asrwt>0</asrwt>
<pdfrwt beam="1">  1       21 0.12749310E-01 0.17960934E+03</pdfrwt>
<pdfrwt beam="2">  1       21 0.10181331E+00 0.17960934E+03</pdfrwt>
<totfact> 0.41691314E+04</totfact>
</mgrwt>
</event>
<event>
 4    3  0.4022695E+000  0.2759335E+03  0.7546771E-02  0.1097931E+00
         21   -1    0    0  501  502  0.00000000000E+00  0.00000000000E+00  0.35393393389E+03  0.35393393389E+03  0.00000000000E+00 0. -1.
         21   -1    0    0  502  503 -0.00000000000E+00 -0.00000000000E+00 -0.21926265267E+03  0.21926265267E+03  0.00000000000E+00 0.  1.
          6    1    1    2  501    0  0.16680662620E+03 -0.13559451285E+03  0.10671551139E+03  0.29585050757E+03  0.17300000000E+03 0.  1.
         -6    1    1    2    0  503 -0.16680662620E+03  0.13559451285E+03  0.27955769829E+02  0.27734607898E+03  0.17300000000E+03 0.  1.
<mgrwt>
<rscale>  2 0.27593355E+03</rscale>
<asrwt>0</asrwt>
<pdfrwt beam="1">  1       21 0.54451374E-01 0.27593355E+03</pdfrwt>
<pdfrwt beam="2">  1       21 0.33732716E-01 0.27593355E+03</pdfrwt>
<totfact> 0.25892300E+04</totfact>
</mgrwt>
</event>
<event>
 4    3  0.4022695E+000  0.2125277E+03  0.7546771E-02  0.1139580E+00
         21   -1    0    0  501  502  0.00000000000E+00  0.00000000000E+00  0.49423653513E+03  0.49423653513E+03  0.00000000000E+00 0.  1.
         21   -1    0    0  502  503 -0.00000000000E+00 -0.00000000000E+00 -0.20236220917E+03  0.20236220917E+03  0.00000000000E+00 0.  1.
          6    1    1    2  501    0  0.12332698498E+03 -0.54301358200E+01  0.40386372712E+03  0.45637039966E+03  0.17300000000E+03 0.  1.
         -6    1    1    2    0  503 -0.12332698498E+03  0.54301358200E+01 -0.11198940115E+03  0.24022834465E+03  0.17300000000E+03 0.  1.
<mgrwt>
<rscale>  2 0.21252772E+03</rscale>
<asrwt>0</asrwt>
<pdfrwt beam="1">  1       21 0.76036390E-01 0.21252772E+03</pdfrwt>
<pdfrwt beam="2">  1       21 0.31132648E-01 0.21252772E+03</pdfrwt>
<totfact> 0.15092789E+04</totfact>
</mgrwt>
</event>
<event>
 4    3  0.4022695E+000  0.1742719E+03  0.7546771E-02  0.1173465E+00
         21   -1    0    0  501  502  0.00000000000E+00  0.00000000000E+00  0.41941008468E+03  0.41941008468E+03  0.00000000000E+00 0.  1.
         21   -1    0    0  502  503 -0.00000000000E+00 -0.00000000000E+00 -0.19717247375E+03  0.19717247375E+03  0.00000000000E+00 0.  1.
          6    1    1    2  501    0  0.51290866711E+01 -0.20381219278E+02  0.35634961611E+03  0.39668091778E+03  0.17300000000E+03 0.  1.
         -6    1    1    2    0  503 -0.51290866711E+01  0.20381219278E+02 -0.13411200517E+03  0.21990164065E+03  0.17300000000E+03 0.  1.
<mgrwt>
<rscale>  2 0.17427192E+03</rscale>
<asrwt>0</asrwt>
<pdfrwt beam="1">  1       21 0.64524628E-01 0.17427192E+03</pdfrwt>
<pdfrwt beam="2">  1       21 0.30334227E-01 0.17427192E+03</pdfrwt>
<totfact> 0.23344419E+04</totfact>
</mgrwt>
</event>
<event>
 4    3  0.4022695E+000  0.2979538E+03  0.7546771E-02  0.1086268E+00
         21   -1    0    0  503  502  0.00000000000E+00  0.00000000000E+00  0.58054931303E+02  0.58054931303E+02  0.00000000000E+00 0. -1.
         21   -1    0    0  501  503 -0.00000000000E+00 -0.00000000000E+00 -0.15662673490E+04  0.15662673490E+04  0.00000000000E+00 0. -1.
          6    1    1    2  501    0 -0.20784256065E+03  0.12509578383E+03 -0.87907960888E+03  0.92820118719E+03  0.17300000000E+03 0. -1.
         -6    1    1    2    0  502  0.20784256065E+03 -0.12509578383E+03 -0.62913280881E+03  0.69612109311E+03  0.17300000000E+03 0. -1.
<mgrwt>
<rscale>  2 0.29795383E+03</rscale>
<asrwt>0</asrwt>
<pdfrwt beam="1">  1       21 0.89315302E-02 0.29795383E+03</pdfrwt>
<pdfrwt beam="2">  1       21 0.24096415E+00 0.29795383E+03</pdfrwt>
<totfact> 0.68506104E+03</totfact>
</mgrwt>
</event>
<event>
 4    3  0.4022695E+000  0.2150322E+03  0.7546771E-02  0.1137642E+00
         21   -1    0    0  501  502  0.00000000000E+00  0.00000000000E+00  0.14897702174E+03  0.14897702174E+03  0.00000000000E+00 0.  1.
         21   -1    0    0  502  503 -0.00000000000E+00 -0.00000000000E+00 -0.40369004901E+03  0.40369004901E+03  0.00000000000E+00 0. -1.
          6    1    1    2  501    0 -0.27039906645E+02  0.12481461168E+03  0.55003030465E+01  0.21510252712E+03  0.17300000000E+03 0.  1.
         -6    1    1    2    0  503  0.27039906645E+02 -0.12481461168E+03 -0.26021333032E+03  0.33756454363E+03  0.17300000000E+03 0. -1.
<mgrwt>
<rscale>  2 0.21503219E+03</rscale>
<asrwt>0</asrwt>
<pdfrwt beam="1">  1       21 0.22919542E-01 0.21503219E+03</pdfrwt>
<pdfrwt beam="2">  1       21 0.62106160E-01 0.21503219E+03</pdfrwt>
<totfact> 0.42501361E+04</totfact>
</mgrwt>
</event>
<event>
 4    3  0.4022695E+000  0.1771565E+03  0.7546771E-02  0.1170584E+00
         21   -1    0    0  503  502  0.00000000000E+00  0.00000000000E+00  0.11547444123E+03  0.11547444123E+03  0.00000000000E+00 0. -1.
         21   -1    0    0  501  503 -0.00000000000E+00 -0.00000000000E+00 -0.10904656995E+04  0.10904656995E+04  0.00000000000E+00 0. -1.
          6    1    1    2  501    0 -0.31822232525E+02 -0.21042147957E+02 -0.10099478202E+04  0.10253677516E+04  0.17300000000E+03 0. -1.
         -6    1    1    2    0  502  0.31822232525E+02  0.21042147957E+02  0.34956561988E+02  0.18057238908E+03  0.17300000000E+03 0. -1.
<mgrwt>
<rscale>  2 0.17715650E+03</rscale>
<asrwt>0</asrwt>
<pdfrwt beam="1">  1       21 0.17765298E-01 0.17715650E+03</pdfrwt>
<pdfrwt beam="2">  1       21 0.16776396E+00 0.17715650E+03</pdfrwt>
<totfact> 0.64504740E+03</totfact>
</mgrwt>
</event>
<event>
 4    3  0.4022695E+000  0.1863251E+03  0.7546771E-02  0.1161818E+00
         21   -1    0    0  503  502  0.00000000000E+00  0.00000000000E+00  0.20839786948E+02  0.20839786948E+02  0.00000000000E+00 0.  1.
         21   -1    0    0  501  503 -0.00000000000E+00 -0.00000000000E+00 -0.20276162320E+04  0.20276162320E+04  0.00000000000E+00 0.  1.
          6    1    1    2  501    0 -0.69975994546E+01 -0.68840950880E+02 -0.14359882697E+04  0.14480260197E+04  0.17300000000E+03 0.  1.
         -6    1    1    2    0  502  0.69975994546E+01  0.68840950880E+02 -0.57078817535E+03  0.60042999928E+03  0.17300000000E+03 0.  1.
<mgrwt>
<rscale>  2 0.18632510E+03</rscale>
<asrwt>0</asrwt>
<pdfrwt beam="1">  1       21 0.32061211E-02 0.18632510E+03</pdfrwt>
<pdfrwt beam="2">  1       21 0.31194096E+00 0.18632510E+03</pdfrwt>
<totfact> 0.16623828E+04</totfact>
</mgrwt>
</event>
<event>
 4    3  0.4022695E+000  0.2574965E+03  0.7546771E-02  0.1108657E+00
         21   -1    0    0  501  502  0.00000000000E+00  0.00000000000E+00  0.56174765147E+02  0.56174765147E+02  0.00000000000E+00 0. -1.
         21   -1    0    0  502  503 -0.00000000000E+00 -0.00000000000E+00 -0.11892513230E+04  0.11892513230E+04  0.00000000000E+00 0.  1.
          6    1    1    2  501    0 -0.14862437207E+03  0.11952507028E+03 -0.51258698710E+03  0.57362868281E+03  0.17300000000E+03 0.  1.
         -6    1    1    2    0  503  0.14862437207E+03 -0.11952507028E+03 -0.62048957074E+03  0.67179740532E+03  0.17300000000E+03 0. -1.
<mgrwt>
<rscale>  2 0.25749650E+03</rscale>
<asrwt>0</asrwt>
<pdfrwt beam="1">  1       21 0.86422712E-02 0.25749650E+03</pdfrwt>
<pdfrwt beam="2">  1       21 0.18296175E+00 0.25749650E+03</pdfrwt>
<totfact> 0.17457424E+04</totfact>
</mgrwt>
</event>
<event>
 4    3  0.4022695E+000  0.1837794E+03  0.7546771E-02  0.1164195E+00
         21   -1    0    0  503  502  0.00000000000E+00  0.00000000000E+00  0.88308830061E+03  0.88308830061E+03  0.00000000000E+00 0. -1.
         21   -1    0    0  501  503 -0.00000000000E+00 -0.00000000000E+00 -0.38280452749E+02  0.38280452749E+02  0.00000000000E+00 0. -1.
          6    1    1    2  501    0  0.45368956858E+01 -0.61848879047E+02  0.40864526801E+03  0.44806899282E+03  0.17300000000E+03 0. -1.
         -6    1    1    2    0  502 -0.45368956858E+01  0.61848879047E+02  0.43616257985E+03  0.47329976053E+03  0.17300000000E+03 0. -1.
<mgrwt>
<rscale>  2 0.18377940E+03</rscale>
<asrwt>0</asrwt>
<pdfrwt beam="1">  1       21 0.13585972E+00 0.18377940E+03</pdfrwt>
<pdfrwt beam="2">  1       21 0.58893011E-02 0.18377940E+03</pdfrwt>
<totfact> 0.79020628E+04</totfact>
</mgrwt>
</event>
<event>
 4    3  0.4022695E+000  0.1799446E+03  0.7546771E-02  0.1167857E+00
         21   -1    0    0  501  502  0.00000000000E+00  0.00000000000E+00  0.85478333397E+02  0.85478333397E+02  0.00000000000E+00 0.  1.
         21   -1    0    0  502  503 -0.00000000000E+00 -0.00000000000E+00 -0.56863197988E+03  0.56863197988E+03  0.00000000000E+00 0.  1.
          6    1    1    2  501    0 -0.47607807505E+02 -0.13584639294E+02 -0.52613014933E+02  0.18747846570E+03  0.17300000000E+03 0.  1.
         -6    1    1    2    0  503  0.47607807505E+02  0.13584639294E+02 -0.43054063155E+03  0.46663184758E+03  0.17300000000E+03 0.  1.
<mgrwt>
<rscale>  2 0.17994456E+03</rscale>
<asrwt>0</asrwt>
<pdfrwt beam="1">  1       21 0.13150512E-01 0.17994456E+03</pdfrwt>
<pdfrwt beam="2">  1       21 0.87481846E-01 0.17994456E+03</pdfrwt>
<totfact> 0.56183791E+04</totfact>
</mgrwt>
</event>
<event>
 4    3  0.4022695E+000  0.1755230E+03  0.7546771E-02  0.1172208E+00
         21   -1    0    0  501  502  0.00000000000E+00  0.00000000000E+00  0.71467155830E+02  0.71467155830E+02  0.00000000000E+00 0.  1.
         21   -1    0    0  502  503 -0.00000000000E+00 -0.00000000000E+00 -0.48204123973E+03  0.48204123973E+03  0.00000000000E+00 0.  1.
          6    1    1    2  501    0 -0.16978776786E+01  0.29604753549E+02 -0.11530487464E+03  0.21000842445E+03  0.17300000000E+03 0.  1.
         -6    1    1    2    0  503  0.16978776786E+01 -0.29604753549E+02 -0.29526920926E+03  0.34349997112E+03  0.17300000000E+03 0.  1.
<mgrwt>
<rscale>  2 0.17552300E+03</rscale>
<asrwt>0</asrwt>
<pdfrwt beam="1">  1       21 0.10994947E-01 0.17552300E+03</pdfrwt>
<pdfrwt beam="2">  1       21 0.74160190E-01 0.17552300E+03</pdfrwt>
<totfact> 0.11255246E+05</totfact>
</mgrwt>
</event>
<event>
 4    3  0.4022695E+000  0.2226223E+03  0.7546771E-02  0.1131943E+00
         21   -1    0    0  501  502  0.00000000000E+00  0.00000000000E+00  0.19389654806E+03  0.19389654806E+03  0.00000000000E+00 0.  1.
         21   -1    0    0  502  503 -0.00000000000E+00 -0.00000000000E+00 -0.31019546654E+03  0.31019546654E+03  0.00000000000E+00 0.  1.
          6    1    1    2  501    0 -0.14377800217E+01 -0.14010580124E+03  0.47587083358E+02  0.22765156106E+03  0.17300000000E+03 0.  1.
         -6    1    1    2    0  503  0.14377800217E+01  0.14010580124E+03 -0.16388600184E+03  0.27644045353E+03  0.17300000000E+03 0.  1.
<mgrwt>
<rscale>  2 0.22262233E+03</rscale>
<asrwt>0</asrwt>
<pdfrwt beam="1">  1       21 0.29830238E-01 0.22262233E+03</pdfrwt>
<pdfrwt beam="2">  1       21 0.47722380E-01 0.22262233E+03</pdfrwt>
<totfact> 0.44580260E+04</totfact>
</mgrwt>
</event>
<event>
 4    3  0.4022695E+000  0.1810303E+03  0.7546771E-02  0.1166810E+00
         21   -1    0    0  501  502  0.00000000000E+00  0.00000000000E+00  0.17693239444E+04  0.17693239444E+04  0.00000000000E+00 0. -1.
         21   -1    0    0  502  503 -0.00000000000E+00 -0.00000000000E+00 -0.18531690899E+02  0.18531690899E+02  0.00000000000E+00 0. -1.
          6    1    1    2  501    0 -0.53044298251E+02  0.54116557412E+01  0.85529388249E+03  0.87424230567E+03  0.17300000000E+03 0.  1.
         -6    1    1    2    0  503  0.53044298251E+02 -0.54116557412E+01  0.89549837099E+03  0.91361332961E+03  0.17300000000E+03 0.  1.
<mgrwt>
<rscale>  2 0.18103034E+03</rscale>
<asrwt>0</asrwt>
<pdfrwt beam="1">  1       21 0.27220355E+00 0.18103034E+03</pdfrwt>
<pdfrwt beam="2">  1       21 0.28510308E-02 0.18103034E+03</pdfrwt>
<totfact> 0.34330291E+04</totfact>
</mgrwt>
</event>
<event>
 4    3  0.4022695E+000  0.2378063E+03  0.7546771E-02  0.1121263E+00
         21   -1    0    0  503  502  0.00000000000E+00  0.00000000000E+00  0.37485310607E+03  0.37485310607E+03  0.00000000000E+00 0. -1.
         21   -1    0    0  501  503 -0.00000000000E+00 -0.00000000000E+00 -0.22973474943E+03  0.22973474943E+03  0.00000000000E+00 0.  1.
          6    1    1    2  501    0 -0.94075730263E+02 -0.13331388217E+03 -0.10456346991E+03  0.25977943229E+03  0.17300000000E+03 0. -1.
         -6    1    1    2    0  502  0.94075730263E+02  0.13331388217E+03  0.24968182655E+03  0.34480842320E+03  0.17300000000E+03 0. -1.
<mgrwt>
<rscale>  2 0.23780630E+03</rscale>
<asrwt>0</asrwt>
<pdfrwt beam="1">  1       21 0.57669709E-01 0.23780630E+03</pdfrwt>
<pdfrwt beam="2">  1       21 0.35343807E-01 0.23780630E+03</pdfrwt>
<totfact> 0.21230584E+04</totfact>
</mgrwt>
</event>
<event>
 4    3  0.4022695E+000  0.1761467E+03  0.7546771E-02  0.1171585E+00
         21   -1    0    0  501  502  0.00000000000E+00  0.00000000000E+00  0.25665171364E+02  0.25665171364E+02  0.00000000000E+00 0.  1.
         21   -1    0    0  502  503 -0.00000000000E+00 -0.00000000000E+00 -0.12635106334E+04  0.12635106334E+04  0.00000000000E+00 0.  1.
          6    1    1    2  501    0 -0.32113703117E+02 -0.82069365657E+01 -0.48496323032E+03  0.51596218708E+03  0.17300000000E+03 0. -1.
         -6    1    1    2    0  503  0.32113703117E+02  0.82069365657E+01 -0.75288223170E+03  0.77321361766E+03  0.17300000000E+03 0. -1.
<mgrwt>
<rscale>  2 0.17614665E+03</rscale>
<asrwt>0</asrwt>
<pdfrwt beam="1">  1       21 0.39484883E-02 0.17614665E+03</pdfrwt>
<pdfrwt beam="2">  1       21 0.19438623E+00 0.17614665E+03</pdfrwt>
<totfact> 0.59071458E+04</totfact>
</mgrwt>
</event>
<event>
 4    3  0.4022695E+000  0.1732074E+03  0.7546771E-02  0.1174544E+00
         21   -1    0    0  501  502  0.00000000000E+00  0.00000000000E+00  0.48452314405E+03  0.48452314405E+03  0.00000000000E+00 0. -1.
         21   -1    0    0  502  503 -0.00000000000E+00 -0.00000000000E+00 -0.11485307146E+03  0.11485307146E+03  0.00000000000E+00 0. -1.
          6    1    1    2  501    0  0.57255729713E+01 -0.62453726100E+01  0.38829045133E+03  0.42517086149E+03  0.17300000000E+03 0. -1.
         -6    1    1    2    0  503 -0.57255729713E+01  0.62453726100E+01 -0.18620378734E+02  0.17420535402E+03  0.17300000000E+03 0. -1.
<mgrwt>
<rscale>  2 0.17320735E+03</rscale>
<asrwt>0</asrwt>
<pdfrwt beam="1">  1       21 0.74542021E-01 0.17320735E+03</pdfrwt>
<pdfrwt beam="2">  1       21 0.17669704E-01 0.17320735E+03</pdfrwt>
<totfact> 0.47280978E+04</totfact>
</mgrwt>
</event>
<event>
 4    3  0.4022695E+000  0.1844398E+03  0.7546771E-02  0.1163574E+00
         21   -1    0    0  503  502  0.00000000000E+00  0.00000000000E+00  0.33113708695E+03  0.33113708695E+03  0.00000000000E+00 0. -1.
         21   -1    0    0  501  503 -0.00000000000E+00 -0.00000000000E+00 -0.41612202071E+03  0.41612202071E+03  0.00000000000E+00 0. -1.
          6    1    1    2  501    0  0.62352123985E+02 -0.14185864439E+02 -0.36673813595E+03  0.41050564731E+03  0.17300000000E+03 0. -1.
         -6    1    1    2    0  502 -0.62352123985E+02  0.14185864439E+02  0.28175320219E+03  0.33675346035E+03  0.17300000000E+03 0. -1.
<mgrwt>
<rscale>  2 0.18443976E+03</rscale>
<asrwt>0</asrwt>
<pdfrwt beam="1">  1       21 0.50944167E-01 0.18443976E+03</pdfrwt>
<pdfrwt beam="2">  1       21 0.64018773E-01 0.18443976E+03</pdfrwt>
<totfact> 0.83037111E+03</totfact>
</mgrwt>
</event>
<event>
 4    3  0.4022695E+000  0.1782260E+03  0.7546771E-02  0.1169531E+00
         21   -1    0    0  501  502  0.00000000000E+00  0.00000000000E+00  0.39290721052E+03  0.39290721052E+03  0.00000000000E+00 0.  1.
         21   -1    0    0  502  503 -0.00000000000E+00 -0.00000000000E+00 -0.10359241333E+03  0.10359241333E+03  0.00000000000E+00 0.  1.
          6    1    1    2  501    0 -0.39591730418E+02  0.16370764021E+02  0.28327106508E+02  0.18046310425E+03  0.17300000000E+03 0.  1.
         -6    1    1    2    0  503  0.39591730418E+02 -0.16370764021E+02  0.26098769068E+03  0.31603651960E+03  0.17300000000E+03 0.  1.
<mgrwt>
<rscale>  2 0.17822600E+03</rscale>
<asrwt>0</asrwt>
<pdfrwt beam="1">  1       21 0.60447262E-01 0.17822600E+03</pdfrwt>
<pdfrwt beam="2">  1       21 0.15937295E-01 0.17822600E+03</pdfrwt>
<totfact> 0.90077167E+04</totfact>
</mgrwt>
</event>
<event>
 4    3  0.4022695E+000  0.2052796E+03  0.7546771E-02  0.1145360E+00
         21   -1    0    0  501  502  0.00000000000E+00  0.00000000000E+00  0.21989196877E+03  0.21989196877E+03  0.00000000000E+00 0.  1.
         21   -1    0    0  502  503 -0.00000000000E+00 -0.00000000000E+00 -0.19351334856E+03  0.19351334856E+03  0.00000000000E+00 0.  1.
          6    1    1    2  501    0 -0.71982558573E+02  0.83840511107E+02 -0.71575995760E+01  0.20540436040E+03  0.17300000000E+03 0.  1.
         -6    1    1    2    0  503  0.71982558573E+02 -0.83840511107E+02  0.33536219788E+02  0.20800095692E+03  0.17300000000E+03 0.  1.
<mgrwt>
<rscale>  2 0.20527961E+03</rscale>
<asrwt>0</asrwt>
<pdfrwt beam="1">  1       21 0.33829534E-01 0.20527961E+03</pdfrwt>
<pdfrwt beam="2">  1       21 0.29771284E-01 0.20527961E+03</pdfrwt>
<totfact> 0.90575084E+04</totfact>
</mgrwt>
</event>
<event>
 4    3  0.4022695E+000  0.2558394E+03  0.7546771E-02  0.1109669E+00
         21   -1    0    0  503  502  0.00000000000E+00  0.00000000000E+00  0.38601408642E+03  0.38601408642E+03  0.00000000000E+00 0. -1.
         21   -1    0    0  501  503 -0.00000000000E+00 -0.00000000000E+00 -0.20734000350E+03  0.20734000350E+03  0.00000000000E+00 0.  1.
          6    1    1    2  501    0  0.95225538178E+02 -0.16265570202E+03  0.21597241779E+03  0.33481019364E+03  0.17300000000E+03 0. -1.
         -6    1    1    2    0  502 -0.95225538178E+02  0.16265570202E+03 -0.37298334871E+02  0.25854389628E+03  0.17300000000E+03 0.  1.
<mgrwt>
<rscale>  2 0.25583936E+03</rscale>
<asrwt>0</asrwt>
<pdfrwt beam="1">  1       21 0.59386782E-01 0.25583936E+03</pdfrwt>
<pdfrwt beam="2">  1       21 0.31898462E-01 0.25583936E+03</pdfrwt>
<totfact> 0.24228115E+04</totfact>
</mgrwt>
</event>
<event>
 4    3  0.4022695E+000  0.1746513E+03  0.7546771E-02  0.1173082E+00
         21   -1    0    0  501  502  0.00000000000E+00  0.00000000000E+00  0.24326407450E+02  0.24326407450E+02  0.00000000000E+00 0. -1.
         21   -1    0    0  502  503 -0.00000000000E+00 -0.00000000000E+00 -0.14983431148E+04  0.14983431148E+04  0.00000000000E+00 0. -1.
          6    1    1    2  501    0  0.23131426243E+02  0.62456026852E+01 -0.42950344312E+03  0.46365534407E+03  0.17300000000E+03 0. -1.
         -6    1    1    2    0  503 -0.23131426243E+02 -0.62456026852E+01 -0.10445132642E+04  0.10590141782E+04  0.17300000000E+03 0. -1.
<mgrwt>
<rscale>  2 0.17465128E+03</rscale>
<asrwt>0</asrwt>
<pdfrwt beam="1">  1       21 0.37425255E-02 0.17465128E+03</pdfrwt>
<pdfrwt beam="2">  1       21 0.23051425E+00 0.17465128E+03</pdfrwt>
<totfact> 0.38566845E+04</totfact>
</mgrwt>
</event>
<event>
 4    3  0.4022695E+000  0.1871274E+03  0.7546771E-02  0.1161078E+00
         21   -1    0    0  501  502  0.00000000000E+00  0.00000000000E+00  0.25533688601E+03  0.25533688601E+03  0.00000000000E+00 0. -1.
         21   -1    0    0  502  503 -0.00000000000E+00 -0.00000000000E+00 -0.14963160703E+03  0.14963160703E+03  0.00000000000E+00 0. -1.
          6    1    1    2  501    0  0.65290043864E+02  0.28720779430E+02  0.11135915290E+03  0.21775567486E+03  0.17300000000E+03 0.  1.
         -6    1    1    2    0  503 -0.65290043864E+02 -0.28720779430E+02 -0.56538739203E+01  0.18721281818E+03  0.17300000000E+03 0.  1.
<mgrwt>
<rscale>  2 0.18712742E+03</rscale>
<asrwt>0</asrwt>
<pdfrwt beam="1">  1       21 0.39282598E-01 0.18712742E+03</pdfrwt>
<pdfrwt beam="2">  1       21 0.23020247E-01 0.18712742E+03</pdfrwt>
<totfact> 0.11092157E+05</totfact>
</mgrwt>
</event>
<event>
 4    3  0.4022695E+000  0.2041548E+03  0.7546771E-02  0.1146280E+00
         21   -1    0    0  501  502  0.00000000000E+00  0.00000000000E+00  0.11194920009E+03  0.11194920009E+03  0.00000000000E+00 0.  1.
         21   -1    0    0  502  503 -0.00000000000E+00 -0.00000000000E+00 -0.63179241068E+03  0.63179241068E+03  0.00000000000E+00 0.  1.
          6    1    1    2  501    0  0.94062202789E+00  0.10839425809E+03 -0.21600019827E+02  0.20529432728E+03  0.17300000000E+03 0.  1.
         -6    1    1    2    0  503 -0.94062202789E+00 -0.10839425809E+03 -0.49824319077E+03  0.53844728350E+03  0.17300000000E+03 0.  1.
<mgrwt>
<rscale>  2 0.20415484E+03</rscale>
<asrwt>0</asrwt>
<pdfrwt beam="1">  1       21 0.17222954E-01 0.20415484E+03</pdfrwt>
<pdfrwt beam="2">  1       21 0.97198831E-01 0.20415484E+03</pdfrwt>
<totfact> 0.26559843E+04</totfact>
</mgrwt>
</event>
<event>
 4    3  0.4022695E+000  0.2483756E+03  0.7546771E-02  0.1114336E+00
         21   -1    0    0  501  502  0.00000000000E+00  0.00000000000E+00  0.28664644383E+03  0.28664644383E+03  0.00000000000E+00 0. -1.
         21   -1    0    0  502  503 -0.00000000000E+00 -0.00000000000E+00 -0.33492004159E+03  0.33492004159E+03  0.00000000000E+00 0.  1.
          6    1    1    2  501    0  0.25718045675E+02  0.17635196008E+03  0.16166264201E+03  0.29635323774E+03  0.17300000000E+03 0. -1.
         -6    1    1    2    0  503 -0.25718045675E+02 -0.17635196008E+03 -0.20993623977E+03  0.32521324768E+03  0.17300000000E+03 0.  1.
<mgrwt>
<rscale>  2 0.24837559E+03</rscale>
<asrwt>0</asrwt>
<pdfrwt beam="1">  1       21 0.44099453E-01 0.24837559E+03</pdfrwt>
<pdfrwt beam="2">  1       21 0.51526160E-01 0.24837559E+03</pdfrwt>
<totfact> 0.17127366E+04</totfact>
</mgrwt>
</event>
<event>
 4    3  0.4022695E+000  0.2385537E+03  0.7546771E-02  0.1120760E+00
         21   -1    0    0  501  502  0.00000000000E+00  0.00000000000E+00  0.31144169761E+03  0.31144169761E+03  0.00000000000E+00 0. -1.
         21   -1    0    0  502  503 -0.00000000000E+00 -0.00000000000E+00 -0.18449703336E+03  0.18449703336E+03  0.00000000000E+00 0. -1.
          6    1    1    2  501    0  0.43345394790E+02  0.15842997163E+03  0.39163769979E+02  0.24174714071E+03  0.17300000000E+03 0. -1.
         -6    1    1    2    0  503 -0.43345394790E+02 -0.15842997163E+03  0.87780894276E+02  0.25419159026E+03  0.17300000000E+03 0. -1.
<mgrwt>
<rscale>  2 0.23855372E+03</rscale>
<asrwt>0</asrwt>
<pdfrwt beam="1">  1       21 0.47914107E-01 0.23855372E+03</pdfrwt>
<pdfrwt beam="2">  1       21 0.28384159E-01 0.23855372E+03</pdfrwt>
<totfact> 0.48373061E+04</totfact>
</mgrwt>
</event>
<event>
 4    3  0.4022695E+000  0.1918307E+03  0.7546771E-02  0.1156820E+00
         21   -1    0    0  501  502  0.00000000000E+00  0.00000000000E+00  0.55698012469E+03  0.55698012469E+03  0.00000000000E+00 0.  1.
         21   -1    0    0  502  503 -0.00000000000E+00 -0.00000000000E+00 -0.12583358086E+03  0.12583358086E+03  0.00000000000E+00 0.  1.
          6    1    1    2  501    0  0.74302767169E+01 -0.82551944969E+02  0.45085947662E+03  0.48997275464E+03  0.17300000000E+03 0.  1.
         -6    1    1    2    0  503 -0.74302767169E+01  0.82551944969E+02 -0.19712932794E+02  0.19284095091E+03  0.17300000000E+03 0.  1.
<mgrwt>
<rscale>  2 0.19183074E+03</rscale>
<asrwt>0</asrwt>
<pdfrwt beam="1">  1       21 0.85689249E-01 0.19183074E+03</pdfrwt>
<pdfrwt beam="2">  1       21 0.19359013E-01 0.19183074E+03</pdfrwt>
<totfact> 0.28867959E+04</totfact>
</mgrwt>
</event>
<event>
 4    3  0.4022695E+000  0.1955424E+03  0.7546771E-02  0.1153555E+00
         21   -1    0    0  503  502  0.00000000000E+00  0.00000000000E+00  0.16199658725E+03  0.16199658725E+03  0.00000000000E+00 0.  1.
         21   -1    0    0  501  503 -0.00000000000E+00 -0.00000000000E+00 -0.28545190479E+03  0.28545190479E+03  0.00000000000E+00 0.  1.
          6    1    1    2  501    0 -0.58120208896E+02  0.70213092358E+02 -0.15481381448E+03  0.24940760649E+03  0.17300000000E+03 0.  1.
         -6    1    1    2    0  502  0.58120208896E+02 -0.70213092358E+02  0.31358496939E+02  0.19804088555E+03  0.17300000000E+03 0.  1.
<mgrwt>
<rscale>  2 0.19554242E+03</rscale>
<asrwt>0</asrwt>
<pdfrwt beam="1">  1       21 0.24922552E-01 0.19554242E+03</pdfrwt>
<pdfrwt beam="2">  1       21 0.43915678E-01 0.19554242E+03</pdfrwt>
<totfact> 0.75810992E+04</totfact>
</mgrwt>
</event>
<event>
 4    3  0.4022695E+000  0.1790785E+03  0.7546771E-02  0.1168698E+00
         21   -1    0    0  503  502  0.00000000000E+00  0.00000000000E+00  0.22937589595E+03  0.22937589595E+03  0.00000000000E+00 0. -1.
         21   -1    0    0  501  503 -0.00000000000E+00 -0.00000000000E+00 -0.14882828502E+03  0.14882828502E+03  0.00000000000E+00 0. -1.
          6    1    1    2  501    0 -0.28116396199E+02  0.36736710618E+02  0.86822535879E+02  0.19901575410E+03  0.17300000000E+03 0. -1.
         -6    1    1    2    0  502  0.28116396199E+02 -0.36736710618E+02 -0.62749249511E+01  0.17918842687E+03  0.17300000000E+03 0. -1.
<mgrwt>
<rscale>  2 0.17907852E+03</rscale>
<asrwt>0</asrwt>
<pdfrwt beam="1">  1       21 0.35288599E-01 0.17907852E+03</pdfrwt>
<pdfrwt beam="2">  1       21 0.22896659E-01 0.17907852E+03</pdfrwt>
<totfact> 0.13921180E+05</totfact>
</mgrwt>
</event>
<event>
 4    3  0.4022695E+000  0.2341664E+03  0.7546771E-02  0.1123741E+00
         21   -1    0    0  501  502  0.00000000000E+00  0.00000000000E+00  0.62337323615E+03  0.62337323615E+03  0.00000000000E+00 0.  1.
         21   -1    0    0  502  503 -0.00000000000E+00 -0.00000000000E+00 -0.24195067431E+03  0.24195067431E+03  0.00000000000E+00 0.  1.
          6    1    1    2  501    0 -0.14077638091E+03 -0.71322697686E+02  0.53587724217E+03  0.58480623740E+03  0.17300000000E+03 0.  1.
         -6    1    1    2    0  503  0.14077638091E+03  0.71322697686E+02 -0.15445468032E+03  0.28051767306E+03  0.17300000000E+03 0.  1.
<mgrwt>
<rscale>  2 0.23416643E+03</rscale>
<asrwt>0</asrwt>
<pdfrwt beam="1">  1       21 0.95903574E-01 0.23416643E+03</pdfrwt>
<pdfrwt beam="2">  1       21 0.37223181E-01 0.23416643E+03</pdfrwt>
<totfact> 0.61219645E+03</totfact>
</mgrwt>
</event>
<event>
 4    3  0.4022695E+000  0.2327638E+03  0.7546771E-02  0.1124709E+00
         21   -1    0    0  501  502  0.00000000000E+00  0.00000000000E+00  0.74049192357E+02  0.74049192357E+02  0.00000000000E+00 0. -1.
         21   -1    0    0  502  503 -0.00000000000E+00 -0.00000000000E+00 -0.96313779966E+03  0.96313779966E+03  0.00000000000E+00 0. -1.
          6    1    1    2  501    0  0.15565303930E+03  0.47044648162E+01 -0.19030927405E+03  0.30066030736E+03  0.17300000000E+03 0. -1.
         -6    1    1    2    0  503 -0.15565303930E+03 -0.47044648162E+01 -0.69877933326E+03  0.73652668466E+03  0.17300000000E+03 0. -1.
<mgrwt>
<rscale>  2 0.23276383E+03</rscale>
<asrwt>0</asrwt>
<pdfrwt beam="1">  1       21 0.11392183E-01 0.23276383E+03</pdfrwt>
<pdfrwt beam="2">  1       21 0.14817505E+00 0.23276383E+03</pdfrwt>
<totfact> 0.19373222E+04</totfact>
</mgrwt>
</event>
<event>
 4    3  0.4022695E+000  0.3502808E+03  0.7546771E-02  0.1062500E+00
         21   -1    0    0  503  502  0.00000000000E+00  0.00000000000E+00  0.10693541521E+03  0.10693541521E+03  0.00000000000E+00 0. -1.
         21   -1    0    0  501  503 -0.00000000000E+00 -0.00000000000E+00 -0.19818313846E+04  0.19818313846E+04  0.00000000000E+00 0.  1.
          6    1    1    2  501    0 -0.12587067718E+03  0.27735211224E+03 -0.25976818880E+03  0.43609188648E+03  0.17300000000E+03 0. -1.
         -6    1    1    2    0  502  0.12587067718E+03 -0.27735211224E+03 -0.16151277806E+04  0.16526749133E+04  0.17300000000E+03 0.  1.
<mgrwt>
<rscale>  2 0.35028078E+03</rscale>
<asrwt>0</asrwt>
<pdfrwt beam="1">  1       21 0.16451603E-01 0.35028078E+03</pdfrwt>
<pdfrwt beam="2">  1       21 0.30489712E+00 0.35028078E+03</pdfrwt>
<totfact> 0.90707174E+02</totfact>
</mgrwt>
</event>
<event>
 4    3  0.4022695E+000  0.2186521E+03  0.7546771E-02  0.1134892E+00
         21   -1    0    0  503  502  0.00000000000E+00  0.00000000000E+00  0.31056445914E+03  0.31056445914E+03  0.00000000000E+00 0.  1.
         21   -1    0    0  501  503 -0.00000000000E+00 -0.00000000000E+00 -0.19897900722E+03  0.19897900722E+03  0.00000000000E+00 0.  1.
          6    1    1    2  501    0 -0.13190282249E+03  0.21940403704E+02  0.17700180122E+03  0.28131543422E+03  0.17300000000E+03 0.  1.
         -6    1    1    2    0  502  0.13190282249E+03 -0.21940403704E+02 -0.65416349296E+02  0.22822803213E+03  0.17300000000E+03 0.  1.
<mgrwt>
<rscale>  2 0.21865209E+03</rscale>
<asrwt>0</asrwt>
<pdfrwt beam="1">  1       21 0.47779148E-01 0.21865209E+03</pdfrwt>
<pdfrwt beam="2">  1       21 0.30612155E-01 0.21865209E+03</pdfrwt>
<totfact> 0.42352220E+04</totfact>
</mgrwt>
</event>
<event>
 4    3  0.4022695E+000  0.2672421E+03  0.7546771E-02  0.1102868E+00
         21   -1    0    0  501  502  0.00000000000E+00  0.00000000000E+00  0.81200224636E+02  0.81200224636E+02  0.00000000000E+00 0.  1.
         21   -1    0    0  502  503 -0.00000000000E+00 -0.00000000000E+00 -0.10108352869E+04  0.10108352869E+04  0.00000000000E+00 0.  1.
          6    1    1    2  501    0  0.32476813251E+02 -0.20108354391E+03 -0.26802820648E+03  0.37849366507E+03  0.17300000000E+03 0.  1.
         -6    1    1    2    0  503 -0.32476813251E+02  0.20108354391E+03 -0.66160685580E+03  0.71354184648E+03  0.17300000000E+03 0.  1.
<mgrwt>
<rscale>  2 0.26724209E+03</rscale>
<asrwt>0</asrwt>
<pdfrwt beam="1">  1       21 0.12492340E-01 0.26724209E+03</pdfrwt>
<pdfrwt beam="2">  1       21 0.15551315E+00 0.26724209E+03</pdfrwt>
<totfact> 0.14152312E+04</totfact>
</mgrwt>
</event>
<event>
 4    3  0.4022695E+000  0.1995271E+03  0.7546771E-02  0.1150139E+00
         21   -1    0    0  503  502  0.00000000000E+00  0.00000000000E+00  0.37735597335E+03  0.37735597335E+03  0.00000000000E+00 0.  1.
         21   -1    0    0  501  503 -0.00000000000E+00 -0.00000000000E+00 -0.20862956477E+03  0.20862956477E+03  0.00000000000E+00 0.  1.
          6    1    1    2  501    0 -0.61979435603E+01  0.99215154339E+02 -0.12163362431E+03  0.23367883926E+03  0.17300000000E+03 0.  1.
         -6    1    1    2    0  502  0.61979435603E+01 -0.99215154339E+02  0.29036003290E+03  0.35230669886E+03  0.17300000000E+03 0.  1.
<mgrwt>
<rscale>  2 0.19952709E+03</rscale>
<asrwt>0</asrwt>
<pdfrwt beam="1">  1       21 0.58054765E-01 0.19952709E+03</pdfrwt>
<pdfrwt beam="2">  1       21 0.32096856E-01 0.19952709E+03</pdfrwt>
<totfact> 0.25860664E+04</totfact>
</mgrwt>
</event>
<event>
 4    3  0.4022695E+000  0.2321706E+03  0.7546771E-02  0.1125121E+00
         21   -1    0    0  503  502  0.00000000000E+00  0.00000000000E+00  0.21181815328E+03  0.21181815328E+03  0.00000000000E+00 0.  1.
         21   -1    0    0  501  503 -0.00000000000E+00 -0.00000000000E+00 -0.25855569765E+03  0.25855569765E+03  0.00000000000E+00 0. -1.
          6    1    1    2  501    0  0.14260542064E+03  0.60314985679E+02 -0.52901771404E+02  0.23812139952E+03  0.17300000000E+03 0. -1.
         -6    1    1    2    0  502 -0.14260542064E+03 -0.60314985679E+02  0.61642270378E+01  0.23225245141E+03  0.17300000000E+03 0.  1.
<mgrwt>
<rscale>  2 0.23217063E+03</rscale>
<asrwt>0</asrwt>
<pdfrwt beam="1">  1       21 0.32587408E-01 0.23217063E+03</pdfrwt>
<pdfrwt beam="2">  1       21 0.39777799E-01 0.23217063E+03</pdfrwt>
<totfact> 0.54228272E+04</totfact>
</mgrwt>
</event>
<event>
 4    3  0.4022695E+000  0.1931442E+03  0.7546771E-02  0.1155656E+00
         21   -1    0    0  503  502  0.00000000000E+00  0.00000000000E+00  0.92717327267E+03  0.92717327267E+03  0.00000000000E+00 0. -1.
         21   -1    0    0  501  503 -0.00000000000E+00 -0.00000000000E+00 -0.14103776062E+03  0.14103776062E+03  0.00000000000E+00 0. -1.
          6    1    1    2  501    0  0.43710989199E+02 -0.73925846899E+02 -0.58471890866E+02  0.20180099960E+03  0.17300000000E+03 0. -1.
         -6    1    1    2    0  502 -0.43710989199E+02  0.73925846899E+02  0.84460740292E+03  0.86641003369E+03  0.17300000000E+03 0. -1.
<mgrwt>
<rscale>  2 0.19314420E+03</rscale>
<asrwt>0</asrwt>
<pdfrwt beam="1">  1       21 0.14264204E+00 0.19314420E+03</pdfrwt>
<pdfrwt beam="2">  1       21 0.21698118E-01 0.19314420E+03</pdfrwt>
<totfact> 0.67518813E+03</totfact>
</mgrwt>
</event>
<event>
 4    3  0.4022695E+000  0.1833022E+03  0.7546771E-02  0.1164645E+00
         21   -1    0    0  503  502  0.00000000000E+00  0.00000000000E+00  0.14212810585E+04  0.14212810585E+04  0.00000000000E+00 0.  1.
         21   -1    0    0  501  503 -0.00000000000E+00 -0.00000000000E+00 -0.26382738117E+02  0.26382738117E+02  0.00000000000E+00 0. -1.
          6    1    1    2  501    0  0.54177308169E+02  0.27120531279E+02  0.46408431553E+03  0.49897290093E+03  0.17300000000E+03 0. -1.
         -6    1    1    2    0  502 -0.54177308169E+02 -0.27120531279E+02  0.93081400484E+03  0.94869089568E+03  0.17300000000E+03 0.  1.
<mgrwt>
<rscale>  2 0.18330222E+03</rscale>
<asrwt>0</asrwt>
<pdfrwt beam="1">  1       21 0.21865856E+00 0.18330222E+03</pdfrwt>
<pdfrwt beam="2">  1       21 0.40588839E-02 0.18330222E+03</pdfrwt>
<totfact> 0.39469883E+04</totfact>
</mgrwt>
</event>
<event>
 4    3  0.4022695E+000  0.1987928E+03  0.7546771E-02  0.1150762E+00
         21   -1    0    0  501  502  0.00000000000E+00  0.00000000000E+00  0.71036506469E+02  0.71036506469E+02  0.00000000000E+00 0. -1.
         21   -1    0    0  502  503 -0.00000000000E+00 -0.00000000000E+00 -0.85106949385E+03  0.85106949385E+03  0.00000000000E+00 0. -1.
          6    1    1    2  501    0  0.96802205678E+02  0.14795032313E+02 -0.11868529010E+03  0.23152701374E+03  0.17300000000E+03 0. -1.
         -6    1    1    2    0  503 -0.96802205678E+02 -0.14795032313E+02 -0.66134769728E+03  0.69057898658E+03  0.17300000000E+03 0. -1.
<mgrwt>
<rscale>  2 0.19879276E+03</rscale>
<asrwt>0</asrwt>
<pdfrwt beam="1">  1       21 0.10928694E-01 0.19879276E+03</pdfrwt>
<pdfrwt beam="2">  1       21 0.13093377E+00 0.19879276E+03</pdfrwt>
<totfact> 0.29322019E+04</totfact>
</mgrwt>
</event>
<event>
 4    3  0.4022695E+000  0.1937495E+03  0.7546771E-02  0.1155122E+00
         21   -1    0    0  501  502  0.00000000000E+00  0.00000000000E+00  0.21257221602E+03  0.21257221602E+03  0.00000000000E+00 0.  1.
         21   -1    0    0  502  503 -0.00000000000E+00 -0.00000000000E+00 -0.23552863720E+03  0.23552863720E+03  0.00000000000E+00 0.  1.
          6    1    1    2  501    0 -0.58244570449E+02 -0.64941726506E+02  0.10059744920E+03  0.21830873692E+03  0.17300000000E+03 0.  1.
         -6    1    1    2    0  503  0.58244570449E+02  0.64941726506E+02 -0.12355387038E+03  0.22979211630E+03  0.17300000000E+03 0.  1.
<mgrwt>
<rscale>  2 0.19374947E+03</rscale>
<asrwt>0</asrwt>
<pdfrwt beam="1">  1       21 0.32703418E-01 0.19374947E+03</pdfrwt>
<pdfrwt beam="2">  1       21 0.36235175E-01 0.19374947E+03</pdfrwt>
<totfact> 0.66069172E+04</totfact>
</mgrwt>
</event>
<event>
 4    3  0.4022695E+000  0.2210318E+03  0.7546771E-02  0.1133116E+00
         21   -1    0    0  503  502  0.00000000000E+00  0.00000000000E+00  0.65757567903E+03  0.65757567903E+03  0.00000000000E+00 0.  1.
         21   -1    0    0  501  503 -0.00000000000E+00 -0.00000000000E+00 -0.93238185255E+02  0.93238185255E+02  0.00000000000E+00 0.  1.
          6    1    1    2  501    0 -0.11994947481E+03  0.67366011470E+02  0.11295966250E+03  0.24822357132E+03  0.17300000000E+03 0.  1.
         -6    1    1    2    0  502  0.11994947481E+03 -0.67366011470E+02  0.45137783128E+03  0.50259029296E+03  0.17300000000E+03 0.  1.
<mgrwt>
<rscale>  2 0.22103180E+03</rscale>
<asrwt>0</asrwt>
<pdfrwt beam="1">  1       21 0.10116549E+00 0.22103180E+03</pdfrwt>
<pdfrwt beam="2">  1       21 0.14344337E-01 0.22103180E+03</pdfrwt>
<totfact> 0.33460172E+04</totfact>
</mgrwt>
</event>
<event>
 4    3  0.4022695E+000  0.1753564E+03  0.7546771E-02  0.1172374E+00
         21   -1    0    0  501  502  0.00000000000E+00  0.00000000000E+00  0.13342682905E+03  0.13342682905E+03  0.00000000000E+00 0. -1.
         21   -1    0    0  502  503 -0.00000000000E+00 -0.00000000000E+00 -0.69806741118E+03  0.69806741118E+03  0.00000000000E+00 0.  1.
          6    1    1    2  501    0  0.19911255382E+02  0.20601431634E+02  0.57946928096E+02  0.18468276463E+03  0.17300000000E+03 0. -1.
         -6    1    1    2    0  503 -0.19911255382E+02 -0.20601431634E+02 -0.62258751023E+03  0.64681147560E+03  0.17300000000E+03 0.  1.
<mgrwt>
<rscale>  2 0.17535643E+03</rscale>
<asrwt>0</asrwt>
<pdfrwt beam="1">  1       21 0.20527204E-01 0.17535643E+03</pdfrwt>
<pdfrwt beam="2">  1       21 0.10739499E+00 0.17535643E+03</pdfrwt>
<totfact> 0.15392070E+04</totfact>
</mgrwt>
</event>
<event>
 4    3  0.4022695E+000  0.1865870E+03  0.7546771E-02  0.1161576E+00
         21   -1    0    0  503  502  0.00000000000E+00  0.00000000000E+00  0.39125281080E+03  0.39125281080E+03  0.00000000000E+00 0. -1.
         21   -1    0    0  501  503 -0.00000000000E+00 -0.00000000000E+00 -0.12280709941E+03  0.12280709941E+03  0.00000000000E+00 0.  1.
          6    1    1    2  501    0 -0.67043692932E+02 -0.19770343577E+02 -0.66945235505E+00  0.18658824029E+03  0.17300000000E+03 0.  1.
         -6    1    1    2    0  502  0.67043692932E+02  0.19770343577E+02  0.26911516374E+03  0.32747166992E+03  0.17300000000E+03 0. -1.
<mgrwt>
<rscale>  2 0.18658704E+03</rscale>
<asrwt>0</asrwt>
<pdfrwt beam="1">  1       21 0.60192739E-01 0.18658704E+03</pdfrwt>
<pdfrwt beam="2">  1       21 0.18893400E-01 0.18658704E+03</pdfrwt>
<totfact> 0.66221886E+04</totfact>
</mgrwt>
</event>
<event>
 4    3  0.4022695E+000  0.1829204E+03  0.7546771E-02  0.1165006E+00
         21   -1    0    0  501  502  0.00000000000E+00  0.00000000000E+00  0.67486425539E+03  0.67486425539E+03  0.00000000000E+00 0. -1.
         21   -1    0    0  502  503 -0.00000000000E+00 -0.00000000000E+00 -0.49946031583E+02  0.49946031583E+02  0.00000000000E+00 0. -1.
          6    1    1    2  501    0 -0.55908449742E+02  0.20127940498E+02  0.28144220109E+03  0.33566292810E+03  0.17300000000E+03 0. -1.
         -6    1    1    2    0  503  0.55908449742E+02 -0.20127940498E+02  0.34347602271E+03  0.38914735887E+03  0.17300000000E+03 0. -1.
<mgrwt>
<rscale>  2 0.18292044E+03</rscale>
<asrwt>0</asrwt>
<pdfrwt beam="1">  1       21 0.10382526E+00 0.18292044E+03</pdfrwt>
<pdfrwt beam="2">  1       21 0.76840053E-02 0.18292044E+03</pdfrwt>
<totfact> 0.97004280E+04</totfact>
</mgrwt>
</event>
<event>
 4    3  0.4022695E+000  0.2380489E+03  0.7546771E-02  0.1121099E+00
         21   -1    0    0  503  502  0.00000000000E+00  0.00000000000E+00  0.40004042188E+03  0.40004042188E+03  0.00000000000E+00 0.  1.
         21   -1    0    0  501  503 -0.00000000000E+00 -0.00000000000E+00 -0.14631176893E+03  0.14631176893E+03  0.00000000000E+00 0.  1.
          6    1    1    2  501    0  0.15520502425E+03  0.51474915217E+02  0.17560583462E+03  0.29581189226E+03  0.17300000000E+03 0.  1.
         -6    1    1    2    0  502 -0.15520502425E+03 -0.51474915217E+02  0.78122818337E+02  0.25054029855E+03  0.17300000000E+03 0.  1.
<mgrwt>
<rscale>  2 0.23804887E+03</rscale>
<asrwt>0</asrwt>
<pdfrwt beam="1">  1       21 0.61544680E-01 0.23804887E+03</pdfrwt>
<pdfrwt beam="2">  1       21 0.22509503E-01 0.23804887E+03</pdfrwt>
<totfact> 0.44390810E+04</totfact>
</mgrwt>
</event>
<event>
 4    3  0.4022695E+000  0.1870540E+03  0.7546771E-02  0.1161146E+00
         21   -1    0    0  501  502  0.00000000000E+00  0.00000000000E+00  0.10287222715E+03  0.10287222715E+03  0.00000000000E+00 0.  1.
         21   -1    0    0  502  503 -0.00000000000E+00 -0.00000000000E+00 -0.65767559721E+03  0.65767559721E+03  0.00000000000E+00 0.  1.
          6    1    1    2  501    0  0.58303693935E+02 -0.40753844924E+02 -0.13161663677E+02  0.18751646859E+03  0.17300000000E+03 0. -1.
         -6    1    1    2    0  503 -0.58303693935E+02  0.40753844924E+02 -0.54164170638E+03  0.57303135577E+03  0.17300000000E+03 0. -1.
<mgrwt>
<rscale>  2 0.18705399E+03</rscale>
<asrwt>0</asrwt>
<pdfrwt beam="1">  1       21 0.15826497E-01 0.18705399E+03</pdfrwt>
<pdfrwt beam="2">  1       21 0.10118086E+00 0.18705399E+03</pdfrwt>
<totfact> 0.28488218E+04</totfact>
</mgrwt>
</event>
<event>
 4    3  0.4022695E+000  0.2191400E+03  0.7546771E-02  0.1134526E+00
         21   -1    0    0  501  502  0.00000000000E+00  0.00000000000E+00  0.86570703942E+02  0.86570703942E+02  0.00000000000E+00 0. -1.
         21   -1    0    0  502  503 -0.00000000000E+00 -0.00000000000E+00 -0.85786031670E+03  0.85786031670E+03  0.00000000000E+00 0. -1.
          6    1    1    2  501    0 -0.11548499587E+03 -0.68967820727E+02 -0.10493660468E+03  0.24296920704E+03  0.17300000000E+03 0. -1.
         -6    1    1    2    0  503  0.11548499587E+03  0.68967820727E+02 -0.66635300807E+03  0.70146181360E+03  0.17300000000E+03 0. -1.
<mgrwt>
<rscale>  2 0.21914001E+03</rscale>
<asrwt>0</asrwt>
<pdfrwt beam="1">  1       21 0.13318570E-01 0.21914001E+03</pdfrwt>
<pdfrwt beam="2">  1       21 0.13197850E+00 0.21914001E+03</pdfrwt>
<totfact> 0.19909547E+04</totfact>
</mgrwt>
</event>
<event>
 4    3  0.4022695E+000  0.1913461E+03  0.7546771E-02  0.1157253E+00
         21   -1    0    0  503  502  0.00000000000E+00  0.00000000000E+00  0.32679808698E+03  0.32679808698E+03  0.00000000000E+00 0. -1.
         21   -1    0    0  501  503 -0.00000000000E+00 -0.00000000000E+00 -0.22352556972E+03  0.22352556972E+03  0.00000000000E+00 0.  1.
          6    1    1    2  501    0  0.76222846851E+02  0.29570535848E+02 -0.14269406660E+03  0.23869423038E+03  0.17300000000E+03 0.  1.
         -6    1    1    2    0  502 -0.76222846851E+02 -0.29570535848E+02  0.24596658387E+03  0.31162942633E+03  0.17300000000E+03 0. -1.
<mgrwt>
<rscale>  2 0.19134612E+03</rscale>
<asrwt>0</asrwt>
<pdfrwt beam="1">  1       21 0.50276628E-01 0.19134612E+03</pdfrwt>
<pdfrwt beam="2">  1       21 0.34388549E-01 0.19134612E+03</pdfrwt>
<totfact> 0.30719454E+04</totfact>
</mgrwt>
</event>
<event>
 4    3  0.4022695E+000  0.1898184E+03  0.7546771E-02  0.1158625E+00
         21   -1    0    0  503  502  0.00000000000E+00  0.00000000000E+00  0.16867476374E+03  0.16867476374E+03  0.00000000000E+00 0.  1.
         21   -1    0    0  501  503 -0.00000000000E+00 -0.00000000000E+00 -0.28921626867E+03  0.28921626867E+03  0.00000000000E+00 0.  1.
          6    1    1    2  501    0 -0.71973664516E+02  0.30361137703E+02 -0.17732657785E+03  0.25976089444E+03  0.17300000000E+03 0.  1.
         -6    1    1    2    0  502  0.71973664516E+02 -0.30361137703E+02  0.56785072926E+02  0.19813013797E+03  0.17300000000E+03 0.  1.
<mgrwt>
<rscale>  2 0.18981835E+03</rscale>
<asrwt>0</asrwt>
<pdfrwt beam="1">  1       21 0.25949964E-01 0.18981835E+03</pdfrwt>
<pdfrwt beam="2">  1       21 0.44494810E-01 0.18981835E+03</pdfrwt>
<totfact> 0.68483957E+04</totfact>
</mgrwt>
</event>
<event>
 4    3  0.4022695E+000  0.2814341E+03  0.7546771E-02  0.1094908E+00
         21   -1    0    0  501  502  0.00000000000E+00  0.00000000000E+00  0.97287766728E+03  0.97287766728E+03  0.00000000000E+00 0.  1.
         21   -1    0    0  502  503 -0.00000000000E+00 -0.00000000000E+00 -0.15944668304E+03  0.15944668304E+03  0.00000000000E+00 0. -1.
          6    1    1    2  501    0  0.46803943246E+00 -0.22198187663E+03  0.80278676995E+03  0.85068899759E+03  0.17300000000E+03 0.  1.
         -6    1    1    2    0  503 -0.46803943246E+00  0.22198187663E+03  0.10644214283E+02  0.28163535273E+03  0.17300000000E+03 0. -1.
<mgrwt>
<rscale>  2 0.28143414E+03</rscale>
<asrwt>0</asrwt>
<pdfrwt beam="1">  1       21 0.14967348E+00 0.28143414E+03</pdfrwt>
<pdfrwt beam="2">  1       21 0.24530260E-01 0.28143414E+03</pdfrwt>
<totfact> 0.44283540E+03</totfact>
</mgrwt>
</event>
<event>
 4    3  0.4022695E+000  0.2174576E+03  0.7546771E-02  0.1135793E+00
         21   -1    0    0  501  502  0.00000000000E+00  0.00000000000E+00  0.11209096035E+04  0.11209096035E+04  0.00000000000E+00 0.  1.
         21   -1    0    0  502  503 -0.00000000000E+00 -0.00000000000E+00 -0.45186611862E+02  0.45186611862E+02  0.00000000000E+00 0.  1.
          6    1    1    2  501    0  0.13171567646E+03  0.31289249761E+01  0.68808306026E+03  0.72162740206E+03  0.17300000000E+03 0.  1.
         -6    1    1    2    0  503 -0.13171567646E+03 -0.31289249761E+01  0.38763993142E+03  0.44446881334E+03  0.17300000000E+03 0.  1.
<mgrwt>
<rscale>  2 0.21745760E+03</rscale>
<asrwt>0</asrwt>
<pdfrwt beam="1">  1       21 0.17244761E+00 0.21745760E+03</pdfrwt>
<pdfrwt beam="2">  1       21 0.69517873E-02 0.21745760E+03</pdfrwt>
<totfact> 0.30906251E+04</totfact>
</mgrwt>
</event>
<event>
 4    3  0.4022695E+000  0.1819803E+03  0.7546771E-02  0.1165900E+00
         21   -1    0    0  503  502  0.00000000000E+00  0.00000000000E+00  0.14752951312E+03  0.14752951312E+03  0.00000000000E+00 0.  1.
         21   -1    0    0  501  503 -0.00000000000E+00 -0.00000000000E+00 -0.38360696448E+03  0.38360696448E+03  0.00000000000E+00 0.  1.
          6    1    1    2  501    0  0.33412824837E+02 -0.45512678352E+02 -0.28908372078E+03  0.34159364510E+03  0.17300000000E+03 0.  1.
         -6    1    1    2    0  502 -0.33412824837E+02  0.45512678352E+02  0.53006269410E+02  0.18954283250E+03  0.17300000000E+03 0.  1.
<mgrwt>
<rscale>  2 0.18198028E+03</rscale>
<asrwt>0</asrwt>
<pdfrwt beam="1">  1       21 0.22696848E-01 0.18198028E+03</pdfrwt>
<pdfrwt beam="2">  1       21 0.59016457E-01 0.18198028E+03</pdfrwt>
<totfact> 0.49108411E+04</totfact>
</mgrwt>
</event>
<event>
 4    3  0.4022695E+000  0.1943379E+03  0.7546771E-02  0.1154606E+00
         21   -1    0    0  503  502  0.00000000000E+00  0.00000000000E+00  0.29841661677E+03  0.29841661677E+03  0.00000000000E+00 0. -1.
         21   -1    0    0  501  503 -0.00000000000E+00 -0.00000000000E+00 -0.17695665998E+03  0.17695665998E+03  0.00000000000E+00 0. -1.
          6    1    1    2  501    0 -0.58707333801E+02  0.66269612773E+02 -0.66116345076E+02  0.20527684649E+03  0.17300000000E+03 0. -1.
         -6    1    1    2    0  502  0.58707333801E+02 -0.66269612773E+02  0.18757630187E+03  0.27009643026E+03  0.17300000000E+03 0. -1.
<mgrwt>
<rscale>  2 0.19433788E+03</rscale>
<asrwt>0</asrwt>
<pdfrwt beam="1">  1       21 0.45910249E-01 0.19433788E+03</pdfrwt>
<pdfrwt beam="2">  1       21 0.27224101E-01 0.19433788E+03</pdfrwt>
<totfact> 0.58450571E+04</totfact>
</mgrwt>
</event>
<event>
 4    3  0.4022695E+000  0.2418412E+03  0.7546771E-02  0.1118572E+00
         21   -1    0    0  501  502  0.00000000000E+00  0.00000000000E+00  0.19770775544E+03  0.19770775544E+03  0.00000000000E+00 0.  1.
         21   -1    0    0  502  503 -0.00000000000E+00 -0.00000000000E+00 -0.41135113671E+03  0.41135113671E+03  0.00000000000E+00 0.  1.
          6    1    1    2  501    0  0.16725662200E+03  0.24153842841E+02 -0.26820563267E+03  0.36113909664E+03  0.17300000000E+03 0.  1.
         -6    1    1    2    0  503 -0.16725662200E+03 -0.24153842841E+02  0.54562251403E+02  0.24791979551E+03  0.17300000000E+03 0.  1.
<mgrwt>
<rscale>  2 0.24184124E+03</rscale>
<asrwt>0</asrwt>
<pdfrwt beam="1">  1       21 0.30416578E-01 0.24184124E+03</pdfrwt>
<pdfrwt beam="2">  1       21 0.63284790E-01 0.24184124E+03</pdfrwt>
<totfact> 0.23332482E+04</totfact>
</mgrwt>
</event>
<event>
 4    3  0.4022695E+000  0.1817982E+03  0.7546771E-02  0.1166074E+00
         21   -1    0    0  503  502  0.00000000000E+00  0.00000000000E+00  0.15462196275E+04  0.15462196275E+04  0.00000000000E+00 0. -1.
         21   -1    0    0  501  503 -0.00000000000E+00 -0.00000000000E+00 -0.52916492933E+02  0.52916492933E+02  0.00000000000E+00 0. -1.
          6    1    1    2  501    0 -0.50845520507E+02  0.23158739047E+02  0.12934575327E+03  0.22311637779E+03  0.17300000000E+03 0. -1.
         -6    1    1    2    0  502  0.50845520507E+02 -0.23158739047E+02  0.13639573813E+04  0.13760197426E+04  0.17300000000E+03 0. -1.
<mgrwt>
<rscale>  2 0.18179822E+03</rscale>
<asrwt>0</asrwt>
<pdfrwt beam="1">  1       21 0.23787991E+00 0.18179822E+03</pdfrwt>
<pdfrwt beam="2">  1       21 0.81410001E-02 0.18179822E+03</pdfrwt>
<totfact> 0.92254837E+03</totfact>
</mgrwt>
</event>
<event>
 4    3  0.4022695E+000  0.2608860E+03  0.7546771E-02  0.1106612E+00
         21   -1    0    0  501  502  0.00000000000E+00  0.00000000000E+00  0.52034285371E+03  0.52034285371E+03  0.00000000000E+00 0. -1.
         21   -1    0    0  502  503 -0.00000000000E+00 -0.00000000000E+00 -0.16542551762E+03  0.16542551762E+03  0.00000000000E+00 0. -1.
          6    1    1    2  501    0 -0.18555899390E+03  0.60830549466E+02  0.33432744076E+03  0.42407114216E+03  0.17300000000E+03 0. -1.
         -6    1    1    2    0  503  0.18555899390E+03 -0.60830549466E+02  0.20589895326E+02  0.26169722917E+03  0.17300000000E+03 0. -1.
<mgrwt>
<rscale>  2 0.26088598E+03</rscale>
<asrwt>0</asrwt>
<pdfrwt beam="1">  1       21 0.80052746E-01 0.26088598E+03</pdfrwt>
<pdfrwt beam="2">  1       21 0.25450080E-01 0.26088598E+03</pdfrwt>
<totfact> 0.19372244E+04</totfact>
</mgrwt>
</event>
<event>
 4    3  0.4022695E+000  0.1758607E+03  0.7546771E-02  0.1171870E+00
         21   -1    0    0  501  502  0.00000000000E+00  0.00000000000E+00  0.12365194429E+03  0.12365194429E+03  0.00000000000E+00 0.  1.
         21   -1    0    0  502  503 -0.00000000000E+00 -0.00000000000E+00 -0.29145878102E+03  0.29145878102E+03  0.00000000000E+00 0.  1.
          6    1    1    2  501    0  0.27640496607E+02 -0.15296770233E+02 -0.57298864220E+01  0.17595402761E+03  0.17300000000E+03 0.  1.
         -6    1    1    2    0  503 -0.27640496607E+02  0.15296770233E+02 -0.16207695031E+03  0.23915669770E+03  0.17300000000E+03 0.  1.
<mgrwt>
<rscale>  2 0.17586071E+03</rscale>
<asrwt>0</asrwt>
<pdfrwt beam="1">  1       21 0.19023376E-01 0.17586071E+03</pdfrwt>
<pdfrwt beam="2">  1       21 0.44839812E-01 0.17586071E+03</pdfrwt>
<totfact> 0.12168260E+05</totfact>
</mgrwt>
</event>
<event>
 4    3  0.4022695E+000  0.1972539E+03  0.7546771E-02  0.1152077E+00
         21   -1    0    0  503  502  0.00000000000E+00  0.00000000000E+00  0.50399176626E+02  0.50399176626E+02  0.00000000000E+00 0. -1.
         21   -1    0    0  501  503 -0.00000000000E+00 -0.00000000000E+00 -0.11210494169E+04  0.11210494169E+04  0.00000000000E+00 0.  1.
          6    1    1    2  501    0  0.43953162024E+02  0.83953574317E+02 -0.86214839593E+03  0.88442576833E+03  0.17300000000E+03 0.  1.
         -6    1    1    2    0  502 -0.43953162024E+02 -0.83953574317E+02 -0.20850184439E+03  0.28702282524E+03  0.17300000000E+03 0. -1.
<mgrwt>
<rscale>  2 0.19725385E+03</rscale>
<asrwt>0</asrwt>
<pdfrwt beam="1">  1       21 0.77537196E-02 0.19725385E+03</pdfrwt>
<pdfrwt beam="2">  1       21 0.17246914E+00 0.19725385E+03</pdfrwt>
<totfact> 0.25901593E+04</totfact>
</mgrwt>
</event>
<event>
 4    3  0.4022695E+000  0.2239470E+03  0.7546771E-02  0.1130974E+00
         21   -1    0    0  501  502  0.00000000000E+00  0.00000000000E+00  0.74483923334E+02  0.74483923334E+02  0.00000000000E+00 0.  1.
         21   -1    0    0  502  503 -0.00000000000E+00 -0.00000000000E+00 -0.79446604377E+03  0.79446604377E+03  0.00000000000E+00 0.  1.
          6    1    1    2  501    0  0.34444777865E+02 -0.13797403383E+03 -0.52964478461E+03  0.57504423708E+03  0.17300000000E+03 0.  1.
         -6    1    1    2    0  503 -0.34444777865E+02  0.13797403383E+03 -0.19033733583E+03  0.29390573003E+03  0.17300000000E+03 0.  1.
<mgrwt>
<rscale>  2 0.22394704E+03</rscale>
<asrwt>0</asrwt>
<pdfrwt beam="1">  1       21 0.11459065E-01 0.22394704E+03</pdfrwt>
<pdfrwt beam="2">  1       21 0.12222554E+00 0.22394704E+03</pdfrwt>
<totfact> 0.31585242E+04</totfact>
</mgrwt>
</event>
<event>
 4    3  0.4022695E+000  0.1880818E+03  0.7546771E-02  0.1160203E+00
         21   -1    0    0  503  502  0.00000000000E+00  0.00000000000E+00  0.14644955179E+03  0.14644955179E+03  0.00000000000E+00 0. -1.
         21   -1    0    0  501  503 -0.00000000000E+00 -0.00000000000E+00 -0.27704585191E+03  0.27704585191E+03  0.00000000000E+00 0.  1.
          6    1    1    2  501    0  0.15998757362E+02 -0.72040237783E+02 -0.14109257161E+03  0.23512096857E+03  0.17300000000E+03 0.  1.
         -6    1    1    2    0  502 -0.15998757362E+02  0.72040237783E+02  0.10496271496E+02  0.18837443513E+03  0.17300000000E+03 0. -1.
<mgrwt>
<rscale>  2 0.18808178E+03</rscale>
<asrwt>0</asrwt>
<pdfrwt beam="1">  1       21 0.22530700E-01 0.18808178E+03</pdfrwt>
<pdfrwt beam="2">  1       21 0.42622439E-01 0.18808178E+03</pdfrwt>
<totfact> 0.97888602E+04</totfact>
</mgrwt>
</event>
<event>
 4    3  0.4022695E+000  0.2621008E+03  0.7546771E-02  0.1105888E+00
         21   -1    0    0  503  502  0.00000000000E+00  0.00000000000E+00  0.45312025707E+02  0.45312025707E+02  0.00000000000E+00 0.  1.
         21   -1    0    0  501  503 -0.00000000000E+00 -0.00000000000E+00 -0.17056847837E+04  0.17056847837E+04  0.00000000000E+00 0.  1.
          6    1    1    2  501    0  0.11991197422E+03  0.15616956439E+03 -0.11220813491E+04  0.11522861487E+04  0.17300000000E+03 0.  1.
         -6    1    1    2    0  502 -0.11991197422E+03 -0.15616956439E+03 -0.53829140889E+03  0.59871066074E+03  0.17300000000E+03 0.  1.
<mgrwt>
<rscale>  2 0.26210077E+03</rscale>
<asrwt>0</asrwt>
<pdfrwt beam="1">  1       21 0.69710799E-02 0.26210077E+03</pdfrwt>
<pdfrwt beam="2">  1       21 0.26241308E+00 0.26210077E+03</pdfrwt>
<totfact> 0.80662746E+03</totfact>
</mgrwt>
</event>
<event>
 4    3  0.4022695E+000  0.2544269E+03  0.7546771E-02  0.1110539E+00
         21   -1    0    0  501  502  0.00000000000E+00  0.00000000000E+00  0.61114293143E+02  0.61114293143E+02  0.00000000000E+00 0.  1.
         21   -1    0    0  502  503 -0.00000000000E+00 -0.00000000000E+00 -0.10661736084E+04  0.10661736084E+04  0.00000000000E+00 0. -1.
          6    1    1    2  501    0 -0.15186623362E+03 -0.10835446698E+03 -0.45698685300E+03  0.52303922151E+03  0.17300000000E+03 0.  1.
         -6    1    1    2    0  503  0.15186623362E+03  0.10835446698E+03 -0.54807246223E+03  0.60424868000E+03  0.17300000000E+03 0.  1.
<mgrwt>
<rscale>  2 0.25442689E+03</rscale>
<asrwt>0</asrwt>
<pdfrwt beam="1">  1       21 0.94021989E-02 0.25442689E+03</pdfrwt>
<pdfrwt beam="2">  1       21 0.16402671E+00 0.25442689E+03</pdfrwt>
<totfact> 0.20484772E+04</totfact>
</mgrwt>
</event>
<event>
 4    3  0.4022695E+000  0.1885744E+03  0.7546771E-02  0.1159753E+00
         21   -1    0    0  501  502  0.00000000000E+00  0.00000000000E+00  0.23826445912E+03  0.23826445912E+03  0.00000000000E+00 0.  1.
         21   -1    0    0  502  503 -0.00000000000E+00 -0.00000000000E+00 -0.23113147462E+03  0.23113147462E+03  0.00000000000E+00 0. -1.
          6    1    1    2  501    0  0.70908172568E+02  0.24563073234E+02  0.14326119014E+03  0.23682078056E+03  0.17300000000E+03 0.  1.
         -6    1    1    2    0  503 -0.70908172568E+02 -0.24563073234E+02 -0.13612820565E+03  0.23257515318E+03  0.17300000000E+03 0. -1.
<mgrwt>
<rscale>  2 0.18857442E+03</rscale>
<asrwt>0</asrwt>
<pdfrwt beam="1">  1       21 0.36656071E-01 0.18857442E+03</pdfrwt>
<pdfrwt beam="2">  1       21 0.35558688E-01 0.18857442E+03</pdfrwt>
<totfact> 0.54835436E+04</totfact>
</mgrwt>
</event>
<event>
 4    3  0.4022695E+000  0.2215654E+03  0.7546771E-02  0.1132721E+00
         21   -1    0    0  503  502  0.00000000000E+00  0.00000000000E+00  0.17313874149E+03  0.17313874149E+03  0.00000000000E+00 0. -1.
         21   -1    0    0  501  503 -0.00000000000E+00 -0.00000000000E+00 -0.32412014987E+03  0.32412014987E+03  0.00000000000E+00 0. -1.
          6    1    1    2  501    0 -0.53538941943E+02 -0.12765501863E+03 -0.16346847538E+03  0.27534190479E+03  0.17300000000E+03 0. -1.
         -6    1    1    2    0  502  0.53538941943E+02  0.12765501863E+03  0.12487067003E+02  0.22191698657E+03  0.17300000000E+03 0. -1.
<mgrwt>
<rscale>  2 0.22156539E+03</rscale>
<asrwt>0</asrwt>
<pdfrwt beam="1">  1       21 0.26636730E-01 0.22156539E+03</pdfrwt>
<pdfrwt beam="2">  1       21 0.49864638E-01 0.22156539E+03</pdfrwt>
<totfact> 0.50707983E+04</totfact>
</mgrwt>
</event>
<event>
 4    3  0.4022695E+000  0.2258293E+03  0.7546771E-02  0.1129610E+00
         21   -1    0    0  503  502  0.00000000000E+00  0.00000000000E+00  0.27933504398E+03  0.27933504398E+03  0.00000000000E+00 0.  1.
         21   -1    0    0  501  503 -0.00000000000E+00 -0.00000000000E+00 -0.24372416447E+03  0.24372416447E+03  0.00000000000E+00 0. -1.
          6    1    1    2  501    0  0.14411231362E+03 -0.17364459152E+02 -0.11319594303E+03  0.25261077748E+03  0.17300000000E+03 0. -1.
         -6    1    1    2    0  502 -0.14411231362E+03  0.17364459152E+02  0.14880682254E+03  0.27044843097E+03  0.17300000000E+03 0.  1.
<mgrwt>
<rscale>  2 0.22582932E+03</rscale>
<asrwt>0</asrwt>
<pdfrwt beam="1">  1       21 0.42974622E-01 0.22582932E+03</pdfrwt>
<pdfrwt beam="2">  1       21 0.37496026E-01 0.22582932E+03</pdfrwt>
<totfact> 0.35121395E+04</totfact>
</mgrwt>
</event>
<event>
 4    3  0.4022695E+000  0.1803256E+03  0.7546771E-02  0.1167488E+00
         21   -1    0    0  501  502  0.00000000000E+00  0.00000000000E+00  0.38914729197E+02  0.38914729197E+02  0.00000000000E+00 0.  1.
         21   -1    0    0  502  503 -0.00000000000E+00 -0.00000000000E+00 -0.92441337062E+03  0.92441337062E+03  0.00000000000E+00 0.  1.
          6    1    1    2  501    0 -0.13639848482E+02  0.49012896654E+02 -0.29345608364E+03  0.34443255149E+03  0.17300000000E+03 0.  1.
         -6    1    1    2    0  503  0.13639848482E+02 -0.49012896654E+02 -0.59204255779E+03  0.61889554832E+03  0.17300000000E+03 0.  1.
<mgrwt>
<rscale>  2 0.18032557E+03</rscale>
<asrwt>0</asrwt>
<pdfrwt beam="1">  1       21 0.59868818E-02 0.18032557E+03</pdfrwt>
<pdfrwt beam="2">  1       21 0.14221743E+00 0.18032557E+03</pdfrwt>
<totfact> 0.68425992E+04</totfact>
</mgrwt>
</event>
<event>
 4    3  0.4022695E+000  0.1782052E+03  0.7546771E-02  0.1169551E+00
         21   -1    0    0  503  502  0.00000000000E+00  0.00000000000E+00  0.20846414297E+04  0.20846414297E+04  0.00000000000E+00 0. -1.
         21   -1    0    0  501  503 -0.00000000000E+00 -0.00000000000E+00 -0.25590633738E+02  0.25590633738E+02  0.00000000000E+00 0. -1.
          6    1    1    2  501    0  0.42513952307E+02 -0.45453707876E+01  0.35829388225E+03  0.40016446943E+03  0.17300000000E+03 0. -1.
         -6    1    1    2    0  502 -0.42513952307E+02  0.45453707876E+01  0.17007569137E+04  0.17100675940E+04  0.17300000000E+03 0. -1.
<mgrwt>
<rscale>  2 0.17820521E+03</rscale>
<asrwt>0</asrwt>
<pdfrwt beam="1">  1       21 0.32071393E+00 0.17820521E+03</pdfrwt>
<pdfrwt beam="2">  1       21 0.39370222E-02 0.17820521E+03</pdfrwt>
<totfact> 0.10609613E+04</totfact>
</mgrwt>
</event>
<event>
 4    3  0.4022695E+000  0.2224435E+03  0.7546771E-02  0.1132074E+00
         21   -1    0    0  501  502  0.00000000000E+00  0.00000000000E+00  0.20400681336E+04  0.20400681336E+04  0.00000000000E+00 0.  1.
         21   -1    0    0  502  503 -0.00000000000E+00 -0.00000000000E+00 -0.63061247775E+02  0.63061247775E+02  0.00000000000E+00 0. -1.
          6    1    1    2  501    0  0.10331135590E+03  0.94227876826E+02  0.18134152616E+04  0.18270074001E+04  0.17300000000E+03 0.  1.
         -6    1    1    2    0  503 -0.10331135590E+03 -0.94227876826E+02  0.16359162425E+03  0.27612198130E+03  0.17300000000E+03 0. -1.
<mgrwt>
<rscale>  2 0.22244354E+03</rscale>
<asrwt>0</asrwt>
<pdfrwt beam="1">  1       21 0.31385659E+00 0.22244354E+03</pdfrwt>
<pdfrwt beam="2">  1       21 0.97017320E-02 0.22244354E+03</pdfrwt>
<totfact> 0.23456211E+03</totfact>
</mgrwt>
</event>
<event>
 4    3  0.4022695E+000  0.1873582E+03  0.7546771E-02  0.1160866E+00
         21   -1    0    0  503  502  0.00000000000E+00  0.00000000000E+00  0.32027320628E+02  0.32027320628E+02  0.00000000000E+00 0.  1.
         21   -1    0    0  501  503 -0.00000000000E+00 -0.00000000000E+00 -0.11189367358E+04  0.11189367358E+04  0.00000000000E+00 0.  1.
          6    1    1    2  501    0 -0.20024865909E+02  0.69087709661E+02 -0.62578328512E+03  0.65322877065E+03  0.17300000000E+03 0.  1.
         -6    1    1    2    0  502  0.20024865909E+02 -0.69087709661E+02 -0.46112613004E+03  0.49773528575E+03  0.17300000000E+03 0.  1.
<mgrwt>
<rscale>  2 0.18735823E+03</rscale>
<asrwt>0</asrwt>
<pdfrwt beam="1">  1       21 0.49272806E-02 0.18735823E+03</pdfrwt>
<pdfrwt beam="2">  1       21 0.17214409E+00 0.18735823E+03</pdfrwt>
<totfact> 0.57016079E+04</totfact>
</mgrwt>
</event>
<event>
 4    3  0.4022695E+000  0.2179480E+03  0.7546771E-02  0.1135422E+00
         21   -1    0    0  501  502  0.00000000000E+00  0.00000000000E+00  0.88635233193E+03  0.88635233193E+03  0.00000000000E+00 0.  1.
         21   -1    0    0  502  503 -0.00000000000E+00 -0.00000000000E+00 -0.18020648531E+03  0.18020648531E+03  0.00000000000E+00 0.  1.
          6    1    1    2  501    0  0.75258811562E+02  0.10912573945E+03  0.80007697048E+03  0.82923125509E+03  0.17300000000E+03 0.  1.
         -6    1    1    2    0  503 -0.75258811562E+02 -0.10912573945E+03 -0.93931123850E+02  0.23732756215E+03  0.17300000000E+03 0.  1.
<mgrwt>
<rscale>  2 0.21794797E+03</rscale>
<asrwt>0</asrwt>
<pdfrwt beam="1">  1       21 0.13636189E+00 0.21794797E+03</pdfrwt>
<pdfrwt beam="2">  1       21 0.27724075E-01 0.21794797E+03</pdfrwt>
<totfact> 0.46595041E+03</totfact>
</mgrwt>
</event>
<event>
 4    3  0.4022695E+000  0.1886419E+03  0.7546771E-02  0.1159692E+00
         21   -1    0    0  503  502  0.00000000000E+00  0.00000000000E+00  0.82915770816E+02  0.82915770816E+02  0.00000000000E+00 0.  1.
         21   -1    0    0  501  503 -0.00000000000E+00 -0.00000000000E+00 -0.44388391033E+03  0.44388391033E+03  0.00000000000E+00 0. -1.
          6    1    1    2  501    0 -0.42878848412E+01  0.75089215307E+02 -0.22842426264E+03  0.29624891557E+03  0.17300000000E+03 0.  1.
         -6    1    1    2    0  502  0.42878848412E+01 -0.75089215307E+02 -0.13254387687E+03  0.23055076558E+03  0.17300000000E+03 0.  1.
<mgrwt>
<rscale>  2 0.18864193E+03</rscale>
<asrwt>0</asrwt>
<pdfrwt beam="1">  1       21 0.12756272E-01 0.18864193E+03</pdfrwt>
<pdfrwt beam="2">  1       21 0.68289833E-01 0.18864193E+03</pdfrwt>
<totfact> 0.10305531E+05</totfact>
</mgrwt>
</event>
<event>
 4    3  0.4022695E+000  0.1888820E+03  0.7546771E-02  0.1159474E+00
         21   -1    0    0  501  502  0.00000000000E+00  0.00000000000E+00  0.89927654589E+03  0.89927654589E+03  0.00000000000E+00 0. -1.
         21   -1    0    0  502  503 -0.00000000000E+00 -0.00000000000E+00 -0.11115229115E+03  0.11115229115E+03  0.00000000000E+00 0. -1.
          6    1    1    2  501    0  0.26076626658E+02  0.71185763949E+02  0.79920542192E+03  0.82122208317E+03  0.17300000000E+03 0. -1.
         -6    1    1    2    0  503 -0.26076626658E+02 -0.71185763949E+02 -0.11081167187E+02  0.18920675388E+03  0.17300000000E+03 0. -1.
<mgrwt>
<rscale>  2 0.18888198E+03</rscale>
<asrwt>0</asrwt>
<pdfrwt beam="1">  1       21 0.13835023E+00 0.18888198E+03</pdfrwt>
<pdfrwt beam="2">  1       21 0.17100353E-01 0.18888198E+03</pdfrwt>
<totfact> 0.11417244E+04</totfact>
</mgrwt>
</event>
<event>
 4    3  0.4022695E+000  0.1747669E+03  0.7546771E-02  0.1172966E+00
         21   -1    0    0  503  502  0.00000000000E+00  0.00000000000E+00  0.12822102590E+04  0.12822102590E+04  0.00000000000E+00 0.  1.
         21   -1    0    0  501  503 -0.00000000000E+00 -0.00000000000E+00 -0.24250038235E+02  0.24250038235E+02  0.00000000000E+00 0.  1.
          6    1    1    2  501    0 -0.24108125903E+02 -0.57686257519E+01  0.71587184195E+03  0.73689617510E+03  0.17300000000E+03 0. -1.
         -6    1    1    2    0  502  0.24108125903E+02  0.57686257519E+01  0.54208837878E+03  0.56956412210E+03  0.17300000000E+03 0. -1.
<mgrwt>
<rscale>  2 0.17476693E+03</rscale>
<asrwt>0</asrwt>
<pdfrwt beam="1">  1       21 0.19726306E+00 0.17476693E+03</pdfrwt>
<pdfrwt beam="2">  1       21 0.37307761E-02 0.17476693E+03</pdfrwt>
<totfact> 0.62273638E+04</totfact>
</mgrwt>
</event>
<event>
 4    3  0.4022695E+000  0.2181735E+03  0.7546771E-02  0.1135252E+00
         21   -1    0    0  501  502  0.00000000000E+00  0.00000000000E+00  0.61761088884E+03  0.61761088884E+03  0.00000000000E+00 0. -1.
         21   -1    0    0  502  503 -0.00000000000E+00 -0.00000000000E+00 -0.15089699750E+03  0.15089699750E+03  0.00000000000E+00 0.  1.
          6    1    1    2  501    0  0.22625357387E+02  0.13099146639E+03  0.50212876588E+03  0.54747873802E+03  0.17300000000E+03 0. -1.
         -6    1    1    2    0  503 -0.22625357387E+02 -0.13099146639E+03 -0.35414874539E+02  0.22102914831E+03  0.17300000000E+03 0.  1.
<mgrwt>
<rscale>  2 0.21817349E+03</rscale>
<asrwt>0</asrwt>
<pdfrwt beam="1">  1       21 0.95017058E-01 0.21817349E+03</pdfrwt>
<pdfrwt beam="2">  1       21 0.23214923E-01 0.21817349E+03</pdfrwt>
<totfact> 0.15890691E+04</totfact>
</mgrwt>
</event>
<event>
 4    3  0.4022695E+000  0.1904829E+03  0.7546771E-02  0.1158027E+00
         21   -1    0    0  501  502  0.00000000000E+00  0.00000000000E+00  0.60259046809E+03  0.60259046809E+03  0.00000000000E+00 0. -1.
         21   -1    0    0  502  503 -0.00000000000E+00 -0.00000000000E+00 -0.31229697705E+03  0.31229697705E+03  0.00000000000E+00 0. -1.
          6    1    1    2  501    0 -0.42354975149E+02  0.67533646988E+02  0.55613221137E+03  0.58784927823E+03  0.17300000000E+03 0. -1.
         -6    1    1    2    0  503  0.42354975149E+02 -0.67533646988E+02 -0.26583872032E+03  0.32703816691E+03  0.17300000000E+03 0. -1.
<mgrwt>
<rscale>  2 0.19048291E+03</rscale>
<asrwt>0</asrwt>
<pdfrwt beam="1">  1       21 0.92706226E-01 0.19048291E+03</pdfrwt>
<pdfrwt beam="2">  1       21 0.48045689E-01 0.19048291E+03</pdfrwt>
<totfact> 0.40673899E+03</totfact>
</mgrwt>
</event>
<event>
 4    3  0.4022695E+000  0.2466867E+03  0.7546771E-02  0.1115417E+00
         21   -1    0    0  503  502  0.00000000000E+00  0.00000000000E+00  0.10701783461E+03  0.10701783461E+03  0.00000000000E+00 0.  1.
         21   -1    0    0  501  503 -0.00000000000E+00 -0.00000000000E+00 -0.57083056847E+03  0.57083056847E+03  0.00000000000E+00 0.  1.
          6    1    1    2  501    0 -0.46971683883E+02 -0.16946671692E+03 -0.21089674344E+03  0.32454852276E+03  0.17300000000E+03 0.  1.
         -6    1    1    2    0  502  0.46971683883E+02  0.16946671692E+03 -0.25291599042E+03  0.35329988033E+03  0.17300000000E+03 0.  1.
<mgrwt>
<rscale>  2 0.24668666E+03</rscale>
<asrwt>0</asrwt>
<pdfrwt beam="1">  1       21 0.16464282E-01 0.24668666E+03</pdfrwt>
<pdfrwt beam="2">  1       21 0.87820087E-01 0.24668666E+03</pdfrwt>
<totfact> 0.35808540E+04</totfact>
</mgrwt>
</event>
<event>
 4    3  0.4022695E+000  0.2008509E+03  0.7546771E-02  0.1149023E+00
         21   -1    0    0  501  502  0.00000000000E+00  0.00000000000E+00  0.11653421285E+03  0.11653421285E+03  0.00000000000E+00 0.  1.
         21   -1    0    0  502  503 -0.00000000000E+00 -0.00000000000E+00 -0.61243922118E+03  0.61243922118E+03  0.00000000000E+00 0.  1.
          6    1    1    2  501    0 -0.88693475687E+02 -0.50453402247E+02 -0.76226719707E+01  0.20099548143E+03  0.17300000000E+03 0.  1.
         -6    1    1    2    0  503  0.88693475687E+02  0.50453402247E+02 -0.48828233636E+03  0.52797795260E+03  0.17300000000E+03 0.  1.
<mgrwt>
<rscale>  2 0.20085089E+03</rscale>
<asrwt>0</asrwt>
<pdfrwt beam="1">  1       21 0.17928340E-01 0.20085089E+03</pdfrwt>
<pdfrwt beam="2">  1       21 0.94221419E-01 0.20085089E+03</pdfrwt>
<totfact> 0.26581862E+04</totfact>
</mgrwt>
</event>
<event>
 4    3  0.4022695E+000  0.3016049E+03  0.7546771E-02  0.1084441E+00
         21   -1    0    0  503  502  0.00000000000E+00  0.00000000000E+00  0.14222070638E+04  0.14222070638E+04  0.00000000000E+00 0.  1.
         21   -1    0    0  501  503 -0.00000000000E+00 -0.00000000000E+00 -0.64479639809E+02  0.64479639809E+02  0.00000000000E+00 0. -1.
          6    1    1    2  501    0 -0.13299261109E+03 -0.20820541223E+03  0.61218503975E+03  0.68244857035E+03  0.17300000000E+03 0.  1.
         -6    1    1    2    0  502  0.13299261109E+03  0.20820541223E+03  0.74554238425E+03  0.80423813327E+03  0.17300000000E+03 0. -1.
<mgrwt>
<rscale>  2 0.30160492E+03</rscale>
<asrwt>0</asrwt>
<pdfrwt beam="1">  1       21 0.21880106E+00 0.30160492E+03</pdfrwt>
<pdfrwt beam="2">  1       21 0.99199457E-02 0.30160492E+03</pdfrwt>
<totfact> 0.77745396E+03</totfact>
</mgrwt>
</event>
<event>
 4    3  0.4022695E+000  0.1743745E+03  0.7546771E-02  0.1173361E+00
         21   -1    0    0  503  502  0.00000000000E+00  0.00000000000E+00  0.61220586138E+02  0.61220586138E+02  0.00000000000E+00 0. -1.
         21   -1    0    0  501  503 -0.00000000000E+00 -0.00000000000E+00 -0.99222490155E+03  0.99222490155E+03  0.00000000000E+00 0. -1.
          6    1    1    2  501    0  0.51947660135E+00  0.21845206921E+02 -0.83774170309E+03  0.85569716841E+03  0.17300000000E+03 0. -1.
         -6    1    1    2    0  502 -0.51947660135E+00 -0.21845206921E+02 -0.93262612318E+02  0.19774831928E+03  0.17300000000E+03 0. -1.
<mgrwt>
<rscale>  2 0.17437455E+03</rscale>
<asrwt>0</asrwt>
<pdfrwt beam="1">  1       21 0.94185513E-02 0.17437455E+03</pdfrwt>
<pdfrwt beam="2">  1       21 0.15264999E+00 0.17437455E+03</pdfrwt>
<totfact> 0.26049622E+04</totfact>
</mgrwt>
</event>
<event>
 4    3  0.4022695E+000  0.2113379E+03  0.7546771E-02  0.1140511E+00
         21   -1    0    0  501  502  0.00000000000E+00  0.00000000000E+00  0.39559500745E+03  0.39559500745E+03  0.00000000000E+00 0. -1.
         21   -1    0    0  502  503 -0.00000000000E+00 -0.00000000000E+00 -0.11533705182E+03  0.11533705182E+03  0.00000000000E+00 0. -1.
          6    1    1    2  501    0  0.12086880554E+03  0.11199283958E+02  0.17724421223E+03  0.27582458716E+03  0.17300000000E+03 0. -1.
         -6    1    1    2    0  503 -0.12086880554E+03 -0.11199283958E+02  0.10301374340E+03  0.23510747211E+03  0.17300000000E+03 0. -1.
<mgrwt>
<rscale>  2 0.21133786E+03</rscale>
<asrwt>0</asrwt>
<pdfrwt beam="1">  1       21 0.60860770E-01 0.21133786E+03</pdfrwt>
<pdfrwt beam="2">  1       21 0.17744162E-01 0.21133786E+03</pdfrwt>
<totfact> 0.71849630E+04</totfact>
</mgrwt>
</event>
<event>
 4    3  0.4022695E+000  0.1815237E+03  0.7546771E-02  0.1166337E+00
         21   -1    0    0  501  502  0.00000000000E+00  0.00000000000E+00  0.24362186973E+03  0.24362186973E+03  0.00000000000E+00 0.  1.
         21   -1    0    0  502  503 -0.00000000000E+00 -0.00000000000E+00 -0.21503660581E+03  0.21503660581E+03  0.00000000000E+00 0.  1.
          6    1    1    2  501    0 -0.53630559430E+02 -0.12067065619E+02  0.15397999850E+03  0.23803506237E+03  0.17300000000E+03 0. -1.
         -6    1    1    2    0  503  0.53630559430E+02  0.12067065619E+02 -0.12539473459E+03  0.22062341317E+03  0.17300000000E+03 0. -1.
<mgrwt>
<rscale>  2 0.18152369E+03</rscale>
<asrwt>0</asrwt>
<pdfrwt beam="1">  1       21 0.37480287E-01 0.18152369E+03</pdfrwt>
<pdfrwt beam="2">  1       21 0.33082555E-01 0.18152369E+03</pdfrwt>
<totfact> 0.60694353E+04</totfact>
</mgrwt>
</event>
<event>
 4    3  0.4022695E+000  0.1918322E+03  0.7546771E-02  0.1156819E+00
         21   -1    0    0  503  502  0.00000000000E+00  0.00000000000E+00  0.82222413474E+02  0.82222413474E+02  0.00000000000E+00 0. -1.
         21   -1    0    0  501  503 -0.00000000000E+00 -0.00000000000E+00 -0.68060490781E+03  0.68060490781E+03  0.00000000000E+00 0. -1.
          6    1    1    2  501    0  0.81693050386E+02  0.14030309025E+02 -0.52237723242E+03  0.55648681656E+03  0.17300000000E+03 0. -1.
         -6    1    1    2    0  502 -0.81693050386E+02 -0.14030309025E+02 -0.76005261922E+02  0.20634050473E+03  0.17300000000E+03 0. -1.
<mgrwt>
<rscale>  2 0.19183223E+03</rscale>
<asrwt>0</asrwt>
<pdfrwt beam="1">  1       21 0.12649602E-01 0.19183223E+03</pdfrwt>
<pdfrwt beam="2">  1       21 0.10470845E+00 0.19183223E+03</pdfrwt>
<totfact> 0.39287866E+04</totfact>
</mgrwt>
</event>
<event>
 4    3  0.4022695E+000  0.1837820E+03  0.7546771E-02  0.1164192E+00
         21   -1    0    0  503  502  0.00000000000E+00  0.00000000000E+00  0.37190234504E+03  0.37190234504E+03  0.00000000000E+00 0. -1.
         21   -1    0    0  501  503 -0.00000000000E+00 -0.00000000000E+00 -0.12037930882E+03  0.12037930882E+03  0.00000000000E+00 0. -1.
          6    1    1    2  501    0  0.62021513522E+02  0.40060350680E+00  0.37891003920E+01  0.18382107035E+03  0.17300000000E+03 0. -1.
         -6    1    1    2    0  502 -0.62021513522E+02 -0.40060350680E+00  0.24773393583E+03  0.30846058352E+03  0.17300000000E+03 0. -1.
<mgrwt>
<rscale>  2 0.18378201E+03</rscale>
<asrwt>0</asrwt>
<pdfrwt beam="1">  1       21 0.57215745E-01 0.18378201E+03</pdfrwt>
<pdfrwt beam="2">  1       21 0.18519894E-01 0.18378201E+03</pdfrwt>
<totfact> 0.76678459E+04</totfact>
</mgrwt>
</event>
<event>
 4    3  0.4022695E+000  0.1859385E+03  0.7546771E-02  0.1162176E+00
         21   -1    0    0  501  502  0.00000000000E+00  0.00000000000E+00  0.12869699103E+03  0.12869699103E+03  0.00000000000E+00 0. -1.
         21   -1    0    0  502  503 -0.00000000000E+00 -0.00000000000E+00 -0.43123872889E+03  0.43123872889E+03  0.00000000000E+00 0.  1.
          6    1    1    2  501    0 -0.67596095040E+02  0.86540234781E+01  0.20641941529E+02  0.18708076849E+03  0.17300000000E+03 0. -1.
         -6    1    1    2    0  503  0.67596095040E+02 -0.86540234781E+01 -0.32318367939E+03  0.37285495144E+03  0.17300000000E+03 0.  1.
<mgrwt>
<rscale>  2 0.18593850E+03</rscale>
<asrwt>0</asrwt>
<pdfrwt beam="1">  1       21 0.19799537E-01 0.18593850E+03</pdfrwt>
<pdfrwt beam="2">  1       21 0.66344420E-01 0.18593850E+03</pdfrwt>
<totfact> 0.49183618E+04</totfact>
</mgrwt>
</event>
<event>
 4    3  0.4022695E+000  0.2013478E+03  0.7546771E-02  0.1148607E+00
         21   -1    0    0  501  502  0.00000000000E+00  0.00000000000E+00  0.76073466266E+03  0.76073466266E+03  0.00000000000E+00 0.  1.
         21   -1    0    0  502  503 -0.00000000000E+00 -0.00000000000E+00 -0.66180118438E+02  0.66180118438E+02  0.00000000000E+00 0.  1.
          6    1    1    2  501    0  0.25279551233E+02 -0.99864342864E+02  0.52973598404E+03  0.56671082174E+03  0.17300000000E+03 0.  1.
         -6    1    1    2    0  503 -0.25279551233E+02  0.99864342864E+02  0.16481856018E+03  0.26020395936E+03  0.17300000000E+03 0.  1.
<mgrwt>
<rscale>  2 0.20134782E+03</rscale>
<asrwt>0</asrwt>
<pdfrwt beam="1">  1       21 0.11703610E+00 0.20134782E+03</pdfrwt>
<pdfrwt beam="2">  1       21 0.10181557E-01 0.20134782E+03</pdfrwt>
<totfact> 0.43941190E+04</totfact>
</mgrwt>
</event>
<event>
 4    3  0.4022695E+000  0.2621041E+03  0.7546771E-02  0.1105886E+00
         21   -1    0    0  503  502  0.00000000000E+00  0.00000000000E+00  0.44859083902E+03  0.44859083902E+03  0.00000000000E+00 0.  1.
         21   -1    0    0  501  503 -0.00000000000E+00 -0.00000000000E+00 -0.20894685911E+03  0.20894685911E+03  0.00000000000E+00 0. -1.
          6    1    1    2  501    0 -0.91815025227E+02  0.17418257084E+03 -0.50082431661E+02  0.26684605450E+03  0.17300000000E+03 0. -1.
         -6    1    1    2    0  502  0.91815025227E+02 -0.17418257084E+03  0.28972641157E+03  0.39069164363E+03  0.17300000000E+03 0.  1.
<mgrwt>
<rscale>  2 0.26210411E+03</rscale>
<asrwt>0</asrwt>
<pdfrwt beam="1">  1       21 0.69013975E-01 0.26210411E+03</pdfrwt>
<pdfrwt beam="2">  1       21 0.32145671E-01 0.26210411E+03</pdfrwt>
<totfact> 0.17127633E+04</totfact>
</mgrwt>
</event>
<event>
 4    3  0.4022695E+000  0.2121021E+03  0.7546771E-02  0.1139912E+00
         21   -1    0    0  501  502  0.00000000000E+00  0.00000000000E+00  0.73756533635E+02  0.73756533635E+02  0.00000000000E+00 0.  1.
         21   -1    0    0  502  503 -0.00000000000E+00 -0.00000000000E+00 -0.72197940790E+03  0.72197940790E+03  0.00000000000E+00 0.  1.
          6    1    1    2  501    0  0.10883962783E+03  0.56676713286E+02 -0.16738029667E+03  0.27019155821E+03  0.17300000000E+03 0.  1.
         -6    1    1    2    0  503 -0.10883962783E+03 -0.56676713286E+02 -0.48084257759E+03  0.52554438332E+03  0.17300000000E+03 0.  1.
<mgrwt>
<rscale>  2 0.21210213E+03</rscale>
<asrwt>0</asrwt>
<pdfrwt beam="1">  1       21 0.11347159E-01 0.21210213E+03</pdfrwt>
<pdfrwt beam="2">  1       21 0.11107375E+00 0.21210213E+03</pdfrwt>
<totfact> 0.40935316E+04</totfact>
</mgrwt>
</event>
<event>
 4    3  0.4022695E+000  0.2574994E+03  0.7546771E-02  0.1108655E+00
         21   -1    0    0  501  502  0.00000000000E+00  0.00000000000E+00  0.95565729465E+02  0.95565729465E+02  0.00000000000E+00 0.  1.
         21   -1    0    0  502  503 -0.00000000000E+00 -0.00000000000E+00 -0.69998761880E+03  0.69998761880E+03  0.00000000000E+00 0. -1.
          6    1    1    2  501    0  0.13476673427E+03 -0.13496244782E+03 -0.26488927830E+03  0.36942152718E+03  0.17300000000E+03 0.  1.
         -6    1    1    2    0  503 -0.13476673427E+03  0.13496244782E+03 -0.33953261103E+03  0.42613182108E+03  0.17300000000E+03 0. -1.
<mgrwt>
<rscale>  2 0.25749939E+03</rscale>
<asrwt>0</asrwt>
<pdfrwt beam="1">  1       21 0.14702420E-01 0.25749939E+03</pdfrwt>
<pdfrwt beam="2">  1       21 0.10769040E+00 0.25749939E+03</pdfrwt>
<totfact> 0.27025531E+04</totfact>
</mgrwt>
</event>
<event>
 4    3  0.4022695E+000  0.2548643E+03  0.7546771E-02  0.1110269E+00
         21   -1    0    0  501  502  0.00000000000E+00  0.00000000000E+00  0.86821491253E+02  0.86821491253E+02  0.00000000000E+00 0.  1.
         21   -1    0    0  502  503 -0.00000000000E+00 -0.00000000000E+00 -0.11233047904E+04  0.11233047904E+04  0.00000000000E+00 0. -1.
          6    1    1    2  501    0  0.18110162213E+03  0.47212356182E+02 -0.16857428213E+03  0.30557011096E+03  0.17300000000E+03 0.  1.
         -6    1    1    2    0  503 -0.18110162213E+03 -0.47212356182E+02 -0.86790901701E+03  0.90455617069E+03  0.17300000000E+03 0. -1.
<mgrwt>
<rscale>  2 0.25486429E+03</rscale>
<asrwt>0</asrwt>
<pdfrwt beam="1">  1       21 0.13357153E-01 0.25486429E+03</pdfrwt>
<pdfrwt beam="2">  1       21 0.17281611E+00 0.25486429E+03</pdfrwt>
<totfact> 0.94436250E+03</totfact>
</mgrwt>
</event>
<event>
 4    3  0.4022695E+000  0.1741899E+03  0.7546771E-02  0.1173548E+00
         21   -1    0    0  501  502  0.00000000000E+00  0.00000000000E+00  0.26626286986E+02  0.26626286986E+02  0.00000000000E+00 0. -1.
         21   -1    0    0  502  503 -0.00000000000E+00 -0.00000000000E+00 -0.14479297921E+04  0.14479297921E+04  0.00000000000E+00 0. -1.
          6    1    1    2  501    0 -0.18586649805E+02 -0.82248151624E+01 -0.10509010013E+04  0.10652394217E+04  0.17300000000E+03 0. -1.
         -6    1    1    2    0  503  0.18586649805E+02  0.82248151624E+01 -0.37040250384E+03  0.40931665736E+03  0.17300000000E+03 0. -1.
<mgrwt>
<rscale>  2 0.17418987E+03</rscale>
<asrwt>0</asrwt>
<pdfrwt beam="1">  1       21 0.40963509E-02 0.17418987E+03</pdfrwt>
<pdfrwt beam="2">  1       21 0.22275848E+00 0.17418987E+03</pdfrwt>
<totfact> 0.36946787E+04</totfact>
</mgrwt>
</event>
<event>
 4    3  0.4022695E+000  0.2773861E+03  0.7546771E-02  0.1097125E+00
         21   -1    0    0  501  502  0.00000000000E+00  0.00000000000E+00  0.11913139436E+03  0.11913139436E+03  0.00000000000E+00 0.  1.
         21   -1    0    0  502  503 -0.00000000000E+00 -0.00000000000E+00 -0.73561490033E+03  0.73561490033E+03  0.00000000000E+00 0. -1.
          6    1    1    2  501    0 -0.21374600880E+03 -0.36423948606E+02 -0.15896450057E+03  0.31970732358E+03  0.17300000000E+03 0.  1.
         -6    1    1    2    0  503  0.21374600880E+03  0.36423948606E+02 -0.45751900540E+03  0.53503897111E+03  0.17300000000E+03 0. -1.
<mgrwt>
<rscale>  2 0.27738612E+03</rscale>
<asrwt>0</asrwt>
<pdfrwt beam="1">  1       21 0.18327907E-01 0.27738612E+03</pdfrwt>
<pdfrwt beam="2">  1       21 0.11317152E+00 0.27738612E+03</pdfrwt>
<totfact> 0.15777390E+04</totfact>
</mgrwt>
</event>
<event>
 4    3  0.4022695E+000  0.1877289E+03  0.7546771E-02  0.1160526E+00
         21   -1    0    0  503  502  0.00000000000E+00  0.00000000000E+00  0.22283374138E+03  0.22283374138E+03  0.00000000000E+00 0. -1.
         21   -1    0    0  501  503 -0.00000000000E+00 -0.00000000000E+00 -0.19565292626E+03  0.19565292626E+03  0.00000000000E+00 0.  1.
          6    1    1    2  501    0  0.44901719203E+02 -0.57419214801E+02 -0.78013861605E+02  0.20329361332E+03  0.17300000000E+03 0.  1.
         -6    1    1    2    0  502 -0.44901719203E+02  0.57419214801E+02  0.10519467673E+03  0.21519305432E+03  0.17300000000E+03 0.  1.
<mgrwt>
<rscale>  2 0.18772888E+03</rscale>
<asrwt>0</asrwt>
<pdfrwt beam="1">  1       21 0.34282114E-01 0.18772888E+03</pdfrwt>
<pdfrwt beam="2">  1       21 0.30100450E-01 0.18772888E+03</pdfrwt>
<totfact> 0.86975806E+04</totfact>
</mgrwt>
</event>
<event>
 4    3  0.4022695E+000  0.1810182E+03  0.7546771E-02  0.1166821E+00
         21   -1    0    0  503  502  0.00000000000E+00  0.00000000000E+00  0.39975413577E+03  0.39975413577E+03  0.00000000000E+00 0. -1.
         21   -1    0    0  501  503 -0.00000000000E+00 -0.00000000000E+00 -0.83481347436E+02  0.83481347436E+02  0.00000000000E+00 0. -1.
          6    1    1    2  501    0 -0.39349560621E+02  0.35919572243E+02  0.12561991286E+03  0.22033602996E+03  0.17300000000E+03 0. -1.
         -6    1    1    2    0  502  0.39349560621E+02 -0.35919572243E+02  0.19065287547E+03  0.26289945325E+03  0.17300000000E+03 0. -1.
<mgrwt>
<rscale>  2 0.18101824E+03</rscale>
<asrwt>0</asrwt>
<pdfrwt beam="1">  1       21 0.61500635E-01 0.18101824E+03</pdfrwt>
<pdfrwt beam="2">  1       21 0.12843284E-01 0.18101824E+03</pdfrwt>
<totfact> 0.12817261E+05</totfact>
</mgrwt>
</event>
<event>
 4    3  0.4022695E+000  0.2572046E+03  0.7546771E-02  0.1108835E+00
         21   -1    0    0  503  502  0.00000000000E+00  0.00000000000E+00  0.53437329265E+03  0.53437329265E+03  0.00000000000E+00 0. -1.
         21   -1    0    0  501  503 -0.00000000000E+00 -0.00000000000E+00 -0.13549386797E+03  0.13549386797E+03  0.00000000000E+00 0.  1.
          6    1    1    2  501    0  0.27705530211E+02  0.18830186150E+03  0.29784548370E+03  0.39353032870E+03  0.17300000000E+03 0. -1.
         -6    1    1    2    0  502 -0.27705530211E+02 -0.18830186150E+03  0.10103394098E+03  0.27633683192E+03  0.17300000000E+03 0.  1.
<mgrwt>
<rscale>  2 0.25720456E+03</rscale>
<asrwt>0</asrwt>
<pdfrwt beam="1">  1       21 0.82211275E-01 0.25720456E+03</pdfrwt>
<pdfrwt beam="2">  1       21 0.20845211E-01 0.25720456E+03</pdfrwt>
<totfact> 0.26717920E+04</totfact>
</mgrwt>
</event>
<event>
 4    3  0.4022695E+000  0.2119772E+03  0.7546771E-02  0.1140010E+00
         21   -1    0    0  501  502  0.00000000000E+00  0.00000000000E+00  0.53096796609E+03  0.53096796609E+03  0.00000000000E+00 0.  1.
         21   -1    0    0  502  503 -0.00000000000E+00 -0.00000000000E+00 -0.91741166576E+02  0.91741166576E+02  0.00000000000E+00 0. -1.
          6    1    1    2  501    0  0.11309613090E+03  0.47059328582E+02  0.30631557619E+03  0.37250979510E+03  0.17300000000E+03 0.  1.
         -6    1    1    2    0  503 -0.11309613090E+03 -0.47059328582E+02  0.13291122332E+03  0.25019933756E+03  0.17300000000E+03 0. -1.
<mgrwt>
<rscale>  2 0.21197716E+03</rscale>
<asrwt>0</asrwt>
<pdfrwt beam="1">  1       21 0.81687378E-01 0.21197716E+03</pdfrwt>
<pdfrwt beam="2">  1       21 0.14114026E-01 0.21197716E+03</pdfrwt>
<totfact> 0.56950003E+04</totfact>
</mgrwt>
</event>
<event>
 4    3  0.4022695E+000  0.2149833E+03  0.7546771E-02  0.1137679E+00
         21   -1    0    0  501  502  0.00000000000E+00  0.00000000000E+00  0.57186721230E+03  0.57186721230E+03  0.00000000000E+00 0.  1.
         21   -1    0    0  502  503 -0.00000000000E+00 -0.00000000000E+00 -0.68971435629E+03  0.68971435629E+03  0.00000000000E+00 0.  1.
          6    1    1    2  501    0  0.10774374230E+03 -0.68411399182E+02  0.53375875470E+03  0.57542700819E+03  0.17300000000E+03 0.  1.
         -6    1    1    2    0  503 -0.10774374230E+03  0.68411399182E+02 -0.65160589869E+03  0.68615456040E+03  0.17300000000E+03 0.  1.
<mgrwt>
<rscale>  2 0.21498333E+03</rscale>
<asrwt>0</asrwt>
<pdfrwt beam="1">  1       21 0.87979571E-01 0.21498333E+03</pdfrwt>
<pdfrwt beam="2">  1       21 0.10610990E+00 0.21498333E+03</pdfrwt>
<totfact> 0.77108369E+02</totfact>
</mgrwt>
</event>
<event>
 4    3  0.4022695E+000  0.1786037E+03  0.7546771E-02  0.1169161E+00
         21   -1    0    0  503  502  0.00000000000E+00  0.00000000000E+00  0.60581292551E+03  0.60581292551E+03  0.00000000000E+00 0.  1.
         21   -1    0    0  501  503 -0.00000000000E+00 -0.00000000000E+00 -0.10409477738E+03  0.10409477738E+03  0.00000000000E+00 0.  1.
          6    1    1    2  501    0  0.20869682165E+02 -0.39175682535E+02  0.13389475162E+01  0.17860870784E+03  0.17300000000E+03 0.  1.
         -6    1    1    2    0  502 -0.20869682165E+02  0.39175682535E+02  0.50037920061E+03  0.53129899505E+03  0.17300000000E+03 0.  1.
<mgrwt>
<rscale>  2 0.17860369E+03</rscale>
<asrwt>0</asrwt>
<pdfrwt beam="1">  1       21 0.93201987E-01 0.17860369E+03</pdfrwt>
<pdfrwt beam="2">  1       21 0.16014581E-01 0.17860369E+03</pdfrwt>
<totfact> 0.33977797E+04</totfact>
</mgrwt>
</event>
<event>
 4    3  0.4022695E+000  0.1798028E+03  0.7546771E-02  0.1167994E+00
         21   -1    0    0  501  502  0.00000000000E+00  0.00000000000E+00  0.47991143750E+02  0.47991143750E+02  0.00000000000E+00 0. -1.
         21   -1    0    0  502  503 -0.00000000000E+00 -0.00000000000E+00 -0.99057724666E+03  0.99057724666E+03  0.00000000000E+00 0. -1.
          6    1    1    2  501    0 -0.48821714453E+02  0.40613092081E+01 -0.17756644437E+03  0.25270317806E+03  0.17300000000E+03 0. -1.
         -6    1    1    2    0  503  0.48821714453E+02 -0.40613092081E+01 -0.76501965854E+03  0.78586521235E+03  0.17300000000E+03 0. -1.
<mgrwt>
<rscale>  2 0.17980282E+03</rscale>
<asrwt>0</asrwt>
<pdfrwt beam="1">  1       21 0.73832542E-02 0.17980282E+03</pdfrwt>
<pdfrwt beam="2">  1       21 0.15239647E+00 0.17980282E+03</pdfrwt>
<totfact> 0.39846015E+04</totfact>
</mgrwt>
</event>
<event>
 4    3  0.4022695E+000  0.2357835E+03  0.7546771E-02  0.1122634E+00
         21   -1    0    0  501  502  0.00000000000E+00  0.00000000000E+00  0.43067809619E+03  0.43067809619E+03  0.00000000000E+00 0. -1.
         21   -1    0    0  502  503 -0.00000000000E+00 -0.00000000000E+00 -0.12976333311E+03  0.12976333311E+03  0.00000000000E+00 0.  1.
          6    1    1    2  501    0 -0.52373106652E+02 -0.15139978175E+03  0.17072619831E+03  0.29110354001E+03  0.17300000000E+03 0.  1.
         -6    1    1    2    0  503  0.52373106652E+02  0.15139978175E+03  0.13018856476E+03  0.26933788929E+03  0.17300000000E+03 0. -1.
<mgrwt>
<rscale>  2 0.23578345E+03</rscale>
<asrwt>0</asrwt>
<pdfrwt beam="1">  1       21 0.66258168E-01 0.23578345E+03</pdfrwt>
<pdfrwt beam="2">  1       21 0.19963590E-01 0.23578345E+03</pdfrwt>
<totfact> 0.47444458E+04</totfact>
</mgrwt>
</event>
<event>
 4    3  0.4022695E+000  0.2257856E+03  0.7546771E-02  0.1129642E+00
         21   -1    0    0  501  502  0.00000000000E+00  0.00000000000E+00  0.13358550824E+03  0.13358550824E+03  0.00000000000E+00 0. -1.
         21   -1    0    0  502  503 -0.00000000000E+00 -0.00000000000E+00 -0.52702065246E+03  0.52702065246E+03  0.00000000000E+00 0. -1.
          6    1    1    2  501    0 -0.14290284341E+03 -0.25077884550E+02 -0.23225549419E+02  0.22697697921E+03  0.17300000000E+03 0. -1.
         -6    1    1    2    0  503  0.14290284341E+03  0.25077884550E+02 -0.37020959480E+03  0.43362918148E+03  0.17300000000E+03 0. -1.
<mgrwt>
<rscale>  2 0.22578557E+03</rscale>
<asrwt>0</asrwt>
<pdfrwt beam="1">  1       21 0.20551616E-01 0.22578557E+03</pdfrwt>
<pdfrwt beam="2">  1       21 0.81080102E-01 0.22578557E+03</pdfrwt>
<totfact> 0.28748955E+04</totfact>
</mgrwt>
</event>
<event>
 4    3  0.4022695E+000  0.1959493E+03  0.7546771E-02  0.1153202E+00
         21   -1    0    0  503  502  0.00000000000E+00  0.00000000000E+00  0.89743777457E+02  0.89743777457E+02  0.00000000000E+00 0.  1.
         21   -1    0    0  501  503 -0.00000000000E+00 -0.00000000000E+00 -0.81223568290E+03  0.81223568290E+03  0.00000000000E+00 0.  1.
          6    1    1    2  501    0 -0.68789816636E+02  0.61115244641E+02 -0.67149754966E+03  0.69950344617E+03  0.17300000000E+03 0.  1.
         -6    1    1    2    0  502  0.68789816636E+02 -0.61115244641E+02 -0.50994355784E+02  0.20247601419E+03  0.17300000000E+03 0.  1.
<mgrwt>
<rscale>  2 0.19594926E+03</rscale>
<asrwt>0</asrwt>
<pdfrwt beam="1">  1       21 0.13806735E-01 0.19594926E+03</pdfrwt>
<pdfrwt beam="2">  1       21 0.12495934E+00 0.19594926E+03</pdfrwt>
<totfact> 0.21723526E+04</totfact>
</mgrwt>
</event>
<event>
 4    3  0.4022695E+000  0.1738596E+03  0.7546771E-02  0.1173882E+00
         21   -1    0    0  501  502  0.00000000000E+00  0.00000000000E+00  0.17430435007E+03  0.17430435007E+03  0.00000000000E+00 0.  1.
         21   -1    0    0  502  503 -0.00000000000E+00 -0.00000000000E+00 -0.18411641289E+03  0.18411641289E+03  0.00000000000E+00 0.  1.
          6    1    1    2  501    0  0.15338891407E+02 -0.79303086541E+01 -0.48109262023E+02  0.18039310540E+03  0.17300000000E+03 0.  1.
         -6    1    1    2    0  503 -0.15338891407E+02  0.79303086541E+01  0.38297199203E+02  0.17802765755E+03  0.17300000000E+03 0.  1.
<mgrwt>
<rscale>  2 0.17385963E+03</rscale>
<asrwt>0</asrwt>
<pdfrwt beam="1">  1       21 0.26816054E-01 0.17385963E+03</pdfrwt>
<pdfrwt beam="2">  1       21 0.28325602E-01 0.17385963E+03</pdfrwt>
<totfact> 0.15870959E+05</totfact>
</mgrwt>
</event>
<event>
 4    3  0.4022695E+000  0.3457011E+03  0.7546771E-02  0.1064393E+00
         21   -1    0    0  501  502  0.00000000000E+00  0.00000000000E+00  0.15691784236E+03  0.15691784236E+03  0.00000000000E+00 0. -1.
         21   -1    0    0  502  503 -0.00000000000E+00 -0.00000000000E+00 -0.98147356143E+03  0.98147356143E+03  0.00000000000E+00 0.  1.
          6    1    1    2  501    0 -0.45382676375E+02  0.29583896924E+03 -0.68168226722E+03  0.76432976945E+03  0.17300000000E+03 0.  1.
         -6    1    1    2    0  503  0.45382676375E+02 -0.29583896924E+03 -0.14287345186E+03  0.37406163434E+03  0.17300000000E+03 0. -1.
<mgrwt>
<rscale>  2 0.34570115E+03</rscale>
<asrwt>0</asrwt>
<pdfrwt beam="1">  1       21 0.24141206E-01 0.34570115E+03</pdfrwt>
<pdfrwt beam="2">  1       21 0.15099593E+00 0.34570115E+03</pdfrwt>
<totfact> 0.43101085E+03</totfact>
</mgrwt>
</event>
<event>
 4    3  0.4022695E+000  0.4123620E+03  0.7546771E-02  0.1039581E+00
         21   -1    0    0  503  502  0.00000000000E+00  0.00000000000E+00  0.19696289701E+03  0.19696289701E+03  0.00000000000E+00 0. -1.
         21   -1    0    0  501  503 -0.00000000000E+00 -0.00000000000E+00 -0.12454023578E+04  0.12454023578E+04  0.00000000000E+00 0.  1.
          6    1    1    2  501    0  0.16245812067E+03  0.33722514193E+03 -0.92367455335E+03  0.10115419506E+04  0.17300000000E+03 0.  1.
         -6    1    1    2    0  502 -0.16245812067E+03 -0.33722514193E+03 -0.12476490744E+03  0.43082330421E+03  0.17300000000E+03 0. -1.
<mgrwt>
<rscale>  2 0.41236202E+03</rscale>
<asrwt>0</asrwt>
<pdfrwt beam="1">  1       21 0.30301986E-01 0.41236202E+03</pdfrwt>
<pdfrwt beam="2">  1       21 0.19160035E+00 0.41236202E+03</pdfrwt>
<totfact> 0.13613864E+03</totfact>
</mgrwt>
</event>
<event>
 4    3  0.4022695E+000  0.2568271E+03  0.7546771E-02  0.1109065E+00
         21   -1    0    0  501  502  0.00000000000E+00  0.00000000000E+00  0.43997284112E+03  0.43997284112E+03  0.00000000000E+00 0.  1.
         21   -1    0    0  502  503 -0.00000000000E+00 -0.00000000000E+00 -0.18179344623E+03  0.18179344623E+03  0.00000000000E+00 0. -1.
          6    1    1    2  501    0 -0.11727639138E+03 -0.14925619811E+03  0.25926581161E+03  0.36493687909E+03  0.17300000000E+03 0.  1.
         -6    1    1    2    0  503  0.11727639138E+03  0.14925619811E+03 -0.10864167222E+01  0.25682940827E+03  0.17300000000E+03 0.  1.
<mgrwt>
<rscale>  2 0.25682711E+03</rscale>
<asrwt>0</asrwt>
<pdfrwt beam="1">  1       21 0.67688129E-01 0.25682711E+03</pdfrwt>
<pdfrwt beam="2">  1       21 0.27968223E-01 0.25682711E+03</pdfrwt>
<totfact> 0.23554508E+04</totfact>
</mgrwt>
</event>
<event>
 4    3  0.4022695E+000  0.2302277E+03  0.7546771E-02  0.1126480E+00
         21   -1    0    0  503  502  0.00000000000E+00  0.00000000000E+00  0.49442149371E+03  0.49442149371E+03  0.00000000000E+00 0.  1.
         21   -1    0    0  501  503 -0.00000000000E+00 -0.00000000000E+00 -0.10786100605E+03  0.10786100605E+03  0.00000000000E+00 0.  1.
          6    1    1    2  501    0 -0.15120487783E+03 -0.14590271402E+02  0.21675319142E+03  0.31620679482E+03  0.17300000000E+03 0.  1.
         -6    1    1    2    0  502  0.15120487783E+03  0.14590271402E+02  0.16980729624E+03  0.28607570494E+03  0.17300000000E+03 0.  1.
<mgrwt>
<rscale>  2 0.23022769E+03</rscale>
<asrwt>0</asrwt>
<pdfrwt beam="1">  1       21 0.76064844E-01 0.23022769E+03</pdfrwt>
<pdfrwt beam="2">  1       21 0.16594001E-01 0.23022769E+03</pdfrwt>
<totfact> 0.49356806E+04</totfact>
</mgrwt>
</event>
<event>
 4    3  0.4022695E+000  0.1791103E+03  0.7546771E-02  0.1168667E+00
         21   -1    0    0  501  502  0.00000000000E+00  0.00000000000E+00  0.84371066236E+03  0.84371066236E+03  0.00000000000E+00 0. -1.
         21   -1    0    0  502  503 -0.00000000000E+00 -0.00000000000E+00 -0.38105857311E+02  0.38105857311E+02  0.00000000000E+00 0. -1.
          6    1    1    2  501    0 -0.21255898644E+02  0.41227302336E+02  0.38225635992E+03  0.42213792578E+03  0.17300000000E+03 0. -1.
         -6    1    1    2    0  503  0.21255898644E+02 -0.41227302336E+02  0.42334844514E+03  0.45967859389E+03  0.17300000000E+03 0. -1.
<mgrwt>
<rscale>  2 0.17911031E+03</rscale>
<asrwt>0</asrwt>
<pdfrwt beam="1">  1       21 0.12980163E+00 0.17911031E+03</pdfrwt>
<pdfrwt beam="2">  1       21 0.58624402E-02 0.17911031E+03</pdfrwt>
<totfact> 0.89579221E+04</totfact>
</mgrwt>
</event>
<event>
 4    3  0.4022695E+000  0.2090228E+03  0.7546771E-02  0.1142342E+00
         21   -1    0    0  503  502  0.00000000000E+00  0.00000000000E+00  0.21213842953E+03  0.21213842953E+03  0.00000000000E+00 0. -1.
         21   -1    0    0  501  503 -0.00000000000E+00 -0.00000000000E+00 -0.21023453715E+03  0.21023453715E+03  0.00000000000E+00 0. -1.
          6    1    1    2  501    0 -0.58619578438E+02  0.10161336790E+03  0.31090152641E+02  0.21132233461E+03  0.17300000000E+03 0. -1.
         -6    1    1    2    0  502  0.58619578438E+02 -0.10161336790E+03 -0.29186260256E+02  0.21105063208E+03  0.17300000000E+03 0. -1.
<mgrwt>
<rscale>  2 0.20902280E+03</rscale>
<asrwt>0</asrwt>
<pdfrwt beam="1">  1       21 0.32636682E-01 0.20902280E+03</pdfrwt>
<pdfrwt beam="2">  1       21 0.32343775E-01 0.20902280E+03</pdfrwt>
<totfact> 0.82527243E+04</totfact>
</mgrwt>
</event>
<event>
 4    3  0.4022695E+000  0.1812389E+03  0.7546771E-02  0.1166609E+00
         21   -1    0    0  501  502  0.00000000000E+00  0.00000000000E+00  0.35187550151E+03  0.35187550151E+03  0.00000000000E+00 0. -1.
         21   -1    0    0  502  503 -0.00000000000E+00 -0.00000000000E+00 -0.12858633893E+03  0.12858633893E+03  0.00000000000E+00 0. -1.
          6    1    1    2  501    0  0.53773041037E+02  0.51943469582E+01  0.23740033798E+03  0.29867447440E+03  0.17300000000E+03 0. -1.
         -6    1    1    2    0  503 -0.53773041037E+02 -0.51943469582E+01 -0.14111175405E+02  0.18178736605E+03  0.17300000000E+03 0. -1.
<mgrwt>
<rscale>  2 0.18123885E+03</rscale>
<asrwt>0</asrwt>
<pdfrwt beam="1">  1       21 0.54134692E-01 0.18123885E+03</pdfrwt>
<pdfrwt beam="2">  1       21 0.19782514E-01 0.18123885E+03</pdfrwt>
<totfact> 0.76350047E+04</totfact>
</mgrwt>
</event>
<event>
 4    3  0.4022695E+000  0.2655173E+03  0.7546771E-02  0.1103873E+00
         21   -1    0    0  503  502  0.00000000000E+00  0.00000000000E+00  0.26753942022E+03  0.26753942022E+03  0.00000000000E+00 0. -1.
         21   -1    0    0  501  503 -0.00000000000E+00 -0.00000000000E+00 -0.36991178759E+03  0.36991178759E+03  0.00000000000E+00 0.  1.
          6    1    1    2  501    0  0.19181182313E+03  0.61470646851E+02 -0.22212533426E+03  0.34617781563E+03  0.17300000000E+03 0.  1.
         -6    1    1    2    0  502 -0.19181182313E+03 -0.61470646851E+02  0.11975296689E+03  0.29127339218E+03  0.17300000000E+03 0. -1.
<mgrwt>
<rscale>  2 0.26551726E+03</rscale>
<asrwt>0</asrwt>
<pdfrwt beam="1">  1       21 0.41159911E-01 0.26551726E+03</pdfrwt>
<pdfrwt beam="2">  1       21 0.56909506E-01 0.26551726E+03</pdfrwt>
<totfact> 0.15842516E+04</totfact>
</mgrwt>
</event>
<event>
 4    3  0.4022695E+000  0.2011490E+03  0.7546771E-02  0.1148773E+00
         21   -1    0    0  501  502  0.00000000000E+00  0.00000000000E+00  0.27090520747E+03  0.27090520747E+03  0.00000000000E+00 0. -1.
         21   -1    0    0  502  503 -0.00000000000E+00 -0.00000000000E+00 -0.27337030454E+03  0.27337030454E+03  0.00000000000E+00 0.  1.
          6    1    1    2  501    0  0.65717175771E+00  0.10262297833E+03  0.18206289793E+03  0.27130758625E+03  0.17300000000E+03 0. -1.
         -6    1    1    2    0  503 -0.65717175771E+00 -0.10262297833E+03 -0.18452799499E+03  0.27296792576E+03  0.17300000000E+03 0.  1.
<mgrwt>
<rscale>  2 0.20114897E+03</rscale>
<asrwt>0</asrwt>
<pdfrwt beam="1">  1       21 0.41677724E-01 0.20114897E+03</pdfrwt>
<pdfrwt beam="2">  1       21 0.42056970E-01 0.20114897E+03</pdfrwt>
<totfact> 0.30016211E+04</totfact>
</mgrwt>
</event>
<event>
 4    3  0.4022695E+000  0.2414137E+03  0.7546771E-02  0.1118855E+00
         21   -1    0    0  503  502  0.00000000000E+00  0.00000000000E+00  0.22844371994E+03  0.22844371994E+03  0.00000000000E+00 0. -1.
         21   -1    0    0  501  503 -0.00000000000E+00 -0.00000000000E+00 -0.26960168714E+03  0.26960168714E+03  0.00000000000E+00 0. -1.
          6    1    1    2  501    0 -0.15093924448E+03 -0.74625118024E+02 -0.78293770238E+02  0.25379219496E+03  0.17300000000E+03 0. -1.
         -6    1    1    2    0  502  0.15093924448E+03  0.74625118024E+02  0.37135803040E+02  0.24425321212E+03  0.17300000000E+03 0. -1.
<mgrwt>
<rscale>  2 0.24141368E+03</rscale>
<asrwt>0</asrwt>
<pdfrwt beam="1">  1       21 0.35145188E-01 0.24141368E+03</pdfrwt>
<pdfrwt beam="2">  1       21 0.41477183E-01 0.24141368E+03</pdfrwt>
<totfact> 0.42694977E+04</totfact>
</mgrwt>
</event>
<event>
 4    3  0.4022695E+000  0.2036487E+03  0.7546771E-02  0.1146697E+00
         21   -1    0    0  501  502  0.00000000000E+00  0.00000000000E+00  0.13764525976E+03  0.13764525976E+03  0.00000000000E+00 0. -1.
         21   -1    0    0  502  503 -0.00000000000E+00 -0.00000000000E+00 -0.43655501065E+03  0.43655501065E+03  0.00000000000E+00 0.  1.
          6    1    1    2  501    0 -0.65130712120E+02  0.85450469295E+02  0.10349025025E+02  0.20391148737E+03  0.17300000000E+03 0.  1.
         -6    1    1    2    0  503  0.65130712120E+02 -0.85450469295E+02 -0.30925877592E+03  0.37028878304E+03  0.17300000000E+03 0.  1.
<mgrwt>
<rscale>  2 0.20364870E+03</rscale>
<asrwt>0</asrwt>
<pdfrwt beam="1">  1       21 0.21176194E-01 0.20364870E+03</pdfrwt>
<pdfrwt beam="2">  1       21 0.67162308E-01 0.20364870E+03</pdfrwt>
<totfact> 0.41849361E+04</totfact>
</mgrwt>
</event>
<event>
 4    3  0.4022695E+000  0.1756664E+03  0.7546771E-02  0.1172064E+00
         21   -1    0    0  503  502  0.00000000000E+00  0.00000000000E+00  0.18689950367E+03  0.18689950367E+03  0.00000000000E+00 0.  1.
         21   -1    0    0  501  503 -0.00000000000E+00 -0.00000000000E+00 -0.24280142511E+03  0.24280142511E+03  0.00000000000E+00 0.  1.
          6    1    1    2  501    0  0.30462753804E+02 -0.13113421088E+01 -0.14948596573E+03  0.23066155496E+03  0.17300000000E+03 0. -1.
         -6    1    1    2    0  502 -0.30462753804E+02  0.13113421088E+01  0.93584044290E+02  0.19903937383E+03  0.17300000000E+03 0. -1.
<mgrwt>
<rscale>  2 0.17566644E+03</rscale>
<asrwt>0</asrwt>
<pdfrwt beam="1">  1       21 0.28753770E-01 0.17566644E+03</pdfrwt>
<pdfrwt beam="2">  1       21 0.37354065E-01 0.17566644E+03</pdfrwt>
<totfact> 0.80545773E+04</totfact>
</mgrwt>
</event>
<event>
 4    3  0.4022695E+000  0.1779176E+03  0.7546771E-02  0.1169834E+00
         21   -1    0    0  501  502  0.00000000000E+00  0.00000000000E+00  0.31219425260E+03  0.31219425260E+03  0.00000000000E+00 0.  1.
         21   -1    0    0  502  503 -0.00000000000E+00 -0.00000000000E+00 -0.22676457804E+03  0.22676457804E+03  0.00000000000E+00 0.  1.
          6    1    1    2  501    0  0.15453279430E+02 -0.38559924008E+02  0.24308614782E+03  0.30124001535E+03  0.17300000000E+03 0.  1.
         -6    1    1    2    0  503 -0.15453279430E+02  0.38559924008E+02 -0.15765647325E+03  0.23771881529E+03  0.17300000000E+03 0.  1.
<mgrwt>
<rscale>  2 0.17791760E+03</rscale>
<asrwt>0</asrwt>
<pdfrwt beam="1">  1       21 0.48029885E-01 0.17791760E+03</pdfrwt>
<pdfrwt beam="2">  1       21 0.34886858E-01 0.17791760E+03</pdfrwt>
<totfact> 0.33066430E+04</totfact>
</mgrwt>
</event>
<event>
 4    3  0.4022695E+000  0.1900275E+03  0.7546771E-02  0.1158437E+00
         21   -1    0    0  501  502  0.00000000000E+00  0.00000000000E+00  0.48583376432E+03  0.48583376432E+03  0.00000000000E+00 0.  1.
         21   -1    0    0  502  503 -0.00000000000E+00 -0.00000000000E+00 -0.78956951256E+02  0.78956951256E+02  0.00000000000E+00 0. -1.
          6    1    1    2  501    0 -0.55342154705E+02 -0.55845326218E+02  0.13505332713E+03  0.23313055509E+03  0.17300000000E+03 0. -1.
         -6    1    1    2    0  503  0.55342154705E+02  0.55845326218E+02  0.27182348593E+03  0.33166016048E+03  0.17300000000E+03 0.  1.
<mgrwt>
<rscale>  2 0.19002751E+03</rscale>
<asrwt>0</asrwt>
<pdfrwt beam="1">  1       21 0.74743654E-01 0.19002751E+03</pdfrwt>
<pdfrwt beam="2">  1       21 0.12147224E-01 0.19002751E+03</pdfrwt>
<totfact> 0.92084759E+04</totfact>
</mgrwt>
</event>
<event>
 4    3  0.4022695E+000  0.2293495E+03  0.7546771E-02  0.1127098E+00
         21   -1    0    0  501  502  0.00000000000E+00  0.00000000000E+00  0.98257682745E+02  0.98257682745E+02  0.00000000000E+00 0. -1.
         21   -1    0    0  502  503 -0.00000000000E+00 -0.00000000000E+00 -0.74063278615E+03  0.74063278615E+03  0.00000000000E+00 0. -1.
          6    1    1    2  501    0  0.15019048909E+03 -0.10723610500E+02 -0.10035575761E+03  0.25034467624E+03  0.17300000000E+03 0. -1.
         -6    1    1    2    0  503 -0.15019048909E+03  0.10723610500E+02 -0.54201934579E+03  0.58854579266E+03  0.17300000000E+03 0. -1.
<mgrwt>
<rscale>  2 0.22934947E+03</rscale>
<asrwt>0</asrwt>
<pdfrwt beam="1">  1       21 0.15116566E-01 0.22934947E+03</pdfrwt>
<pdfrwt beam="2">  1       21 0.11394351E+00 0.22934947E+03</pdfrwt>
<totfact> 0.22696765E+04</totfact>
</mgrwt>
</event>
<event>
 4    3  0.4022695E+000  0.1882389E+03  0.7546771E-02  0.1160059E+00
         21   -1    0    0  501  502  0.00000000000E+00  0.00000000000E+00  0.11996271460E+03  0.11996271460E+03  0.00000000000E+00 0.  1.
         21   -1    0    0  502  503 -0.00000000000E+00 -0.00000000000E+00 -0.30263264774E+03  0.30263264774E+03  0.00000000000E+00 0.  1.
          6    1    1    2  501    0 -0.61633105764E+02 -0.41306575317E+02 -0.12405872663E+03  0.22544276556E+03  0.17300000000E+03 0.  1.
         -6    1    1    2    0  503  0.61633105764E+02  0.41306575317E+02 -0.58611206512E+02  0.19715259679E+03  0.17300000000E+03 0.  1.
<mgrwt>
<rscale>  2 0.18823887E+03</rscale>
<asrwt>0</asrwt>
<pdfrwt beam="1">  1       21 0.18455802E-01 0.18823887E+03</pdfrwt>
<pdfrwt beam="2">  1       21 0.46558869E-01 0.18823887E+03</pdfrwt>
<totfact> 0.11860999E+05</totfact>
</mgrwt>
</event>
<event>
 4    3  0.4022695E+000  0.1839460E+03  0.7546771E-02  0.1164038E+00
         21   -1    0    0  503  502  0.00000000000E+00  0.00000000000E+00  0.86456316979E+02  0.86456316979E+02  0.00000000000E+00 0. -1.
         21   -1    0    0  501  503 -0.00000000000E+00 -0.00000000000E+00 -0.39177031253E+03  0.39177031253E+03  0.00000000000E+00 0. -1.
          6    1    1    2  501    0 -0.36370553405E+02 -0.50836226688E+02 -0.14498385922E+03  0.23421455662E+03  0.17300000000E+03 0. -1.
         -6    1    1    2    0  502  0.36370553405E+02  0.50836226688E+02 -0.16033013633E+03  0.24401207289E+03  0.17300000000E+03 0. -1.
<mgrwt>
<rscale>  2 0.18394602E+03</rscale>
<asrwt>0</asrwt>
<pdfrwt beam="1">  1       21 0.13300972E-01 0.18394602E+03</pdfrwt>
<pdfrwt beam="2">  1       21 0.60272357E-01 0.18394602E+03</pdfrwt>
<totfact> 0.12555111E+05</totfact>
</mgrwt>
</event>
<event>
 4    3  0.4022695E+000  0.2576641E+03  0.7546771E-02  0.1108555E+00
         21   -1    0    0  501  502  0.00000000000E+00  0.00000000000E+00  0.61664917543E+03  0.61664917543E+03  0.00000000000E+00 0. -1.
         21   -1    0    0  502  503 -0.00000000000E+00 -0.00000000000E+00 -0.20089698988E+03  0.20089698988E+03  0.00000000000E+00 0. -1.
          6    1    1    2  501    0 -0.14160211519E+03  0.12810393690E+03  0.48634769065E+03  0.55038609528E+03  0.17300000000E+03 0. -1.
         -6    1    1    2    0  503  0.14160211519E+03 -0.12810393690E+03 -0.70595505099E+02  0.26716007003E+03  0.17300000000E+03 0. -1.
<mgrwt>
<rscale>  2 0.25766408E+03</rscale>
<asrwt>0</asrwt>
<pdfrwt beam="1">  1       21 0.94869103E-01 0.25766408E+03</pdfrwt>
<pdfrwt beam="2">  1       21 0.30907229E-01 0.25766408E+03</pdfrwt>
<totfact> 0.89652275E+03</totfact>
</mgrwt>
</event>
<event>
 4    3  0.4022695E+000  0.2007342E+03  0.7546771E-02  0.1149121E+00
         21   -1    0    0  503  502  0.00000000000E+00  0.00000000000E+00  0.30148505815E+03  0.30148505815E+03  0.00000000000E+00 0. -1.
         21   -1    0    0  501  503 -0.00000000000E+00 -0.00000000000E+00 -0.16401956928E+03  0.16401956928E+03  0.00000000000E+00 0. -1.
          6    1    1    2  501    0 -0.73803900788E+02 -0.70130019787E+02  0.16888195388E+03  0.26232679961E+03  0.17300000000E+03 0. -1.
         -6    1    1    2    0  502  0.73803900788E+02  0.70130019787E+02 -0.31416465011E+02  0.20317782783E+03  0.17300000000E+03 0. -1.
<mgrwt>
<rscale>  2 0.20073424E+03</rscale>
<asrwt>0</asrwt>
<pdfrwt beam="1">  1       21 0.46382317E-01 0.20073424E+03</pdfrwt>
<pdfrwt beam="2">  1       21 0.25233780E-01 0.20073424E+03</pdfrwt>
<totfact> 0.66010820E+04</totfact>
</mgrwt>
</event>
<event>
 4    3  0.4022695E+000  0.2414801E+03  0.7546771E-02  0.1118811E+00
         21   -1    0    0  503  502  0.00000000000E+00  0.00000000000E+00  0.48297088435E+03  0.48297088435E+03  0.00000000000E+00 0.  1.
         21   -1    0    0  501  503 -0.00000000000E+00 -0.00000000000E+00 -0.12628078467E+03  0.12628078467E+03  0.00000000000E+00 0. -1.
          6    1    1    2  501    0  0.15239103212E+03  0.71837482291E+02  0.24216926276E+03  0.34199210862E+03  0.17300000000E+03 0.  1.
         -6    1    1    2    0  502 -0.15239103212E+03 -0.71837482291E+02  0.11452083692E+03  0.26725956039E+03  0.17300000000E+03 0. -1.
<mgrwt>
<rscale>  2 0.24148012E+03</rscale>
<asrwt>0</asrwt>
<pdfrwt beam="1">  1       21 0.74303212E-01 0.24148012E+03</pdfrwt>
<pdfrwt beam="2">  1       21 0.19427813E-01 0.24148012E+03</pdfrwt>
<totfact> 0.38624329E+04</totfact>
</mgrwt>
</event>
<event>
 4    3  0.4022695E+000  0.1902331E+03  0.7546771E-02  0.1158251E+00
         21   -1    0    0  503  502  0.00000000000E+00  0.00000000000E+00  0.11087725494E+03  0.11087725494E+03  0.00000000000E+00 0. -1.
         21   -1    0    0  501  503 -0.00000000000E+00 -0.00000000000E+00 -0.32733853760E+03  0.32733853760E+03  0.00000000000E+00 0. -1.
          6    1    1    2  501    0  0.57632335897E+02  0.54204597354E+02 -0.12005908564E+03  0.22495068028E+03  0.17300000000E+03 0. -1.
         -6    1    1    2    0  502 -0.57632335897E+02 -0.54204597354E+02 -0.96402197014E+02  0.21326511225E+03  0.17300000000E+03 0. -1.
<mgrwt>
<rscale>  2 0.19023308E+03</rscale>
<asrwt>0</asrwt>
<pdfrwt beam="1">  1       21 0.17058039E-01 0.19023308E+03</pdfrwt>
<pdfrwt beam="2">  1       21 0.50359774E-01 0.19023308E+03</pdfrwt>
<totfact> 0.11648114E+05</totfact>
</mgrwt>
</event>
<event>
 4    3  0.4022695E+000  0.1971970E+03  0.7546771E-02  0.1152126E+00
         21   -1    0    0  503  502  0.00000000000E+00  0.00000000000E+00  0.12557703796E+04  0.12557703796E+04  0.00000000000E+00 0. -1.
         21   -1    0    0  501  503 -0.00000000000E+00 -0.00000000000E+00 -0.30977068251E+02  0.30977068251E+02  0.00000000000E+00 0. -1.
          6    1    1    2  501    0  0.30816067514E+02  0.89487552696E+02  0.62435218746E+03  0.65475362243E+03  0.17300000000E+03 0.  1.
         -6    1    1    2    0  502 -0.30816067514E+02 -0.89487552696E+02  0.60044112385E+03  0.63199382538E+03  0.17300000000E+03 0.  1.
<mgrwt>
<rscale>  2 0.19719699E+03</rscale>
<asrwt>0</asrwt>
<pdfrwt beam="1">  1       21 0.19319540E+00 0.19719699E+03</pdfrwt>
<pdfrwt beam="2">  1       21 0.47657038E-02 0.19719699E+03</pdfrwt>
<totfact> 0.43231238E+04</totfact>
</mgrwt>
</event>
<event>
 4    3  0.4022695E+000  0.1770651E+03  0.7546771E-02  0.1170674E+00
         21   -1    0    0  503  502  0.00000000000E+00  0.00000000000E+00  0.56437001416E+02  0.56437001416E+02  0.00000000000E+00 0.  1.
         21   -1    0    0  501  503 -0.00000000000E+00 -0.00000000000E+00 -0.76259801333E+03  0.76259801333E+03  0.00000000000E+00 0.  1.
          6    1    1    2  501    0  0.33881208864E+02  0.16586488856E+02 -0.56647763352E+03  0.59350565053E+03  0.17300000000E+03 0.  1.
         -6    1    1    2    0  502 -0.33881208864E+02 -0.16586488856E+02 -0.13968337839E+03  0.22552936422E+03  0.17300000000E+03 0.  1.
<mgrwt>
<rscale>  2 0.17706510E+03</rscale>
<asrwt>0</asrwt>
<pdfrwt beam="1">  1       21 0.86826160E-02 0.17706510E+03</pdfrwt>
<pdfrwt beam="2">  1       21 0.11732277E+00 0.17706510E+03</pdfrwt>
<totfact> 0.58531866E+04</totfact>
</mgrwt>
</event>
<event>
 4    3  0.4022695E+000  0.3151576E+03  0.7546771E-02  0.1077900E+00
         21   -1    0    0  503  502  0.00000000000E+00  0.00000000000E+00  0.25739917379E+03  0.25739917379E+03  0.00000000000E+00 0. -1.
         21   -1    0    0  501  503 -0.00000000000E+00 -0.00000000000E+00 -0.52454059703E+03  0.52454059703E+03  0.00000000000E+00 0.  1.
          6    1    1    2  501    0  0.17057740918E+02  0.26287703838E+03 -0.33458905870E+03  0.45964567009E+03  0.17300000000E+03 0. -1.
         -6    1    1    2    0  502 -0.17057740918E+02 -0.26287703838E+03  0.67447635463E+02  0.32229410072E+03  0.17300000000E+03 0.  1.
<mgrwt>
<rscale>  2 0.31515759E+03</rscale>
<asrwt>0</asrwt>
<pdfrwt beam="1">  1       21 0.39599873E-01 0.31515759E+03</pdfrwt>
<pdfrwt beam="2">  1       21 0.80698553E-01 0.31515759E+03</pdfrwt>
<totfact> 0.77255359E+03</totfact>
</mgrwt>
</event>
<event>
 4    3  0.4022695E+000  0.2988664E+03  0.7546771E-02  0.1085809E+00
         21   -1    0    0  501  502  0.00000000000E+00  0.00000000000E+00  0.14633756395E+03  0.14633756395E+03  0.00000000000E+00 0. -1.
         21   -1    0    0  502  503 -0.00000000000E+00 -0.00000000000E+00 -0.14858336197E+04  0.14858336197E+04  0.00000000000E+00 0.  1.
          6    1    1    2  501    0 -0.23168176111E+03  0.75602039398E+02 -0.43324738721E+02  0.30199029749E+03  0.17300000000E+03 0. -1.
         -6    1    1    2    0  503  0.23168176111E+03 -0.75602039398E+02 -0.12961713170E+04  0.13301808862E+04  0.17300000000E+03 0.  1.
<mgrwt>
<rscale>  2 0.29886637E+03</rscale>
<asrwt>0</asrwt>
<pdfrwt beam="1">  1       21 0.22513472E-01 0.29886637E+03</pdfrwt>
<pdfrwt beam="2">  1       21 0.22858978E+00 0.29886637E+03</pdfrwt>
<totfact> 0.14967139E+03</totfact>
</mgrwt>
</event>
<event>
 4    3  0.4022695E+000  0.2814180E+03  0.7546771E-02  0.1094917E+00
         21   -1    0    0  501  502  0.00000000000E+00  0.00000000000E+00  0.74400132663E+02  0.74400132663E+02  0.00000000000E+00 0. -1.
         21   -1    0    0  502  503 -0.00000000000E+00 -0.00000000000E+00 -0.13060594762E+04  0.13060594762E+04  0.00000000000E+00 0.  1.
          6    1    1    2  501    0 -0.15762159526E+03  0.15627714706E+03 -0.31896506126E+03  0.42536434300E+03  0.17300000000E+03 0. -1.
         -6    1    1    2    0  503  0.15762159526E+03 -0.15627714706E+03 -0.91269428226E+03  0.95509526585E+03  0.17300000000E+03 0.  1.
<mgrwt>
<rscale>  2 0.28141804E+03</rscale>
<asrwt>0</asrwt>
<pdfrwt beam="1">  1       21 0.11446174E-01 0.28141804E+03</pdfrwt>
<pdfrwt beam="2">  1       21 0.20093222E+00 0.28141804E+03</pdfrwt>
<totfact> 0.79226801E+03</totfact>
</mgrwt>
</event>
<event>
 4    3  0.4022695E+000  0.1882406E+03  0.7546771E-02  0.1160058E+00
         21   -1    0    0  503  502  0.00000000000E+00  0.00000000000E+00  0.39939899693E+03  0.39939899693E+03  0.00000000000E+00 0. -1.
         21   -1    0    0  501  503 -0.00000000000E+00 -0.00000000000E+00 -0.89149771789E+02  0.89149771789E+02  0.00000000000E+00 0. -1.
          6    1    1    2  501    0 -0.19427934498E+02  0.71610531633E+02  0.13815598097E+03  0.23349858234E+03  0.17300000000E+03 0.  1.
         -6    1    1    2    0  502  0.19427934498E+02 -0.71610531633E+02  0.17209324418E+03  0.25505018638E+03  0.17300000000E+03 0.  1.
<mgrwt>
<rscale>  2 0.18824057E+03</rscale>
<asrwt>0</asrwt>
<pdfrwt beam="1">  1       21 0.61445998E-01 0.18824057E+03</pdfrwt>
<pdfrwt beam="2">  1       21 0.13715350E-01 0.18824057E+03</pdfrwt>
<totfact> 0.11379084E+05</totfact>
</mgrwt>
</event>
<event>
 4    3  0.4022695E+000  0.1909077E+03  0.7546771E-02  0.1157645E+00
         21   -1    0    0  501  502  0.00000000000E+00  0.00000000000E+00  0.75889614787E+03  0.75889614787E+03  0.00000000000E+00 0. -1.
         21   -1    0    0  502  503 -0.00000000000E+00 -0.00000000000E+00 -0.20900019045E+03  0.20900019045E+03  0.00000000000E+00 0. -1.
          6    1    1    2  501    0  0.70612092507E+02  0.39123896836E+02  0.69967061859E+03  0.72524804131E+03  0.17300000000E+03 0. -1.
         -6    1    1    2    0  503 -0.70612092507E+02 -0.39123896836E+02 -0.14977466117E+03  0.24264829701E+03  0.17300000000E+03 0. -1.
<mgrwt>
<rscale>  2 0.19090769E+03</rscale>
<asrwt>0</asrwt>
<pdfrwt beam="1">  1       21 0.11675325E+00 0.19090769E+03</pdfrwt>
<pdfrwt beam="2">  1       21 0.32153876E-01 0.19090769E+03</pdfrwt>
<totfact> 0.52643820E+03</totfact>
</mgrwt>
</event>
<event>
 4    3  0.4022695E+000  0.1902756E+03  0.7546771E-02  0.1158213E+00
         21   -1    0    0  501  502  0.00000000000E+00  0.00000000000E+00  0.24853484645E+03  0.24853484645E+03  0.00000000000E+00 0.  1.
         21   -1    0    0  502  503 -0.00000000000E+00 -0.00000000000E+00 -0.14611502582E+03  0.14611502582E+03  0.00000000000E+00 0.  1.
          6    1    1    2  501    0  0.57570035330E+02  0.54419644786E+02  0.62063616916E+02  0.20014169793E+03  0.17300000000E+03 0.  1.
         -6    1    1    2    0  503 -0.57570035330E+02 -0.54419644786E+02  0.40356203716E+02  0.19450817434E+03  0.17300000000E+03 0.  1.
<mgrwt>
<rscale>  2 0.19027561E+03</rscale>
<asrwt>0</asrwt>
<pdfrwt beam="1">  1       21 0.38236130E-01 0.19027561E+03</pdfrwt>
<pdfrwt beam="2">  1       21 0.22479235E-01 0.19027561E+03</pdfrwt>
<totfact> 0.12235724E+05</totfact>
</mgrwt>
</event>
<event>
 4    3  0.4022695E+000  0.1823554E+03  0.7546771E-02  0.1165543E+00
         21   -1    0    0  503  502  0.00000000000E+00  0.00000000000E+00  0.10557209182E+04  0.10557209182E+04  0.00000000000E+00 0.  1.
         21   -1    0    0  501  503 -0.00000000000E+00 -0.00000000000E+00 -0.46327853612E+02  0.46327853612E+02  0.00000000000E+00 0.  1.
          6    1    1    2  501    0  0.35340097582E+02 -0.45558457512E+02  0.19294209740E+03  0.26548097577E+03  0.17300000000E+03 0.  1.
         -6    1    1    2    0  502 -0.35340097582E+02  0.45558457512E+02  0.81645096716E+03  0.83656779601E+03  0.17300000000E+03 0.  1.
<mgrwt>
<rscale>  2 0.18235541E+03</rscale>
<asrwt>0</asrwt>
<pdfrwt beam="1">  1       21 0.16241858E+00 0.18235541E+03</pdfrwt>
<pdfrwt beam="2">  1       21 0.71273629E-02 0.18235541E+03</pdfrwt>
<totfact> 0.35665794E+04</totfact>
</mgrwt>
</event>
<event>
 4    3  0.4022695E+000  0.2073809E+03  0.7546771E-02  0.1143657E+00
         21   -1    0    0  503  502  0.00000000000E+00  0.00000000000E+00  0.15203484098E+03  0.15203484098E+03  0.00000000000E+00 0.  1.
         21   -1    0    0  501  503 -0.00000000000E+00 -0.00000000000E+00 -0.86580128539E+03  0.86580128539E+03  0.00000000000E+00 0.  1.
          6    1    1    2  501    0 -0.11422978422E+03 -0.54221719493E+01 -0.77446890648E+03  0.80175365958E+03  0.17300000000E+03 0.  1.
         -6    1    1    2    0  502  0.11422978422E+03  0.54221719493E+01  0.60702462072E+02  0.21608246679E+03  0.17300000000E+03 0.  1.
<mgrwt>
<rscale>  2 0.20738091E+03</rscale>
<asrwt>0</asrwt>
<pdfrwt beam="1">  1       21 0.23389975E-01 0.20738091E+03</pdfrwt>
<pdfrwt beam="2">  1       21 0.13320020E+00 0.20738091E+03</pdfrwt>
<totfact> 0.69087740E+03</totfact>
</mgrwt>
</event>
<event>
 4    3  0.4022695E+000  0.2399510E+03  0.7546771E-02  0.1119825E+00
         21   -1    0    0  501  502  0.00000000000E+00  0.00000000000E+00  0.55160672808E+03  0.55160672808E+03  0.00000000000E+00 0.  1.
         21   -1    0    0  502  503 -0.00000000000E+00 -0.00000000000E+00 -0.13017067468E+03  0.13017067468E+03  0.00000000000E+00 0. -1.
          6    1    1    2  501    0  0.24651712898E+02 -0.16443775498E+03  0.36245480605E+03  0.43468375705E+03  0.17300000000E+03 0.  1.
         -6    1    1    2    0  503 -0.24651712898E+02  0.16443775498E+03  0.58981247339E+02  0.24709364571E+03  0.17300000000E+03 0. -1.
<mgrwt>
<rscale>  2 0.23995100E+03</rscale>
<asrwt>0</asrwt>
<pdfrwt beam="1">  1       21 0.84862573E-01 0.23995100E+03</pdfrwt>
<pdfrwt beam="2">  1       21 0.20026258E-01 0.23995100E+03</pdfrwt>
<totfact> 0.27002502E+04</totfact>
</mgrwt>
</event>
<event>
 4    3  0.4022695E+000  0.2339972E+03  0.7546771E-02  0.1123858E+00
         21   -1    0    0  501  502  0.00000000000E+00  0.00000000000E+00  0.82562493645E+02  0.82562493645E+02  0.00000000000E+00 0. -1.
         21   -1    0    0  502  503 -0.00000000000E+00 -0.00000000000E+00 -0.78652189515E+03  0.78652189515E+03  0.00000000000E+00 0. -1.
          6    1    1    2  501    0 -0.13115762500E+03  0.87311931701E+02 -0.17990674072E+03  0.29516288956E+03  0.17300000000E+03 0. -1.
         -6    1    1    2    0  503  0.13115762500E+03 -0.87311931701E+02 -0.52405266079E+03  0.57392149924E+03  0.17300000000E+03 0. -1.
<mgrwt>
<rscale>  2 0.23399721E+03</rscale>
<asrwt>0</asrwt>
<pdfrwt beam="1">  1       21 0.12701922E-01 0.23399721E+03</pdfrwt>
<pdfrwt beam="2">  1       21 0.12100337E+00 0.23399721E+03</pdfrwt>
<totfact> 0.26775906E+04</totfact>
</mgrwt>
</event>
<event>
 4    3  0.4022695E+000  0.2482281E+03  0.7546771E-02  0.1114430E+00
         21   -1    0    0  501  502  0.00000000000E+00  0.00000000000E+00  0.11356903164E+03  0.11356903164E+03  0.00000000000E+00 0.  1.
         21   -1    0    0  502  503 -0.00000000000E+00 -0.00000000000E+00 -0.62753356181E+03  0.62753356181E+03  0.00000000000E+00 0.  1.
          6    1    1    2  501    0  0.17028082992E+03  0.51890423435E+02 -0.12062113347E+03  0.27598303376E+03  0.17300000000E+03 0.  1.
         -6    1    1    2    0  503 -0.17028082992E+03 -0.51890423435E+02 -0.39334339670E+03  0.46511955969E+03  0.17300000000E+03 0.  1.
<mgrwt>
<rscale>  2 0.24822807E+03</rscale>
<asrwt>0</asrwt>
<pdfrwt beam="1">  1       21 0.17472159E-01 0.24822807E+03</pdfrwt>
<pdfrwt beam="2">  1       21 0.96543626E-01 0.24822807E+03</pdfrwt>
<totfact> 0.25679793E+04</totfact>
</mgrwt>
</event>
<event>
 4    3  0.4022695E+000  0.2175571E+03  0.7546771E-02  0.1135717E+00
         21   -1    0    0  501  502  0.00000000000E+00  0.00000000000E+00  0.42176204977E+03  0.42176204977E+03  0.00000000000E+00 0. -1.
         21   -1    0    0  502  503 -0.00000000000E+00 -0.00000000000E+00 -0.39228070436E+03  0.39228070436E+03  0.00000000000E+00 0. -1.
          6    1    1    2  501    0 -0.12119634463E+03  0.52091827214E+02  0.35864927704E+03  0.41947635968E+03  0.17300000000E+03 0. -1.
         -6    1    1    2    0  503  0.12119634463E+03 -0.52091827214E+02 -0.32916793163E+03  0.39456639444E+03  0.17300000000E+03 0. -1.
<mgrwt>
<rscale>  2 0.21755715E+03</rscale>
<asrwt>0</asrwt>
<pdfrwt beam="1">  1       21 0.64886470E-01 0.21755715E+03</pdfrwt>
<pdfrwt beam="2">  1       21 0.60350877E-01 0.21755715E+03</pdfrwt>
<totfact> 0.54956953E+03</totfact>
</mgrwt>
</event>
<event>
 4    3  0.4022695E+000  0.1978386E+03  0.7546771E-02  0.1151576E+00
         21   -1    0    0  501  502  0.00000000000E+00  0.00000000000E+00  0.11884079272E+03  0.11884079272E+03  0.00000000000E+00 0.  1.
         21   -1    0    0  502  503 -0.00000000000E+00 -0.00000000000E+00 -0.34585572060E+03  0.34585572060E+03  0.00000000000E+00 0. -1.
          6    1    1    2  501    0 -0.95816185281E+02 -0.55094775419E+01 -0.16426755542E+03  0.25714572808E+03  0.17300000000E+03 0. -1.
         -6    1    1    2    0  503  0.95816185281E+02  0.55094775419E+01 -0.62747372462E+02  0.20755078524E+03  0.17300000000E+03 0.  1.
<mgrwt>
<rscale>  2 0.19783856E+03</rscale>
<asrwt>0</asrwt>
<pdfrwt beam="1">  1       21 0.18283199E-01 0.19783856E+03</pdfrwt>
<pdfrwt beam="2">  1       21 0.53208571E-01 0.19783856E+03</pdfrwt>
<totfact> 0.91041737E+04</totfact>
</mgrwt>
</event>
<event>
 4    3  0.4022695E+000  0.2006953E+03  0.7546771E-02  0.1149154E+00
         21   -1    0    0  501  502  0.00000000000E+00  0.00000000000E+00  0.24239016851E+03  0.24239016851E+03  0.00000000000E+00 0.  1.
         21   -1    0    0  502  503 -0.00000000000E+00 -0.00000000000E+00 -0.16678841149E+03  0.16678841149E+03  0.00000000000E+00 0.  1.
          6    1    1    2  501    0 -0.35435678675E+02  0.95361987452E+02  0.25369013644E+02  0.20229232024E+03  0.17300000000E+03 0.  1.
         -6    1    1    2    0  503  0.35435678675E+02 -0.95361987452E+02  0.50232743372E+02  0.20688625977E+03  0.17300000000E+03 0.  1.
<mgrwt>
<rscale>  2 0.20069528E+03</rscale>
<asrwt>0</asrwt>
<pdfrwt beam="1">  1       21 0.37290795E-01 0.20069528E+03</pdfrwt>
<pdfrwt beam="2">  1       21 0.25659756E-01 0.20069528E+03</pdfrwt>
<totfact> 0.99623027E+04</totfact>
</mgrwt>
</event>
<event>
 4    3  0.4022695E+000  0.2321573E+03  0.7546771E-02  0.1125131E+00
         21   -1    0    0  503  502  0.00000000000E+00  0.00000000000E+00  0.22552100623E+03  0.22552100623E+03  0.00000000000E+00 0.  1.
         21   -1    0    0  501  503 -0.00000000000E+00 -0.00000000000E+00 -0.24372953885E+03  0.24372953885E+03  0.00000000000E+00 0. -1.
          6    1    1    2  501    0  0.65263931168E+02 -0.14038743149E+03  0.23617766389E+02  0.23335554530E+03  0.17300000000E+03 0.  1.
         -6    1    1    2    0  502 -0.65263931168E+02  0.14038743149E+03 -0.41826298999E+02  0.23589499978E+03  0.17300000000E+03 0. -1.
<mgrwt>
<rscale>  2 0.23215730E+03</rscale>
<asrwt>0</asrwt>
<pdfrwt beam="1">  1       21 0.34695539E-01 0.23215730E+03</pdfrwt>
<pdfrwt beam="2">  1       21 0.37496852E-01 0.23215730E+03</pdfrwt>
<totfact> 0.53950232E+04</totfact>
</mgrwt>
</event>
<event>
 4    3  0.4022695E+000  0.2189704E+03  0.7546771E-02  0.1134653E+00
         21   -1    0    0  503  502  0.00000000000E+00  0.00000000000E+00  0.80880314150E+03  0.80880314150E+03  0.00000000000E+00 0.  1.
         21   -1    0    0  501  503 -0.00000000000E+00 -0.00000000000E+00 -0.26393786317E+03  0.26393786317E+03  0.00000000000E+00 0.  1.
          6    1    1    2  501    0  0.86383468418E+02 -0.10274690596E+03 -0.19987546266E+03  0.29647635804E+03  0.17300000000E+03 0.  1.
         -6    1    1    2    0  502 -0.86383468418E+02  0.10274690596E+03  0.74474074100E+03  0.77626464663E+03  0.17300000000E+03 0.  1.
<mgrwt>
<rscale>  2 0.21897039E+03</rscale>
<asrwt>0</asrwt>
<pdfrwt beam="1">  1       21 0.12443125E+00 0.21897039E+03</pdfrwt>
<pdfrwt beam="2">  1       21 0.40605825E-01 0.21897039E+03</pdfrwt>
<totfact> 0.27566051E+03</totfact>
</mgrwt>
</event>
<event>
 4    3  0.4022695E+000  0.2487624E+03  0.7546771E-02  0.1114089E+00
         21   -1    0    0  503  502  0.00000000000E+00  0.00000000000E+00  0.51300415765E+02  0.51300415765E+02  0.00000000000E+00 0.  1.
         21   -1    0    0  501  503 -0.00000000000E+00 -0.00000000000E+00 -0.12484696862E+04  0.12484696862E+04  0.00000000000E+00 0. -1.
          6    1    1    2  501    0 -0.33109516226E+02  0.17566305695E+03 -0.47911920406E+03  0.53984994336E+03  0.17300000000E+03 0.  1.
         -6    1    1    2    0  502  0.33109516226E+02 -0.17566305695E+03 -0.71805006636E+03  0.75992015860E+03  0.17300000000E+03 0. -1.
<mgrwt>
<rscale>  2 0.24876244E+03</rscale>
<asrwt>0</asrwt>
<pdfrwt beam="1">  1       21 0.78923719E-02 0.24876244E+03</pdfrwt>
<pdfrwt beam="2">  1       21 0.19207225E+00 0.24876244E+03</pdfrwt>
<totfact> 0.17870658E+04</totfact>
</mgrwt>
</event>
<event>
 4    3  0.4022695E+000  0.1782901E+03  0.7546771E-02  0.1169468E+00
         21   -1    0    0  503  502  0.00000000000E+00  0.00000000000E+00  0.14722108149E+04  0.14722108149E+04  0.00000000000E+00 0.  1.
         21   -1    0    0  501  503 -0.00000000000E+00 -0.00000000000E+00 -0.66351909533E+02  0.66351909533E+02  0.00000000000E+00 0.  1.
          6    1    1    2  501    0 -0.94219200800E+01 -0.42066272407E+02  0.71092268980E+02  0.19194127894E+03  0.17300000000E+03 0.  1.
         -6    1    1    2    0  502  0.94219200800E+01  0.42066272407E+02  0.13347666364E+04  0.13466214455E+04  0.17300000000E+03 0.  1.
<mgrwt>
<rscale>  2 0.17829006E+03</rscale>
<asrwt>0</asrwt>
<pdfrwt beam="1">  1       21 0.22649395E+00 0.17829006E+03</pdfrwt>
<pdfrwt beam="2">  1       21 0.10207987E-01 0.17829006E+03</pdfrwt>
<totfact> 0.72855287E+03</totfact>
</mgrwt>
</event>
<event>
 4    3  0.4022695E+000  0.2574509E+03  0.7546771E-02  0.1108685E+00
         21   -1    0    0  503  502  0.00000000000E+00  0.00000000000E+00  0.32517165908E+03  0.32517165908E+03  0.00000000000E+00 0.  1.
         21   -1    0    0  501  503 -0.00000000000E+00 -0.00000000000E+00 -0.20391153108E+03  0.20391153108E+03  0.00000000000E+00 0.  1.
          6    1    1    2  501    0 -0.71404037947E+02  0.17678639295E+03  0.65796041299E+02  0.26572558104E+03  0.17300000000E+03 0.  1.
         -6    1    1    2    0  502  0.71404037947E+02 -0.17678639295E+03  0.55464086695E+02  0.26335760912E+03  0.17300000000E+03 0.  1.
<mgrwt>
<rscale>  2 0.25745090E+03</rscale>
<asrwt>0</asrwt>
<pdfrwt beam="1">  1       21 0.50026409E-01 0.25745090E+03</pdfrwt>
<pdfrwt beam="2">  1       21 0.31371005E-01 0.25745090E+03</pdfrwt>
<totfact> 0.36046793E+04</totfact>
</mgrwt>
</event>
<event>
 4    3  0.4022695E+000  0.2011704E+03  0.7546771E-02  0.1148755E+00
         21   -1    0    0  501  502  0.00000000000E+00  0.00000000000E+00  0.13968147030E+03  0.13968147030E+03  0.00000000000E+00 0.  1.
         21   -1    0    0  502  503 -0.00000000000E+00 -0.00000000000E+00 -0.14795625373E+04  0.14795625373E+04  0.00000000000E+00 0.  1.
          6    1    1    2  501    0 -0.38403622327E+02  0.95213942082E+02  0.56096971868E+02  0.20884540509E+03  0.17300000000E+03 0.  1.
         -6    1    1    2    0  503  0.38403622327E+02 -0.95213942082E+02 -0.13959780389E+04  0.14103986025E+04  0.17300000000E+03 0.  1.
<mgrwt>
<rscale>  2 0.20117041E+03</rscale>
<asrwt>0</asrwt>
<pdfrwt beam="1">  1       21 0.21489456E-01 0.20117041E+03</pdfrwt>
<pdfrwt beam="2">  1       21 0.22762502E+00 0.20117041E+03</pdfrwt>
<totfact> 0.18067820E+03</totfact>
</mgrwt>
</event>
<event>
 4    3  0.4022695E+000  0.1848565E+03  0.7546771E-02  0.1163184E+00
         21   -1    0    0  501  502  0.00000000000E+00  0.00000000000E+00  0.13899571499E+03  0.13899571499E+03  0.00000000000E+00 0.  1.
         21   -1    0    0  502  503 -0.00000000000E+00 -0.00000000000E+00 -0.28622702172E+03  0.28622702172E+03  0.00000000000E+00 0. -1.
          6    1    1    2  501    0  0.65028718360E+02  0.37667505086E+01  0.62398839604E+01  0.18496177652E+03  0.17300000000E+03 0.  1.
         -6    1    1    2    0  503 -0.65028718360E+02 -0.37667505086E+01 -0.15347119069E+03  0.24026096019E+03  0.17300000000E+03 0. -1.
<mgrwt>
<rscale>  2 0.18485649E+03</rscale>
<asrwt>0</asrwt>
<pdfrwt beam="1">  1       21 0.21383956E-01 0.18485649E+03</pdfrwt>
<pdfrwt beam="2">  1       21 0.44034926E-01 0.18485649E+03</pdfrwt>
<totfact> 0.10117464E+05</totfact>
</mgrwt>
</event>
<event>
 4    3  0.4022695E+000  0.1743039E+03  0.7546771E-02  0.1173432E+00
         21   -1    0    0  501  502  0.00000000000E+00  0.00000000000E+00  0.24271866242E+02  0.24271866242E+02  0.00000000000E+00 0.  1.
         21   -1    0    0  502  503 -0.00000000000E+00 -0.00000000000E+00 -0.13577739924E+04  0.13577739924E+04  0.00000000000E+00 0.  1.
          6    1    1    2  501    0 -0.18895466137E+02 -0.97884775589E+01 -0.47363462787E+03  0.50468962110E+03  0.17300000000E+03 0.  1.
         -6    1    1    2    0  503  0.18895466137E+02  0.97884775589E+01 -0.85986749834E+03  0.87735623759E+03  0.17300000000E+03 0.  1.
<mgrwt>
<rscale>  2 0.17430391E+03</rscale>
<asrwt>0</asrwt>
<pdfrwt beam="1">  1       21 0.37341322E-02 0.17430391E+03</pdfrwt>
<pdfrwt beam="2">  1       21 0.20888836E+00 0.17430391E+03</pdfrwt>
<totfact> 0.52496819E+04</totfact>
</mgrwt>
</event>
<event>
 4    3  0.4022695E+000  0.2071452E+03  0.7546771E-02  0.1143847E+00
         21   -1    0    0  501  502  0.00000000000E+00  0.00000000000E+00  0.14739186450E+04  0.14739186450E+04  0.00000000000E+00 0. -1.
         21   -1    0    0  502  503 -0.00000000000E+00 -0.00000000000E+00 -0.29571658513E+02  0.29571658513E+02  0.00000000000E+00 0.  1.
          6    1    1    2  501    0  0.92293669939E+02  0.66798364754E+02  0.62847886665E+03  0.66173622303E+03  0.17300000000E+03 0. -1.
         -6    1    1    2    0  503 -0.92293669939E+02 -0.66798364754E+02  0.81586811985E+03  0.84175408049E+03  0.17300000000E+03 0.  1.
<mgrwt>
<rscale>  2 0.20714522E+03</rscale>
<asrwt>0</asrwt>
<pdfrwt beam="1">  1       21 0.22675666E+00 0.20714522E+03</pdfrwt>
<pdfrwt beam="2">  1       21 0.45494871E-02 0.20714522E+03</pdfrwt>
<totfact> 0.28554119E+04</totfact>
</mgrwt>
</event>
<event>
 4    3  0.4022695E+000  0.1819319E+03  0.7546771E-02  0.1165946E+00
         21   -1    0    0  501  502  0.00000000000E+00  0.00000000000E+00  0.41815493280E+02  0.41815493280E+02  0.00000000000E+00 0.  1.
         21   -1    0    0  502  503 -0.00000000000E+00 -0.00000000000E+00 -0.11668555219E+04  0.11668555219E+04  0.00000000000E+00 0.  1.
          6    1    1    2  501    0 -0.42302567604E+02 -0.37157833547E+02 -0.21978390819E+03  0.28531417441E+03  0.17300000000E+03 0.  1.
         -6    1    1    2    0  503  0.42302567604E+02  0.37157833547E+02 -0.90525612040E+03  0.92335684074E+03  0.17300000000E+03 0.  1.
<mgrwt>
<rscale>  2 0.18193189E+03</rscale>
<asrwt>0</asrwt>
<pdfrwt beam="1">  1       21 0.64331532E-02 0.18193189E+03</pdfrwt>
<pdfrwt beam="2">  1       21 0.17951622E+00 0.18193189E+03</pdfrwt>
<totfact> 0.32308050E+04</totfact>
</mgrwt>
</event>
<event>
 4    3  0.4022695E+000  0.2183637E+03  0.7546771E-02  0.1135109E+00
         21   -1    0    0  501  502  0.00000000000E+00  0.00000000000E+00  0.91272210927E+02  0.91272210927E+02  0.00000000000E+00 0.  1.
         21   -1    0    0  502  503 -0.00000000000E+00 -0.00000000000E+00 -0.94296024285E+03  0.94296024285E+03  0.00000000000E+00 0.  1.
          6    1    1    2  501    0 -0.10664648374E+03  0.79876308624E+02 -0.80506520488E+02  0.23273159866E+03  0.17300000000E+03 0.  1.
         -6    1    1    2    0  503  0.10664648374E+03 -0.79876308624E+02 -0.77118151143E+03  0.80150085511E+03  0.17300000000E+03 0.  1.
<mgrwt>
<rscale>  2 0.21836368E+03</rscale>
<asrwt>0</asrwt>
<pdfrwt beam="1">  1       21 0.14041880E-01 0.21836368E+03</pdfrwt>
<pdfrwt beam="2">  1       21 0.14507079E+00 0.21836368E+03</pdfrwt>
<totfact> 0.14175441E+04</totfact>
</mgrwt>
</event>
<event>
 4    3  0.4022695E+000  0.2360387E+03  0.7546771E-02  0.1122460E+00
         21   -1    0    0  503  502  0.00000000000E+00  0.00000000000E+00  0.29876346589E+03  0.29876346589E+03  0.00000000000E+00 0.  1.
         21   -1    0    0  501  503 -0.00000000000E+00 -0.00000000000E+00 -0.26766828559E+03  0.26766828559E+03  0.00000000000E+00 0. -1.
          6    1    1    2  501    0  0.13948669689E+02  0.15997089348E+03 -0.14042859408E+03  0.27465331271E+03  0.17300000000E+03 0. -1.
         -6    1    1    2    0  502 -0.13948669689E+02 -0.15997089348E+03  0.17152377439E+03  0.29177843877E+03  0.17300000000E+03 0.  1.
<mgrwt>
<rscale>  2 0.23603867E+03</rscale>
<asrwt>0</asrwt>
<pdfrwt beam="1">  1       21 0.45963610E-01 0.23603867E+03</pdfrwt>
<pdfrwt beam="2">  1       21 0.41179736E-01 0.23603867E+03</pdfrwt>
<totfact> 0.25172590E+04</totfact>
</mgrwt>
</event>
<event>
 4    3  0.4022695E+000  0.1880040E+03  0.7546771E-02  0.1160274E+00
         21   -1    0    0  503  502  0.00000000000E+00  0.00000000000E+00  0.14423229436E+04  0.14423229436E+04  0.00000000000E+00 0. -1.
         21   -1    0    0  501  503 -0.00000000000E+00 -0.00000000000E+00 -0.36890397919E+02  0.36890397919E+02  0.00000000000E+00 0. -1.
          6    1    1    2  501    0 -0.62296922487E+02 -0.39186617556E+02  0.27418508828E+03  0.33244993635E+03  0.17300000000E+03 0. -1.
         -6    1    1    2    0  502  0.62296922487E+02  0.39186617556E+02  0.11312474574E+04  0.11467634052E+04  0.17300000000E+03 0. -1.
<mgrwt>
<rscale>  2 0.18800398E+03</rscale>
<asrwt>0</asrwt>
<pdfrwt beam="1">  1       21 0.22189579E+00 0.18800398E+03</pdfrwt>
<pdfrwt beam="2">  1       21 0.56754470E-02 0.18800398E+03</pdfrwt>
<totfact> 0.21317307E+04</totfact>
</mgrwt>
</event>
<event>
 4    3  0.4022695E+000  0.2157551E+03  0.7546771E-02  0.1137088E+00
         21   -1    0    0  503  502  0.00000000000E+00  0.00000000000E+00  0.51038841716E+03  0.51038841716E+03  0.00000000000E+00 0. -1.
         21   -1    0    0  501  503 -0.00000000000E+00 -0.00000000000E+00 -0.11240173401E+03  0.11240173401E+03  0.00000000000E+00 0. -1.
          6    1    1    2  501    0  0.39575215969E+02 -0.12269902212E+03  0.63769195690E+02  0.22498168385E+03  0.17300000000E+03 0. -1.
         -6    1    1    2    0  502 -0.39575215969E+02  0.12269902212E+03  0.33421748746E+03  0.39780846732E+03  0.17300000000E+03 0. -1.
<mgrwt>
<rscale>  2 0.21575506E+03</rscale>
<asrwt>0</asrwt>
<pdfrwt beam="1">  1       21 0.78521293E-01 0.21575506E+03</pdfrwt>
<pdfrwt beam="2">  1       21 0.17292575E-01 0.21575506E+03</pdfrwt>
<totfact> 0.42863057E+04</totfact>
</mgrwt>
</event>
<event>
 4    3  0.4022695E+000  0.2968786E+03  0.7546771E-02  0.1086811E+00
         21   -1    0    0  501  502  0.00000000000E+00  0.00000000000E+00  0.15337269840E+03  0.15337269840E+03  0.00000000000E+00 0. -1.
         21   -1    0    0  502  503 -0.00000000000E+00 -0.00000000000E+00 -0.62472591300E+03  0.62472591300E+03  0.00000000000E+00 0.  1.
          6    1    1    2  501    0  0.51840597078E+02 -0.23562773706E+03 -0.12553820189E+03  0.32233013838E+03  0.17300000000E+03 0.  1.
         -6    1    1    2    0  503 -0.51840597078E+02  0.23562773706E+03 -0.34581501272E+03  0.45576847302E+03  0.17300000000E+03 0. -1.
<mgrwt>
<rscale>  2 0.29687856E+03</rscale>
<asrwt>0</asrwt>
<pdfrwt beam="1">  1       21 0.23595800E-01 0.29687856E+03</pdfrwt>
<pdfrwt beam="2">  1       21 0.96111677E-01 0.29687856E+03</pdfrwt>
<totfact> 0.14404493E+04</totfact>
</mgrwt>
</event>
<event>
 4    3  0.4022695E+000  0.2107004E+03  0.7546771E-02  0.1141013E+00
         21   -1    0    0  503  502  0.00000000000E+00  0.00000000000E+00  0.19456580916E+03  0.19456580916E+03  0.00000000000E+00 0.  1.
         21   -1    0    0  501  503 -0.00000000000E+00 -0.00000000000E+00 -0.27841758675E+03  0.27841758675E+03  0.00000000000E+00 0.  1.
          6    1    1    2  501    0 -0.11726251087E+03 -0.26742848517E+02 -0.14239022964E+03  0.25430228842E+03  0.17300000000E+03 0.  1.
         -6    1    1    2    0  502  0.11726251087E+03  0.26742848517E+02  0.58538452054E+02  0.21868110748E+03  0.17300000000E+03 0.  1.
<mgrwt>
<rscale>  2 0.21070044E+03</rscale>
<asrwt>0</asrwt>
<pdfrwt beam="1">  1       21 0.29933201E-01 0.21070044E+03</pdfrwt>
<pdfrwt beam="2">  1       21 0.42833475E-01 0.21070044E+03</pdfrwt>
<totfact> 0.55631452E+04</totfact>
</mgrwt>
</event>
<event>
 4    3  0.4022695E+000  0.2195717E+03  0.7546771E-02  0.1134203E+00
         21   -1    0    0  503  502  0.00000000000E+00  0.00000000000E+00  0.27929633441E+03  0.27929633441E+03  0.00000000000E+00 0.  1.
         21   -1    0    0  501  503 -0.00000000000E+00 -0.00000000000E+00 -0.32936516550E+03  0.32936516550E+03  0.00000000000E+00 0.  1.
          6    1    1    2  501    0 -0.45592369661E+02  0.12729522761E+03 -0.23497965714E+03  0.32160096146E+03  0.17300000000E+03 0.  1.
         -6    1    1    2    0  502  0.45592369661E+02 -0.12729522761E+03  0.18491082604E+03  0.28706053845E+03  0.17300000000E+03 0.  1.
<mgrwt>
<rscale>  2 0.21957172E+03</rscale>
<asrwt>0</asrwt>
<pdfrwt beam="1">  1       21 0.42968667E-01 0.21957172E+03</pdfrwt>
<pdfrwt beam="2">  1       21 0.50671564E-01 0.21957172E+03</pdfrwt>
<totfact> 0.18998169E+04</totfact>
</mgrwt>
</event>
<event>
 4    3  0.4022695E+000  0.2263212E+03  0.7546771E-02  0.1129256E+00
         21   -1    0    0  503  502  0.00000000000E+00  0.00000000000E+00  0.20959927368E+03  0.20959927368E+03  0.00000000000E+00 0. -1.
         21   -1    0    0  501  503 -0.00000000000E+00 -0.00000000000E+00 -0.24951100937E+03  0.24951100937E+03  0.00000000000E+00 0. -1.
          6    1    1    2  501    0  0.66098299933E+02  0.13008950980E+03 -0.52883888943E+02  0.23241766612E+03  0.17300000000E+03 0. -1.
         -6    1    1    2    0  502 -0.66098299933E+02 -0.13008950980E+03  0.12972153245E+02  0.22669261693E+03  0.17300000000E+03 0. -1.
<mgrwt>
<rscale>  2 0.22632116E+03</rscale>
<asrwt>0</asrwt>
<pdfrwt beam="1">  1       21 0.32246042E-01 0.22632116E+03</pdfrwt>
<pdfrwt beam="2">  1       21 0.38386309E-01 0.22632116E+03</pdfrwt>
<totfact> 0.59645898E+04</totfact>
</mgrwt>
</event>
<event>
 4    3  0.4022695E+000  0.1841975E+03  0.7546771E-02  0.1163801E+00
         21   -1    0    0  501  502  0.00000000000E+00  0.00000000000E+00  0.24168562344E+03  0.24168562344E+03  0.00000000000E+00 0. -1.
         21   -1    0    0  502  503 -0.00000000000E+00 -0.00000000000E+00 -0.23949138305E+03  0.23949138305E+03  0.00000000000E+00 0. -1.
          6    1    1    2  501    0  0.63238274060E+02  0.79265040196E+00  0.15586602771E+03  0.24129427302E+03  0.17300000000E+03 0. -1.
         -6    1    1    2    0  503 -0.63238274060E+02 -0.79265040196E+00 -0.15367178731E+03  0.23988273347E+03  0.17300000000E+03 0. -1.
<mgrwt>
<rscale>  2 0.18419747E+03</rscale>
<asrwt>0</asrwt>
<pdfrwt beam="1">  1       21 0.37182404E-01 0.18419747E+03</pdfrwt>
<pdfrwt beam="2">  1       21 0.36844828E-01 0.18419747E+03</pdfrwt>
<totfact> 0.49755380E+04</totfact>
</mgrwt>
</event>
<event>
 4    3  0.4022695E+000  0.1847223E+03  0.7546771E-02  0.1163310E+00
         21   -1    0    0  503  502  0.00000000000E+00  0.00000000000E+00  0.17788507866E+03  0.17788507866E+03  0.00000000000E+00 0. -1.
         21   -1    0    0  501  503 -0.00000000000E+00 -0.00000000000E+00 -0.24018270131E+03  0.24018270131E+03  0.00000000000E+00 0. -1.
          6    1    1    2  501    0 -0.43595948086E+02 -0.47882189945E+02 -0.12494628571E+03  0.22301095291E+03  0.17300000000E+03 0. -1.
         -6    1    1    2    0  502  0.43595948086E+02  0.47882189945E+02  0.62648663061E+02  0.19505682707E+03  0.17300000000E+03 0. -1.
<mgrwt>
<rscale>  2 0.18472225E+03</rscale>
<asrwt>0</asrwt>
<pdfrwt beam="1">  1       21 0.27366935E-01 0.18472225E+03</pdfrwt>
<pdfrwt beam="2">  1       21 0.36951185E-01 0.18472225E+03</pdfrwt>
<totfact> 0.90221341E+04</totfact>
</mgrwt>
</event>
<event>
 4    3  0.4022695E+000  0.1742411E+03  0.7546771E-02  0.1173496E+00
         21   -1    0    0  501  502  0.00000000000E+00  0.00000000000E+00  0.47507074102E+02  0.47507074102E+02  0.00000000000E+00 0.  1.
         21   -1    0    0  502  503 -0.00000000000E+00 -0.00000000000E+00 -0.65188548252E+03  0.65188548252E+03  0.00000000000E+00 0.  1.
          6    1    1    2  501    0  0.20595512871E+02 -0.26058278540E+01 -0.35123575319E+03  0.39207973654E+03  0.17300000000E+03 0.  1.
         -6    1    1    2    0  503 -0.20595512871E+02  0.26058278540E+01 -0.25314265524E+03  0.30731282009E+03  0.17300000000E+03 0.  1.
<mgrwt>
<rscale>  2 0.17424111E+03</rscale>
<asrwt>0</asrwt>
<pdfrwt beam="1">  1       21 0.73087806E-02 0.17424111E+03</pdfrwt>
<pdfrwt beam="2">  1       21 0.10029007E+00 0.17424111E+03</pdfrwt>
<totfact> 0.11530283E+05</totfact>
</mgrwt>
</event>
<event>
 4    3  0.4022695E+000  0.1862343E+03  0.7546771E-02  0.1161902E+00
         21   -1    0    0  503  502  0.00000000000E+00  0.00000000000E+00  0.95252397455E+02  0.95252397455E+02  0.00000000000E+00 0.  1.
         21   -1    0    0  501  503 -0.00000000000E+00 -0.00000000000E+00 -0.59197616492E+03  0.59197616492E+03  0.00000000000E+00 0.  1.
          6    1    1    2  501    0  0.68640352186E+02  0.65371753425E+01 -0.46154371606E+03  0.49770054696E+03  0.17300000000E+03 0.  1.
         -6    1    1    2    0  502 -0.68640352186E+02 -0.65371753425E+01 -0.35180051403E+02  0.18952801541E+03  0.17300000000E+03 0.  1.
<mgrwt>
<rscale>  2 0.18623435E+03</rscale>
<asrwt>0</asrwt>
<pdfrwt beam="1">  1       21 0.14654215E-01 0.18623435E+03</pdfrwt>
<pdfrwt beam="2">  1       21 0.91073255E-01 0.18623435E+03</pdfrwt>
<totfact> 0.41971120E+04</totfact>
</mgrwt>
</event>
<event>
 4    3  0.4022695E+000  0.2678899E+03  0.7546771E-02  0.1102493E+00
         21   -1    0    0  501  502  0.00000000000E+00  0.00000000000E+00  0.61959308809E+02  0.61959308809E+02  0.00000000000E+00 0. -1.
         21   -1    0    0  502  503 -0.00000000000E+00 -0.00000000000E+00 -0.11659263010E+04  0.11659263010E+04  0.00000000000E+00 0.  1.
          6    1    1    2  501    0  0.10766410593E+03 -0.17390921660E+03 -0.60176769901E+03  0.65870276976E+03  0.17300000000E+03 0.  1.
         -6    1    1    2    0  503 -0.10766410593E+03  0.17390921660E+03 -0.50219929315E+03  0.56918284001E+03  0.17300000000E+03 0.  1.
<mgrwt>
<rscale>  2 0.26788986E+03</rscale>
<asrwt>0</asrwt>
<pdfrwt beam="1">  1       21 0.95322013E-02 0.26788986E+03</pdfrwt>
<pdfrwt beam="2">  1       21 0.17937328E+00 0.26788986E+03</pdfrwt>
<totfact> 0.15447081E+04</totfact>
</mgrwt>
</event>
<event>
 4    3  0.4022695E+000  0.2012301E+03  0.7546771E-02  0.1148705E+00
         21   -1    0    0  501  502  0.00000000000E+00  0.00000000000E+00  0.95498787979E+03  0.95498787979E+03  0.00000000000E+00 0.  1.
         21   -1    0    0  502  503 -0.00000000000E+00 -0.00000000000E+00 -0.11332985377E+03  0.11332985377E+03  0.00000000000E+00 0.  1.
          6    1    1    2  501    0  0.76579346903E+02 -0.68557833640E+02  0.84340627030E+03  0.86707999038E+03  0.17300000000E+03 0.  1.
         -6    1    1    2    0  503 -0.76579346903E+02  0.68557833640E+02 -0.17482442865E+01  0.20123774319E+03  0.17300000000E+03 0.  1.
<mgrwt>
<rscale>  2 0.20123015E+03</rscale>
<asrwt>0</asrwt>
<pdfrwt beam="1">  1       21 0.14692121E+00 0.20123015E+03</pdfrwt>
<pdfrwt beam="2">  1       21 0.17435363E-01 0.20123015E+03</pdfrwt>
<totfact> 0.93372723E+03</totfact>
</mgrwt>
</event>
<event>
 4    3  0.4022695E+000  0.2140381E+03  0.7546771E-02  0.1138408E+00
         21   -1    0    0  503  502  0.00000000000E+00  0.00000000000E+00  0.91019692226E+02  0.91019692226E+02  0.00000000000E+00 0. -1.
         21   -1    0    0  501  503 -0.00000000000E+00 -0.00000000000E+00 -0.51153017024E+03  0.51153017024E+03  0.00000000000E+00 0. -1.
          6    1    1    2  501    0  0.63299753222E+01 -0.12586992271E+03 -0.17209389516E+03  0.27464270386E+03  0.17300000000E+03 0. -1.
         -6    1    1    2    0  502 -0.63299753222E+01  0.12586992271E+03 -0.24841658285E+03  0.32790715861E+03  0.17300000000E+03 0. -1.
<mgrwt>
<rscale>  2 0.21403809E+03</rscale>
<asrwt>0</asrwt>
<pdfrwt beam="1">  1       21 0.14003030E-01 0.21403809E+03</pdfrwt>
<pdfrwt beam="2">  1       21 0.78696949E-01 0.21403809E+03</pdfrwt>
<totfact> 0.62811214E+04</totfact>
</mgrwt>
</event>
<event>
 4    3  0.4022695E+000  0.1951275E+03  0.7546771E-02  0.1153916E+00
         21   -1    0    0  501  502  0.00000000000E+00  0.00000000000E+00  0.41026371831E+02  0.41026371831E+02  0.00000000000E+00 0. -1.
         21   -1    0    0  502  503 -0.00000000000E+00 -0.00000000000E+00 -0.92862777935E+03  0.92862777935E+03  0.00000000000E+00 0. -1.
          6    1    1    2  501    0  0.51725532910E+02 -0.73960955690E+02 -0.45583542001E+03  0.49584340659E+03  0.17300000000E+03 0. -1.
         -6    1    1    2    0  503 -0.51725532910E+02  0.73960955690E+02 -0.43176598751E+03  0.47381074460E+03  0.17300000000E+03 0. -1.
<mgrwt>
<rscale>  2 0.19512753E+03</rscale>
<asrwt>0</asrwt>
<pdfrwt beam="1">  1       21 0.63117497E-02 0.19512753E+03</pdfrwt>
<pdfrwt beam="2">  1       21 0.14286581E+00 0.19512753E+03</pdfrwt>
<totfact> 0.61298956E+04</totfact>
</mgrwt>
</event>
<event>
 4    3  0.4022695E+000  0.1785090E+03  0.7546771E-02  0.1169254E+00
         21   -1    0    0  503  502  0.00000000000E+00  0.00000000000E+00  0.21183286975E+04  0.21183286975E+04  0.00000000000E+00 0.  1.
         21   -1    0    0  501  503 -0.00000000000E+00 -0.00000000000E+00 -0.15455102643E+02  0.15455102643E+02  0.00000000000E+00 0.  1.
          6    1    1    2  501    0  0.41194030250E+02  0.15476566509E+02  0.87716663651E+03  0.89514623411E+03  0.17300000000E+03 0. -1.
         -6    1    1    2    0  502 -0.41194030250E+02 -0.15476566509E+02  0.12257069583E+04  0.12386375660E+04  0.17300000000E+03 0. -1.
<mgrwt>
<rscale>  2 0.17850903E+03</rscale>
<asrwt>0</asrwt>
<pdfrwt beam="1">  1       21 0.32589649E+00 0.17850903E+03</pdfrwt>
<pdfrwt beam="2">  1       21 0.23777098E-02 0.17850903E+03</pdfrwt>
<totfact> 0.22795077E+04</totfact>
</mgrwt>
</event>
<event>
 4    3  0.4022695E+000  0.1832757E+03  0.7546771E-02  0.1164670E+00
         21   -1    0    0  503  502  0.00000000000E+00  0.00000000000E+00  0.36855878897E+02  0.36855878897E+02  0.00000000000E+00 0.  1.
         21   -1    0    0  501  503 -0.00000000000E+00 -0.00000000000E+00 -0.10399448812E+04  0.10399448812E+04  0.00000000000E+00 0. -1.
          6    1    1    2  501    0  0.39876788294E+02  0.45506369107E+02 -0.69084365833E+03  0.71474117562E+03  0.17300000000E+03 0. -1.
         -6    1    1    2    0  502 -0.39876788294E+02 -0.45506369107E+02 -0.31224534394E+03  0.36205958444E+03  0.17300000000E+03 0.  1.
<mgrwt>
<rscale>  2 0.18327572E+03</rscale>
<asrwt>0</asrwt>
<pdfrwt beam="1">  1       21 0.56701355E-02 0.18327572E+03</pdfrwt>
<pdfrwt beam="2">  1       21 0.15999151E+00 0.18327572E+03</pdfrwt>
<totfact> 0.54962209E+04</totfact>
</mgrwt>
</event>
<event>
 4    3  0.4022695E+000  0.2139984E+03  0.7546771E-02  0.1138438E+00
         21   -1    0    0  503  502  0.00000000000E+00  0.00000000000E+00  0.10795401528E+03  0.10795401528E+03  0.00000000000E+00 0.  1.
         21   -1    0    0  501  503 -0.00000000000E+00 -0.00000000000E+00 -0.43444804962E+03  0.43444804962E+03  0.00000000000E+00 0.  1.
          6    1    1    2  501    0 -0.51703279111E+02  0.11486116889E+03 -0.20487665783E+03  0.29625961944E+03  0.17300000000E+03 0.  1.
         -6    1    1    2    0  502  0.51703279111E+02 -0.11486116889E+03 -0.12161737651E+03  0.24614244547E+03  0.17300000000E+03 0.  1.
<mgrwt>
<rscale>  2 0.21399840E+03</rscale>
<asrwt>0</asrwt>
<pdfrwt beam="1">  1       21 0.16608310E-01 0.21399840E+03</pdfrwt>
<pdfrwt beam="2">  1       21 0.66838161E-01 0.21399840E+03</pdfrwt>
<totfact> 0.66138580E+04</totfact>
</mgrwt>
</event>
<event>
 4    3  0.4022695E+000  0.1864370E+03  0.7546771E-02  0.1161715E+00
         21   -1    0    0  501  502  0.00000000000E+00  0.00000000000E+00  0.44293657439E+03  0.44293657439E+03  0.00000000000E+00 0. -1.
         21   -1    0    0  502  503 -0.00000000000E+00 -0.00000000000E+00 -0.80251743699E+02  0.80251743699E+02  0.00000000000E+00 0. -1.
          6    1    1    2  501    0  0.28746564764E+02  0.63272209796E+02  0.14240123993E+03  0.23459934069E+03  0.17300000000E+03 0. -1.
         -6    1    1    2    0  503 -0.28746564764E+02 -0.63272209796E+02  0.22028359076E+03  0.28858897740E+03  0.17300000000E+03 0. -1.
<mgrwt>
<rscale>  2 0.18643695E+03</rscale>
<asrwt>0</asrwt>
<pdfrwt beam="1">  1       21 0.68144086E-01 0.18643695E+03</pdfrwt>
<pdfrwt beam="2">  1       21 0.12346422E-01 0.18643695E+03</pdfrwt>
<totfact> 0.10987558E+05</totfact>
</mgrwt>
</event>
<event>
 4    3  0.4022695E+000  0.2079601E+03  0.7546771E-02  0.1143192E+00
         21   -1    0    0  503  502  0.00000000000E+00  0.00000000000E+00  0.21166886506E+04  0.21166886506E+04  0.00000000000E+00 0.  1.
         21   -1    0    0  501  503 -0.00000000000E+00 -0.00000000000E+00 -0.31093926272E+02  0.31093926272E+02  0.00000000000E+00 0.  1.
          6    1    1    2  501    0  0.68953505902E+02  0.92540934834E+02  0.41394629570E+03  0.46324825561E+03  0.17300000000E+03 0.  1.
         -6    1    1    2    0  502 -0.68953505902E+02 -0.92540934834E+02  0.16716484286E+04  0.16845343212E+04  0.17300000000E+03 0.  1.
<mgrwt>
<rscale>  2 0.20796012E+03</rscale>
<asrwt>0</asrwt>
<pdfrwt beam="1">  1       21 0.32564430E+00 0.20796012E+03</pdfrwt>
<pdfrwt beam="2">  1       21 0.47836826E-02 0.20796012E+03</pdfrwt>
<totfact> 0.69155175E+03</totfact>
</mgrwt>
</event>
<event>
 4    3  0.4022695E+000  0.2874492E+03  0.7546771E-02  0.1091688E+00
         21   -1    0    0  501  502  0.00000000000E+00  0.00000000000E+00  0.29288210849E+03  0.29288210849E+03  0.00000000000E+00 0.  1.
         21   -1    0    0  502  503 -0.00000000000E+00 -0.00000000000E+00 -0.35149205083E+03  0.35149205083E+03  0.00000000000E+00 0.  1.
          6    1    1    2  501    0  0.22915679514E+03  0.13609738343E+02  0.11383192543E+03  0.30916786538E+03  0.17300000000E+03 0.  1.
         -6    1    1    2    0  503 -0.22915679514E+03 -0.13609738343E+02 -0.17244186776E+03  0.33520629394E+03  0.17300000000E+03 0.  1.
<mgrwt>
<rscale>  2 0.28744923E+03</rscale>
<asrwt>0</asrwt>
<pdfrwt beam="1">  1       21 0.45058786E-01 0.28744923E+03</pdfrwt>
<pdfrwt beam="2">  1       21 0.54075700E-01 0.28744923E+03</pdfrwt>
<totfact> 0.14519313E+04</totfact>
</mgrwt>
</event>
<event>
 4    3  0.4022695E+000  0.2225461E+03  0.7546771E-02  0.1131999E+00
         21   -1    0    0  501  502  0.00000000000E+00  0.00000000000E+00  0.56515219308E+03  0.56515219308E+03  0.00000000000E+00 0.  1.
         21   -1    0    0  502  503 -0.00000000000E+00 -0.00000000000E+00 -0.23355515933E+03  0.23355515933E+03  0.00000000000E+00 0.  1.
          6    1    1    2  501    0 -0.93823750469E+02  0.10389827928E+03  0.48145997592E+03  0.53040593605E+03  0.17300000000E+03 0.  1.
         -6    1    1    2    0  503  0.93823750469E+02 -0.10389827928E+03 -0.14986294216E+03  0.26830141636E+03  0.17300000000E+03 0.  1.
<mgrwt>
<rscale>  2 0.22254606E+03</rscale>
<asrwt>0</asrwt>
<pdfrwt beam="1">  1       21 0.86946491E-01 0.22254606E+03</pdfrwt>
<pdfrwt beam="2">  1       21 0.35931563E-01 0.22254606E+03</pdfrwt>
<totfact> 0.83228425E+03</totfact>
</mgrwt>
</event>
<event>
 4    3  0.4022695E+000  0.1808399E+03  0.7546771E-02  0.1166993E+00
         21   -1    0    0  503  502  0.00000000000E+00  0.00000000000E+00  0.67653990223E+02  0.67653990223E+02  0.00000000000E+00 0. -1.
         21   -1    0    0  501  503 -0.00000000000E+00 -0.00000000000E+00 -0.74993728093E+03  0.74993728093E+03  0.00000000000E+00 0.  1.
          6    1    1    2  501    0 -0.25598133022E+02 -0.46030563511E+02 -0.97426153399E+02  0.20541405151E+03  0.17300000000E+03 0. -1.
         -6    1    1    2    0  502  0.25598133022E+02  0.46030563511E+02 -0.58485713731E+03  0.61217721965E+03  0.17300000000E+03 0.  1.
<mgrwt>
<rscale>  2 0.18083992E+03</rscale>
<asrwt>0</asrwt>
<pdfrwt beam="1">  1       21 0.10408306E-01 0.18083992E+03</pdfrwt>
<pdfrwt beam="2">  1       21 0.11537497E+00 0.18083992E+03</pdfrwt>
<totfact> 0.44246283E+04</totfact>
</mgrwt>
</event>
<event>
 4    3  0.4022695E+000  0.2006283E+03  0.7546771E-02  0.1149210E+00
         21   -1    0    0  501  502  0.00000000000E+00  0.00000000000E+00  0.40050144277E+03  0.40050144277E+03  0.00000000000E+00 0.  1.
         21   -1    0    0  502  503 -0.00000000000E+00 -0.00000000000E+00 -0.10745007234E+03  0.10745007234E+03  0.00000000000E+00 0.  1.
          6    1    1    2  501    0  0.26064263748E+02  0.98200723234E+02  0.21110293786E+03  0.29123217243E+03  0.17300000000E+03 0.  1.
         -6    1    1    2    0  503 -0.26064263748E+02 -0.98200723234E+02  0.81948432572E+02  0.21671934268E+03  0.17300000000E+03 0.  1.
<mgrwt>
<rscale>  2 0.20062833E+03</rscale>
<asrwt>0</asrwt>
<pdfrwt beam="1">  1       21 0.61615606E-01 0.20062833E+03</pdfrwt>
<pdfrwt beam="2">  1       21 0.16530781E-01 0.20062833E+03</pdfrwt>
<totfact> 0.80095598E+04</totfact>
</mgrwt>
</event>
<event>
 4    3  0.4022695E+000  0.3018005E+03  0.7546771E-02  0.1084344E+00
         21   -1    0    0  501  502  0.00000000000E+00  0.00000000000E+00  0.82363555076E+02  0.82363555076E+02  0.00000000000E+00 0.  1.
         21   -1    0    0  502  503 -0.00000000000E+00 -0.00000000000E+00 -0.11372976597E+04  0.11372976597E+04  0.00000000000E+00 0. -1.
          6    1    1    2  501    0  0.23747074571E+02 -0.24615167510E+03 -0.42609632610E+03  0.52215098374E+03  0.17300000000E+03 0.  1.
         -6    1    1    2    0  503 -0.23747074571E+02  0.24615167510E+03 -0.62883777853E+03  0.69751023104E+03  0.17300000000E+03 0. -1.
<mgrwt>
<rscale>  2 0.30180055E+03</rscale>
<asrwt>0</asrwt>
<pdfrwt beam="1">  1       21 0.12671316E-01 0.30180055E+03</pdfrwt>
<pdfrwt beam="2">  1       21 0.17496887E+00 0.30180055E+03</pdfrwt>
<totfact> 0.97715755E+03</totfact>
</mgrwt>
</event>
<event>
 4    3  0.4022695E+000  0.2418080E+03  0.7546771E-02  0.1118594E+00
         21   -1    0    0  503  502  0.00000000000E+00  0.00000000000E+00  0.71562856650E+03  0.71562856650E+03  0.00000000000E+00 0. -1.
         21   -1    0    0  501  503 -0.00000000000E+00 -0.00000000000E+00 -0.97184107278E+02  0.97184107278E+02  0.00000000000E+00 0.  1.
          6    1    1    2  501    0 -0.73397491517E+02  0.15216735410E+03  0.14703270660E+03  0.28300125834E+03  0.17300000000E+03 0.  1.
         -6    1    1    2    0  502  0.73397491517E+02 -0.15216735410E+03  0.47141175263E+03  0.52981141544E+03  0.17300000000E+03 0. -1.
<mgrwt>
<rscale>  2 0.24180797E+03</rscale>
<asrwt>0</asrwt>
<pdfrwt beam="1">  1       21 0.11009670E+00 0.24180797E+03</pdfrwt>
<pdfrwt beam="2">  1       21 0.14951402E-01 0.24180797E+03</pdfrwt>
<totfact> 0.25021757E+04</totfact>
</mgrwt>
</event>
<event>
 4    3  0.4022695E+000  0.1984441E+03  0.7546771E-02  0.1151058E+00
         21   -1    0    0  501  502  0.00000000000E+00  0.00000000000E+00  0.47644918998E+02  0.47644918998E+02  0.00000000000E+00 0. -1.
         21   -1    0    0  502  503 -0.00000000000E+00 -0.00000000000E+00 -0.12234755382E+04  0.12234755382E+04  0.00000000000E+00 0.  1.
          6    1    1    2  501    0  0.24356494817E+02 -0.94116094107E+02 -0.22590318516E+03  0.30068642649E+03  0.17300000000E+03 0. -1.
         -6    1    1    2    0  503 -0.24356494817E+02  0.94116094107E+02 -0.94992743407E+03  0.97043403073E+03  0.17300000000E+03 0.  1.
<mgrwt>
<rscale>  2 0.19844414E+03</rscale>
<asrwt>0</asrwt>
<pdfrwt beam="1">  1       21 0.73299887E-02 0.19844414E+03</pdfrwt>
<pdfrwt beam="2">  1       21 0.18822698E+00 0.19844414E+03</pdfrwt>
<totfact> 0.22287896E+04</totfact>
</mgrwt>
</event>
<event>
 4    3  0.4022695E+000  0.1940510E+03  0.7546771E-02  0.1154858E+00
         21   -1    0    0  503  502  0.00000000000E+00  0.00000000000E+00  0.10763371529E+03  0.10763371529E+03  0.00000000000E+00 0.  1.
         21   -1    0    0  501  503 -0.00000000000E+00 -0.00000000000E+00 -0.44102736620E+03  0.44102736620E+03  0.00000000000E+00 0.  1.
          6    1    1    2  501    0 -0.56497180492E+02  0.67341315287E+02 -0.29143002437E+03  0.35012461103E+03  0.17300000000E+03 0.  1.
         -6    1    1    2    0  502  0.56497180492E+02 -0.67341315287E+02 -0.41963626535E+02  0.19853647045E+03  0.17300000000E+03 0.  1.
<mgrwt>
<rscale>  2 0.19405098E+03</rscale>
<asrwt>0</asrwt>
<pdfrwt beam="1">  1       21 0.16559033E-01 0.19405098E+03</pdfrwt>
<pdfrwt beam="2">  1       21 0.67850363E-01 0.19405098E+03</pdfrwt>
<totfact> 0.64933994E+04</totfact>
</mgrwt>
</event>
<event>
 4    3  0.4022695E+000  0.2141831E+03  0.7546771E-02  0.1138296E+00
         21   -1    0    0  501  502  0.00000000000E+00  0.00000000000E+00  0.23474223726E+03  0.23474223726E+03  0.00000000000E+00 0.  1.
         21   -1    0    0  502  503 -0.00000000000E+00 -0.00000000000E+00 -0.35937854495E+03  0.35937854495E+03  0.00000000000E+00 0. -1.
          6    1    1    2  501    0 -0.83888369935E+02 -0.94382887944E+02  0.13832748379E+03  0.25496839200E+03  0.17300000000E+03 0.  1.
         -6    1    1    2    0  503  0.83888369935E+02  0.94382887944E+02 -0.26296379149E+03  0.33915239021E+03  0.17300000000E+03 0. -1.
<mgrwt>
<rscale>  2 0.21418307E+03</rscale>
<asrwt>0</asrwt>
<pdfrwt beam="1">  1       21 0.36114191E-01 0.21418307E+03</pdfrwt>
<pdfrwt beam="2">  1       21 0.55289007E-01 0.21418307E+03</pdfrwt>
<totfact> 0.22527596E+04</totfact>
</mgrwt>
</event>
<event>
 4    3  0.4022695E+000  0.1926597E+03  0.7546771E-02  0.1156084E+00
         21   -1    0    0  501  502  0.00000000000E+00  0.00000000000E+00  0.39912048777E+03  0.39912048777E+03  0.00000000000E+00 0.  1.
         21   -1    0    0  502  503 -0.00000000000E+00 -0.00000000000E+00 -0.94016801155E+02  0.94016801155E+02  0.00000000000E+00 0.  1.
          6    1    1    2  501    0 -0.49135391252E+02  0.69097664039E+02  0.17820754498E+03  0.26244180867E+03  0.17300000000E+03 0.  1.
         -6    1    1    2    0  503  0.49135391252E+02 -0.69097664039E+02  0.12689614163E+03  0.23069548025E+03  0.17300000000E+03 0.  1.
<mgrwt>
<rscale>  2 0.19265974E+03</rscale>
<asrwt>0</asrwt>
<pdfrwt beam="1">  1       21 0.61403151E-01 0.19265974E+03</pdfrwt>
<pdfrwt beam="2">  1       21 0.14464123E-01 0.19265974E+03</pdfrwt>
<totfact> 0.10333665E+05</totfact>
</mgrwt>
</event>
<event>
 4    3  0.4022695E+000  0.2582244E+03  0.7546771E-02  0.1108215E+00
         21   -1    0    0  503  502  0.00000000000E+00  0.00000000000E+00  0.64169434184E+03  0.64169434184E+03  0.00000000000E+00 0.  1.
         21   -1    0    0  501  503 -0.00000000000E+00 -0.00000000000E+00 -0.13345847049E+03  0.13345847049E+03  0.00000000000E+00 0. -1.
          6    1    1    2  501    0  0.19140385158E+03  0.10742459262E+02  0.71755238757E+02  0.26800867359E+03  0.17300000000E+03 0. -1.
         -6    1    1    2    0  502 -0.19140385158E+03 -0.10742459262E+02  0.43648063260E+03  0.50714413874E+03  0.17300000000E+03 0.  1.
<mgrwt>
<rscale>  2 0.25822439E+03</rscale>
<asrwt>0</asrwt>
<pdfrwt beam="1">  1       21 0.98722204E-01 0.25822439E+03</pdfrwt>
<pdfrwt beam="2">  1       21 0.20532073E-01 0.25822439E+03</pdfrwt>
<totfact> 0.17923574E+04</totfact>
</mgrwt>
</event>
<event>
 4    3  0.4022695E+000  0.3217191E+03  0.7546771E-02  0.1074861E+00
         21   -1    0    0  503  502  0.00000000000E+00  0.00000000000E+00  0.76011672378E+02  0.76011672378E+02  0.00000000000E+00 0. -1.
         21   -1    0    0  501  503 -0.00000000000E+00 -0.00000000000E+00 -0.14641562339E+04  0.14641562339E+04  0.00000000000E+00 0.  1.
          6    1    1    2  501    0  0.21128226741E+03  0.17009997857E+03 -0.89780763080E+03  0.95370946370E+03  0.17300000000E+03 0.  1.
         -6    1    1    2    0  502 -0.21128226741E+03 -0.17009997857E+03 -0.49033693069E+03  0.58645844254E+03  0.17300000000E+03 0. -1.
<mgrwt>
<rscale>  2 0.32171913E+03</rscale>
<asrwt>0</asrwt>
<pdfrwt beam="1">  1       21 0.11694104E-01 0.32171913E+03</pdfrwt>
<pdfrwt beam="2">  1       21 0.22525480E+00 0.32171913E+03</pdfrwt>
<totfact> 0.52107576E+03</totfact>
</mgrwt>
</event>
<event>
 4    3  0.4022695E+000  0.1812932E+03  0.7546771E-02  0.1166557E+00
         21   -1    0    0  503  502  0.00000000000E+00  0.00000000000E+00  0.56820540689E+03  0.56820540689E+03  0.00000000000E+00 0.  1.
         21   -1    0    0  501  503 -0.00000000000E+00 -0.00000000000E+00 -0.73867293961E+02  0.73867293961E+02  0.00000000000E+00 0.  1.
          6    1    1    2  501    0  0.51557914511E+02 -0.16732866546E+02  0.97646885673E+02  0.20591775458E+03  0.17300000000E+03 0.  1.
         -6    1    1    2    0  502 -0.51557914511E+02  0.16732866546E+02  0.39669122726E+03  0.43615494627E+03  0.17300000000E+03 0.  1.
<mgrwt>
<rscale>  2 0.18129315E+03</rscale>
<asrwt>0</asrwt>
<pdfrwt beam="1">  1       21 0.87416214E-01 0.18129315E+03</pdfrwt>
<pdfrwt beam="2">  1       21 0.11364199E-01 0.18129315E+03</pdfrwt>
<totfact> 0.73031292E+04</totfact>
</mgrwt>
</event>
<event>
 4    3  0.4022695E+000  0.2374767E+03  0.7546771E-02  0.1121485E+00
         21   -1    0    0  503  502  0.00000000000E+00  0.00000000000E+00  0.88777161061E+03  0.88777161061E+03  0.00000000000E+00 0. -1.
         21   -1    0    0  501  503 -0.00000000000E+00 -0.00000000000E+00 -0.11058017312E+03  0.11058017312E+03  0.00000000000E+00 0. -1.
          6    1    1    2  501    0  0.10789704036E+03  0.12175556604E+03  0.62968073248E+02  0.24568306297E+03  0.17300000000E+03 0. -1.
         -6    1    1    2    0  502 -0.10789704036E+03 -0.12175556604E+03  0.71422336425E+03  0.75266872077E+03  0.17300000000E+03 0. -1.
<mgrwt>
<rscale>  2 0.23747671E+03</rscale>
<asrwt>0</asrwt>
<pdfrwt beam="1">  1       21 0.13658024E+00 0.23747671E+03</pdfrwt>
<pdfrwt beam="2">  1       21 0.17012335E-01 0.23747671E+03</pdfrwt>
<totfact> 0.11528587E+04</totfact>
</mgrwt>
</event>
<event>
 4    3  0.4022695E+000  0.2066705E+03  0.7546771E-02  0.1144230E+00
         21   -1    0    0  503  502  0.00000000000E+00  0.00000000000E+00  0.78376937192E+02  0.78376937192E+02  0.00000000000E+00 0.  1.
         21   -1    0    0  501  503 -0.00000000000E+00 -0.00000000000E+00 -0.65447464337E+03  0.65447464337E+03  0.00000000000E+00 0.  1.
          6    1    1    2  501    0  0.71194118146E+02 -0.87835668859E+02 -0.43793631545E+03  0.48425295411E+03  0.17300000000E+03 0.  1.
         -6    1    1    2    0  502 -0.71194118146E+02  0.87835668859E+02 -0.13816139073E+03  0.24859862645E+03  0.17300000000E+03 0.  1.
<mgrwt>
<rscale>  2 0.20667053E+03</rscale>
<asrwt>0</asrwt>
<pdfrwt beam="1">  1       21 0.12057990E-01 0.20667053E+03</pdfrwt>
<pdfrwt beam="2">  1       21 0.10068841E+00 0.20667053E+03</pdfrwt>
<totfact> 0.46647962E+04</totfact>
</mgrwt>
</event>
<event>
 4    3  0.4022695E+000  0.3547603E+03  0.7546771E-02  0.1060678E+00
         21   -1    0    0  501  502  0.00000000000E+00  0.00000000000E+00  0.83206676106E+03  0.83206676106E+03  0.00000000000E+00 0.  1.
         21   -1    0    0  502  503 -0.00000000000E+00 -0.00000000000E+00 -0.27760802691E+03  0.27760802691E+03  0.00000000000E+00 0. -1.
          6    1    1    2  501    0  0.11492500379E+03  0.28760762741E+03  0.65154779191E+03  0.74186887587E+03  0.17300000000E+03 0.  1.
         -6    1    1    2    0  503 -0.11492500379E+03 -0.28760762741E+03 -0.97089057757E+02  0.36780591210E+03  0.17300000000E+03 0. -1.
<mgrwt>
<rscale>  2 0.35476035E+03</rscale>
<asrwt>0</asrwt>
<pdfrwt beam="1">  1       21 0.12801027E+00 0.35476035E+03</pdfrwt>
<pdfrwt beam="2">  1       21 0.42708928E-01 0.35476035E+03</pdfrwt>
<totfact> 0.21241392E+03</totfact>
</mgrwt>
</event>
<event>
 4    3  0.4022695E+000  0.2130308E+03  0.7546771E-02  0.1139188E+00
         21   -1    0    0  503  502  0.00000000000E+00  0.00000000000E+00  0.53588343241E+03  0.53588343241E+03  0.00000000000E+00 0. -1.
         21   -1    0    0  501  503 -0.00000000000E+00 -0.00000000000E+00 -0.87171381268E+02  0.87171381268E+02  0.00000000000E+00 0.  1.
          6    1    1    2  501    0 -0.11703362045E+03  0.41907503294E+02  0.27695287082E+03  0.34940663961E+03  0.17300000000E+03 0.  1.
         -6    1    1    2    0  502  0.11703362045E+03 -0.41907503294E+02  0.17175918032E+03  0.27364817407E+03  0.17300000000E+03 0.  1.
<mgrwt>
<rscale>  2 0.21303077E+03</rscale>
<asrwt>0</asrwt>
<pdfrwt beam="1">  1       21 0.82443603E-01 0.21303077E+03</pdfrwt>
<pdfrwt beam="2">  1       21 0.13410982E-01 0.21303077E+03</pdfrwt>
<totfact> 0.61149532E+04</totfact>
</mgrwt>
</event>
<event>
 4    3  0.4022695E+000  0.1757262E+03  0.7546771E-02  0.1172004E+00
         21   -1    0    0  503  502  0.00000000000E+00  0.00000000000E+00  0.21578337237E+04  0.21578337237E+04  0.00000000000E+00 0. -1.
         21   -1    0    0  501  503 -0.00000000000E+00 -0.00000000000E+00 -0.23637565527E+02  0.23637565527E+02  0.00000000000E+00 0. -1.
          6    1    1    2  501    0  0.28577590397E+02 -0.11577272634E+02  0.38194076655E+03  0.42042652280E+03  0.17300000000E+03 0. -1.
         -6    1    1    2    0  502 -0.28577590397E+02  0.11577272634E+02  0.17522553916E+04  0.17610447664E+04  0.17300000000E+03 0. -1.
<mgrwt>
<rscale>  2 0.17572624E+03</rscale>
<asrwt>0</asrwt>
<pdfrwt beam="1">  1       21 0.33197426E+00 0.17572624E+03</pdfrwt>
<pdfrwt beam="2">  1       21 0.36365503E-02 0.17572624E+03</pdfrwt>
<totfact> 0.10459344E+04</totfact>
</mgrwt>
</event>
<event>
 4    3  0.4022695E+000  0.2186700E+03  0.7546771E-02  0.1134879E+00
         21   -1    0    0  501  502  0.00000000000E+00  0.00000000000E+00  0.28056539070E+03  0.28056539070E+03  0.00000000000E+00 0. -1.
         21   -1    0    0  502  503 -0.00000000000E+00 -0.00000000000E+00 -0.18831777800E+03  0.18831777800E+03  0.00000000000E+00 0.  1.
          6    1    1    2  501    0  0.59142622693E+01  0.13361355367E+03  0.11838012131E+03  0.24865722057E+03  0.17300000000E+03 0.  1.
         -6    1    1    2    0  503 -0.59142622693E+01 -0.13361355367E+03 -0.26132508611E+02  0.22022594813E+03  0.17300000000E+03 0. -1.
<mgrwt>
<rscale>  2 0.21866998E+03</rscale>
<asrwt>0</asrwt>
<pdfrwt beam="1">  1       21 0.43163906E-01 0.21866998E+03</pdfrwt>
<pdfrwt beam="2">  1       21 0.28971966E-01 0.21866998E+03</pdfrwt>
<totfact> 0.58156128E+04</totfact>
</mgrwt>
</event>
<event>
 4    3  0.4022695E+000  0.1917028E+03  0.7546771E-02  0.1156934E+00
         21   -1    0    0  501  502  0.00000000000E+00  0.00000000000E+00  0.72825613303E+02  0.72825613303E+02  0.00000000000E+00 0.  1.
         21   -1    0    0  502  503 -0.00000000000E+00 -0.00000000000E+00 -0.16453326983E+04  0.16453326983E+04  0.00000000000E+00 0. -1.
          6    1    1    2  501    0  0.22525733308E+01  0.82558330107E+02 -0.70946255638E+02  0.20440969435E+03  0.17300000000E+03 0.  1.
         -6    1    1    2    0  503 -0.22525733308E+01 -0.82558330107E+02 -0.15015608293E+04  0.15137486172E+04  0.17300000000E+03 0. -1.
<mgrwt>
<rscale>  2 0.19170277E+03</rscale>
<asrwt>0</asrwt>
<pdfrwt beam="1">  1       21 0.11203941E-01 0.19170277E+03</pdfrwt>
<pdfrwt beam="2">  1       21 0.25312809E+00 0.19170277E+03</pdfrwt>
<totfact> 0.42321093E+03</totfact>
</mgrwt>
</event>
<event>
 4    3  0.4022695E+000  0.1832344E+03  0.7546771E-02  0.1164709E+00
         21   -1    0    0  503  502  0.00000000000E+00  0.00000000000E+00  0.29720611193E+02  0.29720611193E+02  0.00000000000E+00 0. -1.
         21   -1    0    0  501  503 -0.00000000000E+00 -0.00000000000E+00 -0.15107585013E+04  0.15107585013E+04  0.00000000000E+00 0. -1.
          6    1    1    2  501    0  0.51734458812E+02  0.31134942412E+02 -0.11273616324E+04  0.11421554575E+04  0.17300000000E+03 0. -1.
         -6    1    1    2    0  502 -0.51734458812E+02 -0.31134942412E+02 -0.35367625770E+03  0.39832365499E+03  0.17300000000E+03 0. -1.
<mgrwt>
<rscale>  2 0.18323438E+03</rscale>
<asrwt>0</asrwt>
<pdfrwt beam="1">  1       21 0.45724010E-02 0.18323438E+03</pdfrwt>
<pdfrwt beam="2">  1       21 0.23242442E+00 0.18323438E+03</pdfrwt>
<totfact> 0.26662478E+04</totfact>
</mgrwt>
</event>
<event>
 4    3  0.4022695E+000  0.1748598E+03  0.7546771E-02  0.1172873E+00
         21   -1    0    0  503  502  0.00000000000E+00  0.00000000000E+00  0.18458878274E+03  0.18458878274E+03  0.00000000000E+00 0.  1.
         21   -1    0    0  501  503 -0.00000000000E+00 -0.00000000000E+00 -0.23507124628E+03  0.23507124628E+03  0.00000000000E+00 0.  1.
          6    1    1    2  501    0 -0.23318231327E+02 -0.10158774641E+02 -0.13927520177E+03  0.22354758429E+03  0.17300000000E+03 0.  1.
         -6    1    1    2    0  502  0.23318231327E+02  0.10158774641E+02  0.88792738235E+02  0.19611244473E+03  0.17300000000E+03 0.  1.
<mgrwt>
<rscale>  2 0.17485977E+03</rscale>
<asrwt>0</asrwt>
<pdfrwt beam="1">  1       21 0.28398274E-01 0.17485977E+03</pdfrwt>
<pdfrwt beam="2">  1       21 0.36164807E-01 0.17485977E+03</pdfrwt>
<totfact> 0.88029967E+04</totfact>
</mgrwt>
</event>
<event>
 4    3  0.4022695E+000  0.2353623E+03  0.7546771E-02  0.1122921E+00
         21   -1    0    0  503  502  0.00000000000E+00  0.00000000000E+00  0.62651418108E+03  0.62651418108E+03  0.00000000000E+00 0.  1.
         21   -1    0    0  501  503 -0.00000000000E+00 -0.00000000000E+00 -0.11149518037E+03  0.11149518037E+03  0.00000000000E+00 0.  1.
          6    1    1    2  501    0  0.15101320859E+03 -0.51588782059E+02  0.89632467735E+02  0.25185188281E+03  0.17300000000E+03 0.  1.
         -6    1    1    2    0  502 -0.15101320859E+03  0.51588782059E+02  0.42538653298E+03  0.48615747864E+03  0.17300000000E+03 0.  1.
<mgrwt>
<rscale>  2 0.23536226E+03</rscale>
<asrwt>0</asrwt>
<pdfrwt beam="1">  1       21 0.96386795E-01 0.23536226E+03</pdfrwt>
<pdfrwt beam="2">  1       21 0.17153105E-01 0.23536226E+03</pdfrwt>
<totfact> 0.26840713E+04</totfact>
</mgrwt>
</event>
<event>
 4    3  0.4022695E+000  0.3005204E+03  0.7546771E-02  0.1084981E+00
         21   -1    0    0  501  502  0.00000000000E+00  0.00000000000E+00  0.10805733402E+04  0.10805733402E+04  0.00000000000E+00 0.  1.
         21   -1    0    0  502  503 -0.00000000000E+00 -0.00000000000E+00 -0.11703556356E+03  0.11703556356E+03  0.00000000000E+00 0.  1.
          6    1    1    2  501    0  0.13685085369E+02  0.24534914733E+03  0.80193199592E+03  0.85639208996E+03  0.17300000000E+03 0.  1.
         -6    1    1    2    0  503 -0.13685085369E+02 -0.24534914733E+03  0.16160578072E+03  0.34121681380E+03  0.17300000000E+03 0.  1.
<mgrwt>
<rscale>  2 0.30052036E+03</rscale>
<asrwt>0</asrwt>
<pdfrwt beam="1">  1       21 0.16624205E+00 0.30052036E+03</pdfrwt>
<pdfrwt beam="2">  1       21 0.18005472E-01 0.30052036E+03</pdfrwt>
<totfact> 0.59125799E+03</totfact>
</mgrwt>
</event>
<event>
 4    3  0.4022695E+000  0.2976727E+03  0.7546771E-02  0.1086410E+00
         21   -1    0    0  503  502  0.00000000000E+00  0.00000000000E+00  0.43384798109E+02  0.43384798109E+02  0.00000000000E+00 0. -1.
         21   -1    0    0  501  503 -0.00000000000E+00 -0.00000000000E+00 -0.22890928702E+04  0.22890928702E+04  0.00000000000E+00 0.  1.
          6    1    1    2  501    0  0.23295372037E+03  0.66427371106E+02 -0.15057102659E+04  0.15348525780E+04  0.17300000000E+03 0.  1.
         -6    1    1    2    0  502 -0.23295372037E+03 -0.66427371106E+02 -0.73999780618E+03  0.79762509026E+03  0.17300000000E+03 0. -1.
<mgrwt>
<rscale>  2 0.29767269E+03</rscale>
<asrwt>0</asrwt>
<pdfrwt beam="1">  1       21 0.66745852E-02 0.29767269E+03</pdfrwt>
<pdfrwt beam="2">  1       21 0.35216809E+00 0.29767269E+03</pdfrwt>
<totfact> 0.24906863E+03</totfact>
</mgrwt>
</event>
<event>
 4    3  0.4022695E+000  0.1794993E+03  0.7546771E-02  0.1168288E+00
         21   -1    0    0  503  502  0.00000000000E+00  0.00000000000E+00  0.94215820558E+02  0.94215820558E+02  0.00000000000E+00 0.  1.
         21   -1    0    0  501  503 -0.00000000000E+00 -0.00000000000E+00 -0.46708968214E+03  0.46708968214E+03  0.00000000000E+00 0.  1.
          6    1    1    2  501    0 -0.96201454391E+01 -0.46887674689E+02 -0.33168596296E+03  0.37714132532E+03  0.17300000000E+03 0. -1.
         -6    1    1    2    0  502  0.96201454391E+01  0.46887674689E+02 -0.41187898615E+02  0.18416417738E+03  0.17300000000E+03 0. -1.
<mgrwt>
<rscale>  2 0.17949931E+03</rscale>
<asrwt>0</asrwt>
<pdfrwt beam="1">  1       21 0.14494742E-01 0.17949931E+03</pdfrwt>
<pdfrwt beam="2">  1       21 0.71859951E-01 0.17949931E+03</pdfrwt>
<totfact> 0.73417021E+04</totfact>
</mgrwt>
</event>
<event>
 4    3  0.4022695E+000  0.2468290E+03  0.7546771E-02  0.1115325E+00
         21   -1    0    0  503  502  0.00000000000E+00  0.00000000000E+00  0.61056482820E+02  0.61056482820E+02  0.00000000000E+00 0.  1.
         21   -1    0    0  501  503 -0.00000000000E+00 -0.00000000000E+00 -0.10212252971E+04  0.10212252971E+04  0.00000000000E+00 0.  1.
          6    1    1    2  501    0 -0.12007092558E+03 -0.12875770435E+03 -0.39819548500E+03  0.46849142775E+03  0.17300000000E+03 0.  1.
         -6    1    1    2    0  502  0.12007092558E+03  0.12875770435E+03 -0.56197332929E+03  0.61379035218E+03  0.17300000000E+03 0.  1.
<mgrwt>
<rscale>  2 0.24682904E+03</rscale>
<asrwt>0</asrwt>
<pdfrwt beam="1">  1       21 0.93933052E-02 0.24682904E+03</pdfrwt>
<pdfrwt beam="2">  1       21 0.15711158E+00 0.24682904E+03</pdfrwt>
<totfact> 0.23173569E+04</totfact>
</mgrwt>
</event>
<event>
 4    3  0.4022695E+000  0.2403672E+03  0.7546771E-02  0.1119548E+00
         21   -1    0    0  503  502  0.00000000000E+00  0.00000000000E+00  0.77039605662E+03  0.77039605662E+03  0.00000000000E+00 0.  1.
         21   -1    0    0  501  503 -0.00000000000E+00 -0.00000000000E+00 -0.12876800411E+03  0.12876800411E+03  0.00000000000E+00 0. -1.
          6    1    1    2  501    0 -0.57567643437E+02  0.15663124153E+03  0.30288464944E+02  0.24226797251E+03  0.17300000000E+03 0. -1.
         -6    1    1    2    0  502  0.57567643437E+02 -0.15663124153E+03  0.61133958757E+03  0.65689608823E+03  0.17300000000E+03 0.  1.
<mgrwt>
<rscale>  2 0.24036718E+03</rscale>
<asrwt>0</asrwt>
<pdfrwt beam="1">  1       21 0.11852247E+00 0.24036718E+03</pdfrwt>
<pdfrwt beam="2">  1       21 0.19810463E-01 0.24036718E+03</pdfrwt>
<totfact> 0.12409397E+04</totfact>
</mgrwt>
</event>
<event>
 4    3  0.4022695E+000  0.1763559E+03  0.7546771E-02  0.1171377E+00
         21   -1    0    0  501  502  0.00000000000E+00  0.00000000000E+00  0.10688812669E+03  0.10688812669E+03  0.00000000000E+00 0. -1.
         21   -1    0    0  502  503 -0.00000000000E+00 -0.00000000000E+00 -0.35301094762E+03  0.35301094762E+03  0.00000000000E+00 0. -1.
          6    1    1    2  501    0  0.34000464759E+02 -0.40482801024E+01 -0.26662593114E+02  0.17836006853E+03  0.17300000000E+03 0. -1.
         -6    1    1    2    0  503 -0.34000464759E+02  0.40482801024E+01 -0.21946022782E+03  0.28153900577E+03  0.17300000000E+03 0. -1.
<mgrwt>
<rscale>  2 0.17635595E+03</rscale>
<asrwt>0</asrwt>
<pdfrwt beam="1">  1       21 0.16444327E-01 0.17635595E+03</pdfrwt>
<pdfrwt beam="2">  1       21 0.54309376E-01 0.17635595E+03</pdfrwt>
<totfact> 0.10688501E+05</totfact>
</mgrwt>
</event>
<event>
 4    3  0.4022695E+000  0.2036020E+03  0.7546771E-02  0.1146735E+00
         21   -1    0    0  501  502  0.00000000000E+00  0.00000000000E+00  0.11830737282E+03  0.11830737282E+03  0.00000000000E+00 0. -1.
         21   -1    0    0  502  503 -0.00000000000E+00 -0.00000000000E+00 -0.37572389028E+03  0.37572389028E+03  0.00000000000E+00 0. -1.
          6    1    1    2  501    0  0.91219436460E+02 -0.56602059375E+02 -0.19284940942E+03  0.28043657648E+03  0.17300000000E+03 0. -1.
         -6    1    1    2    0  503 -0.91219436460E+02  0.56602059375E+02 -0.64567108042E+02  0.21359468663E+03  0.17300000000E+03 0. -1.
<mgrwt>
<rscale>  2 0.20360201E+03</rscale>
<asrwt>0</asrwt>
<pdfrwt beam="1">  1       21 0.18201134E-01 0.20360201E+03</pdfrwt>
<pdfrwt beam="2">  1       21 0.57803675E-01 0.20360201E+03</pdfrwt>
<totfact> 0.76822202E+04</totfact>
</mgrwt>
</event>
<event>
 4    3  0.4022695E+000  0.3389574E+03  0.7546771E-02  0.1067241E+00
         21   -1    0    0  501  502  0.00000000000E+00  0.00000000000E+00  0.13462192612E+03  0.13462192612E+03  0.00000000000E+00 0. -1.
         21   -1    0    0  502  503 -0.00000000000E+00 -0.00000000000E+00 -0.86235047796E+03  0.86235047796E+03  0.00000000000E+00 0.  1.
          6    1    1    2  501    0 -0.28342643013E+03  0.68063009016E+02 -0.31320099349E+03  0.46150512111E+03  0.17300000000E+03 0. -1.
         -6    1    1    2    0  503  0.28342643013E+03 -0.68063009016E+02 -0.41452755835E+03  0.53546728296E+03  0.17300000000E+03 0.  1.
<mgrwt>
<rscale>  2 0.33895739E+03</rscale>
<asrwt>0</asrwt>
<pdfrwt beam="1">  1       21 0.20711066E-01 0.33895739E+03</pdfrwt>
<pdfrwt beam="2">  1       21 0.13266930E+00 0.33895739E+03</pdfrwt>
<totfact> 0.81590008E+03</totfact>
</mgrwt>
</event>
<event>
 4    3  0.4022695E+000  0.2253238E+03  0.7546771E-02  0.1129975E+00
         21   -1    0    0  501  502  0.00000000000E+00  0.00000000000E+00  0.72677721911E+02  0.72677721911E+02  0.00000000000E+00 0. -1.
         21   -1    0    0  502  503 -0.00000000000E+00 -0.00000000000E+00 -0.69893306511E+03  0.69893306511E+03  0.00000000000E+00 0. -1.
          6    1    1    2  501    0 -0.14010201177E+03  0.34831913357E+02 -0.32186064887E+03  0.39289325927E+03  0.17300000000E+03 0. -1.
         -6    1    1    2    0  503  0.14010201177E+03 -0.34831913357E+02 -0.30439469432E+03  0.37871752774E+03  0.17300000000E+03 0. -1.
<mgrwt>
<rscale>  2 0.22532385E+03</rscale>
<asrwt>0</asrwt>
<pdfrwt beam="1">  1       21 0.11181189E-01 0.22532385E+03</pdfrwt>
<pdfrwt beam="2">  1       21 0.10752816E+00 0.22532385E+03</pdfrwt>
<totfact> 0.45170658E+04</totfact>
</mgrwt>
</event>
<event>
 4    3  0.4022695E+000  0.2866041E+03  0.7546771E-02  0.1092136E+00
         21   -1    0    0  503  502  0.00000000000E+00  0.00000000000E+00  0.14582411065E+04  0.14582411065E+04  0.00000000000E+00 0. -1.
         21   -1    0    0  501  503 -0.00000000000E+00 -0.00000000000E+00 -0.13194551341E+03  0.13194551341E+03  0.00000000000E+00 0. -1.
          6    1    1    2  501    0 -0.62763126926E+02 -0.21971281597E+03  0.61243014412E+02  0.29307445883E+03  0.17300000000E+03 0. -1.
         -6    1    1    2    0  502  0.62763126926E+02  0.21971281597E+03  0.12650525787E+04  0.12971121611E+04  0.17300000000E+03 0. -1.
<mgrwt>
<rscale>  2 0.28660414E+03</rscale>
<asrwt>0</asrwt>
<pdfrwt beam="1">  1       21 0.22434477E+00 0.28660414E+03</pdfrwt>
<pdfrwt beam="2">  1       21 0.20299311E-01 0.28660414E+03</pdfrwt>
<totfact> 0.19525559E+03</totfact>
</mgrwt>
</event>
<event>
 4    3  0.4022695E+000  0.1742804E+03  0.7546771E-02  0.1173456E+00
         21   -1    0    0  501  502  0.00000000000E+00  0.00000000000E+00  0.51293811697E+03  0.51293811697E+03  0.00000000000E+00 0. -1.
         21   -1    0    0  502  503 -0.00000000000E+00 -0.00000000000E+00 -0.14644534895E+04  0.14644534895E+04  0.00000000000E+00 0. -1.
          6    1    1    2  501    0 -0.14180637530E+02 -0.15606197518E+02  0.49274295674E+03  0.52265597222E+03  0.17300000000E+03 0. -1.
         -6    1    1    2    0  503  0.14180637530E+02  0.15606197518E+02 -0.14442583293E+04  0.14547356343E+04  0.17300000000E+03 0. -1.
<mgrwt>
<rscale>  2 0.17428036E+03</rscale>
<asrwt>0</asrwt>
<pdfrwt beam="1">  1       21 0.78913557E-01 0.17428036E+03</pdfrwt>
<pdfrwt beam="2">  1       21 0.22530054E+00 0.17428036E+03</pdfrwt>
<totfact> 0.13620484E+02</totfact>
</mgrwt>
</event>
<event>
 4    3  0.4022695E+000  0.2847110E+03  0.7546771E-02  0.1093143E+00
         21   -1    0    0  503  502  0.00000000000E+00  0.00000000000E+00  0.15793910118E+04  0.15793910118E+04  0.00000000000E+00 0.  1.
         21   -1    0    0  501  503 -0.00000000000E+00 -0.00000000000E+00 -0.51359062719E+02  0.51359062719E+02  0.00000000000E+00 0. -1.
          6    1    1    2  501    0  0.91519329553E+02 -0.20677425750E+03  0.78537486594E+03  0.83538856905E+03  0.17300000000E+03 0. -1.
         -6    1    1    2    0  502 -0.91519329553E+02  0.20677425750E+03  0.74265708313E+03  0.79536150546E+03  0.17300000000E+03 0.  1.
<mgrwt>
<rscale>  2 0.28471105E+03</rscale>
<asrwt>0</asrwt>
<pdfrwt beam="1">  1       21 0.24298319E+00 0.28471105E+03</pdfrwt>
<pdfrwt beam="2">  1       21 0.79013955E-02 0.28471105E+03</pdfrwt>
<totfact> 0.83349945E+03</totfact>
</mgrwt>
</event>
<event>
 4    3  0.4022695E+000  0.1892800E+03  0.7546771E-02  0.1159112E+00
         21   -1    0    0  501  502  0.00000000000E+00  0.00000000000E+00  0.49901276557E+02  0.49901276557E+02  0.00000000000E+00 0.  1.
         21   -1    0    0  502  503 -0.00000000000E+00 -0.00000000000E+00 -0.88848598041E+03  0.88848598041E+03  0.00000000000E+00 0.  1.
          6    1    1    2  501    0 -0.42697339917E+02  0.63834533764E+02 -0.21373763268E+03  0.28550076385E+03  0.17300000000E+03 0.  1.
         -6    1    1    2    0  503  0.42697339917E+02 -0.63834533764E+02 -0.62484707117E+03  0.65288649311E+03  0.17300000000E+03 0.  1.
<mgrwt>
<rscale>  2 0.18927998E+03</rscale>
<asrwt>0</asrwt>
<pdfrwt beam="1">  1       21 0.76771205E-02 0.18927998E+03</pdfrwt>
<pdfrwt beam="2">  1       21 0.13669013E+00 0.18927998E+03</pdfrwt>
<totfact> 0.49151161E+04</totfact>
</mgrwt>
</event>
<event>
 4    3  0.4022695E+000  0.2451772E+03  0.7546771E-02  0.1116391E+00
         21   -1    0    0  501  502  0.00000000000E+00  0.00000000000E+00  0.41061544776E+03  0.41061544776E+03  0.00000000000E+00 0. -1.
         21   -1    0    0  502  503 -0.00000000000E+00 -0.00000000000E+00 -0.19091057665E+03  0.19091057665E+03  0.00000000000E+00 0. -1.
          6    1    1    2  501    0  0.15420351719E+03  0.80025703445E+02  0.25508631359E+03  0.35380908031E+03  0.17300000000E+03 0. -1.
         -6    1    1    2    0  503 -0.15420351719E+03 -0.80025703445E+02 -0.35381442476E+02  0.24771694410E+03  0.17300000000E+03 0. -1.
<mgrwt>
<rscale>  2 0.24517716E+03</rscale>
<asrwt>0</asrwt>
<pdfrwt beam="1">  1       21 0.63171607E-01 0.24517716E+03</pdfrwt>
<pdfrwt beam="2">  1       21 0.29370858E-01 0.24517716E+03</pdfrwt>
<totfact> 0.25045686E+04</totfact>
</mgrwt>
</event>
<event>
 4    3  0.4022695E+000  0.1861327E+03  0.7546771E-02  0.1161996E+00
         21   -1    0    0  501  502  0.00000000000E+00  0.00000000000E+00  0.14215349014E+04  0.14215349014E+04  0.00000000000E+00 0.  1.
         21   -1    0    0  502  503 -0.00000000000E+00 -0.00000000000E+00 -0.34801521409E+02  0.34801521409E+02  0.00000000000E+00 0.  1.
          6    1    1    2  501    0  0.23415353580E+02 -0.64560745230E+02  0.10919956913E+04  0.11077454394E+04  0.17300000000E+03 0.  1.
         -6    1    1    2    0  503 -0.23415353580E+02  0.64560745230E+02  0.29473768870E+03  0.34859098346E+03  0.17300000000E+03 0.  1.
<mgrwt>
<rscale>  2 0.18613266E+03</rscale>
<asrwt>0</asrwt>
<pdfrwt beam="1">  1       21 0.21869763E+00 0.18613266E+03</pdfrwt>
<pdfrwt beam="2">  1       21 0.53540813E-02 0.18613266E+03</pdfrwt>
<totfact> 0.24664396E+04</totfact>
</mgrwt>
</event>
<event>
 4    3  0.4022695E+000  0.3096619E+03  0.7546771E-02  0.1080508E+00
         21   -1    0    0  501  502  0.00000000000E+00  0.00000000000E+00  0.14117448771E+03  0.14117448771E+03  0.00000000000E+00 0.  1.
         21   -1    0    0  502  503 -0.00000000000E+00 -0.00000000000E+00 -0.10447905469E+04  0.10447905469E+04  0.00000000000E+00 0. -1.
          6    1    1    2  501    0 -0.23804593914E+03  0.96413783932E+02 -0.10105239127E+03  0.32573313103E+03  0.17300000000E+03 0.  1.
         -6    1    1    2    0  503  0.23804593914E+03 -0.96413783932E+02 -0.80256366787E+03  0.86023190354E+03  0.17300000000E+03 0. -1.
<mgrwt>
<rscale>  2 0.30966189E+03</rscale>
<asrwt>0</asrwt>
<pdfrwt beam="1">  1       21 0.21719152E-01 0.30966189E+03</pdfrwt>
<pdfrwt beam="2">  1       21 0.16073701E+00 0.30966189E+03</pdfrwt>
<totfact> 0.45342944E+03</totfact>
</mgrwt>
</event>
<event>
 4    3  0.4022695E+000  0.1745867E+03  0.7546771E-02  0.1173147E+00
         21   -1    0    0  503  502  0.00000000000E+00  0.00000000000E+00  0.56814443823E+03  0.56814443823E+03  0.00000000000E+00 0. -1.
         21   -1    0    0  501  503 -0.00000000000E+00 -0.00000000000E+00 -0.83500130160E+03  0.83500130160E+03  0.00000000000E+00 0. -1.
          6    1    1    2  501    0 -0.95492747005E+00  0.23464937172E+02 -0.81208896236E+03  0.83064372504E+03  0.17300000000E+03 0. -1.
         -6    1    1    2    0  502  0.95492747005E+00 -0.23464937172E+02  0.54523209899E+03  0.57250201479E+03  0.17300000000E+03 0. -1.
<mgrwt>
<rscale>  2 0.17458670E+03</rscale>
<asrwt>0</asrwt>
<pdfrwt beam="1">  1       21 0.87406837E-01 0.17458670E+03</pdfrwt>
<pdfrwt beam="2">  1       21 0.12846174E+00 0.17458670E+03</pdfrwt>
<totfact> 0.51131817E+02</totfact>
</mgrwt>
</event>
<event>
 4    3  0.4022695E+000  0.1851483E+03  0.7546771E-02  0.1162912E+00
         21   -1    0    0  503  502  0.00000000000E+00  0.00000000000E+00  0.25649045054E+03  0.25649045054E+03  0.00000000000E+00 0. -1.
         21   -1    0    0  501  503 -0.00000000000E+00 -0.00000000000E+00 -0.17483453226E+03  0.17483453226E+03  0.00000000000E+00 0. -1.
          6    1    1    2  501    0  0.65499697826E+02  0.77890005588E+01 -0.63843797614E+02  0.19584664776E+03  0.17300000000E+03 0. -1.
         -6    1    1    2    0  502 -0.65499697826E+02 -0.77890005588E+01  0.14549971590E+03  0.23547833503E+03  0.17300000000E+03 0. -1.
<mgrwt>
<rscale>  2 0.18514826E+03</rscale>
<asrwt>0</asrwt>
<pdfrwt beam="1">  1       21 0.39460069E-01 0.18514826E+03</pdfrwt>
<pdfrwt beam="2">  1       21 0.26897621E-01 0.18514826E+03</pdfrwt>
<totfact> 0.81752132E+04</totfact>
</mgrwt>
</event>
<event>
 4    3  0.4022695E+000  0.1951385E+03  0.7546771E-02  0.1153907E+00
         21   -1    0    0  503  502  0.00000000000E+00  0.00000000000E+00  0.13814061846E+04  0.13814061846E+04  0.00000000000E+00 0.  1.
         21   -1    0    0  501  503 -0.00000000000E+00 -0.00000000000E+00 -0.29535116512E+02  0.29535116512E+02  0.00000000000E+00 0. -1.
          6    1    1    2  501    0 -0.20307938190E+02  0.87963701724E+02  0.49375138820E+03  0.53091379575E+03  0.17300000000E+03 0. -1.
         -6    1    1    2    0  502  0.20307938190E+02 -0.87963701724E+02  0.85811967994E+03  0.88002750541E+03  0.17300000000E+03 0.  1.
<mgrwt>
<rscale>  2 0.19513848E+03</rscale>
<asrwt>0</asrwt>
<pdfrwt beam="1">  1       21 0.21252398E+00 0.19513848E+03</pdfrwt>
<pdfrwt beam="2">  1       21 0.45438651E-02 0.19513848E+03</pdfrwt>
<totfact> 0.35322959E+04</totfact>
</mgrwt>
</event>
<event>
 4    3  0.4022695E+000  0.1771658E+03  0.7546771E-02  0.1170575E+00
         21   -1    0    0  503  502  0.00000000000E+00  0.00000000000E+00  0.14458995793E+04  0.14458995793E+04  0.00000000000E+00 0.  1.
         21   -1    0    0  501  503 -0.00000000000E+00 -0.00000000000E+00 -0.24674386015E+02  0.24674386015E+02  0.00000000000E+00 0.  1.
          6    1    1    2  501    0  0.82209546343E+01 -0.37297950726E+02  0.45567094734E+03  0.48890053536E+03  0.17300000000E+03 0. -1.
         -6    1    1    2    0  502 -0.82209546343E+01  0.37297950726E+02  0.96555424596E+03  0.98167342998E+03  0.17300000000E+03 0. -1.
<mgrwt>
<rscale>  2 0.17716580E+03</rscale>
<asrwt>0</asrwt>
<pdfrwt beam="1">  1       21 0.22244602E+00 0.17716580E+03</pdfrwt>
<pdfrwt beam="2">  1       21 0.37960605E-02 0.17716580E+03</pdfrwt>
<totfact> 0.42048923E+04</totfact>
</mgrwt>
</event>
<event>
 4    3  0.4022695E+000  0.1881703E+03  0.7546771E-02  0.1160122E+00
         21   -1    0    0  501  502  0.00000000000E+00  0.00000000000E+00  0.11062752838E+04  0.11062752838E+04  0.00000000000E+00 0. -1.
         21   -1    0    0  502  503 -0.00000000000E+00 -0.00000000000E+00 -0.52153725814E+02  0.52153725814E+02  0.00000000000E+00 0. -1.
          6    1    1    2  501    0 -0.10501020010E+02 -0.73271917972E+02  0.16705958355E+03  0.25162859504E+03  0.17300000000E+03 0. -1.
         -6    1    1    2    0  503  0.10501020010E+02  0.73271917972E+02  0.88706197443E+03  0.90680041457E+03  0.17300000000E+03 0. -1.
<mgrwt>
<rscale>  2 0.18817026E+03</rscale>
<asrwt>0</asrwt>
<pdfrwt beam="1">  1       21 0.17019618E+00 0.18817026E+03</pdfrwt>
<pdfrwt beam="2">  1       21 0.80236510E-02 0.18817026E+03</pdfrwt>
<totfact> 0.25471028E+04</totfact>
</mgrwt>
</event>
<event>
 4    3  0.4022695E+000  0.1763173E+03  0.7546771E-02  0.1171416E+00
         21   -1    0    0  503  502  0.00000000000E+00  0.00000000000E+00  0.25799651312E+03  0.25799651312E+03  0.00000000000E+00 0. -1.
         21   -1    0    0  501  503 -0.00000000000E+00 -0.00000000000E+00 -0.13595849666E+03  0.13595849666E+03  0.00000000000E+00 0. -1.
          6    1    1    2  501    0 -0.32810668420E+02  0.90686138128E+01 -0.54073804826E+01  0.17640016860E+03  0.17300000000E+03 0. -1.
         -6    1    1    2    0  502  0.32810668420E+02 -0.90686138128E+01  0.12744539695E+03  0.21755484118E+03  0.17300000000E+03 0. -1.
<mgrwt>
<rscale>  2 0.17631727E+03</rscale>
<asrwt>0</asrwt>
<pdfrwt beam="1">  1       21 0.39691771E-01 0.17631727E+03</pdfrwt>
<pdfrwt beam="2">  1       21 0.20916692E-01 0.17631727E+03</pdfrwt>
<totfact> 0.13059598E+05</totfact>
</mgrwt>
</event>
<event>
 4    3  0.4022695E+000  0.2147008E+03  0.7546771E-02  0.1137897E+00
         21   -1    0    0  503  502  0.00000000000E+00  0.00000000000E+00  0.94207516296E+03  0.94207516296E+03  0.00000000000E+00 0.  1.
         21   -1    0    0  501  503 -0.00000000000E+00 -0.00000000000E+00 -0.21668486981E+03  0.21668486981E+03  0.00000000000E+00 0.  1.
          6    1    1    2  501    0  0.11533850449E+03  0.53520777972E+02 -0.14708840109E+03  0.26025265038E+03  0.17300000000E+03 0.  1.
         -6    1    1    2    0  502 -0.11533850449E+03 -0.53520777972E+02  0.87247869424E+03  0.89850738238E+03  0.17300000000E+03 0.  1.
<mgrwt>
<rscale>  2 0.21470083E+03</rscale>
<asrwt>0</asrwt>
<pdfrwt beam="1">  1       21 0.14493464E+00 0.21470083E+03</pdfrwt>
<pdfrwt beam="2">  1       21 0.33336134E-01 0.21470083E+03</pdfrwt>
<totfact> 0.27795128E+03</totfact>
</mgrwt>
</event>
<event>
 4    3  0.4022695E+000  0.1730828E+03  0.7546771E-02  0.1174671E+00
         21   -1    0    0  501  502  0.00000000000E+00  0.00000000000E+00  0.14936225935E+03  0.14936225935E+03  0.00000000000E+00 0.  1.
         21   -1    0    0  502  503 -0.00000000000E+00 -0.00000000000E+00 -0.41098391470E+03  0.41098391470E+03  0.00000000000E+00 0.  1.
          6    1    1    2  501    0  0.13142890377E+00 -0.53527458320E+01  0.69659764359E+02  0.18657478911E+03  0.17300000000E+03 0.  1.
         -6    1    1    2    0  503 -0.13142890377E+00  0.53527458320E+01 -0.33128141970E+03  0.37377138494E+03  0.17300000000E+03 0.  1.
<mgrwt>
<rscale>  2 0.17308284E+03</rscale>
<asrwt>0</asrwt>
<pdfrwt beam="1">  1       21 0.22978809E-01 0.17308284E+03</pdfrwt>
<pdfrwt beam="2">  1       21 0.63228294E-01 0.17308284E+03</pdfrwt>
<totfact> 0.41557622E+04</totfact>
</mgrwt>
</event>
<event>
 4    3  0.4022695E+000  0.2457158E+03  0.7546771E-02  0.1116043E+00
         21   -1    0    0  503  502  0.00000000000E+00  0.00000000000E+00  0.25739416270E+03  0.25739416270E+03  0.00000000000E+00 0. -1.
         21   -1    0    0  501  503 -0.00000000000E+00 -0.00000000000E+00 -0.25104164485E+03  0.25104164485E+03  0.00000000000E+00 0.  1.
          6    1    1    2  501    0  0.13251164683E+03  0.11352496979E+03  0.68299685747E+02  0.25503157135E+03  0.17300000000E+03 0. -1.
         -6    1    1    2    0  502 -0.13251164683E+03 -0.11352496979E+03 -0.61947167904E+02  0.25340423620E+03  0.17300000000E+03 0.  1.
<mgrwt>
<rscale>  2 0.24571580E+03</rscale>
<asrwt>0</asrwt>
<pdfrwt beam="1">  1       21 0.39599102E-01 0.24571580E+03</pdfrwt>
<pdfrwt beam="2">  1       21 0.38621792E-01 0.24571580E+03</pdfrwt>
<totfact> 0.38748486E+04</totfact>
</mgrwt>
</event>
<event>
 4    3  0.4022695E+000  0.1992760E+03  0.7546771E-02  0.1150351E+00
         21   -1    0    0  503  502  0.00000000000E+00  0.00000000000E+00  0.14312212132E+03  0.14312212132E+03  0.00000000000E+00 0. -1.
         21   -1    0    0  501  503 -0.00000000000E+00 -0.00000000000E+00 -0.77782902568E+03  0.77782902568E+03  0.00000000000E+00 0.  1.
          6    1    1    2  501    0 -0.12869182384E+02  0.98062682059E+02 -0.68667870246E+03  0.71500947258E+03  0.17300000000E+03 0.  1.
         -6    1    1    2    0  502  0.12869182384E+02 -0.98062682059E+02  0.51971798097E+02  0.20594167443E+03  0.17300000000E+03 0. -1.
<mgrwt>
<rscale>  2 0.19927595E+03</rscale>
<asrwt>0</asrwt>
<pdfrwt beam="1">  1       21 0.22018788E-01 0.19927595E+03</pdfrwt>
<pdfrwt beam="2">  1       21 0.11966601E+00 0.19927595E+03</pdfrwt>
<totfact> 0.10199373E+04</totfact>
</mgrwt>
</event>
<event>
 4    3  0.4022695E+000  0.2143736E+03  0.7546771E-02  0.1138149E+00
         21   -1    0    0  501  502  0.00000000000E+00  0.00000000000E+00  0.15159901602E+03  0.15159901602E+03  0.00000000000E+00 0.  1.
         21   -1    0    0  502  503 -0.00000000000E+00 -0.00000000000E+00 -0.30508901491E+03  0.30508901491E+03  0.00000000000E+00 0. -1.
          6    1    1    2  501    0  0.12385130733E+03 -0.26227904449E+02 -0.58504110919E+02  0.22221336660E+03  0.17300000000E+03 0.  1.
         -6    1    1    2    0  503 -0.12385130733E+03  0.26227904449E+02 -0.94985887975E+02  0.23447466433E+03  0.17300000000E+03 0. -1.
<mgrwt>
<rscale>  2 0.21437362E+03</rscale>
<asrwt>0</asrwt>
<pdfrwt beam="1">  1       21 0.23322926E-01 0.21437362E+03</pdfrwt>
<pdfrwt beam="2">  1       21 0.46936771E-01 0.21437362E+03</pdfrwt>
<totfact> 0.74399104E+04</totfact>
</mgrwt>
</event>
<event>
 4    3  0.4022695E+000  0.2259896E+03  0.7546771E-02  0.1129495E+00
         21   -1    0    0  501  502  0.00000000000E+00  0.00000000000E+00  0.12053231184E+04  0.12053231184E+04  0.00000000000E+00 0. -1.
         21   -1    0    0  502  503 -0.00000000000E+00 -0.00000000000E+00 -0.60738572918E+02  0.60738572918E+02  0.00000000000E+00 0. -1.
          6    1    1    2  501    0 -0.89050916963E+02 -0.11494444655E+03  0.92039955912E+03  0.94773764304E+03  0.17300000000E+03 0. -1.
         -6    1    1    2    0  503  0.89050916963E+02  0.11494444655E+03  0.22418498638E+03  0.31832404829E+03  0.17300000000E+03 0. -1.
<mgrwt>
<rscale>  2 0.22598958E+03</rscale>
<asrwt>0</asrwt>
<pdfrwt beam="1">  1       21 0.18543431E+00 0.22598958E+03</pdfrwt>
<pdfrwt beam="2">  1       21 0.93443967E-02 0.22598958E+03</pdfrwt>
<totfact> 0.14925150E+04</totfact>
</mgrwt>
</event>
<event>
 4    3  0.4022695E+000  0.2283981E+03  0.7546771E-02  0.1127772E+00
         21   -1    0    0  501  502  0.00000000000E+00  0.00000000000E+00  0.54910903668E+03  0.54910903668E+03  0.00000000000E+00 0. -1.
         21   -1    0    0  502  503 -0.00000000000E+00 -0.00000000000E+00 -0.26572524236E+03  0.26572524236E+03  0.00000000000E+00 0. -1.
          6    1    1    2  501    0 -0.11119487819E+03 -0.99359928661E+02  0.46825790388E+03  0.52099055741E+03  0.17300000000E+03 0. -1.
         -6    1    1    2    0  503  0.11119487819E+03  0.99359928661E+02 -0.18487410957E+03  0.29384372164E+03  0.17300000000E+03 0. -1.
<mgrwt>
<rscale>  2 0.22839811E+03</rscale>
<asrwt>0</asrwt>
<pdfrwt beam="1">  1       21 0.84478313E-01 0.22839811E+03</pdfrwt>
<pdfrwt beam="2">  1       21 0.40880807E-01 0.22839811E+03</pdfrwt>
<totfact> 0.68298473E+03</totfact>
</mgrwt>
</event>
<event>
 4    3  0.4022695E+000  0.1872692E+03  0.7546771E-02  0.1160948E+00
         21   -1    0    0  501  502  0.00000000000E+00  0.00000000000E+00  0.73474314947E+02  0.73474314947E+02  0.00000000000E+00 0.  1.
         21   -1    0    0  502  503 -0.00000000000E+00 -0.00000000000E+00 -0.48245251520E+03  0.48245251520E+03  0.00000000000E+00 0.  1.
          6    1    1    2  501    0  0.68468791891E+02  0.21279007437E+02 -0.17578169977E+03  0.25684426720E+03  0.17300000000E+03 0.  1.
         -6    1    1    2    0  503 -0.68468791891E+02 -0.21279007437E+02 -0.23319650049E+03  0.29908256295E+03  0.17300000000E+03 0.  1.
<mgrwt>
<rscale>  2 0.18726925E+03</rscale>
<asrwt>0</asrwt>
<pdfrwt beam="1">  1       21 0.11303741E-01 0.18726925E+03</pdfrwt>
<pdfrwt beam="2">  1       21 0.74223464E-01 0.18726925E+03</pdfrwt>
<totfact> 0.10646295E+05</totfact>
</mgrwt>
</event>
<event>
 4    3  0.4022695E+000  0.1943111E+03  0.7546771E-02  0.1154629E+00
         21   -1    0    0  501  502  0.00000000000E+00  0.00000000000E+00  0.26048042074E+03  0.26048042074E+03  0.00000000000E+00 0.  1.
         21   -1    0    0  502  503 -0.00000000000E+00 -0.00000000000E+00 -0.24121983827E+03  0.24121983827E+03  0.00000000000E+00 0.  1.
          6    1    1    2  501    0 -0.73074151405E+02 -0.49879614511E+02  0.16810189852E+03  0.25693395228E+03  0.17300000000E+03 0.  1.
         -6    1    1    2    0  503  0.73074151405E+02  0.49879614511E+02 -0.14884131605E+03  0.24476630673E+03  0.17300000000E+03 0.  1.
<mgrwt>
<rscale>  2 0.19431111E+03</rscale>
<asrwt>0</asrwt>
<pdfrwt beam="1">  1       21 0.40073911E-01 0.19431111E+03</pdfrwt>
<pdfrwt beam="2">  1       21 0.37110745E-01 0.19431111E+03</pdfrwt>
<totfact> 0.41992059E+04</totfact>
</mgrwt>
</event>
<event>
 4    3  0.4022695E+000  0.1801084E+03  0.7546771E-02  0.1167698E+00
         21   -1    0    0  501  502  0.00000000000E+00  0.00000000000E+00  0.10304268533E+03  0.10304268533E+03  0.00000000000E+00 0.  1.
         21   -1    0    0  502  503 -0.00000000000E+00 -0.00000000000E+00 -0.38087426561E+03  0.38087426561E+03  0.00000000000E+00 0.  1.
          6    1    1    2  501    0  0.31877091839E+02 -0.38651062524E+02 -0.38146684986E+02  0.18410383807E+03  0.17300000000E+03 0. -1.
         -6    1    1    2    0  503 -0.31877091839E+02  0.38651062524E+02 -0.23968489529E+03  0.29981311287E+03  0.17300000000E+03 0. -1.
<mgrwt>
<rscale>  2 0.18010845E+03</rscale>
<asrwt>0</asrwt>
<pdfrwt beam="1">  1       21 0.15852721E-01 0.18010845E+03</pdfrwt>
<pdfrwt beam="2">  1       21 0.58596040E-01 0.18010845E+03</pdfrwt>
<totfact> 0.97144464E+04</totfact>
</mgrwt>
</event>
<event>
 4    3  0.4022695E+000  0.1978170E+03  0.7546771E-02  0.1151594E+00
         21   -1    0    0  503  502  0.00000000000E+00  0.00000000000E+00  0.83514436184E+02  0.83514436184E+02  0.00000000000E+00 0. -1.
         21   -1    0    0  501  503 -0.00000000000E+00 -0.00000000000E+00 -0.67245749787E+03  0.67245749787E+03  0.00000000000E+00 0.  1.
          6    1    1    2  501    0 -0.40146515060E+02  0.87125220978E+02 -0.50260835169E+03  0.54013581810E+03  0.17300000000E+03 0.  1.
         -6    1    1    2    0  502  0.40146515060E+02 -0.87125220978E+02 -0.86334709996E+02  0.21583611596E+03  0.17300000000E+03 0. -1.
<mgrwt>
<rscale>  2 0.19781695E+03</rscale>
<asrwt>0</asrwt>
<pdfrwt beam="1">  1       21 0.12848375E-01 0.19781695E+03</pdfrwt>
<pdfrwt beam="2">  1       21 0.10345500E+00 0.19781695E+03</pdfrwt>
<totfact> 0.39192251E+04</totfact>
</mgrwt>
</event>
<event>
 4    3  0.4022695E+000  0.1872677E+03  0.7546771E-02  0.1160949E+00
         21   -1    0    0  501  502  0.00000000000E+00  0.00000000000E+00  0.92985138535E+02  0.92985138535E+02  0.00000000000E+00 0. -1.
         21   -1    0    0  502  503 -0.00000000000E+00 -0.00000000000E+00 -0.37732555483E+03  0.37732555483E+03  0.00000000000E+00 0. -1.
          6    1    1    2  501    0  0.60359261028E+02  0.38690498653E+02 -0.13707469021E+03  0.23207469869E+03  0.17300000000E+03 0. -1.
         -6    1    1    2    0  503 -0.60359261028E+02 -0.38690498653E+02 -0.14726572609E+03  0.23823599468E+03  0.17300000000E+03 0. -1.
<mgrwt>
<rscale>  2 0.18726771E+03</rscale>
<asrwt>0</asrwt>
<pdfrwt beam="1">  1       21 0.14305406E-01 0.18726771E+03</pdfrwt>
<pdfrwt beam="2">  1       21 0.58050087E-01 0.18726771E+03</pdfrwt>
<totfact> 0.11914859E+05</totfact>
</mgrwt>
</event>
<event>
 4    3  0.4022695E+000  0.2023999E+03  0.7546771E-02  0.1147730E+00
         21   -1    0    0  503  502  0.00000000000E+00  0.00000000000E+00  0.50733908891E+02  0.50733908891E+02  0.00000000000E+00 0. -1.
         21   -1    0    0  501  503 -0.00000000000E+00 -0.00000000000E+00 -0.12975437544E+04  0.12975437544E+04  0.00000000000E+00 0. -1.
          6    1    1    2  501    0  0.96016053395E+02  0.42633757193E+02 -0.10377121065E+04  0.10572663504E+04  0.17300000000E+03 0. -1.
         -6    1    1    2    0  502 -0.96016053395E+02 -0.42633757193E+02 -0.20909773903E+03  0.29101131289E+03  0.17300000000E+03 0. -1.
<mgrwt>
<rscale>  2 0.20239990E+03</rscale>
<asrwt>0</asrwt>
<pdfrwt beam="1">  1       21 0.78052171E-02 0.20239990E+03</pdfrwt>
<pdfrwt beam="2">  1       21 0.19962211E+00 0.20239990E+03</pdfrwt>
<totfact> 0.16785152E+04</totfact>
</mgrwt>
</event>
<event>
 4    3  0.4022695E+000  0.2847329E+03  0.7546771E-02  0.1093132E+00
         21   -1    0    0  501  502  0.00000000000E+00  0.00000000000E+00  0.27300331864E+03  0.27300331864E+03  0.00000000000E+00 0. -1.
         21   -1    0    0  502  503 -0.00000000000E+00 -0.00000000000E+00 -0.29964023317E+03  0.29964023317E+03  0.00000000000E+00 0.  1.
          6    1    1    2  501    0  0.90630772675E+02 -0.20719534013E+03 -0.40364989621E+02  0.28757986423E+03  0.17300000000E+03 0.  1.
         -6    1    1    2    0  503 -0.90630772675E+02  0.20719534013E+03  0.13728075094E+02  0.28506368757E+03  0.17300000000E+03 0.  1.
<mgrwt>
<rscale>  2 0.28473294E+03</rscale>
<asrwt>0</asrwt>
<pdfrwt beam="1">  1       21 0.42000511E-01 0.28473294E+03</pdfrwt>
<pdfrwt beam="2">  1       21 0.46098497E-01 0.28473294E+03</pdfrwt>
<totfact> 0.23515950E+04</totfact>
</mgrwt>
</event>
<event>
 4    3  0.4022695E+000  0.1832941E+03  0.7546771E-02  0.1164653E+00
         21   -1    0    0  501  502  0.00000000000E+00  0.00000000000E+00  0.24683774475E+03  0.24683774475E+03  0.00000000000E+00 0. -1.
         21   -1    0    0  502  503 -0.00000000000E+00 -0.00000000000E+00 -0.14980281015E+03  0.14980281015E+03  0.00000000000E+00 0. -1.
          6    1    1    2  501    0  0.28230071861E+02  0.53579649504E+02  0.10847961521E+03  0.21298953663E+03  0.17300000000E+03 0. -1.
         -6    1    1    2    0  503 -0.28230071861E+02 -0.53579649504E+02 -0.11444680613E+02  0.18365101827E+03  0.17300000000E+03 0. -1.
<mgrwt>
<rscale>  2 0.18329407E+03</rscale>
<asrwt>0</asrwt>
<pdfrwt beam="1">  1       21 0.37975038E-01 0.18329407E+03</pdfrwt>
<pdfrwt beam="2">  1       21 0.23046586E-01 0.18329407E+03</pdfrwt>
<totfact> 0.11862701E+05</totfact>
</mgrwt>
</event>
<event>
 4    3  0.4022695E+000  0.2041494E+03  0.7546771E-02  0.1146285E+00
         21   -1    0    0  501  502  0.00000000000E+00  0.00000000000E+00  0.16970344616E+03  0.16970344616E+03  0.00000000000E+00 0. -1.
         21   -1    0    0  502  503 -0.00000000000E+00 -0.00000000000E+00 -0.50769845330E+03  0.50769845330E+03  0.00000000000E+00 0.  1.
          6    1    1    2  501    0  0.74687241772E+02  0.78548018188E+02  0.74366544184E+02  0.21727254345E+03  0.17300000000E+03 0. -1.
         -6    1    1    2    0  503 -0.74687241772E+02 -0.78548018188E+02 -0.41236155132E+03  0.46012935600E+03  0.17300000000E+03 0.  1.
<mgrwt>
<rscale>  2 0.20414939E+03</rscale>
<asrwt>0</asrwt>
<pdfrwt beam="1">  1       21 0.26108223E-01 0.20414939E+03</pdfrwt>
<pdfrwt beam="2">  1       21 0.78107453E-01 0.20414939E+03</pdfrwt>
<totfact> 0.20095799E+04</totfact>
</mgrwt>
</event>
<event>
 4    3  0.4022695E+000  0.2419326E+03  0.7546771E-02  0.1118512E+00
         21   -1    0    0  501  502  0.00000000000E+00  0.00000000000E+00  0.33959660727E+03  0.33959660727E+03  0.00000000000E+00 0.  1.
         21   -1    0    0  502  503 -0.00000000000E+00 -0.00000000000E+00 -0.17566830572E+03  0.17566830572E+03  0.00000000000E+00 0. -1.
          6    1    1    2  501    0 -0.10637787060E+03  0.13147669979E+03  0.11734317803E+03  0.26888807220E+03  0.17300000000E+03 0.  1.
         -6    1    1    2    0  503  0.10637787060E+03 -0.13147669979E+03  0.46585123519E+02  0.24637684079E+03  0.17300000000E+03 0. -1.
<mgrwt>
<rscale>  2 0.24193258E+03</rscale>
<asrwt>0</asrwt>
<pdfrwt beam="1">  1       21 0.52245632E-01 0.24193258E+03</pdfrwt>
<pdfrwt beam="2">  1       21 0.27025893E-01 0.24193258E+03</pdfrwt>
<totfact> 0.44312513E+04</totfact>
</mgrwt>
</event>
<event>
 4    3  0.4022695E+000  0.2248590E+03  0.7546771E-02  0.1130311E+00
         21   -1    0    0  501  502  0.00000000000E+00  0.00000000000E+00  0.77392515379E+03  0.77392515379E+03  0.00000000000E+00 0.  1.
         21   -1    0    0  502  503 -0.00000000000E+00 -0.00000000000E+00 -0.16048933868E+03  0.16048933868E+03  0.00000000000E+00 0.  1.
          6    1    1    2  501    0 -0.64455330184E+02  0.12836701406E+03  0.66647477172E+03  0.70338481731E+03  0.17300000000E+03 0.  1.
         -6    1    1    2    0  503  0.64455330184E+02 -0.12836701406E+03 -0.53038956600E+02  0.23102967516E+03  0.17300000000E+03 0.  1.
<mgrwt>
<rscale>  2 0.22485902E+03</rscale>
<asrwt>0</asrwt>
<pdfrwt beam="1">  1       21 0.11906541E+00 0.22485902E+03</pdfrwt>
<pdfrwt beam="2">  1       21 0.24690668E-01 0.22485902E+03</pdfrwt>
<totfact> 0.81618866E+03</totfact>
</mgrwt>
</event>
<event>
 4    3  0.4022695E+000  0.2016732E+03  0.7546771E-02  0.1148335E+00
         21   -1    0    0  501  502  0.00000000000E+00  0.00000000000E+00  0.51216386897E+03  0.51216386897E+03  0.00000000000E+00 0. -1.
         21   -1    0    0  502  503 -0.00000000000E+00 -0.00000000000E+00 -0.24517741646E+03  0.24517741646E+03  0.00000000000E+00 0. -1.
          6    1    1    2  501    0  0.90248125952E+02 -0.50974201807E+02  0.44485695566E+03  0.48843608024E+03  0.17300000000E+03 0. -1.
         -6    1    1    2    0  503 -0.90248125952E+02  0.50974201807E+02 -0.17787050315E+03  0.26890520519E+03  0.17300000000E+03 0. -1.
<mgrwt>
<rscale>  2 0.20167323E+03</rscale>
<asrwt>0</asrwt>
<pdfrwt beam="1">  1       21 0.78794441E-01 0.20167323E+03</pdfrwt>
<pdfrwt beam="2">  1       21 0.37719603E-01 0.20167323E+03</pdfrwt>
<totfact> 0.95871499E+03</totfact>
</mgrwt>
</event>
<event>
 4    3  0.4022695E+000  0.1850946E+03  0.7546771E-02  0.1162962E+00
         21   -1    0    0  503  502  0.00000000000E+00  0.00000000000E+00  0.25157665508E+03  0.25157665508E+03  0.00000000000E+00 0.  1.
         21   -1    0    0  501  503 -0.00000000000E+00 -0.00000000000E+00 -0.17685557523E+03  0.17685557523E+03  0.00000000000E+00 0.  1.
          6    1    1    2  501    0 -0.22280315425E+02  0.61924028402E+02 -0.65370925549E+02  0.19629914838E+03  0.17300000000E+03 0.  1.
         -6    1    1    2    0  502  0.22280315425E+02 -0.61924028402E+02  0.14009200540E+03  0.23213308193E+03  0.17300000000E+03 0.  1.
<mgrwt>
<rscale>  2 0.18509456E+03</rscale>
<asrwt>0</asrwt>
<pdfrwt beam="1">  1       21 0.38704101E-01 0.18509456E+03</pdfrwt>
<pdfrwt beam="2">  1       21 0.27208550E-01 0.18509456E+03</pdfrwt>
<totfact> 0.83138205E+04</totfact>
</mgrwt>
</event>
<event>
 4    3  0.4022695E+000  0.1738838E+03  0.7546771E-02  0.1173857E+00
         21   -1    0    0  501  502  0.00000000000E+00  0.00000000000E+00  0.11169258258E+03  0.11169258258E+03  0.00000000000E+00 0.  1.
         21   -1    0    0  502  503 -0.00000000000E+00 -0.00000000000E+00 -0.28112116797E+03  0.28112116797E+03  0.00000000000E+00 0.  1.
          6    1    1    2  501    0  0.16970531108E+02  0.43084406902E+01 -0.46905108836E+02  0.18009900284E+03  0.17300000000E+03 0.  1.
         -6    1    1    2    0  503 -0.16970531108E+02 -0.43084406902E+01 -0.12252347656E+03  0.21271474772E+03  0.17300000000E+03 0.  1.
<mgrwt>
<rscale>  2 0.17388376E+03</rscale>
<asrwt>0</asrwt>
<pdfrwt beam="1">  1       21 0.17183474E-01 0.17388376E+03</pdfrwt>
<pdfrwt beam="2">  1       21 0.43249410E-01 0.17388376E+03</pdfrwt>
<totfact> 0.15815578E+05</totfact>
</mgrwt>
</event>
<event>
 4    3  0.4022695E+000  0.1865594E+03  0.7546771E-02  0.1161602E+00
         21   -1    0    0  503  502  0.00000000000E+00  0.00000000000E+00  0.64808992801E+02  0.64808992801E+02  0.00000000000E+00 0. -1.
         21   -1    0    0  501  503 -0.00000000000E+00 -0.00000000000E+00 -0.89941484701E+03  0.89941484701E+03  0.00000000000E+00 0. -1.
          6    1    1    2  501    0  0.26140030787E+02 -0.64746351133E+02 -0.11128089596E+03  0.21722759723E+03  0.17300000000E+03 0. -1.
         -6    1    1    2    0  502 -0.26140030787E+02  0.64746351133E+02 -0.72332495825E+03  0.74699624258E+03  0.17300000000E+03 0. -1.
<mgrwt>
<rscale>  2 0.18655935E+03</rscale>
<asrwt>0</asrwt>
<pdfrwt beam="1">  1       21 0.99706141E-02 0.18655935E+03</pdfrwt>
<pdfrwt beam="2">  1       21 0.13837152E+00 0.18655935E+03</pdfrwt>
<totfact> 0.30192742E+04</totfact>
</mgrwt>
</event>
<event>
 4    3  0.4022695E+000  0.1836583E+03  0.7546771E-02  0.1164309E+00
         21   -1    0    0  501  502  0.00000000000E+00  0.00000000000E+00  0.14208068556E+03  0.14208068556E+03  0.00000000000E+00 0.  1.
         21   -1    0    0  502  503 -0.00000000000E+00 -0.00000000000E+00 -0.23996912218E+03  0.23996912218E+03  0.00000000000E+00 0.  1.
          6    1    1    2  501    0 -0.43182007095E+02 -0.44007949050E+02 -0.68697915837E+02  0.19608617737E+03  0.17300000000E+03 0.  1.
         -6    1    1    2    0  503  0.43182007095E+02  0.44007949050E+02 -0.29190520785E+02  0.18596363037E+03  0.17300000000E+03 0.  1.
<mgrwt>
<rscale>  2 0.18365834E+03</rscale>
<asrwt>0</asrwt>
<pdfrwt beam="1">  1       21 0.21858567E-01 0.18365834E+03</pdfrwt>
<pdfrwt beam="2">  1       21 0.36918326E-01 0.18365834E+03</pdfrwt>
<totfact> 0.13867192E+05</totfact>
</mgrwt>
</event>
<event>
 4    3  0.4022695E+000  0.1846035E+03  0.7546771E-02  0.1163421E+00
         21   -1    0    0  501  502  0.00000000000E+00  0.00000000000E+00  0.89536610083E+03  0.89536610083E+03  0.00000000000E+00 0. -1.
         21   -1    0    0  502  503 -0.00000000000E+00 -0.00000000000E+00 -0.38062117395E+02  0.38062117395E+02  0.00000000000E+00 0. -1.
          6    1    1    2  501    0 -0.50364723421E+02  0.40160183854E+02  0.43128408078E+03  0.46913154239E+03  0.17300000000E+03 0. -1.
         -6    1    1    2    0  503  0.50364723421E+02 -0.40160183854E+02  0.42601990265E+03  0.46429667583E+03  0.17300000000E+03 0. -1.
<mgrwt>
<rscale>  2 0.18460348E+03</rscale>
<asrwt>0</asrwt>
<pdfrwt beam="1">  1       21 0.13774862E+00 0.18460348E+03</pdfrwt>
<pdfrwt beam="2">  1       21 0.58557110E-02 0.18460348E+03</pdfrwt>
<totfact> 0.76997497E+04</totfact>
</mgrwt>
</event>
<event>
 4    3  0.4022695E+000  0.1751449E+03  0.7546771E-02  0.1172586E+00
         21   -1    0    0  501  502  0.00000000000E+00  0.00000000000E+00  0.75836306324E+02  0.75836306324E+02  0.00000000000E+00 0.  1.
         21   -1    0    0  502  503 -0.00000000000E+00 -0.00000000000E+00 -0.44701131954E+03  0.44701131954E+03  0.00000000000E+00 0.  1.
          6    1    1    2  501    0  0.27326292650E+02 -0.50683225489E-01 -0.10496765008E+03  0.20419093124E+03  0.17300000000E+03 0.  1.
         -6    1    1    2    0  503 -0.27326292650E+02  0.50683225489E-01 -0.26620736313E+03  0.31865669462E+03  0.17300000000E+03 0.  1.
<mgrwt>
<rscale>  2 0.17514488E+03</rscale>
<asrwt>0</asrwt>
<pdfrwt beam="1">  1       21 0.11667124E-01 0.17514488E+03</pdfrwt>
<pdfrwt beam="2">  1       21 0.68770972E-01 0.17514488E+03</pdfrwt>
<totfact> 0.11965300E+05</totfact>
</mgrwt>
</event>
<event>
 4    3  0.4022695E+000  0.2091627E+03  0.7546771E-02  0.1142231E+00
         21   -1    0    0  501  502  0.00000000000E+00  0.00000000000E+00  0.14540518338E+04  0.14540518338E+04  0.00000000000E+00 0.  1.
         21   -1    0    0  502  503 -0.00000000000E+00 -0.00000000000E+00 -0.52992506351E+02  0.52992506351E+02  0.00000000000E+00 0.  1.
          6    1    1    2  501    0  0.48245078055E+02  0.10720290923E+03  0.11959254102E+04  0.12140785140E+04  0.17300000000E+03 0.  1.
         -6    1    1    2    0  503 -0.48245078055E+02 -0.10720290923E+03  0.20513391723E+03  0.29296582617E+03  0.17300000000E+03 0.  1.
<mgrwt>
<rscale>  2 0.20916274E+03</rscale>
<asrwt>0</asrwt>
<pdfrwt beam="1">  1       21 0.22370025E+00 0.20916274E+03</pdfrwt>
<pdfrwt beam="2">  1       21 0.81526944E-02 0.20916274E+03</pdfrwt>
<totfact> 0.10930954E+04</totfact>
</mgrwt>
</event>
<event>
 4    3  0.4022695E+000  0.1989965E+03  0.7546771E-02  0.1150588E+00
         21   -1    0    0  503  502  0.00000000000E+00  0.00000000000E+00  0.19755856110E+03  0.19755856110E+03  0.00000000000E+00 0. -1.
         21   -1    0    0  501  503 -0.00000000000E+00 -0.00000000000E+00 -0.20124692304E+03  0.20124692304E+03  0.00000000000E+00 0.  1.
          6    1    1    2  501    0  0.93223473562E+02  0.31304715010E+02 -0.14432464841E+02  0.19951916511E+03  0.17300000000E+03 0.  1.
         -6    1    1    2    0  502 -0.93223473562E+02 -0.31304715010E+02  0.10744102902E+02  0.19928631903E+03  0.17300000000E+03 0. -1.
<mgrwt>
<rscale>  2 0.19899649E+03</rscale>
<asrwt>0</asrwt>
<pdfrwt beam="1">  1       21 0.30393625E-01 0.19899649E+03</pdfrwt>
<pdfrwt beam="2">  1       21 0.30961065E-01 0.19899649E+03</pdfrwt>
<totfact> 0.10383210E+05</totfact>
</mgrwt>
</event>
<event>
 4    3  0.4022695E+000  0.1908383E+03  0.7546771E-02  0.1157707E+00
         21   -1    0    0  501  502  0.00000000000E+00  0.00000000000E+00  0.40754903015E+03  0.40754903015E+03  0.00000000000E+00 0.  1.
         21   -1    0    0  502  503 -0.00000000000E+00 -0.00000000000E+00 -0.99253015475E+02  0.99253015475E+02  0.00000000000E+00 0. -1.
          6    1    1    2  501    0 -0.71877490612E+02 -0.36385401372E+02  0.74152849260E+02  0.20473865327E+03  0.17300000000E+03 0. -1.
         -6    1    1    2    0  503  0.71877490612E+02  0.36385401372E+02  0.23414316542E+03  0.30206339235E+03  0.17300000000E+03 0.  1.
<mgrwt>
<rscale>  2 0.19083834E+03</rscale>
<asrwt>0</asrwt>
<pdfrwt beam="1">  1       21 0.62699850E-01 0.19083834E+03</pdfrwt>
<pdfrwt beam="2">  1       21 0.15269695E-01 0.19083834E+03</pdfrwt>
<totfact> 0.89563443E+04</totfact>
</mgrwt>
</event>
<event>
 4    3  0.4022695E+000  0.1845010E+03  0.7546771E-02  0.1163517E+00
         21   -1    0    0  503  502  0.00000000000E+00  0.00000000000E+00  0.92989762934E+02  0.92989762934E+02  0.00000000000E+00 0.  1.
         21   -1    0    0  501  503 -0.00000000000E+00 -0.00000000000E+00 -0.38585721571E+03  0.38585721571E+03  0.00000000000E+00 0.  1.
          6    1    1    2  501    0  0.44935867908E+02  0.45742583112E+02 -0.20065416938E+03  0.27258523772E+03  0.17300000000E+03 0.  1.
         -6    1    1    2    0  502 -0.44935867908E+02 -0.45742583112E+02 -0.92213283400E+02  0.20626174093E+03  0.17300000000E+03 0.  1.
<mgrwt>
<rscale>  2 0.18450099E+03</rscale>
<asrwt>0</asrwt>
<pdfrwt beam="1">  1       21 0.14306118E-01 0.18450099E+03</pdfrwt>
<pdfrwt beam="2">  1       21 0.59362647E-01 0.18450099E+03</pdfrwt>
<totfact> 0.11369042E+05</totfact>
</mgrwt>
</event>
<event>
 4    3  0.4022695E+000  0.2310038E+03  0.7546771E-02  0.1125935E+00
         21   -1    0    0  501  502  0.00000000000E+00  0.00000000000E+00  0.10463721880E+03  0.10463721880E+03  0.00000000000E+00 0.  1.
         21   -1    0    0  502  503 -0.00000000000E+00 -0.00000000000E+00 -0.59123338654E+03  0.59123338654E+03  0.00000000000E+00 0. -1.
          6    1    1    2  501    0 -0.15169374607E+03  0.20560705848E+02 -0.37228441197E+03  0.43813059539E+03  0.17300000000E+03 0. -1.
         -6    1    1    2    0  503  0.15169374607E+03 -0.20560705848E+02 -0.11431175578E+03  0.25774000995E+03  0.17300000000E+03 0.  1.
<mgrwt>
<rscale>  2 0.23100376E+03</rscale>
<asrwt>0</asrwt>
<pdfrwt beam="1">  1       21 0.16098034E-01 0.23100376E+03</pdfrwt>
<pdfrwt beam="2">  1       21 0.90958981E-01 0.23100376E+03</pdfrwt>
<totfact> 0.34645633E+04</totfact>
</mgrwt>
</event>
<event>
 4    3  0.4022695E+000  0.2018899E+03  0.7546771E-02  0.1148154E+00
         21   -1    0    0  501  502  0.00000000000E+00  0.00000000000E+00  0.38546939538E+03  0.38546939538E+03  0.00000000000E+00 0. -1.
         21   -1    0    0  502  503 -0.00000000000E+00 -0.00000000000E+00 -0.26662244831E+03  0.26662244831E+03  0.00000000000E+00 0. -1.
          6    1    1    2  501    0  0.25355753270E+02 -0.10093378622E+03  0.31269403686E+03  0.37220572821E+03  0.17300000000E+03 0. -1.
         -6    1    1    2    0  503 -0.25355753270E+02  0.10093378622E+03 -0.19384708979E+03  0.27988611549E+03  0.17300000000E+03 0. -1.
<mgrwt>
<rscale>  2 0.20188993E+03</rscale>
<asrwt>0</asrwt>
<pdfrwt beam="1">  1       21 0.59302984E-01 0.20188993E+03</pdfrwt>
<pdfrwt beam="2">  1       21 0.41018838E-01 0.20188993E+03</pdfrwt>
<totfact> 0.15120639E+04</totfact>
</mgrwt>
</event>
<event>
 4    3  0.4022695E+000  0.2133215E+03  0.7546771E-02  0.1138962E+00
         21   -1    0    0  503  502  0.00000000000E+00  0.00000000000E+00  0.18109092665E+04  0.18109092665E+04  0.00000000000E+00 0. -1.
         21   -1    0    0  501  503 -0.00000000000E+00 -0.00000000000E+00 -0.25248448325E+02  0.25248448325E+02  0.00000000000E+00 0. -1.
          6    1    1    2  501    0  0.11096415896E+03 -0.57131685197E+02  0.95601606052E+03  0.97952681535E+03  0.17300000000E+03 0. -1.
         -6    1    1    2    0  502 -0.11096415896E+03  0.57131685197E+02  0.82964475769E+03  0.85663089950E+03  0.17300000000E+03 0. -1.
<mgrwt>
<rscale>  2 0.21332153E+03</rscale>
<asrwt>0</asrwt>
<pdfrwt beam="1">  1       21 0.27860132E+00 0.21332153E+03</pdfrwt>
<pdfrwt beam="2">  1       21 0.38843781E-02 0.21332153E+03</pdfrwt>
<totfact> 0.18307874E+04</totfact>
</mgrwt>
</event>
<event>
 4    3  0.4022695E+000  0.2624129E+03  0.7546771E-02  0.1105702E+00
         21   -1    0    0  503  502  0.00000000000E+00  0.00000000000E+00  0.13187043667E+03  0.13187043667E+03  0.00000000000E+00 0. -1.
         21   -1    0    0  501  503 -0.00000000000E+00 -0.00000000000E+00 -0.13209419005E+04  0.13209419005E+04  0.00000000000E+00 0.  1.
          6    1    1    2  501    0 -0.18172249788E+03  0.76866543962E+02 -0.11594017588E+04  0.11887274583E+04  0.17300000000E+03 0. -1.
         -6    1    1    2    0  502  0.18172249788E+03 -0.76866543962E+02 -0.29669704963E+02  0.26408487879E+03  0.17300000000E+03 0.  1.
<mgrwt>
<rscale>  2 0.26241290E+03</rscale>
<asrwt>0</asrwt>
<pdfrwt beam="1">  1       21 0.20287760E-01 0.26241290E+03</pdfrwt>
<pdfrwt beam="2">  1       21 0.20322182E+00 0.26241290E+03</pdfrwt>
<totfact> 0.27076225E+03</totfact>
</mgrwt>
</event>
<event>
 4    3  0.4022695E+000  0.1770628E+03  0.7546771E-02  0.1170676E+00
         21   -1    0    0  503  502  0.00000000000E+00  0.00000000000E+00  0.31795578048E+03  0.31795578048E+03  0.00000000000E+00 0.  1.
         21   -1    0    0  501  503 -0.00000000000E+00 -0.00000000000E+00 -0.11588675521E+03  0.11588675521E+03  0.00000000000E+00 0.  1.
          6    1    1    2  501    0 -0.20995521179E+02  0.31327897963E+02  0.17260367556E+02  0.17790213430E+03  0.17300000000E+03 0.  1.
         -6    1    1    2    0  502  0.20995521179E+02 -0.31327897963E+02  0.18480865771E+03  0.25594040139E+03  0.17300000000E+03 0.  1.
<mgrwt>
<rscale>  2 0.17706284E+03</rscale>
<asrwt>0</asrwt>
<pdfrwt beam="1">  1       21 0.48916274E-01 0.17706284E+03</pdfrwt>
<pdfrwt beam="2">  1       21 0.17828732E-01 0.17706284E+03</pdfrwt>
<totfact> 0.11461535E+05</totfact>
</mgrwt>
</event>
<event>
 4    3  0.4022695E+000  0.2230677E+03  0.7546771E-02  0.1131616E+00
         21   -1    0    0  503  502  0.00000000000E+00  0.00000000000E+00  0.59320801302E+03  0.59320801302E+03  0.00000000000E+00 0. -1.
         21   -1    0    0  501  503 -0.00000000000E+00 -0.00000000000E+00 -0.12225916804E+03  0.12225916804E+03  0.00000000000E+00 0.  1.
          6    1    1    2  501    0  0.10965324401E+03 -0.88353616028E+02  0.35046544677E+02  0.22580402051E+03  0.17300000000E+03 0.  1.
         -6    1    1    2    0  502 -0.10965324401E+03  0.88353616028E+02  0.43590230030E+03  0.48966316054E+03  0.17300000000E+03 0. -1.
<mgrwt>
<rscale>  2 0.22306769E+03</rscale>
<asrwt>0</asrwt>
<pdfrwt beam="1">  1       21 0.91262770E-01 0.22306769E+03</pdfrwt>
<pdfrwt beam="2">  1       21 0.18809103E-01 0.22306769E+03</pdfrwt>
<totfact> 0.25877241E+04</totfact>
</mgrwt>
</event>
<event>
 4    3  0.4022695E+000  0.1907023E+03  0.7546771E-02  0.1157829E+00
         21   -1    0    0  501  502  0.00000000000E+00  0.00000000000E+00  0.37454327098E+03  0.37454327098E+03  0.00000000000E+00 0.  1.
         21   -1    0    0  502  503 -0.00000000000E+00 -0.00000000000E+00 -0.11319992792E+03  0.11319992792E+03  0.00000000000E+00 0. -1.
          6    1    1    2  501    0 -0.80237248772E+02  0.59666368995E+00  0.22264844831E+03  0.29315474349E+03  0.17300000000E+03 0.  1.
         -6    1    1    2    0  503  0.80237248772E+02 -0.59666368995E+00  0.38694894758E+02  0.19458845541E+03  0.17300000000E+03 0. -1.
<mgrwt>
<rscale>  2 0.19070231E+03</rscale>
<asrwt>0</asrwt>
<pdfrwt beam="1">  1       21 0.57622041E-01 0.19070231E+03</pdfrwt>
<pdfrwt beam="2">  1       21 0.17415374E-01 0.19070231E+03</pdfrwt>
<totfact> 0.84381649E+04</totfact>
</mgrwt>
</event>
<event>
 4    3  0.4022695E+000  0.2239738E+03  0.7546771E-02  0.1130955E+00
         21   -1    0    0  503  502  0.00000000000E+00  0.00000000000E+00  0.54395850513E+03  0.54395850513E+03  0.00000000000E+00 0.  1.
         21   -1    0    0  501  503 -0.00000000000E+00 -0.00000000000E+00 -0.96637562692E+02  0.96637562692E+02  0.00000000000E+00 0.  1.
          6    1    1    2  501    0  0.11742028553E+03 -0.80297917650E+02  0.15518513422E+03  0.27248248552E+03  0.17300000000E+03 0.  1.
         -6    1    1    2    0  502 -0.11742028553E+03  0.80297917650E+02  0.29213580821E+03  0.36811358230E+03  0.17300000000E+03 0.  1.
<mgrwt>
<rscale>  2 0.22397384E+03</rscale>
<asrwt>0</asrwt>
<pdfrwt beam="1">  1       21 0.83685922E-01 0.22397384E+03</pdfrwt>
<pdfrwt beam="2">  1       21 0.14867318E-01 0.22397384E+03</pdfrwt>
<totfact> 0.48754352E+04</totfact>
</mgrwt>
</event>
<event>
 4    3  0.4022695E+000  0.1755949E+03  0.7546771E-02  0.1172136E+00
         21   -1    0    0  501  502  0.00000000000E+00  0.00000000000E+00  0.14023288318E+03  0.14023288318E+03  0.00000000000E+00 0. -1.
         21   -1    0    0  502  503 -0.00000000000E+00 -0.00000000000E+00 -0.39435903572E+03  0.39435903572E+03  0.00000000000E+00 0. -1.
          6    1    1    2  501    0 -0.29562179947E+02 -0.55352843911E+01  0.50734410056E+02  0.18277730226E+03  0.17300000000E+03 0. -1.
         -6    1    1    2    0  503  0.29562179947E+02  0.55352843911E+01 -0.30486056259E+03  0.35181461664E+03  0.17300000000E+03 0. -1.
<mgrwt>
<rscale>  2 0.17559488E+03</rscale>
<asrwt>0</asrwt>
<pdfrwt beam="1">  1       21 0.21574290E-01 0.17559488E+03</pdfrwt>
<pdfrwt beam="2">  1       21 0.60670619E-01 0.17559488E+03</pdfrwt>
<totfact> 0.51081224E+04</totfact>
</mgrwt>
</event>
<event>
 4    3  0.4022695E+000  0.1878461E+03  0.7546771E-02  0.1160418E+00
         21   -1    0    0  503  502  0.00000000000E+00  0.00000000000E+00  0.17191267923E+02  0.17191267923E+02  0.00000000000E+00 0.  1.
         21   -1    0    0  501  503 -0.00000000000E+00 -0.00000000000E+00 -0.29686046488E+04  0.29686046488E+04  0.00000000000E+00 0.  1.
          6    1    1    2  501    0  0.72860457541E+02  0.69642040061E+01 -0.23050068447E+04  0.23126484169E+04  0.17300000000E+03 0.  1.
         -6    1    1    2    0  502 -0.72860457541E+02 -0.69642040061E+01 -0.64640653621E+03  0.67314749978E+03  0.17300000000E+03 0.  1.
<mgrwt>
<rscale>  2 0.18784607E+03</rscale>
<asrwt>0</asrwt>
<pdfrwt beam="1">  1       21 0.26448096E-02 0.18784607E+03</pdfrwt>
<pdfrwt beam="2">  1       21 0.45670855E+00 0.18784607E+03</pdfrwt>
<totfact> 0.29459314E+03</totfact>
</mgrwt>
</event>
<event>
 4    3  0.4022695E+000  0.1779430E+03  0.7546771E-02  0.1169809E+00
         21   -1    0    0  503  502  0.00000000000E+00  0.00000000000E+00  0.39751228615E+03  0.39751228615E+03  0.00000000000E+00 0. -1.
         21   -1    0    0  501  503 -0.00000000000E+00 -0.00000000000E+00 -0.16388498325E+03  0.16388498325E+03  0.00000000000E+00 0. -1.
          6    1    1    2  501    0  0.10795410128E+02 -0.40226622433E+02 -0.84421965454E+02  0.19695377702E+03  0.17300000000E+03 0. -1.
         -6    1    1    2    0  502 -0.10795410128E+02  0.40226622433E+02  0.31804926835E+03  0.36444349237E+03  0.17300000000E+03 0. -1.
<mgrwt>
<rscale>  2 0.17794303E+03</rscale>
<asrwt>0</asrwt>
<pdfrwt beam="1">  1       21 0.61155736E-01 0.17794303E+03</pdfrwt>
<pdfrwt beam="2">  1       21 0.25213074E-01 0.17794303E+03</pdfrwt>
<totfact> 0.37347048E+04</totfact>
</mgrwt>
</event>
<event>
 4    3  0.4022695E+000  0.2013279E+03  0.7546771E-02  0.1148623E+00
         21   -1    0    0  501  502  0.00000000000E+00  0.00000000000E+00  0.17535933108E+03  0.17535933108E+03  0.00000000000E+00 0. -1.
         21   -1    0    0  502  503 -0.00000000000E+00 -0.00000000000E+00 -0.24540292522E+03  0.24540292522E+03  0.00000000000E+00 0. -1.
          6    1    1    2  501    0 -0.20076384579E+02 -0.10099933438E+03 -0.85737097684E+02  0.21882362003E+03  0.17300000000E+03 0. -1.
         -6    1    1    2    0  503  0.20076384579E+02  0.10099933438E+03  0.15693503543E+02  0.20193863627E+03  0.17300000000E+03 0. -1.
<mgrwt>
<rscale>  2 0.20132791E+03</rscale>
<asrwt>0</asrwt>
<pdfrwt beam="1">  1       21 0.26978359E-01 0.20132791E+03</pdfrwt>
<pdfrwt beam="2">  1       21 0.37754296E-01 0.20132791E+03</pdfrwt>
<totfact> 0.88242835E+04</totfact>
</mgrwt>
</event>
<event>
 4    3  0.4022695E+000  0.2233144E+03  0.7546771E-02  0.1131436E+00
         21   -1    0    0  501  502  0.00000000000E+00  0.00000000000E+00  0.24331971048E+02  0.24331971048E+02  0.00000000000E+00 0. -1.
         21   -1    0    0  502  503 -0.00000000000E+00 -0.00000000000E+00 -0.22356273990E+04  0.22356273990E+04  0.00000000000E+00 0. -1.
          6    1    1    2  501    0 -0.13029746922E+03  0.54432581211E+02 -0.77963843511E+03  0.81099039815E+03  0.17300000000E+03 0. -1.
         -6    1    1    2    0  503  0.13029746922E+03 -0.54432581211E+02 -0.14316569929E+04  0.14489689719E+04  0.17300000000E+03 0. -1.
<mgrwt>
<rscale>  2 0.22331443E+03</rscale>
<asrwt>0</asrwt>
<pdfrwt beam="1">  1       21 0.37433801E-02 0.22331443E+03</pdfrwt>
<pdfrwt beam="2">  1       21 0.34394268E+00 0.22331443E+03</pdfrwt>
<totfact> 0.80287690E+03</totfact>
</mgrwt>
</event>
<event>
 4    3  0.4022695E+000  0.1785863E+03  0.7546771E-02  0.1169178E+00
         21   -1    0    0  501  502  0.00000000000E+00  0.00000000000E+00  0.23127902529E+02  0.23127902529E+02  0.00000000000E+00 0.  1.
         21   -1    0    0  502  503 -0.00000000000E+00 -0.00000000000E+00 -0.16303898018E+04  0.16303898018E+04  0.00000000000E+00 0.  1.
          6    1    1    2  501    0  0.50517135179E+01  0.44028888056E+02 -0.47897847841E+03  0.51118826823E+03  0.17300000000E+03 0.  1.
         -6    1    1    2    0  503 -0.50517135179E+01 -0.44028888056E+02 -0.11282834208E+04  0.11423294361E+04  0.17300000000E+03 0.  1.
<mgrwt>
<rscale>  2 0.17858629E+03</rscale>
<asrwt>0</asrwt>
<pdfrwt beam="1">  1       21 0.35581385E-02 0.17858629E+03</pdfrwt>
<pdfrwt beam="2">  1       21 0.25082923E+00 0.17858629E+03</pdfrwt>
<totfact> 0.31708869E+04</totfact>
</mgrwt>
</event>
<event>
 4    3  0.4022695E+000  0.2986482E+03  0.7546771E-02  0.1085918E+00
         21   -1    0    0  503  502  0.00000000000E+00  0.00000000000E+00  0.11411382198E+03  0.11411382198E+03  0.00000000000E+00 0. -1.
         21   -1    0    0  501  503 -0.00000000000E+00 -0.00000000000E+00 -0.10503920848E+04  0.10503920848E+04  0.00000000000E+00 0.  1.
          6    1    1    2  501    0 -0.84450473581E+02  0.22831966363E+03 -0.76268202578E+03  0.81906936443E+03  0.17300000000E+03 0.  1.
         -6    1    1    2    0  502  0.84450473581E+02 -0.22831966363E+03 -0.17359623707E+03  0.34543654238E+03  0.17300000000E+03 0. -1.
<mgrwt>
<rscale>  2 0.29864821E+03</rscale>
<asrwt>0</asrwt>
<pdfrwt beam="1">  1       21 0.17555973E-01 0.29864821E+03</pdfrwt>
<pdfrwt beam="2">  1       21 0.16159878E+00 0.29864821E+03</pdfrwt>
<totfact> 0.67103816E+03</totfact>
</mgrwt>
</event>
<event>
 4    3  0.4022695E+000  0.1886333E+03  0.7546771E-02  0.1159700E+00
         21   -1    0    0  503  502  0.00000000000E+00  0.00000000000E+00  0.69776715408E+02  0.69776715408E+02  0.00000000000E+00 0.  1.
         21   -1    0    0  501  503 -0.00000000000E+00 -0.00000000000E+00 -0.22839444086E+04  0.22839444086E+04  0.00000000000E+00 0. -1.
          6    1    1    2  501    0 -0.73759711754E+02 -0.14595639582E+02 -0.21442744132E+04  0.21525555246E+04  0.17300000000E+03 0. -1.
         -6    1    1    2    0  502  0.73759711754E+02  0.14595639582E+02 -0.69893280038E+02  0.20116559936E+03  0.17300000000E+03 0.  1.
<mgrwt>
<rscale>  2 0.18863332E+03</rscale>
<asrwt>0</asrwt>
<pdfrwt beam="1">  1       21 0.10734880E-01 0.18863332E+03</pdfrwt>
<pdfrwt beam="2">  1       21 0.35137605E+00 0.18863332E+03</pdfrwt>
<totfact> 0.12355687E+03</totfact>
</mgrwt>
</event>
<event>
 4    3  0.4022695E+000  0.1829683E+03  0.7546771E-02  0.1164961E+00
         21   -1    0    0  503  502  0.00000000000E+00  0.00000000000E+00  0.29318278442E+03  0.29318278442E+03  0.00000000000E+00 0.  1.
         21   -1    0    0  501  503 -0.00000000000E+00 -0.00000000000E+00 -0.16329849619E+03  0.16329849619E+03  0.00000000000E+00 0.  1.
          6    1    1    2  501    0 -0.58864509061E+02 -0.91296631939E+01 -0.60227123508E+02  0.19262577082E+03  0.17300000000E+03 0.  1.
         -6    1    1    2    0  502  0.58864509061E+02  0.91296631939E+01  0.19011141174E+03  0.26385550980E+03  0.17300000000E+03 0.  1.
<mgrwt>
<rscale>  2 0.18296825E+03</rscale>
<asrwt>0</asrwt>
<pdfrwt beam="1">  1       21 0.45105044E-01 0.18296825E+03</pdfrwt>
<pdfrwt beam="2">  1       21 0.25122846E-01 0.18296825E+03</pdfrwt>
<totfact> 0.71056016E+04</totfact>
</mgrwt>
</event>
<event>
 4    3  0.4022695E+000  0.1930348E+03  0.7546771E-02  0.1155752E+00
         21   -1    0    0  501  502  0.00000000000E+00  0.00000000000E+00  0.36833315568E+03  0.36833315568E+03  0.00000000000E+00 0. -1.
         21   -1    0    0  502  503 -0.00000000000E+00 -0.00000000000E+00 -0.10647839590E+03  0.10647839590E+03  0.00000000000E+00 0. -1.
          6    1    1    2  501    0  0.66376816857E+02  0.54106968840E+02  0.18396013085E+03  0.26665291229E+03  0.17300000000E+03 0.  1.
         -6    1    1    2    0  503 -0.66376816857E+02 -0.54106968840E+02  0.77894628939E+02  0.20815863929E+03  0.17300000000E+03 0.  1.
<mgrwt>
<rscale>  2 0.19303483E+03</rscale>
<asrwt>0</asrwt>
<pdfrwt beam="1">  1       21 0.56666638E-01 0.19303483E+03</pdfrwt>
<pdfrwt beam="2">  1       21 0.16381292E-01 0.19303483E+03</pdfrwt>
<totfact> 0.97769235E+04</totfact>
</mgrwt>
</event>
<event>
 4    3  0.4022695E+000  0.1959289E+03  0.7546771E-02  0.1153220E+00
         21   -1    0    0  503  502  0.00000000000E+00  0.00000000000E+00  0.20684448505E+03  0.20684448505E+03  0.00000000000E+00 0. -1.
         21   -1    0    0  501  503 -0.00000000000E+00 -0.00000000000E+00 -0.24792270788E+03  0.24792270788E+03  0.00000000000E+00 0. -1.
          6    1    1    2  501    0 -0.10017859605E+02  0.91426415485E+02 -0.13455385456E+03  0.23768232315E+03  0.17300000000E+03 0. -1.
         -6    1    1    2    0  502  0.10017859605E+02 -0.91426415485E+02  0.93475631738E+02  0.21708486978E+03  0.17300000000E+03 0. -1.
<mgrwt>
<rscale>  2 0.19592893E+03</rscale>
<asrwt>0</asrwt>
<pdfrwt beam="1">  1       21 0.31822229E-01 0.19592893E+03</pdfrwt>
<pdfrwt beam="2">  1       21 0.38141955E-01 0.19592893E+03</pdfrwt>
<totfact> 0.62851936E+04</totfact>
</mgrwt>
</event>
<event>
 4    3  0.4022695E+000  0.2864866E+03  0.7546771E-02  0.1092198E+00
         21   -1    0    0  501  502  0.00000000000E+00  0.00000000000E+00  0.65776370532E+02  0.65776370532E+02  0.00000000000E+00 0. -1.
         21   -1    0    0  502  503 -0.00000000000E+00 -0.00000000000E+00 -0.12511285160E+04  0.12511285160E+04  0.00000000000E+00 0.  1.
          6    1    1    2  501    0 -0.92717227900E+02 -0.20868422246E+03 -0.55862331665E+03  0.62780140089E+03  0.17300000000E+03 0. -1.
         -6    1    1    2    0  503  0.92717227900E+02  0.20868422246E+03 -0.62672882885E+03  0.68910348567E+03  0.17300000000E+03 0.  1.
<mgrwt>
<rscale>  2 0.28648663E+03</rscale>
<asrwt>0</asrwt>
<pdfrwt beam="1">  1       21 0.10119441E-01 0.28648663E+03</pdfrwt>
<pdfrwt beam="2">  1       21 0.19248132E+00 0.28648663E+03</pdfrwt>
<totfact> 0.11199427E+04</totfact>
</mgrwt>
</event>
<event>
 4    3  0.4022695E+000  0.2456595E+03  0.7546771E-02  0.1116079E+00
         21   -1    0    0  501  502  0.00000000000E+00  0.00000000000E+00  0.45002096265E+03  0.45002096265E+03  0.00000000000E+00 0.  1.
         21   -1    0    0  502  503 -0.00000000000E+00 -0.00000000000E+00 -0.14068885178E+03  0.14068885178E+03  0.00000000000E+00 0.  1.
          6    1    1    2  501    0  0.53387926425E+02 -0.16604018686E+03  0.90757296448E+02  0.26188833727E+03  0.17300000000E+03 0.  1.
         -6    1    1    2    0  503 -0.53387926425E+02  0.16604018686E+03  0.21857481443E+03  0.32882147716E+03  0.17300000000E+03 0.  1.
<mgrwt>
<rscale>  2 0.24565955E+03</rscale>
<asrwt>0</asrwt>
<pdfrwt beam="1">  1       21 0.69233994E-01 0.24565955E+03</pdfrwt>
<pdfrwt beam="2">  1       21 0.21644439E-01 0.24565955E+03</pdfrwt>
<totfact> 0.36822254E+04</totfact>
</mgrwt>
</event>
<event>
 4    3  0.4022695E+000  0.2598192E+03  0.7546771E-02  0.1107252E+00
         21   -1    0    0  503  502  0.00000000000E+00  0.00000000000E+00  0.19501767345E+04  0.19501767345E+04  0.00000000000E+00 0. -1.
         21   -1    0    0  501  503 -0.00000000000E+00 -0.00000000000E+00 -0.35900944202E+02  0.35900944202E+02  0.00000000000E+00 0. -1.
          6    1    1    2  501    0  0.19259925417E+03  0.21966543375E+02  0.76921943208E+03  0.81191411887E+03  0.17300000000E+03 0. -1.
         -6    1    1    2    0  502 -0.19259925417E+03 -0.21966543375E+02  0.11450563582E+04  0.11741635598E+04  0.17300000000E+03 0. -1.
<mgrwt>
<rscale>  2 0.25981917E+03</rscale>
<asrwt>0</asrwt>
<pdfrwt beam="1">  1       21 0.30002711E+00 0.25981917E+03</pdfrwt>
<pdfrwt beam="2">  1       21 0.55232237E-02 0.25981917E+03</pdfrwt>
<totfact> 0.72648035E+03</totfact>
</mgrwt>
</event>
<event>
 4    3  0.4022695E+000  0.2252597E+03  0.7546771E-02  0.1130021E+00
         21   -1    0    0  503  502  0.00000000000E+00  0.00000000000E+00  0.22698949104E+03  0.22698949104E+03  0.00000000000E+00 0.  1.
         21   -1    0    0  501  503 -0.00000000000E+00 -0.00000000000E+00 -0.23908337614E+03  0.23908337614E+03  0.00000000000E+00 0. -1.
          6    1    1    2  501    0  0.51836461892E+02  0.13463245127E+03 -0.65459692870E+02  0.23457810449E+03  0.17300000000E+03 0. -1.
         -6    1    1    2    0  502 -0.51836461892E+02 -0.13463245127E+03  0.53365807768E+02  0.23149476270E+03  0.17300000000E+03 0. -1.
<mgrwt>
<rscale>  2 0.22525966E+03</rscale>
<asrwt>0</asrwt>
<pdfrwt beam="1">  1       21 0.34921460E-01 0.22525966E+03</pdfrwt>
<pdfrwt beam="2">  1       21 0.36782058E-01 0.22525966E+03</pdfrwt>
<totfact> 0.55516882E+04</totfact>
</mgrwt>
</event>
<event>
 4    3  0.4022695E+000  0.1977845E+03  0.7546771E-02  0.1151622E+00
         21   -1    0    0  503  502  0.00000000000E+00  0.00000000000E+00  0.43118174422E+02  0.43118174422E+02  0.00000000000E+00 0. -1.
         21   -1    0    0  501  503 -0.00000000000E+00 -0.00000000000E+00 -0.14304298409E+04  0.14304298409E+04  0.00000000000E+00 0. -1.
          6    1    1    2  501    0  0.80546002328E+02 -0.51981281690E+02 -0.11392391666E+04  0.11562804984E+04  0.17300000000E+03 0. -1.
         -6    1    1    2    0  502 -0.80546002328E+02  0.51981281690E+02 -0.24807249990E+03  0.31726751700E+03  0.17300000000E+03 0. -1.
<mgrwt>
<rscale>  2 0.19778451E+03</rscale>
<asrwt>0</asrwt>
<pdfrwt beam="1">  1       21 0.66335661E-02 0.19778451E+03</pdfrwt>
<pdfrwt beam="2">  1       21 0.22006610E+00 0.19778451E+03</pdfrwt>
<totfact> 0.16609429E+04</totfact>
</mgrwt>
</event>
<event>
 4    3  0.4022695E+000  0.1740192E+03  0.7546771E-02  0.1173720E+00
         21   -1    0    0  501  502  0.00000000000E+00  0.00000000000E+00  0.49306228908E+03  0.49306228908E+03  0.00000000000E+00 0. -1.
         21   -1    0    0  502  503 -0.00000000000E+00 -0.00000000000E+00 -0.10448512896E+03  0.10448512896E+03  0.00000000000E+00 0. -1.
          6    1    1    2  501    0  0.17067013195E+02 -0.78982968661E+01  0.38610707830E+03  0.42351073416E+03  0.17300000000E+03 0. -1.
         -6    1    1    2    0  503 -0.17067013195E+02  0.78982968661E+01  0.24700818186E+01  0.17403668388E+03  0.17300000000E+03 0. -1.
<mgrwt>
<rscale>  2 0.17401915E+03</rscale>
<asrwt>0</asrwt>
<pdfrwt beam="1">  1       21 0.75855735E-01 0.17401915E+03</pdfrwt>
<pdfrwt beam="2">  1       21 0.16074636E-01 0.17401915E+03</pdfrwt>
<totfact> 0.54069899E+04</totfact>
</mgrwt>
</event>
<event>
 4    3  0.4022695E+000  0.2340033E+03  0.7546771E-02  0.1123853E+00
         21   -1    0    0  503  502  0.00000000000E+00  0.00000000000E+00  0.69306235321E+02  0.69306235321E+02  0.00000000000E+00 0. -1.
         21   -1    0    0  501  503 -0.00000000000E+00 -0.00000000000E+00 -0.18499160803E+04  0.18499160803E+04  0.00000000000E+00 0.  1.
          6    1    1    2  501    0  0.49786474626E+02 -0.14949873955E+03 -0.16166422141E+04  0.16334900105E+04  0.17300000000E+03 0.  1.
         -6    1    1    2    0  502 -0.49786474626E+02  0.14949873955E+03 -0.16396763089E+03  0.28573230507E+03  0.17300000000E+03 0. -1.
<mgrwt>
<rscale>  2 0.23400335E+03</rscale>
<asrwt>0</asrwt>
<pdfrwt beam="1">  1       21 0.10662498E-01 0.23400335E+03</pdfrwt>
<pdfrwt beam="2">  1       21 0.28460246E+00 0.23400335E+03</pdfrwt>
<totfact> 0.28984648E+03</totfact>
</mgrwt>
</event>
<event>
 4    3  0.4022695E+000  0.3087316E+03  0.7546771E-02  0.1080955E+00
         21   -1    0    0  503  502  0.00000000000E+00  0.00000000000E+00  0.66099010705E+02  0.66099010705E+02  0.00000000000E+00 0. -1.
         21   -1    0    0  501  503 -0.00000000000E+00 -0.00000000000E+00 -0.23307788741E+04  0.23307788741E+04  0.00000000000E+00 0. -1.
          6    1    1    2  501    0 -0.28293031300E+02  0.25413717130E+03 -0.18723892627E+04  0.18976714016E+04  0.17300000000E+03 0. -1.
         -6    1    1    2    0  502  0.28293031300E+02 -0.25413717130E+03 -0.39229060067E+03  0.49920648316E+03  0.17300000000E+03 0. -1.
<mgrwt>
<rscale>  2 0.30873159E+03</rscale>
<asrwt>0</asrwt>
<pdfrwt beam="1">  1       21 0.10169080E-01 0.30873159E+03</pdfrwt>
<pdfrwt beam="2">  1       21 0.35858132E+00 0.30873159E+03</pdfrwt>
<totfact> 0.10742603E+03</totfact>
</mgrwt>
</event>
<event>
 4    3  0.4022695E+000  0.2085739E+03  0.7546771E-02  0.1142700E+00
         21   -1    0    0  503  502  0.00000000000E+00  0.00000000000E+00  0.83244350965E+02  0.83244350965E+02  0.00000000000E+00 0.  1.
         21   -1    0    0  501  503 -0.00000000000E+00 -0.00000000000E+00 -0.80323630585E+03  0.80323630585E+03  0.00000000000E+00 0.  1.
          6    1    1    2  501    0  0.87100075557E+02 -0.77379940791E+02 -0.62199123424E+03  0.65603061962E+03  0.17300000000E+03 0.  1.
         -6    1    1    2    0  502 -0.87100075557E+02  0.77379940791E+02 -0.98000720643E+02  0.23045003720E+03  0.17300000000E+03 0.  1.
<mgrwt>
<rscale>  2 0.20857392E+03</rscale>
<asrwt>0</asrwt>
<pdfrwt beam="1">  1       21 0.12806824E-01 0.20857392E+03</pdfrwt>
<pdfrwt beam="2">  1       21 0.12357481E+00 0.20857392E+03</pdfrwt>
<totfact> 0.25386747E+04</totfact>
</mgrwt>
</event>
<event>
 4    3  0.4022695E+000  0.1775139E+03  0.7546771E-02  0.1170231E+00
         21   -1    0    0  503  502  0.00000000000E+00  0.00000000000E+00  0.16692204535E+03  0.16692204535E+03  0.00000000000E+00 0. -1.
         21   -1    0    0  501  503 -0.00000000000E+00 -0.00000000000E+00 -0.33900186534E+03  0.33900186534E+03  0.00000000000E+00 0. -1.
          6    1    1    2  501    0  0.19177151645E+02 -0.34848708992E+02 -0.25443280173E+03  0.31023740307E+03  0.17300000000E+03 0. -1.
         -6    1    1    2    0  502 -0.19177151645E+02  0.34848708992E+02  0.82352981739E+02  0.19568650762E+03  0.17300000000E+03 0. -1.
<mgrwt>
<rscale>  2 0.17751393E+03</rscale>
<asrwt>0</asrwt>
<pdfrwt beam="1">  1       21 0.25680315E-01 0.17751393E+03</pdfrwt>
<pdfrwt beam="2">  1       21 0.52154133E-01 0.17751393E+03</pdfrwt>
<totfact> 0.50558157E+04</totfact>
</mgrwt>
</event>
<event>
 4    3  0.4022695E+000  0.2085977E+03  0.7546771E-02  0.1142681E+00
         21   -1    0    0  503  502  0.00000000000E+00  0.00000000000E+00  0.78459882569E+02  0.78459882569E+02  0.00000000000E+00 0.  1.
         21   -1    0    0  501  503 -0.00000000000E+00 -0.00000000000E+00 -0.61386497491E+03  0.61386497491E+03  0.00000000000E+00 0.  1.
          6    1    1    2  501    0  0.93157872278E+02  0.70040187111E+02 -0.16013494268E+03  0.26297569630E+03  0.17300000000E+03 0.  1.
         -6    1    1    2    0  502 -0.93157872278E+02 -0.70040187111E+02 -0.37527014965E+03  0.42934916117E+03  0.17300000000E+03 0.  1.
<mgrwt>
<rscale>  2 0.20859774E+03</rscale>
<asrwt>0</asrwt>
<pdfrwt beam="1">  1       21 0.12070751E-01 0.20859774E+03</pdfrwt>
<pdfrwt beam="2">  1       21 0.94440765E-01 0.20859774E+03</pdfrwt>
<totfact> 0.54109527E+04</totfact>
</mgrwt>
</event>
<event>
 4    3  0.4022695E+000  0.2707678E+03  0.7546771E-02  0.1100841E+00
         21   -1    0    0  501  502  0.00000000000E+00  0.00000000000E+00  0.13901316064E+04  0.13901316064E+04  0.00000000000E+00 0.  1.
         21   -1    0    0  502  503 -0.00000000000E+00 -0.00000000000E+00 -0.52802652856E+02  0.52802652856E+02  0.00000000000E+00 0. -1.
          6    1    1    2  501    0 -0.15861067808E+03 -0.13501419243E+03  0.69356787946E+03  0.74454790496E+03  0.17300000000E+03 0.  1.
         -6    1    1    2    0  503  0.15861067808E+03  0.13501419243E+03  0.64376107404E+03  0.69838635426E+03  0.17300000000E+03 0. -1.
<mgrwt>
<rscale>  2 0.27076776E+03</rscale>
<asrwt>0</asrwt>
<pdfrwt beam="1">  1       21 0.21386637E+00 0.27076776E+03</pdfrwt>
<pdfrwt beam="2">  1       21 0.81234861E-02 0.27076776E+03</pdfrwt>
<totfact> 0.12115514E+04</totfact>
</mgrwt>
</event>
<event>
 4    3  0.4022695E+000  0.2893468E+03  0.7546771E-02  0.1090691E+00
         21   -1    0    0  503  502  0.00000000000E+00  0.00000000000E+00  0.21752208934E+03  0.21752208934E+03  0.00000000000E+00 0. -1.
         21   -1    0    0  501  503 -0.00000000000E+00 -0.00000000000E+00 -0.41473992279E+03  0.41473992279E+03  0.00000000000E+00 0. -1.
          6    1    1    2  501    0 -0.22747666754E+03  0.45243325381E+02 -0.18342280443E+03  0.34258651163E+03  0.17300000000E+03 0. -1.
         -6    1    1    2    0  502  0.22747666754E+03 -0.45243325381E+02 -0.13795029014E+02  0.28967550050E+03  0.17300000000E+03 0. -1.
<mgrwt>
<rscale>  2 0.28934684E+03</rscale>
<asrwt>0</asrwt>
<pdfrwt beam="1">  1       21 0.33464938E-01 0.28934684E+03</pdfrwt>
<pdfrwt beam="2">  1       21 0.63806141E-01 0.28934684E+03</pdfrwt>
<totfact> 0.18570685E+04</totfact>
</mgrwt>
</event>
<event>
 4    3  0.4022695E+000  0.1765688E+03  0.7546771E-02  0.1171166E+00
         21   -1    0    0  501  502  0.00000000000E+00  0.00000000000E+00  0.43331466901E+02  0.43331466901E+02  0.00000000000E+00 0.  1.
         21   -1    0    0  502  503 -0.00000000000E+00 -0.00000000000E+00 -0.10206727953E+04  0.10206727953E+04  0.00000000000E+00 0.  1.
          6    1    1    2  501    0  0.32507308603E+02 -0.13813877167E+02 -0.19967899154E+03  0.26654877223E+03  0.17300000000E+03 0.  1.
         -6    1    1    2    0  503 -0.32507308603E+02  0.13813877167E+02 -0.77766233681E+03  0.79745548992E+03  0.17300000000E+03 0.  1.
<mgrwt>
<rscale>  2 0.17656882E+03</rscale>
<asrwt>0</asrwt>
<pdfrwt beam="1">  1       21 0.66663801E-02 0.17656882E+03</pdfrwt>
<pdfrwt beam="2">  1       21 0.15702657E+00 0.17656882E+03</pdfrwt>
<totfact> 0.43979596E+04</totfact>
</mgrwt>
</event>
<event>
 4    3  0.4022695E+000  0.1801736E+03  0.7546771E-02  0.1167635E+00
         21   -1    0    0  501  502  0.00000000000E+00  0.00000000000E+00  0.34840801603E+04  0.34840801603E+04  0.00000000000E+00 0.  1.
         21   -1    0    0  502  503 -0.00000000000E+00 -0.00000000000E+00 -0.95246987919E+01  0.95246987919E+01  0.00000000000E+00 0.  1.
          6    1    1    2  501    0  0.36214414345E+02 -0.34957569685E+02  0.14795670121E+04  0.14904969167E+04  0.17300000000E+03 0.  1.
         -6    1    1    2    0  503 -0.36214414345E+02  0.34957569685E+02  0.19949884494E+04  0.20031079424E+04  0.17300000000E+03 0.  1.
<mgrwt>
<rscale>  2 0.18017357E+03</rscale>
<asrwt>0</asrwt>
<pdfrwt beam="1">  1       21 0.53601132E+00 0.18017357E+03</pdfrwt>
<pdfrwt beam="2">  1       21 0.14653411E-02 0.18017357E+03</pdfrwt>
<totfact> 0.21647642E+03</totfact>
</mgrwt>
</event>
<event>
 4    3  0.4022695E+000  0.1990119E+03  0.7546771E-02  0.1150575E+00
         21   -1    0    0  503  502  0.00000000000E+00  0.00000000000E+00  0.20745252922E+03  0.20745252922E+03  0.00000000000E+00 0. -1.
         21   -1    0    0  501  503 -0.00000000000E+00 -0.00000000000E+00 -0.23252923821E+03  0.23252923821E+03  0.00000000000E+00 0. -1.
          6    1    1    2  501    0 -0.81313159189E+02  0.55361735221E+02 -0.10560371897E+03  0.22529513320E+03  0.17300000000E+03 0. -1.
         -6    1    1    2    0  502  0.81313159189E+02 -0.55361735221E+02  0.80527009975E+02  0.21468663424E+03  0.17300000000E+03 0. -1.
<mgrwt>
<rscale>  2 0.19901194E+03</rscale>
<asrwt>0</asrwt>
<pdfrwt beam="1">  1       21 0.31915774E-01 0.19901194E+03</pdfrwt>
<pdfrwt beam="2">  1       21 0.35773729E-01 0.19901194E+03</pdfrwt>
<totfact> 0.70934934E+04</totfact>
</mgrwt>
</event>
<event>
 4    3  0.4022695E+000  0.2185196E+03  0.7546771E-02  0.1134992E+00
         21   -1    0    0  503  502  0.00000000000E+00  0.00000000000E+00  0.29216187622E+04  0.29216187622E+04  0.00000000000E+00 0. -1.
         21   -1    0    0  501  503 -0.00000000000E+00 -0.00000000000E+00 -0.16460695271E+02  0.16460695271E+02  0.00000000000E+00 0.  1.
          6    1    1    2  501    0 -0.18805563761E+02 -0.13216726164E+03  0.15762881000E+04  0.15913626263E+04  0.17300000000E+03 0. -1.
         -6    1    1    2    0  502  0.18805563761E+02  0.13216726164E+03  0.13288699670E+04  0.13467168312E+04  0.17300000000E+03 0.  1.
<mgrwt>
<rscale>  2 0.21851964E+03</rscale>
<asrwt>0</asrwt>
<pdfrwt beam="1">  1       21 0.44947940E+00 0.21851964E+03</pdfrwt>
<pdfrwt beam="2">  1       21 0.25324170E-02 0.21851964E+03</pdfrwt>
<totfact> 0.33869969E+03</totfact>
</mgrwt>
</event>
<event>
 4    3  0.4022695E+000  0.1748517E+03  0.7546771E-02  0.1172881E+00
         21   -1    0    0  503  502  0.00000000000E+00  0.00000000000E+00  0.35308732736E+02  0.35308732736E+02  0.00000000000E+00 0. -1.
         21   -1    0    0  501  503 -0.00000000000E+00 -0.00000000000E+00 -0.96810938460E+03  0.96810938460E+03  0.00000000000E+00 0. -1.
          6    1    1    2  501    0  0.17852061071E+02  0.18039164047E+02 -0.62943451297E+03  0.65326940357E+03  0.17300000000E+03 0. -1.
         -6    1    1    2    0  502 -0.17852061071E+02 -0.18039164047E+02 -0.30336613889E+03  0.35014871376E+03  0.17300000000E+03 0. -1.
<mgrwt>
<rscale>  2 0.17485167E+03</rscale>
<asrwt>0</asrwt>
<pdfrwt beam="1">  1       21 0.54321131E-02 0.17485167E+03</pdfrwt>
<pdfrwt beam="2">  1       21 0.14893989E+00 0.17485167E+03</pdfrwt>
<totfact> 0.71817280E+04</totfact>
</mgrwt>
</event>
<event>
 4    3  0.4022695E+000  0.2608480E+03  0.7546771E-02  0.1106635E+00
         21   -1    0    0  501  502  0.00000000000E+00  0.00000000000E+00  0.15608622658E+03  0.15608622658E+03  0.00000000000E+00 0. -1.
         21   -1    0    0  502  503 -0.00000000000E+00 -0.00000000000E+00 -0.44583983761E+03  0.44583983761E+03  0.00000000000E+00 0. -1.
          6    1    1    2  501    0  0.28980654819E+02  0.19306162367E+03 -0.18976140022E+03  0.32256946213E+03  0.17300000000E+03 0. -1.
         -6    1    1    2    0  503 -0.28980654819E+02 -0.19306162367E+03 -0.99992210810E+02  0.27935660205E+03  0.17300000000E+03 0. -1.
<mgrwt>
<rscale>  2 0.26084798E+03</rscale>
<asrwt>0</asrwt>
<pdfrwt beam="1">  1       21 0.24013265E-01 0.26084798E+03</pdfrwt>
<pdfrwt beam="2">  1       21 0.68590745E-01 0.26084798E+03</pdfrwt>
<totfact> 0.30646803E+04</totfact>
</mgrwt>
</event>
<event>
 4    3  0.4022695E+000  0.2102059E+03  0.7546771E-02  0.1141403E+00
         21   -1    0    0  503  502  0.00000000000E+00  0.00000000000E+00  0.10443650396E+03  0.10443650396E+03  0.00000000000E+00 0. -1.
         21   -1    0    0  501  503 -0.00000000000E+00 -0.00000000000E+00 -0.44920596345E+03  0.44920596345E+03  0.00000000000E+00 0.  1.
          6    1    1    2  501    0  0.77182759730E+01  0.11915523093E+03 -0.23912528687E+03  0.31838254296E+03  0.17300000000E+03 0.  1.
         -6    1    1    2    0  502 -0.77182759730E+01 -0.11915523093E+03 -0.10564417262E+03  0.23525992445E+03  0.17300000000E+03 0.  1.
<mgrwt>
<rscale>  2 0.21020595E+03</rscale>
<asrwt>0</asrwt>
<pdfrwt beam="1">  1       21 0.16067154E-01 0.21020595E+03</pdfrwt>
<pdfrwt beam="2">  1       21 0.69108610E-01 0.21020595E+03</pdfrwt>
<totfact> 0.65421128E+04</totfact>
</mgrwt>
</event>
<event>
 4    3  0.4022695E+000  0.1970264E+03  0.7546771E-02  0.1152272E+00
         21   -1    0    0  501  502  0.00000000000E+00  0.00000000000E+00  0.67504533362E+03  0.67504533362E+03  0.00000000000E+00 0.  1.
         21   -1    0    0  502  503 -0.00000000000E+00 -0.00000000000E+00 -0.59804271033E+02  0.59804271033E+02  0.00000000000E+00 0. -1.
          6    1    1    2  501    0  0.90912036333E+02 -0.25008225456E+02  0.37964293528E+03  0.42772440660E+03  0.17300000000E+03 0. -1.
         -6    1    1    2    0  503 -0.90912036333E+02  0.25008225456E+02  0.23559812731E+03  0.30712519806E+03  0.17300000000E+03 0. -1.
<mgrwt>
<rscale>  2 0.19702642E+03</rscale>
<asrwt>0</asrwt>
<pdfrwt beam="1">  1       21 0.10385312E+00 0.19702642E+03</pdfrwt>
<pdfrwt beam="2">  1       21 0.92006576E-02 0.19702642E+03</pdfrwt>
<totfact> 0.70344803E+04</totfact>
</mgrwt>
</event>
<event>
 4    3  0.4022695E+000  0.1735790E+03  0.7546771E-02  0.1174166E+00
         21   -1    0    0  503  502  0.00000000000E+00  0.00000000000E+00  0.46599512761E+02  0.46599512761E+02  0.00000000000E+00 0. -1.
         21   -1    0    0  501  503 -0.00000000000E+00 -0.00000000000E+00 -0.11512545478E+04  0.11512545478E+04  0.00000000000E+00 0. -1.
          6    1    1    2  501    0 -0.11664011921E+02 -0.80385448822E+01 -0.15577574406E+03  0.23322896436E+03  0.17300000000E+03 0. -1.
         -6    1    1    2    0  502  0.11664011921E+02  0.80385448822E+01 -0.94887929097E+03  0.96462509619E+03  0.17300000000E+03 0. -1.
<mgrwt>
<rscale>  2 0.17357899E+03</rscale>
<asrwt>0</asrwt>
<pdfrwt beam="1">  1       21 0.71691561E-02 0.17357899E+03</pdfrwt>
<pdfrwt beam="2">  1       21 0.17711608E+00 0.17357899E+03</pdfrwt>
<totfact> 0.28006179E+04</totfact>
</mgrwt>
</event>
<event>
 4    3  0.4022695E+000  0.2126985E+03  0.7546771E-02  0.1139447E+00
         21   -1    0    0  503  502  0.00000000000E+00  0.00000000000E+00  0.10868334919E+04  0.10868334919E+04  0.00000000000E+00 0.  1.
         21   -1    0    0  501  503 -0.00000000000E+00 -0.00000000000E+00 -0.91247152999E+02  0.91247152999E+02  0.00000000000E+00 0.  1.
          6    1    1    2  501    0 -0.60360243955E+02  0.10801978121E+03  0.63414608976E+02  0.22195054588E+03  0.17300000000E+03 0.  1.
         -6    1    1    2    0  502  0.60360243955E+02 -0.10801978121E+03  0.93217172995E+03  0.95613009905E+03  0.17300000000E+03 0.  1.
<mgrwt>
<rscale>  2 0.21269845E+03</rscale>
<asrwt>0</asrwt>
<pdfrwt beam="1">  1       21 0.16720514E+00 0.21269845E+03</pdfrwt>
<pdfrwt beam="2">  1       21 0.14038024E-01 0.21269845E+03</pdfrwt>
<totfact> 0.97294109E+03</totfact>
</mgrwt>
</event>
<event>
 4    3  0.4022695E+000  0.1874955E+03  0.7546771E-02  0.1160740E+00
         21   -1    0    0  503  502  0.00000000000E+00  0.00000000000E+00  0.51392456733E+03  0.51392456733E+03  0.00000000000E+00 0.  1.
         21   -1    0    0  501  503 -0.00000000000E+00 -0.00000000000E+00 -0.73186474023E+02  0.73186474023E+02  0.00000000000E+00 0.  1.
          6    1    1    2  501    0 -0.43649499207E+02  0.57621978406E+02  0.14532875432E+03  0.23722356124E+03  0.17300000000E+03 0.  1.
         -6    1    1    2    0  502  0.43649499207E+02 -0.57621978406E+02  0.29540933898E+03  0.34988748011E+03  0.17300000000E+03 0.  1.
<mgrwt>
<rscale>  2 0.18749552E+03</rscale>
<asrwt>0</asrwt>
<pdfrwt beam="1">  1       21 0.79065316E-01 0.18749552E+03</pdfrwt>
<pdfrwt beam="2">  1       21 0.11259458E-01 0.18749552E+03</pdfrwt>
<totfact> 0.93051216E+04</totfact>
</mgrwt>
</event>
<event>
 4    3  0.4022695E+000  0.1858439E+03  0.7546771E-02  0.1162264E+00
         21   -1    0    0  501  502  0.00000000000E+00  0.00000000000E+00  0.15041931321E+03  0.15041931321E+03  0.00000000000E+00 0. -1.
         21   -1    0    0  502  503 -0.00000000000E+00 -0.00000000000E+00 -0.66542769206E+03  0.66542769206E+03  0.00000000000E+00 0. -1.
          6    1    1    2  501    0 -0.30166927345E+02 -0.60818573707E+02  0.72622151475E+02  0.19952924422E+03  0.17300000000E+03 0. -1.
         -6    1    1    2    0  503  0.30166927345E+02  0.60818573707E+02 -0.58763053033E+03  0.61631776105E+03  0.17300000000E+03 0. -1.
<mgrwt>
<rscale>  2 0.18584387E+03</rscale>
<asrwt>0</asrwt>
<pdfrwt beam="1">  1       21 0.23141433E-01 0.18584387E+03</pdfrwt>
<pdfrwt beam="2">  1       21 0.10237349E+00 0.18584387E+03</pdfrwt>
<totfact> 0.13681344E+04</totfact>
</mgrwt>
</event>
<event>
 4    3  0.4022695E+000  0.4743831E+03  0.7546771E-02  0.1020690E+00
         21   -1    0    0  503  502  0.00000000000E+00  0.00000000000E+00  0.27167786361E+03  0.27167786361E+03  0.00000000000E+00 0.  1.
         21   -1    0    0  501  503 -0.00000000000E+00 -0.00000000000E+00 -0.10144727434E+04  0.10144727434E+04  0.00000000000E+00 0. -1.
          6    1    1    2  501    0  0.31907004851E+03  0.30545800778E+03 -0.64686034608E+03  0.80216432089E+03  0.17300000000E+03 0. -1.
         -6    1    1    2    0  502 -0.31907004851E+03 -0.30545800778E+03 -0.95934533673E+02  0.48398628609E+03  0.17300000000E+03 0.  1.
<mgrwt>
<rscale>  2 0.47438306E+03</rscale>
<asrwt>0</asrwt>
<pdfrwt beam="1">  1       21 0.41796594E-01 0.47438306E+03</pdfrwt>
<pdfrwt beam="2">  1       21 0.15607273E+00 0.47438306E+03</pdfrwt>
<totfact> 0.12439039E+03</totfact>
</mgrwt>
</event>
<event>
 4    3  0.4022695E+000  0.2846816E+03  0.7546771E-02  0.1093159E+00
         21   -1    0    0  501  502  0.00000000000E+00  0.00000000000E+00  0.30030635816E+03  0.30030635816E+03  0.00000000000E+00 0.  1.
         21   -1    0    0  502  503 -0.00000000000E+00 -0.00000000000E+00 -0.28127163168E+03  0.28127163168E+03  0.00000000000E+00 0. -1.
          6    1    1    2  501    0  0.18278131202E+03  0.13306233873E+03 -0.49029517123E+02  0.28887278785E+03  0.17300000000E+03 0. -1.
         -6    1    1    2    0  503 -0.18278131202E+03 -0.13306233873E+03  0.68064243597E+02  0.29270520199E+03  0.17300000000E+03 0.  1.
<mgrwt>
<rscale>  2 0.28468157E+03</rscale>
<asrwt>0</asrwt>
<pdfrwt beam="1">  1       21 0.46200978E-01 0.28468157E+03</pdfrwt>
<pdfrwt beam="2">  1       21 0.43272559E-01 0.28468157E+03</pdfrwt>
<totfact> 0.22014136E+04</totfact>
</mgrwt>
</event>
<event>
 4    3  0.4022695E+000  0.2087065E+03  0.7546771E-02  0.1142594E+00
         21   -1    0    0  503  502  0.00000000000E+00  0.00000000000E+00  0.26596346209E+03  0.26596346209E+03  0.00000000000E+00 0.  1.
         21   -1    0    0  501  503 -0.00000000000E+00 -0.00000000000E+00 -0.16800875712E+03  0.16800875712E+03  0.00000000000E+00 0.  1.
          6    1    1    2  501    0  0.59715909058E+02 -0.10031651826E+03  0.14535615746E+02  0.20921204018E+03  0.17300000000E+03 0.  1.
         -6    1    1    2    0  502 -0.59715909058E+02  0.10031651826E+03  0.83419089229E+02  0.22476017903E+03  0.17300000000E+03 0.  1.
<mgrwt>
<rscale>  2 0.20870648E+03</rscale>
<asrwt>0</asrwt>
<pdfrwt beam="1">  1       21 0.40917456E-01 0.20870648E+03</pdfrwt>
<pdfrwt beam="2">  1       21 0.25847501E-01 0.20870648E+03</pdfrwt>
<totfact> 0.81205052E+04</totfact>
</mgrwt>
</event>
<event>
 4    3  0.4022695E+000  0.1750131E+03  0.7546771E-02  0.1172719E+00
         21   -1    0    0  503  502  0.00000000000E+00  0.00000000000E+00  0.12894896548E+03  0.12894896548E+03  0.00000000000E+00 0. -1.
         21   -1    0    0  501  503 -0.00000000000E+00 -0.00000000000E+00 -0.32501550490E+03  0.32501550490E+03  0.00000000000E+00 0. -1.
          6    1    1    2  501    0  0.26439274116E+02 -0.12506135648E+01 -0.21579416920E+03  0.27784298212E+03  0.17300000000E+03 0.  1.
         -6    1    1    2    0  502 -0.26439274116E+02  0.12506135648E+01  0.19727629779E+02  0.17612148826E+03  0.17300000000E+03 0.  1.
<mgrwt>
<rscale>  2 0.17501314E+03</rscale>
<asrwt>0</asrwt>
<pdfrwt beam="1">  1       21 0.19838303E-01 0.17501314E+03</pdfrwt>
<pdfrwt beam="2">  1       21 0.50002385E-01 0.17501314E+03</pdfrwt>
<totfact> 0.89918132E+04</totfact>
</mgrwt>
</event>
<event>
 4    3  0.4022695E+000  0.2402789E+03  0.7546771E-02  0.1119607E+00
         21   -1    0    0  501  502  0.00000000000E+00  0.00000000000E+00  0.11210635047E+04  0.11210635047E+04  0.00000000000E+00 0.  1.
         21   -1    0    0  502  503 -0.00000000000E+00 -0.00000000000E+00 -0.74991693245E+02  0.74991693245E+02  0.00000000000E+00 0.  1.
          6    1    1    2  501    0 -0.39972860247E+02 -0.16188616277E+03  0.85775346556E+03  0.89077211841E+03  0.17300000000E+03 0.  1.
         -6    1    1    2    0  503  0.39972860247E+02  0.16188616277E+03  0.18831834591E+03  0.30528307955E+03  0.17300000000E+03 0.  1.
<mgrwt>
<rscale>  2 0.24027892E+03</rscale>
<asrwt>0</asrwt>
<pdfrwt beam="1">  1       21 0.17247130E+00 0.24027892E+03</pdfrwt>
<pdfrwt beam="2">  1       21 0.11537184E-01 0.24027892E+03</pdfrwt>
<totfact> 0.12481822E+04</totfact>
</mgrwt>
</event>
<event>
 4    3  0.4022695E+000  0.2511265E+03  0.7546771E-02  0.1112595E+00
         21   -1    0    0  501  502  0.00000000000E+00  0.00000000000E+00  0.16674269847E+03  0.16674269847E+03  0.00000000000E+00 0. -1.
         21   -1    0    0  502  503 -0.00000000000E+00 -0.00000000000E+00 -0.38010703275E+03  0.38010703275E+03  0.00000000000E+00 0.  1.
          6    1    1    2  501    0  0.11236917516E+03  0.14320850710E+03 -0.12597542577E+03  0.28095251543E+03  0.17300000000E+03 0.  1.
         -6    1    1    2    0  503 -0.11236917516E+03 -0.14320850710E+03 -0.87388908507E+02  0.26589721578E+03  0.17300000000E+03 0.  1.
<mgrwt>
<rscale>  2 0.25112648E+03</rscale>
<asrwt>0</asrwt>
<pdfrwt beam="1">  1       21 0.25652723E-01 0.25112648E+03</pdfrwt>
<pdfrwt beam="2">  1       21 0.58478004E-01 0.25112648E+03</pdfrwt>
<totfact> 0.38396660E+04</totfact>
</mgrwt>
</event>
<event>
 4    3  0.4022695E+000  0.1894147E+03  0.7546771E-02  0.1158990E+00
         21   -1    0    0  501  502  0.00000000000E+00  0.00000000000E+00  0.37411438020E+02  0.37411438020E+02  0.00000000000E+00 0. -1.
         21   -1    0    0  502  503 -0.00000000000E+00 -0.00000000000E+00 -0.12226108533E+04  0.12226108533E+04  0.00000000000E+00 0. -1.
          6    1    1    2  501    0  0.76898564243E+02  0.59611234483E+01 -0.88513477455E+03  0.90517484129E+03  0.17300000000E+03 0. -1.
         -6    1    1    2    0  503 -0.76898564243E+02 -0.59611234483E+01 -0.30006464068E+03  0.35484744999E+03  0.17300000000E+03 0. -1.
<mgrwt>
<rscale>  2 0.18941469E+03</rscale>
<asrwt>0</asrwt>
<pdfrwt beam="1">  1       21 0.57556059E-02 0.18941469E+03</pdfrwt>
<pdfrwt beam="2">  1       21 0.18809398E+00 0.18941469E+03</pdfrwt>
<totfact> 0.34065737E+04</totfact>
</mgrwt>
</event>
<event>
 4    3  0.4022695E+000  0.1841364E+03  0.7546771E-02  0.1163859E+00
         21   -1    0    0  503  502  0.00000000000E+00  0.00000000000E+00  0.33401930541E+03  0.33401930541E+03  0.00000000000E+00 0. -1.
         21   -1    0    0  501  503 -0.00000000000E+00 -0.00000000000E+00 -0.10484722084E+03  0.10484722084E+03  0.00000000000E+00 0. -1.
          6    1    1    2  501    0 -0.50503554418E+02  0.37770649062E+02  0.15373587102E+03  0.23987694549E+03  0.17300000000E+03 0. -1.
         -6    1    1    2    0  502  0.50503554418E+02 -0.37770649062E+02  0.75436213554E+02  0.19898958077E+03  0.17300000000E+03 0. -1.
<mgrwt>
<rscale>  2 0.18413645E+03</rscale>
<asrwt>0</asrwt>
<pdfrwt beam="1">  1       21 0.51387585E-01 0.18413645E+03</pdfrwt>
<pdfrwt beam="2">  1       21 0.16130342E-01 0.18413645E+03</pdfrwt>
<totfact> 0.12399506E+05</totfact>
</mgrwt>
</event>
<event>
 4    3  0.4022695E+000  0.1779158E+03  0.7546771E-02  0.1169836E+00
         21   -1    0    0  501  502  0.00000000000E+00  0.00000000000E+00  0.98952921893E+02  0.98952921893E+02  0.00000000000E+00 0. -1.
         21   -1    0    0  502  503 -0.00000000000E+00 -0.00000000000E+00 -0.39926023084E+03  0.39926023084E+03  0.00000000000E+00 0.  1.
          6    1    1    2  501    0  0.28519308621E+02 -0.30193925320E+02 -0.39086227907E+02  0.18215860480E+03  0.17300000000E+03 0. -1.
         -6    1    1    2    0  503 -0.28519308621E+02  0.30193925320E+02 -0.26122108104E+03  0.31605454794E+03  0.17300000000E+03 0.  1.
<mgrwt>
<rscale>  2 0.17791578E+03</rscale>
<asrwt>0</asrwt>
<pdfrwt beam="1">  1       21 0.15223527E-01 0.17791578E+03</pdfrwt>
<pdfrwt beam="2">  1       21 0.61424649E-01 0.17791578E+03</pdfrwt>
<totfact> 0.94619392E+04</totfact>
</mgrwt>
</event>
