<event>
 4    1  0.6502538E-008  0.6936919E+03  0.7818608E-02  0.1002445E+00
         -2   -1    0    0    0  501 -0.00000000000E+00  0.00000000000E+00  0.17840172002E+04  0.17840172002E+04  0.25500000000E-02 0.  1.
          2   -1    0    0  501    0  0.00000000000E+00 -0.00000000000E+00 -0.75411489321E+03  0.75411489322E+03  0.25500000000E-02 0. -1.
    8880023    1    1    2    0    0 -0.20665134898E+03  0.68509205507E+02 -0.58133561111E+03  0.90507435622E+03  0.65864270000E+03 0. -1.
    8880022    1    1    2    0    0  0.20665134898E+03 -0.68509205507E+02  0.16112379181E+04  0.16330577372E+04  0.15294330000E+03 0.  0.
<mgrwt>
<rscale>  0 0.54591048E+03</rscale>
<asrwt>0</asrwt>
<pdfrwt beam="1">  1        2 0.11601768E+00 0.69369193E+03</pdfrwt>
<pdfrwt beam="2">  1       -2 0.27446418E+00 0.69369193E+03</pdfrwt>
<totfact> 0.17749058E+00</totfact>
</mgrwt>
</event>
<event>
 4    1  0.6502538E-008  0.9640654E+03  0.7818608E-02  0.9430159E-01
          2   -1    0    0  501    0  0.00000000000E+00  0.00000000000E+00  0.29213376754E+04  0.29213376754E+04  0.25500000000E-02 0. -1.
         -2   -1    0    0    0  501 -0.00000000000E+00 -0.00000000000E+00 -0.10293052809E+04  0.10293052809E+04  0.25500000000E-02 0.  1.
    8880023    1    1    2    0    0 -0.59731042772E+03  0.37260177049E+03  0.27007021296E+04  0.28676146926E+04  0.65864270000E+03 0.  0.
    8880022    1    1    2    0    0  0.59731042772E+03 -0.37260177049E+03 -0.80866973512E+03  0.10830282637E+04  0.15294330000E+03 0.  0.
<mgrwt>
<rscale>  0 0.89634695E+03</rscale>
<asrwt>0</asrwt>
<pdfrwt beam="1">  1        2 0.44943656E+00 0.96406537E+03</pdfrwt>
<pdfrwt beam="2">  1       -2 0.15835466E+00 0.96406537E+03</pdfrwt>
<totfact> 0.51568158E-01</totfact>
</mgrwt>
</event>
<event>
 4    1  0.6502538E-008  0.7465089E+03  0.7818608E-02  0.9841377E-01
         -2   -1    0    0    0  501 -0.00000000000E+00  0.00000000000E+00  0.48241113446E+03  0.48241113446E+03  0.25500000000E-02 0.  1.
          2   -1    0    0  501    0  0.00000000000E+00 -0.00000000000E+00 -0.20008306817E+04  0.20008306817E+04  0.25500000000E-02 0. -1.
    8880023    1    1    2    0    0  0.24560992009E+03 -0.25127902512E+03 -0.18382806001E+04  0.19840743818E+04  0.65864270000E+03 0. -1.
    8880022    1    1    2    0    0 -0.24560992009E+03  0.25127902512E+03  0.31986105294E+03  0.49916743435E+03  0.15294330000E+03 0.  0.
<mgrwt>
<rscale>  0 0.63188508E+03</rscale>
<asrwt>0</asrwt>
<pdfrwt beam="1">  1        2 0.30782010E+00 0.74650893E+03</pdfrwt>
<pdfrwt beam="2">  1       -2 0.74217099E-01 0.74650893E+03</pdfrwt>
<totfact> 0.11298566E+01</totfact>
</mgrwt>
</event>
<event>
 4    1  0.6502538E-008  0.7579799E+03  0.7818608E-02  0.9810366E-01
         -2   -1    0    0    0  501 -0.00000000000E+00  0.00000000000E+00  0.25644168397E+03  0.25644168398E+03  0.25500000000E-02 0.  1.
          2   -1    0    0  501    0  0.00000000000E+00 -0.00000000000E+00 -0.32458267117E+04  0.32458267117E+04  0.25500000000E-02 0. -1.
    8880023    1    1    2    0    0  0.52650214949E+02  0.37141792792E+03 -0.30027463367E+04  0.30969370499E+04  0.65864270000E+03 0. -1.
    8880022    1    1    2    0    0 -0.52650214949E+02 -0.37141792792E+03  0.13361308910E+02  0.40533134582E+03  0.15294330000E+03 0.  0.
<mgrwt>
<rscale>  0 0.64809220E+03</rscale>
<asrwt>0</asrwt>
<pdfrwt beam="1">  1        2 0.49935793E+00 0.75797990E+03</pdfrwt>
<pdfrwt beam="2">  1       -2 0.39452569E-01 0.75797990E+03</pdfrwt>
<totfact> 0.78720035E+00</totfact>
</mgrwt>
</event>
<event>
 4    1  0.6502538E-008  0.1088023E+04  0.7818608E-02  0.9274509E-01
          2   -1    0    0  501    0  0.00000000000E+00  0.00000000000E+00  0.12633187357E+04  0.12633187357E+04  0.25500000000E-02 0. -1.
         -2   -1    0    0    0  501 -0.00000000000E+00 -0.00000000000E+00 -0.12252999736E+04  0.12252999736E+04  0.25500000000E-02 0.  1.
    8880023    1    1    2    0    0  0.84949895586E+03  0.16833195018E+03  0.77941033927E+03  0.13383851481E+04  0.65864270000E+03 0.  0.
    8880022    1    1    2    0    0 -0.84949895586E+03 -0.16833195018E+03 -0.74139157717E+03  0.11502335611E+04  0.15294330000E+03 0.  0.
<mgrwt>
<rscale>  0 0.10316382E+04</rscale>
<asrwt>0</asrwt>
<pdfrwt beam="1">  1        2 0.19435673E+00 0.10880231E+04</pdfrwt>
<pdfrwt beam="2">  1       -2 0.18850769E+00 0.10880231E+04</pdfrwt>
<totfact> 0.27060458E+00</totfact>
</mgrwt>
</event>
<event>
 4    1  0.6502538E-008  0.1004494E+04  0.7818608E-02  0.9375701E-01
         -2   -1    0    0    0  501 -0.00000000000E+00  0.00000000000E+00  0.38227103329E+03  0.38227103330E+03  0.25500000000E-02 0.  1.
          2   -1    0    0  501    0  0.00000000000E+00 -0.00000000000E+00 -0.33072065826E+04  0.33072065826E+04  0.25500000000E-02 0. -1.
    8880023    1    1    2    0    0 -0.35768381755E+03  0.66877593627E+03 -0.27044743915E+04  0.28849940913E+04  0.65864270000E+03 0.  0.
    8880022    1    1    2    0    0  0.35768381755E+03 -0.66877593627E+03 -0.22046115783E+03  0.80448352463E+03  0.15294330000E+03 0.  1.
<mgrwt>
<rscale>  0 0.94102661E+03</rscale>
<asrwt>0</asrwt>
<pdfrwt beam="1">  1        2 0.50880099E+00 0.10044945E+04</pdfrwt>
<pdfrwt beam="2">  1       -2 0.58810930E-01 0.10044945E+04</pdfrwt>
<totfact> 0.30664392E+00</totfact>
</mgrwt>
</event>
<event>
 4    1  0.6502538E-008  0.1351263E+04  0.7818608E-02  0.9022509E-01
          2   -1    0    0  501    0  0.00000000000E+00  0.00000000000E+00  0.15776589922E+04  0.15776589922E+04  0.25500000000E-02 0. -1.
         -2   -1    0    0    0  501 -0.00000000000E+00 -0.00000000000E+00 -0.12454042621E+04  0.12454042621E+04  0.25500000000E-02 0.  1.
    8880023    1    1    2    0    0 -0.10227440991E+04 -0.58829831006E+03 -0.42050302756E+03  0.14151796339E+04  0.65864270000E+03 0.  0.
    8880022    1    1    2    0    0  0.10227440991E+04  0.58829831006E+03  0.75275775770E+03  0.14078836204E+04  0.15294330000E+03 0.  0.
<mgrwt>
<rscale>  0 0.13089355E+04</rscale>
<asrwt>0</asrwt>
<pdfrwt beam="1">  1        2 0.24271677E+00 0.13512626E+04</pdfrwt>
<pdfrwt beam="2">  1       -2 0.19160065E+00 0.13512626E+04</pdfrwt>
<totfact> 0.16578936E+00</totfact>
</mgrwt>
</event>
<event>
 4    1  0.6502538E-008  0.1425149E+04  0.7818608E-02  0.8964384E-01
          2   -1    0    0  501    0  0.00000000000E+00  0.00000000000E+00  0.18550571296E+04  0.18550571296E+04  0.25500000000E-02 0. -1.
         -2   -1    0    0    0  501 -0.00000000000E+00 -0.00000000000E+00 -0.14351961297E+04  0.14351961297E+04  0.25500000000E-02 0.  1.
    8880023    1    1    2    0    0 -0.54551316141E+03 -0.11400240188E+04  0.11423572245E+04  0.18264801142E+04  0.65864270000E+03 0.  0.
    8880022    1    1    2    0    0  0.54551316141E+03  0.11400240188E+04 -0.72249622456E+03  0.14637731451E+04  0.15294330000E+03 0.  0.
<mgrwt>
<rscale>  0 0.13854974E+04</rscale>
<asrwt>0</asrwt>
<pdfrwt beam="1">  1        2 0.28539340E+00 0.14251490E+04</pdfrwt>
<pdfrwt beam="2">  1       -2 0.22079941E+00 0.14251490E+04</pdfrwt>
<totfact> 0.74327434E-01</totfact>
</mgrwt>
</event>
<event>
 4    1  0.6502538E-008  0.1199597E+04  0.7818608E-02  0.9157514E-01
          2   -1    0    0  501    0  0.00000000000E+00  0.00000000000E+00  0.45772437490E+04  0.45772437490E+04  0.25500000000E-02 0. -1.
         -2   -1    0    0    0  501 -0.00000000000E+00 -0.00000000000E+00 -0.38809113351E+03  0.38809113352E+03  0.25500000000E-02 0.  1.
    8880023    1    1    2    0    0  0.32202779659E+03 -0.94948477858E+03  0.35950987545E+04  0.37899562672E+04  0.65864270000E+03 0.  0.
    8880022    1    1    2    0    0 -0.32202779659E+03  0.94948477858E+03  0.59405386099E+03  0.11753786153E+04  0.15294330000E+03 0.  0.
<mgrwt>
<rscale>  0 0.11502922E+04</rscale>
<asrwt>0</asrwt>
<pdfrwt beam="1">  1        2 0.70419133E+00 0.11995972E+04</pdfrwt>
<pdfrwt beam="2">  1       -2 0.59706329E-01 0.11995972E+04</pdfrwt>
<totfact> 0.28034432E-01</totfact>
</mgrwt>
</event>
<event>
 4    1  0.6502538E-008  0.1006216E+04  0.7818608E-02  0.9373470E-01
          2   -1    0    0  501    0  0.00000000000E+00  0.00000000000E+00  0.22928845894E+04  0.22928845894E+04  0.25500000000E-02 0. -1.
         -2   -1    0    0    0  501 -0.00000000000E+00 -0.00000000000E+00 -0.45327137634E+03  0.45327137635E+03  0.25500000000E-02 0.  1.
    8880023    1    1    2    0    0 -0.69638708316E+03 -0.30611280910E+03  0.16734151506E+04  0.19526362933E+04  0.65864270000E+03 0. -1.
    8880022    1    1    2    0    0  0.69638708316E+03  0.30611280910E+03  0.16619806241E+03  0.79351967238E+03  0.15294330000E+03 0.  0.
<mgrwt>
<rscale>  0 0.94291505E+03</rscale>
<asrwt>0</asrwt>
<pdfrwt beam="1">  1        2 0.35275147E+00 0.10062158E+04</pdfrwt>
<pdfrwt beam="2">  1       -2 0.69734058E-01 0.10062158E+04</pdfrwt>
<totfact> 0.86342349E+00</totfact>
</mgrwt>
</event>
<event>
 4    1  0.6502538E-008  0.8187737E+03  0.7818608E-02  0.9671583E-01
          2   -1    0    0  501    0  0.00000000000E+00  0.00000000000E+00  0.33740317672E+04  0.33740317672E+04  0.25500000000E-02 0. -1.
         -2   -1    0    0    0  501 -0.00000000000E+00 -0.00000000000E+00 -0.15677162205E+03  0.15677162207E+03  0.25500000000E-02 0.  1.
    8880023    1    1    2    0    0  0.47594423124E+03  0.10028567054E+03  0.26228197212E+04  0.27476487445E+04  0.65864270000E+03 0.  0.
    8880022    1    1    2    0    0 -0.47594423124E+03 -0.10028567054E+03  0.59444042394E+03  0.78315464476E+03  0.15294330000E+03 0.  0.
<mgrwt>
<rscale>  0 0.72734202E+03</rscale>
<asrwt>0</asrwt>
<pdfrwt beam="1">  1        2 0.51908177E+00 0.81877368E+03</pdfrwt>
<pdfrwt beam="2">  1       -2 0.24118713E-01 0.81877368E+03</pdfrwt>
<totfact> 0.16104312E+01</totfact>
</mgrwt>
</event>
<event>
 4    1  0.6502538E-008  0.6634223E+03  0.7818608E-02  0.1020895E+00
          2   -1    0    0  501    0  0.00000000000E+00  0.00000000000E+00  0.71919986486E+03  0.71919986486E+03  0.25500000000E-02 0. -1.
         -2   -1    0    0    0  501 -0.00000000000E+00 -0.00000000000E+00 -0.35545923919E+03  0.35545923920E+03  0.25500000000E-02 0.  1.
    8880023    1    1    2    0    0  0.63554780716E+02 -0.47745930370E+02  0.51928305797E+03  0.84248678599E+03  0.65864270000E+03 0. -1.
    8880022    1    1    2    0    0 -0.63554780716E+02  0.47745930370E+02 -0.15554243230E+03  0.23217231807E+03  0.15294330000E+03 0.  0.
<mgrwt>
<rscale>  0 0.47364869E+03</rscale>
<asrwt>0</asrwt>
<pdfrwt beam="1">  1        2 0.11064613E+00 0.66342226E+03</pdfrwt>
<pdfrwt beam="2">  1       -2 0.54686037E-01 0.66342226E+03</pdfrwt>
<totfact> 0.12661941E+02</totfact>
</mgrwt>
</event>
<event>
 4    1  0.6502538E-008  0.7346152E+03  0.7818608E-02  0.9875920E-01
          2   -1    0    0  501    0  0.00000000000E+00  0.00000000000E+00  0.15641418297E+04  0.15641418297E+04  0.25500000000E-02 0. -1.
         -2   -1    0    0    0  501 -0.00000000000E+00 -0.00000000000E+00 -0.78069845534E+03  0.78069845534E+03  0.25500000000E-02 0.  1.
    8880023    1    1    2    0    0 -0.63163929720E+02  0.31915441248E+03  0.14285267820E+04  0.16063462249E+04  0.65864270000E+03 0. -1.
    8880022    1    1    2    0    0  0.63163929720E+02 -0.31915441248E+03 -0.64508340766E+03  0.73849406015E+03  0.15294330000E+03 0.  0.
<mgrwt>
<rscale>  0 0.61442644E+03</rscale>
<asrwt>0</asrwt>
<pdfrwt beam="1">  1        2 0.24063720E+00 0.73461516E+03</pdfrwt>
<pdfrwt beam="2">  1       -2 0.12010746E+00 0.73461516E+03</pdfrwt>
<totfact> 0.63661591E+00</totfact>
</mgrwt>
</event>
<event>
 4    1  0.6502538E-008  0.8015094E+03  0.7818608E-02  0.9707542E-01
          2   -1    0    0  501    0  0.00000000000E+00  0.00000000000E+00  0.23410473244E+04  0.23410473244E+04  0.25500000000E-02 0. -1.
         -2   -1    0    0    0  501 -0.00000000000E+00 -0.00000000000E+00 -0.49459596763E+03  0.49459596764E+03  0.25500000000E-02 0.  1.
    8880023    1    1    2    0    0  0.17899166750E+03  0.42020121969E+03  0.21306273450E+04  0.22763985090E+04  0.65864270000E+03 0. -1.
    8880022    1    1    2    0    0 -0.17899166750E+03 -0.42020121969E+03 -0.28417598825E+03  0.55924478306E+03  0.15294330000E+03 0.  0.
<mgrwt>
<rscale>  0 0.70569519E+03</rscale>
<asrwt>0</asrwt>
<pdfrwt beam="1">  1        2 0.36016112E+00 0.80150938E+03</pdfrwt>
<pdfrwt beam="2">  1       -2 0.76091689E-01 0.80150938E+03</pdfrwt>
<totfact> 0.68831456E+00</totfact>
</mgrwt>
</event>
<event>
 4    1  0.6502538E-008  0.1497794E+04  0.7818608E-02  0.8911195E-01
         -2   -1    0    0    0  501 -0.00000000000E+00  0.00000000000E+00  0.15116658999E+04  0.15116658999E+04  0.25500000000E-02 0.  1.
          2   -1    0    0  501    0  0.00000000000E+00 -0.00000000000E+00 -0.15128061211E+04  0.15128061211E+04  0.25500000000E-02 0. -1.
    8880023    1    1    2    0    0  0.18126199544E+03 -0.13329367916E+04  0.50267730056E+03  0.15798959068E+04  0.65864270000E+03 0.  0.
    8880022    1    1    2    0    0 -0.18126199544E+03  0.13329367916E+04 -0.50381752181E+03  0.14445761142E+04  0.15294330000E+03 0.  0.
<mgrwt>
<rscale>  0 0.14604390E+04</rscale>
<asrwt>0</asrwt>
<pdfrwt beam="1">  1        2 0.23273940E+00 0.14977939E+04</pdfrwt>
<pdfrwt beam="2">  1       -2 0.23256399E+00 0.14977939E+04</pdfrwt>
<totfact> 0.96784535E-01</totfact>
</mgrwt>
</event>
<event>
 4    1  0.6502538E-008  0.1710712E+04  0.7818608E-02  0.8773604E-01
         -2   -1    0    0    0  501 -0.00000000000E+00  0.00000000000E+00  0.17674315374E+04  0.17674315374E+04  0.25500000000E-02 0.  1.
          2   -1    0    0  501    0  0.00000000000E+00 -0.00000000000E+00 -0.16384230635E+04  0.16384230635E+04  0.25500000000E-02 0. -1.
    8880023    1    1    2    0    0 -0.62397784624E+03 -0.14503027169E+04  0.48912229359E+03  0.17792630912E+04  0.65864270000E+03 0.  0.
    8880022    1    1    2    0    0  0.62397784624E+03  0.14503027169E+04 -0.36011381968E+03  0.16265915097E+04  0.15294330000E+03 0.  0.
<mgrwt>
<rscale>  0 0.16787039E+04</rscale>
<asrwt>0</asrwt>
<pdfrwt beam="1">  1        2 0.25206509E+00 0.17107123E+04</pdfrwt>
<pdfrwt beam="2">  1       -2 0.27191254E+00 0.17107123E+04</pdfrwt>
<totfact> 0.46077264E-01</totfact>
</mgrwt>
</event>
<event>
 4    1  0.6502538E-008  0.9857321E+03  0.7818608E-02  0.9400467E-01
         -2   -1    0    0    0  501 -0.00000000000E+00  0.00000000000E+00  0.10964169183E+04  0.10964169183E+04  0.25500000000E-02 0.  1.
          2   -1    0    0  501    0  0.00000000000E+00 -0.00000000000E+00 -0.11898521929E+04  0.11898521929E+04  0.25500000000E-02 0. -1.
    8880023    1    1    2    0    0 -0.71342436491E+03 -0.16995073431E+03 -0.79005350364E+03  0.12632704862E+04  0.65864270000E+03 0. -1.
    8880022    1    1    2    0    0  0.71342436491E+03  0.16995073431E+03  0.69661822901E+03  0.10229986249E+04  0.15294330000E+03 0.  0.
<mgrwt>
<rscale>  0 0.92037253E+03</rscale>
<asrwt>0</asrwt>
<pdfrwt beam="1">  1        2 0.18305418E+00 0.98573210E+03</pdfrwt>
<pdfrwt beam="2">  1       -2 0.16867953E+00 0.98573210E+03</pdfrwt>
<totfact> 0.41534761E+00</totfact>
</mgrwt>
</event>
<event>
 4    1  0.6502538E-008  0.1116948E+04  0.7818608E-02  0.9242417E-01
         -2   -1    0    0    0  501 -0.00000000000E+00  0.00000000000E+00  0.16593345736E+04  0.16593345736E+04  0.25500000000E-02 0.  1.
          2   -1    0    0  501    0  0.00000000000E+00 -0.00000000000E+00 -0.68704074181E+03  0.68704074182E+03  0.25500000000E-02 0. -1.
    8880023    1    1    2    0    0  0.89696838723E+03 -0.95972430919E+02  0.17064796210E+03  0.11299088142E+04  0.65864270000E+03 0. -1.
    8880022    1    1    2    0    0 -0.89696838723E+03  0.95972430919E+02  0.80164586973E+03  0.12164665012E+04  0.15294330000E+03 0.  0.
<mgrwt>
<rscale>  0 0.10626139E+04</rscale>
<asrwt>0</asrwt>
<pdfrwt beam="1">  1        2 0.10569858E+00 0.11169482E+04</pdfrwt>
<pdfrwt beam="2">  1       -2 0.25528224E+00 0.11169482E+04</pdfrwt>
<totfact> 0.24683717E+00</totfact>
</mgrwt>
</event>
<event>
 4    1  0.6502538E-008  0.8612609E+03  0.7818608E-02  0.9591325E-01
         -2   -1    0    0    0  501 -0.00000000000E+00  0.00000000000E+00  0.62918293373E+03  0.62918293374E+03  0.25500000000E-02 0.  1.
          2   -1    0    0  501    0  0.00000000000E+00 -0.00000000000E+00 -0.14207298657E+04  0.14207298657E+04  0.25500000000E-02 0. -1.
    8880023    1    1    2    0    0  0.55313769778E+03 -0.44707635805E+02 -0.10998326406E+04  0.13969259569E+04  0.65864270000E+03 0.  0.
    8880022    1    1    2    0    0 -0.55313769778E+03  0.44707635805E+02  0.30828570863E+03  0.65298684257E+03  0.15294330000E+03 0.  0.
<mgrwt>
<rscale>  0 0.77873052E+03</rscale>
<asrwt>0</asrwt>
<pdfrwt beam="1">  1        2 0.21857382E+00 0.86126087E+03</pdfrwt>
<pdfrwt beam="2">  1       -2 0.96797375E-01 0.86126087E+03</pdfrwt>
<totfact> 0.12678757E+01</totfact>
</mgrwt>
</event>
<event>
 4    1  0.6502538E-008  0.1025009E+04  0.7818608E-02  0.9349546E-01
          2   -1    0    0  501    0  0.00000000000E+00  0.00000000000E+00  0.21639281671E+04  0.21639281671E+04  0.25500000000E-02 0. -1.
         -2   -1    0    0    0  501 -0.00000000000E+00 -0.00000000000E+00 -0.64349396703E+03  0.64349396703E+03  0.25500000000E-02 0.  1.
    8880023    1    1    2    0    0  0.17946941313E+03 -0.76460647311E+03  0.17021134500E+04  0.19869153811E+04  0.65864270000E+03 0. -1.
    8880022    1    1    2    0    0 -0.17946941313E+03  0.76460647311E+03 -0.18167924984E+03  0.82050675305E+03  0.15294330000E+03 0.  0.
<mgrwt>
<rscale>  0 0.96346759E+03</rscale>
<asrwt>0</asrwt>
<pdfrwt beam="1">  1        2 0.33291202E+00 0.10250086E+04</pdfrwt>
<pdfrwt beam="2">  1       -2 0.98999074E-01 0.10250086E+04</pdfrwt>
<totfact> 0.45758696E+00</totfact>
</mgrwt>
</event>
<event>
 4    1  0.6502538E-008  0.6821652E+03  0.7818608E-02  0.1008124E+00
          2   -1    0    0  501    0  0.00000000000E+00  0.00000000000E+00  0.20595809147E+04  0.20595809147E+04  0.25500000000E-02 0. -1.
         -2   -1    0    0    0  501 -0.00000000000E+00 -0.00000000000E+00 -0.16047763004E+03  0.16047763006E+03  0.25500000000E-02 0.  1.
    8880023    1    1    2    0    0  0.11218410792E+03 -0.13767288117E+03  0.18616680406E+04  0.19827146028E+04  0.65864270000E+03 0. -1.
    8880022    1    1    2    0    0 -0.11218410792E+03  0.13767288117E+03  0.37435243995E+02  0.23734394196E+03  0.15294330000E+03 0.  0.
<mgrwt>
<rscale>  0 0.52226881E+03</rscale>
<asrwt>0</asrwt>
<pdfrwt beam="1">  1        2 0.31685859E+00 0.68216516E+03</pdfrwt>
<pdfrwt beam="2">  1       -2 0.24688867E-01 0.68216516E+03</pdfrwt>
<totfact> 0.93994915E+01</totfact>
</mgrwt>
</event>
<event>
 4    1  0.6502538E-008  0.9109578E+03  0.7818608E-02  0.9508665E-01
          2   -1    0    0  501    0  0.00000000000E+00  0.00000000000E+00  0.28246561088E+04  0.28246561088E+04  0.25500000000E-02 0. -1.
         -2   -1    0    0    0  501 -0.00000000000E+00 -0.00000000000E+00 -0.56179333855E+03  0.56179333856E+03  0.25500000000E-02 0.  1.
    8880023    1    1    2    0    0 -0.62721944949E+03 -0.51281016199E+02  0.25276395401E+04  0.26867835476E+04  0.65864270000E+03 0.  0.
    8880022    1    1    2    0    0  0.62721944949E+03  0.51281016199E+02 -0.26477676988E+03  0.69966589979E+03  0.15294330000E+03 0.  0.
<mgrwt>
<rscale>  0 0.83648003E+03</rscale>
<asrwt>0</asrwt>
<pdfrwt beam="1">  1        2 0.43456248E+00 0.91095784E+03</pdfrwt>
<pdfrwt beam="2">  1       -2 0.86429745E-01 0.91095784E+03</pdfrwt>
<totfact> 0.26706717E+00</totfact>
</mgrwt>
</event>
<event>
 4    1  0.6502538E-008  0.1305717E+04  0.7818608E-02  0.9060639E-01
          2   -1    0    0  501    0  0.00000000000E+00  0.00000000000E+00  0.21444013653E+04  0.21444013653E+04  0.25500000000E-02 0. -1.
         -2   -1    0    0    0  501 -0.00000000000E+00 -0.00000000000E+00 -0.10125014820E+04  0.10125014820E+04  0.25500000000E-02 0.  1.
    8880023    1    1    2    0    0  0.10596496949E+04 -0.38500553215E+03  0.14736885432E+04  0.19689222596E+04  0.65864270000E+03 0.  0.
    8880022    1    1    2    0    0 -0.10596496949E+04  0.38500553215E+03 -0.34178865990E+03  0.11879805876E+04  0.15294330000E+03 0.  0.
<mgrwt>
<rscale>  0 0.12615331E+04</rscale>
<asrwt>0</asrwt>
<pdfrwt beam="1">  1        2 0.32990790E+00 0.13057170E+04</pdfrwt>
<pdfrwt beam="2">  1       -2 0.15576946E+00 0.13057170E+04</pdfrwt>
<totfact> 0.14463893E+00</totfact>
</mgrwt>
</event>
<event>
 4    1  0.6502538E-008  0.8021246E+03  0.7818608E-02  0.9706221E-01
         -2   -1    0    0    0  501 -0.00000000000E+00  0.00000000000E+00  0.58665462992E+03  0.58665462992E+03  0.25500000000E-02 0.  1.
          2   -1    0    0  501    0  0.00000000000E+00 -0.00000000000E+00 -0.26032322441E+04  0.26032322441E+04  0.25500000000E-02 0. -1.
    8880023    1    1    2    0    0  0.16854697499E+03  0.42565897656E+03 -0.24271149650E+04  0.25562259107E+04  0.65864270000E+03 0.  0.
    8880022    1    1    2    0    0 -0.16854697499E+03 -0.42565897656E+03  0.41053735076E+03  0.63366096336E+03  0.15294330000E+03 0.  0.
<mgrwt>
<rscale>  0 0.70647604E+03</rscale>
<asrwt>0</asrwt>
<pdfrwt beam="1">  1        2 0.40049726E+00 0.80212459E+03</pdfrwt>
<pdfrwt beam="2">  1       -2 0.90254560E-01 0.80212459E+03</pdfrwt>
<totfact> 0.33195159E+00</totfact>
</mgrwt>
</event>
<event>
 4    1  0.6502538E-008  0.7071591E+03  0.7818608E-02  0.9968706E-01
         -2   -1    0    0    0  501 -0.00000000000E+00  0.00000000000E+00  0.38971496477E+03  0.38971496477E+03  0.25500000000E-02 0.  1.
          2   -1    0    0  501    0  0.00000000000E+00 -0.00000000000E+00 -0.18416598673E+04  0.18416598673E+04  0.25500000000E-02 0. -1.
    8880023    1    1    2    0    0 -0.21165134274E+03 -0.14651792144E+03 -0.17008528061E+04  0.18420027868E+04  0.65864270000E+03 0. -1.
    8880022    1    1    2    0    0  0.21165134274E+03  0.14651792144E+03  0.24890790357E+03  0.38937204530E+03  0.15294330000E+03 0.  0.
<mgrwt>
<rscale>  0 0.57043995E+03</rscale>
<asrwt>0</asrwt>
<pdfrwt beam="1">  1        2 0.28333228E+00 0.70715910E+03</pdfrwt>
<pdfrwt beam="2">  1       -2 0.59956149E-01 0.70715910E+03</pdfrwt>
<totfact> 0.21994498E+01</totfact>
</mgrwt>
</event>
<event>
 4    1  0.6502538E-008  0.1113702E+04  0.7818608E-02  0.9245952E-01
         -2   -1    0    0    0  501 -0.00000000000E+00  0.00000000000E+00  0.11629599230E+04  0.11629599230E+04  0.25500000000E-02 0.  1.
          2   -1    0    0  501    0  0.00000000000E+00 -0.00000000000E+00 -0.10943473674E+04  0.10943473674E+04  0.25500000000E-02 0. -1.
    8880023    1    1    2    0    0  0.28648141629E+03  0.85114640024E+03 -0.45897107143E+03  0.12045689881E+04  0.65864270000E+03 0. -1.
    8880022    1    1    2    0    0 -0.28648141629E+03 -0.85114640024E+03  0.52758362706E+03  0.10527383023E+04  0.15294330000E+03 0.  0.
<mgrwt>
<rscale>  0 0.10591460E+04</rscale>
<asrwt>0</asrwt>
<pdfrwt beam="1">  1        2 0.16836113E+00 0.11137019E+04</pdfrwt>
<pdfrwt beam="2">  1       -2 0.17891691E+00 0.11137019E+04</pdfrwt>
<totfact> 0.39704417E+00</totfact>
</mgrwt>
</event>
<event>
 4    1  0.6502538E-008  0.1278921E+04  0.7818608E-02  0.9083980E-01
         -2   -1    0    0    0  501 -0.00000000000E+00  0.00000000000E+00  0.94507685706E+03  0.94507685707E+03  0.25500000000E-02 0.  1.
          2   -1    0    0  501    0  0.00000000000E+00 -0.00000000000E+00 -0.16292410694E+04  0.16292410694E+04  0.25500000000E-02 0. -1.
    8880023    1    1    2    0    0  0.27213846976E+03  0.10619654397E+04 -0.71842058369E+03  0.14668906855E+04  0.65864270000E+03 0. -1.
    8880022    1    1    2    0    0 -0.27213846976E+03 -0.10619654397E+04  0.34256371393E+02  0.11074272409E+04  0.15294330000E+03 0.  0.
<mgrwt>
<rscale>  0 0.12335585E+04</rscale>
<asrwt>0</asrwt>
<pdfrwt beam="1">  1        2 0.25065247E+00 0.12789215E+04</pdfrwt>
<pdfrwt beam="2">  1       -2 0.14539644E+00 0.12789215E+04</pdfrwt>
<totfact> 0.33719482E+00</totfact>
</mgrwt>
</event>
<event>
 4    1  0.6502538E-008  0.8246919E+03  0.7818608E-02  0.9659750E-01
         -2   -1    0    0    0  501 -0.00000000000E+00  0.00000000000E+00  0.51285352391E+03  0.51285352392E+03  0.25500000000E-02 0.  1.
          2   -1    0    0  501    0  0.00000000000E+00 -0.00000000000E+00 -0.23453606955E+04  0.23453606956E+04  0.25500000000E-02 0. -1.
    8880023    1    1    2    0    0  0.21426963261E+03  0.44765510517E+03 -0.21128205801E+04  0.22680669255E+04  0.65864270000E+03 0.  0.
    8880022    1    1    2    0    0 -0.21426963261E+03 -0.44765510517E+03  0.28031340843E+03  0.59014729399E+03  0.15294330000E+03 0.  1.
<mgrwt>
<rscale>  0 0.73464676E+03</rscale>
<asrwt>0</asrwt>
<pdfrwt beam="1">  1        2 0.36082472E+00 0.82469193E+03</pdfrwt>
<pdfrwt beam="2">  1       -2 0.78900543E-01 0.82469193E+03</pdfrwt>
<totfact> 0.62894205E+00</totfact>
</mgrwt>
</event>
<event>
 4    1  0.6502538E-008  0.1064099E+04  0.7818608E-02  0.9302121E-01
         -2   -1    0    0    0  501 -0.00000000000E+00  0.00000000000E+00  0.13330486029E+04  0.13330486029E+04  0.25500000000E-02 0.  1.
          2   -1    0    0  501    0  0.00000000000E+00 -0.00000000000E+00 -0.16406811878E+04  0.16406811878E+04  0.25500000000E-02 0. -1.
    8880023    1    1    2    0    0  0.35980765612E+03 -0.75434434867E+03 -0.12917426825E+04  0.16735908430E+04  0.65864270000E+03 0.  0.
    8880022    1    1    2    0    0 -0.35980765612E+03  0.75434434867E+03  0.98411009765E+03  0.13001389476E+04  0.15294330000E+03 0.  0.
<mgrwt>
<rscale>  0 0.10058781E+04</rscale>
<asrwt>0</asrwt>
<pdfrwt beam="1">  1        2 0.25241249E+00 0.10640992E+04</pdfrwt>
<pdfrwt beam="2">  1       -2 0.20508440E+00 0.10640992E+04</pdfrwt>
<totfact> 0.12861010E+00</totfact>
</mgrwt>
</event>
<event>
 4    1  0.6502538E-008  0.1471552E+04  0.7818608E-02  0.8929990E-01
          2   -1    0    0  501    0  0.00000000000E+00  0.00000000000E+00  0.21293505207E+04  0.21293505207E+04  0.25500000000E-02 0. -1.
         -2   -1    0    0    0  501 -0.00000000000E+00 -0.00000000000E+00 -0.99113958146E+03  0.99113958146E+03  0.25500000000E-02 0.  1.
    8880023    1    1    2    0    0 -0.92672431605E+03  0.93425698521E+03  0.10199010101E+04  0.17904363571E+04  0.65864270000E+03 0.  0.
    8880022    1    1    2    0    0  0.92672431605E+03 -0.93425698521E+03  0.11830992922E+03  0.13300537451E+04  0.15294330000E+03 0.  0.
<mgrwt>
<rscale>  0 0.14334010E+04</rscale>
<asrwt>0</asrwt>
<pdfrwt beam="1">  1        2 0.32759238E+00 0.14715517E+04</pdfrwt>
<pdfrwt beam="2">  1       -2 0.15248301E+00 0.14715517E+04</pdfrwt>
<totfact> 0.15360326E+00</totfact>
</mgrwt>
</event>
<event>
 4    1  0.6795523E-008  0.7579879E+03  0.7818608E-02  0.9810345E-01
         -2   -1    0    0    0  501 -0.00000000000E+00  0.00000000000E+00  0.24679870808E+04  0.24679870808E+04  0.25500000000E-02 0.  1.
          2   -1    0    0  501    0  0.00000000000E+00 -0.00000000000E+00 -0.12980247725E+04  0.12980247725E+04  0.25500000000E-02 0. -1.
    8880023    1    1    2    0    0 -0.25702603129E+03  0.27326364403E+03 -0.11684449204E+04  0.13927703106E+04  0.65864270000E+03 0.  0.
    8880022    1    1    2    0    0  0.25702603129E+03 -0.27326364403E+03  0.23384072286E+04  0.23732415427E+04  0.15294330000E+03 0.  0.
<mgrwt>
<rscale>  0 0.64810327E+03</rscale>
<asrwt>0</asrwt>
<pdfrwt beam="1">  1        2 0.19969612E+00 0.75798787E+03</pdfrwt>
<pdfrwt beam="2">  1       -2 0.37969032E+00 0.75798787E+03</pdfrwt>
<totfact> 0.17805936E-01</totfact>
</mgrwt>
</event>
<event>
 4    1  0.6502538E-008  0.9542939E+03  0.7818608E-02  0.9443963E-01
         -2   -1    0    0    0  501 -0.00000000000E+00  0.00000000000E+00  0.13391999377E+04  0.13391999377E+04  0.25500000000E-02 0.  1.
          2   -1    0    0  501    0  0.00000000000E+00 -0.00000000000E+00 -0.59546704327E+03  0.59546704328E+03  0.25500000000E-02 0. -1.
    8880023    1    1    2    0    0 -0.66048762025E+03 -0.20155092073E+03  0.77102954329E+03  0.12268510232E+04  0.65864270000E+03 0.  0.
    8880022    1    1    2    0    0  0.66048762025E+03  0.20155092073E+03 -0.27296648827E+02  0.70781595786E+03  0.15294330000E+03 0.  0.
<mgrwt>
<rscale>  0 0.88544361E+03</rscale>
<asrwt>0</asrwt>
<pdfrwt beam="1">  1        2 0.91610314E-01 0.95429392E+03</pdfrwt>
<pdfrwt beam="2">  1       -2 0.20603076E+00 0.95429392E+03</pdfrwt>
<totfact> 0.60741398E+00</totfact>
</mgrwt>
</event>
<event>
 4    1  0.6502538E-008  0.7866963E+03  0.7818608E-02  0.9740336E-01
          2   -1    0    0  501    0  0.00000000000E+00  0.00000000000E+00  0.13901301973E+04  0.13901301973E+04  0.25500000000E-02 0. -1.
         -2   -1    0    0    0  501 -0.00000000000E+00 -0.00000000000E+00 -0.83478294964E+03  0.83478294965E+03  0.25500000000E-02 0.  1.
    8880023    1    1    2    0    0 -0.39053945835E+02 -0.42843401846E+03  0.12000370943E+04  0.14349146848E+04  0.65864270000E+03 0. -1.
    8880022    1    1    2    0    0  0.39053945835E+02  0.42843401846E+03 -0.64468984659E+03  0.78999846213E+03  0.15294330000E+03 0.  0.
<mgrwt>
<rscale>  0 0.68665164E+03</rscale>
<asrwt>0</asrwt>
<pdfrwt beam="1">  1        2 0.21386618E+00 0.78669634E+03</pdfrwt>
<pdfrwt beam="2">  1       -2 0.12842815E+00 0.78669634E+03</pdfrwt>
<totfact> 0.66856402E+00</totfact>
</mgrwt>
</event>
<event>
 4    1  0.6502538E-008  0.9819804E+03  0.7818608E-02  0.9405522E-01
          2   -1    0    0  501    0  0.00000000000E+00  0.00000000000E+00  0.96218786114E+03  0.96218786115E+03  0.25500000000E-02 0. -1.
         -2   -1    0    0    0  501 -0.00000000000E+00 -0.00000000000E+00 -0.12059608797E+04  0.12059608797E+04  0.25500000000E-02 0.  1.
    8880023    1    1    2    0    0  0.51516698615E+03  0.51485745835E+03  0.51201503643E+03  0.11074496963E+04  0.65864270000E+03 0. -1.
    8880022    1    1    2    0    0 -0.51516698615E+03 -0.51485745835E+03 -0.75578805498E+03  0.10606990446E+04  0.15294330000E+03 0.  0.
<mgrwt>
<rscale>  0 0.91622635E+03</rscale>
<asrwt>0</asrwt>
<pdfrwt beam="1">  1        2 0.14802890E+00 0.98198036E+03</pdfrwt>
<pdfrwt beam="2">  1       -2 0.18553244E+00 0.98198036E+03</pdfrwt>
<totfact> 0.43997839E+00</totfact>
</mgrwt>
</event>
<event>
 4    1  0.6502538E-008  0.9629198E+03  0.7818608E-02  0.9431764E-01
          2   -1    0    0  501    0  0.00000000000E+00  0.00000000000E+00  0.79839518872E+03  0.79839518872E+03  0.25500000000E-02 0. -1.
         -2   -1    0    0    0  501 -0.00000000000E+00 -0.00000000000E+00 -0.17393370423E+04  0.17393370423E+04  0.25500000000E-02 0.  1.
    8880023    1    1    2    0    0  0.13946244582E+03  0.68844351129E+03  0.37891937147E+03  0.10347919300E+04  0.65864270000E+03 0. -1.
    8880022    1    1    2    0    0 -0.13946244582E+03 -0.68844351129E+03 -0.13198612250E+04  0.15029403010E+04  0.15294330000E+03 0.  0.
<mgrwt>
<rscale>  0 0.89507093E+03</rscale>
<asrwt>0</asrwt>
<pdfrwt beam="1">  1        2 0.12283003E+00 0.96291975E+03</pdfrwt>
<pdfrwt beam="2">  1       -2 0.26759031E+00 0.96291975E+03</pdfrwt>
<totfact> 0.17394332E+00</totfact>
</mgrwt>
</event>
<event>
 4    1  0.6502538E-008  0.7191578E+03  0.7818608E-02  0.9925446E-01
         -2   -1    0    0    0  501 -0.00000000000E+00  0.00000000000E+00  0.82717924318E+03  0.82717924319E+03  0.25500000000E-02 0.  1.
          2   -1    0    0  501    0  0.00000000000E+00 -0.00000000000E+00 -0.46198589749E+03  0.46198589750E+03  0.25500000000E-02 0. -1.
    8880023    1    1    2    0    0 -0.13356407937E+02 -0.28844288651E+03 -0.94323118815E+02  0.72531699926E+03  0.65864270000E+03 0. -1.
    8880022    1    1    2    0    0  0.13356407937E+02  0.28844288651E+03  0.45951646451E+03  0.56384814142E+03  0.15294330000E+03 0.  0.
<mgrwt>
<rscale>  0 0.59043753E+03</rscale>
<asrwt>0</asrwt>
<pdfrwt beam="1">  1        2 0.71074754E-01 0.71915777E+03</pdfrwt>
<pdfrwt beam="2">  1       -2 0.12725834E+00 0.71915777E+03</pdfrwt>
<totfact> 0.31379651E+01</totfact>
</mgrwt>
</event>
<event>
 4    1  0.6502538E-008  0.8029413E+03  0.7818608E-02  0.9704472E-01
          2   -1    0    0  501    0  0.00000000000E+00  0.00000000000E+00  0.22198924075E+04  0.22198924075E+04  0.25500000000E-02 0. -1.
         -2   -1    0    0    0  501 -0.00000000000E+00 -0.00000000000E+00 -0.31616923190E+03  0.31616923191E+03  0.25500000000E-02 0.  1.
    8880023    1    1    2    0    0 -0.18245306733E+03  0.42144449448E+03  0.18881317134E+04  0.20517690311E+04  0.65864270000E+03 0.  0.
    8880022    1    1    2    0    0  0.18245306733E+03 -0.42144449448E+03  0.15591462192E+02  0.48429260826E+03  0.15294330000E+03 0.  0.
<mgrwt>
<rscale>  0 0.70751154E+03</rscale>
<asrwt>0</asrwt>
<pdfrwt beam="1">  1        2 0.34152191E+00 0.80294134E+03</pdfrwt>
<pdfrwt beam="2">  1       -2 0.48641420E-01 0.80294134E+03</pdfrwt>
<totfact> 0.20771978E+01</totfact>
</mgrwt>
</event>
<event>
 4    1  0.6502538E-008  0.7250392E+03  0.7818608E-02  0.9905890E-01
          2   -1    0    0  501    0  0.00000000000E+00  0.00000000000E+00  0.23348344909E+04  0.23348344909E+04  0.25500000000E-02 0. -1.
         -2   -1    0    0    0  501 -0.00000000000E+00 -0.00000000000E+00 -0.18052634487E+03  0.18052634489E+03  0.25500000000E-02 0.  1.
    8880023    1    1    2    0    0 -0.26122513416E+03  0.15373072079E+03  0.20270063035E+04  0.21527741326E+04  0.65864270000E+03 0. -1.
    8880022    1    1    2    0    0  0.26122513416E+03 -0.15373072079E+03  0.12730184256E+03  0.36258670324E+03  0.15294330000E+03 0.  1.
<mgrwt>
<rscale>  0 0.59976697E+03</rscale>
<asrwt>0</asrwt>
<pdfrwt beam="1">  1        2 0.35920531E+00 0.72503925E+03</pdfrwt>
<pdfrwt beam="2">  1       -2 0.27773284E-01 0.72503925E+03</pdfrwt>
<totfact> 0.53269543E+01</totfact>
</mgrwt>
</event>
<event>
 4    1  0.6502538E-008  0.8285386E+03  0.7818608E-02  0.9652182E-01
          2   -1    0    0  501    0  0.00000000000E+00  0.00000000000E+00  0.25015384562E+04  0.25015384562E+04  0.25500000000E-02 0. -1.
         -2   -1    0    0    0  501 -0.00000000000E+00 -0.00000000000E+00 -0.58719317474E+03  0.58719317475E+03  0.25500000000E-02 0.  1.
    8880023    1    1    2    0    0 -0.25574631433E+03 -0.43273535837E+03  0.22949612672E+04  0.24399433378E+04  0.65864270000E+03 0. -1.
    8880022    1    1    2    0    0  0.25574631433E+03  0.43273535837E+03 -0.38061598573E+03  0.64878829312E+03  0.15294330000E+03 0.  0.
<mgrwt>
<rscale>  0 0.73936615E+03</rscale>
<asrwt>0</asrwt>
<pdfrwt beam="1">  1        2 0.38485208E+00 0.82853864E+03</pdfrwt>
<pdfrwt beam="2">  1       -2 0.90337410E-01 0.82853864E+03</pdfrwt>
<totfact> 0.37700745E+00</totfact>
</mgrwt>
</event>
<event>
 4    1  0.6502538E-008  0.1616322E+04  0.7818608E-02  0.8831584E-01
          2   -1    0    0  501    0  0.00000000000E+00  0.00000000000E+00  0.24074327509E+04  0.24074327509E+04  0.25500000000E-02 0. -1.
         -2   -1    0    0    0  501 -0.00000000000E+00 -0.00000000000E+00 -0.12387147933E+04  0.12387147933E+04  0.25500000000E-02 0.  1.
    8880023    1    1    2    0    0 -0.14058551845E+04  0.44973256526E+03 -0.19839929746E+03  0.16284534588E+04  0.65864270000E+03 0.  0.
    8880022    1    1    2    0    0  0.14058551845E+04 -0.44973256526E+03  0.13671172550E+04  0.20176940853E+04  0.15294330000E+03 0.  0.
<mgrwt>
<rscale>  0 0.15821591E+04</rscale>
<asrwt>0</asrwt>
<pdfrwt beam="1">  1        2 0.37037426E+00 0.16163225E+04</pdfrwt>
<pdfrwt beam="2">  1       -2 0.19057151E+00 0.16163225E+04</pdfrwt>
<totfact> 0.56183619E-01</totfact>
</mgrwt>
</event>
<event>
 4    1  0.6502538E-008  0.1379762E+04  0.7818608E-02  0.8999570E-01
          2   -1    0    0  501    0  0.00000000000E+00  0.00000000000E+00  0.38624644244E+04  0.38624644244E+04  0.25500000000E-02 0. -1.
         -2   -1    0    0    0  501 -0.00000000000E+00 -0.00000000000E+00 -0.47144992763E+03  0.47144992764E+03  0.25500000000E-02 0.  1.
    8880023    1    1    2    0    0  0.43859168464E+03 -0.11302965853E+04  0.23660254807E+04  0.27389450192E+04  0.65864270000E+03 0.  0.
    8880022    1    1    2    0    0 -0.43859168464E+03  0.11302965853E+04  0.10249890161E+04  0.15949693329E+04  0.15294330000E+03 0.  0.
<mgrwt>
<rscale>  0 0.13385125E+04</rscale>
<asrwt>0</asrwt>
<pdfrwt beam="1">  1        2 0.59422529E+00 0.13797620E+04</pdfrwt>
<pdfrwt beam="2">  1       -2 0.72530759E-01 0.13797620E+04</pdfrwt>
<totfact> 0.74749192E-01</totfact>
</mgrwt>
</event>
<event>
 4    1  0.6502538E-008  0.1220352E+04  0.7818608E-02  0.9137589E-01
         -2   -1    0    0    0  501 -0.00000000000E+00  0.00000000000E+00  0.11873721087E+04  0.11873721087E+04  0.25500000000E-02 0.  1.
          2   -1    0    0  501    0  0.00000000000E+00 -0.00000000000E+00 -0.22044327993E+04  0.22044327993E+04  0.25500000000E-02 0. -1.
    8880023    1    1    2    0    0 -0.79502254973E+02 -0.10242690481E+04 -0.17407327197E+04  0.21258900016E+04  0.65864270000E+03 0.  0.
    8880022    1    1    2    0    0  0.79502254973E+02  0.10242690481E+04  0.72367202907E+03  0.12659149064E+04  0.15294330000E+03 0.  0.
<mgrwt>
<rscale>  0 0.11721503E+04</rscale>
<asrwt>0</asrwt>
<pdfrwt beam="1">  1        2 0.33914351E+00 0.12203515E+04</pdfrwt>
<pdfrwt beam="2">  1       -2 0.18267263E+00 0.12203515E+04</pdfrwt>
<totfact> 0.86607614E-01</totfact>
</mgrwt>
</event>
<event>
 4    1  0.6502538E-008  0.7143073E+03  0.7818608E-02  0.9942341E-01
         -2   -1    0    0    0  501 -0.00000000000E+00  0.00000000000E+00  0.57513985634E+03  0.57513985635E+03  0.25500000000E-02 0.  1.
          2   -1    0    0  501    0  0.00000000000E+00 -0.00000000000E+00 -0.24990105781E+04  0.24990105782E+04  0.25500000000E-02 0. -1.
    8880023    1    1    2    0    0 -0.51842663376E+02  0.27154571039E+03 -0.23992695393E+04  0.25033436167E+04  0.65864270000E+03 0. -1.
    8880022    1    1    2    0    0  0.51842663376E+02 -0.27154571039E+03  0.47539881751E+03  0.57080681783E+03  0.15294330000E+03 0.  0.
<mgrwt>
<rscale>  0 0.58252431E+03</rscale>
<asrwt>0</asrwt>
<pdfrwt beam="1">  1        2 0.38446316E+00 0.71430732E+03</pdfrwt>
<pdfrwt beam="2">  1       -2 0.88483056E-01 0.71430732E+03</pdfrwt>
<totfact> 0.40496617E+00</totfact>
</mgrwt>
</event>
<event>
 4    1  0.6502538E-008  0.7888508E+03  0.7818608E-02  0.9735443E-01
         -2   -1    0    0    0  501 -0.00000000000E+00  0.00000000000E+00  0.88142948043E+03  0.88142948043E+03  0.25500000000E-02 0.  1.
          2   -1    0    0  501    0  0.00000000000E+00 -0.00000000000E+00 -0.21265866926E+04  0.21265866926E+04  0.25500000000E-02 0. -1.
    8880023    1    1    2    0    0  0.12190446044E+03 -0.41667095482E+03 -0.19853779610E+04  0.21363546608E+04  0.65864270000E+03 0. -1.
    8880022    1    1    2    0    0 -0.12190446044E+03  0.41667095482E+03  0.74022074883E+03  0.87166151233E+03  0.15294330000E+03 0.  0.
<mgrwt>
<rscale>  0 0.68945207E+03</rscale>
<asrwt>0</asrwt>
<pdfrwt beam="1">  1        2 0.32716718E+00 0.78885080E+03</pdfrwt>
<pdfrwt beam="2">  1       -2 0.13560454E+00 0.78885080E+03</pdfrwt>
<totfact> 0.22880685E+00</totfact>
</mgrwt>
</event>
<event>
 4    1  0.6502538E-008  0.1190356E+04  0.7818608E-02  0.9166554E-01
         -2   -1    0    0    0  501 -0.00000000000E+00  0.00000000000E+00  0.12052760622E+04  0.12052760623E+04  0.25500000000E-02 0.  1.
          2   -1    0    0  501    0  0.00000000000E+00 -0.00000000000E+00 -0.24725214145E+04  0.24725214145E+04  0.25500000000E-02 0. -1.
    8880023    1    1    2    0    0 -0.61950496061E+01 -0.99151374789E+03  0.76250789042E+03  0.14136358725E+04  0.65864270000E+03 0.  0.
    8880022    1    1    2    0    0  0.61950496061E+01  0.99151374789E+03 -0.20297532426E+04  0.22641616042E+04  0.15294330000E+03 0. -1.
<mgrwt>
<rscale>  0 0.11405414E+04</rscale>
<asrwt>0</asrwt>
<pdfrwt beam="1">  1        2 0.38038791E+00 0.11903563E+04</pdfrwt>
<pdfrwt beam="2">  1       -2 0.18542709E+00 0.11903563E+04</pdfrwt>
<totfact> 0.58715631E-01</totfact>
</mgrwt>
</event>
<event>
 4    1  0.6502538E-008  0.6704836E+03  0.7818608E-02  0.1015319E+00
          2   -1    0    0  501    0  0.00000000000E+00  0.00000000000E+00  0.21274106736E+04  0.21274106736E+04  0.25500000000E-02 0. -1.
         -2   -1    0    0    0  501 -0.00000000000E+00 -0.00000000000E+00 -0.21901507808E+03  0.21901507809E+03  0.25500000000E-02 0.  1.
    8880023    1    1    2    0    0  0.77931486478E+02 -0.98309290006E+02  0.20136585853E+04  0.21223499093E+04  0.65864270000E+03 0. -1.
    8880022    1    1    2    0    0 -0.77931486478E+02  0.98309290006E+02 -0.10526298982E+03  0.22407584235E+03  0.15294330000E+03 0.  0.
<mgrwt>
<rscale>  0 0.49414500E+03</rscale>
<asrwt>0</asrwt>
<pdfrwt beam="1">  1        2 0.32729394E+00 0.67048359E+03</pdfrwt>
<pdfrwt beam="2">  1       -2 0.33694628E-01 0.67048359E+03</pdfrwt>
<totfact> 0.48746878E+01</totfact>
</mgrwt>
</event>
<event>
 4    1  0.6502538E-008  0.1056778E+04  0.7818608E-02  0.9310777E-01
         -2   -1    0    0    0  501 -0.00000000000E+00  0.00000000000E+00  0.10176020086E+04  0.10176020086E+04  0.25500000000E-02 0.  1.
          2   -1    0    0  501    0  0.00000000000E+00 -0.00000000000E+00 -0.15100149981E+04  0.15100149981E+04  0.25500000000E-02 0. -1.
    8880023    1    1    2    0    0 -0.82635619334E+03 -0.10297080444E+02 -0.10730793794E+04  0.15060810566E+04  0.65864270000E+03 0.  0.
    8880022    1    1    2    0    0  0.82635619334E+03  0.10297080444E+02  0.58066638992E+03  0.10215359502E+04  0.15294330000E+03 0.  0.
<mgrwt>
<rscale>  0 0.99796753E+03</rscale>
<asrwt>0</asrwt>
<pdfrwt beam="1">  1        2 0.23231000E+00 0.10567785E+04</pdfrwt>
<pdfrwt beam="2">  1       -2 0.15655416E+00 0.10567785E+04</pdfrwt>
<totfact> 0.33019734E+00</totfact>
</mgrwt>
</event>
<event>
 4    1  0.6502538E-008  0.8500640E+03  0.7818608E-02  0.9611488E-01
          2   -1    0    0  501    0  0.00000000000E+00  0.00000000000E+00  0.54475918194E+03  0.54475918195E+03  0.25500000000E-02 0. -1.
         -2   -1    0    0    0  501 -0.00000000000E+00 -0.00000000000E+00 -0.11191701053E+04  0.11191701053E+04  0.25500000000E-02 0.  1.
    8880023    1    1    2    0    0 -0.49212893157E+03 -0.21588805433E+03  0.17117684602E+02  0.85023629579E+03  0.65864270000E+03 0. -1.
    8880022    1    1    2    0    0  0.49212893157E+03  0.21588805433E+03 -0.59152860795E+03  0.81369299145E+03  0.15294330000E+03 0.  0.
<mgrwt>
<rscale>  0 0.76540468E+03</rscale>
<asrwt>0</asrwt>
<pdfrwt beam="1">  1        2 0.83809105E-01 0.85006396E+03</pdfrwt>
<pdfrwt beam="2">  1       -2 0.17218002E+00 0.85006396E+03</pdfrwt>
<totfact> 0.11524424E+01</totfact>
</mgrwt>
</event>
<event>
 4    1  0.6502538E-008  0.1546689E+04  0.7818608E-02  0.8877352E-01
         -2   -1    0    0    0  501 -0.00000000000E+00  0.00000000000E+00  0.15385569870E+04  0.15385569870E+04  0.25500000000E-02 0.  1.
          2   -1    0    0  501    0  0.00000000000E+00 -0.00000000000E+00 -0.15849310878E+04  0.15849310878E+04  0.25500000000E-02 0. -1.
    8880023    1    1    2    0    0  0.12388320725E+04  0.65094576571E+03 -0.52997317564E+03  0.16349669926E+04  0.65864270000E+03 0.  0.
    8880022    1    1    2    0    0 -0.12388320725E+04 -0.65094576571E+03  0.48359907486E+03  0.14885210822E+04  0.15294330000E+03 0.  0.
<mgrwt>
<rscale>  0 0.15107248E+04</rscale>
<asrwt>0</asrwt>
<pdfrwt beam="1">  1        2 0.24383555E+00 0.15466886E+04</pdfrwt>
<pdfrwt beam="2">  1       -2 0.23670107E+00 0.15466886E+04</pdfrwt>
<totfact> 0.82624891E-01</totfact>
</mgrwt>
</event>
<event>
 4    1  0.6502538E-008  0.8588552E+03  0.7818608E-02  0.9595603E-01
         -2   -1    0    0    0  501 -0.00000000000E+00  0.00000000000E+00  0.23593894728E+03  0.23593894729E+03  0.25500000000E-02 0.  1.
          2   -1    0    0  501    0  0.00000000000E+00 -0.00000000000E+00 -0.21719934819E+04  0.21719934819E+04  0.25500000000E-02 0. -1.
    8880023    1    1    2    0    0  0.52517713562E+03 -0.16736469874E+03 -0.11213936871E+04  0.14124999023E+04  0.65864270000E+03 0.  1.
    8880022    1    1    2    0    0 -0.52517713562E+03  0.16736469874E+03 -0.81466084747E+03  0.99543252688E+03  0.15294330000E+03 0. -1.
<mgrwt>
<rscale>  0 0.77587876E+03</rscale>
<asrwt>0</asrwt>
<pdfrwt beam="1">  1        2 0.33415283E+00 0.85885515E+03</pdfrwt>
<pdfrwt beam="2">  1       -2 0.36298301E-01 0.85885515E+03</pdfrwt>
<totfact> 0.39051199E+01</totfact>
</mgrwt>
</event>
<event>
 4    1  0.6502538E-008  0.6654603E+03  0.7818608E-02  0.1019150E+00
         -2   -1    0    0    0  501 -0.00000000000E+00  0.00000000000E+00  0.79252056206E+03  0.79252056206E+03  0.25500000000E-02 0.  1.
          2   -1    0    0  501    0  0.00000000000E+00 -0.00000000000E+00 -0.92159253715E+03  0.92159253715E+03  0.25500000000E-02 0. -1.
    8880023    1    1    2    0    0  0.47226363683E+02 -0.82442822739E+02 -0.78778621863E+03  0.10312344452E+04  0.65864270000E+03 0. -1.
    8880022    1    1    2    0    0 -0.47226363683E+02  0.82442822739E+02  0.65871424354E+03  0.68287865401E+03  0.15294330000E+03 0.  0.
<mgrwt>
<rscale>  0 0.47994471E+03</rscale>
<asrwt>0</asrwt>
<pdfrwt beam="1">  1        2 0.14178347E+00 0.66546026E+03</pdfrwt>
<pdfrwt beam="2">  1       -2 0.12192624E+00 0.66546026E+03</pdfrwt>
<totfact> 0.14846946E+01</totfact>
</mgrwt>
</event>
<event>
 4    1  0.6502538E-008  0.9917963E+03  0.7818608E-02  0.9392370E-01
         -2   -1    0    0    0  501 -0.00000000000E+00  0.00000000000E+00  0.89598390384E+03  0.89598390384E+03  0.25500000000E-02 0.  1.
          2   -1    0    0  501    0  0.00000000000E+00 -0.00000000000E+00 -0.11174266218E+04  0.11174266218E+04  0.25500000000E-02 0. -1.
    8880023    1    1    2    0    0  0.71348498722E+03 -0.20196242492E+03 -0.60798702831E+03  0.11633177042E+04  0.65864270000E+03 0.  0.
    8880022    1    1    2    0    0 -0.71348498722E+03  0.20196242492E+03  0.38654431040E+03  0.85009282139E+03  0.15294330000E+03 0.  0.
<mgrwt>
<rscale>  0 0.92706255E+03</rscale>
<asrwt>0</asrwt>
<pdfrwt beam="1">  1        2 0.17191179E+00 0.99179628E+03</pdfrwt>
<pdfrwt beam="2">  1       -2 0.13784368E+00 0.99179628E+03</pdfrwt>
<totfact> 0.78871459E+00</totfact>
</mgrwt>
</event>
<event>
 4    1  0.6502538E-008  0.7275700E+03  0.7818608E-02  0.9897757E-01
         -2   -1    0    0    0  501 -0.00000000000E+00  0.00000000000E+00  0.77551957451E+03  0.77551957452E+03  0.25500000000E-02 0.  1.
          2   -1    0    0  501    0  0.00000000000E+00 -0.00000000000E+00 -0.13558741145E+04  0.13558741145E+04  0.25500000000E-02 0. -1.
    8880023    1    1    2    0    0  0.17959248336E+03  0.25158380470E+03 -0.12109146227E+04  0.14126826610E+04  0.65864270000E+03 0. -1.
    8880022    1    1    2    0    0 -0.17959248336E+03 -0.25158380470E+03  0.63056008273E+03  0.71871102803E+03  0.15294330000E+03 0.  0.
<mgrwt>
<rscale>  0 0.60370094E+03</rscale>
<asrwt>0</asrwt>
<pdfrwt beam="1">  1        2 0.20859602E+00 0.72756998E+03</pdfrwt>
<pdfrwt beam="2">  1       -2 0.11931070E+00 0.72756998E+03</pdfrwt>
<totfact> 0.84745394E+00</totfact>
</mgrwt>
</event>
<event>
 4    1  0.6502538E-008  0.1836044E+04  0.7818608E-02  0.8702856E-01
         -2   -1    0    0    0  501 -0.00000000000E+00  0.00000000000E+00  0.12717843592E+04  0.12717843592E+04  0.25500000000E-02 0.  1.
          2   -1    0    0  501    0  0.00000000000E+00 -0.00000000000E+00 -0.28164735042E+04  0.28164735042E+04  0.25500000000E-02 0. -1.
    8880023    1    1    2    0    0 -0.88651839921E+03  0.14667415541E+04 -0.14936276892E+04  0.23668501302E+04  0.65864270000E+03 0.  0.
    8880022    1    1    2    0    0  0.88651839921E+03 -0.14667415541E+04 -0.51061455814E+02  0.17214077332E+04  0.15294330000E+03 0.  0.
<mgrwt>
<rscale>  0 0.18064893E+04</rscale>
<asrwt>0</asrwt>
<pdfrwt beam="1">  1        2 0.43330361E+00 0.18360435E+04</pdfrwt>
<pdfrwt beam="2">  1       -2 0.19565913E+00 0.18360435E+04</pdfrwt>
<totfact> 0.29167076E-01</totfact>
</mgrwt>
</event>
<event>
 4    1  0.6502538E-008  0.9505163E+03  0.7818608E-02  0.9449372E-01
          2   -1    0    0  501    0  0.00000000000E+00  0.00000000000E+00  0.21744525523E+04  0.21744525523E+04  0.25500000000E-02 0. -1.
         -2   -1    0    0    0  501 -0.00000000000E+00 -0.00000000000E+00 -0.74403832657E+03  0.74403832658E+03  0.25500000000E-02 0.  1.
    8880023    1    1    2    0    0  0.61093936451E+03 -0.31052226789E+03  0.18646114164E+04  0.20929063348E+04  0.65864270000E+03 0. -1.
    8880022    1    1    2    0    0 -0.61093936451E+03  0.31052226789E+03 -0.43419719066E+03  0.82558454404E+03  0.15294330000E+03 0.  0.
<mgrwt>
<rscale>  0 0.88121611E+03</rscale>
<asrwt>0</asrwt>
<pdfrwt beam="1">  1        2 0.33453116E+00 0.95051628E+03</pdfrwt>
<pdfrwt beam="2">  1       -2 0.11446743E+00 0.95051628E+03</pdfrwt>
<totfact> 0.32107404E+00</totfact>
</mgrwt>
</event>
<event>
 4    1  0.6502538E-008  0.8685121E+03  0.7818608E-02  0.9578598E-01
         -2   -1    0    0    0  501 -0.00000000000E+00  0.00000000000E+00  0.45765921005E+03  0.45765921005E+03  0.25500000000E-02 0.  1.
          2   -1    0    0  501    0  0.00000000000E+00 -0.00000000000E+00 -0.23994484768E+04  0.23994484768E+04  0.25500000000E-02 0. -1.
    8880023    1    1    2    0    0 -0.16198896485E+03 -0.54245972261E+03 -0.20804960651E+04  0.22545015100E+04  0.65864270000E+03 0.  0.
    8880022    1    1    2    0    0  0.16198896485E+03  0.54245972261E+03  0.13870679841E+03  0.60260617680E+03  0.15294330000E+03 0.  0.
<mgrwt>
<rscale>  0 0.78729059E+03</rscale>
<asrwt>0</asrwt>
<pdfrwt beam="1">  1        2 0.36914591E+00 0.86851205E+03</pdfrwt>
<pdfrwt beam="2">  1       -2 0.70409110E-01 0.86851205E+03</pdfrwt>
<totfact> 0.74994848E+00</totfact>
</mgrwt>
</event>
<event>
 4    1  0.6502538E-008  0.7573525E+03  0.7818608E-02  0.9812010E-01
          2   -1    0    0  501    0  0.00000000000E+00  0.00000000000E+00  0.66583842259E+03  0.66583842259E+03  0.25500000000E-02 0. -1.
         -2   -1    0    0    0  501 -0.00000000000E+00 -0.00000000000E+00 -0.72873453850E+03  0.72873453850E+03  0.25500000000E-02 0.  1.
    8880023    1    1    2    0    0  0.27737018971E+03  0.25067591991E+03 -0.41069043889E+03  0.86153901933E+03  0.65864270000E+03 0.  0.
    8880022    1    1    2    0    0 -0.27737018971E+03 -0.25067591991E+03  0.34779432298E+03  0.53303394177E+03  0.15294330000E+03 0.  0.
<mgrwt>
<rscale>  0 0.64721966E+03</rscale>
<asrwt>0</asrwt>
<pdfrwt beam="1">  1        2 0.10243668E+00 0.75735252E+03</pdfrwt>
<pdfrwt beam="2">  1       -2 0.11211301E+00 0.75735252E+03</pdfrwt>
<totfact> 0.27721150E+01</totfact>
</mgrwt>
</event>
<event>
 4    1  0.6502538E-008  0.8416477E+03  0.7818608E-02  0.9627081E-01
          2   -1    0    0  501    0  0.00000000000E+00  0.00000000000E+00  0.16474674937E+04  0.16474674937E+04  0.25500000000E-02 0. -1.
         -2   -1    0    0    0  501 -0.00000000000E+00 -0.00000000000E+00 -0.15514856749E+04  0.15514856749E+04  0.25500000000E-02 0.  1.
    8880023    1    1    2    0    0 -0.35245219426E+03 -0.38773448732E+03  0.14847807669E+04  0.17067351037E+04  0.65864270000E+03 0. -1.
    8880022    1    1    2    0    0  0.35245219426E+03  0.38773448732E+03 -0.13887989481E+04  0.14922180649E+04  0.15294330000E+03 0.  0.
<mgrwt>
<rscale>  0 0.75529407E+03</rscale>
<asrwt>0</asrwt>
<pdfrwt beam="1">  1        2 0.25345654E+00 0.84164766E+03</pdfrwt>
<pdfrwt beam="2">  1       -2 0.23869011E+00 0.84164766E+03</pdfrwt>
<totfact> 0.81123313E-01</totfact>
</mgrwt>
</event>
<event>
 4    1  0.6502538E-008  0.8312974E+03  0.7818608E-02  0.9646813E-01
         -2   -1    0    0    0  501 -0.00000000000E+00  0.00000000000E+00  0.46692105186E+03  0.46692105187E+03  0.25500000000E-02 0.  1.
          2   -1    0    0  501    0  0.00000000000E+00 -0.00000000000E+00 -0.14824019012E+04  0.14824019012E+04  0.25500000000E-02 0. -1.
    8880023    1    1    2    0    0  0.48938106552E+03  0.13323396050E+03 -0.31610213446E+02  0.83189814723E+03  0.65864270000E+03 0.  0.
    8880022    1    1    2    0    0 -0.48938106552E+03 -0.13323396050E+03 -0.98387063588E+03  0.11174248058E+04  0.15294330000E+03 0.  0.
<mgrwt>
<rscale>  0 0.74273754E+03</rscale>
<asrwt>0</asrwt>
<pdfrwt beam="1">  1        2 0.22806183E+00 0.83129737E+03</pdfrwt>
<pdfrwt beam="2">  1       -2 0.71834009E-01 0.83129737E+03</pdfrwt>
<totfact> 0.23135042E+01</totfact>
</mgrwt>
</event>
<event>
 4    1  0.6502538E-008  0.6865030E+03  0.7818608E-02  0.1005861E+00
          2   -1    0    0  501    0  0.00000000000E+00  0.00000000000E+00  0.18014129419E+04  0.18014129419E+04  0.25500000000E-02 0. -1.
         -2   -1    0    0    0  501 -0.00000000000E+00 -0.00000000000E+00 -0.16661327630E+03  0.16661327632E+03  0.25500000000E-02 0.  1.
    8880023    1    1    2    0    0 -0.17645808066E+03 -0.79615816936E+02  0.15691127386E+04  0.17127174680E+04  0.65864270000E+03 0. -1.
    8880022    1    1    2    0    0  0.17645808066E+03  0.79615816936E+02  0.65686927003E+02  0.25530875021E+03  0.15294330000E+03 0.  0.
<mgrwt>
<rscale>  0 0.53153303E+03</rscale>
<asrwt>0</asrwt>
<pdfrwt beam="1">  1        2 0.27714046E+00 0.68650298E+03</pdfrwt>
<pdfrwt beam="2">  1       -2 0.25632811E-01 0.68650298E+03</pdfrwt>
<totfact> 0.12131005E+02</totfact>
</mgrwt>
</event>
<event>
 4    1  0.6502538E-008  0.7681114E+03  0.7818608E-02  0.9784543E-01
          2   -1    0    0  501    0  0.00000000000E+00  0.00000000000E+00  0.14175811088E+04  0.14175811088E+04  0.25500000000E-02 0. -1.
         -2   -1    0    0    0  501 -0.00000000000E+00 -0.00000000000E+00 -0.48133421733E+03  0.48133421734E+03  0.25500000000E-02 0.  1.
    8880023    1    1    2    0    0  0.14526475673E+03 -0.36753656676E+03  0.11815481368E+04  0.14092732820E+04  0.65864270000E+03 0. -1.
    8880022    1    1    2    0    0 -0.14526475673E+03  0.36753656676E+03 -0.24530124532E+03  0.48964204418E+03  0.15294330000E+03 0.  0.
<mgrwt>
<rscale>  0 0.66198691E+03</rscale>
<asrwt>0</asrwt>
<pdfrwt beam="1">  1        2 0.21808940E+00 0.76811144E+03</pdfrwt>
<pdfrwt beam="2">  1       -2 0.74051418E-01 0.76811144E+03</pdfrwt>
<totfact> 0.23692689E+01</totfact>
</mgrwt>
</event>
<event>
 4    1  0.6502538E-008  0.7007315E+03  0.7818608E-02  0.9994180E-01
          2   -1    0    0  501    0  0.00000000000E+00  0.00000000000E+00  0.21899140885E+04  0.21899140885E+04  0.25500000000E-02 0. -1.
         -2   -1    0    0    0  501 -0.00000000000E+00 -0.00000000000E+00 -0.14570511372E+03  0.14570511374E+03  0.25500000000E-02 0.  1.
    8880023    1    1    2    0    0 -0.83567604754E+02 -0.22412262463E+03  0.18829405412E+04  0.20091017355E+04  0.65864270000E+03 0. -1.
    8880022    1    1    2    0    0  0.83567604754E+02  0.22412262463E+03  0.16126843357E+03  0.32651746679E+03  0.15294330000E+03 0. -1.
<mgrwt>
<rscale>  0 0.55906174E+03</rscale>
<asrwt>0</asrwt>
<pdfrwt beam="1">  1        2 0.33690986E+00 0.70073155E+03</pdfrwt>
<pdfrwt beam="2">  1       -2 0.22416171E-01 0.70073155E+03</pdfrwt>
<totfact> 0.94563489E+01</totfact>
</mgrwt>
</event>
<event>
 4    1  0.6502538E-008  0.6739521E+03  0.7818608E-02  0.1012975E+00
          2   -1    0    0  501    0  0.00000000000E+00  0.00000000000E+00  0.13000170151E+04  0.13000170151E+04  0.25500000000E-02 0. -1.
         -2   -1    0    0    0  501 -0.00000000000E+00 -0.00000000000E+00 -0.79476518313E+03  0.79476518314E+03  0.25500000000E-02 0.  1.
    8880023    1    1    2    0    0 -0.13883710145E+03  0.33549071351E+02  0.11961164129E+04  0.13729187742E+04  0.65864270000E+03 0. -1.
    8880022    1    1    2    0    0  0.13883710145E+03 -0.33549071351E+02 -0.69086458090E+03  0.72186342412E+03  0.15294330000E+03 0.  0.
<mgrwt>
<rscale>  0 0.50309187E+03</rscale>
<asrwt>0</asrwt>
<pdfrwt beam="1">  1        2 0.20000261E+00 0.67395214E+03</pdfrwt>
<pdfrwt beam="2">  1       -2 0.12227157E+00 0.67395214E+03</pdfrwt>
<totfact> 0.86488335E+00</totfact>
</mgrwt>
</event>
<event>
 4    1  0.6502538E-008  0.1042899E+04  0.7818608E-02  0.9327467E-01
         -2   -1    0    0    0  501 -0.00000000000E+00  0.00000000000E+00  0.55407465243E+03  0.55407465243E+03  0.25500000000E-02 0.  1.
          2   -1    0    0  501    0  0.00000000000E+00 -0.00000000000E+00 -0.20902381150E+04  0.20902381150E+04  0.25500000000E-02 0. -1.
    8880023    1    1    2    0    0 -0.68282460839E+03 -0.43310292624E+03 -0.14917880425E+04  0.18201838810E+04  0.65864270000E+03 0.  0.
    8880022    1    1    2    0    0  0.68282460839E+03  0.43310292624E+03 -0.44375420037E+02  0.82412888643E+03  0.15294330000E+03 0.  0.
<mgrwt>
<rscale>  0 0.98293041E+03</rscale>
<asrwt>0</asrwt>
<pdfrwt beam="1">  1        2 0.32157509E+00 0.10428987E+04</pdfrwt>
<pdfrwt beam="2">  1       -2 0.85242255E-01 0.10428987E+04</pdfrwt>
<totfact> 0.71084111E+00</totfact>
</mgrwt>
</event>
<event>
 4    1  0.6502538E-008  0.7766374E+03  0.7818608E-02  0.9763796E-01
          2   -1    0    0  501    0  0.00000000000E+00  0.00000000000E+00  0.13761129604E+04  0.13761129604E+04  0.25500000000E-02 0. -1.
         -2   -1    0    0    0  501 -0.00000000000E+00 -0.00000000000E+00 -0.10265782483E+04  0.10265782483E+04  0.25500000000E-02 0.  1.
    8880023    1    1    2    0    0 -0.89143950836E+01  0.41143163657E+03  0.12093630298E+04  0.14372628856E+04  0.65864270000E+03 0.  0.
    8880022    1    1    2    0    0  0.89143950836E+01 -0.41143163657E+03 -0.85982831777E+03  0.96542832311E+03  0.15294330000E+03 0.  0.
<mgrwt>
<rscale>  0 0.67342187E+03</rscale>
<asrwt>0</asrwt>
<pdfrwt beam="1">  1        2 0.21170969E+00 0.77663741E+03</pdfrwt>
<pdfrwt beam="2">  1       -2 0.15793512E+00 0.77663741E+03</pdfrwt>
<totfact> 0.39784051E+00</totfact>
</mgrwt>
</event>
<event>
 4    1  0.6502538E-008  0.6837626E+03  0.7818608E-02  0.1007271E+00
          2   -1    0    0  501    0  0.00000000000E+00  0.00000000000E+00  0.44298723559E+03  0.44298723560E+03  0.25500000000E-02 0. -1.
         -2   -1    0    0    0  501 -0.00000000000E+00 -0.00000000000E+00 -0.88207780925E+03  0.88207780925E+03  0.25500000000E-02 0.  1.
    8880023    1    1    2    0    0  0.14722489497E+03  0.10975388288E+03  0.14057928381E+03  0.69806434217E+03  0.65864270000E+03 0. -1.
    8880022    1    1    2    0    0 -0.14722489497E+03 -0.10975388288E+03 -0.57966985746E+03  0.62700070269E+03  0.15294330000E+03 0.  0.
<mgrwt>
<rscale>  0 0.52573952E+03</rscale>
<asrwt>0</asrwt>
<pdfrwt beam="1">  1        2 0.68151882E-01 0.68376260E+03</pdfrwt>
<pdfrwt beam="2">  1       -2 0.13570428E+00 0.68376260E+03</pdfrwt>
<totfact> 0.28055643E+01</totfact>
</mgrwt>
</event>
<event>
 4    1  0.6502538E-008  0.6887804E+03  0.7818608E-02  0.1004738E+00
         -2   -1    0    0    0  501 -0.00000000000E+00  0.00000000000E+00  0.14460791886E+03  0.14460791888E+03  0.25500000000E-02 0.  1.
          2   -1    0    0  501    0  0.00000000000E+00 -0.00000000000E+00 -0.40651051329E+04  0.40651051329E+04  0.25500000000E-02 0. -1.
    8880023    1    1    2    0    0  0.20044614730E+03  0.20727384141E+02 -0.38950194175E+04  0.39554512703E+04  0.65864270000E+03 0. -1.
    8880022    1    1    2    0    0 -0.20044614730E+03 -0.20727384141E+02 -0.25477796566E+02  0.25426178154E+03  0.15294330000E+03 0.  0.
<mgrwt>
<rscale>  0 0.53620770E+03</rscale>
<asrwt>0</asrwt>
<pdfrwt beam="1">  1        2 0.62540070E+00 0.68878044E+03</pdfrwt>
<pdfrwt beam="2">  1       -2 0.22247375E-01 0.68878044E+03</pdfrwt>
<totfact> 0.60016003E+00</totfact>
</mgrwt>
</event>
<event>
 4    1  0.6502538E-008  0.7647181E+03  0.7818608E-02  0.9793042E-01
          2   -1    0    0  501    0  0.00000000000E+00  0.00000000000E+00  0.67734395515E+03  0.67734395516E+03  0.25500000000E-02 0. -1.
         -2   -1    0    0    0  501 -0.00000000000E+00 -0.00000000000E+00 -0.92235662946E+03  0.92235662947E+03  0.25500000000E-02 0.  1.
    8880023    1    1    2    0    0 -0.11014006832E+03  0.37262956926E+03  0.37536387695E+03  0.85187550553E+03  0.65864270000E+03 0.  0.
    8880022    1    1    2    0    0  0.11014006832E+03 -0.37262956926E+03 -0.62037655127E+03  0.74782507909E+03  0.15294330000E+03 0.  0.
<mgrwt>
<rscale>  0 0.65737269E+03</rscale>
<asrwt>0</asrwt>
<pdfrwt beam="1">  1        2 0.10420676E+00 0.76471814E+03</pdfrwt>
<pdfrwt beam="2">  1       -2 0.14190102E+00 0.76471814E+03</pdfrwt>
<totfact> 0.15003291E+01</totfact>
</mgrwt>
</event>
<event>
 4    1  0.6502538E-008  0.7665414E+03  0.7818608E-02  0.9788458E-01
          2   -1    0    0  501    0  0.00000000000E+00  0.00000000000E+00  0.10328650549E+04  0.10328650549E+04  0.25500000000E-02 0. -1.
         -2   -1    0    0    0  501 -0.00000000000E+00 -0.00000000000E+00 -0.11767153294E+04  0.11767153294E+04  0.25500000000E-02 0.  1.
    8880023    1    1    2    0    0 -0.34133002795E+02 -0.39065389061E+03  0.84138102998E+03  0.11382037463E+04  0.65864270000E+03 0.  0.
    8880022    1    1    2    0    0  0.34133002795E+02  0.39065389061E+03 -0.98523130445E+03  0.10713766380E+04  0.15294330000E+03 0.  0.
<mgrwt>
<rscale>  0 0.65985669E+03</rscale>
<asrwt>0</asrwt>
<pdfrwt beam="1">  1        2 0.15890232E+00 0.76654141E+03</pdfrwt>
<pdfrwt beam="2">  1       -2 0.18103313E+00 0.76654141E+03</pdfrwt>
<totfact> 0.43646959E+00</totfact>
</mgrwt>
</event>
<event>
 4    1  0.6502538E-008  0.8661271E+03  0.7818608E-02  0.9582756E-01
          2   -1    0    0  501    0  0.00000000000E+00  0.00000000000E+00  0.26323228288E+04  0.26323228288E+04  0.25500000000E-02 0. -1.
         -2   -1    0    0    0  501 -0.00000000000E+00 -0.00000000000E+00 -0.31750379065E+03  0.31750379066E+03  0.25500000000E-02 0.  1.
    8880023    1    1    2    0    0 -0.15333506646E+03 -0.54116020069E+03  0.21881521341E+04  0.23533350747E+04  0.65864270000E+03 0.  0.
    8880022    1    1    2    0    0  0.15333506646E+03  0.54116020069E+03  0.12666690404E+03  0.59649154480E+03  0.15294330000E+03 0.  0.
<mgrwt>
<rscale>  0 0.78448093E+03</rscale>
<asrwt>0</asrwt>
<pdfrwt beam="1">  1        2 0.40497275E+00 0.86612713E+03</pdfrwt>
<pdfrwt beam="2">  1       -2 0.48846736E-01 0.86612713E+03</pdfrwt>
<totfact> 0.11939520E+01</totfact>
</mgrwt>
</event>
<event>
 4    1  0.6502538E-008  0.1283278E+04  0.7818608E-02  0.9080136E-01
         -2   -1    0    0    0  501 -0.00000000000E+00  0.00000000000E+00  0.22238200662E+04  0.22238200662E+04  0.25500000000E-02 0.  1.
          2   -1    0    0  501    0  0.00000000000E+00 -0.00000000000E+00 -0.11266037830E+04  0.11266037830E+04  0.25500000000E-02 0. -1.
    8880023    1    1    2    0    0 -0.35236043646E+02 -0.11007955160E+04 -0.52266505149E+03  0.13856339016E+04  0.65864270000E+03 0.  0.
    8880022    1    1    2    0    0  0.35236043646E+02  0.11007955160E+04  0.16198813347E+04  0.19647899477E+04  0.15294330000E+03 0.  0.
<mgrwt>
<rscale>  0 0.12381115E+04</rscale>
<asrwt>0</asrwt>
<pdfrwt beam="1">  1        2 0.17332366E+00 0.12832780E+04</pdfrwt>
<pdfrwt beam="2">  1       -2 0.34212616E+00 0.12832780E+04</pdfrwt>
<totfact> 0.35505355E-01</totfact>
</mgrwt>
</event>
<event>
 4    1  0.6502538E-008  0.8299379E+03  0.7818608E-02  0.9649453E-01
          2   -1    0    0  501    0  0.00000000000E+00  0.00000000000E+00  0.37067003049E+04  0.37067003049E+04  0.25500000000E-02 0. -1.
         -2   -1    0    0    0  501 -0.00000000000E+00 -0.00000000000E+00 -0.25105467767E+03  0.25105467768E+03  0.25500000000E-02 0.  1.
    8880023    1    1    2    0    0  0.40333138387E+03  0.30382632470E+03  0.33070685670E+04  0.34096186522E+04  0.65864270000E+03 0. -1.
    8880022    1    1    2    0    0 -0.40333138387E+03 -0.30382632470E+03  0.14857706026E+03  0.54813633035E+03  0.15294330000E+03 0.  0.
<mgrwt>
<rscale>  0 0.74107746E+03</rscale>
<asrwt>0</asrwt>
<pdfrwt beam="1">  1        2 0.57026156E+00 0.82993786E+03</pdfrwt>
<pdfrwt beam="2">  1       -2 0.38623798E-01 0.82993786E+03</pdfrwt>
<totfact> 0.39301419E+00</totfact>
</mgrwt>
</event>
<event>
 4    1  0.6502538E-008  0.7165138E+03  0.7818608E-02  0.9934563E-01
         -2   -1    0    0    0  501 -0.00000000000E+00  0.00000000000E+00  0.26193771551E+04  0.26193771551E+04  0.25500000000E-02 0.  1.
          2   -1    0    0  501    0  0.00000000000E+00 -0.00000000000E+00 -0.58278168342E+03  0.58278168342E+03  0.25500000000E-02 0. -1.
    8880023    1    1    2    0    0  0.26232841743E+03  0.10375752858E+03 -0.34766119188E+03  0.79640462953E+03  0.65864270000E+03 0. -1.
    8880022    1    1    2    0    0 -0.26232841743E+03 -0.10375752858E+03  0.23842566636E+04  0.24057542090E+04  0.15294330000E+03 0.  0.
<mgrwt>
<rscale>  0 0.58615044E+03</rscale>
<asrwt>0</asrwt>
<pdfrwt beam="1">  1        2 0.89658720E-01 0.71651380E+03</pdfrwt>
<pdfrwt beam="2">  1       -2 0.40298110E+00 0.71651380E+03</pdfrwt>
<totfact> 0.39087760E-01</totfact>
</mgrwt>
</event>
<event>
 4    1  0.6502538E-008  0.8064498E+03  0.7818608E-02  0.9697020E-01
          2   -1    0    0  501    0  0.00000000000E+00  0.00000000000E+00  0.10380179185E+04  0.10380179185E+04  0.25500000000E-02 0. -1.
         -2   -1    0    0    0  501 -0.00000000000E+00 -0.00000000000E+00 -0.10815942503E+04  0.10815942503E+04  0.25500000000E-02 0.  1.
    8880023    1    1    2    0    0 -0.45552379296E+03 -0.95127286099E+02  0.80521376449E+03  0.11396185938E+04  0.65864270000E+03 0. -1.
    8880022    1    1    2    0    0  0.45552379296E+03  0.95127286099E+02 -0.84879009627E+03  0.97999357501E+03  0.15294330000E+03 0.  0.
<mgrwt>
<rscale>  0 0.71194505E+03</rscale>
<asrwt>0</asrwt>
<pdfrwt beam="1">  1        2 0.15969506E+00 0.80644983E+03</pdfrwt>
<pdfrwt beam="2">  1       -2 0.16639912E+00 0.80644983E+03</pdfrwt>
<totfact> 0.54570582E+00</totfact>
</mgrwt>
</event>
<event>
 4    1  0.6502538E-008  0.9480911E+03  0.7818608E-02  0.9452866E-01
         -2   -1    0    0    0  501 -0.00000000000E+00  0.00000000000E+00  0.76217357560E+03  0.76217357560E+03  0.25500000000E-02 0.  1.
          2   -1    0    0  501    0  0.00000000000E+00 -0.00000000000E+00 -0.12602928851E+04  0.12602928851E+04  0.25500000000E-02 0. -1.
    8880023    1    1    2    0    0 -0.26154787410E+03 -0.62980887919E+03 -0.81953630909E+03  0.12532024908E+04  0.65864270000E+03 0. -1.
    8880022    1    1    2    0    0  0.26154787410E+03  0.62980887919E+03  0.32141699959E+03  0.76926396990E+03  0.15294330000E+03 0.  0.
<mgrwt>
<rscale>  0 0.87849839E+03</rscale>
<asrwt>0</asrwt>
<pdfrwt beam="1">  1        2 0.19389121E+00 0.94809109E+03</pdfrwt>
<pdfrwt beam="2">  1       -2 0.11725747E+00 0.94809109E+03</pdfrwt>
<totfact> 0.97877687E+00</totfact>
</mgrwt>
</event>
<event>
 4    1  0.6502538E-008  0.8584068E+03  0.7818608E-02  0.9596404E-01
         -2   -1    0    0    0  501 -0.00000000000E+00  0.00000000000E+00  0.11495528057E+04  0.11495528057E+04  0.25500000000E-02 0.  1.
          2   -1    0    0  501    0  0.00000000000E+00 -0.00000000000E+00 -0.19255782880E+04  0.19255782880E+04  0.25500000000E-02 0. -1.
    8880023    1    1    2    0    0  0.32596020567E+03  0.44362367224E+03 -0.17481510882E+04  0.19475354815E+04  0.65864270000E+03 0. -1.
    8880022    1    1    2    0    0 -0.32596020567E+03 -0.44362367224E+03  0.97212560587E+03  0.11275956123E+04  0.15294330000E+03 0.  0.
<mgrwt>
<rscale>  0 0.77534661E+03</rscale>
<asrwt>0</asrwt>
<pdfrwt beam="1">  1        2 0.29624281E+00 0.85840679E+03</pdfrwt>
<pdfrwt beam="2">  1       -2 0.17685428E+00 0.85840679E+03</pdfrwt>
<totfact> 0.14275520E+00</totfact>
</mgrwt>
</event>
<event>
 4    1  0.6502538E-008  0.8734357E+03  0.7818608E-02  0.9570097E-01
         -2   -1    0    0    0  501 -0.00000000000E+00  0.00000000000E+00  0.67221481286E+03  0.67221481287E+03  0.25500000000E-02 0.  1.
          2   -1    0    0  501    0  0.00000000000E+00 -0.00000000000E+00 -0.10091732221E+04  0.10091732221E+04  0.25500000000E-02 0. -1.
    8880023    1    1    2    0    0  0.54702676029E+03  0.17274684484E+03 -0.57068314915E+03  0.10433452026E+04  0.65864270000E+03 0.  0.
    8880022    1    1    2    0    0 -0.54702676029E+03 -0.17274684484E+03  0.23372473989E+03  0.63804283236E+03  0.15294330000E+03 0.  0.
<mgrwt>
<rscale>  0 0.79307397E+03</rscale>
<asrwt>0</asrwt>
<pdfrwt beam="1">  1        2 0.15525742E+00 0.87343572E+03</pdfrwt>
<pdfrwt beam="2">  1       -2 0.10341766E+00 0.87343572E+03</pdfrwt>
<totfact> 0.19028204E+01</totfact>
</mgrwt>
</event>
<event>
 4    1  0.6502538E-008  0.8117311E+03  0.7818608E-02  0.9685982E-01
          2   -1    0    0  501    0  0.00000000000E+00  0.00000000000E+00  0.13848766037E+04  0.13848766037E+04  0.25500000000E-02 0. -1.
         -2   -1    0    0    0  501 -0.00000000000E+00 -0.00000000000E+00 -0.32131611759E+03  0.32131611760E+03  0.25500000000E-02 0.  1.
    8880023    1    1    2    0    0 -0.47362025587E+03 -0.27947182283E+02  0.49806380146E+03  0.95235232365E+03  0.65864270000E+03 0.  1.
    8880022    1    1    2    0    0  0.47362025587E+03  0.27947182283E+02  0.56549668463E+03  0.75384039764E+03  0.15294330000E+03 0. -1.
<mgrwt>
<rscale>  0 0.71857567E+03</rscale>
<asrwt>0</asrwt>
<pdfrwt beam="1">  1        2 0.21305794E+00 0.81173111E+03</pdfrwt>
<pdfrwt beam="2">  1       -2 0.49433249E-01 0.81173111E+03</pdfrwt>
<totfact> 0.57961218E+01</totfact>
</mgrwt>
</event>
<event>
 4    1  0.2216959E-007  0.1269172E+04  0.7818608E-02  0.9092650E-01
          2   -1    0    0  501    0  0.00000000000E+00  0.00000000000E+00  0.25885117730E+04  0.25885117730E+04  0.25500000000E-02 0. -1.
         -2   -1    0    0    0  501 -0.00000000000E+00 -0.00000000000E+00 -0.28761554951E+04  0.28761554951E+04  0.25500000000E-02 0.  1.
    8880023    1    1    2    0    0  0.50627770937E+03 -0.95951561113E+03  0.23154094646E+04  0.26404390775E+04  0.65864270000E+03 0.  0.
    8880022    1    1    2    0    0 -0.50627770937E+03  0.95951561113E+03 -0.26030531866E+04  0.28242281906E+04  0.15294330000E+03 0.  0.
<mgrwt>
<rscale>  0 0.12233625E+04</rscale>
<asrwt>0</asrwt>
<pdfrwt beam="1">  1        2 0.39823258E+00 0.12691720E+04</pdfrwt>
<pdfrwt beam="2">  1       -2 0.44248546E+00 0.12691720E+04</pdfrwt>
<totfact> 0.11748971E-02</totfact>
</mgrwt>
</event>
<event>
 4    1  0.6502538E-008  0.7389628E+03  0.7818608E-02  0.9862979E-01
         -2   -1    0    0    0  501 -0.00000000000E+00  0.00000000000E+00  0.35536227006E+03  0.35536227007E+03  0.25500000000E-02 0.  1.
          2   -1    0    0  501    0  0.00000000000E+00 -0.00000000000E+00 -0.10231435396E+04  0.10231435396E+04  0.25500000000E-02 0. -1.
    8880023    1    1    2    0    0  0.85516046205E+02 -0.32394882146E+03 -0.68798553691E+03  0.10096485222E+04  0.65864270000E+03 0. -1.
    8880022    1    1    2    0    0 -0.85516046205E+02  0.32394882146E+03  0.20204267382E+02  0.36885728747E+03  0.15294330000E+03 0.  0.
<mgrwt>
<rscale>  0 0.62089535E+03</rscale>
<asrwt>0</asrwt>
<pdfrwt beam="1">  1        2 0.15740670E+00 0.73896281E+03</pdfrwt>
<pdfrwt beam="2">  1       -2 0.54671119E-01 0.73896281E+03</pdfrwt>
<totfact> 0.77821466E+01</totfact>
</mgrwt>
</event>
<event>
 4    1  0.6502538E-008  0.1414496E+04  0.7818608E-02  0.8972500E-01
         -2   -1    0    0    0  501 -0.00000000000E+00  0.00000000000E+00  0.22200021049E+04  0.22200021049E+04  0.25500000000E-02 0.  1.
          2   -1    0    0  501    0  0.00000000000E+00 -0.00000000000E+00 -0.11852942556E+04  0.11852942556E+04  0.25500000000E-02 0. -1.
    8880023    1    1    2    0    0  0.10585837046E+04 -0.66812328497E+03 -0.42433906416E+03  0.14767741978E+04  0.65864270000E+03 0.  0.
    8880022    1    1    2    0    0 -0.10585837046E+04  0.66812328497E+03  0.14590469135E+04  0.19285221628E+04  0.15294330000E+03 0.  0.
<mgrwt>
<rscale>  0 0.13744814E+04</rscale>
<asrwt>0</asrwt>
<pdfrwt beam="1">  1        2 0.18235296E+00 0.14144958E+04</pdfrwt>
<pdfrwt beam="2">  1       -2 0.34153879E+00 0.14144958E+04</pdfrwt>
<totfact> 0.32458604E-01</totfact>
</mgrwt>
</event>
<event>
 4    1  0.6502538E-008  0.1302782E+04  0.7818608E-02  0.9063161E-01
          2   -1    0    0  501    0  0.00000000000E+00  0.00000000000E+00  0.14929656316E+04  0.14929656316E+04  0.25500000000E-02 0. -1.
         -2   -1    0    0    0  501 -0.00000000000E+00 -0.00000000000E+00 -0.22939623362E+04  0.22939623362E+04  0.25500000000E-02 0.  1.
    8880023    1    1    2    0    0  0.11190883793E+04 -0.10522308483E+03 -0.18360536831E+04  0.22512960782E+04  0.65864270000E+03 0.  1.
    8880022    1    1    2    0    0 -0.11190883793E+04  0.10522308483E+03  0.10350569785E+04  0.15356318895E+04  0.15294330000E+03 0.  0.
<mgrwt>
<rscale>  0 0.12584722E+04</rscale>
<asrwt>0</asrwt>
<pdfrwt beam="1">  1        2 0.22968702E+00 0.13027820E+04</pdfrwt>
<pdfrwt beam="2">  1       -2 0.35291728E+00 0.13027820E+04</pdfrwt>
<totfact> 0.18456677E-01</totfact>
</mgrwt>
</event>
<event>
 4    1  0.6502538E-008  0.7227249E+03  0.7818608E-02  0.9913471E-01
         -2   -1    0    0    0  501 -0.00000000000E+00  0.00000000000E+00  0.23975813341E+03  0.23975813343E+03  0.25500000000E-02 0.  1.
          2   -1    0    0  501    0  0.00000000000E+00 -0.00000000000E+00 -0.17347060536E+04  0.17347060536E+04  0.25500000000E-02 0. -1.
    8880023    1    1    2    0    0 -0.27763448212E+03  0.10695874147E+03 -0.14711450737E+04  0.16390848398E+04  0.65864270000E+03 0. -1.
    8880022    1    1    2    0    0  0.27763448212E+03 -0.10695874147E+03 -0.23802846533E+02  0.33537934724E+03  0.15294330000E+03 0.  0.
<mgrwt>
<rscale>  0 0.59612825E+03</rscale>
<asrwt>0</asrwt>
<pdfrwt beam="1">  1        2 0.26687785E+00 0.72272490E+03</pdfrwt>
<pdfrwt beam="2">  1       -2 0.36885868E-01 0.72272490E+03</pdfrwt>
<totfact> 0.66699090E+01</totfact>
</mgrwt>
</event>
<event>
 4    1  0.6502538E-008  0.9563232E+03  0.7818608E-02  0.9441074E-01
         -2   -1    0    0    0  501 -0.00000000000E+00  0.00000000000E+00  0.31375073290E+03  0.31375073291E+03  0.25500000000E-02 0.  1.
          2   -1    0    0  501    0  0.00000000000E+00 -0.00000000000E+00 -0.27278053593E+04  0.27278053593E+04  0.25500000000E-02 0. -1.
    8880023    1    1    2    0    0 -0.43573287256E+03  0.53933352164E+03 -0.20068242413E+04  0.22230379046E+04  0.65864270000E+03 0.  0.
    8880022    1    1    2    0    0  0.43573287256E+03 -0.53933352164E+03 -0.40723038510E+03  0.81851818755E+03  0.15294330000E+03 0.  0.
<mgrwt>
<rscale>  0 0.88771163E+03</rscale>
<asrwt>0</asrwt>
<pdfrwt beam="1">  1        2 0.41966235E+00 0.95632316E+03</pdfrwt>
<pdfrwt beam="2">  1       -2 0.48269345E-01 0.95632316E+03</pdfrwt>
<totfact> 0.10626223E+01</totfact>
</mgrwt>
</event>
<event>
 4    1  0.6502538E-008  0.8574849E+03  0.7818608E-02  0.9598053E-01
         -2   -1    0    0    0  501 -0.00000000000E+00  0.00000000000E+00  0.41089508900E+03  0.41089508901E+03  0.25500000000E-02 0.  1.
          2   -1    0    0  501    0  0.00000000000E+00 -0.00000000000E+00 -0.34638360948E+04  0.34638360948E+04  0.25500000000E-02 0. -1.
    8880023    1    1    2    0    0  0.24636959372E+03 -0.49068540648E+03 -0.31776230315E+04  0.32912867516E+04  0.65864270000E+03 0. -1.
    8880022    1    1    2    0    0 -0.24636959372E+03  0.49068540648E+03  0.12468202574E+03  0.58344443215E+03  0.15294330000E+03 0.  0.
<mgrwt>
<rscale>  0 0.77425174E+03</rscale>
<asrwt>0</asrwt>
<pdfrwt beam="1">  1        2 0.53289784E+00 0.85748490E+03</pdfrwt>
<pdfrwt beam="2">  1       -2 0.63214632E-01 0.85748490E+03</pdfrwt>
<totfact> 0.21202570E+00</totfact>
</mgrwt>
</event>
<event>
 4    1  0.6502538E-008  0.7474663E+03  0.7818608E-02  0.9838709E-01
         -2   -1    0    0    0  501 -0.00000000000E+00  0.00000000000E+00  0.46364326512E+03  0.46364326512E+03  0.25500000000E-02 0.  1.
          2   -1    0    0  501    0  0.00000000000E+00 -0.00000000000E+00 -0.13204096970E+04  0.13204096970E+04  0.25500000000E-02 0. -1.
    8880023    1    1    2    0    0  0.64378691369E+02  0.34749254463E+03 -0.10990143356E+04  0.13291118842E+04  0.65864270000E+03 0.  0.
    8880022    1    1    2    0    0 -0.64378691369E+02 -0.34749254463E+03  0.24224790378E+03  0.45494107792E+03  0.15294330000E+03 0.  0.
<mgrwt>
<rscale>  0 0.63325952E+03</rscale>
<asrwt>0</asrwt>
<pdfrwt beam="1">  1        2 0.20313995E+00 0.74746631E+03</pdfrwt>
<pdfrwt beam="2">  1       -2 0.71329734E-01 0.74746631E+03</pdfrwt>
<totfact> 0.29287635E+01</totfact>
</mgrwt>
</event>
<event>
 4    1  0.6502538E-008  0.9460985E+03  0.7818608E-02  0.9455750E-01
         -2   -1    0    0    0  501 -0.00000000000E+00  0.00000000000E+00  0.92606920914E+03  0.92606920914E+03  0.25500000000E-02 0.  1.
          2   -1    0    0  501    0  0.00000000000E+00 -0.00000000000E+00 -0.15019243423E+04  0.15019243423E+04  0.25500000000E-02 0. -1.
    8880023    1    1    2    0    0 -0.47762540430E+03 -0.48287286343E+03 -0.11756519773E+04  0.15090593120E+04  0.65864270000E+03 0. -1.
    8880022    1    1    2    0    0  0.47762540430E+03  0.48287286343E+03  0.59979684419E+03  0.91893423942E+03  0.15294330000E+03 0.  0.
<mgrwt>
<rscale>  0 0.87626325E+03</rscale>
<asrwt>0</asrwt>
<pdfrwt beam="1">  1        2 0.23106528E+00 0.94609853E+03</pdfrwt>
<pdfrwt beam="2">  1       -2 0.14247219E+00 0.94609853E+03</pdfrwt>
<totfact> 0.43414237E+00</totfact>
</mgrwt>
</event>
<event>
 4    1  0.6502538E-008  0.8607188E+03  0.7818608E-02  0.9592286E-01
          2   -1    0    0  501    0  0.00000000000E+00  0.00000000000E+00  0.36077824729E+04  0.36077824729E+04  0.25500000000E-02 0. -1.
         -2   -1    0    0    0  501 -0.00000000000E+00 -0.00000000000E+00 -0.40312279360E+03  0.40312279361E+03  0.25500000000E-02 0.  1.
    8880023    1    1    2    0    0  0.35914388862E+03  0.42195061968E+03  0.33155815320E+04  0.34254806611E+04  0.65864270000E+03 0.  0.
    8880022    1    1    2    0    0 -0.35914388862E+03 -0.42195061968E+03 -0.11092185268E+03  0.58542460540E+03  0.15294330000E+03 0.  0.
<mgrwt>
<rscale>  0 0.77808848E+03</rscale>
<asrwt>0</asrwt>
<pdfrwt beam="1">  1        2 0.55504342E+00 0.86071881E+03</pdfrwt>
<pdfrwt beam="2">  1       -2 0.62018895E-01 0.86071881E+03</pdfrwt>
<totfact> 0.17552085E+00</totfact>
</mgrwt>
</event>
<event>
 4    1  0.6502538E-008  0.6588437E+03  0.7818608E-02  0.1025374E+00
          2   -1    0    0  501    0  0.00000000000E+00  0.00000000000E+00  0.10793644735E+04  0.10793644735E+04  0.25500000000E-02 0. -1.
         -2   -1    0    0    0  501 -0.00000000000E+00 -0.00000000000E+00 -0.17223394308E+03  0.17223394310E+03  0.25500000000E-02 0.  1.
    8880023    1    1    2    0    0 -0.16254998170E+02  0.76710294088E+00  0.87358162881E+03  0.10941754347E+04  0.65864270000E+03 0. -1.
    8880022    1    1    2    0    0  0.16254998170E+02 -0.76710294088E+00  0.33548901566E+02  0.15742298188E+03  0.15294330000E+03 0.  0.
<mgrwt>
<rscale>  0 0.45796315E+03</rscale>
<asrwt>0</asrwt>
<pdfrwt beam="1">  1        2 0.16605607E+00 0.65884370E+03</pdfrwt>
<pdfrwt beam="2">  1       -2 0.26497531E-01 0.65884370E+03</pdfrwt>
<totfact> 0.29330273E+02</totfact>
</mgrwt>
</event>
<event>
 4    1  0.6502538E-008  0.1429317E+04  0.7818608E-02  0.8961231E-01
          2   -1    0    0  501    0  0.00000000000E+00  0.00000000000E+00  0.24195320896E+04  0.24195320896E+04  0.25500000000E-02 0. -1.
         -2   -1    0    0    0  501 -0.00000000000E+00 -0.00000000000E+00 -0.81943317759E+03  0.81943317760E+03  0.25500000000E-02 0.  1.
    8880023    1    1    2    0    0  0.11434155900E+04 -0.54930677221E+03  0.12872253338E+04  0.19235114784E+04  0.65864270000E+03 0.  0.
    8880022    1    1    2    0    0 -0.11434155900E+04  0.54930677221E+03  0.31287357817E+03  0.13154537887E+04  0.15294330000E+03 0.  0.
<mgrwt>
<rscale>  0 0.13898056E+04</rscale>
<asrwt>0</asrwt>
<pdfrwt beam="1">  1        2 0.37223570E+00 0.14293171E+04</pdfrwt>
<pdfrwt beam="2">  1       -2 0.12606664E+00 0.14293171E+04</pdfrwt>
<totfact> 0.17364709E+00</totfact>
</mgrwt>
</event>
<event>
 4    1  0.6502538E-008  0.1376672E+04  0.7818608E-02  0.9002024E-01
         -2   -1    0    0    0  501 -0.00000000000E+00  0.00000000000E+00  0.22211433243E+04  0.22211433243E+04  0.25500000000E-02 0.  1.
          2   -1    0    0  501    0  0.00000000000E+00 -0.00000000000E+00 -0.13601406046E+04  0.13601406046E+04  0.25500000000E-02 0. -1.
    8880023    1    1    2    0    0 -0.18325010398E+03 -0.11949207697E+04 -0.74500507743E+03  0.15653303224E+04  0.65864270000E+03 0.  0.
    8880022    1    1    2    0    0  0.18325010398E+03  0.11949207697E+04  0.16060077971E+04  0.20159536066E+04  0.15294330000E+03 0.  0.
<mgrwt>
<rscale>  0 0.13353088E+04</rscale>
<asrwt>0</asrwt>
<pdfrwt beam="1">  1        2 0.20925240E+00 0.13766722E+04</pdfrwt>
<pdfrwt beam="2">  1       -2 0.34171436E+00 0.13766722E+04</pdfrwt>
<totfact> 0.25615555E-01</totfact>
</mgrwt>
</event>
<event>
 4    1  0.6502538E-008  0.8166811E+03  0.7818608E-02  0.9675825E-01
          2   -1    0    0  501    0  0.00000000000E+00  0.00000000000E+00  0.38061261106E+03  0.38061261106E+03  0.25500000000E-02 0. -1.
         -2   -1    0    0    0  501 -0.00000000000E+00 -0.00000000000E+00 -0.12509334770E+04  0.12509334770E+04  0.25500000000E-02 0.  1.
    8880023    1    1    2    0    0  0.46883284673E+03  0.11555782057E+03 -0.30315016801E+03  0.87113034541E+03  0.65864270000E+03 0.  0.
    8880022    1    1    2    0    0 -0.46883284673E+03 -0.11555782057E+03 -0.56717069792E+03  0.76041574265E+03  0.15294330000E+03 0.  0.
<mgrwt>
<rscale>  0 0.72474593E+03</rscale>
<asrwt>0</asrwt>
<pdfrwt beam="1">  1        2 0.58555787E-01 0.81668112E+03</pdfrwt>
<pdfrwt beam="2">  1       -2 0.19245130E+00 0.81668112E+03</pdfrwt>
<totfact> 0.12690629E+01</totfact>
</mgrwt>
</event>
<event>
 4    1  0.6502538E-008  0.1775197E+04  0.7818608E-02  0.8736382E-01
         -2   -1    0    0    0  501 -0.00000000000E+00  0.00000000000E+00  0.86394756072E+03  0.86394756073E+03  0.25500000000E-02 0.  1.
          2   -1    0    0  501    0  0.00000000000E+00 -0.00000000000E+00 -0.35166675092E+04  0.35166675092E+04  0.25500000000E-02 0. -1.
    8880023    1    1    2    0    0  0.38962621918E+03 -0.16017818335E+04 -0.98269017257E+03  0.20290401214E+04  0.65864270000E+03 0.  0.
    8880022    1    1    2    0    0 -0.38962621918E+03  0.16017818335E+04 -0.16700297759E+04  0.23515749485E+04  0.15294330000E+03 0.  0.
<mgrwt>
<rscale>  0 0.17445027E+04</rscale>
<asrwt>0</asrwt>
<pdfrwt beam="1">  1        2 0.54102576E+00 0.17751968E+04</pdfrwt>
<pdfrwt beam="2">  1       -2 0.13291501E+00 0.17751968E+04</pdfrwt>
<totfact> 0.30107484E-01</totfact>
</mgrwt>
</event>
<event>
 4    1  0.6502538E-008  0.9984195E+03  0.7818608E-02  0.9383628E-01
         -2   -1    0    0    0  501 -0.00000000000E+00  0.00000000000E+00  0.27324280829E+03  0.27324280831E+03  0.25500000000E-02 0.  1.
          2   -1    0    0  501    0  0.00000000000E+00 -0.00000000000E+00 -0.31666232710E+04  0.31666232710E+04  0.25500000000E-02 0. -1.
    8880023    1    1    2    0    0 -0.13222347724E+01  0.75035296904E+03 -0.21598223318E+04  0.23794272499E+04  0.65864270000E+03 0. -1.
    8880022    1    1    2    0    0  0.13222347724E+01 -0.75035296904E+03 -0.73355813091E+03  0.10604388294E+04  0.15294330000E+03 0.  0.
<mgrwt>
<rscale>  0 0.93435340E+03</rscale>
<asrwt>0</asrwt>
<pdfrwt beam="1">  1        2 0.48717278E+00 0.99841952E+03</pdfrwt>
<pdfrwt beam="2">  1       -2 0.42037357E-01 0.99841952E+03</pdfrwt>
<totfact> 0.75134899E+00</totfact>
</mgrwt>
</event>
<event>
 4    1  0.6502538E-008  0.6779329E+03  0.7818608E-02  0.1010518E+00
          2   -1    0    0  501    0  0.00000000000E+00  0.00000000000E+00  0.20208415166E+04  0.20208415166E+04  0.25500000000E-02 0. -1.
         -2   -1    0    0    0  501 -0.00000000000E+00 -0.00000000000E+00 -0.10022761324E+03  0.10022761327E+03  0.25500000000E-02 0.  1.
    8880023    1    1    2    0    0  0.14687930273E+03  0.64878583544E+02  0.14191153604E+04  0.15727305467E+04  0.65864270000E+03 0. -1.
    8880022    1    1    2    0    0 -0.14687930273E+03 -0.64878583544E+02  0.50149854298E+03  0.54833858318E+03  0.15294330000E+03 0.  0.
<mgrwt>
<rscale>  0 0.51269303E+03</rscale>
<asrwt>0</asrwt>
<pdfrwt beam="1">  1        2 0.31089870E+00 0.67793286E+03</pdfrwt>
<pdfrwt beam="2">  1       -2 0.15419633E-01 0.67793286E+03</pdfrwt>
<totfact> 0.22424666E+02</totfact>
</mgrwt>
</event>
<event>
 4    1  0.6502538E-008  0.9789353E+03  0.7818608E-02  0.9409651E-01
         -2   -1    0    0    0  501 -0.00000000000E+00  0.00000000000E+00  0.36853842268E+03  0.36853842269E+03  0.25500000000E-02 0.  1.
          2   -1    0    0  501    0  0.00000000000E+00 -0.00000000000E+00 -0.29723276440E+04  0.29723276440E+04  0.25500000000E-02 0. -1.
    8880023    1    1    2    0    0 -0.72295241730E+03  0.42940854639E+02 -0.23706496027E+04  0.25648184847E+04  0.65864270000E+03 0.  1.
    8880022    1    1    2    0    0  0.72295241730E+03 -0.42940854639E+02 -0.23313961866E+03  0.77604758197E+03  0.15294330000E+03 0.  0.
<mgrwt>
<rscale>  0 0.91285697E+03</rscale>
<asrwt>0</asrwt>
<pdfrwt beam="1">  1        2 0.45728116E+00 0.97893530E+03</pdfrwt>
<pdfrwt beam="2">  1       -2 0.56698221E-01 0.97893530E+03</pdfrwt>
<totfact> 0.54206295E+00</totfact>
</mgrwt>
</event>
<event>
 4    1  0.6502538E-008  0.7103634E+03  0.7818608E-02  0.9956654E-01
         -2   -1    0    0    0  501 -0.00000000000E+00  0.00000000000E+00  0.12139540696E+04  0.12139540696E+04  0.25500000000E-02 0.  1.
          2   -1    0    0  501    0  0.00000000000E+00 -0.00000000000E+00 -0.34923498324E+03  0.34923498325E+03  0.25500000000E-02 0. -1.
    8880023    1    1    2    0    0  0.37946148071E+02 -0.26337432712E+03  0.73051096948E+02  0.71410966621E+03  0.65864270000E+03 0. -1.
    8880022    1    1    2    0    0 -0.37946148071E+02  0.26337432712E+03  0.79166798946E+03  0.84907938668E+03  0.15294330000E+03 0.  0.
<mgrwt>
<rscale>  0 0.57592431E+03</rscale>
<asrwt>0</asrwt>
<pdfrwt beam="1">  1        2 0.53728460E-01 0.71036339E+03</pdfrwt>
<pdfrwt beam="2">  1       -2 0.18676216E+00 0.71036339E+03</pdfrwt>
<totfact> 0.15399352E+01</totfact>
</mgrwt>
</event>
<event>
 4    1  0.6502538E-008  0.9491513E+03  0.7818608E-02  0.9451336E-01
          2   -1    0    0  501    0  0.00000000000E+00  0.00000000000E+00  0.27272074400E+04  0.27272074400E+04  0.25500000000E-02 0. -1.
         -2   -1    0    0    0  501 -0.00000000000E+00 -0.00000000000E+00 -0.37899694934E+03  0.37899694935E+03  0.25500000000E-02 0.  1.
    8880023    1    1    2    0    0 -0.35000551275E+02  0.68253427307E+03  0.21919818623E+04  0.23886550114E+04  0.65864270000E+03 0. -1.
    8880022    1    1    2    0    0  0.35000551275E+02 -0.68253427307E+03  0.15622862838E+03  0.71754937798E+03  0.15294330000E+03 0.  0.
<mgrwt>
<rscale>  0 0.87968690E+03</rscale>
<asrwt>0</asrwt>
<pdfrwt beam="1">  1        2 0.41957039E+00 0.94915135E+03</pdfrwt>
<pdfrwt beam="2">  1       -2 0.58307221E-01 0.94915135E+03</pdfrwt>
<totfact> 0.72031843E+00</totfact>
</mgrwt>
</event>
<event>
 4    1  0.6502538E-008  0.8353858E+03  0.7818608E-02  0.9638943E-01
         -2   -1    0    0    0  501 -0.00000000000E+00  0.00000000000E+00  0.20309585176E+04  0.20309585176E+04  0.25500000000E-02 0.  1.
          2   -1    0    0  501    0  0.00000000000E+00 -0.00000000000E+00 -0.52161257978E+03  0.52161257979E+03  0.25500000000E-02 0. -1.
    8880023    1    1    2    0    0 -0.29301041881E+02  0.51303085386E+03 -0.11386291483E+03  0.84310982541E+03  0.65864270000E+03 0. -1.
    8880022    1    1    2    0    0  0.29301041881E+02 -0.51303085386E+03  0.16232088527E+04  0.17094612720E+04  0.15294330000E+03 0.  0.
<mgrwt>
<rscale>  0 0.74771443E+03</rscale>
<asrwt>0</asrwt>
<pdfrwt beam="1">  1        2 0.80248087E-01 0.83538579E+03</pdfrwt>
<pdfrwt beam="2">  1       -2 0.31245516E+00 0.83538579E+03</pdfrwt>
<totfact> 0.16105933E+00</totfact>
</mgrwt>
</event>
<event>
 4    1  0.6502538E-008  0.2317668E+04  0.7818608E-02  0.8479992E-01
          2   -1    0    0  501    0  0.00000000000E+00  0.00000000000E+00  0.21206379078E+04  0.21206379078E+04  0.25500000000E-02 0. -1.
         -2   -1    0    0    0  501 -0.00000000000E+00 -0.00000000000E+00 -0.26820169998E+04  0.26820169998E+04  0.25500000000E-02 0.  1.
    8880023    1    1    2    0    0 -0.11424004038E+04  0.19059632296E+04  0.44246937135E+03  0.23595261952E+04  0.65864270000E+03 0.  0.
    8880022    1    1    2    0    0  0.11424004038E+04 -0.19059632296E+04 -0.10038484633E+04  0.24431287124E+04  0.15294330000E+03 0.  0.
<mgrwt>
<rscale>  0 0.22947553E+04</rscale>
<asrwt>0</asrwt>
<pdfrwt beam="1">  1        2 0.32625199E+00 0.23176679E+04</pdfrwt>
<pdfrwt beam="2">  1       -2 0.41261800E+00 0.23176679E+04</pdfrwt>
<totfact> 0.30092423E-02</totfact>
</mgrwt>
</event>
<event>
 4    1  0.6502538E-008  0.7122703E+03  0.7818608E-02  0.9949665E-01
         -2   -1    0    0    0  501 -0.00000000000E+00  0.00000000000E+00  0.13533692723E+03  0.13533692725E+03  0.25500000000E-02 0.  1.
          2   -1    0    0  501    0  0.00000000000E+00 -0.00000000000E+00 -0.26122458710E+04  0.26122458710E+04  0.25500000000E-02 0. -1.
    8880023    1    1    2    0    0 -0.14258751025E+02  0.27076820234E+03 -0.93952733999E+03  0.11789998135E+04  0.65864270000E+03 0.  1.
    8880022    1    1    2    0    0  0.14258751025E+02 -0.27076820234E+03 -0.15373816038E+04  0.15685829848E+04  0.15294330000E+03 0.  0.
<mgrwt>
<rscale>  0 0.57913512E+03</rscale>
<asrwt>0</asrwt>
<pdfrwt beam="1">  1        2 0.40188394E+00 0.71227027E+03</pdfrwt>
<pdfrwt beam="2">  1       -2 0.20821068E-01 0.71227027E+03</pdfrwt>
<totfact> 0.62370617E+01</totfact>
</mgrwt>
</event>
<event>
 4    1  0.6502538E-008  0.9895560E+03  0.7818608E-02  0.9395351E-01
          2   -1    0    0  501    0  0.00000000000E+00  0.00000000000E+00  0.45521430401E+04  0.45521430401E+04  0.25500000000E-02 0. -1.
         -2   -1    0    0    0  501 -0.00000000000E+00 -0.00000000000E+00 -0.30828135725E+03  0.30828135726E+03  0.25500000000E-02 0.  1.
    8880023    1    1    2    0    0 -0.73075540803E+03  0.10680572306E+03  0.39141728313E+04  0.40373221433E+04  0.65864270000E+03 0.  0.
    8880022    1    1    2    0    0  0.73075540803E+03 -0.10680572306E+03  0.32968885153E+03  0.82310225409E+03  0.15294330000E+03 0.  0.
<mgrwt>
<rscale>  0 0.92459276E+03</rscale>
<asrwt>0</asrwt>
<pdfrwt beam="1">  1        2 0.70032964E+00 0.98955603E+03</pdfrwt>
<pdfrwt beam="2">  1       -2 0.47427905E-01 0.98955603E+03</pdfrwt>
<totfact> 0.49786896E-01</totfact>
</mgrwt>
</event>
<event>
 4    1  0.6502538E-008  0.7013733E+03  0.7818608E-02  0.9991551E-01
         -2   -1    0    0    0  501 -0.00000000000E+00  0.00000000000E+00  0.65197267927E+03  0.65197267928E+03  0.25500000000E-02 0.  1.
          2   -1    0    0  501    0  0.00000000000E+00 -0.00000000000E+00 -0.84598495390E+03  0.84598495390E+03  0.25500000000E-02 0. -1.
    8880023    1    1    2    0    0  0.13891735409E+03 -0.19701846293E+03 -0.65242993270E+03  0.95790883144E+03  0.65864270000E+03 0.  0.
    8880022    1    1    2    0    0 -0.13891735409E+03  0.19701846293E+03  0.45841765808E+03  0.54004880174E+03  0.15294330000E+03 0.  0.
<mgrwt>
<rscale>  0 0.56022256E+03</rscale>
<asrwt>0</asrwt>
<pdfrwt beam="1">  1        2 0.13015153E+00 0.70137330E+03</pdfrwt>
<pdfrwt beam="2">  1       -2 0.10030349E+00 0.70137330E+03</pdfrwt>
<totfact> 0.26706667E+01</totfact>
</mgrwt>
</event>
<event>
 4    1  0.6502538E-008  0.7059369E+03  0.7818608E-02  0.9973410E-01
         -2   -1    0    0    0  501 -0.00000000000E+00  0.00000000000E+00  0.29053618253E+03  0.29053618254E+03  0.25500000000E-02 0.  1.
          2   -1    0    0  501    0  0.00000000000E+00 -0.00000000000E+00 -0.16074997663E+04  0.16074997663E+04  0.25500000000E-02 0. -1.
    8880023    1    1    2    0    0  0.45635899217E+02  0.24990807580E+03 -0.14186264967E+04  0.15845655635E+04  0.65864270000E+03 0. -1.
    8880022    1    1    2    0    0 -0.45635899217E+02 -0.24990807580E+03  0.10166291287E+03  0.31347038539E+03  0.15294330000E+03 0.  0.
<mgrwt>
<rscale>  0 0.56831682E+03</rscale>
<asrwt>0</asrwt>
<pdfrwt beam="1">  1        2 0.24730765E+00 0.70593689E+03</pdfrwt>
<pdfrwt beam="2">  1       -2 0.44697875E-01 0.70593689E+03</pdfrwt>
<totfact> 0.53891697E+01</totfact>
</mgrwt>
</event>
<event>
 4    1  0.6502538E-008  0.7829418E+03  0.7818608E-02  0.9748972E-01
         -2   -1    0    0    0  501 -0.00000000000E+00  0.00000000000E+00  0.92697939676E+03  0.92697939676E+03  0.25500000000E-02 0.  1.
          2   -1    0    0  501    0  0.00000000000E+00 -0.00000000000E+00 -0.17529769599E+04  0.17529769599E+04  0.25500000000E-02 0. -1.
    8880023    1    1    2    0    0 -0.33379761760E+03 -0.26032049561E+03 -0.16018780817E+04  0.17829781841E+04  0.65864270000E+03 0.  0.
    8880022    1    1    2    0    0  0.33379761760E+03  0.26032049561E+03  0.77588051859E+03  0.89697817258E+03  0.15294330000E+03 0.  0.
<mgrwt>
<rscale>  0 0.68174423E+03</rscale>
<asrwt>0</asrwt>
<pdfrwt beam="1">  1        2 0.26968876E+00 0.78294177E+03</pdfrwt>
<pdfrwt beam="2">  1       -2 0.14261221E+00 0.78294177E+03</pdfrwt>
<totfact> 0.32176471E+00</totfact>
</mgrwt>
</event>
<event>
 4    1  0.6502538E-008  0.8788101E+03  0.7818608E-02  0.9560942E-01
          2   -1    0    0  501    0  0.00000000000E+00  0.00000000000E+00  0.77814366394E+03  0.77814366395E+03  0.25500000000E-02 0. -1.
         -2   -1    0    0    0  501 -0.00000000000E+00 -0.00000000000E+00 -0.71777389975E+03  0.71777389975E+03  0.25500000000E-02 0.  1.
    8880023    1    1    2    0    0  0.29019060072E+03  0.50426826743E+03  0.13721351545E+03  0.88945760178E+03  0.65864270000E+03 0.  0.
    8880022    1    1    2    0    0 -0.29019060072E+03 -0.50426826743E+03 -0.76843751253E+02  0.60645996192E+03  0.15294330000E+03 0.  0.
<mgrwt>
<rscale>  0 0.79936141E+03</rscale>
<asrwt>0</asrwt>
<pdfrwt beam="1">  1        2 0.11971441E+00 0.87881015E+03</pdfrwt>
<pdfrwt beam="2">  1       -2 0.11042675E+00 0.87881015E+03</pdfrwt>
<totfact> 0.23330314E+01</totfact>
</mgrwt>
</event>
<event>
 4    1  0.6502538E-008  0.8030247E+03  0.7818608E-02  0.9704294E-01
         -2   -1    0    0    0  501 -0.00000000000E+00  0.00000000000E+00  0.85174528048E+03  0.85174528049E+03  0.25500000000E-02 0.  1.
          2   -1    0    0  501    0  0.00000000000E+00 -0.00000000000E+00 -0.87331623682E+03  0.87331623683E+03  0.25500000000E-02 0. -1.
    8880023    1    1    2    0    0 -0.55649209097E+02  0.45600611297E+03 -0.57654847037E+03  0.98856297446E+03  0.65864270000E+03 0.  0.
    8880022    1    1    2    0    0  0.55649209097E+02 -0.45600611297E+03  0.55497751402E+03  0.73649854285E+03  0.15294330000E+03 0.  0.
<mgrwt>
<rscale>  0 0.70761711E+03</rscale>
<asrwt>0</asrwt>
<pdfrwt beam="1">  1        2 0.13435634E+00 0.80302467E+03</pdfrwt>
<pdfrwt beam="2">  1       -2 0.13103773E+00 0.80302467E+03</pdfrwt>
<totfact> 0.13147966E+01</totfact>
</mgrwt>
</event>
<event>
 4    1  0.6502538E-008  0.6870892E+03  0.7818608E-02  0.1005568E+00
          2   -1    0    0  501    0  0.00000000000E+00  0.00000000000E+00  0.24786278566E+04  0.24786278566E+04  0.25500000000E-02 0. -1.
         -2   -1    0    0    0  501 -0.00000000000E+00 -0.00000000000E+00 -0.93188972574E+02  0.93188972609E+02  0.25500000000E-02 0.  1.
    8880023    1    1    2    0    0  0.76473312505E+02  0.18009216905E+03  0.19857420350E+04  0.21012527198E+04  0.65864270000E+03 0. -1.
    8880022    1    1    2    0    0 -0.76473312505E+02 -0.18009216905E+03  0.39969684907E+03  0.47056410940E+03  0.15294330000E+03 0.  0.
<mgrwt>
<rscale>  0 0.53274788E+03</rscale>
<asrwt>0</asrwt>
<pdfrwt beam="1">  1        2 0.38132730E+00 0.68708920E+03</pdfrwt>
<pdfrwt beam="2">  1       -2 0.14336767E-01 0.68708920E+03</pdfrwt>
<totfact> 0.14149903E+02</totfact>
</mgrwt>
</event>
<event>
 4    1  0.6502538E-008  0.7087846E+03  0.7818608E-02  0.9962542E-01
          2   -1    0    0  501    0  0.00000000000E+00  0.00000000000E+00  0.32999425889E+04  0.32999425889E+04  0.25500000000E-02 0. -1.
         -2   -1    0    0    0  501 -0.00000000000E+00 -0.00000000000E+00 -0.17510446320E+03  0.17510446322E+03  0.25500000000E-02 0.  1.
    8880023    1    1    2    0    0 -0.25241284891E+03 -0.69664207235E+02  0.30894879726E+04  0.31697494360E+04  0.65864270000E+03 0. -1.
    8880022    1    1    2    0    0  0.25241284891E+03  0.69664207235E+02  0.35350153111E+02  0.30529761611E+03  0.15294330000E+03 0.  0.
<mgrwt>
<rscale>  0 0.57323644E+03</rscale>
<asrwt>0</asrwt>
<pdfrwt beam="1">  1        2 0.50768349E+00 0.70878456E+03</pdfrwt>
<pdfrwt beam="2">  1       -2 0.26939147E-01 0.70878456E+03</pdfrwt>
<totfact> 0.15030575E+01</totfact>
</mgrwt>
</event>
<event>
 4    1  0.6502538E-008  0.1132404E+04  0.7818608E-02  0.9225808E-01
          2   -1    0    0  501    0  0.00000000000E+00  0.00000000000E+00  0.46965527901E+03  0.46965527902E+03  0.25500000000E-02 0. -1.
         -2   -1    0    0    0  501 -0.00000000000E+00 -0.00000000000E+00 -0.33091228041E+04  0.33091228041E+04  0.25500000000E-02 0.  1.
    8880023    1    1    2    0    0 -0.75242209197E+03  0.53140295475E+03 -0.45930903270E+03  0.12220078145E+04  0.65864270000E+03 0.  0.
    8880022    1    1    2    0    0  0.75242209197E+03 -0.53140295475E+03 -0.23801584923E+04  0.25567702686E+04  0.15294330000E+03 0.  0.
<mgrwt>
<rscale>  0 0.10790972E+04</rscale>
<asrwt>0</asrwt>
<pdfrwt beam="1">  1        2 0.72254661E-01 0.11324038E+04</pdfrwt>
<pdfrwt beam="2">  1       -2 0.50909580E+00 0.11324038E+04</pdfrwt>
<totfact> 0.95321636E-02</totfact>
</mgrwt>
</event>
<event>
 4    1  0.6502538E-008  0.8109368E+03  0.7818608E-02  0.9687629E-01
         -2   -1    0    0    0  501 -0.00000000000E+00  0.00000000000E+00  0.16542829046E+04  0.16542829046E+04  0.25500000000E-02 0.  1.
          2   -1    0    0  501    0  0.00000000000E+00 -0.00000000000E+00 -0.49733712578E+03  0.49733712578E+03  0.25500000000E-02 0. -1.
    8880023    1    1    2    0    0 -0.46662442019E+03  0.77909300630E+02 -0.83517405584E+02  0.81522608640E+03  0.65864270000E+03 0. -1.
    8880022    1    1    2    0    0  0.46662442019E+03 -0.77909300630E+02  0.12404631844E+04  0.13363939440E+04  0.15294330000E+03 0.  0.
<mgrwt>
<rscale>  0 0.71758155E+03</rscale>
<asrwt>0</asrwt>
<pdfrwt beam="1">  1        2 0.76513404E-01 0.81093675E+03</pdfrwt>
<pdfrwt beam="2">  1       -2 0.25450506E+00 0.81093675E+03</pdfrwt>
<totfact> 0.38183684E+00</totfact>
</mgrwt>
</event>
<event>
 4    1  0.6502538E-008  0.9316536E+03  0.7818608E-02  0.9477017E-01
          2   -1    0    0  501    0  0.00000000000E+00  0.00000000000E+00  0.17350287054E+04  0.17350287054E+04  0.25500000000E-02 0. -1.
         -2   -1    0    0    0  501 -0.00000000000E+00 -0.00000000000E+00 -0.63661359449E+03  0.63661359450E+03  0.25500000000E-02 0.  1.
    8880023    1    1    2    0    0 -0.40592062904E+03  0.51903434028E+03  0.13582144018E+04  0.16470351457E+04  0.65864270000E+03 0. -1.
    8880022    1    1    2    0    0  0.40592062904E+03 -0.51903434028E+03 -0.25979929088E+03  0.72460715427E+03  0.15294330000E+03 0.  0.
<mgrwt>
<rscale>  0 0.85999680E+03</rscale>
<asrwt>0</asrwt>
<pdfrwt beam="1">  1        2 0.26692749E+00 0.93165359E+03</pdfrwt>
<pdfrwt beam="2">  1       -2 0.97940555E-01 0.93165359E+03</pdfrwt>
<totfact> 0.81788520E+00</totfact>
</mgrwt>
</event>
<event>
 4    1  0.6502538E-008  0.7354405E+03  0.7818608E-02  0.9873433E-01
          2   -1    0    0  501    0  0.00000000000E+00  0.00000000000E+00  0.28183506059E+04  0.28183506059E+04  0.25500000000E-02 0. -1.
         -2   -1    0    0    0  501 -0.00000000000E+00 -0.00000000000E+00 -0.21572340802E+03  0.21572340804E+03  0.25500000000E-02 0.  1.
    8880023    1    1    2    0    0 -0.27537419380E+03  0.17672455718E+03  0.25679982465E+04  0.26712333698E+04  0.65864270000E+03 0. -1.
    8880022    1    1    2    0    0  0.27537419380E+03 -0.17672455718E+03  0.34628951350E+02  0.36284064409E+03  0.15294330000E+03 0.  0.
<mgrwt>
<rscale>  0 0.61566278E+03</rscale>
<asrwt>0</asrwt>
<pdfrwt beam="1">  1        2 0.43359239E+00 0.73544050E+03</pdfrwt>
<pdfrwt beam="2">  1       -2 0.33188218E-01 0.73544050E+03</pdfrwt>
<totfact> 0.20185652E+01</totfact>
</mgrwt>
</event>
<event>
 4    1  0.6502538E-008  0.1017399E+04  0.7818608E-02  0.9359140E-01
          2   -1    0    0  501    0  0.00000000000E+00  0.00000000000E+00  0.22441164237E+04  0.22441164237E+04  0.25500000000E-02 0. -1.
         -2   -1    0    0    0  501 -0.00000000000E+00 -0.00000000000E+00 -0.12620545778E+04  0.12620545778E+04  0.25500000000E-02 0.  1.
    8880023    1    1    2    0    0 -0.61144352894E+03  0.47689370604E+03  0.19842182374E+04  0.22298482046E+04  0.65864270000E+03 0.  0.
    8880022    1    1    2    0    0  0.61144352894E+03 -0.47689370604E+03 -0.10021563915E+04  0.12763227969E+04  0.15294330000E+03 0.  0.
<mgrwt>
<rscale>  0 0.95515958E+03</rscale>
<asrwt>0</asrwt>
<pdfrwt beam="1">  1        2 0.34524868E+00 0.10173991E+04</pdfrwt>
<pdfrwt beam="2">  1       -2 0.19416225E+00 0.10173991E+04</pdfrwt>
<totfact> 0.70824920E-01</totfact>
</mgrwt>
</event>
<event>
 4    1  0.9978802E-008  0.1758912E+04  0.7818608E-02  0.8745612E-01
         -2   -1    0    0    0  501 -0.00000000000E+00  0.00000000000E+00  0.25821243417E+04  0.25821243417E+04  0.25500000000E-02 0.  1.
          2   -1    0    0  501    0  0.00000000000E+00 -0.00000000000E+00 -0.24490271558E+04  0.24490271558E+04  0.25500000000E-02 0. -1.
    8880023    1    1    2    0    0 -0.76340579087E+02  0.16291510561E+04 -0.17868802886E+04  0.25073317331E+04  0.65864270000E+03 0. -1.
    8880022    1    1    2    0    0  0.76340579087E+02 -0.16291510561E+04  0.19199774745E+04  0.25238197644E+04  0.15294330000E+03 0.  0.
<mgrwt>
<rscale>  0 0.17278968E+04</rscale>
<asrwt>0</asrwt>
<pdfrwt beam="1">  1        2 0.37677341E+00 0.17589120E+04</pdfrwt>
<pdfrwt beam="2">  1       -2 0.39724990E+00 0.17589120E+04</pdfrwt>
<totfact> 0.26152725E-02</totfact>
</mgrwt>
</event>
<event>
 4    1  0.6502538E-008  0.8313640E+03  0.7818608E-02  0.9646684E-01
         -2   -1    0    0    0  501 -0.00000000000E+00  0.00000000000E+00  0.97212777165E+03  0.97212777166E+03  0.25500000000E-02 0.  1.
          2   -1    0    0  501    0  0.00000000000E+00 -0.00000000000E+00 -0.15246450280E+04  0.15246450280E+04  0.25500000000E-02 0. -1.
    8880023    1    1    2    0    0  0.50277885440E+03 -0.67596815090E+02 -0.13224944639E+04  0.15621004190E+04  0.65864270000E+03 0.  0.
    8880022    1    1    2    0    0 -0.50277885440E+03  0.67596815090E+02  0.76997720758E+03  0.93467238060E+03  0.15294330000E+03 0.  0.
<mgrwt>
<rscale>  0 0.74281884E+03</rscale>
<asrwt>0</asrwt>
<pdfrwt beam="1">  1        2 0.23456077E+00 0.83136401E+03</pdfrwt>
<pdfrwt beam="2">  1       -2 0.14955812E+00 0.83136401E+03</pdfrwt>
<totfact> 0.37666953E+00</totfact>
</mgrwt>
</event>
<event>
 4    1  0.6502538E-008  0.1167645E+04  0.7818608E-02  0.9189234E-01
         -2   -1    0    0    0  501 -0.00000000000E+00  0.00000000000E+00  0.31086409716E+03  0.31086409717E+03  0.25500000000E-02 0.  1.
          2   -1    0    0  501    0  0.00000000000E+00 -0.00000000000E+00 -0.36965314459E+04  0.36965314459E+04  0.25500000000E-02 0. -1.
    8880023    1    1    2    0    0  0.76576587790E+03  0.58582155895E+03 -0.18257437669E+04  0.21671951429E+04  0.65864270000E+03 0.  1.
    8880022    1    1    2    0    0 -0.76576587790E+03 -0.58582155895E+03 -0.15599235819E+04  0.18402004003E+04  0.15294330000E+03 0. -1.
<mgrwt>
<rscale>  0 0.11165247E+04</rscale>
<asrwt>0</asrwt>
<pdfrwt beam="1">  1        2 0.56869711E+00 0.11676448E+04</pdfrwt>
<pdfrwt beam="2">  1       -2 0.47825248E-01 0.11676448E+04</pdfrwt>
<totfact> 0.24749227E+00</totfact>
</mgrwt>
</event>
<event>
 4    1  0.6502538E-008  0.8087358E+03  0.7818608E-02  0.9692216E-01
         -2   -1    0    0    0  501 -0.00000000000E+00  0.00000000000E+00  0.17430283014E+04  0.17430283014E+04  0.25500000000E-02 0.  1.
          2   -1    0    0  501    0  0.00000000000E+00 -0.00000000000E+00 -0.26066464724E+03  0.26066464725E+03  0.25500000000E-02 0. -1.
    8880023    1    1    2    0    0  0.23253513011E+03 -0.40764061083E+03  0.11602382948E+04  0.14142865909E+04  0.65864270000E+03 0. -1.
    8880022    1    1    2    0    0 -0.23253513011E+03  0.40764061083E+03  0.32212535936E+03  0.58940635770E+03  0.15294330000E+03 0.  0.
<mgrwt>
<rscale>  0 0.71482133E+03</rscale>
<asrwt>0</asrwt>
<pdfrwt beam="1">  1        2 0.40102253E-01 0.80873584E+03</pdfrwt>
<pdfrwt beam="2">  1       -2 0.26815821E+00 0.80873584E+03</pdfrwt>
<totfact> 0.65431600E+00</totfact>
</mgrwt>
</event>
<event>
 4    1  0.6502538E-008  0.1122002E+04  0.7818608E-02  0.9236946E-01
          2   -1    0    0  501    0  0.00000000000E+00  0.00000000000E+00  0.37778032941E+04  0.37778032941E+04  0.25500000000E-02 0. -1.
         -2   -1    0    0    0  501 -0.00000000000E+00 -0.00000000000E+00 -0.99444521598E+03  0.99444521598E+03  0.25500000000E-02 0.  1.
    8880023    1    1    2    0    0 -0.41469413196E+03 -0.80815007337E+03  0.34547680445E+04  0.36323973092E+04  0.65864270000E+03 0.  0.
    8880022    1    1    2    0    0  0.41469413196E+03  0.80815007337E+03 -0.67140996639E+03  0.11398512009E+04  0.15294330000E+03 0.  0.
<mgrwt>
<rscale>  0 0.10680084E+04</rscale>
<asrwt>0</asrwt>
<pdfrwt beam="1">  1        2 0.58120051E+00 0.11220018E+04</pdfrwt>
<pdfrwt beam="2">  1       -2 0.15299157E+00 0.11220018E+04</pdfrwt>
<totfact> 0.14735982E-01</totfact>
</mgrwt>
</event>
<event>
 4    1  0.6502538E-008  0.1000161E+04  0.7818608E-02  0.9381347E-01
          2   -1    0    0  501    0  0.00000000000E+00  0.00000000000E+00  0.12861888196E+04  0.12861888196E+04  0.25500000000E-02 0. -1.
         -2   -1    0    0    0  501 -0.00000000000E+00 -0.00000000000E+00 -0.11806420808E+04  0.11806420808E+04  0.25500000000E-02 0.  1.
    8880023    1    1    2    0    0  0.33047227361E+03  0.67623965067E+03  0.91172684222E+03  0.13533543623E+04  0.65864270000E+03 0.  0.
    8880022    1    1    2    0    0 -0.33047227361E+03 -0.67623965067E+03 -0.80618010343E+03  0.11134765381E+04  0.15294330000E+03 0.  0.
<mgrwt>
<rscale>  0 0.93626782E+03</rscale>
<asrwt>0</asrwt>
<pdfrwt beam="1">  1        2 0.19787520E+00 0.10001611E+04</pdfrwt>
<pdfrwt beam="2">  1       -2 0.18163724E+00 0.10001611E+04</pdfrwt>
<totfact> 0.29508097E+00</totfact>
</mgrwt>
</event>
<event>
 4    1  0.6502538E-008  0.9074958E+03  0.7818608E-02  0.9514104E-01
          2   -1    0    0  501    0  0.00000000000E+00  0.00000000000E+00  0.27889673986E+04  0.27889673986E+04  0.25500000000E-02 0. -1.
         -2   -1    0    0    0  501 -0.00000000000E+00 -0.00000000000E+00 -0.42917337810E+03  0.42917337811E+03  0.25500000000E-02 0.  1.
    8880023    1    1    2    0    0  0.30007011772E+03  0.54744535949E+03  0.24082536983E+04  0.25735645667E+04  0.65864270000E+03 0.  0.
    8880022    1    1    2    0    0 -0.30007011772E+03 -0.54744535949E+03 -0.48459677792E+02  0.64457621005E+03  0.15294330000E+03 0.  0.
<mgrwt>
<rscale>  0 0.83251936E+03</rscale>
<asrwt>0</asrwt>
<pdfrwt beam="1">  1        2 0.42907193E+00 0.90749584E+03</pdfrwt>
<pdfrwt beam="2">  1       -2 0.66026670E-01 0.90749584E+03</pdfrwt>
<totfact> 0.51103709E+00</totfact>
</mgrwt>
</event>
<event>
 4    1  0.6502538E-008  0.9461039E+03  0.7818608E-02  0.9455742E-01
         -2   -1    0    0    0  501 -0.00000000000E+00  0.00000000000E+00  0.28262600135E+04  0.28262600135E+04  0.25500000000E-02 0.  1.
          2   -1    0    0  501    0  0.00000000000E+00 -0.00000000000E+00 -0.12495488205E+04  0.12495488205E+04  0.25500000000E-02 0. -1.
    8880023    1    1    2    0    0  0.22918790810E+03 -0.63935542637E+03 -0.10177403252E+04  0.13895711692E+04  0.65864270000E+03 0.  0.
    8880022    1    1    2    0    0 -0.22918790810E+03  0.63935542637E+03  0.25944515182E+04  0.26862376648E+04  0.15294330000E+03 0.  0.
<mgrwt>
<rscale>  0 0.87626932E+03</rscale>
<asrwt>0</asrwt>
<pdfrwt beam="1">  1        2 0.19223828E+00 0.94610394E+03</pdfrwt>
<pdfrwt beam="2">  1       -2 0.43480923E+00 0.94610394E+03</pdfrwt>
<totfact> 0.79689924E-02</totfact>
</mgrwt>
</event>
<event>
 4    1  0.6502538E-008  0.6672153E+03  0.7818608E-02  0.1017743E+00
          2   -1    0    0  501    0  0.00000000000E+00  0.00000000000E+00  0.88623508265E+03  0.88623508266E+03  0.25500000000E-02 0. -1.
         -2   -1    0    0    0  501 -0.00000000000E+00 -0.00000000000E+00 -0.85267697033E+03  0.85267697033E+03  0.25500000000E-02 0.  1.
    8880023    1    1    2    0    0 -0.70149306236E+02 -0.80281420740E+02  0.74695440739E+03  0.10015573497E+04  0.65864270000E+03 0. -1.
    8880022    1    1    2    0    0  0.70149306236E+02  0.80281420740E+02 -0.71339629507E+03  0.73735470332E+03  0.15294330000E+03 0.  0.
<mgrwt>
<rscale>  0 0.48509952E+03</rscale>
<asrwt>0</asrwt>
<pdfrwt beam="1">  1        2 0.13634386E+00 0.66721529E+03</pdfrwt>
<pdfrwt beam="2">  1       -2 0.13118107E+00 0.66721529E+03</pdfrwt>
<totfact> 0.13045793E+01</totfact>
</mgrwt>
</event>
<event>
 4    1  0.6502538E-008  0.1047163E+04  0.7818608E-02  0.9322300E-01
         -2   -1    0    0    0  501 -0.00000000000E+00  0.00000000000E+00  0.96381766142E+03  0.96381766143E+03  0.25500000000E-02 0.  1.
          2   -1    0    0  501    0  0.00000000000E+00 -0.00000000000E+00 -0.11383687634E+04  0.11383687634E+04  0.25500000000E-02 0. -1.
    8880023    1    1    2    0    0  0.37446013231E+03  0.72285476540E+03 -0.56119521399E+03  0.11880613103E+04  0.65864270000E+03 0.  0.
    8880022    1    1    2    0    0 -0.37446013231E+03 -0.72285476540E+03  0.38664411205E+03  0.91412511449E+03  0.15294330000E+03 0.  0.
<mgrwt>
<rscale>  0 0.98755545E+03</rscale>
<asrwt>0</asrwt>
<pdfrwt beam="1">  1        2 0.17513366E+00 0.10471626E+04</pdfrwt>
<pdfrwt beam="2">  1       -2 0.14827964E+00 0.10471626E+04</pdfrwt>
<totfact> 0.62904631E+00</totfact>
</mgrwt>
</event>
<event>
 4    1  0.6502538E-008  0.7910252E+03  0.7818608E-02  0.9730548E-01
         -2   -1    0    0    0  501 -0.00000000000E+00  0.00000000000E+00  0.86944842705E+03  0.86944842706E+03  0.25500000000E-02 0.  1.
          2   -1    0    0  501    0  0.00000000000E+00 -0.00000000000E+00 -0.10430877127E+04  0.10430877127E+04  0.25500000000E-02 0. -1.
    8880023    1    1    2    0    0  0.66685446001E+02  0.43297078327E+03 -0.80526529512E+03  0.11287927399E+04  0.65864270000E+03 0. -1.
    8880022    1    1    2    0    0 -0.66685446001E+02 -0.43297078327E+03  0.63162600950E+03  0.78374339983E+03  0.15294330000E+03 0.  0.
<mgrwt>
<rscale>  0 0.69226730E+03</rscale>
<asrwt>0</asrwt>
<pdfrwt beam="1">  1        2 0.16047503E+00 0.79102519E+03</pdfrwt>
<pdfrwt beam="2">  1       -2 0.13376130E+00 0.79102519E+03</pdfrwt>
<totfact> 0.96757895E+00</totfact>
</mgrwt>
</event>
<event>
 4    1  0.6502538E-008  0.1280589E+04  0.7818608E-02  0.9082506E-01
          2   -1    0    0  501    0  0.00000000000E+00  0.00000000000E+00  0.22584144173E+04  0.22584144173E+04  0.25500000000E-02 0. -1.
         -2   -1    0    0    0  501 -0.00000000000E+00 -0.00000000000E+00 -0.11698166150E+04  0.11698166150E+04  0.25500000000E-02 0.  1.
    8880023    1    1    2    0    0 -0.81437211624E+03 -0.73681524675E+03  0.17260581562E+04  0.21492290749E+04  0.65864270000E+03 0.  0.
    8880022    1    1    2    0    0  0.81437211624E+03  0.73681524675E+03 -0.63746035386E+03  0.12790019575E+04  0.15294330000E+03 0.  0.
<mgrwt>
<rscale>  0 0.12353017E+04</rscale>
<asrwt>0</asrwt>
<pdfrwt beam="1">  1        2 0.34744837E+00 0.12805893E+04</pdfrwt>
<pdfrwt beam="2">  1       -2 0.17997179E+00 0.12805893E+04</pdfrwt>
<totfact> 0.83692694E-01</totfact>
</mgrwt>
</event>
<event>
 4    1  0.6502538E-008  0.7567640E+03  0.7818608E-02  0.9813558E-01
          2   -1    0    0  501    0  0.00000000000E+00  0.00000000000E+00  0.87755733466E+03  0.87755733467E+03  0.25500000000E-02 0. -1.
         -2   -1    0    0    0  501 -0.00000000000E+00 -0.00000000000E+00 -0.84061570218E+03  0.84061570219E+03  0.25500000000E-02 0.  1.
    8880023    1    1    2    0    0  0.37230168914E+03  0.16522259602E+02  0.64124555774E+03  0.99191108694E+03  0.65864270000E+03 0. -1.
    8880022    1    1    2    0    0 -0.37230168914E+03 -0.16522259602E+02 -0.60430392526E+03  0.72626194992E+03  0.15294330000E+03 0.  0.
<mgrwt>
<rscale>  0 0.64639976E+03</rscale>
<asrwt>0</asrwt>
<pdfrwt beam="1">  1        2 0.13500882E+00 0.75676399E+03</pdfrwt>
<pdfrwt beam="2">  1       -2 0.12932549E+00 0.75676399E+03</pdfrwt>
<totfact> 0.13568081E+01</totfact>
</mgrwt>
</event>
<event>
 4    1  0.6502538E-008  0.7372511E+03  0.7818608E-02  0.9868028E-01
          2   -1    0    0  501    0  0.00000000000E+00  0.00000000000E+00  0.83812028376E+03  0.83812028377E+03  0.25500000000E-02 0. -1.
         -2   -1    0    0    0  501 -0.00000000000E+00 -0.00000000000E+00 -0.43390424533E+03  0.43390424533E+03  0.25500000000E-02 0.  1.
    8880023    1    1    2    0    0  0.17482018025E+03  0.28136602887E+03  0.50485509588E+03  0.89354228312E+03  0.65864270000E+03 0.  0.
    8880022    1    1    2    0    0 -0.17482018025E+03 -0.28136602887E+03 -0.10063905744E+03  0.37848224598E+03  0.15294330000E+03 0.  0.
<mgrwt>
<rscale>  0 0.61836118E+03</rscale>
<asrwt>0</asrwt>
<pdfrwt beam="1">  1        2 0.12894158E+00 0.73725107E+03</pdfrwt>
<pdfrwt beam="2">  1       -2 0.66754499E-01 0.73725107E+03</pdfrwt>
<totfact> 0.67652097E+01</totfact>
</mgrwt>
</event>
<event>
 4    1  0.6502538E-008  0.6750281E+03  0.7818608E-02  0.1012289E+00
         -2   -1    0    0    0  501 -0.00000000000E+00  0.00000000000E+00  0.71648669586E+03  0.71648669586E+03  0.25500000000E-02 0.  1.
          2   -1    0    0  501    0  0.00000000000E+00 -0.00000000000E+00 -0.40513568443E+03  0.40513568444E+03  0.25500000000E-02 0. -1.
    8880023    1    1    2    0    0  0.55613575359E+02  0.13696686794E+03 -0.76423181417E+02  0.67934049018E+03  0.65864270000E+03 0. -1.
    8880022    1    1    2    0    0 -0.55613575359E+02 -0.13696686794E+03  0.38777419284E+03  0.44228189012E+03  0.15294330000E+03 0.  0.
<mgrwt>
<rscale>  0 0.50575137E+03</rscale>
<asrwt>0</asrwt>
<pdfrwt beam="1">  1        2 0.62328568E-01 0.67502815E+03</pdfrwt>
<pdfrwt beam="2">  1       -2 0.11022872E+00 0.67502815E+03</pdfrwt>
<totfact> 0.52065546E+01</totfact>
</mgrwt>
</event>
<event>
 4    1  0.6502538E-008  0.8508025E+03  0.7818608E-02  0.9610138E-01
         -2   -1    0    0    0  501 -0.00000000000E+00  0.00000000000E+00  0.55258289786E+03  0.55258289787E+03  0.25500000000E-02 0.  1.
          2   -1    0    0  501    0  0.00000000000E+00 -0.00000000000E+00 -0.22103255785E+04  0.22103255785E+04  0.25500000000E-02 0. -1.
    8880023    1    1    2    0    0  0.47756645874E+03 -0.24896783879E+03 -0.19527721582E+04  0.21300666692E+04  0.65864270000E+03 0.  0.
    8880022    1    1    2    0    0 -0.47756645874E+03  0.24896783879E+03  0.29502947753E+03  0.63284180716E+03  0.15294330000E+03 0.  0.
<mgrwt>
<rscale>  0 0.76628791E+03</rscale>
<asrwt>0</asrwt>
<pdfrwt beam="1">  1        2 0.34005008E+00 0.85080251E+03</pdfrwt>
<pdfrwt beam="2">  1       -2 0.85012755E-01 0.85080251E+03</pdfrwt>
<totfact> 0.62906618E+00</totfact>
</mgrwt>
</event>
<event>
 4    1  0.6502538E-008  0.6801024E+03  0.7818608E-02  0.1009266E+00
          2   -1    0    0  501    0  0.00000000000E+00  0.00000000000E+00  0.19058438589E+04  0.19058438589E+04  0.25500000000E-02 0. -1.
         -2   -1    0    0    0  501 -0.00000000000E+00 -0.00000000000E+00 -0.12852927052E+03  0.12852927054E+03  0.25500000000E-02 0.  1.
    8880023    1    1    2    0    0  0.52713443199E+02  0.16109102271E+03  0.16204295660E+04  0.17573648481E+04  0.65864270000E+03 0. -1.
    8880022    1    1    2    0    0 -0.52713443199E+02 -0.16109102271E+03  0.15688502246E+03  0.27700828143E+03  0.15294330000E+03 0.  1.
<mgrwt>
<rscale>  0 0.51767474E+03</rscale>
<asrwt>0</asrwt>
<pdfrwt beam="1">  1        2 0.29320675E+00 0.68010237E+03</pdfrwt>
<pdfrwt beam="2">  1       -2 0.19773733E-01 0.68010237E+03</pdfrwt>
<totfact> 0.16887380E+02</totfact>
</mgrwt>
</event>
<event>
 4    1  0.6502538E-008  0.6959080E+03  0.7818608E-02  0.1001462E+00
         -2   -1    0    0    0  501 -0.00000000000E+00  0.00000000000E+00  0.16848293601E+03  0.16848293602E+03  0.25500000000E-02 0.  1.
          2   -1    0    0  501    0  0.00000000000E+00 -0.00000000000E+00 -0.16949859187E+04  0.16949859187E+04  0.25500000000E-02 0. -1.
    8880023    1    1    2    0    0 -0.22036895109E+03 -0.43763783260E+02 -0.14005476139E+04  0.15639122636E+04  0.65864270000E+03 0. -1.
    8880022    1    1    2    0    0  0.22036895109E+03  0.43763783260E+02 -0.12595536884E+03  0.29955659112E+03  0.15294330000E+03 0.  0.
<mgrwt>
<rscale>  0 0.55013838E+03</rscale>
<asrwt>0</asrwt>
<pdfrwt beam="1">  1        2 0.26076705E+00 0.69590800E+03</pdfrwt>
<pdfrwt beam="2">  1       -2 0.25920453E-01 0.69590800E+03</pdfrwt>
<totfact> 0.13573511E+02</totfact>
</mgrwt>
</event>
<event>
 4    1  0.6502538E-008  0.7164069E+03  0.7818608E-02  0.9934937E-01
         -2   -1    0    0    0  501 -0.00000000000E+00  0.00000000000E+00  0.40234011841E+03  0.40234011842E+03  0.25500000000E-02 0.  1.
          2   -1    0    0  501    0  0.00000000000E+00 -0.00000000000E+00 -0.12982620081E+04  0.12982620081E+04  0.25500000000E-02 0. -1.
    8880023    1    1    2    0    0  0.74217736036E+00  0.28182992159E+03 -0.11056422072E+04  0.13174534346E+04  0.65864270000E+03 0. -1.
    8880022    1    1    2    0    0 -0.74217736036E+00 -0.28182992159E+03  0.20972031757E+03  0.38314869196E+03  0.15294330000E+03 0.  0.
<mgrwt>
<rscale>  0 0.58597581E+03</rscale>
<asrwt>0</asrwt>
<pdfrwt beam="1">  1        2 0.19973261E+00 0.71640691E+03</pdfrwt>
<pdfrwt beam="2">  1       -2 0.61898480E-01 0.71640691E+03</pdfrwt>
<totfact> 0.41093088E+01</totfact>
</mgrwt>
</event>
<event>
 4    1  0.6502538E-008  0.1363882E+04  0.7818608E-02  0.9012268E-01
          2   -1    0    0  501    0  0.00000000000E+00  0.00000000000E+00  0.12938299349E+04  0.12938299349E+04  0.25500000000E-02 0. -1.
         -2   -1    0    0    0  501 -0.00000000000E+00 -0.00000000000E+00 -0.15827836907E+04  0.15827836907E+04  0.25500000000E-02 0.  1.
    8880023    1    1    2    0    0  0.11942966558E+04 -0.43353399279E+01  0.48238732875E+03  0.14466758581E+04  0.65864270000E+03 0.  0.
    8880022    1    1    2    0    0 -0.11942966558E+04  0.43353399279E+01 -0.77134108455E+03  0.14299377675E+04  0.15294330000E+03 0.  0.
<mgrwt>
<rscale>  0 0.13220393E+04</rscale>
<asrwt>0</asrwt>
<pdfrwt beam="1">  1        2 0.19905076E+00 0.13638818E+04</pdfrwt>
<pdfrwt beam="2">  1       -2 0.24350518E+00 0.13638818E+04</pdfrwt>
<totfact> 0.11219056E+00</totfact>
</mgrwt>
</event>
<event>
 4    1  0.6502538E-008  0.8227931E+03  0.7818608E-02  0.9663521E-01
          2   -1    0    0  501    0  0.00000000000E+00  0.00000000000E+00  0.49911464573E+03  0.49911464574E+03  0.25500000000E-02 0. -1.
         -2   -1    0    0    0  501 -0.00000000000E+00 -0.00000000000E+00 -0.24376429882E+04  0.24376429882E+04  0.25500000000E-02 0.  1.
    8880023    1    1    2    0    0 -0.49301483788E+03  0.10705729274E+02  0.10458889597E+03  0.82941382098E+03  0.65864270000E+03 0. -1.
    8880022    1    1    2    0    0  0.49301483788E+03 -0.10705729274E+02 -0.20431172385E+04  0.21073438130E+04  0.15294330000E+03 0.  0.
<mgrwt>
<rscale>  0 0.73230898E+03</rscale>
<asrwt>0</asrwt>
<pdfrwt beam="1">  1        2 0.76786870E-01 0.82279308E+03</pdfrwt>
<pdfrwt beam="2">  1       -2 0.37502199E+00 0.82279308E+03</pdfrwt>
<totfact> 0.69566457E-01</totfact>
</mgrwt>
</event>
<event>
 4    1  0.6502538E-008  0.1147899E+04  0.7818608E-02  0.9209511E-01
         -2   -1    0    0    0  501 -0.00000000000E+00  0.00000000000E+00  0.15736615542E+04  0.15736615542E+04  0.25500000000E-02 0.  1.
          2   -1    0    0  501    0  0.00000000000E+00 -0.00000000000E+00 -0.85114735299E+03  0.85114735299E+03  0.25500000000E-02 0. -1.
    8880023    1    1    2    0    0 -0.73129936860E+03  0.59081539871E+03 -0.11870544728E+03  0.11540202734E+04  0.65864270000E+03 0. -1.
    8880022    1    1    2    0    0  0.73129936860E+03 -0.59081539871E+03  0.84121964852E+03  0.12707886339E+04  0.15294330000E+03 0.  0.
<mgrwt>
<rscale>  0 0.10955792E+04</rscale>
<asrwt>0</asrwt>
<pdfrwt beam="1">  1        2 0.13094575E+00 0.11478989E+04</pdfrwt>
<pdfrwt beam="2">  1       -2 0.24210178E+00 0.11478989E+04</pdfrwt>
<totfact> 0.22331011E+00</totfact>
</mgrwt>
</event>
<event>
 4    1  0.6502538E-008  0.1415442E+04  0.7818608E-02  0.8971776E-01
         -2   -1    0    0    0  501 -0.00000000000E+00  0.00000000000E+00  0.19968342613E+04  0.19968342613E+04  0.25500000000E-02 0.  1.
          2   -1    0    0  501    0  0.00000000000E+00 -0.00000000000E+00 -0.14687689147E+04  0.14687689147E+04  0.25500000000E-02 0. -1.
    8880023    1    1    2    0    0 -0.12265482096E+04  0.25543339839E+03 -0.80620460535E+03  0.16289391651E+04  0.65864270000E+03 0.  0.
    8880022    1    1    2    0    0  0.12265482096E+04 -0.25543339839E+03  0.13342699519E+04  0.18366640109E+04  0.15294330000E+03 0.  0.
<mgrwt>
<rscale>  0 0.13754604E+04</rscale>
<asrwt>0</asrwt>
<pdfrwt beam="1">  1        2 0.22596445E+00 0.14154423E+04</pdfrwt>
<pdfrwt beam="2">  1       -2 0.30720527E+00 0.14154423E+04</pdfrwt>
<totfact> 0.36072129E-01</totfact>
</mgrwt>
</event>
<event>
 4    1  0.6502538E-008  0.1147783E+04  0.7818608E-02  0.9209632E-01
         -2   -1    0    0    0  501 -0.00000000000E+00  0.00000000000E+00  0.92443570148E+03  0.92443570149E+03  0.25500000000E-02 0.  1.
          2   -1    0    0  501    0  0.00000000000E+00 -0.00000000000E+00 -0.14194296457E+04  0.14194296457E+04  0.25500000000E-02 0. -1.
    8880023    1    1    2    0    0  0.93098986438E+03 -0.12982343431E+03  0.19974106090E+03  0.11650334542E+04  0.65864270000E+03 0.  1.
    8880022    1    1    2    0    0 -0.93098986438E+03  0.12982343431E+03 -0.69473500514E+03  0.11788318930E+04  0.15294330000E+03 0.  0.
<mgrwt>
<rscale>  0 0.10954564E+04</rscale>
<asrwt>0</asrwt>
<pdfrwt beam="1">  1        2 0.21837379E+00 0.11477833E+04</pdfrwt>
<pdfrwt beam="2">  1       -2 0.14222088E+00 0.11477833E+04</pdfrwt>
<totfact> 0.47531588E+00</totfact>
</mgrwt>
</event>
<event>
 4    1  0.6502538E-008  0.1367146E+04  0.7818608E-02  0.9009641E-01
         -2   -1    0    0    0  501 -0.00000000000E+00  0.00000000000E+00  0.10729046488E+04  0.10729046488E+04  0.25500000000E-02 0.  1.
          2   -1    0    0  501    0  0.00000000000E+00 -0.00000000000E+00 -0.17342002876E+04  0.17342002877E+04  0.25500000000E-02 0. -1.
    8880023    1    1    2    0    0  0.79700080235E+03  0.89446433971E+03 -0.81181279006E+03  0.15900084737E+04  0.65864270000E+03 0.  0.
    8880022    1    1    2    0    0 -0.79700080235E+03 -0.89446433971E+03  0.15051715123E+03  0.12170964628E+04  0.15294330000E+03 0.  0.
<mgrwt>
<rscale>  0 0.13254265E+04</rscale>
<asrwt>0</asrwt>
<pdfrwt beam="1">  1        2 0.26680004E+00 0.13671455E+04</pdfrwt>
<pdfrwt beam="2">  1       -2 0.16506225E+00 0.13671455E+04</pdfrwt>
<totfact> 0.20733706E+00</totfact>
</mgrwt>
</event>
<event>
 4    1  0.6502538E-008  0.6926055E+03  0.7818608E-02  0.1002938E+00
         -2   -1    0    0    0  501 -0.00000000000E+00  0.00000000000E+00  0.37378920771E+03  0.37378920772E+03  0.25500000000E-02 0.  1.
          2   -1    0    0  501    0  0.00000000000E+00 -0.00000000000E+00 -0.16571648148E+04  0.16571648148E+04  0.25500000000E-02 0. -1.
    8880023    1    1    2    0    0  0.13168921693E+03  0.16896786532E+03 -0.15242048416E+04  0.16741872043E+04  0.65864270000E+03 0. -1.
    8880022    1    1    2    0    0 -0.13168921693E+03 -0.16896786532E+03  0.24082923456E+03  0.35676681824E+03  0.15294330000E+03 0.  0.
<mgrwt>
<rscale>  0 0.54380532E+03</rscale>
<asrwt>0</asrwt>
<pdfrwt beam="1">  1        2 0.25494843E+00 0.69260551E+03</pdfrwt>
<pdfrwt beam="2">  1       -2 0.57506033E-01 0.69260551E+03</pdfrwt>
<totfact> 0.30325387E+01</totfact>
</mgrwt>
</event>
<event>
 4    1  0.6502538E-008  0.9089129E+03  0.7818608E-02  0.9511872E-01
          2   -1    0    0  501    0  0.00000000000E+00  0.00000000000E+00  0.16408563130E+04  0.16408563130E+04  0.25500000000E-02 0. -1.
         -2   -1    0    0    0  501 -0.00000000000E+00 -0.00000000000E+00 -0.78566385096E+03  0.78566385096E+03  0.25500000000E-02 0.  1.
    8880023    1    1    2    0    0 -0.51883104489E+03 -0.35089429162E+03  0.13404623584E+04  0.16195561113E+04  0.65864270000E+03 0. -1.
    8880022    1    1    2    0    0  0.51883104489E+03  0.35089429162E+03 -0.48526989633E+03  0.80696405270E+03  0.15294330000E+03 0.  0.
<mgrwt>
<rscale>  0 0.83414152E+03</rscale>
<asrwt>0</asrwt>
<pdfrwt beam="1">  1        2 0.25243943E+00 0.90891290E+03</pdfrwt>
<pdfrwt beam="2">  1       -2 0.12087136E+00 0.90891290E+03</pdfrwt>
<totfact> 0.55500384E+00</totfact>
</mgrwt>
</event>
<event>
 4    1  0.6502538E-008  0.6997786E+03  0.7818608E-02  0.9998121E-01
          2   -1    0    0  501    0  0.00000000000E+00  0.00000000000E+00  0.78489324060E+03  0.78489324061E+03  0.25500000000E-02 0. -1.
         -2   -1    0    0    0  501 -0.00000000000E+00 -0.00000000000E+00 -0.39630536848E+03  0.39630536849E+03  0.25500000000E-02 0.  1.
    8880023    1    1    2    0    0 -0.23597319438E+03 -0.14020703325E+02  0.51867972993E+03  0.87104465850E+03  0.65864270000E+03 0. -1.
    8880022    1    1    2    0    0  0.23597319438E+03  0.14020703325E+02 -0.13009185781E+03  0.31015395060E+03  0.15294330000E+03 0.  0.
<mgrwt>
<rscale>  0 0.55732715E+03</rscale>
<asrwt>0</asrwt>
<pdfrwt beam="1">  1        2 0.12075281E+00 0.69977863E+03</pdfrwt>
<pdfrwt beam="2">  1       -2 0.60970057E-01 0.69977863E+03</pdfrwt>
<totfact> 0.89864106E+01</totfact>
</mgrwt>
</event>
<event>
 4    1  0.6502538E-008  0.1368097E+04  0.7818608E-02  0.9008877E-01
          2   -1    0    0  501    0  0.00000000000E+00  0.00000000000E+00  0.23781219866E+04  0.23781219866E+04  0.25500000000E-02 0. -1.
         -2   -1    0    0    0  501 -0.00000000000E+00 -0.00000000000E+00 -0.75455819090E+03  0.75455819090E+03  0.25500000000E-02 0.  1.
    8880023    1    1    2    0    0 -0.11989118519E+04 -0.22156528229E+02  0.12859373236E+04  0.18775850305E+04  0.65864270000E+03 0.  0.
    8880022    1    1    2    0    0  0.11989118519E+04  0.22156528229E+02  0.33762647207E+03  0.12550951470E+04  0.15294330000E+03 0.  0.
<mgrwt>
<rscale>  0 0.13264142E+04</rscale>
<asrwt>0</asrwt>
<pdfrwt beam="1">  1        2 0.36586492E+00 0.13680975E+04</pdfrwt>
<pdfrwt beam="2">  1       -2 0.11608588E+00 0.13680975E+04</pdfrwt>
<totfact> 0.22690047E+00</totfact>
</mgrwt>
</event>
<event>
 4    1  0.6502538E-008  0.6868978E+03  0.7818608E-02  0.1005663E+00
         -2   -1    0    0    0  501 -0.00000000000E+00  0.00000000000E+00  0.18938271826E+03  0.18938271828E+03  0.25500000000E-02 0.  1.
          2   -1    0    0  501    0  0.00000000000E+00 -0.00000000000E+00 -0.13712720656E+04  0.13712720656E+04  0.25500000000E-02 0. -1.
    8880023    1    1    2    0    0  0.18236242331E+03 -0.69010103064E+02 -0.11051675783E+04  0.13012394207E+04  0.65864270000E+03 0. -1.
    8880022    1    1    2    0    0 -0.18236242331E+03  0.69010103064E+02 -0.76721769030E+02  0.25941536311E+03  0.15294330000E+03 0.  0.
<mgrwt>
<rscale>  0 0.53235225E+03</rscale>
<asrwt>0</asrwt>
<pdfrwt beam="1">  1        2 0.21096493E+00 0.68689785E+03</pdfrwt>
<pdfrwt beam="2">  1       -2 0.29135804E-01 0.68689785E+03</pdfrwt>
<totfact> 0.16581548E+02</totfact>
</mgrwt>
</event>
<event>
 4    1  0.6502538E-008  0.8133939E+03  0.7818608E-02  0.9682550E-01
         -2   -1    0    0    0  501 -0.00000000000E+00  0.00000000000E+00  0.20721967822E+04  0.20721967822E+04  0.25500000000E-02 0.  1.
          2   -1    0    0  501    0  0.00000000000E+00 -0.00000000000E+00 -0.79731703028E+03  0.79731703029E+03  0.25500000000E-02 0. -1.
    8880023    1    1    2    0    0  0.47489640801E+03  0.47673879091E+02 -0.54682938234E+03  0.98011834834E+03  0.65864270000E+03 0. -1.
    8880022    1    1    2    0    0 -0.47489640801E+03 -0.47673879091E+02  0.18217091343E+04  0.18893954642E+04  0.15294330000E+03 0.  0.
<mgrwt>
<rscale>  0 0.72065299E+03</rscale>
<asrwt>0</asrwt>
<pdfrwt beam="1">  1        2 0.12266416E+00 0.81339388E+03</pdfrwt>
<pdfrwt beam="2">  1       -2 0.31879950E+00 0.81339388E+03</pdfrwt>
<totfact> 0.87392560E-01</totfact>
</mgrwt>
</event>
<event>
 4    1  0.6502538E-008  0.7476559E+03  0.7818608E-02  0.9838182E-01
         -2   -1    0    0    0  501 -0.00000000000E+00  0.00000000000E+00  0.42940179211E+03  0.42940179212E+03  0.25500000000E-02 0.  1.
          2   -1    0    0  501    0  0.00000000000E+00 -0.00000000000E+00 -0.76291386577E+03  0.76291386578E+03  0.25500000000E-02 0. -1.
    8880023    1    1    2    0    0  0.33252708436E+03 -0.12085085419E+03 -0.13862334800E+03  0.76039846769E+03  0.65864270000E+03 0.  1.
    8880022    1    1    2    0    0 -0.33252708436E+03  0.12085085419E+03 -0.19488872566E+03  0.43191719021E+03  0.15294330000E+03 0. -1.
<mgrwt>
<rscale>  0 0.63353124E+03</rscale>
<asrwt>0</asrwt>
<pdfrwt beam="1">  1        2 0.11737136E+00 0.74765593E+03</pdfrwt>
<pdfrwt beam="2">  1       -2 0.66061814E-01 0.74765593E+03</pdfrwt>
<totfact> 0.78312162E+01</totfact>
</mgrwt>
</event>
<event>
 4    1  0.6502538E-008  0.1054825E+04  0.7818608E-02  0.9313103E-01
         -2   -1    0    0    0  501 -0.00000000000E+00  0.00000000000E+00  0.80101966138E+03  0.80101966138E+03  0.25500000000E-02 0.  1.
          2   -1    0    0  501    0  0.00000000000E+00 -0.00000000000E+00 -0.25823503168E+04  0.25823503168E+04  0.25500000000E-02 0. -1.
    8880023    1    1    2    0    0  0.51356113860E+03 -0.64428357242E+03 -0.22050347466E+04  0.24443475213E+04  0.65864270000E+03 0. -1.
    8880022    1    1    2    0    0 -0.51356113860E+03  0.64428357242E+03  0.42370409114E+03  0.93902245694E+03  0.15294330000E+03 0.  0.
<mgrwt>
<rscale>  0 0.99585468E+03</rscale>
<asrwt>0</asrwt>
<pdfrwt beam="1">  1        2 0.39728466E+00 0.10548254E+04</pdfrwt>
<pdfrwt beam="2">  1       -2 0.12323379E+00 0.10548254E+04</pdfrwt>
<totfact> 0.15493368E+00</totfact>
</mgrwt>
</event>
<event>
 4    1  0.6502538E-008  0.7902992E+03  0.7818608E-02  0.9732177E-01
         -2   -1    0    0    0  501 -0.00000000000E+00  0.00000000000E+00  0.29442244299E+03  0.29442244301E+03  0.25500000000E-02 0.  1.
          2   -1    0    0  501    0  0.00000000000E+00 -0.00000000000E+00 -0.23429976914E+04  0.23429976914E+04  0.25500000000E-02 0. -1.
    8880023    1    1    2    0    0  0.13681220180E+01  0.43676170214E+03 -0.20253403785E+04  0.21740691137E+04  0.65864270000E+03 0.  0.
    8880022    1    1    2    0    0 -0.13681220180E+01 -0.43676170214E+03 -0.23234869953E+02  0.46335102073E+03  0.15294330000E+03 0.  0.
<mgrwt>
<rscale>  0 0.69132859E+03</rscale>
<asrwt>0</asrwt>
<pdfrwt beam="1">  1        2 0.36046117E+00 0.79029922E+03</pdfrwt>
<pdfrwt beam="2">  1       -2 0.45295762E-01 0.79029922E+03</pdfrwt>
<totfact> 0.20515809E+01</totfact>
</mgrwt>
</event>
<event>
 4    1  0.6502538E-008  0.1146870E+04  0.7818608E-02  0.9210583E-01
         -2   -1    0    0    0  501 -0.00000000000E+00  0.00000000000E+00  0.11236009921E+04  0.11236009921E+04  0.25500000000E-02 0.  1.
          2   -1    0    0  501    0  0.00000000000E+00 -0.00000000000E+00 -0.13482608768E+04  0.13482608768E+04  0.25500000000E-02 0. -1.
    8880023    1    1    2    0    0  0.70063668982E+03  0.62498641536E+03 -0.76428698984E+03  0.13782033956E+04  0.65864270000E+03 0.  0.
    8880022    1    1    2    0    0 -0.70063668982E+03 -0.62498641536E+03  0.53962710512E+03  0.10936584732E+04  0.15294330000E+03 0.  0.
<mgrwt>
<rscale>  0 0.10944857E+04</rscale>
<asrwt>0</asrwt>
<pdfrwt beam="1">  1        2 0.20742475E+00 0.11468697E+04</pdfrwt>
<pdfrwt beam="2">  1       -2 0.17286169E+00 0.11468697E+04</pdfrwt>
<totfact> 0.30771022E+00</totfact>
</mgrwt>
</event>
<event>
 4    1  0.6502538E-008  0.1567424E+04  0.7818608E-02  0.8863437E-01
          2   -1    0    0  501    0  0.00000000000E+00  0.00000000000E+00  0.16401125423E+04  0.16401125423E+04  0.25500000000E-02 0. -1.
         -2   -1    0    0    0  501 -0.00000000000E+00 -0.00000000000E+00 -0.15751708703E+04  0.15751708703E+04  0.25500000000E-02 0.  1.
    8880023    1    1    2    0    0 -0.10857554729E+04  0.91877194137E+03  0.61346889916E+03  0.16831996684E+04  0.65864270000E+03 0.  0.
    8880022    1    1    2    0    0  0.10857554729E+04 -0.91877194137E+03 -0.54852722713E+03  0.15320837442E+04  0.15294330000E+03 0.  0.
<mgrwt>
<rscale>  0 0.15320170E+04</rscale>
<asrwt>0</asrwt>
<pdfrwt beam="1">  1        2 0.25232501E+00 0.15674237E+04</pdfrwt>
<pdfrwt beam="2">  1       -2 0.24233398E+00 0.15674237E+04</pdfrwt>
<totfact> 0.70822236E-01</totfact>
</mgrwt>
</event>
<event>
 4    1  0.6502538E-008  0.1582394E+04  0.7818608E-02  0.8853544E-01
          2   -1    0    0  501    0  0.00000000000E+00  0.00000000000E+00  0.17517115142E+04  0.17517115142E+04  0.25500000000E-02 0. -1.
         -2   -1    0    0    0  501 -0.00000000000E+00 -0.00000000000E+00 -0.18409047639E+04  0.18409047639E+04  0.25500000000E-02 0.  1.
    8880023    1    1    2    0    0 -0.52205903561E+03 -0.13407519132E+04  0.91825075021E+03  0.18295234287E+04  0.65864270000E+03 0.  0.
    8880022    1    1    2    0    0  0.52205903561E+03  0.13407519132E+04 -0.10074439999E+04  0.17630928494E+04  0.15294330000E+03 0.  0.
<mgrwt>
<rscale>  0 0.15473783E+04</rscale>
<asrwt>0</asrwt>
<pdfrwt beam="1">  1        2 0.26949408E+00 0.15823942E+04</pdfrwt>
<pdfrwt beam="2">  1       -2 0.28321612E+00 0.15823942E+04</pdfrwt>
<totfact> 0.34375648E-01</totfact>
</mgrwt>
</event>
<event>
 4    1  0.6502538E-008  0.7927578E+03  0.7818608E-02  0.9726680E-01
          2   -1    0    0  501    0  0.00000000000E+00  0.00000000000E+00  0.15542627324E+04  0.15542627324E+04  0.25500000000E-02 0. -1.
         -2   -1    0    0    0  501 -0.00000000000E+00 -0.00000000000E+00 -0.43626498247E+03  0.43626498248E+03  0.25500000000E-02 0.  1.
    8880023    1    1    2    0    0 -0.41454261035E+03 -0.15102699619E+03  0.12720153053E+04  0.14988288337E+04  0.65864270000E+03 0.  0.
    8880022    1    1    2    0    0  0.41454261035E+03  0.15102699619E+03 -0.15401755542E+03  0.49169888119E+03  0.15294330000E+03 0.  0.
<mgrwt>
<rscale>  0 0.69450281E+03</rscale>
<asrwt>0</asrwt>
<pdfrwt beam="1">  1        2 0.23911734E+00 0.79275780E+03</pdfrwt>
<pdfrwt beam="2">  1       -2 0.67117690E-01 0.79275780E+03</pdfrwt>
<totfact> 0.24570575E+01</totfact>
</mgrwt>
</event>
<event>
 4    1  0.6502538E-008  0.8774217E+03  0.7818608E-02  0.9563295E-01
         -2   -1    0    0    0  501 -0.00000000000E+00  0.00000000000E+00  0.50330556126E+03  0.50330556126E+03  0.25500000000E-02 0.  1.
          2   -1    0    0  501    0  0.00000000000E+00 -0.00000000000E+00 -0.11166083961E+04  0.11166083961E+04  0.25500000000E-02 0. -1.
    8880023    1    1    2    0    0  0.51594705678E+03  0.26430515995E+03 -0.49959388325E+03  0.10096845237E+04  0.65864270000E+03 0. -1.
    8880022    1    1    2    0    0 -0.51594705678E+03 -0.26430515995E+03 -0.11370895156E+03  0.61022943362E+03  0.15294330000E+03 0.  1.
<mgrwt>
<rscale>  0 0.79773953E+03</rscale>
<asrwt>0</asrwt>
<pdfrwt beam="1">  1        2 0.17178591E+00 0.87742167E+03</pdfrwt>
<pdfrwt beam="2">  1       -2 0.77431625E-01 0.87742167E+03</pdfrwt>
<totfact> 0.31824915E+01</totfact>
</mgrwt>
</event>
<event>
 4    1  0.6502538E-008  0.7822649E+03  0.7818608E-02  0.9750543E-01
          2   -1    0    0  501    0  0.00000000000E+00  0.00000000000E+00  0.20185762828E+04  0.20185762828E+04  0.25500000000E-02 0. -1.
         -2   -1    0    0    0  501 -0.00000000000E+00 -0.00000000000E+00 -0.57574048632E+03  0.57574048632E+03  0.25500000000E-02 0.  1.
    8880023    1    1    2    0    0  0.30518840849E+03 -0.29152741366E+03  0.18371860912E+04  0.19967952167E+04  0.65864270000E+03 0.  0.
    8880022    1    1    2    0    0 -0.30518840849E+03  0.29152741366E+03 -0.39435029473E+03  0.59752155238E+03  0.15294330000E+03 0.  0.
<mgrwt>
<rscale>  0 0.68085577E+03</rscale>
<asrwt>0</asrwt>
<pdfrwt beam="1">  1        2 0.31055020E+00 0.78226492E+03</pdfrwt>
<pdfrwt beam="2">  1       -2 0.88575458E-01 0.78226492E+03</pdfrwt>
<totfact> 0.73749585E+00</totfact>
</mgrwt>
</event>
<event>
 4    1  0.6502538E-008  0.6627211E+03  0.7818608E-02  0.1021527E+00
         -2   -1    0    0    0  501 -0.00000000000E+00  0.00000000000E+00  0.24773814844E+03  0.24773814846E+03  0.25500000000E-02 0.  1.
          2   -1    0    0  501    0  0.00000000000E+00 -0.00000000000E+00 -0.11224612805E+04  0.11224612805E+04  0.25500000000E-02 0. -1.
    8880023    1    1    2    0    0  0.61188031842E+02 -0.40560084724E+02 -0.97064609697E+03  0.11753098092E+04  0.65864270000E+03 0. -1.
    8880022    1    1    2    0    0 -0.61188031842E+02  0.40560084724E+02  0.95922964870E+02  0.19488961983E+03  0.15294330000E+03 0.  0.
<mgrwt>
<rscale>  0 0.47139598E+03</rscale>
<asrwt>0</asrwt>
<pdfrwt beam="1">  1        2 0.17268635E+00 0.66272113E+03</pdfrwt>
<pdfrwt beam="2">  1       -2 0.38113562E-01 0.66272113E+03</pdfrwt>
<totfact> 0.13982655E+02</totfact>
</mgrwt>
</event>
<event>
 4    1  0.6502538E-008  0.7098248E+03  0.7818608E-02  0.9958652E-01
         -2   -1    0    0    0  501 -0.00000000000E+00  0.00000000000E+00  0.20304716518E+04  0.20304716518E+04  0.25500000000E-02 0.  1.
          2   -1    0    0  501    0  0.00000000000E+00 -0.00000000000E+00 -0.35396783148E+03  0.35396783148E+03  0.25500000000E-02 0. -1.
    8880023    1    1    2    0    0 -0.24543506887E+02 -0.26351208919E+03  0.30696977900E+02  0.71048822340E+03  0.65864270000E+03 0. -1.
    8880022    1    1    2    0    0  0.24543506887E+02  0.26351208919E+03  0.16458068424E+04  0.16739512599E+04  0.15294330000E+03 0.  0.
<mgrwt>
<rscale>  0 0.57501040E+03</rscale>
<asrwt>0</asrwt>
<pdfrwt beam="1">  1        2 0.54456589E-01 0.70982477E+03</pdfrwt>
<pdfrwt beam="2">  1       -2 0.31238025E+00 0.70982477E+03</pdfrwt>
<totfact> 0.25557409E+00</totfact>
</mgrwt>
</event>
<event>
 4    1  0.6502538E-008  0.9185083E+03  0.7818608E-02  0.9496950E-01
          2   -1    0    0  501    0  0.00000000000E+00  0.00000000000E+00  0.15449953877E+04  0.15449953877E+04  0.25500000000E-02 0. -1.
         -2   -1    0    0    0  501 -0.00000000000E+00 -0.00000000000E+00 -0.11864672198E+04  0.11864672198E+04  0.25500000000E-02 0.  1.
    8880023    1    1    2    0    0 -0.54289000013E+03  0.33929017957E+03  0.12944791271E+04  0.15872409379E+04  0.65864270000E+03 0.  0.
    8880022    1    1    2    0    0  0.54289000013E+03 -0.33929017957E+03 -0.93595095916E+03  0.11442216696E+04  0.15294330000E+03 0.  0.
<mgrwt>
<rscale>  0 0.84509061E+03</rscale>
<asrwt>0</asrwt>
<pdfrwt beam="1">  1        2 0.23769160E+00 0.91850835E+03</pdfrwt>
<pdfrwt beam="2">  1       -2 0.18253342E+00 0.91850835E+03</pdfrwt>
<totfact> 0.20941062E+00</totfact>
</mgrwt>
</event>
<event>
 4    1  0.6502538E-008  0.8289215E+03  0.7818608E-02  0.9651434E-01
         -2   -1    0    0    0  501 -0.00000000000E+00  0.00000000000E+00  0.52819292008E+03  0.52819292009E+03  0.25500000000E-02 0.  1.
          2   -1    0    0  501    0  0.00000000000E+00 -0.00000000000E+00 -0.11753278336E+04  0.11753278336E+04  0.25500000000E-02 0. -1.
    8880023    1    1    2    0    0 -0.39917727484E+03 -0.30652603949E+03 -0.80382612237E+03  0.11546633063E+04  0.65864270000E+03 0. -1.
    8880022    1    1    2    0    0  0.39917727484E+03  0.30652603949E+03  0.15669120884E+03  0.54885744741E+03  0.15294330000E+03 0.  0.
<mgrwt>
<rscale>  0 0.73983473E+03</rscale>
<asrwt>0</asrwt>
<pdfrwt beam="1">  1        2 0.18081967E+00 0.82892154E+03</pdfrwt>
<pdfrwt beam="2">  1       -2 0.81260450E-01 0.82892154E+03</pdfrwt>
<totfact> 0.26425765E+01</totfact>
</mgrwt>
</event>
<event>
 4    1  0.6502538E-008  0.1799348E+04  0.7818608E-02  0.8722897E-01
          2   -1    0    0  501    0  0.00000000000E+00  0.00000000000E+00  0.20192469851E+04  0.20192469851E+04  0.25500000000E-02 0. -1.
         -2   -1    0    0    0  501 -0.00000000000E+00 -0.00000000000E+00 -0.16664463714E+04  0.16664463714E+04  0.25500000000E-02 0.  1.
    8880023    1    1    2    0    0  0.12130876705E+03  0.16700675971E+04  0.76380729765E+03  0.19547514906E+04  0.65864270000E+03 0.  0.
    8880022    1    1    2    0    0 -0.12130876705E+03 -0.16700675971E+04 -0.41100668392E+03  0.17309418659E+04  0.15294330000E+03 0.  0.
<mgrwt>
<rscale>  0 0.17691168E+04</rscale>
<asrwt>0</asrwt>
<pdfrwt beam="1">  1        2 0.31065338E+00 0.17993476E+04</pdfrwt>
<pdfrwt beam="2">  1       -2 0.25637636E+00 0.17993476E+04</pdfrwt>
<totfact> 0.34810861E-01</totfact>
</mgrwt>
</event>
<event>
 4    1  0.6502538E-008  0.6709122E+03  0.7818608E-02  0.1015017E+00
          2   -1    0    0  501    0  0.00000000000E+00  0.00000000000E+00  0.19272590035E+04  0.19272590035E+04  0.25500000000E-02 0. -1.
         -2   -1    0    0    0  501 -0.00000000000E+00 -0.00000000000E+00 -0.34245410911E+03  0.34245410912E+03  0.25500000000E-02 0.  1.
    8880023    1    1    2    0    0  0.48849682842E+02  0.11801109491E+03  0.18327107240E+04  0.19516535846E+04  0.65864270000E+03 0. -1.
    8880022    1    1    2    0    0 -0.48849682842E+02 -0.11801109491E+03 -0.24790582959E+03  0.31805952807E+03  0.15294330000E+03 0.  0.
<mgrwt>
<rscale>  0 0.49528400E+03</rscale>
<asrwt>0</asrwt>
<pdfrwt beam="1">  1        2 0.29650138E+00 0.67091215E+03</pdfrwt>
<pdfrwt beam="2">  1       -2 0.52685248E-01 0.67091215E+03</pdfrwt>
<totfact> 0.25998194E+01</totfact>
</mgrwt>
</event>
<event>
 4    1  0.6502538E-008  0.1099419E+04  0.7818608E-02  0.9261704E-01
         -2   -1    0    0    0  501 -0.00000000000E+00  0.00000000000E+00  0.82131104484E+03  0.82131104485E+03  0.25500000000E-02 0.  1.
          2   -1    0    0  501    0  0.00000000000E+00 -0.00000000000E+00 -0.23568631356E+04  0.23568631356E+04  0.25500000000E-02 0. -1.
    8880023    1    1    2    0    0  0.56971226318E+03  0.67107307468E+03 -0.19144488965E+04  0.22076765881E+04  0.65864270000E+03 0.  0.
    8880022    1    1    2    0    0 -0.56971226318E+03 -0.67107307468E+03  0.37889680567E+03  0.97049759234E+03  0.15294330000E+03 0.  0.
<mgrwt>
<rscale>  0 0.10438625E+04</rscale>
<asrwt>0</asrwt>
<pdfrwt beam="1">  1        2 0.36259433E+00 0.10994186E+04</pdfrwt>
<pdfrwt beam="2">  1       -2 0.12635555E+00 0.10994186E+04</pdfrwt>
<totfact> 0.19453175E+00</totfact>
</mgrwt>
</event>
<event>
 4    1  0.6502538E-008  0.7499909E+03  0.7818608E-02  0.9831745E-01
         -2   -1    0    0    0  501 -0.00000000000E+00  0.00000000000E+00  0.17473373593E+03  0.17473373595E+03  0.25500000000E-02 0.  1.
          2   -1    0    0  501    0  0.00000000000E+00 -0.00000000000E+00 -0.26471589725E+04  0.26471589725E+04  0.25500000000E-02 0. -1.
    8880023    1    1    2    0    0  0.10992785962E+03  0.34145575149E+03 -0.22527531786E+04  0.23743174291E+04  0.65864270000E+03 0. -1.
    8880022    1    1    2    0    0 -0.10992785962E+03 -0.34145575149E+03 -0.21967205796E+03  0.44757527926E+03  0.15294330000E+03 0.  0.
<mgrwt>
<rscale>  0 0.63686395E+03</rscale>
<asrwt>0</asrwt>
<pdfrwt beam="1">  1        2 0.40725520E+00 0.74999091E+03</pdfrwt>
<pdfrwt beam="2">  1       -2 0.26882115E-01 0.74999091E+03</pdfrwt>
<totfact> 0.37495536E+01</totfact>
</mgrwt>
</event>
<event>
 4    1  0.6502538E-008  0.1346241E+04  0.7818608E-02  0.9026623E-01
         -2   -1    0    0    0  501 -0.00000000000E+00  0.00000000000E+00  0.15368825679E+04  0.15368825679E+04  0.25500000000E-02 0.  1.
          2   -1    0    0  501    0  0.00000000000E+00 -0.00000000000E+00 -0.12369552924E+04  0.12369552924E+04  0.25500000000E-02 0. -1.
    8880023    1    1    2    0    0  0.18443868864E+03 -0.11595412064E+04 -0.39237935268E+03  0.14022571811E+04  0.65864270000E+03 0.  0.
    8880022    1    1    2    0    0 -0.18443868864E+03  0.11595412064E+04  0.69230662820E+03  0.13715806793E+04  0.15294330000E+03 0.  0.
<mgrwt>
<rscale>  0 0.13037172E+04</rscale>
<asrwt>0</asrwt>
<pdfrwt beam="1">  1        2 0.19030081E+00 0.13462406E+04</pdfrwt>
<pdfrwt beam="2">  1       -2 0.23644347E+00 0.13462406E+04</pdfrwt>
<totfact> 0.13432271E+00</totfact>
</mgrwt>
</event>
<event>
 4    1  0.6502538E-008  0.1851409E+04  0.7818608E-02  0.8694620E-01
          2   -1    0    0  501    0  0.00000000000E+00  0.00000000000E+00  0.18794915175E+04  0.18794915175E+04  0.25500000000E-02 0. -1.
         -2   -1    0    0    0  501 -0.00000000000E+00 -0.00000000000E+00 -0.19013207797E+04  0.19013207797E+04  0.25500000000E-02 0.  1.
    8880023    1    1    2    0    0  0.44078397506E+03 -0.16732047223E+04  0.58372461009E+03  0.19412493869E+04  0.65864270000E+03 0.  0.
    8880022    1    1    2    0    0 -0.44078397506E+03  0.16732047223E+04 -0.60555387230E+03  0.18395629102E+04  0.15294330000E+03 0.  0.
<mgrwt>
<rscale>  0 0.18221285E+04</rscale>
<asrwt>0</asrwt>
<pdfrwt beam="1">  1        2 0.28915254E+00 0.18514089E+04</pdfrwt>
<pdfrwt beam="2">  1       -2 0.29251089E+00 0.18514089E+04</pdfrwt>
<totfact> 0.24910142E-01</totfact>
</mgrwt>
</event>
<event>
 4    1  0.6502538E-008  0.1053520E+04  0.7818608E-02  0.9314662E-01
         -2   -1    0    0    0  501 -0.00000000000E+00  0.00000000000E+00  0.87893983168E+03  0.87893983169E+03  0.25500000000E-02 0.  1.
          2   -1    0    0  501    0  0.00000000000E+00 -0.00000000000E+00 -0.13953506628E+04  0.13953506628E+04  0.25500000000E-02 0. -1.
    8880023    1    1    2    0    0 -0.44095571233E+03  0.69401119722E+03 -0.86995583251E+03  0.13662821227E+04  0.65864270000E+03 0. -1.
    8880022    1    1    2    0    0  0.44095571233E+03 -0.69401119722E+03  0.35354500142E+03  0.90800837174E+03  0.15294330000E+03 0.  0.
<mgrwt>
<rscale>  0 0.99444163E+03</rscale>
<asrwt>0</asrwt>
<pdfrwt beam="1">  1        2 0.21466933E+00 0.10535197E+04</pdfrwt>
<pdfrwt beam="2">  1       -2 0.13522151E+00 0.10535197E+04</pdfrwt>
<totfact> 0.56458713E+00</totfact>
</mgrwt>
</event>
<event>
 4    1  0.6502538E-008  0.7492359E+03  0.7818608E-02  0.9833817E-01
          2   -1    0    0  501    0  0.00000000000E+00  0.00000000000E+00  0.52026440555E+04  0.52026440555E+04  0.25500000000E-02 0. -1.
         -2   -1    0    0    0  501 -0.00000000000E+00 -0.00000000000E+00 -0.10070044217E+04  0.10070044217E+04  0.25500000000E-02 0.  1.
    8880023    1    1    2    0    0  0.24289397287E+03 -0.26181435755E+03  0.51369576359E+04  0.51913089100E+04  0.65864270000E+03 0.  0.
    8880022    1    1    2    0    0 -0.24289397287E+03  0.26181435755E+03 -0.94131800213E+03  0.10183395671E+04  0.15294330000E+03 0.  0.
<mgrwt>
<rscale>  0 0.63578899E+03</rscale>
<asrwt>0</asrwt>
<pdfrwt beam="1">  1        2 0.80040677E+00 0.74923591E+03</pdfrwt>
<pdfrwt beam="2">  1       -2 0.15492376E+00 0.74923591E+03</pdfrwt>
<totfact> 0.60777274E-03</totfact>
</mgrwt>
</event>
<event>
 4    1  0.6502538E-008  0.9017674E+03  0.7818608E-02  0.9523200E-01
         -2   -1    0    0    0  501 -0.00000000000E+00  0.00000000000E+00  0.79992560818E+03  0.79992560818E+03  0.25500000000E-02 0.  1.
          2   -1    0    0  501    0  0.00000000000E+00 -0.00000000000E+00 -0.13471363788E+04  0.13471363788E+04  0.25500000000E-02 0. -1.
    8880023    1    1    2    0    0  0.46715361108E+03  0.40142472238E+03 -0.10156920825E+04  0.13582396389E+04  0.65864270000E+03 0. -1.
    8880022    1    1    2    0    0 -0.46715361108E+03 -0.40142472238E+03  0.46848131192E+03  0.78882234800E+03  0.15294330000E+03 0.  0.
<mgrwt>
<rscale>  0 0.82594762E+03</rscale>
<asrwt>0</asrwt>
<pdfrwt beam="1">  1        2 0.20725175E+00 0.90176744E+03</pdfrwt>
<pdfrwt beam="2">  1       -2 0.12306548E+00 0.90176744E+03</pdfrwt>
<totfact> 0.77651548E+00</totfact>
</mgrwt>
</event>
<event>
 4    1  0.6502538E-008  0.8174142E+03  0.7818608E-02  0.9674335E-01
         -2   -1    0    0    0  501 -0.00000000000E+00  0.00000000000E+00  0.24911835942E+03  0.24911835943E+03  0.25500000000E-02 0.  1.
          2   -1    0    0  501    0  0.00000000000E+00 -0.00000000000E+00 -0.41670009442E+04  0.41670009442E+04  0.25500000000E-02 0. -1.
    8880023    1    1    2    0    0  0.47356775328E+02  0.48178113989E+03 -0.38105138050E+04  0.38972017391E+04  0.65864270000E+03 0. -1.
    8880022    1    1    2    0    0 -0.47356775328E+02 -0.48178113989E+03 -0.10736877982E+03  0.51891756457E+03  0.15294330000E+03 0.  0.
<mgrwt>
<rscale>  0 0.72565620E+03</rscale>
<asrwt>0</asrwt>
<pdfrwt beam="1">  1        2 0.64107702E+00 0.81741418E+03</pdfrwt>
<pdfrwt beam="2">  1       -2 0.38325905E-01 0.81741418E+03</pdfrwt>
<totfact> 0.17571701E+00</totfact>
</mgrwt>
</event>
<event>
 4    1  0.6502538E-008  0.7327495E+03  0.7818608E-02  0.9881594E-01
          2   -1    0    0  501    0  0.00000000000E+00  0.00000000000E+00  0.87684507305E+03  0.87684507305E+03  0.25500000000E-02 0. -1.
         -2   -1    0    0    0  501 -0.00000000000E+00 -0.00000000000E+00 -0.56120812909E+03  0.56120812909E+03  0.25500000000E-02 0.  1.
    8880023    1    1    2    0    0 -0.12165864820E+03  0.29717121540E+03  0.62773055260E+03  0.96486652490E+03  0.65864270000E+03 0. -1.
    8880022    1    1    2    0    0  0.12165864820E+03 -0.29717121540E+03 -0.31209360864E+03  0.47318667724E+03  0.15294330000E+03 0.  0.
<mgrwt>
<rscale>  0 0.61161668E+03</rscale>
<asrwt>0</asrwt>
<pdfrwt beam="1">  1        2 0.13489924E+00 0.73274946E+03</pdfrwt>
<pdfrwt beam="2">  1       -2 0.86339712E-01 0.73274946E+03</pdfrwt>
<totfact> 0.35927937E+01</totfact>
</mgrwt>
</event>
<event>
 4    1  0.6502538E-008  0.7430976E+03  0.7818608E-02  0.9851014E-01
         -2   -1    0    0    0  501 -0.00000000000E+00  0.00000000000E+00  0.85566907361E+03  0.85566907362E+03  0.25500000000E-02 0.  1.
          2   -1    0    0  501    0  0.00000000000E+00 -0.00000000000E+00 -0.65403975169E+03  0.65403975170E+03  0.25500000000E-02 0. -1.
    8880023    1    1    2    0    0 -0.18018392413E+03  0.29311710181E+03 -0.36616256860E+03  0.82841361336E+03  0.65864270000E+03 0. -1.
    8880022    1    1    2    0    0  0.18018392413E+03 -0.29311710181E+03  0.56779189052E+03  0.68129521196E+03  0.15294330000E+03 0.  0.
<mgrwt>
<rscale>  0 0.62695240E+03</rscale>
<asrwt>0</asrwt>
<pdfrwt beam="1">  1        2 0.10062150E+00 0.74309763E+03</pdfrwt>
<pdfrwt beam="2">  1       -2 0.13164140E+00 0.74309763E+03</pdfrwt>
<totfact> 0.19041761E+01</totfact>
</mgrwt>
</event>
<event>
 4    1  0.6502538E-008  0.7170894E+03  0.7818608E-02  0.9932560E-01
          2   -1    0    0  501    0  0.00000000000E+00  0.00000000000E+00  0.21254053388E+04  0.21254053388E+04  0.25500000000E-02 0. -1.
         -2   -1    0    0    0  501 -0.00000000000E+00 -0.00000000000E+00 -0.20793155711E+03  0.20793155713E+03  0.25500000000E-02 0.  1.
    8880023    1    1    2    0    0  0.16930106624E+03  0.22747356192E+03  0.48650413540E+03  0.86654691300E+03  0.65864270000E+03 0.  1.
    8880022    1    1    2    0    0 -0.16930106624E+03 -0.22747356192E+03  0.14309696463E+04  0.14667899830E+04  0.15294330000E+03 0.  0.
<mgrwt>
<rscale>  0 0.58708908E+03</rscale>
<asrwt>0</asrwt>
<pdfrwt beam="1">  1        2 0.32698545E+00 0.71708945E+03</pdfrwt>
<pdfrwt beam="2">  1       -2 0.31989469E-01 0.71708945E+03</pdfrwt>
<totfact> 0.53549954E+01</totfact>
</mgrwt>
</event>
<event>
 4    1  0.6502538E-008  0.7122386E+03  0.7818608E-02  0.9949780E-01
          2   -1    0    0  501    0  0.00000000000E+00  0.00000000000E+00  0.53360159134E+03  0.53360159134E+03  0.25500000000E-02 0. -1.
         -2   -1    0    0    0  501 -0.00000000000E+00 -0.00000000000E+00 -0.78263758951E+03  0.78263758951E+03  0.25500000000E-02 0.  1.
    8880023    1    1    2    0    0 -0.12380457644E+03 -0.24113490079E+03  0.22695813053E+03  0.74752512520E+03  0.65864270000E+03 0. -1.
    8880022    1    1    2    0    0  0.12380457644E+03  0.24113490079E+03 -0.47599412870E+03  0.56871405565E+03  0.15294330000E+03 0.  0.
<mgrwt>
<rscale>  0 0.57908210E+03</rscale>
<asrwt>0</asrwt>
<pdfrwt beam="1">  1        2 0.82092552E-01 0.71223860E+03</pdfrwt>
<pdfrwt beam="2">  1       -2 0.12040578E+00 0.71223860E+03</pdfrwt>
<totfact> 0.30510898E+01</totfact>
</mgrwt>
</event>
<event>
 4    1  0.6502538E-008  0.9027134E+03  0.7818608E-02  0.9521690E-01
         -2   -1    0    0    0  501 -0.00000000000E+00  0.00000000000E+00  0.39627043220E+03  0.39627043220E+03  0.25500000000E-02 0.  1.
          2   -1    0    0  501    0  0.00000000000E+00 -0.00000000000E+00 -0.26728305559E+04  0.26728305559E+04  0.25500000000E-02 0. -1.
    8880023    1    1    2    0    0 -0.10674308076E+02 -0.61722545755E+03 -0.22592091615E+04  0.24328825389E+04  0.65864270000E+03 0. -1.
    8880022    1    1    2    0    0  0.10674308076E+02  0.61722545755E+03 -0.17350962264E+02  0.63621844929E+03  0.15294330000E+03 0.  0.
<mgrwt>
<rscale>  0 0.82703440E+03</rscale>
<asrwt>0</asrwt>
<pdfrwt beam="1">  1        2 0.41120469E+00 0.90271336E+03</pdfrwt>
<pdfrwt beam="2">  1       -2 0.60964684E-01 0.90271336E+03</pdfrwt>
<totfact> 0.71004725E+00</totfact>
</mgrwt>
</event>
<event>
 4    1  0.6502538E-008  0.8041025E+03  0.7818608E-02  0.9701995E-01
          2   -1    0    0  501    0  0.00000000000E+00  0.00000000000E+00  0.17280087075E+04  0.17280087075E+04  0.25500000000E-02 0. -1.
         -2   -1    0    0    0  501 -0.00000000000E+00 -0.00000000000E+00 -0.11465072482E+04  0.11465072482E+04  0.25500000000E-02 0.  1.
    8880023    1    1    2    0    0 -0.13223185520E+03  0.44191096203E+03  0.15750787026E+04  0.17684608244E+04  0.65864270000E+03 0.  0.
    8880022    1    1    2    0    0  0.13223185520E+03 -0.44191096203E+03 -0.99357724330E+03  0.11060551312E+04  0.15294330000E+03 0.  0.
<mgrwt>
<rscale>  0 0.70898141E+03</rscale>
<asrwt>0</asrwt>
<pdfrwt beam="1">  1        2 0.26584749E+00 0.80410246E+03</pdfrwt>
<pdfrwt beam="2">  1       -2 0.17638573E+00 0.80410246E+03</pdfrwt>
<totfact> 0.18618391E+00</totfact>
</mgrwt>
</event>
<event>
 4    1  0.6502538E-008  0.6595470E+03  0.7818608E-02  0.1024625E+00
          2   -1    0    0  501    0  0.00000000000E+00  0.00000000000E+00  0.15225355343E+04  0.15225355343E+04  0.25500000000E-02 0. -1.
         -2   -1    0    0    0  501 -0.00000000000E+00 -0.00000000000E+00 -0.35215935016E+03  0.35215935017E+03  0.25500000000E-02 0.  1.
    8880023    1    1    2    0    0  0.33879873777E+02 -0.66488829706E+01  0.14280878965E+04  0.15730344243E+04  0.65864270000E+03 0.  0.
    8880022    1    1    2    0    0 -0.33879873777E+02  0.66488829706E+01 -0.25771171242E+03  0.30166046016E+03  0.15294330000E+03 0.  1.
<mgrwt>
<rscale>  0 0.46053775E+03</rscale>
<asrwt>0</asrwt>
<pdfrwt beam="1">  1        2 0.23423624E+00 0.65954701E+03</pdfrwt>
<pdfrwt beam="2">  1       -2 0.54178361E-01 0.65954701E+03</pdfrwt>
<totfact> 0.40875533E+01</totfact>
</mgrwt>
</event>
<event>
 4    1  0.6502538E-008  0.6934112E+03  0.7818608E-02  0.1002572E+00
          2   -1    0    0  501    0  0.00000000000E+00  0.00000000000E+00  0.15133098752E+04  0.15133098752E+04  0.25500000000E-02 0. -1.
         -2   -1    0    0    0  501 -0.00000000000E+00 -0.00000000000E+00 -0.48054991436E+03  0.48054991437E+03  0.25500000000E-02 0.  1.
    8880023    1    1    2    0    0  0.19348094121E+03 -0.97846922208E+02  0.13873514031E+04  0.15509877552E+04  0.65864270000E+03 0. -1.
    8880022    1    1    2    0    0 -0.19348094121E+03  0.97846922208E+02 -0.35459144233E+03  0.44287203432E+03  0.15294330000E+03 0.  0.
<mgrwt>
<rscale>  0 0.54536862E+03</rscale>
<asrwt>0</asrwt>
<pdfrwt beam="1">  1        2 0.23281690E+00 0.69341121E+03</pdfrwt>
<pdfrwt beam="2">  1       -2 0.73930758E-01 0.69341121E+03</pdfrwt>
<totfact> 0.21213820E+01</totfact>
</mgrwt>
</event>
<event>
 4    1  0.6502538E-008  0.6667201E+03  0.7818608E-02  0.1018132E+00
         -2   -1    0    0    0  501 -0.00000000000E+00  0.00000000000E+00  0.14187812652E+04  0.14187812652E+04  0.25500000000E-02 0.  1.
          2   -1    0    0  501    0  0.00000000000E+00 -0.00000000000E+00 -0.88109697870E+03  0.88109697871E+03  0.25500000000E-02 0. -1.
    8880023    1    1    2    0    0 -0.42305104296E+02 -0.94422999011E+02 -0.74742032366E+03  0.10015751450E+04  0.65864270000E+03 0. -1.
    8880022    1    1    2    0    0  0.42305104296E+02  0.94422999011E+02  0.12851046102E+04  0.12983030989E+04  0.15294330000E+03 0.  0.
<mgrwt>
<rscale>  0 0.48366792E+03</rscale>
<asrwt>0</asrwt>
<pdfrwt beam="1">  1        2 0.13555338E+00 0.66672005E+03</pdfrwt>
<pdfrwt beam="2">  1       -2 0.21827404E+00 0.66672005E+03</pdfrwt>
<totfact> 0.31824561E+00</totfact>
</mgrwt>
</event>
<event>
 4    1  0.6502538E-008  0.1040471E+04  0.7818608E-02  0.9330425E-01
          2   -1    0    0  501    0  0.00000000000E+00  0.00000000000E+00  0.16115656050E+04  0.16115656050E+04  0.25500000000E-02 0. -1.
         -2   -1    0    0    0  501 -0.00000000000E+00 -0.00000000000E+00 -0.95235192863E+03  0.95235192863E+03  0.25500000000E-02 0.  1.
    8880023    1    1    2    0    0  0.73637369209E+03  0.32637968463E+03  0.11950203497E+04  0.15845042617E+04  0.65864270000E+03 0.  0.
    8880022    1    1    2    0    0 -0.73637369209E+03 -0.32637968463E+03 -0.53580667335E+03  0.97941327190E+03  0.15294330000E+03 0.  0.
<mgrwt>
<rscale>  0 0.98029486E+03</rscale>
<asrwt>0</asrwt>
<pdfrwt beam="1">  1        2 0.24793317E+00 0.10404711E+04</pdfrwt>
<pdfrwt beam="2">  1       -2 0.14651568E+00 0.10404711E+04</pdfrwt>
<totfact> 0.34641078E+00</totfact>
</mgrwt>
</event>
<event>
 4    1  0.6502538E-008  0.8128432E+03  0.7818608E-02  0.9683685E-01
         -2   -1    0    0    0  501 -0.00000000000E+00  0.00000000000E+00  0.47030502808E+03  0.47030502808E+03  0.25500000000E-02 0.  1.
          2   -1    0    0  501    0  0.00000000000E+00 -0.00000000000E+00 -0.32001498561E+04  0.32001498561E+04  0.25500000000E-02 0. -1.
    8880023    1    1    2    0    0  0.40672205187E+03  0.24795375026E+03 -0.29956232912E+04  0.31039447481E+04  0.65864270000E+03 0. -1.
    8880022    1    1    2    0    0 -0.40672205187E+03 -0.24795375026E+03  0.26577846325E+03  0.56651013609E+03  0.15294330000E+03 0.  0.
<mgrwt>
<rscale>  0 0.71996557E+03</rscale>
<asrwt>0</asrwt>
<pdfrwt beam="1">  1        2 0.49233073E+00 0.81284322E+03</pdfrwt>
<pdfrwt beam="2">  1       -2 0.72354622E-01 0.81284322E+03</pdfrwt>
<totfact> 0.23785158E+00</totfact>
</mgrwt>
</event>
<event>
 4    1  0.6502538E-008  0.8803551E+03  0.7818608E-02  0.9558334E-01
         -2   -1    0    0    0  501 -0.00000000000E+00  0.00000000000E+00  0.51567339470E+03  0.51567339471E+03  0.25500000000E-02 0.  1.
          2   -1    0    0  501    0  0.00000000000E+00 -0.00000000000E+00 -0.15133903736E+04  0.15133903736E+04  0.25500000000E-02 0. -1.
    8880023    1    1    2    0    0  0.23673359564E+03  0.53401505393E+03 -0.11080880636E+04  0.14152329264E+04  0.65864270000E+03 0. -1.
    8880022    1    1    2    0    0 -0.23673359564E+03 -0.53401505393E+03  0.11037108466E+03  0.61383084191E+03  0.15294330000E+03 0.  0.
<mgrwt>
<rscale>  0 0.80116407E+03</rscale>
<asrwt>0</asrwt>
<pdfrwt beam="1">  1        2 0.23282929E+00 0.88035509E+03</pdfrwt>
<pdfrwt beam="2">  1       -2 0.79334369E-01 0.88035509E+03</pdfrwt>
<totfact> 0.17731026E+01</totfact>
</mgrwt>
</event>
<event>
 4    1  0.6502538E-008  0.1485476E+04  0.7818608E-02  0.8919961E-01
          2   -1    0    0  501    0  0.00000000000E+00  0.00000000000E+00  0.17092786160E+04  0.17092786160E+04  0.25500000000E-02 0. -1.
         -2   -1    0    0    0  501 -0.00000000000E+00 -0.00000000000E+00 -0.15551075047E+04  0.15551075047E+04  0.25500000000E-02 0.  1.
    8880023    1    1    2    0    0  0.29871752568E+03 -0.12975344113E+04 -0.73364696943E+03  0.16567666675E+04  0.65864270000E+03 0.  0.
    8880022    1    1    2    0    0 -0.29871752568E+03  0.12975344113E+04  0.88781808070E+03  0.16076194531E+04  0.15294330000E+03 0.  0.
<mgrwt>
<rscale>  0 0.14477517E+04</rscale>
<asrwt>0</asrwt>
<pdfrwt beam="1">  1        2 0.26296594E+00 0.14854757E+04</pdfrwt>
<pdfrwt beam="2">  1       -2 0.23924731E+00 0.14854757E+04</pdfrwt>
<totfact> 0.68233989E-01</totfact>
</mgrwt>
</event>
<event>
 4    1  0.6502538E-008  0.1417118E+04  0.7818608E-02  0.8970494E-01
         -2   -1    0    0    0  501 -0.00000000000E+00  0.00000000000E+00  0.10428727115E+04  0.10428727115E+04  0.25500000000E-02 0.  1.
          2   -1    0    0  501    0  0.00000000000E+00 -0.00000000000E+00 -0.34100363737E+04  0.34100363737E+04  0.25500000000E-02 0. -1.
    8880023    1    1    2    0    0  0.21096839170E+03 -0.12368940652E+04 -0.27823295253E+04  0.31224321264E+04  0.65864270000E+03 0.  0.
    8880022    1    1    2    0    0 -0.21096839170E+03  0.12368940652E+04  0.41516586310E+03  0.13304769587E+04  0.15294330000E+03 0.  0.
<mgrwt>
<rscale>  0 0.13771940E+04</rscale>
<asrwt>0</asrwt>
<pdfrwt beam="1">  1        2 0.52462098E+00 0.14171185E+04</pdfrwt>
<pdfrwt beam="2">  1       -2 0.16044196E+00 0.14171185E+04</pdfrwt>
<totfact> 0.22545968E-01</totfact>
</mgrwt>
</event>
<event>
 4    1  0.6502538E-008  0.7346587E+03  0.7818608E-02  0.9875788E-01
          2   -1    0    0  501    0  0.00000000000E+00  0.00000000000E+00  0.11272646947E+04  0.11272646947E+04  0.25500000000E-02 0. -1.
         -2   -1    0    0    0  501 -0.00000000000E+00 -0.00000000000E+00 -0.49373316500E+03  0.49373316501E+03  0.25500000000E-02 0.  1.
    8880023    1    1    2    0    0 -0.22473571017E+03  0.23538714416E+03  0.90846539564E+03  0.11683461937E+04  0.65864270000E+03 0. -1.
    8880022    1    1    2    0    0  0.22473571017E+03 -0.23538714416E+03 -0.27493386594E+03  0.45265166598E+03  0.15294330000E+03 0.  0.
<mgrwt>
<rscale>  0 0.61449182E+03</rscale>
<asrwt>0</asrwt>
<pdfrwt beam="1">  1        2 0.17342534E+00 0.73465873E+03</pdfrwt>
<pdfrwt beam="2">  1       -2 0.75958948E-01 0.73465873E+03</pdfrwt>
<totfact> 0.33161494E+01</totfact>
</mgrwt>
</event>
<event>
 4    1  0.6502538E-008  0.9033839E+03  0.7818608E-02  0.9520621E-01
         -2   -1    0    0    0  501 -0.00000000000E+00  0.00000000000E+00  0.29769199272E+03  0.29769199273E+03  0.25500000000E-02 0.  1.
          2   -1    0    0  501    0  0.00000000000E+00 -0.00000000000E+00 -0.43550225913E+04  0.43550225913E+04  0.25500000000E-02 0. -1.
    8880023    1    1    2    0    0  0.55187998281E+03  0.27878431782E+03 -0.38908993577E+04  0.39943961032E+04  0.65864270000E+03 0. -1.
    8880022    1    1    2    0    0 -0.55187998281E+03 -0.27878431782E+03 -0.16643124092E+03  0.65831848087E+03  0.15294330000E+03 0.  0.
<mgrwt>
<rscale>  0 0.82780437E+03</rscale>
<asrwt>0</asrwt>
<pdfrwt beam="1">  1        2 0.67000343E+00 0.90338387E+03</pdfrwt>
<pdfrwt beam="2">  1       -2 0.45798771E-01 0.90338387E+03</pdfrwt>
<totfact> 0.83349199E-01</totfact>
</mgrwt>
</event>
<event>
 4    1  0.6502538E-008  0.9726764E+03  0.7818608E-02  0.9418212E-01
         -2   -1    0    0    0  501 -0.00000000000E+00  0.00000000000E+00  0.10619692503E+04  0.10619692503E+04  0.25500000000E-02 0.  1.
          2   -1    0    0  501    0  0.00000000000E+00 -0.00000000000E+00 -0.18419623035E+04  0.18419623035E+04  0.25500000000E-02 0. -1.
    8880023    1    1    2    0    0  0.53748994186E+03  0.47264543222E+03 -0.15574087466E+04  0.18361975254E+04  0.65864270000E+03 0.  0.
    8880022    1    1    2    0    0 -0.53748994186E+03 -0.47264543222E+03  0.77741569331E+03  0.10677340284E+04  0.15294330000E+03 0.  0.
<mgrwt>
<rscale>  0 0.90591935E+03</rscale>
<asrwt>0</asrwt>
<pdfrwt beam="1">  1        2 0.28337882E+00 0.97267638E+03</pdfrwt>
<pdfrwt beam="2">  1       -2 0.16337988E+00 0.97267638E+03</pdfrwt>
<totfact> 0.19442832E+00</totfact>
</mgrwt>
</event>
<event>
 4    1  0.6502538E-008  0.8747664E+03  0.7818608E-02  0.9567818E-01
          2   -1    0    0  501    0  0.00000000000E+00  0.00000000000E+00  0.16094999373E+04  0.16094999373E+04  0.25500000000E-02 0. -1.
         -2   -1    0    0    0  501 -0.00000000000E+00 -0.00000000000E+00 -0.75091456944E+03  0.75091456945E+03  0.25500000000E-02 0.  1.
    8880023    1    1    2    0    0 -0.56899143183E+03 -0.87491765412E+02  0.13360990538E+04  0.15969899644E+04  0.65864270000E+03 0. -1.
    8880022    1    1    2    0    0  0.56899143183E+03  0.87491765412E+02 -0.47751368599E+03  0.76342454233E+03  0.15294330000E+03 0.  0.
<mgrwt>
<rscale>  0 0.79463314E+03</rscale>
<asrwt>0</asrwt>
<pdfrwt beam="1">  1        2 0.24761537E+00 0.87476641E+03</pdfrwt>
<pdfrwt beam="2">  1       -2 0.11552532E+00 0.87476641E+03</pdfrwt>
<totfact> 0.64868985E+00</totfact>
</mgrwt>
</event>
<event>
 4    1  0.6502538E-008  0.1003578E+04  0.7818608E-02  0.9376891E-01
         -2   -1    0    0    0  501 -0.00000000000E+00  0.00000000000E+00  0.15490906857E+04  0.15490906857E+04  0.25500000000E-02 0.  1.
          2   -1    0    0  501    0  0.00000000000E+00 -0.00000000000E+00 -0.80415739805E+03  0.80415739806E+03  0.25500000000E-02 0. -1.
    8880023    1    1    2    0    0  0.66823317569E+03  0.35612228699E+03 -0.30577286356E+03  0.10491262606E+04  0.65864270000E+03 0.  0.
    8880022    1    1    2    0    0 -0.66823317569E+03 -0.35612228699E+03  0.10507061512E+04  0.13041218232E+04  0.15294330000E+03 0.  0.
<mgrwt>
<rscale>  0 0.94002075E+03</rscale>
<asrwt>0</asrwt>
<pdfrwt beam="1">  1        2 0.12371652E+00 0.10035780E+04</pdfrwt>
<pdfrwt beam="2">  1       -2 0.23832164E+00 0.10035780E+04</pdfrwt>
<totfact> 0.25843825E+00</totfact>
</mgrwt>
</event>
<event>
 4    1  0.6502538E-008  0.1411045E+04  0.7818608E-02  0.8975148E-01
          2   -1    0    0  501    0  0.00000000000E+00  0.00000000000E+00  0.13886808052E+04  0.13886808052E+04  0.25500000000E-02 0. -1.
         -2   -1    0    0    0  501 -0.00000000000E+00 -0.00000000000E+00 -0.13194574195E+04  0.13194574195E+04  0.25500000000E-02 0.  1.
    8880023    1    1    2    0    0  0.12226632154E+04 -0.24966218006E+03  0.26512691270E+03  0.14357364064E+04  0.65864270000E+03 0.  0.
    8880022    1    1    2    0    0 -0.12226632154E+04  0.24966218006E+03 -0.19590352704E+03  0.12724018184E+04  0.15294330000E+03 0.  0.
<mgrwt>
<rscale>  0 0.13709110E+04</rscale>
<asrwt>0</asrwt>
<pdfrwt beam="1">  1        2 0.21364320E+00 0.14110446E+04</pdfrwt>
<pdfrwt beam="2">  1       -2 0.20299345E+00 0.14110446E+04</pdfrwt>
<totfact> 0.17751083E+00</totfact>
</mgrwt>
</event>
<event>
 4    1  0.6502538E-008  0.1197385E+04  0.7818608E-02  0.9159668E-01
         -2   -1    0    0    0  501 -0.00000000000E+00  0.00000000000E+00  0.10420585553E+04  0.10420585553E+04  0.25500000000E-02 0.  1.
          2   -1    0    0  501    0  0.00000000000E+00 -0.00000000000E+00 -0.25672139093E+04  0.25672139094E+04  0.25500000000E-02 0. -1.
    8880023    1    1    2    0    0 -0.13560280971E+03 -0.99072364983E+03 -0.21207077871E+04  0.24353917953E+04  0.65864270000E+03 0.  0.
    8880022    1    1    2    0    0  0.13560280971E+03  0.99072364983E+03  0.59555243305E+03  0.11738806693E+04  0.15294330000E+03 0.  0.
<mgrwt>
<rscale>  0 0.11479594E+04</rscale>
<asrwt>0</asrwt>
<pdfrwt beam="1">  1        2 0.39495598E+00 0.11973854E+04</pdfrwt>
<pdfrwt beam="2">  1       -2 0.16031670E+00 0.11973854E+04</pdfrwt>
<totfact> 0.77957651E-01</totfact>
</mgrwt>
</event>
<event>
 4    1  0.6502538E-008  0.8113839E+03  0.7818608E-02  0.9686701E-01
         -2   -1    0    0    0  501 -0.00000000000E+00  0.00000000000E+00  0.83115332970E+03  0.83115332971E+03  0.25500000000E-02 0.  1.
          2   -1    0    0  501    0  0.00000000000E+00 -0.00000000000E+00 -0.13703842800E+04  0.13703842800E+04  0.25500000000E-02 0. -1.
    8880023    1    1    2    0    0 -0.43096280467E+03  0.19698913611E+03 -0.11538280157E+04  0.14105541304E+04  0.65864270000E+03 0.  0.
    8880022    1    1    2    0    0  0.43096280467E+03 -0.19698913611E+03  0.61459706538E+03  0.79098347931E+03  0.15294330000E+03 0.  0.
<mgrwt>
<rscale>  0 0.71814130E+03</rscale>
<asrwt>0</asrwt>
<pdfrwt beam="1">  1        2 0.21082835E+00 0.81138392E+03</pdfrwt>
<pdfrwt beam="2">  1       -2 0.12786974E+00 0.81138392E+03</pdfrwt>
<totfact> 0.69141328E+00</totfact>
</mgrwt>
</event>
<event>
 4    1  0.6502538E-008  0.6974744E+03  0.7818608E-02  0.1000784E+00
         -2   -1    0    0    0  501 -0.00000000000E+00  0.00000000000E+00  0.15512012121E+04  0.15512012121E+04  0.25500000000E-02 0.  1.
          2   -1    0    0  501    0  0.00000000000E+00 -0.00000000000E+00 -0.23587661879E+03  0.23587661880E+03  0.25500000000E-02 0. -1.
    8880023    1    1    2    0    0  0.22945992592E+03 -0.29035756831E+01  0.34463498933E+03  0.77797414513E+03  0.65864270000E+03 0. -1.
    8880022    1    1    2    0    0 -0.22945992592E+03  0.29035756831E+01  0.97068960402E+03  0.10091036858E+04  0.15294330000E+03 0.  0.
<mgrwt>
<rscale>  0 0.55307621E+03</rscale>
<asrwt>0</asrwt>
<pdfrwt beam="1">  1        2 0.36288711E-01 0.69747437E+03</pdfrwt>
<pdfrwt beam="2">  1       -2 0.23864634E+00 0.69747437E+03</pdfrwt>
<totfact> 0.11167645E+01</totfact>
</mgrwt>
</event>
<event>
 4    1  0.6502538E-008  0.7125486E+03  0.7818608E-02  0.9948656E-01
          2   -1    0    0  501    0  0.00000000000E+00  0.00000000000E+00  0.32258533916E+04  0.32258533916E+04  0.25500000000E-02 0. -1.
         -2   -1    0    0    0  501 -0.00000000000E+00 -0.00000000000E+00 -0.87204458560E+03  0.87204458560E+03  0.25500000000E-02 0.  1.
    8880023    1    1    2    0    0 -0.22992919169E+03 -0.14507890930E+03  0.31569184234E+04  0.32363342630E+04  0.65864270000E+03 0. -1.
    8880022    1    1    2    0    0  0.22992919169E+03  0.14507890930E+03 -0.80310961742E+03  0.86156371426E+03  0.15294330000E+03 0.  0.
<mgrwt>
<rscale>  0 0.57960066E+03</rscale>
<asrwt>0</asrwt>
<pdfrwt beam="1">  1        2 0.49628515E+00 0.71254862E+03</pdfrwt>
<pdfrwt beam="2">  1       -2 0.13416070E+00 0.71254862E+03</pdfrwt>
<totfact> 0.54391461E-01</totfact>
</mgrwt>
</event>
<event>
 4    1  0.6502538E-008  0.7909300E+03  0.7818608E-02  0.9730762E-01
         -2   -1    0    0    0  501 -0.00000000000E+00  0.00000000000E+00  0.76319223336E+03  0.76319223336E+03  0.25500000000E-02 0.  1.
          2   -1    0    0  501    0  0.00000000000E+00 -0.00000000000E+00 -0.76480918243E+03  0.76480918244E+03  0.25500000000E-02 0. -1.
    8880023    1    1    2    0    0  0.43755439255E+03 -0.17499661983E+02 -0.42682838653E+03  0.89875066755E+03  0.65864270000E+03 0.  0.
    8880022    1    1    2    0    0 -0.43755439255E+03  0.17499661983E+02  0.42521143746E+03  0.62925074825E+03  0.15294330000E+03 0.  1.
<mgrwt>
<rscale>  0 0.69214431E+03</rscale>
<asrwt>0</asrwt>
<pdfrwt beam="1">  1        2 0.11766295E+00 0.79093002E+03</pdfrwt>
<pdfrwt beam="2">  1       -2 0.11741419E+00 0.79093002E+03</pdfrwt>
<totfact> 0.20699097E+01</totfact>
</mgrwt>
</event>
<event>
 4    1  0.6502538E-008  0.9347158E+03  0.7818608E-02  0.9472454E-01
         -2   -1    0    0    0  501 -0.00000000000E+00  0.00000000000E+00  0.39131104849E+03  0.39131104850E+03  0.25500000000E-02 0.  1.
          2   -1    0    0  501    0  0.00000000000E+00 -0.00000000000E+00 -0.18420621573E+04  0.18420621573E+04  0.25500000000E-02 0. -1.
    8880023    1    1    2    0    0  0.64313909041E+03  0.16203545976E+03 -0.11689284087E+04  0.14966920895E+04  0.65864270000E+03 0.  0.
    8880022    1    1    2    0    0 -0.64313909041E+03 -0.16203545976E+03 -0.28182270015E+03  0.73668111634E+03  0.15294330000E+03 0.  0.
<mgrwt>
<rscale>  0 0.86345467E+03</rscale>
<asrwt>0</asrwt>
<pdfrwt beam="1">  1        2 0.28339417E+00 0.93471578E+03</pdfrwt>
<pdfrwt beam="2">  1       -2 0.60201701E-01 0.93471578E+03</pdfrwt>
<totfact> 0.21203625E+01</totfact>
</mgrwt>
</event>
<event>
 4    1  0.6502538E-008  0.6820441E+03  0.7818608E-02  0.1008190E+00
         -2   -1    0    0    0  501 -0.00000000000E+00  0.00000000000E+00  0.28687135630E+03  0.28687135631E+03  0.25500000000E-02 0.  1.
          2   -1    0    0  501    0  0.00000000000E+00 -0.00000000000E+00 -0.12635915435E+04  0.12635915435E+04  0.25500000000E-02 0. -1.
    8880023    1    1    2    0    0 -0.16586110731E+03  0.62161173828E+02 -0.10936186843E+04  0.12888700289E+04  0.65864270000E+03 0.  0.
    8880022    1    1    2    0    0  0.16586110731E+03 -0.62161173828E+02  0.11689849714E+03  0.26159287088E+03  0.15294330000E+03 0.  1.
<mgrwt>
<rscale>  0 0.52200274E+03</rscale>
<asrwt>0</asrwt>
<pdfrwt beam="1">  1        2 0.19439870E+00 0.68204408E+03</pdfrwt>
<pdfrwt beam="2">  1       -2 0.44134056E-01 0.68204408E+03</pdfrwt>
<totfact> 0.86459103E+01</totfact>
</mgrwt>
</event>
<event>
 4    1  0.6502538E-008  0.7749003E+03  0.7818608E-02  0.9767955E-01
          2   -1    0    0  501    0  0.00000000000E+00  0.00000000000E+00  0.29598173049E+04  0.29598173049E+04  0.25500000000E-02 0. -1.
         -2   -1    0    0    0  501 -0.00000000000E+00 -0.00000000000E+00 -0.19931395481E+03  0.19931395483E+03  0.25500000000E-02 0.  1.
    8880023    1    1    2    0    0  0.34759953066E+03  0.21409089045E+03  0.25683680584E+04  0.26827197082E+04  0.65864270000E+03 0.  0.
    8880022    1    1    2    0    0 -0.34759953066E+03 -0.21409089045E+03  0.19213529165E+03  0.47641155150E+03  0.15294330000E+03 0.  0.
<mgrwt>
<rscale>  0 0.67110959E+03</rscale>
<asrwt>0</asrwt>
<pdfrwt beam="1">  1        2 0.45535646E+00 0.77490035E+03</pdfrwt>
<pdfrwt beam="2">  1       -2 0.30663689E-01 0.77490035E+03</pdfrwt>
<totfact> 0.19135513E+01</totfact>
</mgrwt>
</event>
<event>
 4    1  0.6502538E-008  0.1313863E+04  0.7818608E-02  0.9053680E-01
         -2   -1    0    0    0  501 -0.00000000000E+00  0.00000000000E+00  0.43484201766E+03  0.43484201766E+03  0.25500000000E-02 0.  1.
          2   -1    0    0  501    0  0.00000000000E+00 -0.00000000000E+00 -0.38756241768E+04  0.38756241768E+04  0.25500000000E-02 0. -1.
    8880023    1    1    2    0    0  0.10220037914E+04  0.49792971108E+03 -0.11396046839E+04  0.17392339661E+04  0.65864270000E+03 0.  0.
    8880022    1    1    2    0    0 -0.10220037914E+04 -0.49792971108E+03 -0.23011774752E+04  0.25712322284E+04  0.15294330000E+03 0.  0.
<mgrwt>
<rscale>  0 0.12700242E+04</rscale>
<asrwt>0</asrwt>
<pdfrwt beam="1">  1        2 0.59624985E+00 0.13138630E+04</pdfrwt>
<pdfrwt beam="2">  1       -2 0.66898775E-01 0.13138630E+04</pdfrwt>
<totfact> 0.87998519E-01</totfact>
</mgrwt>
</event>
<event>
 4    1  0.6502538E-008  0.1197246E+04  0.7818608E-02  0.9159804E-01
         -2   -1    0    0    0  501 -0.00000000000E+00  0.00000000000E+00  0.13749257318E+04  0.13749257318E+04  0.25500000000E-02 0.  1.
          2   -1    0    0  501    0  0.00000000000E+00 -0.00000000000E+00 -0.36526729399E+04  0.36526729399E+04  0.25500000000E-02 0. -1.
    8880023    1    1    2    0    0  0.75654762404E+03  0.65362403680E+03 -0.33476480667E+04  0.35552983663E+04  0.65864270000E+03 0.  0.
    8880022    1    1    2    0    0 -0.75654762404E+03 -0.65362403680E+03  0.10699008586E+04  0.14723003053E+04  0.15294330000E+03 0.  0.
<mgrwt>
<rscale>  0 0.11478128E+04</rscale>
<asrwt>0</asrwt>
<pdfrwt beam="1">  1        2 0.56194968E+00 0.11972464E+04</pdfrwt>
<pdfrwt beam="2">  1       -2 0.21152704E+00 0.11972464E+04</pdfrwt>
<totfact> 0.70573702E-02</totfact>
</mgrwt>
</event>
<event>
 4    1  0.6502538E-008  0.7190373E+03  0.7818608E-02  0.9925857E-01
         -2   -1    0    0    0  501 -0.00000000000E+00  0.00000000000E+00  0.67197527655E+03  0.67197527655E+03  0.25500000000E-02 0.  1.
          2   -1    0    0  501    0  0.00000000000E+00 -0.00000000000E+00 -0.15062919364E+04  0.15062919364E+04  0.25500000000E-02 0. -1.
    8880023    1    1    2    0    0 -0.26255179769E+03  0.11946103649E+03 -0.13721272939E+04  0.15491119723E+04  0.65864270000E+03 0. -1.
    8880022    1    1    2    0    0  0.26255179769E+03 -0.11946103649E+03  0.53781063407E+03  0.62915524066E+03  0.15294330000E+03 0.  0.
<mgrwt>
<rscale>  0 0.59024346E+03</rscale>
<asrwt>0</asrwt>
<pdfrwt beam="1">  1        2 0.23173722E+00 0.71903727E+03</pdfrwt>
<pdfrwt beam="2">  1       -2 0.10338081E+00 0.71903727E+03</pdfrwt>
<totfact> 0.98871277E+00</totfact>
</mgrwt>
</event>
<event>
 4    1  0.6502538E-008  0.6659136E+03  0.7818608E-02  0.1018779E+00
         -2   -1    0    0    0  501 -0.00000000000E+00  0.00000000000E+00  0.27206274274E+03  0.27206274275E+03  0.25500000000E-02 0.  1.
          2   -1    0    0  501    0  0.00000000000E+00 -0.00000000000E+00 -0.88522607511E+03  0.88522607511E+03  0.25500000000E-02 0. -1.
    8880023    1    1    2    0    0  0.96350744137E+02  0.18634005594E+02 -0.69095796340E+03  0.95961648877E+03  0.65864270000E+03 0. -1.
    8880022    1    1    2    0    0 -0.96350744137E+02 -0.18634005594E+02  0.77794631029E+02  0.19767232910E+03  0.15294330000E+03 0.  0.
<mgrwt>
<rscale>  0 0.48129837E+03</rscale>
<asrwt>0</asrwt>
<pdfrwt beam="1">  1        2 0.13618863E+00 0.66591358E+03</pdfrwt>
<pdfrwt beam="2">  1       -2 0.41855807E-01 0.66591358E+03</pdfrwt>
<totfact> 0.16492546E+02</totfact>
</mgrwt>
</event>
<event>
 4    1  0.6502538E-008  0.7717884E+03  0.7818608E-02  0.9775492E-01
         -2   -1    0    0    0  501 -0.00000000000E+00  0.00000000000E+00  0.54568133579E+03  0.54568133580E+03  0.25500000000E-02 0.  1.
          2   -1    0    0  501    0  0.00000000000E+00 -0.00000000000E+00 -0.12029865223E+04  0.12029865223E+04  0.25500000000E-02 0. -1.
    8880023    1    1    2    0    0 -0.61676796501E+02  0.39754627801E+03 -0.95312169906E+03  0.12264168337E+04  0.65864270000E+03 0.  0.
    8880022    1    1    2    0    0  0.61676796501E+02 -0.39754627801E+03  0.29581651257E+03  0.52225102442E+03  0.15294330000E+03 0.  0.
<mgrwt>
<rscale>  0 0.66694519E+03</rscale>
<asrwt>0</asrwt>
<pdfrwt beam="1">  1        2 0.18507485E+00 0.77178836E+03</pdfrwt>
<pdfrwt beam="2">  1       -2 0.83950975E-01 0.77178836E+03</pdfrwt>
<totfact> 0.23768294E+01</totfact>
</mgrwt>
</event>
<event>
 4    1  0.6502538E-008  0.7757221E+03  0.7818608E-02  0.9765984E-01
         -2   -1    0    0    0  501 -0.00000000000E+00  0.00000000000E+00  0.49184745831E+03  0.49184745832E+03  0.25500000000E-02 0.  1.
          2   -1    0    0  501    0  0.00000000000E+00 -0.00000000000E+00 -0.12904749550E+04  0.12904749550E+04  0.25500000000E-02 0. -1.
    8880023    1    1    2    0    0 -0.18698812221E+03 -0.36465043334E+03 -0.10284615299E+04  0.12882072120E+04  0.65864270000E+03 0.  0.
    8880022    1    1    2    0    0  0.18698812221E+03  0.36465043334E+03  0.22983403315E+03  0.49411520133E+03  0.15294330000E+03 0.  0.
<mgrwt>
<rscale>  0 0.67220447E+03</rscale>
<asrwt>0</asrwt>
<pdfrwt beam="1">  1        2 0.19853461E+00 0.77572205E+03</pdfrwt>
<pdfrwt beam="2">  1       -2 0.75668840E-01 0.77572205E+03</pdfrwt>
<totfact> 0.26669881E+01</totfact>
</mgrwt>
</event>
<event>
 4    1  0.6502538E-008  0.1225837E+04  0.7818608E-02  0.9132407E-01
          2   -1    0    0  501    0  0.00000000000E+00  0.00000000000E+00  0.15682106648E+04  0.15682106648E+04  0.25500000000E-02 0. -1.
         -2   -1    0    0    0  501 -0.00000000000E+00 -0.00000000000E+00 -0.87198972198E+03  0.87198972198E+03  0.25500000000E-02 0.  1.
    8880023    1    1    2    0    0  0.10264035206E+04 -0.12394293626E+03  0.83402951154E+02  0.12286709474E+04  0.65864270000E+03 0.  1.
    8880022    1    1    2    0    0 -0.10264035206E+04  0.12394293626E+03  0.61281799172E+03  0.12115294394E+04  0.15294330000E+03 0.  0.
<mgrwt>
<rscale>  0 0.11779183E+04</rscale>
<asrwt>0</asrwt>
<pdfrwt beam="1">  1        2 0.24126318E+00 0.12258370E+04</pdfrwt>
<pdfrwt beam="2">  1       -2 0.13415227E+00 0.12258370E+04</pdfrwt>
<totfact> 0.45235644E+00</totfact>
</mgrwt>
</event>
<event>
 4    1  0.6502538E-008  0.8071063E+03  0.7818608E-02  0.9695636E-01
         -2   -1    0    0    0  501 -0.00000000000E+00  0.00000000000E+00  0.40172987910E+03  0.40172987911E+03  0.25500000000E-02 0.  1.
          2   -1    0    0  501    0  0.00000000000E+00 -0.00000000000E+00 -0.20582952222E+04  0.20582952222E+04  0.25500000000E-02 0. -1.
    8880023    1    1    2    0    0  0.16465532293E+03 -0.43646190241E+03 -0.17794708125E+04  0.19539541823E+04  0.65864270000E+03 0. -1.
    8880022    1    1    2    0    0 -0.16465532293E+03  0.43646190241E+03  0.12290546944E+03  0.50607091900E+03  0.15294330000E+03 0.  0.
<mgrwt>
<rscale>  0 0.71277201E+03</rscale>
<asrwt>0</asrwt>
<pdfrwt beam="1">  1        2 0.31666080E+00 0.80710630E+03</pdfrwt>
<pdfrwt beam="2">  1       -2 0.61804598E-01 0.80710630E+03</pdfrwt>
<totfact> 0.15496749E+01</totfact>
</mgrwt>
</event>
<event>
 4    1  0.6502538E-008  0.7413507E+03  0.7818608E-02  0.9856030E-01
         -2   -1    0    0    0  501 -0.00000000000E+00  0.00000000000E+00  0.31890983277E+03  0.31890983278E+03  0.25500000000E-02 0.  1.
          2   -1    0    0  501    0  0.00000000000E+00 -0.00000000000E+00 -0.18297735402E+04  0.18297735402E+04  0.25500000000E-02 0. -1.
    8880023    1    1    2    0    0  0.27659854423E+03  0.19820150058E+03 -0.16014937324E+04  0.17647614487E+04  0.65864270000E+03 0. -1.
    8880022    1    1    2    0    0 -0.27659854423E+03 -0.19820150058E+03  0.90630025005E+02  0.38392192429E+03  0.15294330000E+03 0.  0.
<mgrwt>
<rscale>  0 0.62440409E+03</rscale>
<asrwt>0</asrwt>
<pdfrwt beam="1">  1        2 0.28150361E+00 0.74135066E+03</pdfrwt>
<pdfrwt beam="2">  1       -2 0.49063052E-01 0.74135066E+03</pdfrwt>
<totfact> 0.33645912E+01</totfact>
</mgrwt>
</event>
<event>
 4    1  0.6502538E-008  0.7622852E+03  0.7818608E-02  0.9799227E-01
         -2   -1    0    0    0  501 -0.00000000000E+00  0.00000000000E+00  0.43316791934E+03  0.43316791935E+03  0.25500000000E-02 0.  1.
          2   -1    0    0  501    0  0.00000000000E+00 -0.00000000000E+00 -0.14638049196E+04  0.14638049196E+04  0.25500000000E-02 0. -1.
    8880023    1    1    2    0    0 -0.36415668322E+03  0.12107184934E+03 -0.12231244831E+04  0.14412189945E+04  0.65864270000E+03 0. -1.
    8880022    1    1    2    0    0  0.36415668322E+03 -0.12107184934E+03  0.19248748288E+03  0.45575384444E+03  0.15294330000E+03 0.  0.
<mgrwt>
<rscale>  0 0.65404046E+03</rscale>
<asrwt>0</asrwt>
<pdfrwt beam="1">  1        2 0.22520075E+00 0.76228518E+03</pdfrwt>
<pdfrwt beam="2">  1       -2 0.66641219E-01 0.76228518E+03</pdfrwt>
<totfact> 0.28118647E+01</totfact>
</mgrwt>
</event>
<event>
 4    1  0.6502538E-008  0.1118779E+04  0.7818608E-02  0.9240430E-01
         -2   -1    0    0    0  501 -0.00000000000E+00  0.00000000000E+00  0.83136150538E+03  0.83136150539E+03  0.25500000000E-02 0.  1.
          2   -1    0    0  501    0  0.00000000000E+00 -0.00000000000E+00 -0.18243401947E+04  0.18243401947E+04  0.25500000000E-02 0. -1.
    8880023    1    1    2    0    0 -0.90159207815E+03  0.70629466142E+02 -0.12748740422E+04  0.16961635613E+04  0.65864270000E+03 0.  0.
    8880022    1    1    2    0    0  0.90159207815E+03 -0.70629466142E+02  0.28189535286E+03  0.95953813882E+03  0.15294330000E+03 0.  0.
<mgrwt>
<rscale>  0 0.10645691E+04</rscale>
<asrwt>0</asrwt>
<pdfrwt beam="1">  1        2 0.28066772E+00 0.11187792E+04</pdfrwt>
<pdfrwt beam="2">  1       -2 0.12790177E+00 0.11187792E+04</pdfrwt>
<totfact> 0.37206831E+00</totfact>
</mgrwt>
</event>
<event>
 4    1  0.6502538E-008  0.8935385E+03  0.7818608E-02  0.9536485E-01
          2   -1    0    0  501    0  0.00000000000E+00  0.00000000000E+00  0.81088735582E+03  0.81088735582E+03  0.25500000000E-02 0. -1.
         -2   -1    0    0    0  501 -0.00000000000E+00 -0.00000000000E+00 -0.91847399491E+03  0.91847399491E+03  0.25500000000E-02 0.  1.
    8880023    1    1    2    0    0 -0.58563158142E+03  0.14709376523E+03  0.34666381908E+03  0.95842941036E+03  0.65864270000E+03 0. -1.
    8880022    1    1    2    0    0  0.58563158142E+03 -0.14709376523E+03 -0.45425045817E+03  0.77093194037E+03  0.15294330000E+03 0.  0.
<mgrwt>
<rscale>  0 0.81646561E+03</rscale>
<asrwt>0</asrwt>
<pdfrwt beam="1">  1        2 0.12475190E+00 0.89353854E+03</pdfrwt>
<pdfrwt beam="2">  1       -2 0.14130369E+00 0.89353854E+03</pdfrwt>
<totfact> 0.11875628E+01</totfact>
</mgrwt>
</event>
<event>
 4    1  0.6502538E-008  0.1096070E+04  0.7818608E-02  0.9265445E-01
         -2   -1    0    0    0  501 -0.00000000000E+00  0.00000000000E+00  0.92072865583E+03  0.92072865584E+03  0.25500000000E-02 0.  1.
          2   -1    0    0  501    0  0.00000000000E+00 -0.00000000000E+00 -0.13064329850E+04  0.13064329850E+04  0.25500000000E-02 0. -1.
    8880023    1    1    2    0    0 -0.39888948082E+03 -0.78002907201E+03  0.26199931628E+03  0.11269480995E+04  0.65864270000E+03 0.  0.
    8880022    1    1    2    0    0  0.39888948082E+03  0.78002907201E+03 -0.64770364544E+03  0.11002135413E+04  0.15294330000E+03 0.  0.
<mgrwt>
<rscale>  0 0.10402727E+04</rscale>
<asrwt>0</asrwt>
<pdfrwt beam="1">  1        2 0.20098969E+00 0.10960695E+04</pdfrwt>
<pdfrwt beam="2">  1       -2 0.14165056E+00 0.10960695E+04</pdfrwt>
<totfact> 0.56090836E+00</totfact>
</mgrwt>
</event>
<event>
 4    1  0.6502538E-008  0.9390802E+03  0.7818608E-02  0.9466002E-01
          2   -1    0    0  501    0  0.00000000000E+00  0.00000000000E+00  0.25625372270E+04  0.25625372270E+04  0.25500000000E-02 0. -1.
         -2   -1    0    0    0  501 -0.00000000000E+00 -0.00000000000E+00 -0.69985208169E+03  0.69985208170E+03  0.25500000000E-02 0.  1.
    8880023    1    1    2    0    0  0.48547763306E+03  0.46083936113E+03  0.22751953864E+04  0.24613788213E+04  0.65864270000E+03 0. -1.
    8880022    1    1    2    0    0 -0.48547763306E+03 -0.46083936113E+03 -0.41251024113E+03  0.80101048745E+03  0.15294330000E+03 0.  0.
<mgrwt>
<rscale>  0 0.86837404E+03</rscale>
<asrwt>0</asrwt>
<pdfrwt beam="1">  1        2 0.39423649E+00 0.93908022E+03</pdfrwt>
<pdfrwt beam="2">  1       -2 0.10766955E+00 0.93908022E+03</pdfrwt>
<totfact> 0.22559766E+00</totfact>
</mgrwt>
</event>
<event>
 4    1  0.6502538E-008  0.7890479E+03  0.7818608E-02  0.9734997E-01
         -2   -1    0    0    0  501 -0.00000000000E+00  0.00000000000E+00  0.97793824342E+03  0.97793824342E+03  0.25500000000E-02 0.  1.
          2   -1    0    0  501    0  0.00000000000E+00 -0.00000000000E+00 -0.99402618564E+03  0.99402618565E+03  0.25500000000E-02 0. -1.
    8880023    1    1    2    0    0 -0.43432998610E+03 -0.11992543203E+02 -0.76094120478E+03  0.10961879772E+04  0.65864270000E+03 0. -1.
    8880022    1    1    2    0    0  0.43432998610E+03  0.11992543203E+02  0.74485326256E+03  0.87577645189E+03  0.15294330000E+03 0.  0.
<mgrwt>
<rscale>  0 0.68970769E+03</rscale>
<asrwt>0</asrwt>
<pdfrwt beam="1">  1        2 0.15292711E+00 0.78904788E+03</pdfrwt>
<pdfrwt beam="2">  1       -2 0.15045204E+00 0.78904788E+03</pdfrwt>
<totfact> 0.76559767E+00</totfact>
</mgrwt>
</event>
<event>
 4    1  0.6502538E-008  0.7562782E+03  0.7818608E-02  0.9814840E-01
         -2   -1    0    0    0  501 -0.00000000000E+00  0.00000000000E+00  0.18074961810E+04  0.18074961810E+04  0.25500000000E-02 0.  1.
          2   -1    0    0  501    0  0.00000000000E+00 -0.00000000000E+00 -0.39904121400E+03  0.39904121401E+03  0.25500000000E-02 0. -1.
    8880023    1    1    2    0    0  0.13684344596E+03 -0.34557261760E+03  0.15159304531E+02  0.75643015111E+03  0.65864270000E+03 0. -1.
    8880022    1    1    2    0    0 -0.13684344596E+03  0.34557261760E+03  0.13932956624E+04  0.14501072439E+04  0.15294330000E+03 0.  0.
<mgrwt>
<rscale>  0 0.64572204E+03</rscale>
<asrwt>0</asrwt>
<pdfrwt beam="1">  1        2 0.61390955E-01 0.75627824E+03</pdfrwt>
<pdfrwt beam="2">  1       -2 0.27807634E+00 0.75627824E+03</pdfrwt>
<totfact> 0.35678396E+00</totfact>
</mgrwt>
</event>
<event>
 4    1  0.6502538E-008  0.1205052E+04  0.7818608E-02  0.9152227E-01
          2   -1    0    0  501    0  0.00000000000E+00  0.00000000000E+00  0.65377488762E+03  0.65377488763E+03  0.25500000000E-02 0. -1.
         -2   -1    0    0    0  501 -0.00000000000E+00 -0.00000000000E+00 -0.19915257387E+04  0.19915257387E+04  0.25500000000E-02 0.  1.
    8880023    1    1    2    0    0  0.99034332435E+03 -0.19380381256E+03 -0.43028626841E+03  0.12795687933E+04  0.65864270000E+03 0.  0.
    8880022    1    1    2    0    0 -0.99034332435E+03  0.19380381256E+03 -0.90746458270E+03  0.13657318330E+04  0.15294330000E+03 0.  0.
<mgrwt>
<rscale>  0 0.11560424E+04</rscale>
<asrwt>0</asrwt>
<pdfrwt beam="1">  1        2 0.10058075E+00 0.12050519E+04</pdfrwt>
<pdfrwt beam="2">  1       -2 0.30638857E+00 0.12050519E+04</pdfrwt>
<totfact> 0.12745103E+00</totfact>
</mgrwt>
</event>
<event>
 4    1  0.6502538E-008  0.1467487E+04  0.7818608E-02  0.8932942E-01
         -2   -1    0    0    0  501 -0.00000000000E+00  0.00000000000E+00  0.25597873287E+04  0.25597873287E+04  0.25500000000E-02 0.  1.
          2   -1    0    0  501    0  0.00000000000E+00 -0.00000000000E+00 -0.19194352533E+04  0.19194352533E+04  0.25500000000E-02 0. -1.
    8880023    1    1    2    0    0  0.12724321453E+04 -0.31721370474E+03 -0.14135651125E+04  0.20375683136E+04  0.65864270000E+03 0. -1.
    8880022    1    1    2    0    0 -0.12724321453E+04  0.31721370474E+03  0.20539171879E+04  0.24416542684E+04  0.15294330000E+03 0.  0.
<mgrwt>
<rscale>  0 0.14292098E+04</rscale>
<asrwt>0</asrwt>
<pdfrwt beam="1">  1        2 0.29529773E+00 0.14674871E+04</pdfrwt>
<pdfrwt beam="2">  1       -2 0.39381343E+00 0.14674871E+04</pdfrwt>
<totfact> 0.56977681E-02</totfact>
</mgrwt>
</event>
<event>
 4    1  0.6502538E-008  0.9972144E+03  0.7818608E-02  0.9385211E-01
         -2   -1    0    0    0  501 -0.00000000000E+00  0.00000000000E+00  0.94437864001E+03  0.94437864001E+03  0.25500000000E-02 0.  1.
          2   -1    0    0  501    0  0.00000000000E+00 -0.00000000000E+00 -0.23128995114E+04  0.23128995114E+04  0.25500000000E-02 0. -1.
    8880023    1    1    2    0    0  0.38771120725E+03 -0.64055164431E+03 -0.20202107267E+04  0.22529287552E+04  0.65864270000E+03 0.  0.
    8880022    1    1    2    0    0 -0.38771120725E+03  0.64055164431E+03  0.65168985530E+03  0.10043493963E+04  0.15294330000E+03 0.  0.
<mgrwt>
<rscale>  0 0.93302804E+03</rscale>
<asrwt>0</asrwt>
<pdfrwt beam="1">  1        2 0.35583069E+00 0.99721442E+03</pdfrwt>
<pdfrwt beam="2">  1       -2 0.14528902E+00 0.99721442E+03</pdfrwt>
<totfact> 0.14574020E+00</totfact>
</mgrwt>
</event>
<event>
 4    1  0.6502538E-008  0.1152759E+04  0.7818608E-02  0.9204471E-01
         -2   -1    0    0    0  501 -0.00000000000E+00  0.00000000000E+00  0.68382898123E+03  0.68382898124E+03  0.25500000000E-02 0.  1.
          2   -1    0    0  501    0  0.00000000000E+00 -0.00000000000E+00 -0.16732906192E+04  0.16732906192E+04  0.25500000000E-02 0. -1.
    8880023    1    1    2    0    0  0.50807149102E+03 -0.79806368473E+03 -0.72929529025E+03  0.13640836160E+04  0.65864270000E+03 0.  1.
    8880022    1    1    2    0    0 -0.50807149102E+03  0.79806368473E+03 -0.26016634774E+03  0.99303598443E+03  0.15294330000E+03 0.  0.
<mgrwt>
<rscale>  0 0.11007401E+04</rscale>
<asrwt>0</asrwt>
<pdfrwt beam="1">  1        2 0.25742933E+00 0.11527586E+04</pdfrwt>
<pdfrwt beam="2">  1       -2 0.10520446E+00 0.11527586E+04</pdfrwt>
<totfact> 0.72859832E+00</totfact>
</mgrwt>
</event>
<event>
 4    1  0.6502538E-008  0.8526953E+03  0.7818608E-02  0.9606691E-01
         -2   -1    0    0    0  501 -0.00000000000E+00  0.00000000000E+00  0.62093659833E+03  0.62093659834E+03  0.25500000000E-02 0.  1.
          2   -1    0    0  501    0  0.00000000000E+00 -0.00000000000E+00 -0.14327797666E+04  0.14327797666E+04  0.25500000000E-02 0. -1.
    8880023    1    1    2    0    0 -0.53659998027E+03 -0.73072458859E+02 -0.11235020980E+04  0.14104418788E+04  0.65864270000E+03 0.  0.
    8880022    1    1    2    0    0  0.53659998027E+03  0.73072458859E+02  0.31165892969E+03  0.64327448616E+03  0.15294330000E+03 0.  0.
<mgrwt>
<rscale>  0 0.76854874E+03</rscale>
<asrwt>0</asrwt>
<pdfrwt beam="1">  1        2 0.22042766E+00 0.85269533E+03</pdfrwt>
<pdfrwt beam="2">  1       -2 0.95528708E-01 0.85269533E+03</pdfrwt>
<totfact> 0.12886623E+01</totfact>
</mgrwt>
</event>
<event>
 4    1  0.6502538E-008  0.8904588E+03  0.7818608E-02  0.9541525E-01
         -2   -1    0    0    0  501 -0.00000000000E+00  0.00000000000E+00  0.10679490455E+04  0.10679490455E+04  0.25500000000E-02 0.  1.
          2   -1    0    0  501    0  0.00000000000E+00 -0.00000000000E+00 -0.25936305279E+04  0.25936305279E+04  0.25500000000E-02 0. -1.
    8880023    1    1    2    0    0  0.19721406116E+03 -0.56587392357E+03 -0.24175090730E+04  0.25762893874E+04  0.65864270000E+03 0. -1.
    8880022    1    1    2    0    0 -0.19721406116E+03  0.56587392357E+03  0.89182759064E+03  0.10852901860E+04  0.15294330000E+03 0.  0.
<mgrwt>
<rscale>  0 0.81290364E+03</rscale>
<asrwt>0</asrwt>
<pdfrwt beam="1">  1        2 0.39902008E+00 0.89045881E+03</pdfrwt>
<pdfrwt beam="2">  1       -2 0.16429985E+00 0.89045881E+03</pdfrwt>
<totfact> 0.73837489E-01</totfact>
</mgrwt>
</event>
<event>
 4    1  0.6502538E-008  0.9478011E+03  0.7818608E-02  0.9453285E-01
         -2   -1    0    0    0  501 -0.00000000000E+00  0.00000000000E+00  0.15960395834E+04  0.15960395834E+04  0.25500000000E-02 0.  1.
          2   -1    0    0  501    0  0.00000000000E+00 -0.00000000000E+00 -0.99879410971E+03  0.99879410972E+03  0.25500000000E-02 0. -1.
    8880023    1    1    2    0    0 -0.67916646256E+03  0.57004984448E+02 -0.66112184696E+03  0.11555989594E+04  0.65864270000E+03 0.  0.
    8880022    1    1    2    0    0  0.67916646256E+03 -0.57004984448E+02  0.12583673206E+04  0.14392347337E+04  0.15294330000E+03 0.  0.
<mgrwt>
<rscale>  0 0.87817318E+03</rscale>
<asrwt>0</asrwt>
<pdfrwt beam="1">  1        2 0.15366063E+00 0.94780106E+03</pdfrwt>
<pdfrwt beam="2">  1       -2 0.24554455E+00 0.94780106E+03</pdfrwt>
<totfact> 0.17325791E+00</totfact>
</mgrwt>
</event>
<event>
 4    1  0.6502538E-008  0.1365883E+04  0.7818608E-02  0.9010657E-01
          2   -1    0    0  501    0  0.00000000000E+00  0.00000000000E+00  0.13942017531E+04  0.13942017531E+04  0.25500000000E-02 0. -1.
         -2   -1    0    0    0  501 -0.00000000000E+00 -0.00000000000E+00 -0.14194652209E+04  0.14194652209E+04  0.25500000000E-02 0.  1.
    8880023    1    1    2    0    0  0.11961939709E+04  0.30746178826E+02  0.55587098141E+03  0.14746620283E+04  0.65864270000E+03 0.  0.
    8880022    1    1    2    0    0 -0.11961939709E+04 -0.30746178826E+02 -0.58113444918E+03  0.13390049457E+04  0.15294330000E+03 0.  0.
<mgrwt>
<rscale>  0 0.13241160E+04</rscale>
<asrwt>0</asrwt>
<pdfrwt beam="1">  1        2 0.21449258E+00 0.13658827E+04</pdfrwt>
<pdfrwt beam="2">  1       -2 0.21837927E+00 0.13658827E+04</pdfrwt>
<totfact> 0.14079662E+00</totfact>
</mgrwt>
</event>
<event>
 4    1  0.6502538E-008  0.1114457E+04  0.7818608E-02  0.9245128E-01
          2   -1    0    0  501    0  0.00000000000E+00  0.00000000000E+00  0.45720220460E+04  0.45720220460E+04  0.25500000000E-02 0. -1.
         -2   -1    0    0    0  501 -0.00000000000E+00 -0.00000000000E+00 -0.30966774112E+03  0.30966774113E+03  0.25500000000E-02 0.  1.
    8880023    1    1    2    0    0 -0.81047176704E+03 -0.38902389591E+03  0.10104252341E+04  0.15043182631E+04  0.65864270000E+03 0.  0.
    8880022    1    1    2    0    0  0.81047176704E+03  0.38902389591E+03  0.32519290708E+04  0.33773715241E+04  0.15294330000E+03 0.  0.
<mgrwt>
<rscale>  0 0.10599527E+04</rscale>
<asrwt>0</asrwt>
<pdfrwt beam="1">  1        2 0.70338796E+00 0.11144569E+04</pdfrwt>
<pdfrwt beam="2">  1       -2 0.47641194E-01 0.11144569E+04</pdfrwt>
<totfact> 0.46023023E-01</totfact>
</mgrwt>
</event>
<event>
 4    1  0.6502538E-008  0.1175189E+04  0.7818608E-02  0.9181626E-01
         -2   -1    0    0    0  501 -0.00000000000E+00  0.00000000000E+00  0.18848532877E+04  0.18848532877E+04  0.25500000000E-02 0.  1.
          2   -1    0    0  501    0  0.00000000000E+00 -0.00000000000E+00 -0.15107427087E+04  0.15107427087E+04  0.25500000000E-02 0. -1.
    8880023    1    1    2    0    0 -0.98603111014E+02 -0.96826406173E+03 -0.11084922389E+04  0.16154946972E+04  0.65864270000E+03 0.  0.
    8880022    1    1    2    0    0  0.98603111014E+02  0.96826406173E+03  0.14826028179E+04  0.17801012992E+04  0.15294330000E+03 0.  0.
<mgrwt>
<rscale>  0 0.11245104E+04</rscale>
<asrwt>0</asrwt>
<pdfrwt beam="1">  1        2 0.23242196E+00 0.11751885E+04</pdfrwt>
<pdfrwt beam="2">  1       -2 0.28997743E+00 0.11751885E+04</pdfrwt>
<totfact> 0.44809153E-01</totfact>
</mgrwt>
</event>
<event>
 4    1  0.6502538E-008  0.8846219E+03  0.7818608E-02  0.9551183E-01
         -2   -1    0    0    0  501 -0.00000000000E+00  0.00000000000E+00  0.11494547133E+04  0.11494547133E+04  0.25500000000E-02 0.  1.
          2   -1    0    0  501    0  0.00000000000E+00 -0.00000000000E+00 -0.99974416410E+03  0.99974416410E+03  0.25500000000E-02 0. -1.
    8880023    1    1    2    0    0 -0.58752064106E+03  0.59709533666E+02 -0.68253447136E+03  0.11173223541E+04  0.65864270000E+03 0. -1.
    8880022    1    1    2    0    0  0.58752064106E+03 -0.59709533666E+02  0.83224502054E+03  0.10318765233E+04  0.15294330000E+03 0.  0.
<mgrwt>
<rscale>  0 0.80613204E+03</rscale>
<asrwt>0</asrwt>
<pdfrwt beam="1">  1        2 0.15380679E+00 0.88462192E+03</pdfrwt>
<pdfrwt beam="2">  1       -2 0.17683919E+00 0.88462192E+03</pdfrwt>
<totfact> 0.48243110E+00</totfact>
</mgrwt>
</event>
<event>
 4    1  0.6502538E-008  0.1254106E+04  0.7818608E-02  0.9106241E-01
         -2   -1    0    0    0  501 -0.00000000000E+00  0.00000000000E+00  0.13640998164E+04  0.13640998164E+04  0.25500000000E-02 0.  1.
          2   -1    0    0  501    0  0.00000000000E+00 -0.00000000000E+00 -0.23006671382E+04  0.23006671382E+04  0.25500000000E-02 0. -1.
    8880023    1    1    2    0    0 -0.10395155145E+04 -0.24161963078E+03 -0.18613042203E+04  0.22443787910E+04  0.65864270000E+03 0.  0.
    8880022    1    1    2    0    0  0.10395155145E+04  0.24161963078E+03  0.92473689849E+03  0.14203881636E+04  0.15294330000E+03 0.  0.
<mgrwt>
<rscale>  0 0.12075874E+04</rscale>
<asrwt>0</asrwt>
<pdfrwt beam="1">  1        2 0.35394879E+00 0.12541064E+04</pdfrwt>
<pdfrwt beam="2">  1       -2 0.20986151E+00 0.12541064E+04</pdfrwt>
<totfact> 0.50239437E-01</totfact>
</mgrwt>
</event>
<event>
 4    1  0.6502538E-008  0.7396113E+03  0.7818608E-02  0.9861081E-01
         -2   -1    0    0    0  501 -0.00000000000E+00  0.00000000000E+00  0.28353943255E+03  0.28353943256E+03  0.25500000000E-02 0.  1.
          2   -1    0    0  501    0  0.00000000000E+00 -0.00000000000E+00 -0.10950251438E+04  0.10950251438E+04  0.25500000000E-02 0. -1.
    8880023    1    1    2    0    0 -0.28643416786E+03  0.17655045507E+03 -0.60259801390E+03  0.95401738366E+03  0.65864270000E+03 0.  0.
    8880022    1    1    2    0    0  0.28643416786E+03 -0.17655045507E+03 -0.20888769732E+03  0.42454719267E+03  0.15294330000E+03 0. -1.
<mgrwt>
<rscale>  0 0.62185116E+03</rscale>
<asrwt>0</asrwt>
<pdfrwt beam="1">  1        2 0.16846540E+00 0.73961125E+03</pdfrwt>
<pdfrwt beam="2">  1       -2 0.43621452E-01 0.73961125E+03</pdfrwt>
<totfact> 0.11093384E+02</totfact>
</mgrwt>
</event>
<event>
 4    1  0.6502538E-008  0.1131374E+04  0.7818608E-02  0.9226903E-01
         -2   -1    0    0    0  501 -0.00000000000E+00  0.00000000000E+00  0.49944225446E+03  0.49944225447E+03  0.25500000000E-02 0.  1.
          2   -1    0    0  501    0  0.00000000000E+00 -0.00000000000E+00 -0.31448963225E+04  0.31448963225E+04  0.25500000000E-02 0. -1.
    8880023    1    1    2    0    0  0.12453306810E+03  0.91142153453E+03 -0.24398833227E+04  0.26894308940E+04  0.65864270000E+03 0. -1.
    8880022    1    1    2    0    0 -0.12453306810E+03 -0.91142153453E+03 -0.20557074527E+03  0.95490768296E+03  0.15294330000E+03 0.  0.
<mgrwt>
<rscale>  0 0.10780006E+04</rscale>
<asrwt>0</asrwt>
<pdfrwt beam="1">  1        2 0.48383019E+00 0.11313743E+04</pdfrwt>
<pdfrwt beam="2">  1       -2 0.76837272E-01 0.11313743E+04</pdfrwt>
<totfact> 0.21428243E+00</totfact>
</mgrwt>
</event>
<event>
 4    1  0.6502538E-008  0.1216577E+04  0.7818608E-02  0.9141174E-01
          2   -1    0    0  501    0  0.00000000000E+00  0.00000000000E+00  0.20439667767E+04  0.20439667767E+04  0.25500000000E-02 0. -1.
         -2   -1    0    0    0  501 -0.00000000000E+00 -0.00000000000E+00 -0.78651812861E+03  0.78651812862E+03  0.25500000000E-02 0.  1.
    8880023    1    1    2    0    0 -0.93165649811E+03 -0.42221624432E+03  0.13190425530E+04  0.17944174125E+04  0.65864270000E+03 0.  0.
    8880022    1    1    2    0    0  0.93165649811E+03  0.42221624432E+03 -0.61593904961E+02  0.10360674928E+04  0.15294330000E+03 0.  0.
<mgrwt>
<rscale>  0 0.11681796E+04</rscale>
<asrwt>0</asrwt>
<pdfrwt beam="1">  1        2 0.31445642E+00 0.12165774E+04</pdfrwt>
<pdfrwt beam="2">  1       -2 0.12100279E+00 0.12165774E+04</pdfrwt>
<totfact> 0.32014786E+00</totfact>
</mgrwt>
</event>
<event>
 4    1  0.6502538E-008  0.7443375E+03  0.7818608E-02  0.9847488E-01
         -2   -1    0    0    0  501 -0.00000000000E+00  0.00000000000E+00  0.54206316185E+03  0.54206316186E+03  0.25500000000E-02 0.  1.
          2   -1    0    0  501    0  0.00000000000E+00 -0.00000000000E+00 -0.73499385048E+03  0.73499385049E+03  0.25500000000E-02 0. -1.
    8880023    1    1    2    0    0  0.34329947164E+03 -0.48719294465E+02 -0.40020525513E+03  0.84510505227E+03  0.65864270000E+03 0. -1.
    8880022    1    1    2    0    0 -0.34329947164E+03  0.48719294465E+02  0.20727456649E+03  0.43195196007E+03  0.15294330000E+03 0.  0.
<mgrwt>
<rscale>  0 0.62875173E+03</rscale>
<asrwt>0</asrwt>
<pdfrwt beam="1">  1        2 0.11307598E+00 0.74433749E+03</pdfrwt>
<pdfrwt beam="2">  1       -2 0.83394332E-01 0.74433749E+03</pdfrwt>
<totfact> 0.49098514E+01</totfact>
</mgrwt>
</event>
<event>
 4    1  0.6502538E-008  0.1257231E+04  0.7818608E-02  0.9103403E-01
         -2   -1    0    0    0  501 -0.00000000000E+00  0.00000000000E+00  0.55713880121E+03  0.55713880122E+03  0.25500000000E-02 0.  1.
          2   -1    0    0  501    0  0.00000000000E+00 -0.00000000000E+00 -0.25002306744E+04  0.25002306744E+04  0.25500000000E-02 0. -1.
    8880023    1    1    2    0    0 -0.49867539172E+03  0.94770387020E+03 -0.12483625765E+04  0.17717333605E+04  0.65864270000E+03 0. -1.
    8880022    1    1    2    0    0  0.49867539172E+03 -0.94770387020E+03 -0.69472929666E+03  0.12856361151E+04  0.15294330000E+03 0. -1.
<mgrwt>
<rscale>  0 0.12108612E+04</rscale>
<asrwt>0</asrwt>
<pdfrwt beam="1">  1        2 0.38465087E+00 0.12572311E+04</pdfrwt>
<pdfrwt beam="2">  1       -2 0.85713663E-01 0.12572311E+04</pdfrwt>
<totfact> 0.40287299E+00</totfact>
</mgrwt>
</event>
<event>
 4    1  0.6502538E-008  0.9133526E+03  0.7818608E-02  0.9504928E-01
         -2   -1    0    0    0  501 -0.00000000000E+00  0.00000000000E+00  0.13256699312E+04  0.13256699312E+04  0.25500000000E-02 0.  1.
          2   -1    0    0  501    0  0.00000000000E+00 -0.00000000000E+00 -0.17674790283E+04  0.17674790283E+04  0.25500000000E-02 0. -1.
    8880023    1    1    2    0    0  0.20962401479E+03  0.59704317639E+03 -0.15551064259E+04  0.18034880050E+04  0.65864270000E+03 0. -1.
    8880022    1    1    2    0    0 -0.20962401479E+03 -0.59704317639E+03  0.11132973288E+04  0.12896609544E+04  0.15294330000E+03 0.  0.
<mgrwt>
<rscale>  0 0.83921505E+03</rscale>
<asrwt>0</asrwt>
<pdfrwt beam="1">  1        2 0.27191985E+00 0.91335261E+03</pdfrwt>
<pdfrwt beam="2">  1       -2 0.20394922E+00 0.91335261E+03</pdfrwt>
<totfact> 0.11377401E+00</totfact>
</mgrwt>
</event>
<event>
 4    1  0.6502538E-008  0.1128150E+04  0.7818608E-02  0.9230343E-01
          2   -1    0    0  501    0  0.00000000000E+00  0.00000000000E+00  0.19559790847E+04  0.19559790847E+04  0.25500000000E-02 0. -1.
         -2   -1    0    0    0  501 -0.00000000000E+00 -0.00000000000E+00 -0.76012049017E+03  0.76012049017E+03  0.25500000000E-02 0.  1.
    8880023    1    1    2    0    0 -0.15308598177E+03 -0.90303767631E+03  0.13664271683E+04  0.17719609971E+04  0.65864270000E+03 0.  0.
    8880022    1    1    2    0    0  0.15308598177E+03  0.90303767631E+03 -0.17056857380E+03  0.94413857777E+03  0.15294330000E+03 0. -1.
<mgrwt>
<rscale>  0 0.10745650E+04</rscale>
<asrwt>0</asrwt>
<pdfrwt beam="1">  1        2 0.30091986E+00 0.11281501E+04</pdfrwt>
<pdfrwt beam="2">  1       -2 0.11694161E+00 0.11281501E+04</pdfrwt>
<totfact> 0.39362852E+00</totfact>
</mgrwt>
</event>
<event>
 4    1  0.6502538E-008  0.7517771E+03  0.7818608E-02  0.9826881E-01
         -2   -1    0    0    0  501 -0.00000000000E+00  0.00000000000E+00  0.52079229645E+03  0.52079229646E+03  0.25500000000E-02 0.  1.
          2   -1    0    0  501    0  0.00000000000E+00 -0.00000000000E+00 -0.22195457412E+04  0.22195457412E+04  0.25500000000E-02 0. -1.
    8880023    1    1    2    0    0  0.33828210052E+03 -0.13009144288E+03 -0.20682462905E+04  0.22006388816E+04  0.65864270000E+03 0. -1.
    8880022    1    1    2    0    0 -0.33828210052E+03  0.13009144288E+03  0.36949284568E+03  0.53969915607E+03  0.15294330000E+03 0.  0.
<mgrwt>
<rscale>  0 0.63939718E+03</rscale>
<asrwt>0</asrwt>
<pdfrwt beam="1">  1        2 0.34146857E+00 0.75177707E+03</pdfrwt>
<pdfrwt beam="2">  1       -2 0.80121893E-01 0.75177707E+03</pdfrwt>
<totfact> 0.72203620E+00</totfact>
</mgrwt>
</event>
<event>
 4    1  0.6502538E-008  0.7139521E+03  0.7818608E-02  0.9943608E-01
         -2   -1    0    0    0  501 -0.00000000000E+00  0.00000000000E+00  0.47730772401E+03  0.47730772402E+03  0.25500000000E-02 0.  1.
          2   -1    0    0  501    0  0.00000000000E+00 -0.00000000000E+00 -0.60435769020E+03  0.60435769020E+03  0.25500000000E-02 0. -1.
    8880023    1    1    2    0    0  0.21234777803E+03  0.17557300330E+03 -0.23009204644E+03  0.75011333438E+03  0.65864270000E+03 0. -1.
    8880022    1    1    2    0    0 -0.21234777803E+03 -0.17557300330E+03  0.10304208026E+03  0.33155207983E+03  0.15294330000E+03 0.  0.
<mgrwt>
<rscale>  0 0.58193632E+03</rscale>
<asrwt>0</asrwt>
<pdfrwt beam="1">  1        2 0.92978107E-01 0.71395214E+03</pdfrwt>
<pdfrwt beam="2">  1       -2 0.73431957E-01 0.71395214E+03</pdfrwt>
<totfact> 0.83418909E+01</totfact>
</mgrwt>
</event>
<event>
 4    1  0.6502538E-008  0.1356055E+04  0.7818608E-02  0.9018604E-01
         -2   -1    0    0    0  501 -0.00000000000E+00  0.00000000000E+00  0.12863814188E+04  0.12863814188E+04  0.25500000000E-02 0.  1.
          2   -1    0    0  501    0  0.00000000000E+00 -0.00000000000E+00 -0.31496491157E+04  0.31496491157E+04  0.25500000000E-02 0. -1.
    8880023    1    1    2    0    0  0.93399040326E+03 -0.72988751533E+03 -0.26696091701E+04  0.29942774063E+04  0.65864270000E+03 0.  0.
    8880022    1    1    2    0    0 -0.93399040326E+03  0.72988751533E+03  0.80634147324E+03  0.14417531283E+04  0.15294330000E+03 0.  0.
<mgrwt>
<rscale>  0 0.13139130E+04</rscale>
<asrwt>0</asrwt>
<pdfrwt beam="1">  1        2 0.48456140E+00 0.13560546E+04</pdfrwt>
<pdfrwt beam="2">  1       -2 0.19790483E+00 0.13560546E+04</pdfrwt>
<totfact> 0.18478104E-01</totfact>
</mgrwt>
</event>
<event>
 4    1  0.6502538E-008  0.1827802E+04  0.7818608E-02  0.8707311E-01
         -2   -1    0    0    0  501 -0.00000000000E+00  0.00000000000E+00  0.20827183279E+04  0.20827183280E+04  0.25500000000E-02 0.  1.
          2   -1    0    0  501    0  0.00000000000E+00 -0.00000000000E+00 -0.16593531062E+04  0.16593531062E+04  0.25500000000E-02 0. -1.
    8880023    1    1    2    0    0  0.16940460415E+04  0.19302182131E+03  0.79029033920E+03  0.19913358433E+04  0.65864270000E+03 0.  0.
    8880022    1    1    2    0    0 -0.16940460415E+04 -0.19302182131E+03 -0.36692511744E+03  0.17507355909E+04  0.15294330000E+03 0.  0.
<mgrwt>
<rscale>  0 0.17980984E+04</rscale>
<asrwt>0</asrwt>
<pdfrwt beam="1">  1        2 0.25528509E+00 0.18278019E+04</pdfrwt>
<pdfrwt beam="2">  1       -2 0.32041821E+00 0.18278019E+04</pdfrwt>
<totfact> 0.22344513E-01</totfact>
</mgrwt>
</event>
<event>
 4    1  0.6502538E-008  0.1092095E+04  0.7818608E-02  0.9269908E-01
         -2   -1    0    0    0  501 -0.00000000000E+00  0.00000000000E+00  0.48811501353E+03  0.48811501354E+03  0.25500000000E-02 0.  1.
          2   -1    0    0  501    0  0.00000000000E+00 -0.00000000000E+00 -0.20217781073E+04  0.20217781073E+04  0.25500000000E-02 0. -1.
    8880023    1    1    2    0    0 -0.33170627144E+03  0.80550183149E+03 -0.97329658424E+03  0.14628666030E+04  0.65864270000E+03 0. -1.
    8880022    1    1    2    0    0  0.33170627144E+03 -0.80550183149E+03 -0.56036650956E+03  0.10470265179E+04  0.15294330000E+03 0.  0.
<mgrwt>
<rscale>  0 0.10360099E+04</rscale>
<asrwt>0</asrwt>
<pdfrwt beam="1">  1        2 0.31104278E+00 0.10920954E+04</pdfrwt>
<pdfrwt beam="2">  1       -2 0.75094619E-01 0.10920954E+04</pdfrwt>
<totfact> 0.10273892E+01</totfact>
</mgrwt>
</event>
<event>
 4    1  0.6502538E-008  0.1270333E+04  0.7818608E-02  0.9091612E-01
          2   -1    0    0  501    0  0.00000000000E+00  0.00000000000E+00  0.40978782230E+04  0.40978782230E+04  0.25500000000E-02 0. -1.
         -2   -1    0    0    0  501 -0.00000000000E+00 -0.00000000000E+00 -0.65633729223E+03  0.65633729224E+03  0.25500000000E-02 0.  1.
    8880023    1    1    2    0    0  0.10574340781E+04 -0.24853290499E+03  0.34294703726E+04  0.36571864428E+04  0.65864270000E+03 0.  1.
    8880022    1    1    2    0    0 -0.10574340781E+04  0.24853290499E+03  0.12070558200E+02  0.10970290725E+04  0.15294330000E+03 0. -1.
<mgrwt>
<rscale>  0 0.12245771E+04</rscale>
<asrwt>0</asrwt>
<pdfrwt beam="1">  1        2 0.63044280E+00 0.12703329E+04</pdfrwt>
<pdfrwt beam="2">  1       -2 0.10097497E+00 0.12703329E+04</pdfrwt>
<totfact> 0.23041268E-01</totfact>
</mgrwt>
</event>
<event>
 4    1  0.6502538E-008  0.7848250E+03  0.7818608E-02  0.9744623E-01
          2   -1    0    0  501    0  0.00000000000E+00  0.00000000000E+00  0.66981793683E+03  0.66981793684E+03  0.25500000000E-02 0. -1.
         -2   -1    0    0    0  501 -0.00000000000E+00 -0.00000000000E+00 -0.10876232820E+04  0.10876232820E+04  0.25500000000E-02 0.  1.
    8880023    1    1    2    0    0 -0.36117112209E+03 -0.22736627212E+03  0.35507278366E+03  0.86140982644E+03  0.65864270000E+03 0.  0.
    8880022    1    1    2    0    0  0.36117112209E+03  0.22736627212E+03 -0.77287812883E+03  0.89603139241E+03  0.15294330000E+03 0.  0.
<mgrwt>
<rscale>  0 0.68421004E+03</rscale>
<asrwt>0</asrwt>
<pdfrwt beam="1">  1        2 0.10304891E+00 0.78482495E+03</pdfrwt>
<pdfrwt beam="2">  1       -2 0.16732666E+00 0.78482495E+03</pdfrwt>
<totfact> 0.97694644E+00</totfact>
</mgrwt>
</event>
<event>
 4    1  0.6502538E-008  0.6727898E+03  0.7818608E-02  0.1013737E+00
         -2   -1    0    0    0  501 -0.00000000000E+00  0.00000000000E+00  0.29336587842E+03  0.29336587843E+03  0.25500000000E-02 0.  1.
          2   -1    0    0  501    0  0.00000000000E+00 -0.00000000000E+00 -0.66052192740E+03  0.66052192741E+03  0.25500000000E-02 0. -1.
    8880023    1    1    2    0    0  0.10323597602E+03  0.90433500120E+02 -0.30877539804E+03  0.74026234362E+03  0.65864270000E+03 0.  0.
    8880022    1    1    2    0    0 -0.10323597602E+03 -0.90433500120E+02 -0.58380650946E+02  0.21362546222E+03  0.15294330000E+03 0.  1.
<mgrwt>
<rscale>  0 0.50016006E+03</rscale>
<asrwt>0</asrwt>
<pdfrwt beam="1">  1        2 0.10161876E+00 0.67278978E+03</pdfrwt>
<pdfrwt beam="2">  1       -2 0.45133212E-01 0.67278978E+03</pdfrwt>
<totfact> 0.20786577E+02</totfact>
</mgrwt>
</event>
<event>
 4    1  0.6502538E-008  0.1023589E+04  0.7818608E-02  0.9351326E-01
         -2   -1    0    0    0  501 -0.00000000000E+00  0.00000000000E+00  0.95865651648E+03  0.95865651648E+03  0.25500000000E-02 0.  1.
          2   -1    0    0  501    0  0.00000000000E+00 -0.00000000000E+00 -0.97071582791E+03  0.97071582791E+03  0.25500000000E-02 0. -1.
    8880023    1    1    2    0    0 -0.67084754349E+03 -0.40483059358E+03 -0.32193216152E+03  0.10730213227E+04  0.65864270000E+03 0. -1.
    8880022    1    1    2    0    0  0.67084754349E+03  0.40483059358E+03  0.30987285008E+03  0.85635102168E+03  0.15294330000E+03 0.  0.
<mgrwt>
<rscale>  0 0.96191911E+03</rscale>
<asrwt>0</asrwt>
<pdfrwt beam="1">  1        2 0.14934090E+00 0.10235890E+04</pdfrwt>
<pdfrwt beam="2">  1       -2 0.14748562E+00 0.10235890E+04</pdfrwt>
<totfact> 0.81565388E+00</totfact>
</mgrwt>
</event>
<event>
 4    1  0.6502538E-008  0.9758597E+03  0.7818608E-02  0.9413845E-01
          2   -1    0    0  501    0  0.00000000000E+00  0.00000000000E+00  0.11143312717E+04  0.11143312717E+04  0.25500000000E-02 0. -1.
         -2   -1    0    0    0  501 -0.00000000000E+00 -0.00000000000E+00 -0.70852432054E+03  0.70852432054E+03  0.25500000000E-02 0.  1.
    8880023    1    1    2    0    0 -0.43851221479E+03  0.57113825482E+03  0.47151240099E+03  0.10838016512E+04  0.65864270000E+03 0.  1.
    8880022    1    1    2    0    0  0.43851221479E+03 -0.57113825482E+03 -0.65705449805E+02  0.73905394105E+03  0.15294330000E+03 0. -1.
<mgrwt>
<rscale>  0 0.90944987E+03</rscale>
<asrwt>0</asrwt>
<pdfrwt beam="1">  1        2 0.17143558E+00 0.97585966E+03</pdfrwt>
<pdfrwt beam="2">  1       -2 0.10900374E+00 0.97585966E+03</pdfrwt>
<totfact> 0.14272723E+01</totfact>
</mgrwt>
</event>
<event>
 4    1  0.6502538E-008  0.6750160E+03  0.7818608E-02  0.1012296E+00
          2   -1    0    0  501    0  0.00000000000E+00  0.00000000000E+00  0.35444276537E+04  0.35444276537E+04  0.25500000000E-02 0. -1.
         -2   -1    0    0    0  501 -0.00000000000E+00 -0.00000000000E+00 -0.32145192927E+03  0.32145192928E+03  0.25500000000E-02 0.  1.
    8880023    1    1    2    0    0  0.13495792700E+03  0.60189452200E+02  0.34727999206E+04  0.35377939322E+04  0.65864270000E+03 0. -1.
    8880022    1    1    2    0    0 -0.13495792700E+03 -0.60189452200E+02 -0.24982419617E+03  0.32808565074E+03  0.15294330000E+03 0.  0.
<mgrwt>
<rscale>  0 0.50572166E+03</rscale>
<asrwt>0</asrwt>
<pdfrwt beam="1">  1        2 0.54529658E+00 0.67501601E+03</pdfrwt>
<pdfrwt beam="2">  1       -2 0.49454141E-01 0.67501601E+03</pdfrwt>
<totfact> 0.32395250E+00</totfact>
</mgrwt>
</event>
<event>
 4    1  0.6502538E-008  0.6640756E+03  0.7818608E-02  0.1020322E+00
         -2   -1    0    0    0  501 -0.00000000000E+00  0.00000000000E+00  0.63946534810E+03  0.63946534811E+03  0.25500000000E-02 0.  1.
          2   -1    0    0  501    0  0.00000000000E+00 -0.00000000000E+00 -0.33743088421E+03  0.33743088422E+03  0.25500000000E-02 0. -1.
    8880023    1    1    2    0    0  0.77600114917E+02 -0.34122932152E+02  0.44446346215E+02  0.66556129416E+03  0.65864270000E+03 0. -1.
    8880022    1    1    2    0    0 -0.77600114917E+02  0.34122932152E+02  0.25758811768E+03  0.31133493816E+03  0.15294330000E+03 0.  0.
<mgrwt>
<rscale>  0 0.47570631E+03</rscale>
<asrwt>0</asrwt>
<pdfrwt beam="1">  1        2 0.51912444E-01 0.66407557E+03</pdfrwt>
<pdfrwt beam="2">  1       -2 0.98379284E-01 0.66407557E+03</pdfrwt>
<totfact> 0.83876169E+01</totfact>
</mgrwt>
</event>
<event>
 4    1  0.6502538E-008  0.7815785E+03  0.7818608E-02  0.9752142E-01
         -2   -1    0    0    0  501 -0.00000000000E+00  0.00000000000E+00  0.57738021339E+03  0.57738021339E+03  0.25500000000E-02 0.  1.
          2   -1    0    0  501    0  0.00000000000E+00 -0.00000000000E+00 -0.83587377200E+03  0.83587377200E+03  0.25500000000E-02 0. -1.
    8880023    1    1    2    0    0  0.87811053067E+02 -0.41151420189E+03 -0.47640270462E+03  0.91532751659E+03  0.65864270000E+03 0.  1.
    8880022    1    1    2    0    0 -0.87811053067E+02  0.41151420189E+03  0.21790914601E+03  0.49792646880E+03  0.15294330000E+03 0.  0.
<mgrwt>
<rscale>  0 0.67995351E+03</rscale>
<asrwt>0</asrwt>
<pdfrwt beam="1">  1        2 0.12859597E+00 0.78157848E+03</pdfrwt>
<pdfrwt beam="2">  1       -2 0.88827725E-01 0.78157848E+03</pdfrwt>
<totfact> 0.35780106E+01</totfact>
</mgrwt>
</event>
<event>
 4    1  0.7276484E-008  0.9203484E+03  0.7818608E-02  0.9494125E-01
          2   -1    0    0  501    0  0.00000000000E+00  0.00000000000E+00  0.29319627889E+04  0.29319627889E+04  0.25500000000E-02 0. -1.
         -2   -1    0    0    0  501 -0.00000000000E+00 -0.00000000000E+00 -0.99793493570E+03  0.99793493570E+03  0.25500000000E-02 0.  1.
    8880023    1    1    2    0    0 -0.58442483185E+03 -0.26772848183E+03  0.27383975984E+04  0.28889206527E+04  0.65864270000E+03 0.  0.
    8880022    1    1    2    0    0  0.58442483185E+03  0.26772848183E+03 -0.80436974528E+03  0.10409770719E+04  0.15294330000E+03 0.  0.
<mgrwt>
<rscale>  0 0.84718345E+03</rscale>
<asrwt>0</asrwt>
<pdfrwt beam="1">  1        2 0.45107120E+00 0.92034837E+03</pdfrwt>
<pdfrwt beam="2">  1       -2 0.15352845E+00 0.92034837E+03</pdfrwt>
<totfact> 0.55677374E-01</totfact>
</mgrwt>
</event>
<event>
 4    1  0.6502538E-008  0.9254657E+03  0.7818608E-02  0.9486329E-01
         -2   -1    0    0    0  501 -0.00000000000E+00  0.00000000000E+00  0.18243393631E+04  0.18243393631E+04  0.25500000000E-02 0.  1.
          2   -1    0    0  501    0  0.00000000000E+00 -0.00000000000E+00 -0.12644622858E+04  0.12644622858E+04  0.25500000000E-02 0. -1.
    8880023    1    1    2    0    0  0.59259376042E+03 -0.26741218708E+03 -0.10177590209E+04  0.13756163250E+04  0.65864270000E+03 0. -1.
    8880022    1    1    2    0    0 -0.59259376042E+03  0.26741218708E+03  0.15776360982E+04  0.17131853239E+04  0.15294330000E+03 0.  0.
<mgrwt>
<rscale>  0 0.85299293E+03</rscale>
<asrwt>0</asrwt>
<pdfrwt beam="1">  1        2 0.19453266E+00 0.92546575E+03</pdfrwt>
<pdfrwt beam="2">  1       -2 0.28066759E+00 0.92546575E+03</pdfrwt>
<totfact> 0.73290229E-01</totfact>
</mgrwt>
</event>
<event>
 4    1  0.6502538E-008  0.7571385E+03  0.7818608E-02  0.9812573E-01
         -2   -1    0    0    0  501 -0.00000000000E+00  0.00000000000E+00  0.85117374393E+03  0.85117374393E+03  0.25500000000E-02 0.  1.
          2   -1    0    0  501    0  0.00000000000E+00 -0.00000000000E+00 -0.54472804746E+03  0.54472804747E+03  0.25500000000E-02 0. -1.
    8880023    1    1    2    0    0  0.11272518587E+03  0.35600769096E+03 -0.16543965921E+03  0.77500253590E+03  0.65864270000E+03 0.  0.
    8880022    1    1    2    0    0 -0.11272518587E+03 -0.35600769096E+03  0.47188535568E+03  0.62089925549E+03  0.15294330000E+03 0.  0.
<mgrwt>
<rscale>  0 0.64692160E+03</rscale>
<asrwt>0</asrwt>
<pdfrwt beam="1">  1        2 0.83804315E-01 0.75713846E+03</pdfrwt>
<pdfrwt beam="2">  1       -2 0.13094981E+00 0.75713846E+03</pdfrwt>
<totfact> 0.24033472E+01</totfact>
</mgrwt>
</event>
<event>
 4    1  0.6502538E-008  0.1023984E+04  0.7818608E-02  0.9350831E-01
          2   -1    0    0  501    0  0.00000000000E+00  0.00000000000E+00  0.14087012224E+04  0.14087012224E+04  0.25500000000E-02 0. -1.
         -2   -1    0    0    0  501 -0.00000000000E+00 -0.00000000000E+00 -0.11622820950E+04  0.11622820950E+04  0.25500000000E-02 0.  1.
    8880023    1    1    2    0    0 -0.73796556115E+03 -0.26483957120E+03  0.10297216000E+04  0.14521948725E+04  0.65864270000E+03 0.  0.
    8880022    1    1    2    0    0  0.73796556115E+03  0.26483957120E+03 -0.78330247258E+03  0.11187884449E+04  0.15294330000E+03 0.  0.
<mgrwt>
<rscale>  0 0.96235012E+03</rscale>
<asrwt>0</asrwt>
<pdfrwt beam="1">  1        2 0.21672326E+00 0.10239841E+04</pdfrwt>
<pdfrwt beam="2">  1       -2 0.17881263E+00 0.10239841E+04</pdfrwt>
<totfact> 0.26153849E+00</totfact>
</mgrwt>
</event>
<event>
 4    1  0.6502538E-008  0.1573396E+04  0.7818608E-02  0.8859475E-01
         -2   -1    0    0    0  501 -0.00000000000E+00  0.00000000000E+00  0.92790130481E+03  0.92790130481E+03  0.25500000000E-02 0.  1.
          2   -1    0    0  501    0  0.00000000000E+00 -0.00000000000E+00 -0.43859993490E+04  0.43859993490E+04  0.25500000000E-02 0. -1.
    8880023    1    1    2    0    0 -0.14278938212E+04  0.53698312339E+02 -0.35406119394E+04  0.38744686584E+04  0.65864270000E+03 0.  0.
    8880022    1    1    2    0    0  0.14278938212E+04 -0.53698312339E+02  0.82513895197E+02  0.14394319954E+04  0.15294330000E+03 0.  0.
<mgrwt>
<rscale>  0 0.15381462E+04</rscale>
<asrwt>0</asrwt>
<pdfrwt beam="1">  1        2 0.67476912E+00 0.15733958E+04</pdfrwt>
<pdfrwt beam="2">  1       -2 0.14275405E+00 0.15733958E+04</pdfrwt>
<totfact> 0.51810165E-02</totfact>
</mgrwt>
</event>
<event>
 4    1  0.6502538E-008  0.9187111E+03  0.7818608E-02  0.9496638E-01
         -2   -1    0    0    0  501 -0.00000000000E+00  0.00000000000E+00  0.40855300923E+03  0.40855300924E+03  0.25500000000E-02 0.  1.
          2   -1    0    0  501    0  0.00000000000E+00 -0.00000000000E+00 -0.24248140393E+04  0.24248140393E+04  0.25500000000E-02 0. -1.
    8880023    1    1    2    0    0 -0.59819047552E+03 -0.22888451392E+03 -0.19694755694E+04  0.21732151736E+04  0.65864270000E+03 0.  0.
    8880022    1    1    2    0    0  0.59819047552E+03  0.22888451392E+03 -0.46785460639E+02  0.66015187499E+03  0.15294330000E+03 0.  0.
<mgrwt>
<rscale>  0 0.84532138E+03</rscale>
<asrwt>0</asrwt>
<pdfrwt beam="1">  1        2 0.37304831E+00 0.91871115E+03</pdfrwt>
<pdfrwt beam="2">  1       -2 0.62854310E-01 0.91871115E+03</pdfrwt>
<totfact> 0.92130743E+00</totfact>
</mgrwt>
</event>
<event>
 4    1  0.6502538E-008  0.1146016E+04  0.7818608E-02  0.9211473E-01
          2   -1    0    0  501    0  0.00000000000E+00  0.00000000000E+00  0.30664629880E+04  0.30664629880E+04  0.25500000000E-02 0. -1.
         -2   -1    0    0    0  501 -0.00000000000E+00 -0.00000000000E+00 -0.76054489671E+03  0.76054489671E+03  0.25500000000E-02 0.  1.
    8880023    1    1    2    0    0  0.85580422270E+03 -0.38359182540E+03  0.25925002436E+04  0.28345037089E+04  0.65864270000E+03 0.  0.
    8880022    1    1    2    0    0 -0.85580422270E+03  0.38359182540E+03 -0.28658215230E+03  0.99250417588E+03  0.15294330000E+03 0.  0.
<mgrwt>
<rscale>  0 0.10935791E+04</rscale>
<asrwt>0</asrwt>
<pdfrwt beam="1">  1        2 0.47176353E+00 0.11460165E+04</pdfrwt>
<pdfrwt beam="2">  1       -2 0.11700691E+00 0.11460165E+04</pdfrwt>
<totfact> 0.89081508E-01</totfact>
</mgrwt>
</event>
<event>
 4    1  0.6502538E-008  0.8086001E+03  0.7818608E-02  0.9692500E-01
         -2   -1    0    0    0  501 -0.00000000000E+00  0.00000000000E+00  0.10557121251E+04  0.10557121251E+04  0.25500000000E-02 0.  1.
          2   -1    0    0  501    0  0.00000000000E+00 -0.00000000000E+00 -0.30096410506E+04  0.30096410506E+04  0.25500000000E-02 0. -1.
    8880023    1    1    2    0    0  0.17628409509E+03  0.43468131242E+03 -0.28933720471E+04  0.30042363313E+04  0.65864270000E+03 0.  0.
    8880022    1    1    2    0    0 -0.17628409509E+03 -0.43468131242E+03  0.93944312160E+03  0.10611168443E+04  0.15294330000E+03 0.  0.
<mgrwt>
<rscale>  0 0.71465081E+03</rscale>
<asrwt>0</asrwt>
<pdfrwt beam="1">  1        2 0.46302170E+00 0.80860011E+03</pdfrwt>
<pdfrwt beam="2">  1       -2 0.16241725E+00 0.80860011E+03</pdfrwt>
<totfact> 0.43869297E-01</totfact>
</mgrwt>
</event>
<event>
 4    1  0.6502538E-008  0.8801183E+03  0.7818608E-02  0.9558733E-01
          2   -1    0    0  501    0  0.00000000000E+00  0.00000000000E+00  0.16377232748E+04  0.16377232748E+04  0.25500000000E-02 0. -1.
         -2   -1    0    0    0  501 -0.00000000000E+00 -0.00000000000E+00 -0.65876660282E+03  0.65876660282E+03  0.25500000000E-02 0.  1.
    8880023    1    1    2    0    0  0.41078003816E+03 -0.41479852665E+03  0.13326123377E+04  0.15970171903E+04  0.65864270000E+03 0. -1.
    8880022    1    1    2    0    0 -0.41078003816E+03  0.41479852665E+03 -0.35365566565E+03  0.69947268733E+03  0.15294330000E+03 0.  0.
<mgrwt>
<rscale>  0 0.80088794E+03</rscale>
<asrwt>0</asrwt>
<pdfrwt beam="1">  1        2 0.25195742E+00 0.88011832E+03</pdfrwt>
<pdfrwt beam="2">  1       -2 0.10134871E+00 0.88011832E+03</pdfrwt>
<totfact> 0.85845260E+00</totfact>
</mgrwt>
</event>
<event>
 4    1  0.6502538E-008  0.8695268E+03  0.7818608E-02  0.9576837E-01
         -2   -1    0    0    0  501 -0.00000000000E+00  0.00000000000E+00  0.45635099403E+03  0.45635099404E+03  0.25500000000E-02 0.  1.
          2   -1    0    0  501    0  0.00000000000E+00 -0.00000000000E+00 -0.20319205859E+04  0.20319205859E+04  0.25500000000E-02 0. -1.
    8880023    1    1    2    0    0 -0.29901705296E+03  0.48255101591E+03 -0.16794875355E+04  0.18912311517E+04  0.65864270000E+03 0. -1.
    8880022    1    1    2    0    0  0.29901705296E+03 -0.48255101591E+03  0.10391794366E+03  0.59704042824E+03  0.15294330000E+03 0.  0.
<mgrwt>
<rscale>  0 0.78848442E+03</rscale>
<asrwt>0</asrwt>
<pdfrwt beam="1">  1        2 0.31260316E+00 0.86952682E+03</pdfrwt>
<pdfrwt beam="2">  1       -2 0.70207846E-01 0.86952682E+03</pdfrwt>
<totfact> 0.12068984E+01</totfact>
</mgrwt>
</event>
<event>
 4    1  0.6502538E-008  0.8647263E+03  0.7818608E-02  0.9585211E-01
         -2   -1    0    0    0  501 -0.00000000000E+00  0.00000000000E+00  0.11425439294E+04  0.11425439294E+04  0.25500000000E-02 0.  1.
          2   -1    0    0  501    0  0.00000000000E+00 -0.00000000000E+00 -0.50014040302E+03  0.50014040303E+03  0.25500000000E-02 0. -1.
    8880023    1    1    2    0    0  0.55018496757E+03  0.10600855774E+03  0.14253736445E+03  0.87639512743E+03  0.65864270000E+03 0. -1.
    8880022    1    1    2    0    0 -0.55018496757E+03 -0.10600855774E+03  0.49986616195E+03  0.76628920502E+03  0.15294330000E+03 0.  0.
<mgrwt>
<rscale>  0 0.78282797E+03</rscale>
<asrwt>0</asrwt>
<pdfrwt beam="1">  1        2 0.76944679E-01 0.86472627E+03</pdfrwt>
<pdfrwt beam="2">  1       -2 0.17577599E+00 0.86472627E+03</pdfrwt>
<totfact> 0.12007724E+01</totfact>
</mgrwt>
</event>
<event>
 4    1  0.6502538E-008  0.8531232E+03  0.7818608E-02  0.9605915E-01
          2   -1    0    0  501    0  0.00000000000E+00  0.00000000000E+00  0.11344374734E+04  0.11344374734E+04  0.25500000000E-02 0. -1.
         -2   -1    0    0    0  501 -0.00000000000E+00 -0.00000000000E+00 -0.15768214887E+04  0.15768214887E+04  0.25500000000E-02 0.  1.
    8880023    1    1    2    0    0  0.54194912092E+03 -0.17325648162E+02  0.90930631583E+03  0.12468589375E+04  0.65864270000E+03 0.  0.
    8880022    1    1    2    0    0 -0.54194912092E+03  0.17325648162E+02 -0.13516903311E+04  0.14644000246E+04  0.15294330000E+03 0.  0.
<mgrwt>
<rscale>  0 0.76905926E+03</rscale>
<asrwt>0</asrwt>
<pdfrwt beam="1">  1        2 0.17452884E+00 0.85312322E+03</pdfrwt>
<pdfrwt beam="2">  1       -2 0.24258792E+00 0.85312322E+03</pdfrwt>
<totfact> 0.15063521E+00</totfact>
</mgrwt>
</event>
<event>
 4    1  0.6502538E-008  0.7079366E+03  0.7818608E-02  0.9965744E-01
          2   -1    0    0  501    0  0.00000000000E+00  0.00000000000E+00  0.13543804810E+04  0.13543804810E+04  0.25500000000E-02 0. -1.
         -2   -1    0    0    0  501 -0.00000000000E+00 -0.00000000000E+00 -0.68959078269E+03  0.68959078270E+03  0.25500000000E-02 0.  1.
    8880023    1    1    2    0    0 -0.17450042652E+03  0.19212926491E+03  0.12210164710E+04  0.14114019562E+04  0.65864270000E+03 0. -1.
    8880022    1    1    2    0    0  0.17450042652E+03 -0.19212926491E+03 -0.55622677261E+03  0.63256930757E+03  0.15294330000E+03 0.  0.
<mgrwt>
<rscale>  0 0.57178140E+03</rscale>
<asrwt>0</asrwt>
<pdfrwt beam="1">  1        2 0.20836623E+00 0.70793662E+03</pdfrwt>
<pdfrwt beam="2">  1       -2 0.10609089E+00 0.70793662E+03</pdfrwt>
<totfact> 0.11328055E+01</totfact>
</mgrwt>
</event>
<event>
 4    1  0.6502538E-008  0.8808171E+03  0.7818608E-02  0.9557556E-01
         -2   -1    0    0    0  501 -0.00000000000E+00  0.00000000000E+00  0.10336575326E+04  0.10336575326E+04  0.25500000000E-02 0.  1.
          2   -1    0    0  501    0  0.00000000000E+00 -0.00000000000E+00 -0.78863470110E+03  0.78863470111E+03  0.25500000000E-02 0. -1.
    8880023    1    1    2    0    0  0.47526805789E+03  0.34080613536E+03 -0.37412669092E+03  0.95697938111E+03  0.65864270000E+03 0. -1.
    8880022    1    1    2    0    0 -0.47526805789E+03 -0.34080613536E+03  0.61914952239E+03  0.86531285258E+03  0.15294330000E+03 0.  0.
<mgrwt>
<rscale>  0 0.80170274E+03</rscale>
<asrwt>0</asrwt>
<pdfrwt beam="1">  1        2 0.12132842E+00 0.88081710E+03</pdfrwt>
<pdfrwt beam="2">  1       -2 0.15902424E+00 0.88081710E+03</pdfrwt>
<totfact> 0.90167291E+00</totfact>
</mgrwt>
</event>
<event>
 4    1  0.6502538E-008  0.1538532E+04  0.7818608E-02  0.8882896E-01
         -2   -1    0    0    0  501 -0.00000000000E+00  0.00000000000E+00  0.11171557504E+04  0.11171557504E+04  0.25500000000E-02 0.  1.
          2   -1    0    0  501    0  0.00000000000E+00 -0.00000000000E+00 -0.25553109650E+04  0.25553109650E+04  0.25500000000E-02 0. -1.
    8880023    1    1    2    0    0  0.90351568158E+03  0.10568490977E+04 -0.16519259893E+04  0.22574189426E+04  0.65864270000E+03 0.  0.
    8880022    1    1    2    0    0 -0.90351568158E+03 -0.10568490977E+04  0.21377077470E+03  0.14150477728E+04  0.15294330000E+03 0.  0.
<mgrwt>
<rscale>  0 0.15023440E+04</rscale>
<asrwt>0</asrwt>
<pdfrwt beam="1">  1        2 0.39312476E+00 0.15385320E+04</pdfrwt>
<pdfrwt beam="2">  1       -2 0.17187012E+00 0.15385320E+04</pdfrwt>
<totfact> 0.62708819E-01</totfact>
</mgrwt>
</event>
<event>
 4    1  0.6502538E-008  0.8784922E+03  0.7818608E-02  0.9561480E-01
          2   -1    0    0  501    0  0.00000000000E+00  0.00000000000E+00  0.16479955931E+04  0.16479955931E+04  0.25500000000E-02 0. -1.
         -2   -1    0    0    0  501 -0.00000000000E+00 -0.00000000000E+00 -0.13112317484E+04  0.13112317484E+04  0.25500000000E-02 0.  1.
    8880023    1    1    2    0    0  0.57741647577E+03  0.67294640716E+02  0.14492556230E+04  0.16947242909E+04  0.65864270000E+03 0.  0.
    8880022    1    1    2    0    0 -0.57741647577E+03 -0.67294640716E+02 -0.11124917783E+04  0.12645030506E+04  0.15294330000E+03 0.  0.
<mgrwt>
<rscale>  0 0.79899018E+03</rscale>
<asrwt>0</asrwt>
<pdfrwt beam="1">  1        2 0.25353778E+00 0.87849221E+03</pdfrwt>
<pdfrwt beam="2">  1       -2 0.20172796E+00 0.87849221E+03</pdfrwt>
<totfact> 0.13760015E+00</totfact>
</mgrwt>
</event>
<event>
 4    1  0.6502538E-008  0.1186964E+04  0.7818608E-02  0.9169899E-01
         -2   -1    0    0    0  501 -0.00000000000E+00  0.00000000000E+00  0.10734452365E+04  0.10734452365E+04  0.25500000000E-02 0.  1.
          2   -1    0    0  501    0  0.00000000000E+00 -0.00000000000E+00 -0.13884208263E+04  0.13884208263E+04  0.25500000000E-02 0. -1.
    8880023    1    1    2    0    0  0.69711587683E+03  0.69935917119E+03  0.37817876139E+03  0.12457540600E+04  0.65864270000E+03 0.  0.
    8880022    1    1    2    0    0 -0.69711587683E+03 -0.69935917119E+03 -0.69315435114E+03  0.12161120029E+04  0.15294330000E+03 0.  0.
<mgrwt>
<rscale>  0 0.11369591E+04</rscale>
<asrwt>0</asrwt>
<pdfrwt beam="1">  1        2 0.21360320E+00 0.11869642E+04</pdfrwt>
<pdfrwt beam="2">  1       -2 0.16514542E+00 0.11869642E+04</pdfrwt>
<totfact> 0.33001736E+00</totfact>
</mgrwt>
</event>
<event>
 4    1  0.6502538E-008  0.8802562E+03  0.7818608E-02  0.9558500E-01
         -2   -1    0    0    0  501 -0.00000000000E+00  0.00000000000E+00  0.39648909942E+03  0.39648909943E+03  0.25500000000E-02 0.  1.
          2   -1    0    0  501    0  0.00000000000E+00 -0.00000000000E+00 -0.15239964835E+04  0.15239964835E+04  0.25500000000E-02 0. -1.
    8880023    1    1    2    0    0  0.53502527445E+03 -0.23407005902E+03 -0.94125326737E+03  0.12887236928E+04  0.65864270000E+03 0.  0.
    8880022    1    1    2    0    0 -0.53502527445E+03  0.23407005902E+03 -0.18625411674E+03  0.63176189015E+03  0.15294330000E+03 0.  0.
<mgrwt>
<rscale>  0 0.80104879E+03</rscale>
<asrwt>0</asrwt>
<pdfrwt beam="1">  1        2 0.23446099E+00 0.88025624E+03</pdfrwt>
<pdfrwt beam="2">  1       -2 0.60998324E-01 0.88025624E+03</pdfrwt>
<totfact> 0.31066214E+01</totfact>
</mgrwt>
</event>
<event>
 4    1  0.6502538E-008  0.1246610E+04  0.7818608E-02  0.9113094E-01
         -2   -1    0    0    0  501 -0.00000000000E+00  0.00000000000E+00  0.17749210404E+04  0.17749210404E+04  0.25500000000E-02 0.  1.
          2   -1    0    0  501    0  0.00000000000E+00 -0.00000000000E+00 -0.10919398230E+04  0.10919398230E+04  0.25500000000E-02 0. -1.
    8880023    1    1    2    0    0  0.62126436233E+03  0.85688844256E+03 -0.43446750232E+03  0.13201512897E+04  0.65864270000E+03 0. -1.
    8880022    1    1    2    0    0 -0.62126436233E+03 -0.85688844256E+03  0.11174487197E+04  0.15467095736E+04  0.15294330000E+03 0.  0.
<mgrwt>
<rscale>  0 0.11997292E+04</rscale>
<asrwt>0</asrwt>
<pdfrwt beam="1">  1        2 0.16799074E+00 0.12466104E+04</pdfrwt>
<pdfrwt beam="2">  1       -2 0.27306477E+00 0.12466104E+04</pdfrwt>
<totfact> 0.99229862E-01</totfact>
</mgrwt>
</event>
<event>
 4    1  0.6502538E-008  0.1375987E+04  0.7818608E-02  0.9002570E-01
          2   -1    0    0  501    0  0.00000000000E+00  0.00000000000E+00  0.34755331773E+04  0.34755331773E+04  0.25500000000E-02 0. -1.
         -2   -1    0    0    0  501 -0.00000000000E+00 -0.00000000000E+00 -0.49345994880E+03  0.49345994880E+03  0.25500000000E-02 0.  1.
    8880023    1    1    2    0    0 -0.52264828261E+03  0.10892050530E+04  0.13047746432E+04  0.18962531347E+04  0.65864270000E+03 0.  0.
    8880022    1    1    2    0    0  0.52264828261E+03 -0.10892050530E+04  0.16772985853E+04  0.20727399915E+04  0.15294330000E+03 0.  0.
<mgrwt>
<rscale>  0 0.13345977E+04</rscale>
<asrwt>0</asrwt>
<pdfrwt beam="1">  1        2 0.53469743E+00 0.13759866E+04</pdfrwt>
<pdfrwt beam="2">  1       -2 0.75916913E-01 0.13759866E+04</pdfrwt>
<totfact> 0.12892860E+00</totfact>
</mgrwt>
</event>
<event>
 4    1  0.6502538E-008  0.1074331E+04  0.7818608E-02  0.9290188E-01
          2   -1    0    0  501    0  0.00000000000E+00  0.00000000000E+00  0.78701971071E+03  0.78701971071E+03  0.25500000000E-02 0. -1.
         -2   -1    0    0    0  501 -0.00000000000E+00 -0.00000000000E+00 -0.15409287438E+04  0.15409287438E+04  0.25500000000E-02 0.  1.
    8880023    1    1    2    0    0 -0.78798658623E+03  0.31536311949E+03  0.14284712494E+03  0.10837860788E+04  0.65864270000E+03 0.  0.
    8880022    1    1    2    0    0  0.78798658623E+03 -0.31536311949E+03 -0.89675615807E+03  0.12441623758E+04  0.15294330000E+03 0.  0.
<mgrwt>
<rscale>  0 0.10169118E+04</rscale>
<asrwt>0</asrwt>
<pdfrwt beam="1">  1        2 0.12107996E+00 0.10743309E+04</pdfrwt>
<pdfrwt beam="2">  1       -2 0.23706596E+00 0.10743309E+04</pdfrwt>
<totfact> 0.26871084E+00</totfact>
</mgrwt>
</event>
<event>
 4    1  0.6502538E-008  0.7970128E+03  0.7818608E-02  0.9717292E-01
          2   -1    0    0  501    0  0.00000000000E+00  0.00000000000E+00  0.15333988211E+04  0.15333988211E+04  0.25500000000E-02 0. -1.
         -2   -1    0    0    0  501 -0.00000000000E+00 -0.00000000000E+00 -0.44361396425E+03  0.44361396426E+03  0.25500000000E-02 0.  1.
    8880023    1    1    2    0    0 -0.16796494430E+03  0.41618150228E+03  0.12448705412E+04  0.14781515943E+04  0.65864270000E+03 0.  0.
    8880022    1    1    2    0    0  0.16796494430E+03 -0.41618150228E+03 -0.15508568435E+03  0.49886119098E+03  0.15294330000E+03 0.  0.
<mgrwt>
<rscale>  0 0.69996474E+03</rscale>
<asrwt>0</asrwt>
<pdfrwt beam="1">  1        2 0.23590751E+00 0.79701284E+03</pdfrwt>
<pdfrwt beam="2">  1       -2 0.68248302E-01 0.79701284E+03</pdfrwt>
<totfact> 0.24325196E+01</totfact>
</mgrwt>
</event>
<event>
 4    1  0.6502538E-008  0.6629099E+03  0.7818608E-02  0.1021355E+00
          2   -1    0    0  501    0  0.00000000000E+00  0.00000000000E+00  0.24026909663E+04  0.24026909663E+04  0.25500000000E-02 0. -1.
         -2   -1    0    0    0  501 -0.00000000000E+00 -0.00000000000E+00 -0.90189567942E+02  0.90189567978E+02  0.25500000000E-02 0.  1.
    8880023    1    1    2    0    0 -0.19953822396E+02 -0.72395774100E+02  0.21754684130E+04  0.22742278525E+04  0.65864270000E+03 0. -1.
    8880022    1    1    2    0    0  0.19953822396E+02  0.72395774100E+02  0.13703298538E+03  0.21865268174E+03  0.15294330000E+03 0.  0.
<mgrwt>
<rscale>  0 0.47200711E+03</rscale>
<asrwt>0</asrwt>
<pdfrwt beam="1">  1        2 0.36964472E+00 0.66290988E+03</pdfrwt>
<pdfrwt beam="2">  1       -2 0.13875320E-01 0.66290988E+03</pdfrwt>
<totfact> 0.16537395E+02</totfact>
</mgrwt>
</event>
<event>
 4    1  0.6502538E-008  0.7401574E+03  0.7818608E-02  0.9859489E-01
          2   -1    0    0  501    0  0.00000000000E+00  0.00000000000E+00  0.12300007764E+04  0.12300007764E+04  0.25500000000E-02 0. -1.
         -2   -1    0    0    0  501 -0.00000000000E+00 -0.00000000000E+00 -0.56447740301E+03  0.56447740301E+03  0.25500000000E-02 0.  1.
    8880023    1    1    2    0    0  0.93347870981E+02 -0.32451343171E+03  0.10341278194E+04  0.12717127606E+04  0.65864270000E+03 0.  0.
    8880022    1    1    2    0    0 -0.93347870981E+02  0.32451343171E+03 -0.36860444606E+03  0.52276541876E+03  0.15294330000E+03 0.  0.
<mgrwt>
<rscale>  0 0.62265448E+03</rscale>
<asrwt>0</asrwt>
<pdfrwt beam="1">  1        2 0.18923088E+00 0.74015741E+03</pdfrwt>
<pdfrwt beam="2">  1       -2 0.86842680E-01 0.74015741E+03</pdfrwt>
<totfact> 0.21283635E+01</totfact>
</mgrwt>
</event>
<event>
 4    1  0.6502538E-008  0.7273045E+03  0.7818608E-02  0.9898603E-01
          2   -1    0    0  501    0  0.00000000000E+00  0.00000000000E+00  0.13206483128E+04  0.13206483128E+04  0.25500000000E-02 0. -1.
         -2   -1    0    0    0  501 -0.00000000000E+00 -0.00000000000E+00 -0.53360834409E+03  0.53360834409E+03  0.25500000000E-02 0.  1.
    8880023    1    1    2    0    0 -0.28151247161E+03 -0.12614402646E+03  0.11457118784E+04  0.13570657691E+04  0.65864270000E+03 0.  0.
    8880022    1    1    2    0    0  0.28151247161E+03  0.12614402646E+03 -0.35867190969E+03  0.49719088779E+03  0.15294330000E+03 0.  0.
<mgrwt>
<rscale>  0 0.60329034E+03</rscale>
<asrwt>0</asrwt>
<pdfrwt beam="1">  1        2 0.20317666E+00 0.72730447E+03</pdfrwt>
<pdfrwt beam="2">  1       -2 0.82093591E-01 0.72730447E+03</pdfrwt>
<totfact> 0.21461589E+01</totfact>
</mgrwt>
</event>
<event>
 4    1  0.6502538E-008  0.8576587E+03  0.7818608E-02  0.9597742E-01
         -2   -1    0    0    0  501 -0.00000000000E+00  0.00000000000E+00  0.36231976809E+03  0.36231976810E+03  0.25500000000E-02 0.  1.
          2   -1    0    0  501    0  0.00000000000E+00 -0.00000000000E+00 -0.24053036314E+04  0.24053036314E+04  0.25500000000E-02 0. -1.
    8880023    1    1    2    0    0  0.37390525570E+02 -0.54806038105E+03 -0.20227175599E+04  0.21970354494E+04  0.65864270000E+03 0. -1.
    8880022    1    1    2    0    0 -0.37390525570E+02  0.54806038105E+03 -0.20266303399E+02  0.57058795006E+03  0.15294330000E+03 0.  0.
<mgrwt>
<rscale>  0 0.77445822E+03</rscale>
<asrwt>0</asrwt>
<pdfrwt beam="1">  1        2 0.37004670E+00 0.85765870E+03</pdfrwt>
<pdfrwt beam="2">  1       -2 0.55741504E-01 0.85765870E+03</pdfrwt>
<totfact> 0.12277986E+01</totfact>
</mgrwt>
</event>
<event>
 4    1  0.6502538E-008  0.9910403E+03  0.7818608E-02  0.9393375E-01
         -2   -1    0    0    0  501 -0.00000000000E+00  0.00000000000E+00  0.12527292814E+04  0.12527292814E+04  0.25500000000E-02 0.  1.
          2   -1    0    0  501    0  0.00000000000E+00 -0.00000000000E+00 -0.91329182829E+03  0.91329182830E+03  0.25500000000E-02 0. -1.
    8880023    1    1    2    0    0 -0.33409505615E+02 -0.73975291712E+03 -0.43621522964E+03  0.10827947665E+04  0.65864270000E+03 0.  0.
    8880022    1    1    2    0    0  0.33409505615E+02  0.73975291712E+03  0.77565268279E+03  0.10832263433E+04  0.15294330000E+03 0.  0.
<mgrwt>
<rscale>  0 0.92622928E+03</rscale>
<asrwt>0</asrwt>
<pdfrwt beam="1">  1        2 0.14050644E+00 0.99104025E+03</pdfrwt>
<pdfrwt beam="2">  1       -2 0.19272758E+00 0.99104025E+03</pdfrwt>
<totfact> 0.42383116E+00</totfact>
</mgrwt>
</event>
<event>
 4    1  0.6502538E-008  0.8380126E+03  0.7818608E-02  0.9633939E-01
         -2   -1    0    0    0  501 -0.00000000000E+00  0.00000000000E+00  0.41743117831E+03  0.41743117832E+03  0.25500000000E-02 0.  1.
          2   -1    0    0  501    0  0.00000000000E+00 -0.00000000000E+00 -0.16066893081E+04  0.16066893082E+04  0.25500000000E-02 0. -1.
    8880023    1    1    2    0    0  0.39152758588E+03 -0.33935397326E+03 -0.12233110618E+04  0.14828199924E+04  0.65864270000E+03 0. -1.
    8880022    1    1    2    0    0 -0.39152758588E+03  0.33935397326E+03  0.34052931982E+02  0.54130049406E+03  0.15294330000E+03 0.  0.
<mgrwt>
<rscale>  0 0.75090027E+03</rscale>
<asrwt>0</asrwt>
<pdfrwt beam="1">  1        2 0.24718297E+00 0.83801263E+03</pdfrwt>
<pdfrwt beam="2">  1       -2 0.64220182E-01 0.83801263E+03</pdfrwt>
<totfact> 0.25148548E+01</totfact>
</mgrwt>
</event>
<event>
 4    1  0.6502538E-008  0.1128388E+04  0.7818608E-02  0.9230089E-01
          2   -1    0    0  501    0  0.00000000000E+00  0.00000000000E+00  0.28192181243E+04  0.28192181243E+04  0.25500000000E-02 0. -1.
         -2   -1    0    0    0  501 -0.00000000000E+00 -0.00000000000E+00 -0.69498603006E+03  0.69498603006E+03  0.25500000000E-02 0.  1.
    8880023    1    1    2    0    0 -0.16125643376E+03 -0.90191248670E+03  0.23063853493E+04  0.25676201738E+04  0.65864270000E+03 0.  0.
    8880022    1    1    2    0    0  0.16125643376E+03  0.90191248670E+03 -0.18215325499E+03  0.94658398065E+03  0.15294330000E+03 0.  0.
<mgrwt>
<rscale>  0 0.10748189E+04</rscale>
<asrwt>0</asrwt>
<pdfrwt beam="1">  1        2 0.43372586E+00 0.11283882E+04</pdfrwt>
<pdfrwt beam="2">  1       -2 0.10692093E+00 0.11283882E+04</pdfrwt>
<totfact> 0.15779057E+00</totfact>
</mgrwt>
</event>
<event>
 4    1  0.6502538E-008  0.7115065E+03  0.7818608E-02  0.9952449E-01
         -2   -1    0    0    0  501 -0.00000000000E+00  0.00000000000E+00  0.33899827456E+03  0.33899827456E+03  0.25500000000E-02 0.  1.
          2   -1    0    0  501    0  0.00000000000E+00 -0.00000000000E+00 -0.22697268866E+04  0.22697268866E+04  0.25500000000E-02 0. -1.
    8880023    1    1    2    0    0  0.25135339913E+03 -0.96191511780E+02 -0.21265582799E+04  0.22424298567E+04  0.65864270000E+03 0.  0.
    8880022    1    1    2    0    0 -0.25135339913E+03  0.96191511780E+02  0.19582966790E+03  0.36629530441E+03  0.15294330000E+03 0.  1.
<mgrwt>
<rscale>  0 0.57785368E+03</rscale>
<asrwt>0</asrwt>
<pdfrwt beam="1">  1        2 0.34918874E+00 0.71150653E+03</pdfrwt>
<pdfrwt beam="2">  1       -2 0.52153582E-01 0.71150653E+03</pdfrwt>
<totfact> 0.17136975E+01</totfact>
</mgrwt>
</event>
<event>
 4    1  0.6502538E-008  0.1378672E+04  0.7818608E-02  0.9000434E-01
         -2   -1    0    0    0  501 -0.00000000000E+00  0.00000000000E+00  0.11910526062E+04  0.11910526062E+04  0.25500000000E-02 0.  1.
          2   -1    0    0  501    0  0.00000000000E+00 -0.00000000000E+00 -0.17761664709E+04  0.17761664709E+04  0.25500000000E-02 0. -1.
    8880023    1    1    2    0    0 -0.10280513545E+04  0.64034208802E+03 -0.97168882230E+03  0.16866881605E+04  0.65864270000E+03 0.  0.
    8880022    1    1    2    0    0  0.10280513545E+04 -0.64034208802E+03  0.38657495760E+03  0.12805309165E+04  0.15294330000E+03 0.  0.
<mgrwt>
<rscale>  0 0.13373828E+04</rscale>
<asrwt>0</asrwt>
<pdfrwt beam="1">  1        2 0.27325638E+00 0.13786725E+04</pdfrwt>
<pdfrwt beam="2">  1       -2 0.18323886E+00 0.13786725E+04</pdfrwt>
<totfact> 0.14595275E+00</totfact>
</mgrwt>
</event>
<event>
 4    1  0.6502538E-008  0.6695462E+03  0.7818608E-02  0.1015990E+00
         -2   -1    0    0    0  501 -0.00000000000E+00  0.00000000000E+00  0.19401466403E+03  0.19401466404E+03  0.25500000000E-02 0.  1.
          2   -1    0    0  501    0  0.00000000000E+00 -0.00000000000E+00 -0.21993845726E+04  0.21993845727E+04  0.25500000000E-02 0. -1.
    8880023    1    1    2    0    0 -0.10135097670E+03 -0.64883802176E+02 -0.20798945916E+04  0.21850065553E+04  0.65864270000E+03 0. -1.
    8880022    1    1    2    0    0  0.10135097670E+03  0.64883802176E+02  0.74524682993E+02  0.20839268138E+03  0.15294330000E+03 0.  0.
<mgrwt>
<rscale>  0 0.49161765E+03</rscale>
<asrwt>0</asrwt>
<pdfrwt beam="1">  1        2 0.33836684E+00 0.66954622E+03</pdfrwt>
<pdfrwt beam="2">  1       -2 0.29848411E-01 0.66954622E+03</pdfrwt>
<totfact> 0.55845569E+01</totfact>
</mgrwt>
</event>
<event>
 4    1  0.6502538E-008  0.7597381E+03  0.7818608E-02  0.9805786E-01
         -2   -1    0    0    0  501 -0.00000000000E+00  0.00000000000E+00  0.43044532168E+03  0.43044532169E+03  0.25500000000E-02 0.  1.
          2   -1    0    0  501    0  0.00000000000E+00 -0.00000000000E+00 -0.22439167681E+04  0.22439167681E+04  0.25500000000E-02 0. -1.
    8880023    1    1    2    0    0 -0.19811825858E+03 -0.32270878019E+03 -0.20611657965E+04  0.21967263025E+04  0.65864270000E+03 0. -1.
    8880022    1    1    2    0    0  0.19811825858E+03  0.32270878019E+03  0.24769435010E+03  0.47763578727E+03  0.15294330000E+03 0.  0.
<mgrwt>
<rscale>  0 0.65052959E+03</rscale>
<asrwt>0</asrwt>
<pdfrwt beam="1">  1        2 0.34521796E+00 0.75973812E+03</pdfrwt>
<pdfrwt beam="2">  1       -2 0.66222358E-01 0.75973812E+03</pdfrwt>
<totfact> 0.10636881E+01</totfact>
</mgrwt>
</event>
<event>
 4    1  0.6502538E-008  0.6903104E+03  0.7818608E-02  0.1004005E+00
         -2   -1    0    0    0  501 -0.00000000000E+00  0.00000000000E+00  0.21268492277E+03  0.21268492279E+03  0.25500000000E-02 0.  1.
          2   -1    0    0  501    0  0.00000000000E+00 -0.00000000000E+00 -0.32305016918E+04  0.32305016918E+04  0.25500000000E-02 0. -1.
    8880023    1    1    2    0    0 -0.15851641457E+03  0.13263040651E+03 -0.30979042466E+04  0.31738839308E+04  0.65864270000E+03 0. -1.
    8880022    1    1    2    0    0  0.15851641457E+03 -0.13263040651E+03  0.80087477617E+02  0.26930268381E+03  0.15294330000E+03 0.  0.
<mgrwt>
<rscale>  0 0.53928292E+03</rscale>
<asrwt>0</asrwt>
<pdfrwt beam="1">  1        2 0.49700023E+00 0.69031043E+03</pdfrwt>
<pdfrwt beam="2">  1       -2 0.32720760E-01 0.69031043E+03</pdfrwt>
<totfact> 0.11667419E+01</totfact>
</mgrwt>
</event>
<event>
 4    1  0.6502538E-008  0.8948482E+03  0.7818608E-02  0.9534353E-01
          2   -1    0    0  501    0  0.00000000000E+00  0.00000000000E+00  0.65518658809E+03  0.65518658810E+03  0.25500000000E-02 0. -1.
         -2   -1    0    0    0  501 -0.00000000000E+00 -0.00000000000E+00 -0.21748263803E+04  0.21748263803E+04  0.25500000000E-02 0.  1.
    8880023    1    1    2    0    0  0.60244719397E+03 -0.63249606320E+02  0.26980479617E+03  0.93463788095E+03  0.65864270000E+03 0. -1.
    8880022    1    1    2    0    0 -0.60244719397E+03  0.63249606320E+02 -0.17894445884E+04  0.18953750874E+04  0.15294330000E+03 0.  0.
<mgrwt>
<rscale>  0 0.81797813E+03</rscale>
<asrwt>0</asrwt>
<pdfrwt beam="1">  1        2 0.10079794E+00 0.89484822E+03</pdfrwt>
<pdfrwt beam="2">  1       -2 0.33458867E+00 0.89484822E+03</pdfrwt>
<totfact> 0.88809275E-01</totfact>
</mgrwt>
</event>
<event>
 4    1  0.6502538E-008  0.1494059E+04  0.7818608E-02  0.8913842E-01
         -2   -1    0    0    0  501 -0.00000000000E+00  0.00000000000E+00  0.27652060985E+04  0.27652060985E+04  0.25500000000E-02 0.  1.
          2   -1    0    0  501    0  0.00000000000E+00 -0.00000000000E+00 -0.10859932212E+04  0.10859932213E+04  0.25500000000E-02 0. -1.
    8880023    1    1    2    0    0  0.12656549437E+04 -0.44330657544E+03 -0.23144677822E+03  0.15118799469E+04  0.65864270000E+03 0.  0.
    8880022    1    1    2    0    0 -0.12656549437E+04  0.44330657544E+03  0.19106596555E+04  0.23393193729E+04  0.15294330000E+03 0.  0.
<mgrwt>
<rscale>  0 0.14565933E+04</rscale>
<asrwt>0</asrwt>
<pdfrwt beam="1">  1        2 0.16707588E+00 0.14940594E+04</pdfrwt>
<pdfrwt beam="2">  1       -2 0.42541632E+00 0.14940594E+04</pdfrwt>
<totfact> 0.10641467E-01</totfact>
</mgrwt>
</event>
<event>
 4    1  0.6502538E-008  0.8156524E+03  0.7818608E-02  0.9677921E-01
          2   -1    0    0  501    0  0.00000000000E+00  0.00000000000E+00  0.16039598686E+04  0.16039598686E+04  0.25500000000E-02 0. -1.
         -2   -1    0    0    0  501 -0.00000000000E+00 -0.00000000000E+00 -0.59275754501E+03  0.59275754502E+03  0.25500000000E-02 0.  1.
    8880023    1    1    2    0    0 -0.37391461899E+03  0.30276466192E+03  0.13580747179E+04  0.15841892969E+04  0.65864270000E+03 0. -1.
    8880022    1    1    2    0    0  0.37391461899E+03 -0.30276466192E+03 -0.34687239432E+03  0.61252811670E+03  0.15294330000E+03 0.  0.
<mgrwt>
<rscale>  0 0.72346698E+03</rscale>
<asrwt>0</asrwt>
<pdfrwt beam="1">  1        2 0.24676306E+00 0.81565237E+03</pdfrwt>
<pdfrwt beam="2">  1       -2 0.91193469E-01 0.81565237E+03</pdfrwt>
<totfact> 0.11575714E+01</totfact>
</mgrwt>
</event>
<event>
 4    1  0.6502538E-008  0.1620728E+04  0.7818608E-02  0.8828778E-01
          2   -1    0    0  501    0  0.00000000000E+00  0.00000000000E+00  0.44872528440E+04  0.44872528440E+04  0.25500000000E-02 0. -1.
         -2   -1    0    0    0  501 -0.00000000000E+00 -0.00000000000E+00 -0.63908931835E+03  0.63908931836E+03  0.25500000000E-02 0.  1.
    8880023    1    1    2    0    0 -0.12630874144E+04  0.77301965028E+03  0.97771947249E+03  0.18928007738E+04  0.65864270000E+03 0.  1.
    8880022    1    1    2    0    0  0.12630874144E+04 -0.77301965028E+03  0.28704440532E+04  0.32335413886E+04  0.15294330000E+03 0.  0.
<mgrwt>
<rscale>  0 0.15866721E+04</rscale>
<asrwt>0</asrwt>
<pdfrwt beam="1">  1        2 0.69034659E+00 0.16207280E+04</pdfrwt>
<pdfrwt beam="2">  1       -2 0.98321433E-01 0.16207280E+04</pdfrwt>
<totfact> 0.10500288E-01</totfact>
</mgrwt>
</event>
<event>
 4    1  0.6502538E-008  0.7008546E+03  0.7818608E-02  0.9993674E-01
         -2   -1    0    0    0  501 -0.00000000000E+00  0.00000000000E+00  0.24546753524E+03  0.24546753525E+03  0.25500000000E-02 0.  1.
          2   -1    0    0  501    0  0.00000000000E+00 -0.00000000000E+00 -0.23759187930E+04  0.23759187930E+04  0.25500000000E-02 0. -1.
    8880023    1    1    2    0    0  0.20324294114E+03 -0.12680399788E+03 -0.22163106809E+04  0.23244849295E+04  0.65864270000E+03 0. -1.
    8880022    1    1    2    0    0 -0.20324294114E+03  0.12680399788E+03  0.85859423166E+02  0.29690139872E+03  0.15294330000E+03 0.  0.
<mgrwt>
<rscale>  0 0.55928475E+03</rscale>
<asrwt>0</asrwt>
<pdfrwt beam="1">  1        2 0.36552595E+00 0.70085459E+03</pdfrwt>
<pdfrwt beam="2">  1       -2 0.37764238E-01 0.70085459E+03</pdfrwt>
<totfact> 0.28467377E+01</totfact>
</mgrwt>
</event>
<event>
 4    1  0.6502538E-008  0.7441077E+03  0.7818608E-02  0.9848139E-01
          2   -1    0    0  501    0  0.00000000000E+00  0.00000000000E+00  0.14064950328E+04  0.14064950328E+04  0.25500000000E-02 0. -1.
         -2   -1    0    0    0  501 -0.00000000000E+00 -0.00000000000E+00 -0.79977450897E+03  0.79977450897E+03  0.25500000000E-02 0.  1.
    8880023    1    1    2    0    0 -0.19380750617E+03 -0.28692287413E+03  0.12530037688E+04  0.14572970651E+04  0.65864270000E+03 0. -1.
    8880022    1    1    2    0    0  0.19380750617E+03  0.28692287413E+03 -0.64628324493E+03  0.74897247669E+03  0.15294330000E+03 0.  0.
<mgrwt>
<rscale>  0 0.62841884E+03</rscale>
<asrwt>0</asrwt>
<pdfrwt beam="1">  1        2 0.21638385E+00 0.74410771E+03</pdfrwt>
<pdfrwt beam="2">  1       -2 0.12304223E+00 0.74410771E+03</pdfrwt>
<totfact> 0.73305675E+00</totfact>
</mgrwt>
</event>
<event>
 4    1  0.6502538E-008  0.9888630E+03  0.7818608E-02  0.9396276E-01
          2   -1    0    0  501    0  0.00000000000E+00  0.00000000000E+00  0.32025511580E+04  0.32025511580E+04  0.25500000000E-02 0. -1.
         -2   -1    0    0    0  501 -0.00000000000E+00 -0.00000000000E+00 -0.36919250377E+03  0.36919250377E+03  0.25500000000E-02 0.  1.
    8880023    1    1    2    0    0 -0.35603822251E+03  0.64596945051E+03  0.26022589473E+04  0.27838106225E+04  0.65864270000E+03 0.  0.
    8880022    1    1    2    0    0  0.35603822251E+03 -0.64596945051E+03  0.23109970699E+03  0.78793303933E+03  0.15294330000E+03 0.  0.
<mgrwt>
<rscale>  0 0.92382828E+03</rscale>
<asrwt>0</asrwt>
<pdfrwt beam="1">  1        2 0.49270018E+00 0.98886296E+03</pdfrwt>
<pdfrwt beam="2">  1       -2 0.56798847E-01 0.98886296E+03</pdfrwt>
<totfact> 0.38675078E+00</totfact>
</mgrwt>
</event>
<event>
 4    1  0.6502538E-008  0.9996188E+03  0.7818608E-02  0.9382057E-01
          2   -1    0    0  501    0  0.00000000000E+00  0.00000000000E+00  0.11037221638E+04  0.11037221638E+04  0.25500000000E-02 0. -1.
         -2   -1    0    0    0  501 -0.00000000000E+00 -0.00000000000E+00 -0.10149823512E+04  0.10149823512E+04  0.25500000000E-02 0.  1.
    8880023    1    1    2    0    0  0.45381949336E+03 -0.59956274986E+03  0.62827627662E+03  0.11806646050E+04  0.65864270000E+03 0. -1.
    8880022    1    1    2    0    0 -0.45381949336E+03  0.59956274986E+03 -0.53953646410E+03  0.93803990996E+03  0.15294330000E+03 0.  0.
<mgrwt>
<rscale>  0 0.93567188E+03</rscale>
<asrwt>0</asrwt>
<pdfrwt beam="1">  1        2 0.16980341E+00 0.99961884E+03</pdfrwt>
<pdfrwt beam="2">  1       -2 0.15615113E+00 0.99961884E+03</pdfrwt>
<totfact> 0.57802784E+00</totfact>
</mgrwt>
</event>
<event>
 4    1  0.6502538E-008  0.1383055E+04  0.7818608E-02  0.8996963E-01
          2   -1    0    0  501    0  0.00000000000E+00  0.00000000000E+00  0.44981055061E+04  0.44981055061E+04  0.25500000000E-02 0. -1.
         -2   -1    0    0    0  501 -0.00000000000E+00 -0.00000000000E+00 -0.44893794768E+03  0.44893794769E+03  0.25500000000E-02 0.  1.
    8880023    1    1    2    0    0 -0.64464593342E+03 -0.10312428308E+04  0.31074054577E+04  0.34012952004E+04  0.65864270000E+03 0.  0.
    8880022    1    1    2    0    0  0.64464593342E+03  0.10312428308E+04  0.94176210070E+03  0.15457482534E+04  0.15294330000E+03 0.  0.
<mgrwt>
<rscale>  0 0.13419258E+04</rscale>
<asrwt>0</asrwt>
<pdfrwt beam="1">  1        2 0.69201624E+00 0.13830547E+04</pdfrwt>
<pdfrwt beam="2">  1       -2 0.69067376E-01 0.13830547E+04</pdfrwt>
<totfact> 0.23763708E-01</totfact>
</mgrwt>
</event>
<event>
 4    1  0.6502538E-008  0.9738369E+03  0.7818608E-02  0.9416617E-01
          2   -1    0    0  501    0  0.00000000000E+00  0.00000000000E+00  0.18334248456E+04  0.18334248456E+04  0.25500000000E-02 0. -1.
         -2   -1    0    0    0  501 -0.00000000000E+00 -0.00000000000E+00 -0.48128939664E+03  0.48128939664E+03  0.25500000000E-02 0.  1.
    8880023    1    1    2    0    0  0.63192849743E+03 -0.33943243904E+03  0.12337437548E+04  0.15717766588E+04  0.65864270000E+03 0. -1.
    8880022    1    1    2    0    0 -0.63192849743E+03  0.33943243904E+03  0.11839169415E+03  0.74293758337E+03  0.15294330000E+03 0.  0.
<mgrwt>
<rscale>  0 0.90720691E+03</rscale>
<asrwt>0</asrwt>
<pdfrwt beam="1">  1        2 0.28206536E+00 0.97383685E+03</pdfrwt>
<pdfrwt beam="2">  1       -2 0.74044522E-01 0.97383685E+03</pdfrwt>
<totfact> 0.13628650E+01</totfact>
</mgrwt>
</event>
<event>
 4    1  0.6502538E-008  0.8350067E+03  0.7818608E-02  0.9639668E-01
          2   -1    0    0  501    0  0.00000000000E+00  0.00000000000E+00  0.49363608313E+03  0.49363608314E+03  0.25500000000E-02 0. -1.
         -2   -1    0    0    0  501 -0.00000000000E+00 -0.00000000000E+00 -0.14807188862E+04  0.14807188862E+04  0.25500000000E-02 0.  1.
    8880023    1    1    2    0    0  0.16908168027E+03 -0.48460019781E+03  0.18322053418E+02  0.83520768089E+03  0.65864270000E+03 0. -1.
    8880022    1    1    2    0    0 -0.16908168027E+03  0.48460019781E+03 -0.10054048565E+04  0.11391472885E+04  0.15294330000E+03 0.  0.
<mgrwt>
<rscale>  0 0.74725391E+03</rscale>
<asrwt>0</asrwt>
<pdfrwt beam="1">  1        2 0.75944013E-01 0.83500669E+03</pdfrwt>
<pdfrwt beam="2">  1       -2 0.22780290E+00 0.83500669E+03</pdfrwt>
<totfact> 0.55949624E+00</totfact>
</mgrwt>
</event>
<event>
 4    1  0.6502538E-008  0.1487586E+04  0.7818608E-02  0.8918452E-01
          2   -1    0    0  501    0  0.00000000000E+00  0.00000000000E+00  0.21045707925E+04  0.21045707925E+04  0.25500000000E-02 0. -1.
         -2   -1    0    0    0  501 -0.00000000000E+00 -0.00000000000E+00 -0.16185621158E+04  0.16185621158E+04  0.25500000000E-02 0.  1.
    8880023    1    1    2    0    0 -0.56764268208E+03 -0.12070140281E+04  0.14445045907E+04  0.20735247279E+04  0.65864270000E+03 0.  0.
    8880022    1    1    2    0    0  0.56764268208E+03  0.12070140281E+04 -0.95849591395E+03  0.16496081803E+04  0.15294330000E+03 0.  0.
<mgrwt>
<rscale>  0 0.14499255E+04</rscale>
<asrwt>0</asrwt>
<pdfrwt beam="1">  1        2 0.32378012E+00 0.14875857E+04</pdfrwt>
<pdfrwt beam="2">  1       -2 0.24900956E+00 0.14875857E+04</pdfrwt>
<totfact> 0.35735151E-01</totfact>
</mgrwt>
</event>
<event>
 4    1  0.6502538E-008  0.7945121E+03  0.7818608E-02  0.9722790E-01
          2   -1    0    0  501    0  0.00000000000E+00  0.00000000000E+00  0.81448857497E+03  0.81448857497E+03  0.25500000000E-02 0. -1.
         -2   -1    0    0    0  501 -0.00000000000E+00 -0.00000000000E+00 -0.11815306604E+04  0.11815306604E+04  0.25500000000E-02 0.  1.
    8880023    1    1    2    0    0  0.37595125243E+03 -0.23685414355E+03  0.54950424925E+03  0.96602502852E+03  0.65864270000E+03 0. -1.
    8880022    1    1    2    0    0 -0.37595125243E+03  0.23685414355E+03 -0.91654633466E+03  0.10299942068E+04  0.15294330000E+03 0.  0.
<mgrwt>
<rscale>  0 0.69675943E+03</rscale>
<asrwt>0</asrwt>
<pdfrwt beam="1">  1        2 0.12530594E+00 0.79451207E+03</pdfrwt>
<pdfrwt beam="2">  1       -2 0.18177395E+00 0.79451207E+03</pdfrwt>
<totfact> 0.60107790E+00</totfact>
</mgrwt>
</event>
<event>
 4    1  0.6502538E-008  0.1461200E+04  0.7818608E-02  0.8937531E-01
         -2   -1    0    0    0  501 -0.00000000000E+00  0.00000000000E+00  0.12697078699E+04  0.12697078699E+04  0.25500000000E-02 0.  1.
          2   -1    0    0  501    0  0.00000000000E+00 -0.00000000000E+00 -0.27179369113E+04  0.27179369113E+04  0.25500000000E-02 0. -1.
    8880023    1    1    2    0    0 -0.59683173001E+03  0.11597785886E+04 -0.20706792302E+04  0.25343277549E+04  0.65864270000E+03 0. -1.
    8880022    1    1    2    0    0  0.59683173001E+03 -0.11597785886E+04  0.62245018882E+03  0.14533170264E+04  0.15294330000E+03 0.  0.
<mgrwt>
<rscale>  0 0.14227250E+04</rscale>
<asrwt>0</asrwt>
<pdfrwt beam="1">  1        2 0.41814414E+00 0.14611997E+04</pdfrwt>
<pdfrwt beam="2">  1       -2 0.19533967E+00 0.14611997E+04</pdfrwt>
<totfact> 0.34967293E-01</totfact>
</mgrwt>
</event>
<event>
 4    1  0.6502538E-008  0.6640786E+03  0.7818608E-02  0.1020319E+00
          2   -1    0    0  501    0  0.00000000000E+00  0.00000000000E+00  0.27392291634E+04  0.27392291634E+04  0.25500000000E-02 0. -1.
         -2   -1    0    0    0  501 -0.00000000000E+00 -0.00000000000E+00 -0.67330410220E+03  0.67330410220E+03  0.25500000000E-02 0.  1.
    8880023    1    1    2    0    0  0.84266555411E+02 -0.94506071990E+01  0.26867218200E+04  0.27675755655E+04  0.65864270000E+03 0. -1.
    8880022    1    1    2    0    0 -0.84266555411E+02  0.94506071990E+01 -0.62079675874E+03  0.64495770018E+03  0.15294330000E+03 0.  0.
<mgrwt>
<rscale>  0 0.47571574E+03</rscale>
<asrwt>0</asrwt>
<pdfrwt beam="1">  1        2 0.42141986E+00 0.66407859E+03</pdfrwt>
<pdfrwt beam="2">  1       -2 0.10358525E+00 0.66407859E+03</pdfrwt>
<totfact> 0.20603560E+00</totfact>
</mgrwt>
</event>
<event>
 4    1  0.6502538E-008  0.1856548E+04  0.7818608E-02  0.8691885E-01
         -2   -1    0    0    0  501 -0.00000000000E+00  0.00000000000E+00  0.28761143757E+04  0.28761143757E+04  0.25500000000E-02 0.  1.
          2   -1    0    0  501    0  0.00000000000E+00 -0.00000000000E+00 -0.21709663998E+04  0.21709663998E+04  0.25500000000E-02 0. -1.
    8880023    1    1    2    0    0  0.93109569804E+03  0.14649302887E+04 -0.13920264755E+04  0.23204542366E+04  0.65864270000E+03 0.  0.
    8880022    1    1    2    0    0 -0.93109569804E+03 -0.14649302887E+04  0.20971744514E+04  0.27266265388E+04  0.15294330000E+03 0.  1.
<mgrwt>
<rscale>  0 0.18273580E+04</rscale>
<asrwt>0</asrwt>
<pdfrwt beam="1">  1        2 0.33399483E+00 0.18565479E+04</pdfrwt>
<pdfrwt beam="2">  1       -2 0.44247913E+00 0.18565479E+04</pdfrwt>
<totfact> 0.18688766E-02</totfact>
</mgrwt>
</event>
<event>
 4    1  0.6502538E-008  0.7673009E+03  0.7818608E-02  0.9786560E-01
          2   -1    0    0  501    0  0.00000000000E+00  0.00000000000E+00  0.23758728410E+04  0.23758728410E+04  0.25500000000E-02 0. -1.
         -2   -1    0    0    0  501 -0.00000000000E+00 -0.00000000000E+00 -0.23577092559E+03  0.23577092560E+03  0.25500000000E-02 0.  1.
    8880023    1    1    2    0    0  0.22618753460E+03  0.32214860347E+03  0.20373200594E+04  0.21770217625E+04  0.65864270000E+03 0. -1.
    8880022    1    1    2    0    0 -0.22618753460E+03 -0.32214860347E+03  0.10278185597E+03  0.43462200411E+03  0.15294330000E+03 0.  0.
<mgrwt>
<rscale>  0 0.66088822E+03</rscale>
<asrwt>0</asrwt>
<pdfrwt beam="1">  1        2 0.36551891E+00 0.76730094E+03</pdfrwt>
<pdfrwt beam="2">  1       -2 0.36272449E-01 0.76730094E+03</pdfrwt>
<totfact> 0.30469222E+01</totfact>
</mgrwt>
</event>
<event>
 4    1  0.6502538E-008  0.1195371E+04  0.7818608E-02  0.9161635E-01
         -2   -1    0    0    0  501 -0.00000000000E+00  0.00000000000E+00  0.15384919906E+04  0.15384919906E+04  0.25500000000E-02 0.  1.
          2   -1    0    0  501    0  0.00000000000E+00 -0.00000000000E+00 -0.16532051137E+04  0.16532051137E+04  0.25500000000E-02 0. -1.
    8880023    1    1    2    0    0  0.24672971358E+03 -0.96655349267E+03 -0.12110140236E+04  0.17016069985E+04  0.65864270000E+03 0. -1.
    8880022    1    1    2    0    0 -0.24672971358E+03  0.96655349267E+03  0.10963009006E+04  0.14900901058E+04  0.15294330000E+03 0.  0.
<mgrwt>
<rscale>  0 0.11458341E+04</rscale>
<asrwt>0</asrwt>
<pdfrwt beam="1">  1        2 0.25433925E+00 0.11953708E+04</pdfrwt>
<pdfrwt beam="2">  1       -2 0.23669108E+00 0.11953708E+04</pdfrwt>
<totfact> 0.78576898E-01</totfact>
</mgrwt>
</event>
<event>
 4    1  0.6502538E-008  0.7011692E+03  0.7818608E-02  0.9992385E-01
         -2   -1    0    0    0  501 -0.00000000000E+00  0.00000000000E+00  0.38034138462E+03  0.38034138463E+03  0.25500000000E-02 0.  1.
          2   -1    0    0  501    0  0.00000000000E+00 -0.00000000000E+00 -0.12648693437E+04  0.12648693437E+04  0.25500000000E-02 0. -1.
    8880023    1    1    2    0    0  0.15370279160E+03  0.18494175206E+03 -0.10884732562E+04  0.12947633898E+04  0.65864270000E+03 0. -1.
    8880022    1    1    2    0    0 -0.15370279160E+03 -0.18494175206E+03  0.20394529718E+03  0.35044733849E+03  0.15294330000E+03 0.  0.
<mgrwt>
<rscale>  0 0.55985396E+03</rscale>
<asrwt>0</asrwt>
<pdfrwt beam="1">  1        2 0.19459528E+00 0.70116917E+03</pdfrwt>
<pdfrwt beam="2">  1       -2 0.58514060E-01 0.70116917E+03</pdfrwt>
<totfact> 0.48454555E+01</totfact>
</mgrwt>
</event>
<event>
 4    1  0.6502538E-008  0.7396815E+03  0.7818608E-02  0.9860876E-01
         -2   -1    0    0    0  501 -0.00000000000E+00  0.00000000000E+00  0.36268742935E+03  0.36268742936E+03  0.25500000000E-02 0.  1.
          2   -1    0    0  501    0  0.00000000000E+00 -0.00000000000E+00 -0.10958115154E+04  0.10958115154E+04  0.25500000000E-02 0. -1.
    8880023    1    1    2    0    0 -0.64738795483E+02 -0.33034434678E+03 -0.79245385962E+03  0.10840257492E+04  0.65864270000E+03 0. -1.
    8880022    1    1    2    0    0  0.64738795483E+02  0.33034434678E+03  0.59329773612E+02  0.37447319549E+03  0.15294330000E+03 0.  0.
<mgrwt>
<rscale>  0 0.62195456E+03</rscale>
<asrwt>0</asrwt>
<pdfrwt beam="1">  1        2 0.16858639E+00 0.73968149E+03</pdfrwt>
<pdfrwt beam="2">  1       -2 0.55798067E-01 0.73968149E+03</pdfrwt>
<totfact> 0.67221358E+01</totfact>
</mgrwt>
</event>
<event>
 4    1  0.6502538E-008  0.1064906E+04  0.7818608E-02  0.9301174E-01
         -2   -1    0    0    0  501 -0.00000000000E+00  0.00000000000E+00  0.81742867425E+03  0.81742867426E+03  0.25500000000E-02 0.  1.
          2   -1    0    0  501    0  0.00000000000E+00 -0.00000000000E+00 -0.12861912989E+04  0.12861912989E+04  0.25500000000E-02 0. -1.
    8880023    1    1    2    0    0 -0.40615611733E+03  0.73160872030E+03 -0.63074477952E+03  0.12376846506E+04  0.65864270000E+03 0.  0.
    8880022    1    1    2    0    0  0.40615611733E+03 -0.73160872030E+03  0.16198215488E+03  0.86593532251E+03  0.15294330000E+03 0.  0.
<mgrwt>
<rscale>  0 0.10067488E+04</rscale>
<asrwt>0</asrwt>
<pdfrwt beam="1">  1        2 0.19787558E+00 0.10649058E+04</pdfrwt>
<pdfrwt beam="2">  1       -2 0.12575826E+00 0.10649058E+04</pdfrwt>
<totfact> 0.78454635E+00</totfact>
</mgrwt>
</event>
<event>
 4    1  0.6502538E-008  0.1536009E+04  0.7818608E-02  0.8884619E-01
         -2   -1    0    0    0  501 -0.00000000000E+00  0.00000000000E+00  0.92984244838E+03  0.92984244838E+03  0.25500000000E-02 0.  1.
          2   -1    0    0  501    0  0.00000000000E+00 -0.00000000000E+00 -0.28800351267E+04  0.28800351267E+04  0.25500000000E-02 0. -1.
    8880023    1    1    2    0    0  0.70819986950E+03  0.11933001885E+04 -0.16676710017E+03  0.15450352316E+04  0.65864270000E+03 0.  1.
    8880022    1    1    2    0    0 -0.70819986950E+03 -0.11933001885E+04 -0.17834255782E+04  0.22648423435E+04  0.15294330000E+03 0.  0.
<mgrwt>
<rscale>  0 0.14997506E+04</rscale>
<asrwt>0</asrwt>
<pdfrwt beam="1">  1        2 0.44308232E+00 0.15360087E+04</pdfrwt>
<pdfrwt beam="2">  1       -2 0.14305269E+00 0.15360087E+04</pdfrwt>
<totfact> 0.66246026E-01</totfact>
</mgrwt>
</event>
<event>
 4    1  0.6502538E-008  0.6847967E+03  0.7818608E-02  0.1006731E+00
         -2   -1    0    0    0  501 -0.00000000000E+00  0.00000000000E+00  0.57476014977E+03  0.57476014978E+03  0.25500000000E-02 0.  1.
          2   -1    0    0  501    0  0.00000000000E+00 -0.00000000000E+00 -0.51553267329E+03  0.51553267329E+03  0.25500000000E-02 0. -1.
    8880023    1    1    2    0    0 -0.11430851863E+03 -0.14855924561E+03 -0.22147752071E+03  0.71972132477E+03  0.65864270000E+03 0. -1.
    8880022    1    1    2    0    0  0.11430851863E+03  0.14855924561E+03  0.28070499719E+03  0.37057149830E+03  0.15294330000E+03 0.  0.
<mgrwt>
<rscale>  0 0.52794860E+03</rscale>
<asrwt>0</asrwt>
<pdfrwt beam="1">  1        2 0.79312719E-01 0.68479668E+03</pdfrwt>
<pdfrwt beam="2">  1       -2 0.88424638E-01 0.68479668E+03</pdfrwt>
<totfact> 0.66436257E+01</totfact>
</mgrwt>
</event>
<event>
 4    1  0.6502538E-008  0.1052936E+04  0.7818608E-02  0.9315361E-01
         -2   -1    0    0    0  501 -0.00000000000E+00  0.00000000000E+00  0.72785593745E+03  0.72785593745E+03  0.25500000000E-02 0.  1.
          2   -1    0    0  501    0  0.00000000000E+00 -0.00000000000E+00 -0.26747420230E+04  0.26747420230E+04  0.25500000000E-02 0. -1.
    8880023    1    1    2    0    0  0.81547404246E+03 -0.99324823417E+02 -0.22734441605E+04  0.25054384630E+04  0.65864270000E+03 0.  0.
    8880022    1    1    2    0    0 -0.81547404246E+03  0.99324823417E+02  0.32655807501E+03  0.89715949744E+03  0.15294330000E+03 0.  0.
<mgrwt>
<rscale>  0 0.99380948E+03</rscale>
<asrwt>0</asrwt>
<pdfrwt beam="1">  1        2 0.41149877E+00 0.10529357E+04</pdfrwt>
<pdfrwt beam="2">  1       -2 0.11197784E+00 0.10529357E+04</pdfrwt>
<totfact> 0.17354251E+00</totfact>
</mgrwt>
</event>
<event>
 4    1  0.6502538E-008  0.1047748E+04  0.7818608E-02  0.9321594E-01
         -2   -1    0    0    0  501 -0.00000000000E+00  0.00000000000E+00  0.70398495095E+03  0.70398495096E+03  0.25500000000E-02 0.  1.
          2   -1    0    0  501    0  0.00000000000E+00 -0.00000000000E+00 -0.24426377242E+04  0.24426377242E+04  0.25500000000E-02 0. -1.
    8880023    1    1    2    0    0 -0.33373356555E+03 -0.74336165139E+03 -0.20163175344E+04  0.22722920683E+04  0.65864270000E+03 0. -1.
    8880022    1    1    2    0    0  0.33373356555E+03  0.74336165139E+03  0.27766476119E+03  0.87433060690E+03  0.15294330000E+03 0.  0.
<mgrwt>
<rscale>  0 0.98818946E+03</rscale>
<asrwt>0</asrwt>
<pdfrwt beam="1">  1        2 0.37579042E+00 0.10477475E+04</pdfrwt>
<pdfrwt beam="2">  1       -2 0.10830538E+00 0.10477475E+04</pdfrwt>
<totfact> 0.25638707E+00</totfact>
</mgrwt>
</event>
<event>
 4    1  0.6502538E-008  0.7194013E+03  0.7818608E-02  0.9924617E-01
         -2   -1    0    0    0  501 -0.00000000000E+00  0.00000000000E+00  0.26010588528E+03  0.26010588529E+03  0.25500000000E-02 0.  1.
          2   -1    0    0  501    0  0.00000000000E+00 -0.00000000000E+00 -0.11422602394E+04  0.11422602394E+04  0.25500000000E-02 0. -1.
    8880023    1    1    2    0    0 -0.16109780958E+03 -0.24036542591E+03 -0.77629251355E+03  0.10583800428E+04  0.65864270000E+03 0.  1.
    8880022    1    1    2    0    0  0.16109780958E+03  0.24036542591E+03 -0.10586184062E+03  0.34398608190E+03  0.15294330000E+03 0.  0.
<mgrwt>
<rscale>  0 0.59082938E+03</rscale>
<asrwt>0</asrwt>
<pdfrwt beam="1">  1        2 0.17573234E+00 0.71940131E+03</pdfrwt>
<pdfrwt beam="2">  1       -2 0.40016291E-01 0.71940131E+03</pdfrwt>
<totfact> 0.12321988E+02</totfact>
</mgrwt>
</event>
<event>
 4    1  0.6502538E-008  0.1124142E+04  0.7818608E-02  0.9234641E-01
         -2   -1    0    0    0  501 -0.00000000000E+00  0.00000000000E+00  0.19998996271E+04  0.19998996271E+04  0.25500000000E-02 0.  1.
          2   -1    0    0  501    0  0.00000000000E+00 -0.00000000000E+00 -0.67266432399E+03  0.67266432399E+03  0.25500000000E-02 0. -1.
    8880023    1    1    2    0    0 -0.31682021402E+03  0.85411410509E+03  0.88899754475E+02  0.11276521295E+04  0.65864270000E+03 0.  0.
    8880022    1    1    2    0    0  0.31682021402E+03 -0.85411410509E+03  0.12383355487E+04  0.15449118216E+04  0.15294330000E+03 0.  0.
<mgrwt>
<rscale>  0 0.10702920E+04</rscale>
<asrwt>0</asrwt>
<pdfrwt beam="1">  1        2 0.10348682E+00 0.11241424E+04</pdfrwt>
<pdfrwt beam="2">  1       -2 0.30767687E+00 0.11241424E+04</pdfrwt>
<totfact> 0.12183184E+00</totfact>
</mgrwt>
</event>
<event>
 4    1  0.6502538E-008  0.8152833E+03  0.7818608E-02  0.9678675E-01
         -2   -1    0    0    0  501 -0.00000000000E+00  0.00000000000E+00  0.44277028743E+03  0.44277028743E+03  0.25500000000E-02 0.  1.
          2   -1    0    0  501    0  0.00000000000E+00 -0.00000000000E+00 -0.19195661721E+04  0.19195661721E+04  0.25500000000E-02 0. -1.
    8880023    1    1    2    0    0  0.19477574724E+03 -0.43924825631E+03 -0.16407155937E+04  0.18321120293E+04  0.65864270000E+03 0. -1.
    8880022    1    1    2    0    0 -0.19477574724E+03  0.43924825631E+03  0.16391970900E+03  0.53022443022E+03  0.15294330000E+03 0.  0.
<mgrwt>
<rscale>  0 0.72300770E+03</rscale>
<asrwt>0</asrwt>
<pdfrwt beam="1">  1        2 0.29531787E+00 0.81528328E+03</pdfrwt>
<pdfrwt beam="2">  1       -2 0.68118507E-01 0.81528328E+03</pdfrwt>
<totfact> 0.14957598E+01</totfact>
</mgrwt>
</event>
<event>
 4    1  0.6502538E-008  0.7476088E+03  0.7818608E-02  0.9838313E-01
         -2   -1    0    0    0  501 -0.00000000000E+00  0.00000000000E+00  0.16764749738E+03  0.16764749740E+03  0.25500000000E-02 0.  1.
          2   -1    0    0  501    0  0.00000000000E+00 -0.00000000000E+00 -0.25863823932E+04  0.25863823932E+04  0.25500000000E-02 0. -1.
    8880023    1    1    2    0    0 -0.33645249911E+03  0.10912585707E+03 -0.82060306464E+03  0.11100938396E+04  0.65864270000E+03 0.  0.
    8880022    1    1    2    0    0  0.33645249911E+03 -0.10912585707E+03 -0.15981318312E+04  0.16439360510E+04  0.15294330000E+03 0. -1.
<mgrwt>
<rscale>  0 0.63346374E+03</rscale>
<asrwt>0</asrwt>
<pdfrwt beam="1">  1        2 0.39790495E+00 0.74760882E+03</pdfrwt>
<pdfrwt beam="2">  1       -2 0.25791925E-01 0.74760882E+03</pdfrwt>
<totfact> 0.43830959E+01</totfact>
</mgrwt>
</event>
<event>
 4    1  0.6502538E-008  0.1112964E+04  0.7818608E-02  0.9246758E-01
         -2   -1    0    0    0  501 -0.00000000000E+00  0.00000000000E+00  0.16982720794E+04  0.16982720795E+04  0.25500000000E-02 0.  1.
          2   -1    0    0  501    0  0.00000000000E+00 -0.00000000000E+00 -0.15372109468E+04  0.15372109468E+04  0.25500000000E-02 0. -1.
    8880023    1    1    2    0    0  0.80417291523E+03 -0.39772341696E+03 -0.11753055435E+04  0.16186510807E+04  0.65864270000E+03 0.  0.
    8880022    1    1    2    0    0 -0.80417291523E+03  0.39772341696E+03  0.13363666762E+04  0.16168319456E+04  0.15294330000E+03 0.  0.
<mgrwt>
<rscale>  0 0.10583571E+04</rscale>
<asrwt>0</asrwt>
<pdfrwt beam="1">  1        2 0.23649399E+00 0.11129637E+04</pdfrwt>
<pdfrwt beam="2">  1       -2 0.26127263E+00 0.11129637E+04</pdfrwt>
<totfact> 0.65198500E-01</totfact>
</mgrwt>
</event>
<event>
 4    1  0.6502538E-008  0.1955256E+04  0.7818608E-02  0.8641192E-01
         -2   -1    0    0    0  501 -0.00000000000E+00  0.00000000000E+00  0.23063475008E+04  0.23063475008E+04  0.25500000000E-02 0.  1.
          2   -1    0    0  501    0  0.00000000000E+00 -0.00000000000E+00 -0.18261630124E+04  0.18261630124E+04  0.25500000000E-02 0. -1.
    8880023    1    1    2    0    0  0.12812904739E+04 -0.13219348549E+04  0.10235088549E+04  0.22069430490E+04  0.65864270000E+03 0.  0.
    8880022    1    1    2    0    0 -0.12812904739E+04  0.13219348549E+04 -0.54332436652E+03  0.19255674642E+04  0.15294330000E+03 0.  0.
<mgrwt>
<rscale>  0 0.19276962E+04</rscale>
<asrwt>0</asrwt>
<pdfrwt beam="1">  1        2 0.28094816E+00 0.19552563E+04</pdfrwt>
<pdfrwt beam="2">  1       -2 0.35482269E+00 0.19552563E+04</pdfrwt>
<totfact> 0.10825706E-01</totfact>
</mgrwt>
</event>
<event>
 4    1  0.6502538E-008  0.1126376E+04  0.7818608E-02  0.9232243E-01
          2   -1    0    0  501    0  0.00000000000E+00  0.00000000000E+00  0.99589958376E+03  0.99589958377E+03  0.25500000000E-02 0. -1.
         -2   -1    0    0    0  501 -0.00000000000E+00 -0.00000000000E+00 -0.15293481422E+04  0.15293481422E+04  0.25500000000E-02 0.  1.
    8880023    1    1    2    0    0  0.89873398935E+03  0.16489339489E+03  0.41406666185E+03  0.12000725070E+04  0.65864270000E+03 0.  0.
    8880022    1    1    2    0    0 -0.89873398935E+03 -0.16489339489E+03 -0.94751522024E+03  0.13251752189E+04  0.15294330000E+03 0.  0.
<mgrwt>
<rscale>  0 0.10726738E+04</rscale>
<asrwt>0</asrwt>
<pdfrwt beam="1">  1        2 0.15321532E+00 0.11263760E+04</pdfrwt>
<pdfrwt beam="2">  1       -2 0.23528433E+00 0.11263760E+04</pdfrwt>
<totfact> 0.19699206E+00</totfact>
</mgrwt>
</event>
<event>
 4    1  0.6502538E-008  0.1112267E+04  0.7818608E-02  0.9247520E-01
          2   -1    0    0  501    0  0.00000000000E+00  0.00000000000E+00  0.30794363224E+04  0.30794363224E+04  0.25500000000E-02 0. -1.
         -2   -1    0    0    0  501 -0.00000000000E+00 -0.00000000000E+00 -0.92674034289E+03  0.92674034289E+03  0.25500000000E-02 0.  1.
    8880023    1    1    2    0    0  0.70628532182E+03 -0.55180538162E+03  0.27171401857E+04  0.29359818000E+04  0.65864270000E+03 0.  0.
    8880022    1    1    2    0    0 -0.70628532182E+03  0.55180538162E+03 -0.56444420611E+03  0.10701948654E+04  0.15294330000E+03 0.  0.
<mgrwt>
<rscale>  0 0.10576127E+04</rscale>
<asrwt>0</asrwt>
<pdfrwt beam="1">  1        2 0.47375942E+00 0.11122672E+04</pdfrwt>
<pdfrwt beam="2">  1       -2 0.14257544E+00 0.11122672E+04</pdfrwt>
<totfact> 0.53125094E-01</totfact>
</mgrwt>
</event>
<event>
 4    1  0.7924273E-008  0.9164932E+03  0.7818608E-02  0.9500057E-01
          2   -1    0    0  501    0  0.00000000000E+00  0.00000000000E+00  0.21587945063E+04  0.21587945063E+04  0.25500000000E-02 0. -1.
         -2   -1    0    0    0  501 -0.00000000000E+00 -0.00000000000E+00 -0.16477238703E+04  0.16477238703E+04  0.25500000000E-02 0.  1.
    8880023    1    1    2    0    0  0.10721644642E+02  0.63720842397E+03  0.19888862034E+04  0.21898922498E+04  0.65864270000E+03 0.  0.
    8880022    1    1    2    0    0 -0.10721644642E+02 -0.63720842397E+03 -0.14778155675E+04  0.16166261268E+04  0.15294330000E+03 0.  0.
<mgrwt>
<rscale>  0 0.84279612E+03</rscale>
<asrwt>0</asrwt>
<pdfrwt beam="1">  1        2 0.33212223E+00 0.91649317E+03</pdfrwt>
<pdfrwt beam="2">  1       -2 0.25349598E+00 0.91649317E+03</pdfrwt>
<totfact> 0.34033229E-01</totfact>
</mgrwt>
</event>
<event>
 4    1  0.6502538E-008  0.1476522E+04  0.7818608E-02  0.8926395E-01
         -2   -1    0    0    0  501 -0.00000000000E+00  0.00000000000E+00  0.12114020285E+04  0.12114020285E+04  0.25500000000E-02 0.  1.
          2   -1    0    0  501    0  0.00000000000E+00 -0.00000000000E+00 -0.26385600375E+04  0.26385600375E+04  0.25500000000E-02 0. -1.
    8880023    1    1    2    0    0 -0.13202391649E+04 -0.57228670173E+02 -0.19280600808E+04  0.24284835710E+04  0.65864270000E+03 0.  0.
    8880022    1    1    2    0    0  0.13202391649E+04  0.57228670173E+02  0.50090207185E+03  0.14214784950E+04  0.15294330000E+03 0.  0.
<mgrwt>
<rscale>  0 0.14385247E+04</rscale>
<asrwt>0</asrwt>
<pdfrwt beam="1">  1        2 0.40593231E+00 0.14765219E+04</pdfrwt>
<pdfrwt beam="2">  1       -2 0.18636954E+00 0.14765219E+04</pdfrwt>
<totfact> 0.44703251E-01</totfact>
</mgrwt>
</event>
<event>
 4    1  0.6502538E-008  0.9169120E+03  0.7818608E-02  0.9499410E-01
         -2   -1    0    0    0  501 -0.00000000000E+00  0.00000000000E+00  0.10074233831E+04  0.10074233831E+04  0.25500000000E-02 0.  1.
          2   -1    0    0  501    0  0.00000000000E+00 -0.00000000000E+00 -0.18391864419E+04  0.18391864419E+04  0.25500000000E-02 0. -1.
    8880023    1    1    2    0    0  0.58989683532E+03 -0.24277401678E+03 -0.15952711111E+04  0.18400047890E+04  0.65864270000E+03 0.  0.
    8880022    1    1    2    0    0 -0.58989683532E+03  0.24277401678E+03  0.76350805224E+03  0.10066050359E+04  0.15294330000E+03 0.  0.
<mgrwt>
<rscale>  0 0.84327327E+03</rscale>
<asrwt>0</asrwt>
<pdfrwt beam="1">  1        2 0.28295176E+00 0.91691205E+03</pdfrwt>
<pdfrwt beam="2">  1       -2 0.15498821E+00 0.91691205E+03</pdfrwt>
<totfact> 0.22695986E+00</totfact>
</mgrwt>
</event>
<event>
 4    1  0.6502538E-008  0.8564440E+03  0.7818608E-02  0.9599920E-01
         -2   -1    0    0    0  501 -0.00000000000E+00  0.00000000000E+00  0.18083769991E+04  0.18083769991E+04  0.25500000000E-02 0.  1.
          2   -1    0    0  501    0  0.00000000000E+00 -0.00000000000E+00 -0.14453866245E+04  0.14453866245E+04  0.25500000000E-02 0. -1.
    8880023    1    1    2    0    0  0.54741323729E+03  0.49930215349E+01 -0.12659860469E+04  0.15284688612E+04  0.65864270000E+03 0. -1.
    8880022    1    1    2    0    0 -0.54741323729E+03 -0.49930215349E+01  0.16289764214E+04  0.17252947624E+04  0.15294330000E+03 0.  0.
<mgrwt>
<rscale>  0 0.77301450E+03</rscale>
<asrwt>0</asrwt>
<pdfrwt beam="1">  1        2 0.22236717E+00 0.85644404E+03</pdfrwt>
<pdfrwt beam="2">  1       -2 0.27821185E+00 0.85644404E+03</pdfrwt>
<totfact> 0.60416656E-01</totfact>
</mgrwt>
</event>
<event>
 4    1  0.6502538E-008  0.6805244E+03  0.7818608E-02  0.1009029E+00
          2   -1    0    0  501    0  0.00000000000E+00  0.00000000000E+00  0.17164989755E+04  0.17164989755E+04  0.25500000000E-02 0. -1.
         -2   -1    0    0    0  501 -0.00000000000E+00 -0.00000000000E+00 -0.20417312249E+03  0.20417312251E+03  0.25500000000E-02 0.  1.
    8880023    1    1    2    0    0  0.15683826641E+03  0.68592739919E+02  0.15455386420E+04  0.16887282511E+04  0.65864270000E+03 0. -1.
    8880022    1    1    2    0    0 -0.15683826641E+03 -0.68592739919E+02 -0.33212788966E+02  0.23194384697E+03  0.15294330000E+03 0.  0.
<mgrwt>
<rscale>  0 0.51862541E+03</rscale>
<asrwt>0</asrwt>
<pdfrwt beam="1">  1        2 0.26407676E+00 0.68052437E+03</pdfrwt>
<pdfrwt beam="2">  1       -2 0.31411250E-01 0.68052437E+03</pdfrwt>
<totfact> 0.92937394E+01</totfact>
</mgrwt>
</event>
<event>
 4    1  0.6502538E-008  0.8799612E+03  0.7818608E-02  0.9558998E-01
         -2   -1    0    0    0  501 -0.00000000000E+00  0.00000000000E+00  0.28526100334E+04  0.28526100334E+04  0.25500000000E-02 0.  1.
          2   -1    0    0  501    0  0.00000000000E+00 -0.00000000000E+00 -0.53168835370E+03  0.53168835371E+03  0.25500000000E-02 0. -1.
    8880023    1    1    2    0    0  0.39718563646E+03 -0.42751027519E+03 -0.10343117178E+03  0.88601900587E+03  0.65864270000E+03 0.  0.
    8880022    1    1    2    0    0 -0.39718563646E+03  0.42751027519E+03  0.24243528514E+04  0.24982793812E+04  0.15294330000E+03 0.  0.
<mgrwt>
<rscale>  0 0.80070464E+03</rscale>
<asrwt>0</asrwt>
<pdfrwt beam="1">  1        2 0.81798208E-01 0.87996118E+03</pdfrwt>
<pdfrwt beam="2">  1       -2 0.43886309E+00 0.87996118E+03</pdfrwt>
<totfact> 0.24535579E-01</totfact>
</mgrwt>
</event>
<event>
 4    1  0.6502538E-008  0.6670139E+03  0.7818608E-02  0.1017900E+00
         -2   -1    0    0    0  501 -0.00000000000E+00  0.00000000000E+00  0.39804833751E+03  0.39804833752E+03  0.25500000000E-02 0.  1.
          2   -1    0    0  501    0  0.00000000000E+00 -0.00000000000E+00 -0.46373735388E+03  0.46373735389E+03  0.25500000000E-02 0. -1.
    8880023    1    1    2    0    0 -0.84961901080E+02 -0.62279934178E+02 -0.71026699821E+01  0.66705169891E+03  0.65864270000E+03 0.  0.
    8880022    1    1    2    0    0  0.84961901080E+02  0.62279934178E+02 -0.58586346382E+02  0.19473399250E+03  0.15294330000E+03 0.  0.
<mgrwt>
<rscale>  0 0.48451941E+03</rscale>
<asrwt>0</asrwt>
<pdfrwt beam="1">  1        2 0.71344208E-01 0.66701388E+03</pdfrwt>
<pdfrwt beam="2">  1       -2 0.61238206E-01 0.66701388E+03</pdfrwt>
<totfact> 0.16890135E+02</totfact>
</mgrwt>
</event>
<event>
 4    1  0.6502538E-008  0.7511503E+03  0.7818608E-02  0.9828582E-01
          2   -1    0    0  501    0  0.00000000000E+00  0.00000000000E+00  0.99039471627E+03  0.99039471628E+03  0.25500000000E-02 0. -1.
         -2   -1    0    0    0  501 -0.00000000000E+00 -0.00000000000E+00 -0.39940314090E+03  0.39940314091E+03  0.25500000000E-02 0.  1.
    8880023    1    1    2    0    0  0.34212308835E+03 -0.11562156044E+03  0.64982358649E+03  0.99322578131E+03  0.65864270000E+03 0. -1.
    8880022    1    1    2    0    0 -0.34212308835E+03  0.11562156044E+03 -0.58832011123E+02  0.39657207588E+03  0.15294330000E+03 0.  0.
<mgrwt>
<rscale>  0 0.63850980E+03</rscale>
<asrwt>0</asrwt>
<pdfrwt beam="1">  1        2 0.15236842E+00 0.75115029E+03</pdfrwt>
<pdfrwt beam="2">  1       -2 0.61446637E-01 0.75115029E+03</pdfrwt>
<totfact> 0.63840660E+01</totfact>
</mgrwt>
</event>
<event>
 4    1  0.6502538E-008  0.7692119E+03  0.7818608E-02  0.9781817E-01
         -2   -1    0    0    0  501 -0.00000000000E+00  0.00000000000E+00  0.37540723476E+03  0.37540723477E+03  0.25500000000E-02 0.  1.
          2   -1    0    0  501    0  0.00000000000E+00 -0.00000000000E+00 -0.10441057304E+04  0.10441057304E+04  0.25500000000E-02 0. -1.
    8880023    1    1    2    0    0 -0.15044615956E+03  0.36775363113E+03 -0.62576178060E+03  0.99159709179E+03  0.65864270000E+03 0.  0.
    8880022    1    1    2    0    0  0.15044615956E+03 -0.36775363113E+03 -0.42936714995E+02  0.42791587333E+03  0.15294330000E+03 0.  0.
<mgrwt>
<rscale>  0 0.66347533E+03</rscale>
<asrwt>0</asrwt>
<pdfrwt beam="1">  1        2 0.16063165E+00 0.76921193E+03</pdfrwt>
<pdfrwt beam="2">  1       -2 0.57754959E-01 0.76921193E+03</pdfrwt>
<totfact> 0.67172424E+01</totfact>
</mgrwt>
</event>
<event>
 4    1  0.6502538E-008  0.8138815E+03  0.7818608E-02  0.9681548E-01
         -2   -1    0    0    0  501 -0.00000000000E+00  0.00000000000E+00  0.55199417227E+03  0.55199417228E+03  0.25500000000E-02 0.  1.
          2   -1    0    0  501    0  0.00000000000E+00 -0.00000000000E+00 -0.15263188281E+04  0.15263188281E+04  0.25500000000E-02 0. -1.
    8880023    1    1    2    0    0  0.21997025129E+03  0.42450670128E+03 -0.12605507227E+04  0.15004636556E+04  0.65864270000E+03 0. -1.
    8880022    1    1    2    0    0 -0.21997025129E+03 -0.42450670128E+03  0.28622606691E+03  0.57784934479E+03  0.15294330000E+03 0.  0.
<mgrwt>
<rscale>  0 0.72126125E+03</rscale>
<asrwt>0</asrwt>
<pdfrwt beam="1">  1        2 0.23481828E+00 0.81388148E+03</pdfrwt>
<pdfrwt beam="2">  1       -2 0.84922181E-01 0.81388148E+03</pdfrwt>
<totfact> 0.15059471E+01</totfact>
</mgrwt>
</event>
<event>
 4    1  0.6502538E-008  0.7498567E+03  0.7818608E-02  0.9832113E-01
          2   -1    0    0  501    0  0.00000000000E+00  0.00000000000E+00  0.14456239739E+04  0.14456239739E+04  0.25500000000E-02 0. -1.
         -2   -1    0    0    0  501 -0.00000000000E+00 -0.00000000000E+00 -0.52775758477E+03  0.52775758478E+03  0.25500000000E-02 0.  1.
    8880023    1    1    2    0    0  0.27744032926E+03  0.22693996155E+03  0.12524425537E+04  0.14597593771E+04  0.65864270000E+03 0.  0.
    8880022    1    1    2    0    0 -0.27744032926E+03 -0.22693996155E+03 -0.33457616460E+03  0.51362218155E+03  0.15294330000E+03 0.  0.
<mgrwt>
<rscale>  0 0.63667306E+03</rscale>
<asrwt>0</asrwt>
<pdfrwt beam="1">  1        2 0.22240369E+00 0.74985671E+03</pdfrwt>
<pdfrwt beam="2">  1       -2 0.81193475E-01 0.74985671E+03</pdfrwt>
<totfact> 0.18640353E+01</totfact>
</mgrwt>
</event>
<event>
 4    1  0.6502538E-008  0.1310927E+04  0.7818608E-02  0.9056181E-01
         -2   -1    0    0    0  501 -0.00000000000E+00  0.00000000000E+00  0.11249241370E+04  0.11249241370E+04  0.25500000000E-02 0.  1.
          2   -1    0    0  501    0  0.00000000000E+00 -0.00000000000E+00 -0.16623286454E+04  0.16623286454E+04  0.25500000000E-02 0. -1.
    8880023    1    1    2    0    0  0.21263701777E+03  0.11133300609E+04 -0.89687278613E+03  0.15883668740E+04  0.65864270000E+03 0.  0.
    8880022    1    1    2    0    0 -0.21263701777E+03 -0.11133300609E+04  0.35946827771E+03  0.11988859084E+04  0.15294330000E+03 0.  0.
<mgrwt>
<rscale>  0 0.12669641E+04</rscale>
<asrwt>0</asrwt>
<pdfrwt beam="1">  1        2 0.25574287E+00 0.13109266E+04</pdfrwt>
<pdfrwt beam="2">  1       -2 0.17306525E+00 0.13109266E+04</pdfrwt>
<totfact> 0.20026829E+00</totfact>
</mgrwt>
</event>
<event>
 4    1  0.6502538E-008  0.1006149E+04  0.7818608E-02  0.9373557E-01
         -2   -1    0    0    0  501 -0.00000000000E+00  0.00000000000E+00  0.32449106619E+03  0.32449106620E+03  0.25500000000E-02 0.  1.
          2   -1    0    0  501    0  0.00000000000E+00 -0.00000000000E+00 -0.30431856202E+04  0.30431856202E+04  0.25500000000E-02 0. -1.
    8880023    1    1    2    0    0  0.24696565939E+03 -0.71939737101E+03 -0.22411779837E+04  0.24566671682E+04  0.65864270000E+03 0. -1.
    8880022    1    1    2    0    0 -0.24696565939E+03  0.71939737101E+03 -0.47751657027E+03  0.91100951819E+03  0.15294330000E+03 0.  0.
<mgrwt>
<rscale>  0 0.94284125E+03</rscale>
<asrwt>0</asrwt>
<pdfrwt beam="1">  1        2 0.46818238E+00 0.10061485E+04</pdfrwt>
<pdfrwt beam="2">  1       -2 0.49921705E-01 0.10061485E+04</pdfrwt>
<totfact> 0.63536836E+00</totfact>
</mgrwt>
</event>
<event>
 4    1  0.6502538E-008  0.7022239E+03  0.7818608E-02  0.9988098E-01
         -2   -1    0    0    0  501 -0.00000000000E+00  0.00000000000E+00  0.11207729695E+04  0.11207729695E+04  0.25500000000E-02 0.  1.
          2   -1    0    0  501    0  0.00000000000E+00 -0.00000000000E+00 -0.26535863371E+03  0.26535863372E+03  0.25500000000E-02 0. -1.
    8880023    1    1    2    0    0  0.12618328367E+03 -0.20829298087E+03  0.30598582384E+03  0.76599328823E+03  0.65864270000E+03 0. -1.
    8880022    1    1    2    0    0 -0.12618328367E+03  0.20829298087E+03  0.54942851196E+03  0.62013831500E+03  0.15294330000E+03 0.  0.
<mgrwt>
<rscale>  0 0.56175220E+03</rscale>
<asrwt>0</asrwt>
<pdfrwt beam="1">  1        2 0.40824404E-01 0.70222389E+03</pdfrwt>
<pdfrwt beam="2">  1       -2 0.17242661E+00 0.70222389E+03</pdfrwt>
<totfact> 0.26230607E+01</totfact>
</mgrwt>
</event>
<event>
 4    1  0.6502538E-008  0.7313657E+03  0.7818608E-02  0.9885852E-01
         -2   -1    0    0    0  501 -0.00000000000E+00  0.00000000000E+00  0.42471616016E+03  0.42471616017E+03  0.25500000000E-02 0.  1.
          2   -1    0    0  501    0  0.00000000000E+00 -0.00000000000E+00 -0.16216720398E+04  0.16216720398E+04  0.25500000000E-02 0. -1.
    8880023    1    1    2    0    0 -0.31474259433E+03  0.44973804955E+02 -0.14419716741E+04  0.16168420018E+04  0.65864270000E+03 0. -1.
    8880022    1    1    2    0    0  0.31474259433E+03 -0.44973804955E+02  0.24501579442E+03  0.42954619815E+03  0.15294330000E+03 0.  0.
<mgrwt>
<rscale>  0 0.60951887E+03</rscale>
<asrwt>0</asrwt>
<pdfrwt beam="1">  1        2 0.24948800E+00 0.73136567E+03</pdfrwt>
<pdfrwt beam="2">  1       -2 0.65340949E-01 0.73136567E+03</pdfrwt>
<totfact> 0.24072135E+01</totfact>
</mgrwt>
</event>
<event>
 4    1  0.6718689E-008  0.8367835E+03  0.7818608E-02  0.9636275E-01
          2   -1    0    0  501    0  0.00000000000E+00  0.00000000000E+00  0.16554312507E+04  0.16554312507E+04  0.25500000000E-02 0. -1.
         -2   -1    0    0    0  501 -0.00000000000E+00 -0.00000000000E+00 -0.23533043169E+04  0.23533043169E+04  0.25500000000E-02 0.  1.
    8880023    1    1    2    0    0 -0.47161529139E+03  0.20970309139E+03  0.15153217524E+04  0.17310131684E+04  0.65864270000E+03 0. -1.
    8880022    1    1    2    0    0  0.47161529139E+03 -0.20970309139E+03 -0.22131948187E+04  0.22777223992E+04  0.15294330000E+03 0.  0.
<mgrwt>
<rscale>  0 0.74941067E+03</rscale>
<asrwt>0</asrwt>
<pdfrwt beam="1">  1        2 0.25468173E+00 0.83678347E+03</pdfrwt>
<pdfrwt beam="2">  1       -2 0.36204682E+00 0.83678347E+03</pdfrwt>
<totfact> 0.14243043E-01</totfact>
</mgrwt>
</event>
<event>
 4    1  0.6502538E-008  0.7199585E+03  0.7818608E-02  0.9922726E-01
         -2   -1    0    0    0  501 -0.00000000000E+00  0.00000000000E+00  0.39353654097E+03  0.39353654098E+03  0.25500000000E-02 0.  1.
          2   -1    0    0  501    0  0.00000000000E+00 -0.00000000000E+00 -0.15443190963E+04  0.15443190963E+04  0.25500000000E-02 0. -1.
    8880023    1    1    2    0    0  0.19180279782E+03 -0.21849893500E+03 -0.13667008735E+04  0.15447367354E+04  0.65864270000E+03 0. -1.
    8880022    1    1    2    0    0 -0.19180279782E+03  0.21849893500E+03  0.21591831819E+03  0.39311890185E+03  0.15294330000E+03 0.  0.
<mgrwt>
<rscale>  0 0.59172408E+03</rscale>
<asrwt>0</asrwt>
<pdfrwt beam="1">  1        2 0.23758755E+00 0.71995854E+03</pdfrwt>
<pdfrwt beam="2">  1       -2 0.60544084E-01 0.71995854E+03</pdfrwt>
<totfact> 0.31287763E+01</totfact>
</mgrwt>
</event>
<event>
 4    1  0.6502538E-008  0.8551158E+03  0.7818608E-02  0.9602311E-01
         -2   -1    0    0    0  501 -0.00000000000E+00  0.00000000000E+00  0.12294723441E+04  0.12294723441E+04  0.25500000000E-02 0.  1.
          2   -1    0    0  501    0  0.00000000000E+00 -0.00000000000E+00 -0.20031715920E+04  0.20031715920E+04  0.25500000000E-02 0. -1.
    8880023    1    1    2    0    0 -0.39302218094E+02 -0.54393770549E+03 -0.18379067570E+04  0.20270975175E+04  0.65864270000E+03 0. -1.
    8880022    1    1    2    0    0  0.39302218094E+02  0.54393770549E+03  0.10642075091E+04  0.12055464185E+04  0.15294330000E+03 0.  0.
<mgrwt>
<rscale>  0 0.77143400E+03</rscale>
<asrwt>0</asrwt>
<pdfrwt beam="1">  1        2 0.30818024E+00 0.85511584E+03</pdfrwt>
<pdfrwt beam="2">  1       -2 0.18914959E+00 0.85511584E+03</pdfrwt>
<totfact> 0.10678160E+00</totfact>
</mgrwt>
</event>
<event>
 4    1  0.6502538E-008  0.1416247E+04  0.7818608E-02  0.8971160E-01
          2   -1    0    0  501    0  0.00000000000E+00  0.00000000000E+00  0.80873488195E+03  0.80873488195E+03  0.25500000000E-02 0. -1.
         -2   -1    0    0    0  501 -0.00000000000E+00 -0.00000000000E+00 -0.22266248693E+04  0.22266248693E+04  0.25500000000E-02 0.  1.
    8880023    1    1    2    0    0  0.36351458977E+03  0.11999181958E+04 -0.66138485078E+03  0.15630696276E+04  0.65864270000E+03 0.  1.
    8880022    1    1    2    0    0 -0.36351458977E+03 -0.11999181958E+04 -0.75650513656E+03  0.14722901237E+04  0.15294330000E+03 0. -1.
<mgrwt>
<rscale>  0 0.13762931E+04</rscale>
<asrwt>0</asrwt>
<pdfrwt beam="1">  1        2 0.12442075E+00 0.14162474E+04</pdfrwt>
<pdfrwt beam="2">  1       -2 0.34255767E+00 0.14162474E+04</pdfrwt>
<totfact> 0.56549678E-01</totfact>
</mgrwt>
</event>
<event>
 4    1  0.6502538E-008  0.8602516E+03  0.7818608E-02  0.9593116E-01
          2   -1    0    0  501    0  0.00000000000E+00  0.00000000000E+00  0.65581334005E+03  0.65581334005E+03  0.25500000000E-02 0. -1.
         -2   -1    0    0    0  501 -0.00000000000E+00 -0.00000000000E+00 -0.17223430983E+04  0.17223430983E+04  0.25500000000E-02 0.  1.
    8880023    1    1    2    0    0 -0.48234525669E+03  0.27123003940E+03  0.28783646998E+03  0.90712883354E+03  0.65864270000E+03 0.  0.
    8880022    1    1    2    0    0  0.48234525669E+03 -0.27123003940E+03 -0.13543662283E+04  0.14710276048E+04  0.15294330000E+03 0.  0.
<mgrwt>
<rscale>  0 0.77753490E+03</rscale>
<asrwt>0</asrwt>
<pdfrwt beam="1">  1        2 0.10089436E+00 0.86025164E+03</pdfrwt>
<pdfrwt beam="2">  1       -2 0.26497586E+00 0.86025164E+03</pdfrwt>
<totfact> 0.23541866E+00</totfact>
</mgrwt>
</event>
<event>
 4    1  0.6502538E-008  0.1416630E+04  0.7818608E-02  0.8970868E-01
         -2   -1    0    0    0  501 -0.00000000000E+00  0.00000000000E+00  0.11592377116E+04  0.11592377116E+04  0.25500000000E-02 0.  1.
          2   -1    0    0  501    0  0.00000000000E+00 -0.00000000000E+00 -0.17284102913E+04  0.17284102913E+04  0.25500000000E-02 0. -1.
    8880023    1    1    2    0    0  0.68505994258E+03 -0.10505817376E+04  0.16521130044E+03  0.14262307290E+04  0.65864270000E+03 0.  0.
    8880022    1    1    2    0    0 -0.68505994258E+03  0.10505817376E+04 -0.73438388008E+03  0.14614172739E+04  0.15294330000E+03 0.  0.
<mgrwt>
<rscale>  0 0.13766884E+04</rscale>
<asrwt>0</asrwt>
<pdfrwt beam="1">  1        2 0.26590928E+00 0.14166296E+04</pdfrwt>
<pdfrwt beam="2">  1       -2 0.17834426E+00 0.14166296E+04</pdfrwt>
<totfact> 0.16717631E+00</totfact>
</mgrwt>
</event>
<event>
 4    1  0.6502538E-008  0.8444241E+03  0.7818608E-02  0.9621894E-01
         -2   -1    0    0    0  501 -0.00000000000E+00  0.00000000000E+00  0.66732212854E+03  0.66732212854E+03  0.25500000000E-02 0.  1.
          2   -1    0    0  501    0  0.00000000000E+00 -0.00000000000E+00 -0.14204764049E+04  0.14204764049E+04  0.25500000000E-02 0. -1.
    8880023    1    1    2    0    0 -0.29901269654E+03  0.43569868565E+03 -0.11375304090E+04  0.14166960065E+04  0.65864270000E+03 0. -1.
    8880022    1    1    2    0    0  0.29901269654E+03 -0.43569868565E+03  0.38437613256E+03  0.67110252694E+03  0.15294330000E+03 0.  0.
<mgrwt>
<rscale>  0 0.75863893E+03</rscale>
<asrwt>0</asrwt>
<pdfrwt beam="1">  1        2 0.21853483E+00 0.84442415E+03</pdfrwt>
<pdfrwt beam="2">  1       -2 0.10266494E+00 0.84442415E+03</pdfrwt>
<totfact> 0.11051242E+01</totfact>
</mgrwt>
</event>
<event>
 4    1  0.6502538E-008  0.8189519E+03  0.7818608E-02  0.9671223E-01
         -2   -1    0    0    0  501 -0.00000000000E+00  0.00000000000E+00  0.99151386696E+03  0.99151386696E+03  0.25500000000E-02 0.  1.
          2   -1    0    0  501    0  0.00000000000E+00 -0.00000000000E+00 -0.12049367721E+04  0.12049367721E+04  0.25500000000E-02 0. -1.
    8880023    1    1    2    0    0 -0.14617014470E+03  0.46422659782E+03  0.74730707395E+03  0.11086704264E+04  0.65864270000E+03 0.  0.
    8880022    1    1    2    0    0  0.14617014470E+03 -0.46422659782E+03 -0.96072997906E+03  0.10877802126E+04  0.15294330000E+03 0. -1.
<mgrwt>
<rscale>  0 0.72756283E+03</rscale>
<asrwt>0</asrwt>
<pdfrwt beam="1">  1        2 0.18537489E+00 0.81895192E+03</pdfrwt>
<pdfrwt beam="2">  1       -2 0.15254059E+00 0.81895192E+03</pdfrwt>
<totfact> 0.54559901E+00</totfact>
</mgrwt>
</event>
<event>
 4    1  0.6502538E-008  0.1081764E+04  0.7818608E-02  0.9281637E-01
          2   -1    0    0  501    0  0.00000000000E+00  0.00000000000E+00  0.35387143038E+04  0.35387143038E+04  0.25500000000E-02 0. -1.
         -2   -1    0    0    0  501 -0.00000000000E+00 -0.00000000000E+00 -0.54458245981E+03  0.54458245981E+03  0.25500000000E-02 0.  1.
    8880023    1    1    2    0    0  0.31715128233E+03 -0.79738153217E+03  0.30234455868E+04  0.32111424239E+04  0.65864270000E+03 0. -1.
    8880022    1    1    2    0    0 -0.31715128233E+03  0.79738153217E+03 -0.29313742852E+02  0.87215433971E+03  0.15294330000E+03 0.  0.
<mgrwt>
<rscale>  0 0.10249112E+04</rscale>
<asrwt>0</asrwt>
<pdfrwt beam="1">  1        2 0.54441758E+00 0.10817636E+04</pdfrwt>
<pdfrwt beam="2">  1       -2 0.83781917E-01 0.10817636E+04</pdfrwt>
<totfact> 0.97157414E-01</totfact>
</mgrwt>
</event>
<event>
 4    1  0.6502538E-008  0.1221879E+04  0.7818608E-02  0.9136143E-01
         -2   -1    0    0    0  501 -0.00000000000E+00  0.00000000000E+00  0.18127762151E+04  0.18127762151E+04  0.25500000000E-02 0.  1.
          2   -1    0    0  501    0  0.00000000000E+00 -0.00000000000E+00 -0.13225227162E+04  0.13225227162E+04  0.25500000000E-02 0. -1.
    8880023    1    1    2    0    0  0.21373855378E+03  0.10067237605E+04 -0.81301361619E+03  0.14676437734E+04  0.65864270000E+03 0.  0.
    8880022    1    1    2    0    0 -0.21373855378E+03 -0.10067237605E+04  0.13032671151E+04  0.16676551579E+04  0.15294330000E+03 0.  0.
<mgrwt>
<rscale>  0 0.11737563E+04</rscale>
<asrwt>0</asrwt>
<pdfrwt beam="1">  1        2 0.20346504E+00 0.12218785E+04</pdfrwt>
<pdfrwt beam="2">  1       -2 0.27888865E+00 0.12218785E+04</pdfrwt>
<totfact> 0.66657174E-01</totfact>
</mgrwt>
</event>
<event>
 4    1  0.6502538E-008  0.9745072E+03  0.7818608E-02  0.9415697E-01
         -2   -1    0    0    0  501 -0.00000000000E+00  0.00000000000E+00  0.40677918820E+03  0.40677918820E+03  0.25500000000E-02 0.  1.
          2   -1    0    0  501    0  0.00000000000E+00 -0.00000000000E+00 -0.21534687517E+04  0.21534687517E+04  0.25500000000E-02 0. -1.
    8880023    1    1    2    0    0  0.29481763545E+03  0.65493249541E+03 -0.14938480672E+04  0.17836048514E+04  0.65864270000E+03 0. -1.
    8880022    1    1    2    0    0 -0.29481763545E+03 -0.65493249541E+03 -0.25284149632E+03  0.77664308855E+03  0.15294330000E+03 0.  0.
<mgrwt>
<rscale>  0 0.90795037E+03</rscale>
<asrwt>0</asrwt>
<pdfrwt beam="1">  1        2 0.33130288E+00 0.97450717E+03</pdfrwt>
<pdfrwt beam="2">  1       -2 0.62581415E-01 0.97450717E+03</pdfrwt>
<totfact> 0.13098415E+01</totfact>
</mgrwt>
</event>
<event>
 4    1  0.6502538E-008  0.1116892E+04  0.7818608E-02  0.9242478E-01
         -2   -1    0    0    0  501 -0.00000000000E+00  0.00000000000E+00  0.13337512270E+04  0.13337512270E+04  0.25500000000E-02 0.  1.
          2   -1    0    0  501    0  0.00000000000E+00 -0.00000000000E+00 -0.11766837357E+04  0.11766837357E+04  0.25500000000E-02 0. -1.
    8880023    1    1    2    0    0  0.71324699442E+03 -0.55219203444E+03 -0.64843245902E+03  0.12914767432E+04  0.65864270000E+03 0.  0.
    8880022    1    1    2    0    0 -0.71324699442E+03  0.55219203444E+03  0.80549995028E+03  0.12189582195E+04  0.15294330000E+03 0.  0.
<mgrwt>
<rscale>  0 0.10625538E+04</rscale>
<asrwt>0</asrwt>
<pdfrwt beam="1">  1        2 0.18102827E+00 0.11168919E+04</pdfrwt>
<pdfrwt beam="2">  1       -2 0.20519250E+00 0.11168919E+04</pdfrwt>
<totfact> 0.23569696E+00</totfact>
</mgrwt>
</event>
<event>
 4    1  0.6502538E-008  0.1462619E+04  0.7818608E-02  0.8936493E-01
         -2   -1    0    0    0  501 -0.00000000000E+00  0.00000000000E+00  0.84687197026E+03  0.84687197027E+03  0.25500000000E-02 0.  1.
          2   -1    0    0  501    0  0.00000000000E+00 -0.00000000000E+00 -0.25294047664E+04  0.25294047664E+04  0.25500000000E-02 0. -1.
    8880023    1    1    2    0    0 -0.91488387619E+03  0.93189649840E+03 -0.34929378381E+03  0.15037486307E+04  0.65864270000E+03 0.  0.
    8880022    1    1    2    0    0  0.91488387619E+03 -0.93189649840E+03 -0.13332390123E+04  0.18725281059E+04  0.15294330000E+03 0.  0.
<mgrwt>
<rscale>  0 0.14241888E+04</rscale>
<asrwt>0</asrwt>
<pdfrwt beam="1">  1        2 0.38913919E+00 0.14626188E+04</pdfrwt>
<pdfrwt beam="2">  1       -2 0.13028800E+00 0.14626188E+04</pdfrwt>
<totfact> 0.13754151E+00</totfact>
</mgrwt>
</event>
<event>
 4    1  0.6502538E-008  0.1432373E+04  0.7818608E-02  0.8958928E-01
         -2   -1    0    0    0  501 -0.00000000000E+00  0.00000000000E+00  0.14568144311E+04  0.14568144311E+04  0.25500000000E-02 0.  1.
          2   -1    0    0  501    0  0.00000000000E+00 -0.00000000000E+00 -0.13685807142E+04  0.13685807142E+04  0.25500000000E-02 0. -1.
    8880023    1    1    2    0    0 -0.12498893905E+04 -0.23592090374E+03 -0.34439952189E+03  0.14731949627E+04  0.65864270000E+03 0.  0.
    8880022    1    1    2    0    0  0.12498893905E+04  0.23592090374E+03  0.43263323884E+03  0.13522001825E+04  0.15294330000E+03 0.  0.
<mgrwt>
<rscale>  0 0.13929635E+04</rscale>
<asrwt>0</asrwt>
<pdfrwt beam="1">  1        2 0.21055088E+00 0.14323730E+04</pdfrwt>
<pdfrwt beam="2">  1       -2 0.22412530E+00 0.14323730E+04</pdfrwt>
<totfact> 0.13313575E+00</totfact>
</mgrwt>
</event>
<event>
 4    1  0.6502538E-008  0.9580607E+03  0.7818608E-02  0.9438610E-01
          2   -1    0    0  501    0  0.00000000000E+00  0.00000000000E+00  0.25557443864E+04  0.25557443864E+04  0.25500000000E-02 0. -1.
         -2   -1    0    0    0  501 -0.00000000000E+00 -0.00000000000E+00 -0.46458296630E+03  0.46458296631E+03  0.25500000000E-02 0.  1.
    8880023    1    1    2    0    0 -0.60297839077E+03 -0.34711257991E+03  0.20996625421E+04  0.23079131439E+04  0.65864270000E+03 0.  0.
    8880022    1    1    2    0    0  0.60297839077E+03  0.34711257991E+03 -0.85011219535E+01  0.71241420884E+03  0.15294330000E+03 0.  0.
<mgrwt>
<rscale>  0 0.88965204E+03</rscale>
<asrwt>0</asrwt>
<pdfrwt beam="1">  1        2 0.39319143E+00 0.95806069E+03</pdfrwt>
<pdfrwt beam="2">  1       -2 0.71474304E-01 0.95806069E+03</pdfrwt>
<totfact> 0.58390921E+00</totfact>
</mgrwt>
</event>
<event>
 4    1  0.6502538E-008  0.1195683E+04  0.7818608E-02  0.9161330E-01
         -2   -1    0    0    0  501 -0.00000000000E+00  0.00000000000E+00  0.13954498513E+04  0.13954498513E+04  0.25500000000E-02 0.  1.
          2   -1    0    0  501    0  0.00000000000E+00 -0.00000000000E+00 -0.13984325134E+04  0.13984325134E+04  0.25500000000E-02 0. -1.
    8880023    1    1    2    0    0 -0.13612721636E+03 -0.98859383392E+03 -0.85736691370E+03  0.14713043936E+04  0.65864270000E+03 0. -1.
    8880022    1    1    2    0    0  0.13612721636E+03  0.98859383392E+03  0.85438425156E+03  0.13225779712E+04  0.15294330000E+03 0.  1.
<mgrwt>
<rscale>  0 0.11461638E+04</rscale>
<asrwt>0</asrwt>
<pdfrwt beam="1">  1        2 0.21514347E+00 0.11956833E+04</pdfrwt>
<pdfrwt beam="2">  1       -2 0.21468459E+00 0.11956833E+04</pdfrwt>
<totfact> 0.15041753E+00</totfact>
</mgrwt>
</event>
<event>
 4    1  0.6502538E-008  0.7231966E+03  0.7818608E-02  0.9911914E-01
         -2   -1    0    0    0  501 -0.00000000000E+00  0.00000000000E+00  0.50199524049E+03  0.50199524050E+03  0.25500000000E-02 0.  1.
          2   -1    0    0  501    0  0.00000000000E+00 -0.00000000000E+00 -0.80883788416E+03  0.80883788416E+03  0.25500000000E-02 0. -1.
    8880023    1    1    2    0    0  0.29815323156E+03  0.17544375053E+02 -0.53971749504E+03  0.90239034531E+03  0.65864270000E+03 0. -1.
    8880022    1    1    2    0    0 -0.29815323156E+03 -0.17544375053E+02  0.23287485138E+03  0.40844277936E+03  0.15294330000E+03 0.  0.
<mgrwt>
<rscale>  0 0.59687321E+03</rscale>
<asrwt>0</asrwt>
<pdfrwt beam="1">  1        2 0.12443660E+00 0.72319663E+03</pdfrwt>
<pdfrwt beam="2">  1       -2 0.77230037E-01 0.72319663E+03</pdfrwt>
<totfact> 0.51585167E+01</totfact>
</mgrwt>
</event>
<event>
 4    1  0.6502538E-008  0.8096506E+03  0.7818608E-02  0.9690305E-01
         -2   -1    0    0    0  501 -0.00000000000E+00  0.00000000000E+00  0.51476458611E+03  0.51476458611E+03  0.25500000000E-02 0.  1.
          2   -1    0    0  501    0  0.00000000000E+00 -0.00000000000E+00 -0.24063042235E+04  0.24063042235E+04  0.25500000000E-02 0. -1.
    8880023    1    1    2    0    0  0.56624923723E+02 -0.46745851509E+03 -0.21955560858E+04  0.23400855919E+04  0.65864270000E+03 0. -1.
    8880022    1    1    2    0    0 -0.56624923723E+02  0.46745851509E+03  0.30401644841E+03  0.58098321769E+03  0.15294330000E+03 0.  0.
<mgrwt>
<rscale>  0 0.71596958E+03</rscale>
<asrwt>0</asrwt>
<pdfrwt beam="1">  1        2 0.37020064E+00 0.80965057E+03</pdfrwt>
<pdfrwt beam="2">  1       -2 0.79194553E-01 0.80965057E+03</pdfrwt>
<totfact> 0.57787373E+00</totfact>
</mgrwt>
</event>
<event>
 4    1  0.6502538E-008  0.1237087E+04  0.7818608E-02  0.9121888E-01
          2   -1    0    0  501    0  0.00000000000E+00  0.00000000000E+00  0.24075839391E+04  0.24075839391E+04  0.25500000000E-02 0. -1.
         -2   -1    0    0    0  501 -0.00000000000E+00 -0.00000000000E+00 -0.75945296269E+03  0.75945296269E+03  0.25500000000E-02 0.  1.
    8880023    1    1    2    0    0 -0.24486569507E+03 -0.10181430851E+04  0.17058215781E+04  0.21071810584E+04  0.65864270000E+03 0.  0.
    8880022    1    1    2    0    0  0.24486569507E+03  0.10181430851E+04 -0.57690601671E+02  0.10598558434E+04  0.15294330000E+03 0.  0.
<mgrwt>
<rscale>  0 0.11897367E+04</rscale>
<asrwt>0</asrwt>
<pdfrwt beam="1">  1        2 0.37039753E+00 0.12370872E+04</pdfrwt>
<pdfrwt beam="2">  1       -2 0.11683892E+00 0.12370872E+04</pdfrwt>
<totfact> 0.21785773E+00</totfact>
</mgrwt>
</event>
<event>
 4    1  0.6502538E-008  0.7376544E+03  0.7818608E-02  0.9866833E-01
         -2   -1    0    0    0  501 -0.00000000000E+00  0.00000000000E+00  0.28210255186E+03  0.28210255187E+03  0.25500000000E-02 0.  1.
          2   -1    0    0  501    0  0.00000000000E+00 -0.00000000000E+00 -0.30221614863E+04  0.30221614863E+04  0.25500000000E-02 0. -1.
    8880023    1    1    2    0    0  0.29965528916E+03 -0.14328454985E+03 -0.28325931973E+04  0.29270664807E+04  0.65864270000E+03 0.  0.
    8880022    1    1    2    0    0 -0.29965528916E+03  0.14328454985E+03  0.92534262887E+02  0.37719755748E+03  0.15294330000E+03 0.  0.
<mgrwt>
<rscale>  0 0.61895969E+03</rscale>
<asrwt>0</asrwt>
<pdfrwt beam="1">  1        2 0.46494790E+00 0.73765436E+03</pdfrwt>
<pdfrwt beam="2">  1       -2 0.43400395E-01 0.73765436E+03</pdfrwt>
<totfact> 0.90554767E+00</totfact>
</mgrwt>
</event>
<event>
 4    1  0.6502538E-008  0.7918570E+03  0.7818608E-02  0.9728687E-01
          2   -1    0    0  501    0  0.00000000000E+00  0.00000000000E+00  0.32694836244E+04  0.32694836244E+04  0.25500000000E-02 0. -1.
         -2   -1    0    0    0  501 -0.00000000000E+00 -0.00000000000E+00 -0.14905323122E+03  0.14905323124E+03  0.25500000000E-02 0.  1.
    8880023    1    1    2    0    0  0.35989673115E+03  0.25239197009E+03  0.26113376825E+04  0.27287583371E+04  0.65864270000E+03 0.  0.
    8880022    1    1    2    0    0 -0.35989673115E+03 -0.25239197009E+03  0.50909271070E+03  0.68977851862E+03  0.15294330000E+03 0.  0.
<mgrwt>
<rscale>  0 0.69334144E+03</rscale>
<asrwt>0</asrwt>
<pdfrwt beam="1">  1        2 0.50299752E+00 0.79185704E+03</pdfrwt>
<pdfrwt beam="2">  1       -2 0.22931265E-01 0.79185704E+03</pdfrwt>
<totfact> 0.20729610E+01</totfact>
</mgrwt>
</event>
<event>
 4    1  0.6502538E-008  0.1016415E+04  0.7818608E-02  0.9360390E-01
         -2   -1    0    0    0  501 -0.00000000000E+00  0.00000000000E+00  0.90973258001E+03  0.90973258001E+03  0.25500000000E-02 0.  1.
          2   -1    0    0  501    0  0.00000000000E+00 -0.00000000000E+00 -0.16651589730E+04  0.16651589730E+04  0.25500000000E-02 0. -1.
    8880023    1    1    2    0    0 -0.26823777750E+03 -0.72618066373E+03  0.46805856049E+03  0.11190079910E+04  0.65864270000E+03 0.  0.
    8880022    1    1    2    0    0  0.26823777750E+03  0.72618066373E+03 -0.12234849535E+04  0.14558835620E+04  0.15294330000E+03 0.  0.
<mgrwt>
<rscale>  0 0.95408407E+03</rscale>
<asrwt>0</asrwt>
<pdfrwt beam="1">  1        2 0.25617830E+00 0.10164153E+04</pdfrwt>
<pdfrwt beam="2">  1       -2 0.13995886E+00 0.10164153E+04</pdfrwt>
<totfact> 0.36578912E+00</totfact>
</mgrwt>
</event>
<event>
 4    1  0.6502538E-008  0.1109759E+04  0.7818608E-02  0.9250268E-01
          2   -1    0    0  501    0  0.00000000000E+00  0.00000000000E+00  0.20970868120E+04  0.20970868120E+04  0.25500000000E-02 0. -1.
         -2   -1    0    0    0  501 -0.00000000000E+00 -0.00000000000E+00 -0.99134095964E+03  0.99134095964E+03  0.25500000000E-02 0.  1.
    8880023    1    1    2    0    0  0.14696594655E+03  0.88099688887E+03  0.16815873658E+04  0.20147706527E+04  0.65864270000E+03 0.  0.
    8880022    1    1    2    0    0 -0.14696594655E+03 -0.88099688887E+03 -0.57584151342E+03  0.10736571190E+04  0.15294330000E+03 0.  0.
<mgrwt>
<rscale>  0 0.10549309E+04</rscale>
<asrwt>0</asrwt>
<pdfrwt beam="1">  1        2 0.32262874E+00 0.11097589E+04</pdfrwt>
<pdfrwt beam="2">  1       -2 0.15251400E+00 0.11097589E+04</pdfrwt>
<totfact> 0.16644689E+00</totfact>
</mgrwt>
</event>
<event>
 4    1  0.6502538E-008  0.9260891E+03  0.7818608E-02  0.9485385E-01
          2   -1    0    0  501    0  0.00000000000E+00  0.00000000000E+00  0.27369765985E+04  0.27369765985E+04  0.25500000000E-02 0. -1.
         -2   -1    0    0    0  501 -0.00000000000E+00 -0.00000000000E+00 -0.37415383997E+03  0.37415383998E+03  0.25500000000E-02 0.  1.
    8880023    1    1    2    0    0  0.45242190370E+03  0.46812946071E+03  0.22497352706E+04  0.24328891806E+04  0.65864270000E+03 0. -1.
    8880022    1    1    2    0    0 -0.45242190370E+03 -0.46812946071E+03  0.11308748788E+03  0.67824125786E+03  0.15294330000E+03 0.  0.
<mgrwt>
<rscale>  0 0.85369948E+03</rscale>
<asrwt>0</asrwt>
<pdfrwt beam="1">  1        2 0.42107332E+00 0.92608908E+03</pdfrwt>
<pdfrwt beam="2">  1       -2 0.57562130E-01 0.92608908E+03</pdfrwt>
<totfact> 0.73270298E+00</totfact>
</mgrwt>
</event>
<event>
 4    1  0.6502538E-008  0.1650492E+04  0.7818608E-02  0.8810085E-01
         -2   -1    0    0    0  501 -0.00000000000E+00  0.00000000000E+00  0.21760892476E+04  0.21760892476E+04  0.25500000000E-02 0.  1.
          2   -1    0    0  501    0  0.00000000000E+00 -0.00000000000E+00 -0.17215718389E+04  0.17215718389E+04  0.25500000000E-02 0. -1.
    8880023    1    1    2    0    0  0.74029009422E+02  0.15115663132E+04 -0.88327560202E+03  0.18719772993E+04  0.65864270000E+03 0.  0.
    8880022    1    1    2    0    0 -0.74029009422E+02 -0.15115663132E+04  0.13377930107E+04  0.20256837873E+04  0.15294330000E+03 0.  0.
<mgrwt>
<rscale>  0 0.16171434E+04</rscale>
<asrwt>0</asrwt>
<pdfrwt beam="1">  1        2 0.26485721E+00 0.16504918E+04</pdfrwt>
<pdfrwt beam="2">  1       -2 0.33478296E+00 0.16504918E+04</pdfrwt>
<totfact> 0.17087733E-01</totfact>
</mgrwt>
</event>
<event>
 4    1  0.6502538E-008  0.1346622E+04  0.7818608E-02  0.9026309E-01
          2   -1    0    0  501    0  0.00000000000E+00  0.00000000000E+00  0.13702599200E+04  0.13702599200E+04  0.25500000000E-02 0. -1.
         -2   -1    0    0    0  501 -0.00000000000E+00 -0.00000000000E+00 -0.15430153400E+04  0.15430153400E+04  0.25500000000E-02 0.  1.
    8880023    1    1    2    0    0  0.95064416486E+03  0.68982391823E+03  0.62562372478E+03  0.14848557565E+04  0.65864270000E+03 0.  0.
    8880022    1    1    2    0    0 -0.95064416486E+03 -0.68982391823E+03 -0.79837914475E+03  0.14284195036E+04  0.15294330000E+03 0.  0.
<mgrwt>
<rscale>  0 0.13041139E+04</rscale>
<asrwt>0</asrwt>
<pdfrwt beam="1">  1        2 0.21080922E+00 0.13466223E+04</pdfrwt>
<pdfrwt beam="2">  1       -2 0.23738698E+00 0.13466223E+04</pdfrwt>
<totfact> 0.11064399E+00</totfact>
</mgrwt>
</event>
<event>
 4    1  0.6502538E-008  0.1468435E+04  0.7818608E-02  0.8932253E-01
          2   -1    0    0  501    0  0.00000000000E+00  0.00000000000E+00  0.33351322189E+04  0.33351322189E+04  0.25500000000E-02 0. -1.
         -2   -1    0    0    0  501 -0.00000000000E+00 -0.00000000000E+00 -0.86414255919E+03  0.86414255920E+03  0.25500000000E-02 0.  1.
    8880023    1    1    2    0    0  0.80010116357E+03  0.10403507152E+04  0.83825901594E+02  0.14708257785E+04  0.65864270000E+03 0.  0.
    8880022    1    1    2    0    0 -0.80010116357E+03 -0.10403507152E+04  0.23871637581E+04  0.27284489997E+04  0.15294330000E+03 0.  0.
<mgrwt>
<rscale>  0 0.14301875E+04</rscale>
<asrwt>0</asrwt>
<pdfrwt beam="1">  1        2 0.51309726E+00 0.14684351E+04</pdfrwt>
<pdfrwt beam="2">  1       -2 0.13294501E+00 0.14684351E+04</pdfrwt>
<totfact> 0.41440248E-01</totfact>
</mgrwt>
</event>
<event>
 4    1  0.6502538E-008  0.7969360E+03  0.7818608E-02  0.9717461E-01
         -2   -1    0    0    0  501 -0.00000000000E+00  0.00000000000E+00  0.17778737708E+04  0.17778737708E+04  0.25500000000E-02 0.  1.
          2   -1    0    0  501    0  0.00000000000E+00 -0.00000000000E+00 -0.92497805699E+03  0.92497805700E+03  0.25500000000E-02 0. -1.
    8880023    1    1    2    0    0  0.24720715667E+03  0.37441349191E+03 -0.71142901966E+03  0.10682875538E+04  0.65864270000E+03 0. -1.
    8880022    1    1    2    0    0 -0.24720715667E+03 -0.37441349191E+03  0.15643247334E+04  0.16345642740E+04  0.15294330000E+03 0.  0.
<mgrwt>
<rscale>  0 0.69986650E+03</rscale>
<asrwt>0</asrwt>
<pdfrwt beam="1">  1        2 0.14230432E+00 0.79693604E+03</pdfrwt>
<pdfrwt beam="2">  1       -2 0.27351904E+00 0.79693604E+03</pdfrwt>
<totfact> 0.13407724E+00</totfact>
</mgrwt>
</event>
<event>
 4    1  0.6502538E-008  0.1088142E+04  0.7818608E-02  0.9274375E-01
          2   -1    0    0  501    0  0.00000000000E+00  0.00000000000E+00  0.58300187071E+03  0.58300187071E+03  0.25500000000E-02 0. -1.
         -2   -1    0    0    0  501 -0.00000000000E+00 -0.00000000000E+00 -0.19084824228E+04  0.19084824228E+04  0.25500000000E-02 0.  1.
    8880023    1    1    2    0    0 -0.14786006649E+03  0.85345181311E+03 -0.11708712129E+04  0.15984342964E+04  0.65864270000E+03 0.  0.
    8880022    1    1    2    0    0  0.14786006649E+03 -0.85345181311E+03 -0.15460933925E+03  0.89304999713E+03  0.15294330000E+03 0.  0.
<mgrwt>
<rscale>  0 0.10317658E+04</rscale>
<asrwt>0</asrwt>
<pdfrwt beam="1">  1        2 0.89692596E-01 0.10881419E+04</pdfrwt>
<pdfrwt beam="2">  1       -2 0.29361268E+00 0.10881419E+04</pdfrwt>
<totfact> 0.17771392E+00</totfact>
</mgrwt>
</event>
<event>
 4    1  0.6502538E-008  0.7602065E+03  0.7818608E-02  0.9804573E-01
         -2   -1    0    0    0  501 -0.00000000000E+00  0.00000000000E+00  0.52883225461E+03  0.52883225461E+03  0.25500000000E-02 0.  1.
          2   -1    0    0  501    0  0.00000000000E+00 -0.00000000000E+00 -0.17849674934E+04  0.17849674934E+04  0.25500000000E-02 0. -1.
    8880023    1    1    2    0    0  0.37837246219E+03 -0.30627587731E+02 -0.16050588678E+04  0.17759864708E+04  0.65864270000E+03 0. -1.
    8880022    1    1    2    0    0 -0.37837246219E+03  0.30627587731E+02  0.34892362896E+03  0.53781327721E+03  0.15294330000E+03 0.  0.
<mgrwt>
<rscale>  0 0.65117702E+03</rscale>
<asrwt>0</asrwt>
<pdfrwt beam="1">  1        2 0.27461038E+00 0.76020653E+03</pdfrwt>
<pdfrwt beam="2">  1       -2 0.81358809E-01 0.76020653E+03</pdfrwt>
<totfact> 0.12042568E+01</totfact>
</mgrwt>
</event>
<event>
 4    1  0.6502538E-008  0.1824576E+04  0.7818608E-02  0.8709063E-01
         -2   -1    0    0    0  501 -0.00000000000E+00  0.00000000000E+00  0.18569333933E+04  0.18569333933E+04  0.25500000000E-02 0.  1.
          2   -1    0    0  501    0  0.00000000000E+00 -0.00000000000E+00 -0.17429555393E+04  0.17429555393E+04  0.25500000000E-02 0. -1.
    8880023    1    1    2    0    0 -0.13660737012E+04  0.10144498775E+04 -0.28187228869E+03  0.18462199502E+04  0.65864270000E+03 0.  0.
    8880022    1    1    2    0    0  0.13660737012E+04 -0.10144498775E+04  0.39585014276E+03  0.17536689824E+04  0.15294330000E+03 0.  0.
<mgrwt>
<rscale>  0 0.17948133E+04</rscale>
<asrwt>0</asrwt>
<pdfrwt beam="1">  1        2 0.26814701E+00 0.18245756E+04</pdfrwt>
<pdfrwt beam="2">  1       -2 0.28568206E+00 0.18245756E+04</pdfrwt>
<totfact> 0.32800385E-01</totfact>
</mgrwt>
</event>
<event>
 4    1  0.6502538E-008  0.1124178E+04  0.7818608E-02  0.9234603E-01
          2   -1    0    0  501    0  0.00000000000E+00  0.00000000000E+00  0.10236784391E+04  0.10236784391E+04  0.25500000000E-02 0. -1.
         -2   -1    0    0    0  501 -0.00000000000E+00 -0.00000000000E+00 -0.23078951090E+04  0.23078951090E+04  0.25500000000E-02 0.  1.
    8880023    1    1    2    0    0 -0.45834206441E+03 -0.78733007458E+03  0.56967222539E+03  0.12602788362E+04  0.65864270000E+03 0.  0.
    8880022    1    1    2    0    0  0.45834206441E+03  0.78733007458E+03 -0.18538888953E+04  0.20712947119E+04  0.15294330000E+03 0.  0.
<mgrwt>
<rscale>  0 0.10703301E+04</rscale>
<asrwt>0</asrwt>
<pdfrwt beam="1">  1        2 0.15748899E+00 0.11241781E+04</pdfrwt>
<pdfrwt beam="2">  1       -2 0.35506078E+00 0.11241781E+04</pdfrwt>
<totfact> 0.34920635E-01</totfact>
</mgrwt>
</event>
<event>
 4    1  0.6502538E-008  0.9274032E+03  0.7818608E-02  0.9483400E-01
         -2   -1    0    0    0  501 -0.00000000000E+00  0.00000000000E+00  0.26296164853E+04  0.26296164853E+04  0.25500000000E-02 0.  1.
          2   -1    0    0  501    0  0.00000000000E+00 -0.00000000000E+00 -0.45835362177E+03  0.45835362177E+03  0.25500000000E-02 0. -1.
    8880023    1    1    2    0    0  0.35796334827E+03  0.54601160405E+03  0.12641407483E+03  0.93597924926E+03  0.65864270000E+03 0.  0.
    8880022    1    1    2    0    0 -0.35796334827E+03 -0.54601160405E+03  0.20448487887E+04  0.21519908578E+04  0.15294330000E+03 0.  0.
<mgrwt>
<rscale>  0 0.85518826E+03</rscale>
<asrwt>0</asrwt>
<pdfrwt beam="1">  1        2 0.70515943E-01 0.92740317E+03</pdfrwt>
<pdfrwt beam="2">  1       -2 0.40455637E+00 0.92740317E+03</pdfrwt>
<totfact> 0.48699744E-01</totfact>
</mgrwt>
</event>
<event>
 4    1  0.6502538E-008  0.1106230E+04  0.7818608E-02  0.9254151E-01
          2   -1    0    0  501    0  0.00000000000E+00  0.00000000000E+00  0.34534533227E+04  0.34534533227E+04  0.25500000000E-02 0. -1.
         -2   -1    0    0    0  501 -0.00000000000E+00 -0.00000000000E+00 -0.82880114409E+03  0.82880114410E+03  0.25500000000E-02 0.  1.
    8880023    1    1    2    0    0  0.87172536202E+02  0.88449735577E+03  0.30795240187E+04  0.32721878020E+04  0.65864270000E+03 0.  0.
    8880022    1    1    2    0    0 -0.87172536202E+02 -0.88449735577E+03 -0.45487184010E+03  0.10100666648E+04  0.15294330000E+03 0.  0.
<mgrwt>
<rscale>  0 0.10511560E+04</rscale>
<asrwt>0</asrwt>
<pdfrwt beam="1">  1        2 0.53130050E+00 0.11062300E+04</pdfrwt>
<pdfrwt beam="2">  1       -2 0.12750787E+00 0.11062300E+04</pdfrwt>
<totfact> 0.40391863E-01</totfact>
</mgrwt>
</event>
<event>
 4    1  0.6502538E-008  0.7782685E+03  0.7818608E-02  0.9759920E-01
          2   -1    0    0  501    0  0.00000000000E+00  0.00000000000E+00  0.14222711964E+04  0.14222711964E+04  0.25500000000E-02 0. -1.
         -2   -1    0    0    0  501 -0.00000000000E+00 -0.00000000000E+00 -0.19973850739E+04  0.19973850739E+04  0.25500000000E-02 0.  1.
    8880023    1    1    2    0    0  0.15907661220E+03  0.38286592018E+03  0.12879877668E+04  0.15048635736E+04  0.65864270000E+03 0. -1.
    8880022    1    1    2    0    0 -0.15907661220E+03 -0.38286592018E+03 -0.18631016443E+04  0.19147926967E+04  0.15294330000E+03 0.  0.
<mgrwt>
<rscale>  0 0.67558538E+03</rscale>
<asrwt>0</asrwt>
<pdfrwt beam="1">  1        2 0.21881095E+00 0.77826852E+03</pdfrwt>
<pdfrwt beam="2">  1       -2 0.30729001E+00 0.77826852E+03</pdfrwt>
<totfact> 0.42255427E-01</totfact>
</mgrwt>
</event>
<event>
 4    1  0.6502538E-008  0.7007396E+03  0.7818608E-02  0.9994147E-01
         -2   -1    0    0    0  501 -0.00000000000E+00  0.00000000000E+00  0.17005393916E+03  0.17005393918E+03  0.25500000000E-02 0.  1.
          2   -1    0    0  501    0  0.00000000000E+00 -0.00000000000E+00 -0.18965247654E+04  0.18965247654E+04  0.25500000000E-02 0. -1.
    8880023    1    1    2    0    0 -0.11883821452E+03  0.20761314031E+03 -0.16169416468E+04  0.17622531693E+04  0.65864270000E+03 0. -1.
    8880022    1    1    2    0    0  0.11883821452E+03 -0.20761314031E+03 -0.10952917941E+03  0.30432553527E+03  0.15294330000E+03 0.  0.
<mgrwt>
<rscale>  0 0.55907629E+03</rscale>
<asrwt>0</asrwt>
<pdfrwt beam="1">  1        2 0.29177303E+00 0.70073957E+03</pdfrwt>
<pdfrwt beam="2">  1       -2 0.26162146E-01 0.70073957E+03</pdfrwt>
<totfact> 0.10362223E+02</totfact>
</mgrwt>
</event>
<event>
 4    1  0.6502538E-008  0.1470455E+04  0.7818608E-02  0.8930785E-01
         -2   -1    0    0    0  501 -0.00000000000E+00  0.00000000000E+00  0.16105513329E+04  0.16105513329E+04  0.25500000000E-02 0.  1.
          2   -1    0    0  501    0  0.00000000000E+00 -0.00000000000E+00 -0.15368680937E+04  0.15368680937E+04  0.25500000000E-02 0. -1.
    8880023    1    1    2    0    0  0.52932256716E+03 -0.12034310937E+04 -0.68462150175E+03  0.16220189840E+04  0.65864270000E+03 0.  0.
    8880022    1    1    2    0    0 -0.52932256716E+03  0.12034310937E+04  0.75830474090E+03  0.15254004427E+04  0.15294330000E+03 0.  0.
<mgrwt>
<rscale>  0 0.14322706E+04</rscale>
<asrwt>0</asrwt>
<pdfrwt beam="1">  1        2 0.23644125E+00 0.14704554E+04</pdfrwt>
<pdfrwt beam="2">  1       -2 0.24777713E+00 0.14704554E+04</pdfrwt>
<totfact> 0.75667350E-01</totfact>
</mgrwt>
</event>
<event>
 4    1  0.6502538E-008  0.9603290E+03  0.7818608E-02  0.9435406E-01
          2   -1    0    0  501    0  0.00000000000E+00  0.00000000000E+00  0.79336269735E+03  0.79336269736E+03  0.25500000000E-02 0. -1.
         -2   -1    0    0    0  501 -0.00000000000E+00 -0.00000000000E+00 -0.26772847697E+04  0.26772847697E+04  0.25500000000E-02 0.  1.
    8880023    1    1    2    0    0  0.69886013835E+03 -0.40161104754E+01  0.42739645058E+03  0.10511420239E+04  0.65864270000E+03 0.  0.
    8880022    1    1    2    0    0 -0.69886013835E+03  0.40161104754E+01 -0.23113185229E+04  0.24195054432E+04  0.15294330000E+03 0.  0.
<mgrwt>
<rscale>  0 0.89218308E+03</rscale>
<asrwt>0</asrwt>
<pdfrwt beam="1">  1        2 0.12205580E+00 0.96032902E+03</pdfrwt>
<pdfrwt beam="2">  1       -2 0.41188996E+00 0.96032902E+03</pdfrwt>
<totfact> 0.22144530E-01</totfact>
</mgrwt>
</event>
<event>
 4    1  0.6502538E-008  0.1059839E+04  0.7818608E-02  0.9307146E-01
         -2   -1    0    0    0  501 -0.00000000000E+00  0.00000000000E+00  0.10811397430E+04  0.10811397430E+04  0.25500000000E-02 0.  1.
          2   -1    0    0  501    0  0.00000000000E+00 -0.00000000000E+00 -0.15446766608E+04  0.15446766608E+04  0.25500000000E-02 0. -1.
    8880023    1    1    2    0    0 -0.36904668413E+03 -0.74381026561E+03 -0.11306861741E+04  0.15497453329E+04  0.65864270000E+03 0.  0.
    8880022    1    1    2    0    0  0.36904668413E+03  0.74381026561E+03  0.66714925631E+03  0.10760710708E+04  0.15294330000E+03 0.  0.
<mgrwt>
<rscale>  0 0.10012767E+04</rscale>
<asrwt>0</asrwt>
<pdfrwt beam="1">  1        2 0.23764256E+00 0.10598393E+04</pdfrwt>
<pdfrwt beam="2">  1       -2 0.16632919E+00 0.10598393E+04</pdfrwt>
<totfact> 0.26739175E+00</totfact>
</mgrwt>
</event>
<event>
 4    1  0.6502538E-008  0.7269163E+03  0.7818608E-02  0.9899843E-01
          2   -1    0    0  501    0  0.00000000000E+00  0.00000000000E+00  0.22468611226E+04  0.22468611226E+04  0.25500000000E-02 0. -1.
         -2   -1    0    0    0  501 -0.00000000000E+00 -0.00000000000E+00 -0.23729746022E+03  0.23729746023E+03  0.25500000000E-02 0.  1.
    8880023    1    1    2    0    0  0.89465502358E+02 -0.29426684695E+03  0.20134399314E+04  0.21406418703E+04  0.65864270000E+03 0.  0.
    8880022    1    1    2    0    0 -0.89465502358E+02  0.29426684695E+03 -0.38762689843E+01  0.34351671255E+03  0.15294330000E+03 0.  0.
<mgrwt>
<rscale>  0 0.60268911E+03</rscale>
<asrwt>0</asrwt>
<pdfrwt beam="1">  1        2 0.34567094E+00 0.72691627E+03</pdfrwt>
<pdfrwt beam="2">  1       -2 0.36507302E-01 0.72691627E+03</pdfrwt>
<totfact> 0.35696208E+01</totfact>
</mgrwt>
</event>
<event>
 4    1  0.6502538E-008  0.7578609E+03  0.7818608E-02  0.9810677E-01
          2   -1    0    0  501    0  0.00000000000E+00  0.00000000000E+00  0.13213240221E+04  0.13213240221E+04  0.25500000000E-02 0. -1.
         -2   -1    0    0    0  501 -0.00000000000E+00 -0.00000000000E+00 -0.10574831131E+04  0.10574831131E+04  0.25500000000E-02 0.  1.
    8880023    1    1    2    0    0  0.77779679230E+02 -0.36673314465E+03  0.11656035406E+04  0.13903182002E+04  0.65864270000E+03 0.  0.
    8880022    1    1    2    0    0 -0.77779679230E+02  0.36673314465E+03 -0.90176263156E+03  0.98848893498E+03  0.15294330000E+03 0.  0.
<mgrwt>
<rscale>  0 0.64792676E+03</rscale>
<asrwt>0</asrwt>
<pdfrwt beam="1">  1        2 0.20328062E+00 0.75786086E+03</pdfrwt>
<pdfrwt beam="2">  1       -2 0.16268971E+00 0.75786086E+03</pdfrwt>
<totfact> 0.39559203E+00</totfact>
</mgrwt>
</event>
<event>
 4    1  0.6502538E-008  0.7448150E+03  0.7818608E-02  0.9846137E-01
          2   -1    0    0  501    0  0.00000000000E+00  0.00000000000E+00  0.18613911259E+04  0.18613911259E+04  0.25500000000E-02 0. -1.
         -2   -1    0    0    0  501 -0.00000000000E+00 -0.00000000000E+00 -0.13549815160E+04  0.13549815160E+04  0.25500000000E-02 0.  1.
    8880023    1    1    2    0    0 -0.25778041174E+03  0.23342756327E+03  0.17575330084E+04  0.19088403940E+04  0.65864270000E+03 0. -1.
    8880022    1    1    2    0    0  0.25778041174E+03 -0.23342756327E+03 -0.12511233985E+04  0.13075322478E+04  0.15294330000E+03 0.  0.
<mgrwt>
<rscale>  0 0.62944269E+03</rscale>
<asrwt>0</asrwt>
<pdfrwt beam="1">  1        2 0.28636787E+00 0.74481499E+03</pdfrwt>
<pdfrwt beam="2">  1       -2 0.20845869E+00 0.74481499E+03</pdfrwt>
<totfact> 0.97470588E-01</totfact>
</mgrwt>
</event>
<event>
 4    1  0.6502538E-008  0.1148740E+04  0.7818608E-02  0.9208637E-01
         -2   -1    0    0    0  501 -0.00000000000E+00  0.00000000000E+00  0.79623826341E+03  0.79623826341E+03  0.25500000000E-02 0.  1.
          2   -1    0    0  501    0  0.00000000000E+00 -0.00000000000E+00 -0.30597248527E+04  0.30597248527E+04  0.25500000000E-02 0. -1.
    8880023    1    1    2    0    0 -0.16046142191E+03  0.92738628232E+03 -0.26018807655E+04  0.28441847530E+04  0.65864270000E+03 0.  0.
    8880022    1    1    2    0    0  0.16046142191E+03 -0.92738628232E+03  0.33839417627E+03  0.10117783631E+04  0.15294330000E+03 0.  0.
<mgrwt>
<rscale>  0 0.10964727E+04</rscale>
<asrwt>0</asrwt>
<pdfrwt beam="1">  1        2 0.47072689E+00 0.11487399E+04</pdfrwt>
<pdfrwt beam="2">  1       -2 0.12249820E+00 0.11487399E+04</pdfrwt>
<totfact> 0.80196857E-01</totfact>
</mgrwt>
</event>
<event>
 4    1  0.6502538E-008  0.6680509E+03  0.7818608E-02  0.1017100E+00
         -2   -1    0    0    0  501 -0.00000000000E+00  0.00000000000E+00  0.16946033892E+03  0.16946033894E+03  0.25500000000E-02 0.  1.
          2   -1    0    0  501    0  0.00000000000E+00 -0.00000000000E+00 -0.12514771139E+04  0.12514771139E+04  0.25500000000E-02 0. -1.
    8880023    1    1    2    0    0 -0.11028862355E+03  0.17837022037E+02 -0.10243671776E+04  0.12229554614E+04  0.65864270000E+03 0. -1.
    8880022    1    1    2    0    0  0.11028862355E+03 -0.17837022037E+02 -0.57649597405E+02  0.19798199144E+03  0.15294330000E+03 0.  0.
<mgrwt>
<rscale>  0 0.48747652E+03</rscale>
<asrwt>0</asrwt>
<pdfrwt beam="1">  1        2 0.19253493E+00 0.66805086E+03</pdfrwt>
<pdfrwt beam="2">  1       -2 0.26070822E-01 0.66805086E+03</pdfrwt>
<totfact> 0.23834578E+02</totfact>
</mgrwt>
</event>
<event>
 4    1  0.6502538E-008  0.9498439E+03  0.7818608E-02  0.9450339E-01
          2   -1    0    0  501    0  0.00000000000E+00  0.00000000000E+00  0.31331638975E+04  0.31331638975E+04  0.25500000000E-02 0. -1.
         -2   -1    0    0    0  501 -0.00000000000E+00 -0.00000000000E+00 -0.63025648389E+03  0.63025648390E+03  0.25500000000E-02 0.  1.
    8880023    1    1    2    0    0 -0.70667565723E+02  0.68073443125E+03  0.28332553702E+04  0.29882335032E+04  0.65864270000E+03 0. -1.
    8880022    1    1    2    0    0  0.70667565723E+02 -0.68073443125E+03 -0.33034795656E+03  0.77518687821E+03  0.15294330000E+03 0.  0.
<mgrwt>
<rscale>  0 0.88046295E+03</rscale>
<asrwt>0</asrwt>
<pdfrwt beam="1">  1        2 0.48202521E+00 0.94984392E+03</pdfrwt>
<pdfrwt beam="2">  1       -2 0.96962538E-01 0.94984392E+03</pdfrwt>
<totfact> 0.13135263E+00</totfact>
</mgrwt>
</event>
<event>
 4    1  0.6502538E-008  0.6839218E+03  0.7818608E-02  0.1007187E+00
         -2   -1    0    0    0  501 -0.00000000000E+00  0.00000000000E+00  0.52326179050E+03  0.52326179051E+03  0.25500000000E-02 0.  1.
          2   -1    0    0  501    0  0.00000000000E+00 -0.00000000000E+00 -0.57112560277E+03  0.57112560278E+03  0.25500000000E-02 0. -1.
    8880023    1    1    2    0    0 -0.18415183724E+03  0.51950166627E+01 -0.29986687199E+03  0.74677254538E+03  0.65864270000E+03 0. -1.
    8880022    1    1    2    0    0  0.18415183724E+03 -0.51950166627E+01  0.25200305972E+03  0.34761484790E+03  0.15294330000E+03 0.  0.
<mgrwt>
<rscale>  0 0.52608160E+03</rscale>
<asrwt>0</asrwt>
<pdfrwt beam="1">  1        2 0.87865477E-01 0.68392185E+03</pdfrwt>
<pdfrwt beam="2">  1       -2 0.80501814E-01 0.68392185E+03</pdfrwt>
<totfact> 0.72892415E+01</totfact>
</mgrwt>
</event>
<event>
 4    1  0.6502538E-008  0.8567090E+03  0.7818608E-02  0.9599445E-01
          2   -1    0    0  501    0  0.00000000000E+00  0.00000000000E+00  0.16283353702E+04  0.16283353702E+04  0.25500000000E-02 0. -1.
         -2   -1    0    0    0  501 -0.00000000000E+00 -0.00000000000E+00 -0.46470227020E+03  0.46470227021E+03  0.25500000000E-02 0.  1.
    8880023    1    1    2    0    0 -0.82525044112E+01 -0.54778821382E+03  0.12523691308E+04  0.15173591127E+04  0.65864270000E+03 0. -1.
    8880022    1    1    2    0    0  0.82525044112E+01  0.54778821382E+03 -0.88736030791E+02  0.57567852765E+03  0.15294330000E+03 0.  0.
<mgrwt>
<rscale>  0 0.77332951E+03</rscale>
<asrwt>0</asrwt>
<pdfrwt beam="1">  1        2 0.25051314E+00 0.85670896E+03</pdfrwt>
<pdfrwt beam="2">  1       -2 0.71492656E-01 0.85670896E+03</pdfrwt>
<totfact> 0.19341500E+01</totfact>
</mgrwt>
</event>
<event>
 4    1  0.8845865E-008  0.1115011E+04  0.7818608E-02  0.9244525E-01
          2   -1    0    0  501    0  0.00000000000E+00  0.00000000000E+00  0.32272426876E+04  0.32272426876E+04  0.25500000000E-02 0. -1.
         -2   -1    0    0    0  501 -0.00000000000E+00 -0.00000000000E+00 -0.11464512766E+04  0.11464512766E+04  0.25500000000E-02 0.  1.
    8880023    1    1    2    0    0 -0.73798939565E+03  0.51459693355E+03  0.29251177646E+04  0.31304252898E+04  0.65864270000E+03 0. -1.
    8880022    1    1    2    0    0  0.73798939565E+03 -0.51459693355E+03 -0.84432635361E+03  0.12432686743E+04  0.15294330000E+03 0.  0.
<mgrwt>
<rscale>  0 0.10605442E+04</rscale>
<asrwt>0</asrwt>
<pdfrwt beam="1">  1        2 0.49649887E+00 0.11150106E+04</pdfrwt>
<pdfrwt beam="2">  1       -2 0.17637712E+00 0.11150106E+04</pdfrwt>
<totfact> 0.23950443E-01</totfact>
</mgrwt>
</event>
<event>
 4    1  0.6502538E-008  0.1213177E+04  0.7818608E-02  0.9144419E-01
          2   -1    0    0  501    0  0.00000000000E+00  0.00000000000E+00  0.58085100442E+04  0.58085100442E+04  0.25500000000E-02 0. -1.
         -2   -1    0    0    0  501 -0.00000000000E+00 -0.00000000000E+00 -0.26509390620E+03  0.26509390622E+03  0.25500000000E-02 0.  1.
    8880023    1    1    2    0    0  0.13077748668E+03  0.10103884753E+04  0.16613067345E+04  0.20571188333E+04  0.65864270000E+03 0.  0.
    8880022    1    1    2    0    0 -0.13077748668E+03 -0.10103884753E+04  0.38821094034E+04  0.40164851170E+04  0.15294330000E+03 0.  0.
<mgrwt>
<rscale>  0 0.11646003E+04</rscale>
<asrwt>0</asrwt>
<pdfrwt beam="1">  1        2 0.89361700E+00 0.12131768E+04</pdfrwt>
<pdfrwt beam="2">  1       -2 0.40783675E-01 0.12131768E+04</pdfrwt>
<totfact> 0.80961789E-03</totfact>
</mgrwt>
</event>
<event>
 4    1  0.6502538E-008  0.7532431E+03  0.7818608E-02  0.9822925E-01
          2   -1    0    0  501    0  0.00000000000E+00  0.00000000000E+00  0.26638876226E+04  0.26638876226E+04  0.25500000000E-02 0. -1.
         -2   -1    0    0    0  501 -0.00000000000E+00 -0.00000000000E+00 -0.41826380691E+03  0.41826380692E+03  0.25500000000E-02 0.  1.
    8880023    1    1    2    0    0  0.25435281769E+03 -0.26243010208E+03  0.25002197694E+04  0.26112207903E+04  0.65864270000E+03 0.  0.
    8880022    1    1    2    0    0 -0.25435281769E+03  0.26243010208E+03 -0.25459595365E+03  0.47093063924E+03  0.15294330000E+03 0.  0.
<mgrwt>
<rscale>  0 0.64146623E+03</rscale>
<asrwt>0</asrwt>
<pdfrwt beam="1">  1        2 0.40982886E+00 0.75324307E+03</pdfrwt>
<pdfrwt beam="2">  1       -2 0.64348279E-01 0.75324307E+03</pdfrwt>
<totfact> 0.65596155E+00</totfact>
</mgrwt>
</event>
<event>
 4    1  0.6502538E-008  0.1699371E+04  0.7818608E-02  0.8780343E-01
          2   -1    0    0  501    0  0.00000000000E+00  0.00000000000E+00  0.50419497546E+04  0.50419497546E+04  0.25500000000E-02 0. -1.
         -2   -1    0    0    0  501 -0.00000000000E+00 -0.00000000000E+00 -0.87005853591E+03  0.87005853591E+03  0.25500000000E-02 0.  1.
    8880023    1    1    2    0    0  0.14849231614E+04 -0.49905482576E+03  0.39784315544E+04  0.43261738701E+04  0.65864270000E+03 0.  0.
    8880022    1    1    2    0    0 -0.14849231614E+04  0.49905482576E+03  0.19345966424E+03  0.15858344204E+04  0.15294330000E+03 0.  0.
<mgrwt>
<rscale>  0 0.16671193E+04</rscale>
<asrwt>0</asrwt>
<pdfrwt beam="1">  1        2 0.77568457E+00 0.16993713E+04</pdfrwt>
<pdfrwt beam="2">  1       -2 0.13385516E+00 0.16993713E+04</pdfrwt>
<totfact> 0.11725606E-02</totfact>
</mgrwt>
</event>
<event>
 4    1  0.6502538E-008  0.8350564E+03  0.7818608E-02  0.9639573E-01
          2   -1    0    0  501    0  0.00000000000E+00  0.00000000000E+00  0.10667908620E+04  0.10667908620E+04  0.25500000000E-02 0. -1.
         -2   -1    0    0    0  501 -0.00000000000E+00 -0.00000000000E+00 -0.47664999357E+03  0.47664999358E+03  0.25500000000E-02 0.  1.
    8880023    1    1    2    0    0  0.45669804555E+03 -0.23438389334E+03  0.56300776879E+03  0.10071230651E+04  0.65864270000E+03 0.  1.
    8880022    1    1    2    0    0 -0.45669804555E+03  0.23438389334E+03  0.27133099624E+02  0.53631779047E+03  0.15294330000E+03 0.  0.
<mgrwt>
<rscale>  0 0.74731425E+03</rscale>
<asrwt>0</asrwt>
<pdfrwt beam="1">  1        2 0.16412167E+00 0.83505636E+03</pdfrwt>
<pdfrwt beam="2">  1       -2 0.73330769E-01 0.83505636E+03</pdfrwt>
<totfact> 0.38688744E+01</totfact>
</mgrwt>
</event>
<event>
 4    1  0.6502538E-008  0.9178698E+03  0.7818608E-02  0.9497933E-01
          2   -1    0    0  501    0  0.00000000000E+00  0.00000000000E+00  0.14753830736E+04  0.14753830736E+04  0.25500000000E-02 0. -1.
         -2   -1    0    0    0  501 -0.00000000000E+00 -0.00000000000E+00 -0.70078448413E+03  0.70078448414E+03  0.25500000000E-02 0.  1.
    8880023    1    1    2    0    0  0.46351406228E+03  0.44026067274E+03  0.11082697244E+04  0.14390089417E+04  0.65864270000E+03 0. -1.
    8880022    1    1    2    0    0 -0.46351406228E+03 -0.44026067274E+03 -0.33367113496E+03  0.73715861605E+03  0.15294330000E+03 0.  0.
<mgrwt>
<rscale>  0 0.84436383E+03</rscale>
<asrwt>0</asrwt>
<pdfrwt beam="1">  1        2 0.22698201E+00 0.91786979E+03</pdfrwt>
<pdfrwt beam="2">  1       -2 0.10781300E+00 0.91786979E+03</pdfrwt>
<totfact> 0.90717370E+00</totfact>
</mgrwt>
</event>
<event>
 4    1  0.6502538E-008  0.1029549E+04  0.7818608E-02  0.9343881E-01
         -2   -1    0    0    0  501 -0.00000000000E+00  0.00000000000E+00  0.10761635764E+04  0.10761635764E+04  0.25500000000E-02 0.  1.
          2   -1    0    0  501    0  0.00000000000E+00 -0.00000000000E+00 -0.12755482464E+04  0.12755482464E+04  0.25500000000E-02 0. -1.
    8880023    1    1    2    0    0  0.26660105069E+03  0.74503969390E+03 -0.83475117896E+03  0.13254357784E+04  0.65864270000E+03 0.  0.
    8880022    1    1    2    0    0 -0.26660105069E+03 -0.74503969390E+03  0.63536650894E+03  0.10262760444E+04  0.15294330000E+03 0.  0.
<mgrwt>
<rscale>  0 0.96841587E+03</rscale>
<asrwt>0</asrwt>
<pdfrwt beam="1">  1        2 0.19623819E+00 0.10295487E+04</pdfrwt>
<pdfrwt beam="2">  1       -2 0.16556363E+00 0.10295487E+04</pdfrwt>
<totfact> 0.38723982E+00</totfact>
</mgrwt>
</event>
<event>
 4    1  0.6502538E-008  0.1372393E+04  0.7818608E-02  0.9005436E-01
          2   -1    0    0  501    0  0.00000000000E+00  0.00000000000E+00  0.14229747922E+04  0.14229747922E+04  0.25500000000E-02 0. -1.
         -2   -1    0    0    0  501 -0.00000000000E+00 -0.00000000000E+00 -0.14300899726E+04  0.14300899726E+04  0.25500000000E-02 0.  1.
    8880023    1    1    2    0    0  0.10953897520E+04  0.49977352545E+03  0.59784792942E+03  0.14969584626E+04  0.65864270000E+03 0.  0.
    8880022    1    1    2    0    0 -0.10953897520E+04 -0.49977352545E+03 -0.60496310985E+03  0.13561063022E+04  0.15294330000E+03 0.  0.
<mgrwt>
<rscale>  0 0.13308706E+04</rscale>
<asrwt>0</asrwt>
<pdfrwt beam="1">  1        2 0.21891920E+00 0.13723930E+04</pdfrwt>
<pdfrwt beam="2">  1       -2 0.22001384E+00 0.13723930E+04</pdfrwt>
<totfact> 0.13224091E+00</totfact>
</mgrwt>
</event>
<event>
 4    1  0.6502538E-008  0.1498346E+04  0.7818608E-02  0.8910805E-01
         -2   -1    0    0    0  501 -0.00000000000E+00  0.00000000000E+00  0.20914800044E+04  0.20914800044E+04  0.25500000000E-02 0.  1.
          2   -1    0    0  501    0  0.00000000000E+00 -0.00000000000E+00 -0.14280910237E+04  0.14280910237E+04  0.25500000000E-02 0. -1.
    8880023    1    1    2    0    0 -0.22053318037E+03  0.13276275262E+04 -0.64964999147E+03  0.16331212599E+04  0.65864270000E+03 0.  0.
    8880022    1    1    2    0    0  0.22053318037E+03 -0.13276275262E+04  0.13130389722E+04  0.18864497681E+04  0.15294330000E+03 0.  0.
<mgrwt>
<rscale>  0 0.14610071E+04</rscale>
<asrwt>0</asrwt>
<pdfrwt beam="1">  1        2 0.21970631E+00 0.14983457E+04</pdfrwt>
<pdfrwt beam="2">  1       -2 0.32176615E+00 0.14983457E+04</pdfrwt>
<totfact> 0.30684250E-01</totfact>
</mgrwt>
</event>
<event>
 4    1  0.6502538E-008  0.7629489E+03  0.7818608E-02  0.9797532E-01
         -2   -1    0    0    0  501 -0.00000000000E+00  0.00000000000E+00  0.80001063703E+03  0.80001063704E+03  0.25500000000E-02 0.  1.
          2   -1    0    0  501    0  0.00000000000E+00 -0.00000000000E+00 -0.25353772505E+04  0.25353772505E+04  0.25500000000E-02 0. -1.
    8880023    1    1    2    0    0  0.38387932271E+03 -0.30288851673E+02 -0.24187411472E+04  0.25362175957E+04  0.65864270000E+03 0. -1.
    8880022    1    1    2    0    0 -0.38387932271E+03  0.30288851673E+02  0.68337453379E+03  0.79917029186E+03  0.15294330000E+03 0.  0.
<mgrwt>
<rscale>  0 0.65495148E+03</rscale>
<asrwt>0</asrwt>
<pdfrwt beam="1">  1        2 0.39005804E+00 0.76294885E+03</pdfrwt>
<pdfrwt beam="2">  1       -2 0.12307856E+00 0.76294885E+03</pdfrwt>
<totfact> 0.17366984E+00</totfact>
</mgrwt>
</event>
<event>
 4    1  0.6502538E-008  0.9187429E+03  0.7818608E-02  0.9496589E-01
         -2   -1    0    0    0  501 -0.00000000000E+00  0.00000000000E+00  0.87102552583E+03  0.87102552583E+03  0.25500000000E-02 0.  1.
          2   -1    0    0  501    0  0.00000000000E+00 -0.00000000000E+00 -0.92680613593E+03  0.92680613593E+03  0.25500000000E-02 0. -1.
    8880023    1    1    2    0    0  0.63421690366E+03  0.89706790348E+02 -0.45759055635E+03  0.10263906238E+04  0.65864270000E+03 0.  0.
    8880022    1    1    2    0    0 -0.63421690366E+03 -0.89706790348E+02  0.40180994625E+03  0.77144103796E+03  0.15294330000E+03 0.  0.
<mgrwt>
<rscale>  0 0.84535756E+03</rscale>
<asrwt>0</asrwt>
<pdfrwt beam="1">  1        2 0.14258556E+00 0.91874294E+03</pdfrwt>
<pdfrwt beam="2">  1       -2 0.13400393E+00 0.91874294E+03</pdfrwt>
<totfact> 0.11299872E+01</totfact>
</mgrwt>
</event>
<event>
 4    1  0.6502538E-008  0.7787591E+03  0.7818608E-02  0.9758760E-01
         -2   -1    0    0    0  501 -0.00000000000E+00  0.00000000000E+00  0.86293282947E+03  0.86293282947E+03  0.25500000000E-02 0.  1.
          2   -1    0    0  501    0  0.00000000000E+00 -0.00000000000E+00 -0.69164720279E+03  0.69164720280E+03  0.25500000000E-02 0. -1.
    8880023    1    1    2    0    0  0.24199138943E+03  0.33778055486E+03 -0.36422855126E+03  0.85972564206E+03  0.65864270000E+03 0.  0.
    8880022    1    1    2    0    0 -0.24199138943E+03 -0.33778055486E+03  0.53551417794E+03  0.69485439020E+03  0.15294330000E+03 0.  0.
<mgrwt>
<rscale>  0 0.67623467E+03</rscale>
<asrwt>0</asrwt>
<pdfrwt beam="1">  1        2 0.10640726E+00 0.77875910E+03</pdfrwt>
<pdfrwt beam="2">  1       -2 0.13275890E+00 0.77875910E+03</pdfrwt>
<totfact> 0.17323941E+01</totfact>
</mgrwt>
</event>
<event>
 4    1  0.6502538E-008  0.8787579E+03  0.7818608E-02  0.9561030E-01
          2   -1    0    0  501    0  0.00000000000E+00  0.00000000000E+00  0.17308546682E+04  0.17308546682E+04  0.25500000000E-02 0. -1.
         -2   -1    0    0    0  501 -0.00000000000E+00 -0.00000000000E+00 -0.61993162627E+03  0.61993162628E+03  0.25500000000E-02 0.  1.
    8880023    1    1    2    0    0 -0.45054803759E+03  0.36798332098E+03  0.14235221376E+04  0.16729108587E+04  0.65864270000E+03 0. -1.
    8880022    1    1    2    0    0  0.45054803759E+03 -0.36798332098E+03 -0.31259909573E+03  0.67787543572E+03  0.15294330000E+03 0.  0.
<mgrwt>
<rscale>  0 0.79930042E+03</rscale>
<asrwt>0</asrwt>
<pdfrwt beam="1">  1        2 0.26628533E+00 0.87875791E+03</pdfrwt>
<pdfrwt beam="2">  1       -2 0.95374098E-01 0.87875791E+03</pdfrwt>
<totfact> 0.88078476E+00</totfact>
</mgrwt>
</event>
<event>
 4    1  0.6502538E-008  0.9453760E+03  0.7818608E-02  0.9456798E-01
          2   -1    0    0  501    0  0.00000000000E+00  0.00000000000E+00  0.25077127033E+04  0.25077127033E+04  0.25500000000E-02 0. -1.
         -2   -1    0    0    0  501 -0.00000000000E+00 -0.00000000000E+00 -0.29077299240E+03  0.29077299242E+03  0.25500000000E-02 0.  1.
    8880023    1    1    2    0    0  0.19990046250E+03 -0.64804731585E+03  0.16490379342E+04  0.19008055748E+04  0.65864270000E+03 0. -1.
    8880022    1    1    2    0    0 -0.19990046250E+03  0.64804731585E+03  0.56790177667E+03  0.89768012090E+03  0.15294330000E+03 0.  1.
<mgrwt>
<rscale>  0 0.87545222E+03</rscale>
<asrwt>0</asrwt>
<pdfrwt beam="1">  1        2 0.38580194E+00 0.94537597E+03</pdfrwt>
<pdfrwt beam="2">  1       -2 0.44734309E-01 0.94537597E+03</pdfrwt>
<totfact> 0.16637208E+01</totfact>
</mgrwt>
</event>
<event>
 4    1  0.6502538E-008  0.6847456E+03  0.7818608E-02  0.1006757E+00
          2   -1    0    0  501    0  0.00000000000E+00  0.00000000000E+00  0.20290462465E+04  0.20290462465E+04  0.25500000000E-02 0. -1.
         -2   -1    0    0    0  501 -0.00000000000E+00 -0.00000000000E+00 -0.70906818174E+03  0.70906818175E+03  0.25500000000E-02 0.  1.
    8880023    1    1    2    0    0 -0.70565702702E+02  0.17345555033E+03  0.19481676613E+04  0.20650021281E+04  0.65864270000E+03 0. -1.
    8880022    1    1    2    0    0  0.70565702702E+02 -0.17345555033E+03 -0.62818959655E+03  0.67311230012E+03  0.15294330000E+03 0.  0.
<mgrwt>
<rscale>  0 0.52784017E+03</rscale>
<asrwt>0</asrwt>
<pdfrwt beam="1">  1        2 0.31216095E+00 0.68474561E+03</pdfrwt>
<pdfrwt beam="2">  1       -2 0.10908741E+00 0.68474561E+03</pdfrwt>
<totfact> 0.45266954E+00</totfact>
</mgrwt>
</event>
<event>
 4    1  0.6502538E-008  0.8163773E+03  0.7818608E-02  0.9676443E-01
          2   -1    0    0  501    0  0.00000000000E+00  0.00000000000E+00  0.29607634211E+04  0.29607634211E+04  0.25500000000E-02 0. -1.
         -2   -1    0    0    0  501 -0.00000000000E+00 -0.00000000000E+00 -0.24556879010E+03  0.24556879012E+03  0.25500000000E-02 0.  1.
    8880023    1    1    2    0    0  0.44096764208E+03  0.19547161783E+03  0.25445702767E+04  0.26723229060E+04  0.65864270000E+03 0.  0.
    8880022    1    1    2    0    0 -0.44096764208E+03 -0.19547161783E+03  0.17062435431E+03  0.53400930520E+03  0.15294330000E+03 0.  0.
<mgrwt>
<rscale>  0 0.72436834E+03</rscale>
<asrwt>0</asrwt>
<pdfrwt beam="1">  1        2 0.45550207E+00 0.81637725E+03</pdfrwt>
<pdfrwt beam="2">  1       -2 0.37779813E-01 0.81637725E+03</pdfrwt>
<totfact> 0.12776748E+01</totfact>
</mgrwt>
</event>
<event>
 4    1  0.6502538E-008  0.1116775E+04  0.7818608E-02  0.9242606E-01
         -2   -1    0    0    0  501 -0.00000000000E+00  0.00000000000E+00  0.16596248995E+04  0.16596248995E+04  0.25500000000E-02 0.  1.
          2   -1    0    0  501    0  0.00000000000E+00 -0.00000000000E+00 -0.71012608843E+03  0.71012608843E+03  0.25500000000E-02 0. -1.
    8880023    1    1    2    0    0  0.58468724861E+03  0.68667023264E+03  0.99757820999E+02  0.11212212164E+04  0.65864270000E+03 0.  0.
    8880022    1    1    2    0    0 -0.58468724861E+03 -0.68667023264E+03  0.84974099009E+03  0.12485297715E+04  0.15294330000E+03 0.  0.
<mgrwt>
<rscale>  0 0.10624284E+04</rscale>
<asrwt>0</asrwt>
<pdfrwt beam="1">  1        2 0.10925017E+00 0.11167745E+04</pdfrwt>
<pdfrwt beam="2">  1       -2 0.25532690E+00 0.11167745E+04</pdfrwt>
<totfact> 0.23649049E+00</totfact>
</mgrwt>
</event>
<event>
 4    1  0.6502538E-008  0.7218786E+03  0.7818608E-02  0.9916280E-01
         -2   -1    0    0    0  501 -0.00000000000E+00  0.00000000000E+00  0.51558946791E+03  0.51558946792E+03  0.25500000000E-02 0.  1.
          2   -1    0    0  501    0  0.00000000000E+00 -0.00000000000E+00 -0.15098467821E+04  0.15098467821E+04  0.25500000000E-02 0. -1.
    8880023    1    1    2    0    0  0.16542844584E+02 -0.29499980222E+03 -0.13546293782E+04  0.15349688947E+04  0.65864270000E+03 0. -1.
    8880022    1    1    2    0    0 -0.16542844584E+02  0.29499980222E+03  0.36037206409E+03  0.49046735529E+03  0.15294330000E+03 0.  0.
<mgrwt>
<rscale>  0 0.59478744E+03</rscale>
<asrwt>0</asrwt>
<pdfrwt beam="1">  1        2 0.23228412E+00 0.72187863E+03</pdfrwt>
<pdfrwt beam="2">  1       -2 0.79321457E-01 0.72187863E+03</pdfrwt>
<totfact> 0.18151235E+01</totfact>
</mgrwt>
</event>
<event>
 4    1  0.6502538E-008  0.7338072E+03  0.7818608E-02  0.9878368E-01
         -2   -1    0    0    0  501 -0.00000000000E+00  0.00000000000E+00  0.36578315500E+03  0.36578315501E+03  0.25500000000E-02 0.  1.
          2   -1    0    0  501    0  0.00000000000E+00 -0.00000000000E+00 -0.13558793158E+04  0.13558793158E+04  0.25500000000E-02 0. -1.
    8880023    1    1    2    0    0 -0.78184947421E+02  0.31392667965E+03 -0.11216818602E+04  0.13403892151E+04  0.65864270000E+03 0. -1.
    8880022    1    1    2    0    0  0.78184947421E+02 -0.31392667965E+03  0.13158569942E+03  0.38127325569E+03  0.15294330000E+03 0.  0.
<mgrwt>
<rscale>  0 0.61321228E+03</rscale>
<asrwt>0</asrwt>
<pdfrwt beam="1">  1        2 0.20859682E+00 0.73380723E+03</pdfrwt>
<pdfrwt beam="2">  1       -2 0.56274332E-01 0.73380723E+03</pdfrwt>
<totfact> 0.46453300E+01</totfact>
</mgrwt>
</event>
<event>
 4    1  0.6502538E-008  0.8529642E+03  0.7818608E-02  0.9606203E-01
          2   -1    0    0  501    0  0.00000000000E+00  0.00000000000E+00  0.57097572403E+03  0.57097572404E+03  0.25500000000E-02 0. -1.
         -2   -1    0    0    0  501 -0.00000000000E+00 -0.00000000000E+00 -0.21352569061E+04  0.21352569061E+04  0.25500000000E-02 0.  1.
    8880023    1    1    2    0    0  0.10781582098E+03 -0.53114351923E+03  0.18133659894E+03  0.87202686751E+03  0.65864270000E+03 0.  0.
    8880022    1    1    2    0    0 -0.10781582098E+03  0.53114351923E+03 -0.17456177810E+04  0.18342057626E+04  0.15294330000E+03 0.  0.
<mgrwt>
<rscale>  0 0.76886953E+03</rscale>
<asrwt>0</asrwt>
<pdfrwt beam="1">  1        2 0.87842420E-01 0.85296418E+03</pdfrwt>
<pdfrwt beam="2">  1       -2 0.32850106E+00 0.85296418E+03</pdfrwt>
<totfact> 0.11521188E+00</totfact>
</mgrwt>
</event>
<event>
 4    1  0.6502538E-008  0.1343730E+04  0.7818608E-02  0.9028687E-01
          2   -1    0    0  501    0  0.00000000000E+00  0.00000000000E+00  0.17300571148E+04  0.17300571148E+04  0.25500000000E-02 0. -1.
         -2   -1    0    0    0  501 -0.00000000000E+00 -0.00000000000E+00 -0.12211032230E+04  0.12211032230E+04  0.25500000000E-02 0.  1.
    8880023    1    1    2    0    0 -0.91592506558E+03 -0.72998816404E+03  0.99691332605E+03  0.16731550530E+04  0.65864270000E+03 0.  0.
    8880022    1    1    2    0    0  0.91592506558E+03  0.72998816404E+03 -0.48795943428E+03  0.12780052848E+04  0.15294330000E+03 0.  0.
<mgrwt>
<rscale>  0 0.13011082E+04</rscale>
<asrwt>0</asrwt>
<pdfrwt beam="1">  1        2 0.26616263E+00 0.13437305E+04</pdfrwt>
<pdfrwt beam="2">  1       -2 0.18786204E+00 0.13437305E+04</pdfrwt>
<totfact> 0.14448293E+00</totfact>
</mgrwt>
</event>
<event>
 4    1  0.6502538E-008  0.7088311E+03  0.7818608E-02  0.9962367E-01
          2   -1    0    0  501    0  0.00000000000E+00  0.00000000000E+00  0.31239009017E+04  0.31239009017E+04  0.25500000000E-02 0. -1.
         -2   -1    0    0    0  501 -0.00000000000E+00 -0.00000000000E+00 -0.35326190583E+03  0.35326190584E+03  0.25500000000E-02 0.  1.
    8880023    1    1    2    0    0 -0.26173960353E+03 -0.11120383461E+02  0.30090023826E+04  0.30913648810E+04  0.65864270000E+03 0. -1.
    8880022    1    1    2    0    0  0.26173960353E+03  0.11120383461E+02 -0.23836338670E+03  0.38579792653E+03  0.15294330000E+03 0.  0.
<mgrwt>
<rscale>  0 0.57331601E+03</rscale>
<asrwt>0</asrwt>
<pdfrwt beam="1">  1        2 0.48060012E+00 0.70883107E+03</pdfrwt>
<pdfrwt beam="2">  1       -2 0.54347987E-01 0.70883107E+03</pdfrwt>
<totfact> 0.49966012E+00</totfact>
</mgrwt>
</event>
<event>
 4    1  0.6502538E-008  0.1046904E+04  0.7818608E-02  0.9322612E-01
          2   -1    0    0  501    0  0.00000000000E+00  0.00000000000E+00  0.74891030663E+03  0.74891030664E+03  0.25500000000E-02 0. -1.
         -2   -1    0    0    0  501 -0.00000000000E+00 -0.00000000000E+00 -0.29883057569E+04  0.29883057569E+04  0.25500000000E-02 0.  1.
    8880023    1    1    2    0    0 -0.81179321893E+03 -0.56484520691E+02  0.28127776767E+03  0.10840323428E+04  0.65864270000E+03 0. -1.
    8880022    1    1    2    0    0  0.81179321893E+03  0.56484520691E+02 -0.25206732179E+04  0.26531837207E+04  0.15294330000E+03 0.  0.
<mgrwt>
<rscale>  0 0.98727554E+03</rscale>
<asrwt>0</asrwt>
<pdfrwt beam="1">  1        2 0.11521697E+00 0.10469045E+04</pdfrwt>
<pdfrwt beam="2">  1       -2 0.45973934E+00 0.10469045E+04</pdfrwt>
<totfact> 0.11358415E-01</totfact>
</mgrwt>
</event>
<event>
 4    1  0.6502538E-008  0.9532014E+03  0.7818608E-02  0.9445523E-01
          2   -1    0    0  501    0  0.00000000000E+00  0.00000000000E+00  0.41589902140E+03  0.41589902141E+03  0.25500000000E-02 0. -1.
         -2   -1    0    0    0  501 -0.00000000000E+00 -0.00000000000E+00 -0.17921174019E+04  0.17921174019E+04  0.25500000000E-02 0.  1.
    8880023    1    1    2    0    0  0.12225883509E+03  0.67811169757E+03 -0.48000261079E+03  0.10672372790E+04  0.65864270000E+03 0. -1.
    8880022    1    1    2    0    0 -0.12225883509E+03 -0.67811169757E+03 -0.89621576974E+03  0.11407791443E+04  0.15294330000E+03 0.  1.
<mgrwt>
<rscale>  0 0.88422171E+03</rscale>
<asrwt>0</asrwt>
<pdfrwt beam="1">  1        2 0.63984466E-01 0.95320140E+03</pdfrwt>
<pdfrwt beam="2">  1       -2 0.27571036E+00 0.95320140E+03</pdfrwt>
<totfact> 0.34353343E+00</totfact>
</mgrwt>
</event>
<event>
 4    1  0.6502538E-008  0.8408655E+03  0.7818608E-02  0.9628550E-01
          2   -1    0    0  501    0  0.00000000000E+00  0.00000000000E+00  0.17097682924E+04  0.17097682924E+04  0.25500000000E-02 0. -1.
         -2   -1    0    0    0  501 -0.00000000000E+00 -0.00000000000E+00 -0.71515896332E+03  0.71515896332E+03  0.25500000000E-02 0.  1.
    8880023    1    1    2    0    0  0.51372897252E+03  0.96577157284E+02  0.14755557870E+04  0.16983284992E+04  0.65864270000E+03 0. -1.
    8880022    1    1    2    0    0 -0.51372897252E+03 -0.96577157284E+02 -0.48094645793E+03  0.72659875648E+03  0.15294330000E+03 0.  0.
<mgrwt>
<rscale>  0 0.75435007E+03</rscale>
<asrwt>0</asrwt>
<pdfrwt beam="1">  1        2 0.26304128E+00 0.84086551E+03</pdfrwt>
<pdfrwt beam="2">  1       -2 0.11002446E+00 0.84086551E+03</pdfrwt>
<totfact> 0.64615596E+00</totfact>
</mgrwt>
</event>
<event>
 4    1  0.6502538E-008  0.9001672E+03  0.7818608E-02  0.9525763E-01
         -2   -1    0    0    0  501 -0.00000000000E+00  0.00000000000E+00  0.42835488242E+03  0.42835488242E+03  0.25500000000E-02 0.  1.
          2   -1    0    0  501    0  0.00000000000E+00 -0.00000000000E+00 -0.21116858904E+04  0.21116858904E+04  0.25500000000E-02 0. -1.
    8880023    1    1    2    0    0  0.61246715331E+03  0.37078059202E+02 -0.16819420961E+04  0.19076766543E+04  0.65864270000E+03 0. -1.
    8880022    1    1    2    0    0 -0.61246715331E+03 -0.37078059202E+02 -0.13889118938E+01  0.63236411856E+03  0.15294330000E+03 0.  1.
<mgrwt>
<rscale>  0 0.82410763E+03</rscale>
<asrwt>0</asrwt>
<pdfrwt beam="1">  1        2 0.32487475E+00 0.90016721E+03</pdfrwt>
<pdfrwt beam="2">  1       -2 0.65900752E-01 0.90016721E+03</pdfrwt>
<totfact> 0.12471364E+01</totfact>
</mgrwt>
</event>
<event>
 4    1  0.6502538E-008  0.1730216E+04  0.7818608E-02  0.8762153E-01
          2   -1    0    0  501    0  0.00000000000E+00  0.00000000000E+00  0.36236562911E+04  0.36236562911E+04  0.25500000000E-02 0. -1.
         -2   -1    0    0    0  501 -0.00000000000E+00 -0.00000000000E+00 -0.81421163166E+03  0.81421163166E+03  0.25500000000E-02 0.  1.
    8880023    1    1    2    0    0  0.27185719166E+03 -0.15766837896E+04  0.19791907769E+04  0.26288485013E+04  0.65864270000E+03 0.  0.
    8880022    1    1    2    0    0 -0.27185719166E+03  0.15766837896E+04  0.83025388260E+03  0.18090194216E+04  0.15294330000E+03 0.  0.
<mgrwt>
<rscale>  0 0.16986178E+04</rscale>
<asrwt>0</asrwt>
<pdfrwt beam="1">  1        2 0.55748557E+00 0.17302163E+04</pdfrwt>
<pdfrwt beam="2">  1       -2 0.12526333E+00 0.17302163E+04</pdfrwt>
<totfact> 0.29560398E-01</totfact>
</mgrwt>
</event>
<event>
 4    1  0.6502538E-008  0.6908143E+03  0.7818608E-02  0.1003768E+00
         -2   -1    0    0    0  501 -0.00000000000E+00  0.00000000000E+00  0.10050950313E+03  0.10050950316E+03  0.25500000000E-02 0.  1.
          2   -1    0    0  501    0  0.00000000000E+00 -0.00000000000E+00 -0.29347326185E+04  0.29347326185E+04  0.25500000000E-02 0. -1.
    8880023    1    1    2    0    0 -0.11785500795E+03  0.17182675465E+03 -0.25867410582E+04  0.26773968224E+04  0.65864270000E+03 0. -1.
    8880022    1    1    2    0    0  0.11785500795E+03 -0.17182675465E+03 -0.24748205717E+03  0.35784529918E+03  0.15294330000E+03 0.  0.
<mgrwt>
<rscale>  0 0.54028492E+03</rscale>
<asrwt>0</asrwt>
<pdfrwt beam="1">  1        2 0.45149726E+00 0.69081433E+03</pdfrwt>
<pdfrwt beam="2">  1       -2 0.15463003E-01 0.69081433E+03</pdfrwt>
<totfact> 0.67552776E+01</totfact>
</mgrwt>
</event>
<event>
 4    1  0.6502538E-008  0.1530590E+04  0.7818608E-02  0.8888332E-01
          2   -1    0    0  501    0  0.00000000000E+00  0.00000000000E+00  0.10513333867E+04  0.10513333867E+04  0.25500000000E-02 0. -1.
         -2   -1    0    0    0  501 -0.00000000000E+00 -0.00000000000E+00 -0.31908993003E+04  0.31908993003E+04  0.25500000000E-02 0.  1.
    8880023    1    1    2    0    0  0.12950857944E+04  0.48129899899E+03  0.17681441045E+03  0.15407691207E+04  0.65864270000E+03 0.  0.
    8880022    1    1    2    0    0 -0.12950857944E+04 -0.48129899899E+03 -0.23163803240E+04  0.27014635663E+04  0.15294330000E+03 0.  0.
<mgrwt>
<rscale>  0 0.14941808E+04</rscale>
<asrwt>0</asrwt>
<pdfrwt beam="1">  1        2 0.16174360E+00 0.15305901E+04</pdfrwt>
<pdfrwt beam="2">  1       -2 0.49090758E+00 0.15305901E+04</pdfrwt>
<totfact> 0.41219512E-02</totfact>
</mgrwt>
</event>
<event>
 4    1  0.6502538E-008  0.1766220E+04  0.7818608E-02  0.8741456E-01
          2   -1    0    0  501    0  0.00000000000E+00  0.00000000000E+00  0.30450536359E+04  0.30450536359E+04  0.25500000000E-02 0. -1.
         -2   -1    0    0    0  501 -0.00000000000E+00 -0.00000000000E+00 -0.13533413411E+04  0.13533413411E+04  0.25500000000E-02 0.  1.
    8880023    1    1    2    0    0 -0.14325682014E+04 -0.79590946962E+03  0.20582050047E+04  0.27121470430E+04  0.65864270000E+03 0.  0.
    8880022    1    1    2    0    0  0.14325682014E+04  0.79590946962E+03 -0.36649270984E+03  0.16862479340E+04  0.15294330000E+03 0.  0.
<mgrwt>
<rscale>  0 0.17353499E+04</rscale>
<asrwt>0</asrwt>
<pdfrwt beam="1">  1        2 0.46846978E+00 0.17662202E+04</pdfrwt>
<pdfrwt beam="2">  1       -2 0.20820636E+00 0.17662202E+04</pdfrwt>
<totfact> 0.17525545E-01</totfact>
</mgrwt>
</event>
<event>
 4    1  0.6502538E-008  0.1021226E+04  0.7818608E-02  0.9354299E-01
         -2   -1    0    0    0  501 -0.00000000000E+00  0.00000000000E+00  0.51254506560E+03  0.51254506560E+03  0.25500000000E-02 0.  1.
          2   -1    0    0  501    0  0.00000000000E+00 -0.00000000000E+00 -0.35223059247E+04  0.35223059247E+04  0.25500000000E-02 0. -1.
    8880023    1    1    2    0    0 -0.58687330218E+02  0.77823441427E+03 -0.30718383172E+04  0.32371428544E+04  0.65864270000E+03 0.  0.
    8880022    1    1    2    0    0  0.58687330218E+02 -0.77823441427E+03  0.62077458126E+02  0.79770813591E+03  0.15294330000E+03 0.  0.
<mgrwt>
<rscale>  0 0.95934044E+03</rscale>
<asrwt>0</asrwt>
<pdfrwt beam="1">  1        2 0.54189320E+00 0.10212263E+04</pdfrwt>
<pdfrwt beam="2">  1       -2 0.78853089E-01 0.10212263E+04</pdfrwt>
<totfact> 0.11557933E+00</totfact>
</mgrwt>
</event>
<event>
 4    1  0.6502538E-008  0.9806940E+03  0.7818608E-02  0.9407263E-01
         -2   -1    0    0    0  501 -0.00000000000E+00  0.00000000000E+00  0.86663978126E+03  0.86663978126E+03  0.25500000000E-02 0.  1.
          2   -1    0    0  501    0  0.00000000000E+00 -0.00000000000E+00 -0.15366089655E+04  0.15366089655E+04  0.25500000000E-02 0. -1.
    8880023    1    1    2    0    0  0.46990535470E+03 -0.55420163197E+03 -0.11558862381E+04  0.15158607102E+04  0.65864270000E+03 0.  0.
    8880022    1    1    2    0    0 -0.46990535470E+03  0.55420163197E+03  0.48591705379E+03  0.88738803655E+03  0.15294330000E+03 0.  0.
<mgrwt>
<rscale>  0 0.91480343E+03</rscale>
<asrwt>0</asrwt>
<pdfrwt beam="1">  1        2 0.23640138E+00 0.98069399E+03</pdfrwt>
<pdfrwt beam="2">  1       -2 0.13332920E+00 0.98069399E+03</pdfrwt>
<totfact> 0.49085514E+00</totfact>
</mgrwt>
</event>
<event>
 4    1  0.6502538E-008  0.8342832E+03  0.7818608E-02  0.9641055E-01
         -2   -1    0    0    0  501 -0.00000000000E+00  0.00000000000E+00  0.10337360083E+04  0.10337360083E+04  0.25500000000E-02 0.  1.
          2   -1    0    0  501    0  0.00000000000E+00 -0.00000000000E+00 -0.74444486707E+03  0.74444486707E+03  0.25500000000E-02 0. -1.
    8880023    1    1    2    0    0 -0.43740571840E+03  0.26626024524E+03 -0.38412972904E+03  0.91846836400E+03  0.65864270000E+03 0. -1.
    8880022    1    1    2    0    0  0.43740571840E+03 -0.26626024524E+03  0.67342087031E+03  0.85971251141E+03  0.15294330000E+03 0.  0.
<mgrwt>
<rscale>  0 0.74637450E+03</rscale>
<asrwt>0</asrwt>
<pdfrwt beam="1">  1        2 0.11452998E+00 0.83428322E+03</pdfrwt>
<pdfrwt beam="2">  1       -2 0.15903631E+00 0.83428322E+03</pdfrwt>
<totfact> 0.97666814E+00</totfact>
</mgrwt>
</event>
<event>
 4    1  0.6502538E-008  0.9650051E+03  0.7818608E-02  0.9428846E-01
         -2   -1    0    0    0  501 -0.00000000000E+00  0.00000000000E+00  0.12594049944E+04  0.12594049944E+04  0.25500000000E-02 0.  1.
          2   -1    0    0  501    0  0.00000000000E+00 -0.00000000000E+00 -0.22886083726E+04  0.22886083726E+04  0.25500000000E-02 0. -1.
    8880023    1    1    2    0    0 -0.68650176714E+03 -0.16167846944E+03  0.10027737892E+04  0.13916860574E+04  0.65864270000E+03 0.  1.
    8880022    1    1    2    0    0  0.68650176714E+03  0.16167846944E+03 -0.20319771675E+04  0.21563273096E+04  0.15294330000E+03 0.  0.
<mgrwt>
<rscale>  0 0.89739319E+03</rscale>
<asrwt>0</asrwt>
<pdfrwt beam="1">  1        2 0.35209359E+00 0.96500508E+03</pdfrwt>
<pdfrwt beam="2">  1       -2 0.19375461E+00 0.96500508E+03</pdfrwt>
<totfact> 0.67882073E-01</totfact>
</mgrwt>
</event>
<event>
 4    1  0.6502538E-008  0.7689594E+03  0.7818608E-02  0.9782441E-01
          2   -1    0    0  501    0  0.00000000000E+00  0.00000000000E+00  0.24484883175E+04  0.24484883175E+04  0.25500000000E-02 0. -1.
         -2   -1    0    0    0  501 -0.00000000000E+00 -0.00000000000E+00 -0.20806394633E+03  0.20806394635E+03  0.25500000000E-02 0.  1.
    8880023    1    1    2    0    0  0.48522555384E+02  0.39387052200E+03  0.20520645439E+04  0.21914076584E+04  0.65864270000E+03 0.  0.
    8880022    1    1    2    0    0 -0.48522555384E+02 -0.39387052200E+03  0.18835982727E+03  0.46514460550E+03  0.15294330000E+03 0.  0.
<mgrwt>
<rscale>  0 0.66313419E+03</rscale>
<asrwt>0</asrwt>
<pdfrwt beam="1">  1        2 0.37669051E+00 0.76895945E+03</pdfrwt>
<pdfrwt beam="2">  1       -2 0.32009838E-01 0.76895945E+03</pdfrwt>
<totfact> 0.35150263E+01</totfact>
</mgrwt>
</event>
<event>
 4    1  0.6502538E-008  0.1121571E+04  0.7818608E-02  0.9237412E-01
         -2   -1    0    0    0  501 -0.00000000000E+00  0.00000000000E+00  0.16554512326E+04  0.16554512326E+04  0.25500000000E-02 0.  1.
          2   -1    0    0  501    0  0.00000000000E+00 -0.00000000000E+00 -0.76639436100E+03  0.76639436101E+03  0.25500000000E-02 0. -1.
    8880023    1    1    2    0    0 -0.87708929652E+03 -0.23414695538E+03 -0.28689815239E+02  0.11219374949E+04  0.65864270000E+03 0. -1.
    8880022    1    1    2    0    0  0.87708929652E+03  0.23414695538E+03  0.91774668683E+03  0.12999080987E+04  0.15294330000E+03 0.  0.
<mgrwt>
<rscale>  0 0.10675484E+04</rscale>
<asrwt>0</asrwt>
<pdfrwt beam="1">  1        2 0.11790683E+00 0.11215706E+04</pdfrwt>
<pdfrwt beam="2">  1       -2 0.25468480E+00 0.11215706E+04</pdfrwt>
<totfact> 0.21598147E+00</totfact>
</mgrwt>
</event>
<event>
 4    1  0.6502538E-008  0.7191391E+03  0.7818608E-02  0.9925510E-01
          2   -1    0    0  501    0  0.00000000000E+00  0.00000000000E+00  0.64592258095E+03  0.64592258095E+03  0.25500000000E-02 0. -1.
         -2   -1    0    0    0  501 -0.00000000000E+00 -0.00000000000E+00 -0.83116768907E+03  0.83116768907E+03  0.25500000000E-02 0.  1.
    8880023    1    1    2    0    0 -0.10895072177E+03  0.26735854186E+03  0.38810836845E+03  0.81718367679E+03  0.65864270000E+03 0. -1.
    8880022    1    1    2    0    0  0.10895072177E+03 -0.26735854186E+03 -0.57335347657E+03  0.65990659324E+03  0.15294330000E+03 0.  0.
<mgrwt>
<rscale>  0 0.59040748E+03</rscale>
<asrwt>0</asrwt>
<pdfrwt beam="1">  1        2 0.99372704E-01 0.71913911E+03</pdfrwt>
<pdfrwt beam="2">  1       -2 0.12787195E+00 0.71913911E+03</pdfrwt>
<totfact> 0.20857463E+01</totfact>
</mgrwt>
</event>
<event>
 4    1  0.6502538E-008  0.7854623E+03  0.7818608E-02  0.9743159E-01
         -2   -1    0    0    0  501 -0.00000000000E+00  0.00000000000E+00  0.44367442339E+03  0.44367442340E+03  0.25500000000E-02 0.  1.
          2   -1    0    0  501    0  0.00000000000E+00 -0.00000000000E+00 -0.11918117026E+04  0.11918117026E+04  0.25500000000E-02 0. -1.
    8880023    1    1    2    0    0  0.39332837811E+03 -0.16862250171E+03 -0.86280627048E+03  0.11667843107E+04  0.65864270000E+03 0.  1.
    8880022    1    1    2    0    0 -0.39332837811E+03  0.16862250171E+03  0.11466899124E+03  0.46870181531E+03  0.15294330000E+03 0.  0.
<mgrwt>
<rscale>  0 0.68504251E+03</rscale>
<asrwt>0</asrwt>
<pdfrwt beam="1">  1        2 0.18335565E+00 0.78546226E+03</pdfrwt>
<pdfrwt beam="2">  1       -2 0.68257604E-01 0.78546226E+03</pdfrwt>
<totfact> 0.38174900E+01</totfact>
</mgrwt>
</event>
<event>
 4    1  0.6502538E-008  0.1032343E+04  0.7818608E-02  0.9340415E-01
         -2   -1    0    0    0  501 -0.00000000000E+00  0.00000000000E+00  0.11224468445E+04  0.11224468445E+04  0.25500000000E-02 0.  1.
          2   -1    0    0  501    0  0.00000000000E+00 -0.00000000000E+00 -0.12068775310E+04  0.12068775310E+04  0.25500000000E-02 0. -1.
    8880023    1    1    2    0    0 -0.68591165340E+03  0.40180385288E+03 -0.75433144364E+03  0.12785723545E+04  0.65864270000E+03 0.  0.
    8880022    1    1    2    0    0  0.68591165340E+03 -0.40180385288E+03  0.66990075712E+03  0.10507520211E+04  0.15294330000E+03 0.  0.
<mgrwt>
<rscale>  0 0.97145789E+03</rscale>
<asrwt>0</asrwt>
<pdfrwt beam="1">  1        2 0.18567347E+00 0.10323426E+04</pdfrwt>
<pdfrwt beam="2">  1       -2 0.17268413E+00 0.10323426E+04</pdfrwt>
<totfact> 0.37808347E+00</totfact>
</mgrwt>
</event>
<event>
 4    1  0.6502538E-008  0.1177132E+04  0.7818608E-02  0.9179678E-01
         -2   -1    0    0    0  501 -0.00000000000E+00  0.00000000000E+00  0.12103985836E+04  0.12103985836E+04  0.25500000000E-02 0.  1.
          2   -1    0    0  501    0  0.00000000000E+00 -0.00000000000E+00 -0.97015970813E+03  0.97015970813E+03  0.25500000000E-02 0. -1.
    8880023    1    1    2    0    0  0.49106168930E+03  0.84302328626E+03  0.18399103236E+03  0.11914246724E+04  0.65864270000E+03 0. -1.
    8880022    1    1    2    0    0 -0.49106168930E+03 -0.84302328626E+03  0.56247843081E+02  0.98913361925E+03  0.15294330000E+03 0.  1.
<mgrwt>
<rscale>  0 0.11265665E+04</rscale>
<asrwt>0</asrwt>
<pdfrwt beam="1">  1        2 0.14925534E+00 0.11771321E+04</pdfrwt>
<pdfrwt beam="2">  1       -2 0.18621517E+00 0.11771321E+04</pdfrwt>
<totfact> 0.42212884E+00</totfact>
</mgrwt>
</event>
<event>
 4    1  0.6502538E-008  0.1093093E+04  0.7818608E-02  0.9268786E-01
          2   -1    0    0  501    0  0.00000000000E+00  0.00000000000E+00  0.14376690910E+04  0.14376690910E+04  0.25500000000E-02 0. -1.
         -2   -1    0    0    0  501 -0.00000000000E+00 -0.00000000000E+00 -0.21236761929E+04  0.21236761929E+04  0.25500000000E-02 0.  1.
    8880023    1    1    2    0    0 -0.77946962944E+03  0.39175055040E+03  0.11105968159E+04  0.15582929412E+04  0.65864270000E+03 0.  0.
    8880022    1    1    2    0    0  0.77946962944E+03 -0.39175055040E+03 -0.17966039178E+04  0.20030523426E+04  0.15294330000E+03 0.  0.
<mgrwt>
<rscale>  0 0.10370799E+04</rscale>
<asrwt>0</asrwt>
<pdfrwt beam="1">  1        2 0.22117986E+00 0.10930927E+04</pdfrwt>
<pdfrwt beam="2">  1       -2 0.32671941E+00 0.10930927E+04</pdfrwt>
<totfact> 0.29774022E-01</totfact>
</mgrwt>
</event>
<event>
 4    1  0.6502538E-008  0.9009565E+03  0.7818608E-02  0.9524498E-01
          2   -1    0    0  501    0  0.00000000000E+00  0.00000000000E+00  0.10803971136E+04  0.10803971136E+04  0.25500000000E-02 0. -1.
         -2   -1    0    0    0  501 -0.00000000000E+00 -0.00000000000E+00 -0.12434956710E+04  0.12434956710E+04  0.25500000000E-02 0.  1.
    8880023    1    1    2    0    0 -0.36954604838E+03  0.49127188695E+03  0.77736928931E+03  0.11899687252E+04  0.65864270000E+03 0.  0.
    8880022    1    1    2    0    0  0.36954604838E+03 -0.49127188695E+03 -0.94046784669E+03  0.11339240594E+04  0.15294330000E+03 0.  0.
<mgrwt>
<rscale>  0 0.82501537E+03</rscale>
<asrwt>0</asrwt>
<pdfrwt beam="1">  1        2 0.16621494E+00 0.90095647E+03</pdfrwt>
<pdfrwt beam="2">  1       -2 0.19130703E+00 0.90095647E+03</pdfrwt>
<totfact> 0.34143344E+00</totfact>
</mgrwt>
</event>
<event>
 4    1  0.6502538E-008  0.7256848E+03  0.7818608E-02  0.9903800E-01
         -2   -1    0    0    0  501 -0.00000000000E+00  0.00000000000E+00  0.44556241133E+03  0.44556241134E+03  0.25500000000E-02 0.  1.
          2   -1    0    0  501    0  0.00000000000E+00 -0.00000000000E+00 -0.16207456381E+04  0.16207456381E+04  0.25500000000E-02 0. -1.
    8880023    1    1    2    0    0 -0.12844951354E+03 -0.27624069308E+03 -0.14545821700E+04  0.16255545803E+04  0.65864270000E+03 0. -1.
    8880022    1    1    2    0    0  0.12844951354E+03  0.27624069308E+03  0.27939894323E+03  0.44075346912E+03  0.15294330000E+03 0.  0.
<mgrwt>
<rscale>  0 0.60077480E+03</rscale>
<asrwt>0</asrwt>
<pdfrwt beam="1">  1        2 0.24934548E+00 0.72568478E+03</pdfrwt>
<pdfrwt beam="2">  1       -2 0.68548064E-01 0.72568478E+03</pdfrwt>
<totfact> 0.21745498E+01</totfact>
</mgrwt>
</event>
<event>
 4    1  0.6502538E-008  0.1164680E+04  0.7818608E-02  0.9192245E-01
          2   -1    0    0  501    0  0.00000000000E+00  0.00000000000E+00  0.12212174690E+04  0.12212174690E+04  0.25500000000E-02 0. -1.
         -2   -1    0    0    0  501 -0.00000000000E+00 -0.00000000000E+00 -0.11113384344E+04  0.11113384344E+04  0.25500000000E-02 0.  1.
    8880023    1    1    2    0    0 -0.95076950881E+03 -0.13676863231E+03 -0.40366923120E+03  0.12326505475E+04  0.65864270000E+03 0.  1.
    8880022    1    1    2    0    0  0.95076950881E+03  0.13676863231E+03  0.51354826581E+03  0.10999053559E+04  0.15294330000E+03 0.  0.
<mgrwt>
<rscale>  0 0.11133832E+04</rscale>
<asrwt>0</asrwt>
<pdfrwt beam="1">  1        2 0.18787961E+00 0.11646796E+04</pdfrwt>
<pdfrwt beam="2">  1       -2 0.17097514E+00 0.11646796E+04</pdfrwt>
<totfact> 0.37616962E+00</totfact>
</mgrwt>
</event>
<event>
 4    1  0.6502538E-008  0.8531301E+03  0.7818608E-02  0.9605902E-01
         -2   -1    0    0    0  501 -0.00000000000E+00  0.00000000000E+00  0.22627053442E+03  0.22627053444E+03  0.25500000000E-02 0.  1.
          2   -1    0    0  501    0  0.00000000000E+00 -0.00000000000E+00 -0.22404480560E+04  0.22404480560E+04  0.25500000000E-02 0. -1.
    8880023    1    1    2    0    0  0.45261206468E+02  0.54034452348E+03 -0.13345367428E+04  0.15839252839E+04  0.65864270000E+03 0.  1.
    8880022    1    1    2    0    0 -0.45261206468E+02 -0.54034452348E+03 -0.67964077877E+03  0.88279330652E+03  0.15294330000E+03 0. -1.
<mgrwt>
<rscale>  0 0.76906748E+03</rscale>
<asrwt>0</asrwt>
<pdfrwt beam="1">  1        2 0.34468430E+00 0.85313011E+03</pdfrwt>
<pdfrwt beam="2">  1       -2 0.34810853E-01 0.85313011E+03</pdfrwt>
<totfact> 0.38795512E+01</totfact>
</mgrwt>
</event>
<event>
 4    1  0.6502538E-008  0.1257666E+04  0.7818608E-02  0.9103008E-01
         -2   -1    0    0    0  501 -0.00000000000E+00  0.00000000000E+00  0.85078358950E+03  0.85078358950E+03  0.25500000000E-02 0.  1.
          2   -1    0    0  501    0  0.00000000000E+00 -0.00000000000E+00 -0.18569355475E+04  0.18569355475E+04  0.25500000000E-02 0. -1.
    8880023    1    1    2    0    0  0.43515450316E+03 -0.97905809930E+03 -0.42149777509E+02  0.12583723668E+04  0.65864270000E+03 0.  0.
    8880022    1    1    2    0    0 -0.43515450316E+03  0.97905809930E+03 -0.96400218053E+03  0.14493467703E+04  0.15294330000E+03 0.  0.
<mgrwt>
<rscale>  0 0.12113171E+04</rscale>
<asrwt>0</asrwt>
<pdfrwt beam="1">  1        2 0.28568239E+00 0.12576663E+04</pdfrwt>
<pdfrwt beam="2">  1       -2 0.13088978E+00 0.12576663E+04</pdfrwt>
<totfact> 0.33175751E+00</totfact>
</mgrwt>
</event>
<event>
 4    1  0.6562966E-008  0.1257282E+04  0.7818608E-02  0.9103356E-01
          2   -1    0    0  501    0  0.00000000000E+00  0.00000000000E+00  0.32838375677E+04  0.32838375677E+04  0.25500000000E-02 0. -1.
         -2   -1    0    0    0  501 -0.00000000000E+00 -0.00000000000E+00 -0.12406230057E+04  0.12406230057E+04  0.25500000000E-02 0.  1.
    8880023    1    1    2    0    0  0.10369722418E+04 -0.26765124718E+03  0.28893445828E+04  0.31510428345E+04  0.65864270000E+03 0.  0.
    8880022    1    1    2    0    0 -0.10369722418E+04  0.26765124718E+03 -0.84613002087E+03  0.13734177389E+04  0.15294330000E+03 0.  0.
<mgrwt>
<rscale>  0 0.12109149E+04</rscale>
<asrwt>0</asrwt>
<pdfrwt beam="1">  1        2 0.50520578E+00 0.12572823E+04</pdfrwt>
<pdfrwt beam="2">  1       -2 0.19086508E+00 0.12572823E+04</pdfrwt>
<totfact> 0.17098510E-01</totfact>
</mgrwt>
</event>
<event>
 4    1  0.6502538E-008  0.9716736E+03  0.7818608E-02  0.9419593E-01
         -2   -1    0    0    0  501 -0.00000000000E+00  0.00000000000E+00  0.35981867431E+03  0.35981867432E+03  0.25500000000E-02 0.  1.
          2   -1    0    0  501    0  0.00000000000E+00 -0.00000000000E+00 -0.26125894613E+04  0.26125894613E+04  0.25500000000E-02 0. -1.
    8880023    1    1    2    0    0 -0.71425463152E+03 -0.13404841866E+02 -0.19556341749E+04  0.21837249371E+04  0.65864270000E+03 0. -1.
    8880022    1    1    2    0    0  0.71425463152E+03  0.13404841866E+02 -0.29713661207E+03  0.78868319855E+03  0.15294330000E+03 0.  0.
<mgrwt>
<rscale>  0 0.90480628E+03</rscale>
<asrwt>0</asrwt>
<pdfrwt beam="1">  1        2 0.40193683E+00 0.97167359E+03</pdfrwt>
<pdfrwt beam="2">  1       -2 0.55356721E-01 0.97167359E+03</pdfrwt>
<totfact> 0.93413419E+00</totfact>
</mgrwt>
</event>
<event>
 4    1  0.6502538E-008  0.9870203E+03  0.7818608E-02  0.9398740E-01
          2   -1    0    0  501    0  0.00000000000E+00  0.00000000000E+00  0.12510939519E+04  0.12510939519E+04  0.25500000000E-02 0. -1.
         -2   -1    0    0    0  501 -0.00000000000E+00 -0.00000000000E+00 -0.10418065486E+04  0.10418065486E+04  0.25500000000E-02 0.  1.
    8880023    1    1    2    0    0  0.22716301490E+03  0.69913929044E+03  0.85249801356E+03  0.13042092823E+04  0.65864270000E+03 0.  1.
    8880022    1    1    2    0    0 -0.22716301490E+03 -0.69913929044E+03 -0.64321061020E+03  0.98869121816E+03  0.15294330000E+03 0.  0.
<mgrwt>
<rscale>  0 0.92179482E+03</rscale>
<asrwt>0</asrwt>
<pdfrwt beam="1">  1        2 0.19247599E+00 0.98702026E+03</pdfrwt>
<pdfrwt beam="2">  1       -2 0.16027793E+00 0.98702026E+03</pdfrwt>
<totfact> 0.43957934E+00</totfact>
</mgrwt>
</event>
<event>
 4    1  0.6502538E-008  0.6916282E+03  0.7818608E-02  0.1003388E+00
          2   -1    0    0  501    0  0.00000000000E+00  0.00000000000E+00  0.14728111110E+04  0.14728111110E+04  0.25500000000E-02 0. -1.
         -2   -1    0    0    0  501 -0.00000000000E+00 -0.00000000000E+00 -0.34657939076E+03  0.34657939077E+03  0.25500000000E-02 0.  1.
    8880023    1    1    2    0    0 -0.16707006307E+03 -0.12894560910E+03  0.13229619148E+04  0.14928421920E+04  0.65864270000E+03 0. -1.
    8880022    1    1    2    0    0  0.16707006307E+03  0.12894560910E+03 -0.19673019459E+03  0.32654830969E+03  0.15294330000E+03 0.  0.
<mgrwt>
<rscale>  0 0.54189239E+03</rscale>
<asrwt>0</asrwt>
<pdfrwt beam="1">  1        2 0.22658632E+00 0.69162821E+03</pdfrwt>
<pdfrwt beam="2">  1       -2 0.53319906E-01 0.69162821E+03</pdfrwt>
<totfact> 0.44843419E+01</totfact>
</mgrwt>
</event>
<event>
 4    1  0.6502538E-008  0.6978195E+03  0.7818608E-02  0.1000637E+00
          2   -1    0    0  501    0  0.00000000000E+00  0.00000000000E+00  0.24898480125E+04  0.24898480125E+04  0.25500000000E-02 0. -1.
         -2   -1    0    0    0  501 -0.00000000000E+00 -0.00000000000E+00 -0.26116167045E+03  0.26116167046E+03  0.25500000000E-02 0.  1.
    8880023    1    1    2    0    0  0.21934408280E+03 -0.70922276001E+02  0.23481692025E+04  0.24496633658E+04  0.65864270000E+03 0. -1.
    8880022    1    1    2    0    0 -0.21934408280E+03  0.70922276001E+02 -0.11948286048E+03  0.30134631714E+03  0.15294330000E+03 0.  0.
<mgrwt>
<rscale>  0 0.55371810E+03</rscale>
<asrwt>0</asrwt>
<pdfrwt beam="1">  1        2 0.38305356E+00 0.69781946E+03</pdfrwt>
<pdfrwt beam="2">  1       -2 0.40178716E-01 0.69781946E+03</pdfrwt>
<totfact> 0.21797148E+01</totfact>
</mgrwt>
</event>
<event>
 4    1  0.6502538E-008  0.6994153E+03  0.7818608E-02  0.9999635E-01
         -2   -1    0    0    0  501 -0.00000000000E+00  0.00000000000E+00  0.50545520291E+03  0.50545520292E+03  0.25500000000E-02 0.  1.
          2   -1    0    0  501    0  0.00000000000E+00 -0.00000000000E+00 -0.21709586947E+04  0.21709586947E+04  0.25500000000E-02 0. -1.
    8880023    1    1    2    0    0 -0.21959435643E+03  0.84557158835E+02 -0.20695052910E+04  0.21844985581E+04  0.65864270000E+03 0. -1.
    8880022    1    1    2    0    0  0.21959435643E+03 -0.84557158835E+02  0.40400179922E+03  0.49191533954E+03  0.15294330000E+03 0.  0.
<mgrwt>
<rscale>  0 0.55666230E+03</rscale>
<asrwt>0</asrwt>
<pdfrwt beam="1">  1        2 0.33399364E+00 0.69941533E+03</pdfrwt>
<pdfrwt beam="2">  1       -2 0.77762340E-01 0.69941533E+03</pdfrwt>
<totfact> 0.82835979E+00</totfact>
</mgrwt>
</event>
<event>
 4    1  0.6502538E-008  0.1643681E+04  0.7818608E-02  0.8814322E-01
         -2   -1    0    0    0  501 -0.00000000000E+00  0.00000000000E+00  0.10832323089E+04  0.10832323089E+04  0.25500000000E-02 0.  1.
          2   -1    0    0  501    0  0.00000000000E+00 -0.00000000000E+00 -0.23488392781E+04  0.23488392781E+04  0.25500000000E-02 0. -1.
    8880023    1    1    2    0    0  0.14710754027E+04 -0.32220405770E+03 -0.41300494046E+03  0.16947747881E+04  0.65864270000E+03 0.  0.
    8880022    1    1    2    0    0 -0.14710754027E+04  0.32220405770E+03 -0.85260202870E+03  0.17372967989E+04  0.15294330000E+03 0.  0.
<mgrwt>
<rscale>  0 0.16101738E+04</rscale>
<asrwt>0</asrwt>
<pdfrwt beam="1">  1        2 0.36135989E+00 0.16436814E+04</pdfrwt>
<pdfrwt beam="2">  1       -2 0.16665113E+00 0.16436814E+04</pdfrwt>
<totfact> 0.89028433E-01</totfact>
</mgrwt>
</event>
<event>
 4    1  0.6502538E-008  0.8692110E+03  0.7818608E-02  0.9577384E-01
         -2   -1    0    0    0  501 -0.00000000000E+00  0.00000000000E+00  0.36383557040E+03  0.36383557041E+03  0.25500000000E-02 0.  1.
          2   -1    0    0  501    0  0.00000000000E+00 -0.00000000000E+00 -0.19088283493E+04  0.19088283493E+04  0.25500000000E-02 0. -1.
    8880023    1    1    2    0    0 -0.47558410071E+03  0.30909098127E+03 -0.14309156724E+04  0.16742303722E+04  0.65864270000E+03 0.  0.
    8880022    1    1    2    0    0  0.47558410071E+03 -0.30909098127E+03 -0.11407710656E+03  0.59843354753E+03  0.15294330000E+03 0.  0.
<mgrwt>
<rscale>  0 0.78811292E+03</rscale>
<asrwt>0</asrwt>
<pdfrwt beam="1">  1        2 0.29366589E+00 0.86921095E+03</pdfrwt>
<pdfrwt beam="2">  1       -2 0.55974704E-01 0.86921095E+03</pdfrwt>
<totfact> 0.22876882E+01</totfact>
</mgrwt>
</event>
<event>
 4    1  0.6502538E-008  0.6871457E+03  0.7818608E-02  0.1005540E+00
          2   -1    0    0  501    0  0.00000000000E+00  0.00000000000E+00  0.18696280883E+03  0.18696280885E+03  0.25500000000E-02 0. -1.
         -2   -1    0    0    0  501 -0.00000000000E+00 -0.00000000000E+00 -0.12599858105E+04  0.12599858105E+04  0.25500000000E-02 0.  1.
    8880023    1    1    2    0    0  0.15080844927E+03  0.12496310955E+03 -0.59828280597E+03  0.91110454356E+03  0.65864270000E+03 0.  0.
    8880022    1    1    2    0    0 -0.15080844927E+03 -0.12496310955E+03 -0.47474019567E+03  0.53584407576E+03  0.15294330000E+03 0.  0.
<mgrwt>
<rscale>  0 0.53286449E+03</rscale>
<asrwt>0</asrwt>
<pdfrwt beam="1">  1        2 0.28763510E-01 0.68714567E+03</pdfrwt>
<pdfrwt beam="2">  1       -2 0.19384397E+00 0.68714567E+03</pdfrwt>
<totfact> 0.27822904E+01</totfact>
</mgrwt>
</event>
<event>
 4    1  0.6502538E-008  0.9651464E+03  0.7818608E-02  0.9428649E-01
         -2   -1    0    0    0  501 -0.00000000000E+00  0.00000000000E+00  0.50077472977E+03  0.50077472978E+03  0.25500000000E-02 0.  1.
          2   -1    0    0  501    0  0.00000000000E+00 -0.00000000000E+00 -0.16006020344E+04  0.16006020344E+04  0.25500000000E-02 0. -1.
    8880023    1    1    2    0    0 -0.25852553925E+03 -0.65640074222E+03 -0.96919150165E+03  0.13677864460E+04  0.65864270000E+03 0.  0.
    8880022    1    1    2    0    0  0.25852553925E+03  0.65640074222E+03 -0.13063580297E+03  0.73359031813E+03  0.15294330000E+03 0.  0.
<mgrwt>
<rscale>  0 0.89755050E+03</rscale>
<asrwt>0</asrwt>
<pdfrwt beam="1">  1        2 0.24624646E+00 0.96514641E+03</pdfrwt>
<pdfrwt beam="2">  1       -2 0.77042267E-01 0.96514641E+03</pdfrwt>
<totfact> 0.16785945E+01</totfact>
</mgrwt>
</event>
<event>
 4    1  0.6502538E-008  0.9300321E+03  0.7818608E-02  0.9479445E-01
         -2   -1    0    0    0  501 -0.00000000000E+00  0.00000000000E+00  0.25858721963E+03  0.25858721964E+03  0.25500000000E-02 0.  1.
          2   -1    0    0  501    0  0.00000000000E+00 -0.00000000000E+00 -0.36544590437E+04  0.36544590437E+04  0.25500000000E-02 0. -1.
    8880023    1    1    2    0    0 -0.60195322373E+03  0.26230117003E+03 -0.29780108374E+04  0.31198571027E+04  0.65864270000E+03 0.  0.
    8880022    1    1    2    0    0  0.60195322373E+03 -0.26230117003E+03 -0.41786098667E+03  0.79318916064E+03  0.15294330000E+03 0.  0.
<mgrwt>
<rscale>  0 0.85816368E+03</rscale>
<asrwt>0</asrwt>
<pdfrwt beam="1">  1        2 0.56222443E+00 0.93003215E+03</pdfrwt>
<pdfrwt beam="2">  1       -2 0.39782652E-01 0.93003215E+03</pdfrwt>
<totfact> 0.39724868E+00</totfact>
</mgrwt>
</event>
<event>
 4    1  0.6502538E-008  0.8383142E+03  0.7818608E-02  0.9633367E-01
         -2   -1    0    0    0  501 -0.00000000000E+00  0.00000000000E+00  0.10955475642E+04  0.10955475642E+04  0.25500000000E-02 0.  1.
          2   -1    0    0  501    0  0.00000000000E+00 -0.00000000000E+00 -0.10498039737E+04  0.10498039737E+04  0.25500000000E-02 0. -1.
    8880023    1    1    2    0    0  0.38255553150E+03 -0.35015961998E+03 -0.78872365226E+03  0.11510237617E+04  0.65864270000E+03 0.  0.
    8880022    1    1    2    0    0 -0.38255553150E+03  0.35015961998E+03  0.83446724283E+03  0.99432777620E+03  0.15294330000E+03 0.  0.
<mgrwt>
<rscale>  0 0.75126543E+03</rscale>
<asrwt>0</asrwt>
<pdfrwt beam="1">  1        2 0.16150830E+00 0.83831420E+03</pdfrwt>
<pdfrwt beam="2">  1       -2 0.16854578E+00 0.83831420E+03</pdfrwt>
<totfact> 0.51579341E+00</totfact>
</mgrwt>
</event>
<event>
 4    1  0.6502538E-008  0.8775475E+03  0.7818608E-02  0.9563081E-01
          2   -1    0    0  501    0  0.00000000000E+00  0.00000000000E+00  0.14995722622E+04  0.14995722622E+04  0.25500000000E-02 0. -1.
         -2   -1    0    0    0  501 -0.00000000000E+00 -0.00000000000E+00 -0.57637147164E+03  0.57637147165E+03  0.25500000000E-02 0.  1.
    8880023    1    1    2    0    0  0.46308135718E+03 -0.34904874217E+03  0.11396405252E+04  0.14383567363E+04  0.65864270000E+03 0.  0.
    8880022    1    1    2    0    0 -0.46308135718E+03  0.34904874217E+03 -0.21643973464E+03  0.63758699761E+03  0.15294330000E+03 0.  0.
<mgrwt>
<rscale>  0 0.79788656E+03</rscale>
<asrwt>0</asrwt>
<pdfrwt beam="1">  1        2 0.23070342E+00 0.87754748E+03</pdfrwt>
<pdfrwt beam="2">  1       -2 0.88672534E-01 0.87754748E+03</pdfrwt>
<totfact> 0.14014320E+01</totfact>
</mgrwt>
</event>
<event>
 4    1  0.6502538E-008  0.8644493E+03  0.7818608E-02  0.9585697E-01
          2   -1    0    0  501    0  0.00000000000E+00  0.00000000000E+00  0.17939992268E+04  0.17939992268E+04  0.25500000000E-02 0. -1.
         -2   -1    0    0    0  501 -0.00000000000E+00 -0.00000000000E+00 -0.62923596723E+03  0.62923596723E+03  0.25500000000E-02 0.  1.
    8880023    1    1    2    0    0 -0.51303516066E+03  0.22418144366E+03  0.15157798329E+04  0.17449530377E+04  0.65864270000E+03 0. -1.
    8880022    1    1    2    0    0  0.51303516066E+03 -0.22418144366E+03 -0.35101657336E+03  0.67828215629E+03  0.15294330000E+03 0.  0.
<mgrwt>
<rscale>  0 0.78250094E+03</rscale>
<asrwt>0</asrwt>
<pdfrwt beam="1">  1        2 0.27599988E+00 0.86444931E+03</pdfrwt>
<pdfrwt beam="2">  1       -2 0.96805535E-01 0.86444931E+03</pdfrwt>
<totfact> 0.78669820E+00</totfact>
</mgrwt>
</event>
<event>
 4    1  0.6502538E-008  0.8111367E+03  0.7818608E-02  0.9687214E-01
         -2   -1    0    0    0  501 -0.00000000000E+00  0.00000000000E+00  0.13814406099E+03  0.13814406101E+03  0.25500000000E-02 0.  1.
          2   -1    0    0  501    0  0.00000000000E+00 -0.00000000000E+00 -0.41985480287E+04  0.41985480287E+04  0.25500000000E-02 0. -1.
    8880023    1    1    2    0    0  0.22352785919E+03 -0.41733419681E+03 -0.34750968869E+04  0.35685068467E+04  0.65864270000E+03 0.  0.
    8880022    1    1    2    0    0 -0.22352785919E+03  0.41733419681E+03 -0.58530708085E+03  0.76818524300E+03  0.15294330000E+03 0.  0.
<mgrwt>
<rscale>  0 0.71783188E+03</rscale>
<asrwt>0</asrwt>
<pdfrwt beam="1">  1        2 0.64593037E+00 0.81113670E+03</pdfrwt>
<pdfrwt beam="2">  1       -2 0.21252936E-01 0.81113670E+03</pdfrwt>
<totfact> 0.49168844E+00</totfact>
</mgrwt>
</event>
<event>
 4    1  0.6502538E-008  0.7145910E+03  0.7818608E-02  0.9941332E-01
         -2   -1    0    0    0  501 -0.00000000000E+00  0.00000000000E+00  0.34574100731E+03  0.34574100732E+03  0.25500000000E-02 0.  1.
          2   -1    0    0  501    0  0.00000000000E+00 -0.00000000000E+00 -0.31331623052E+04  0.31331623052E+04  0.25500000000E-02 0. -1.
    8880023    1    1    2    0    0  0.16365391495E+03 -0.22371287110E+03 -0.30088687235E+04  0.30925606306E+04  0.65864270000E+03 0.  0.
    8880022    1    1    2    0    0 -0.16365391495E+03  0.22371287110E+03  0.22144742558E+03  0.38634268193E+03  0.15294330000E+03 0.  0.
<mgrwt>
<rscale>  0 0.58299304E+03</rscale>
<asrwt>0</asrwt>
<pdfrwt beam="1">  1        2 0.48202495E+00 0.71459097E+03</pdfrwt>
<pdfrwt beam="2">  1       -2 0.53190926E-01 0.71459097E+03</pdfrwt>
<totfact> 0.51479663E+00</totfact>
</mgrwt>
</event>
<event>
 4    1  0.6502538E-008  0.7647739E+03  0.7818608E-02  0.9792902E-01
          2   -1    0    0  501    0  0.00000000000E+00  0.00000000000E+00  0.30130536357E+04  0.30130536357E+04  0.25500000000E-02 0. -1.
         -2   -1    0    0    0  501 -0.00000000000E+00 -0.00000000000E+00 -0.30846902471E+03  0.30846902472E+03  0.25500000000E-02 0.  1.
    8880023    1    1    2    0    0 -0.38821664847E+03  0.18886662790E+02  0.27919494570E+04  0.28947989307E+04  0.65864270000E+03 0. -1.
    8880022    1    1    2    0    0  0.38821664847E+03 -0.18886662790E+02 -0.87364846051E+02  0.42672372974E+03  0.15294330000E+03 0.  0.
<mgrwt>
<rscale>  0 0.65744879E+03</rscale>
<asrwt>0</asrwt>
<pdfrwt beam="1">  1        2 0.46354671E+00 0.76477387E+03</pdfrwt>
<pdfrwt beam="2">  1       -2 0.47456774E-01 0.76477387E+03</pdfrwt>
<totfact> 0.76358029E+00</totfact>
</mgrwt>
</event>
<event>
 4    1  0.6502538E-008  0.7454845E+03  0.7818608E-02  0.9844250E-01
          2   -1    0    0  501    0  0.00000000000E+00  0.00000000000E+00  0.13495062460E+04  0.13495062460E+04  0.25500000000E-02 0. -1.
         -2   -1    0    0    0  501 -0.00000000000E+00 -0.00000000000E+00 -0.41482853085E+03  0.41482853086E+03  0.25500000000E-02 0.  1.
    8880023    1    1    2    0    0 -0.70579377324E+02 -0.34198744440E+03 -0.10091203541E+02  0.74555274748E+03  0.65864270000E+03 0.  1.
    8880022    1    1    2    0    0  0.70579377324E+02  0.34198744440E+03  0.94476891865E+03  0.10187820293E+04  0.15294330000E+03 0.  0.
<mgrwt>
<rscale>  0 0.63040957E+03</rscale>
<asrwt>0</asrwt>
<pdfrwt beam="1">  1        2 0.20761635E+00 0.74548445E+03</pdfrwt>
<pdfrwt beam="2">  1       -2 0.63819773E-01 0.74548445E+03</pdfrwt>
<totfact> 0.35871769E+01</totfact>
</mgrwt>
</event>
<event>
 4    1  0.6502538E-008  0.6639776E+03  0.7818608E-02  0.1020407E+00
          2   -1    0    0  501    0  0.00000000000E+00  0.00000000000E+00  0.14160608468E+04  0.14160608468E+04  0.25500000000E-02 0. -1.
         -2   -1    0    0    0  501 -0.00000000000E+00 -0.00000000000E+00 -0.20533749801E+03  0.20533749802E+03  0.25500000000E-02 0.  1.
    8880023    1    1    2    0    0  0.26667113857E+02 -0.79655116894E+02  0.12733018249E+04  0.14360236127E+04  0.65864270000E+03 0. -1.
    8880022    1    1    2    0    0 -0.26667113857E+02  0.79655116894E+02 -0.62578476161E+02  0.18537473210E+03  0.15294330000E+03 0.  0.
<mgrwt>
<rscale>  0 0.47540029E+03</rscale>
<asrwt>0</asrwt>
<pdfrwt beam="1">  1        2 0.21785552E+00 0.66397762E+03</pdfrwt>
<pdfrwt beam="2">  1       -2 0.31590384E-01 0.66397762E+03</pdfrwt>
<totfact> 0.13490347E+02</totfact>
</mgrwt>
</event>
<event>
 4    1  0.6502538E-008  0.6924095E+03  0.7818608E-02  0.1003028E+00
         -2   -1    0    0    0  501 -0.00000000000E+00  0.00000000000E+00  0.57297438922E+03  0.57297438923E+03  0.25500000000E-02 0.  1.
          2   -1    0    0  501    0  0.00000000000E+00 -0.00000000000E+00 -0.24554827214E+04  0.24554827214E+04  0.25500000000E-02 0. -1.
    8880023    1    1    2    0    0  0.21217304077E+03 -0.24561005479E+02 -0.23730490888E+04  0.24720017852E+04  0.65864270000E+03 0. -1.
    8880022    1    1    2    0    0 -0.21217304077E+03  0.24561005479E+02  0.49054075662E+03  0.55645532538E+03  0.15294330000E+03 0.  0.
<mgrwt>
<rscale>  0 0.54342304E+03</rscale>
<asrwt>0</asrwt>
<pdfrwt beam="1">  1        2 0.37776657E+00 0.69240945E+03</pdfrwt>
<pdfrwt beam="2">  1       -2 0.88149907E-01 0.69240945E+03</pdfrwt>
<totfact> 0.43413392E+00</totfact>
</mgrwt>
</event>
<event>
 4    1  0.6502538E-008  0.9937189E+03  0.7818608E-02  0.9389822E-01
         -2   -1    0    0    0  501 -0.00000000000E+00  0.00000000000E+00  0.13648660879E+04  0.13648660879E+04  0.25500000000E-02 0.  1.
          2   -1    0    0  501    0  0.00000000000E+00 -0.00000000000E+00 -0.11652104212E+04  0.11652104212E+04  0.25500000000E-02 0. -1.
    8880023    1    1    2    0    0 -0.71023231582E+03  0.22189430707E+03 -0.79916692414E+03  0.12752039072E+04  0.65864270000E+03 0.  0.
    8880022    1    1    2    0    0  0.71023231582E+03 -0.22189430707E+03  0.99882259083E+03  0.12548726019E+04  0.15294330000E+03 0.  0.
<mgrwt>
<rscale>  0 0.92918065E+03</rscale>
<asrwt>0</asrwt>
<pdfrwt beam="1">  1        2 0.17926314E+00 0.99371889E+03</pdfrwt>
<pdfrwt beam="2">  1       -2 0.20997940E+00 0.99371889E+03</pdfrwt>
<totfact> 0.22621581E+00</totfact>
</mgrwt>
</event>
<event>
 4    1  0.6502538E-008  0.8771017E+03  0.7818608E-02  0.9563838E-01
          2   -1    0    0  501    0  0.00000000000E+00  0.00000000000E+00  0.20391675396E+04  0.20391675396E+04  0.25500000000E-02 0. -1.
         -2   -1    0    0    0  501 -0.00000000000E+00 -0.00000000000E+00 -0.45459529105E+03  0.45459529106E+03  0.25500000000E-02 0.  1.
    8880023    1    1    2    0    0  0.15852908366E+03 -0.55710468305E+03  0.87716460537E+02  0.88147687545E+03  0.65864270000E+03 0.  0.
    8880022    1    1    2    0    0 -0.15852908366E+03  0.55710468305E+03  0.14968557881E+04  0.16122859553E+04  0.15294330000E+03 0.  0.
<mgrwt>
<rscale>  0 0.79736547E+03</rscale>
<asrwt>0</asrwt>
<pdfrwt beam="1">  1        2 0.31371809E+00 0.87710165E+03</pdfrwt>
<pdfrwt beam="2">  1       -2 0.69937736E-01 0.87710165E+03</pdfrwt>
<totfact> 0.12048725E+01</totfact>
</mgrwt>
</event>
<event>
 4    1  0.6502538E-008  0.8372470E+03  0.7818608E-02  0.9635393E-01
          2   -1    0    0  501    0  0.00000000000E+00  0.00000000000E+00  0.31523187967E+04  0.31523187967E+04  0.25500000000E-02 0. -1.
         -2   -1    0    0    0  501 -0.00000000000E+00 -0.00000000000E+00 -0.37093636507E+03  0.37093636508E+03  0.25500000000E-02 0.  1.
    8880023    1    1    2    0    0  0.51688664120E+03 -0.72697787259E+00  0.28586232588E+04  0.29787093632E+04  0.65864270000E+03 0. -1.
    8880022    1    1    2    0    0 -0.51688664120E+03  0.72697787259E+00 -0.77240827190E+02  0.54454579857E+03  0.15294330000E+03 0.  0.
<mgrwt>
<rscale>  0 0.74997264E+03</rscale>
<asrwt>0</asrwt>
<pdfrwt beam="1">  1        2 0.48497211E+00 0.83724700E+03</pdfrwt>
<pdfrwt beam="2">  1       -2 0.57067134E-01 0.83724700E+03</pdfrwt>
<totfact> 0.42260002E+00</totfact>
</mgrwt>
</event>
<event>
 4    1  0.6502538E-008  0.9651749E+03  0.7818608E-02  0.9428609E-01
         -2   -1    0    0    0  501 -0.00000000000E+00  0.00000000000E+00  0.12764084179E+04  0.12764084179E+04  0.25500000000E-02 0.  1.
          2   -1    0    0  501    0  0.00000000000E+00 -0.00000000000E+00 -0.32197168873E+04  0.32197168873E+04  0.25500000000E-02 0. -1.
    8880023    1    1    2    0    0  0.35866292743E+03  0.60754688876E+03 -0.30364322264E+04  0.31861392295E+04  0.65864270000E+03 0. -1.
    8880022    1    1    2    0    0 -0.35866292743E+03 -0.60754688876E+03  0.10931237570E+04  0.13099860758E+04  0.15294330000E+03 0.  0.
<mgrwt>
<rscale>  0 0.89758217E+03</rscale>
<asrwt>0</asrwt>
<pdfrwt beam="1">  1        2 0.49534106E+00 0.96517487E+03</pdfrwt>
<pdfrwt beam="2">  1       -2 0.19637053E+00 0.96517487E+03</pdfrwt>
<totfact> 0.18230159E-01</totfact>
</mgrwt>
</event>
<event>
 4    1  0.6502538E-008  0.1181310E+04  0.7818608E-02  0.9175508E-01
          2   -1    0    0  501    0  0.00000000000E+00  0.00000000000E+00  0.19948418711E+04  0.19948418711E+04  0.25500000000E-02 0. -1.
         -2   -1    0    0    0  501 -0.00000000000E+00 -0.00000000000E+00 -0.10102835691E+04  0.10102835691E+04  0.25500000000E-02 0.  1.
    8880023    1    1    2    0    0 -0.92332571024E+03 -0.33038284768E+03  0.14817770707E+04  0.18950347456E+04  0.65864270000E+03 0.  0.
    8880022    1    1    2    0    0  0.92332571024E+03  0.33038284768E+03 -0.49721876877E+03  0.11100906946E+04  0.15294330000E+03 0.  1.
<mgrwt>
<rscale>  0 0.11309843E+04</rscale>
<asrwt>0</asrwt>
<pdfrwt beam="1">  1        2 0.30689875E+00 0.11813100E+04</pdfrwt>
<pdfrwt beam="2">  1       -2 0.15542824E+00 0.11813100E+04</pdfrwt>
<totfact> 0.17868583E+00</totfact>
</mgrwt>
</event>
<event>
 4    1  0.6502538E-008  0.1211259E+04  0.7818608E-02  0.9146255E-01
         -2   -1    0    0    0  501 -0.00000000000E+00  0.00000000000E+00  0.91931054187E+03  0.91931054187E+03  0.25500000000E-02 0.  1.
          2   -1    0    0  501    0  0.00000000000E+00 -0.00000000000E+00 -0.19790273108E+04  0.19790273108E+04  0.25500000000E-02 0. -1.
    8880023    1    1    2    0    0  0.10162770735E+04  0.22792333466E+02  0.24654440926E+03  0.12360958428E+04  0.65864270000E+03 0.  1.
    8880022    1    1    2    0    0 -0.10162770735E+04 -0.22792333466E+02 -0.13062611782E+04  0.16622420098E+04  0.15294330000E+03 0.  0.
<mgrwt>
<rscale>  0 0.11625813E+04</rscale>
<asrwt>0</asrwt>
<pdfrwt beam="1">  1        2 0.30446574E+00 0.12112592E+04</pdfrwt>
<pdfrwt beam="2">  1       -2 0.14143239E+00 0.12112592E+04</pdfrwt>
<totfact> 0.23350459E+00</totfact>
</mgrwt>
</event>
<event>
 4    1  0.6502538E-008  0.8325389E+03  0.7818608E-02  0.9644413E-01
          2   -1    0    0  501    0  0.00000000000E+00  0.00000000000E+00  0.18053305869E+04  0.18053305869E+04  0.25500000000E-02 0. -1.
         -2   -1    0    0    0  501 -0.00000000000E+00 -0.00000000000E+00 -0.90395038804E+03  0.90395038804E+03  0.25500000000E-02 0.  1.
    8880023    1    1    2    0    0  0.44554052070E+03 -0.24658561038E+03  0.16164200137E+04  0.18182229472E+04  0.65864270000E+03 0.  0.
    8880022    1    1    2    0    0 -0.44554052070E+03  0.24658561038E+03 -0.71503981488E+03  0.89105802769E+03  0.15294330000E+03 0.  0.
<mgrwt>
<rscale>  0 0.74425130E+03</rscale>
<asrwt>0</asrwt>
<pdfrwt beam="1">  1        2 0.27774316E+00 0.83253890E+03</pdfrwt>
<pdfrwt beam="2">  1       -2 0.13906929E+00 0.83253890E+03</pdfrwt>
<totfact> 0.31911356E+00</totfact>
</mgrwt>
</event>
<event>
 4    1  0.6502538E-008  0.8578324E+03  0.7818608E-02  0.9597431E-01
         -2   -1    0    0    0  501 -0.00000000000E+00  0.00000000000E+00  0.83747707967E+03  0.83747707968E+03  0.25500000000E-02 0.  1.
          2   -1    0    0  501    0  0.00000000000E+00 -0.00000000000E+00 -0.16918094664E+04  0.16918094664E+04  0.25500000000E-02 0. -1.
    8880023    1    1    2    0    0  0.26558561917E+03  0.48117615095E+03 -0.14624410862E+04  0.16954675893E+04  0.65864270000E+03 0.  0.
    8880022    1    1    2    0    0 -0.26558561917E+03 -0.48117615095E+03  0.60810869948E+03  0.83381895682E+03  0.15294330000E+03 0.  0.
<mgrwt>
<rscale>  0 0.77466454E+03</rscale>
<asrwt>0</asrwt>
<pdfrwt beam="1">  1        2 0.26027838E+00 0.85783239E+03</pdfrwt>
<pdfrwt beam="2">  1       -2 0.12884263E+00 0.85783239E+03</pdfrwt>
<totfact> 0.44605224E+00</totfact>
</mgrwt>
</event>
<event>
 4    1  0.6502538E-008  0.9974324E+03  0.7818608E-02  0.9384925E-01
          2   -1    0    0  501    0  0.00000000000E+00  0.00000000000E+00  0.12606106314E+04  0.12606106314E+04  0.25500000000E-02 0. -1.
         -2   -1    0    0    0  501 -0.00000000000E+00 -0.00000000000E+00 -0.87883151751E+03  0.87883151751E+03  0.25500000000E-02 0.  1.
    8880023    1    1    2    0    0 -0.39455569845E+03  0.63670014758E+03  0.79036202886E+03  0.12726129105E+04  0.65864270000E+03 0.  0.
    8880022    1    1    2    0    0  0.39455569845E+03 -0.63670014758E+03 -0.40858291497E+03  0.86682923839E+03  0.15294330000E+03 0.  0.
<mgrwt>
<rscale>  0 0.93326786E+03</rscale>
<asrwt>0</asrwt>
<pdfrwt beam="1">  1        2 0.19394010E+00 0.99743245E+03</pdfrwt>
<pdfrwt beam="2">  1       -2 0.13520485E+00 0.99743245E+03</pdfrwt>
<totfact> 0.67986701E+00</totfact>
</mgrwt>
</event>
<event>
 4    1  0.6502538E-008  0.7867805E+03  0.7818608E-02  0.9740144E-01
         -2   -1    0    0    0  501 -0.00000000000E+00  0.00000000000E+00  0.60123090259E+03  0.60123090259E+03  0.25500000000E-02 0.  1.
          2   -1    0    0  501    0  0.00000000000E+00 -0.00000000000E+00 -0.16274159855E+04  0.16274159855E+04  0.25500000000E-02 0. -1.
    8880023    1    1    2    0    0 -0.36209394927E+03  0.23259696311E+03 -0.14214240261E+04  0.16246445284E+04  0.65864270000E+03 0. -1.
    8880022    1    1    2    0    0  0.36209394927E+03 -0.23259696311E+03  0.39523894317E+03  0.60400235973E+03  0.15294330000E+03 0.  0.
<mgrwt>
<rscale>  0 0.68676127E+03</rscale>
<asrwt>0</asrwt>
<pdfrwt beam="1">  1        2 0.25037169E+00 0.78678052E+03</pdfrwt>
<pdfrwt beam="2">  1       -2 0.92497062E-01 0.78678052E+03</pdfrwt>
<totfact> 0.10912178E+01</totfact>
</mgrwt>
</event>
<event>
 4    1  0.6502538E-008  0.8476920E+03  0.7818608E-02  0.9615843E-01
          2   -1    0    0  501    0  0.00000000000E+00  0.00000000000E+00  0.20304785845E+04  0.20304785845E+04  0.25500000000E-02 0. -1.
         -2   -1    0    0    0  501 -0.00000000000E+00 -0.00000000000E+00 -0.35565188935E+03  0.35565188936E+03  0.25500000000E-02 0.  1.
    8880023    1    1    2    0    0 -0.31640758101E+03 -0.42971816996E+03  0.16199021188E+04  0.18282955296E+04  0.65864270000E+03 0. -1.
    8880022    1    1    2    0    0  0.31640758101E+03  0.42971816996E+03  0.54924576375E+02  0.55783494425E+03  0.15294330000E+03 0.  0.
<mgrwt>
<rscale>  0 0.76256371E+03</rscale>
<asrwt>0</asrwt>
<pdfrwt beam="1">  1        2 0.31238131E+00 0.84769197E+03</pdfrwt>
<pdfrwt beam="2">  1       -2 0.54715676E-01 0.84769197E+03</pdfrwt>
<totfact> 0.20626401E+01</totfact>
</mgrwt>
</event>
<event>
 4    1  0.6502538E-008  0.7310065E+03  0.7818608E-02  0.9886964E-01
          2   -1    0    0  501    0  0.00000000000E+00  0.00000000000E+00  0.20755013582E+04  0.20755013582E+04  0.25500000000E-02 0. -1.
         -2   -1    0    0    0  501 -0.00000000000E+00 -0.00000000000E+00 -0.16921080445E+03  0.16921080446E+03  0.25500000000E-02 0.  1.
    8880023    1    1    2    0    0 -0.22457989865E+03 -0.22388424757E+03  0.16635394183E+04  0.18170673872E+04  0.65864270000E+03 0.  0.
    8880022    1    1    2    0    0  0.22457989865E+03  0.22388424757E+03  0.24275113547E+03  0.42764477546E+03  0.15294330000E+03 0.  0.
<mgrwt>
<rscale>  0 0.60897238E+03</rscale>
<asrwt>0</asrwt>
<pdfrwt beam="1">  1        2 0.31930789E+00 0.73100649E+03</pdfrwt>
<pdfrwt beam="2">  1       -2 0.26032432E-01 0.73100649E+03</pdfrwt>
<totfact> 0.83246304E+01</totfact>
</mgrwt>
</event>
<event>
 4    1  0.6502538E-008  0.9747156E+03  0.7818608E-02  0.9415412E-01
         -2   -1    0    0    0  501 -0.00000000000E+00  0.00000000000E+00  0.12428822891E+04  0.12428822891E+04  0.25500000000E-02 0.  1.
          2   -1    0    0  501    0  0.00000000000E+00 -0.00000000000E+00 -0.13014713806E+04  0.13014713806E+04  0.25500000000E-02 0. -1.
    8880023    1    1    2    0    0  0.66485853067E+03 -0.27243977543E+03 -0.96907025572E+03  0.13744699574E+04  0.65864270000E+03 0. -1.
    8880022    1    1    2    0    0 -0.66485853067E+03  0.27243977543E+03  0.91048116418E+03  0.11698837123E+04  0.15294330000E+03 0.  0.
<mgrwt>
<rscale>  0 0.90818151E+03</rscale>
<asrwt>0</asrwt>
<pdfrwt beam="1">  1        2 0.20022637E+00 0.97471560E+03</pdfrwt>
<pdfrwt beam="2">  1       -2 0.19121266E+00 0.97471560E+03</pdfrwt>
<totfact> 0.24978463E+00</totfact>
</mgrwt>
</event>
<event>
 4    1  0.6502538E-008  0.1035418E+04  0.7818608E-02  0.9336620E-01
          2   -1    0    0  501    0  0.00000000000E+00  0.00000000000E+00  0.23493210496E+04  0.23493210496E+04  0.25500000000E-02 0. -1.
         -2   -1    0    0    0  501 -0.00000000000E+00 -0.00000000000E+00 -0.11799754572E+04  0.11799754572E+04  0.25500000000E-02 0.  1.
    8880023    1    1    2    0    0 -0.16959084510E+03  0.78071665392E+03  0.20707143846E+04  0.23151561108E+04  0.65864270000E+03 0. -1.
    8880022    1    1    2    0    0  0.16959084510E+03 -0.78071665392E+03 -0.90136879228E+03  0.12141403960E+04  0.15294330000E+03 0.  0.
<mgrwt>
<rscale>  0 0.97480323E+03</rscale>
<asrwt>0</asrwt>
<pdfrwt beam="1">  1        2 0.36143401E+00 0.10354177E+04</pdfrwt>
<pdfrwt beam="2">  1       -2 0.18153468E+00 0.10354177E+04</pdfrwt>
<totfact> 0.75020791E-01</totfact>
</mgrwt>
</event>
<event>
 4    1  0.6502538E-008  0.8187926E+03  0.7818608E-02  0.9671545E-01
         -2   -1    0    0    0  501 -0.00000000000E+00  0.00000000000E+00  0.13787536324E+03  0.13787536326E+03  0.25500000000E-02 0.  1.
          2   -1    0    0  501    0  0.00000000000E+00 -0.00000000000E+00 -0.47999122976E+04  0.47999122976E+04  0.25500000000E-02 0. -1.
    8880023    1    1    2    0    0  0.28121549170E+03  0.39689926988E+03 -0.40913879610E+04  0.41725144501E+04  0.65864270000E+03 0. -1.
    8880022    1    1    2    0    0 -0.28121549170E+03 -0.39689926988E+03 -0.57064897339E+03  0.76527321073E+03  0.15294330000E+03 0.  0.
<mgrwt>
<rscale>  0 0.72736552E+03</rscale>
<asrwt>0</asrwt>
<pdfrwt beam="1">  1        2 0.73844792E+00 0.81879264E+03</pdfrwt>
<pdfrwt beam="2">  1       -2 0.21211598E-01 0.81879264E+03</pdfrwt>
<totfact> 0.13010706E+00</totfact>
</mgrwt>
</event>
<event>
 4    1  0.6502538E-008  0.1017493E+04  0.7818608E-02  0.9359021E-01
          2   -1    0    0  501    0  0.00000000000E+00  0.00000000000E+00  0.25922380209E+04  0.25922380209E+04  0.25500000000E-02 0. -1.
         -2   -1    0    0    0  501 -0.00000000000E+00 -0.00000000000E+00 -0.64986396305E+03  0.64986396306E+03  0.25500000000E-02 0.  1.
    8880023    1    1    2    0    0  0.25402079259E+03  0.73277242464E+03  0.21890933313E+04  0.24140053457E+04  0.65864270000E+03 0. -1.
    8880022    1    1    2    0    0 -0.25402079259E+03 -0.73277242464E+03 -0.24671927350E+03  0.82809663827E+03  0.15294330000E+03 0.  0.
<mgrwt>
<rscale>  0 0.95526228E+03</rscale>
<asrwt>0</asrwt>
<pdfrwt beam="1">  1        2 0.39880585E+00 0.10174931E+04</pdfrwt>
<pdfrwt beam="2">  1       -2 0.99979071E-01 0.10174931E+04</pdfrwt>
<totfact> 0.25616038E+00</totfact>
</mgrwt>
</event>
<event>
 4    1  0.6502538E-008  0.8779897E+03  0.7818608E-02  0.9562331E-01
         -2   -1    0    0    0  501 -0.00000000000E+00  0.00000000000E+00  0.84894116088E+03  0.84894116089E+03  0.25500000000E-02 0.  1.
          2   -1    0    0  501    0  0.00000000000E+00 -0.00000000000E+00 -0.24418020627E+04  0.24418020627E+04  0.25500000000E-02 0. -1.
    8880023    1    1    2    0    0 -0.48176687273E+03 -0.32396968008E+03 -0.22412475235E+04  0.24070846144E+04  0.65864270000E+03 0. -1.
    8880022    1    1    2    0    0  0.48176687273E+03  0.32396968008E+03  0.64838662170E+03  0.88365860912E+03  0.15294330000E+03 0.  0.
<mgrwt>
<rscale>  0 0.79840323E+03</rscale>
<asrwt>0</asrwt>
<pdfrwt beam="1">  1        2 0.37566185E+00 0.87798968E+03</pdfrwt>
<pdfrwt beam="2">  1       -2 0.13060633E+00 0.87798968E+03</pdfrwt>
<totfact> 0.16547528E+00</totfact>
</mgrwt>
</event>
<event>
 4    1  0.6502538E-008  0.1287404E+04  0.7818608E-02  0.9076514E-01
         -2   -1    0    0    0  501 -0.00000000000E+00  0.00000000000E+00  0.79813016042E+03  0.79813016042E+03  0.25500000000E-02 0.  1.
          2   -1    0    0  501    0  0.00000000000E+00 -0.00000000000E+00 -0.21359231618E+04  0.21359231618E+04  0.25500000000E-02 0. -1.
    8880023    1    1    2    0    0 -0.62146878356E+03 -0.91508283813E+03 -0.12806643495E+04  0.18159051275E+04  0.65864270000E+03 0.  0.
    8880022    1    1    2    0    0  0.62146878356E+03  0.91508283813E+03 -0.57128651867E+02  0.11181481948E+04  0.15294330000E+03 0.  0.
<mgrwt>
<rscale>  0 0.12424222E+04</rscale>
<asrwt>0</asrwt>
<pdfrwt beam="1">  1        2 0.32860356E+00 0.12874045E+04</pdfrwt>
<pdfrwt beam="2">  1       -2 0.12278926E+00 0.12874045E+04</pdfrwt>
<totfact> 0.27225891E+00</totfact>
</mgrwt>
</event>
<event>
 4    1  0.6502538E-008  0.8458503E+03  0.7818608E-02  0.9619246E-01
          2   -1    0    0  501    0  0.00000000000E+00  0.00000000000E+00  0.17491335670E+04  0.17491335670E+04  0.25500000000E-02 0. -1.
         -2   -1    0    0    0  501 -0.00000000000E+00 -0.00000000000E+00 -0.77759607457E+03  0.77759607458E+03  0.25500000000E-02 0.  1.
    8880023    1    1    2    0    0 -0.25427593578E+03 -0.46582864295E+03  0.15256065028E+04  0.17444018986E+04  0.65864270000E+03 0.  0.
    8880022    1    1    2    0    0  0.25427593578E+03  0.46582864295E+03 -0.55406901040E+03  0.78232774297E+03  0.15294330000E+03 0.  0.
<mgrwt>
<rscale>  0 0.76035340E+03</rscale>
<asrwt>0</asrwt>
<pdfrwt beam="1">  1        2 0.26909747E+00 0.84585033E+03</pdfrwt>
<pdfrwt beam="2">  1       -2 0.11963017E+00 0.84585033E+03</pdfrwt>
<totfact> 0.50055904E+00</totfact>
</mgrwt>
</event>
<event>
 4    1  0.6891286E-008  0.1627957E+04  0.7818608E-02  0.8824195E-01
          2   -1    0    0  501    0  0.00000000000E+00  0.00000000000E+00  0.26875083849E+04  0.26875083849E+04  0.25500000000E-02 0. -1.
         -2   -1    0    0    0  501 -0.00000000000E+00 -0.00000000000E+00 -0.21592445961E+04  0.21592445961E+04  0.25500000000E-02 0.  1.
    8880023    1    1    2    0    0 -0.14661224579E+04  0.25868925599E+03  0.21127539360E+04  0.26672035155E+04  0.65864270000E+03 0.  0.
    8880022    1    1    2    0    0  0.14661224579E+04 -0.25868925599E+03 -0.15844901472E+04  0.21795494654E+04  0.15294330000E+03 0.  0.
<mgrwt>
<rscale>  0 0.15940762E+04</rscale>
<asrwt>0</asrwt>
<pdfrwt beam="1">  1        2 0.41346283E+00 0.16279574E+04</pdfrwt>
<pdfrwt beam="2">  1       -2 0.33219148E+00 0.16279574E+04</pdfrwt>
<totfact> 0.50189633E-02</totfact>
</mgrwt>
</event>
<event>
 4    1  0.6502538E-008  0.8774776E+03  0.7818608E-02  0.9563200E-01
         -2   -1    0    0    0  501 -0.00000000000E+00  0.00000000000E+00  0.61376166172E+03  0.61376166173E+03  0.25500000000E-02 0.  1.
          2   -1    0    0  501    0  0.00000000000E+00 -0.00000000000E+00 -0.15049112954E+04  0.15049112954E+04  0.25500000000E-02 0. -1.
    8880023    1    1    2    0    0  0.57950834145E+02  0.57688690808E+03 -0.11658107952E+04  0.14591373549E+04  0.65864270000E+03 0. -1.
    8880022    1    1    2    0    0 -0.57950834145E+02 -0.57688690808E+03  0.27466116158E+03  0.65953560221E+03  0.15294330000E+03 0.  0.
<mgrwt>
<rscale>  0 0.79780494E+03</rscale>
<asrwt>0</asrwt>
<pdfrwt beam="1">  1        2 0.23152481E+00 0.87747764E+03</pdfrwt>
<pdfrwt beam="2">  1       -2 0.94424872E-01 0.87747764E+03</pdfrwt>
<totfact> 0.12028373E+01</totfact>
</mgrwt>
</event>
<event>
 4    1  0.6502538E-008  0.7212749E+03  0.7818608E-02  0.9918295E-01
          2   -1    0    0  501    0  0.00000000000E+00  0.00000000000E+00  0.26276285629E+04  0.26276285629E+04  0.25500000000E-02 0. -1.
         -2   -1    0    0    0  501 -0.00000000000E+00 -0.00000000000E+00 -0.49224022343E+03  0.49224022344E+03  0.25500000000E-02 0.  1.
    8880023    1    1    2    0    0 -0.55241874339E+02  0.28874843114E+03  0.25147530409E+04  0.26161460938E+04  0.65864270000E+03 0.  0.
    8880022    1    1    2    0    0  0.55241874339E+02 -0.28874843114E+03 -0.37936470149E+03  0.50372269247E+03  0.15294330000E+03 0.  0.
<mgrwt>
<rscale>  0 0.59382749E+03</rscale>
<asrwt>0</asrwt>
<pdfrwt beam="1">  1        2 0.40425055E+00 0.72127493E+03</pdfrwt>
<pdfrwt beam="2">  1       -2 0.75729265E-01 0.72127493E+03</pdfrwt>
<totfact> 0.48536548E+00</totfact>
</mgrwt>
</event>
<event>
 4    1  0.6502538E-008  0.9214165E+03  0.7818608E-02  0.9492490E-01
          2   -1    0    0  501    0  0.00000000000E+00  0.00000000000E+00  0.19202128867E+04  0.19202128867E+04  0.25500000000E-02 0. -1.
         -2   -1    0    0    0  501 -0.00000000000E+00 -0.00000000000E+00 -0.12608794841E+04  0.12608794841E+04  0.25500000000E-02 0.  1.
    8880023    1    1    2    0    0  0.97390378602E+02  0.63695631038E+03  0.17080723897E+04  0.19407523597E+04  0.65864270000E+03 0. -1.
    8880022    1    1    2    0    0 -0.97390378602E+02 -0.63695631038E+03 -0.10487389871E+04  0.12403400111E+04  0.15294330000E+03 0.  0.
<mgrwt>
<rscale>  0 0.84839740E+03</rscale>
<asrwt>0</asrwt>
<pdfrwt beam="1">  1        2 0.29541737E+00 0.92141654E+03</pdfrwt>
<pdfrwt beam="2">  1       -2 0.19398146E+00 0.92141654E+03</pdfrwt>
<totfact> 0.10888813E+00</totfact>
</mgrwt>
</event>
<event>
 4    1  0.6502538E-008  0.1127201E+04  0.7818608E-02  0.9231359E-01
         -2   -1    0    0    0  501 -0.00000000000E+00  0.00000000000E+00  0.10332386712E+04  0.10332386712E+04  0.25500000000E-02 0.  1.
          2   -1    0    0  501    0  0.00000000000E+00 -0.00000000000E+00 -0.22552063457E+04  0.22552063457E+04  0.25500000000E-02 0. -1.
    8880023    1    1    2    0    0  0.12789475489E+03  0.90576740828E+03 -0.18514195385E+04  0.21675645735E+04  0.65864270000E+03 0.  0.
    8880022    1    1    2    0    0 -0.12789475489E+03 -0.90576740828E+03  0.62945186404E+03  0.11208804434E+04  0.15294330000E+03 0.  0.
<mgrwt>
<rscale>  0 0.10735533E+04</rscale>
<asrwt>0</asrwt>
<pdfrwt beam="1">  1        2 0.34695482E+00 0.11272009E+04</pdfrwt>
<pdfrwt beam="2">  1       -2 0.15895980E+00 0.11272009E+04</pdfrwt>
<totfact> 0.12122853E+00</totfact>
</mgrwt>
</event>
<event>
 4    1  0.6502538E-008  0.2305097E+04  0.7818608E-02  0.8485032E-01
         -2   -1    0    0    0  501 -0.00000000000E+00  0.00000000000E+00  0.16339325308E+04  0.16339325308E+04  0.25500000000E-02 0.  1.
          2   -1    0    0  501    0  0.00000000000E+00 -0.00000000000E+00 -0.43353405317E+04  0.43353405317E+04  0.25500000000E-02 0. -1.
    8880023    1    1    2    0    0 -0.48049118711E+03 -0.21561050361E+04 -0.29469819923E+04  0.37414133394E+04  0.65864270000E+03 0.  0.
    8880022    1    1    2    0    0  0.48049118711E+03  0.21561050361E+04  0.24557399134E+03  0.22278597231E+04  0.15294330000E+03 0.  0.
<mgrwt>
<rscale>  0 0.22820501E+04</rscale>
<asrwt>0</asrwt>
<pdfrwt beam="1">  1        2 0.66697546E+00 0.23050967E+04</pdfrwt>
<pdfrwt beam="2">  1       -2 0.25137424E+00 0.23050967E+04</pdfrwt>
<totfact> 0.95642773E-03</totfact>
</mgrwt>
</event>
<event>
 4    1  0.6502538E-008  0.6913855E+03  0.7818608E-02  0.1003501E+00
          2   -1    0    0  501    0  0.00000000000E+00  0.00000000000E+00  0.14216699066E+04  0.14216699066E+04  0.25500000000E-02 0. -1.
         -2   -1    0    0    0  501 -0.00000000000E+00 -0.00000000000E+00 -0.43334564027E+03  0.43334564028E+03  0.25500000000E-02 0.  1.
    8880023    1    1    2    0    0  0.83430824032E+02  0.19298446802E+03  0.12858251706E+04  0.14599179028E+04  0.65864270000E+03 0. -1.
    8880022    1    1    2    0    0 -0.83430824032E+02 -0.19298446802E+03 -0.29750090428E+03  0.39509764408E+03  0.15294330000E+03 0.  0.
<mgrwt>
<rscale>  0 0.54141441E+03</rscale>
<asrwt>0</asrwt>
<pdfrwt beam="1">  1        2 0.21871845E+00 0.69138550E+03</pdfrwt>
<pdfrwt beam="2">  1       -2 0.66668560E-01 0.69138550E+03</pdfrwt>
<totfact> 0.29911790E+01</totfact>
</mgrwt>
</event>
<event>
 4    1  0.6502538E-008  0.9498286E+03  0.7818608E-02  0.9450361E-01
          2   -1    0    0  501    0  0.00000000000E+00  0.00000000000E+00  0.10323994950E+04  0.10323994950E+04  0.25500000000E-02 0. -1.
         -2   -1    0    0    0  501 -0.00000000000E+00 -0.00000000000E+00 -0.11743991313E+04  0.11743991313E+04  0.25500000000E-02 0.  1.
    8880023    1    1    2    0    0 -0.19906030770E+03 -0.65478182306E+03  0.64848898520E+03  0.11500923494E+04  0.65864270000E+03 0. -1.
    8880022    1    1    2    0    0  0.19906030770E+03  0.65478182306E+03 -0.79048862146E+03  0.10567062769E+04  0.15294330000E+03 0.  0.
<mgrwt>
<rscale>  0 0.88044583E+03</rscale>
<asrwt>0</asrwt>
<pdfrwt beam="1">  1        2 0.15883069E+00 0.94982864E+03</pdfrwt>
<pdfrwt beam="2">  1       -2 0.18067679E+00 0.94982864E+03</pdfrwt>
<totfact> 0.42939895E+00</totfact>
</mgrwt>
</event>
<event>
 4    1  0.6502538E-008  0.1056935E+04  0.7818608E-02  0.9310591E-01
         -2   -1    0    0    0  501 -0.00000000000E+00  0.00000000000E+00  0.35305534096E+03  0.35305534097E+03  0.25500000000E-02 0.  1.
          2   -1    0    0  501    0  0.00000000000E+00 -0.00000000000E+00 -0.28900327926E+04  0.28900327926E+04  0.25500000000E-02 0. -1.
    8880023    1    1    2    0    0 -0.82159343888E+03 -0.91020003160E+02 -0.19492534954E+04  0.22173632574E+04  0.65864270000E+03 0.  0.
    8880022    1    1    2    0    0  0.82159343888E+03  0.91020003160E+02 -0.58772395622E+03  0.10257248761E+04  0.15294330000E+03 0.  0.
<mgrwt>
<rscale>  0 0.99813629E+03</rscale>
<asrwt>0</asrwt>
<pdfrwt beam="1">  1        2 0.44462042E+00 0.10569345E+04</pdfrwt>
<pdfrwt beam="2">  1       -2 0.54316208E-01 0.10569345E+04</pdfrwt>
<totfact> 0.65842360E+00</totfact>
</mgrwt>
</event>
<event>
 4    1  0.6502538E-008  0.1286110E+04  0.7818608E-02  0.9077649E-01
          2   -1    0    0  501    0  0.00000000000E+00  0.00000000000E+00  0.38600381837E+04  0.38600381837E+04  0.25500000000E-02 0. -1.
         -2   -1    0    0    0  501 -0.00000000000E+00 -0.00000000000E+00 -0.48989627918E+03  0.48989627919E+03  0.25500000000E-02 0.  1.
    8880023    1    1    2    0    0 -0.10420838828E+04 -0.36650944819E+03  0.28347954224E+04  0.31128994985E+04  0.65864270000E+03 0.  0.
    8880022    1    1    2    0    0  0.10420838828E+04  0.36650944819E+03  0.53534648214E+03  0.12370349645E+04  0.15294330000E+03 0.  0.
<mgrwt>
<rscale>  0 0.12410698E+04</rscale>
<asrwt>0</asrwt>
<pdfrwt beam="1">  1        2 0.59385205E+00 0.12861097E+04</pdfrwt>
<pdfrwt beam="2">  1       -2 0.75368655E-01 0.12861097E+04</pdfrwt>
<totfact> 0.69794063E-01</totfact>
</mgrwt>
</event>
<event>
 4    1  0.6502538E-008  0.8152100E+03  0.7818608E-02  0.9678825E-01
          2   -1    0    0  501    0  0.00000000000E+00  0.00000000000E+00  0.22944230806E+04  0.22944230806E+04  0.25500000000E-02 0. -1.
         -2   -1    0    0    0  501 -0.00000000000E+00 -0.00000000000E+00 -0.11072346374E+04  0.11072346374E+04  0.25500000000E-02 0.  1.
    8880023    1    1    2    0    0 -0.60565663753E+02 -0.47653842263E+03  0.21584993188E+04  0.23073115488E+04  0.65864270000E+03 0. -1.
    8880022    1    1    2    0    0  0.60565663753E+02  0.47653842263E+03 -0.97131087562E+03  0.10943461692E+04  0.15294330000E+03 0.  0.
<mgrwt>
<rscale>  0 0.72291643E+03</rscale>
<asrwt>0</asrwt>
<pdfrwt beam="1">  1        2 0.35298816E+00 0.81520996E+03</pdfrwt>
<pdfrwt beam="2">  1       -2 0.17034379E+00 0.81520996E+03</pdfrwt>
<totfact> 0.10011248E+00</totfact>
</mgrwt>
</event>
<event>
 4    1  0.1255682E-007  0.1112855E+04  0.7818608E-02  0.9246876E-01
         -2   -1    0    0    0  501 -0.00000000000E+00  0.00000000000E+00  0.16705153988E+04  0.16705153988E+04  0.25500000000E-02 0.  1.
          2   -1    0    0  501    0  0.00000000000E+00 -0.00000000000E+00 -0.34112497542E+04  0.34112497542E+04  0.25500000000E-02 0. -1.
    8880023    1    1    2    0    0 -0.27842215642E+03  0.85271225586E+03 -0.31855134902E+04  0.33743063718E+04  0.65864270000E+03 0.  0.
    8880022    1    1    2    0    0  0.27842215642E+03 -0.85271225586E+03  0.14447791348E+04  0.17074587813E+04  0.15294330000E+03 0.  0.
<mgrwt>
<rscale>  0 0.10582414E+04</rscale>
<asrwt>0</asrwt>
<pdfrwt beam="1">  1        2 0.52480765E+00 0.11128555E+04</pdfrwt>
<pdfrwt beam="2">  1       -2 0.25700237E+00 0.11128555E+04</pdfrwt>
<totfact> 0.55053963E-02</totfact>
</mgrwt>
</event>
<event>
 4    1  0.6502538E-008  0.9588875E+03  0.7818608E-02  0.9437441E-01
          2   -1    0    0  501    0  0.00000000000E+00  0.00000000000E+00  0.14060118936E+04  0.14060118936E+04  0.25500000000E-02 0. -1.
         -2   -1    0    0    0  501 -0.00000000000E+00 -0.00000000000E+00 -0.80327418696E+03  0.80327418696E+03  0.25500000000E-02 0.  1.
    8880023    1    1    2    0    0 -0.31869999398E+03 -0.61974622683E+03  0.10059575736E+04  0.13897539055E+04  0.65864270000E+03 0.  0.
    8880022    1    1    2    0    0  0.31869999398E+03  0.61974622683E+03 -0.40321986693E+03  0.81953217504E+03  0.15294330000E+03 0.  0.
<mgrwt>
<rscale>  0 0.89057491E+03</rscale>
<asrwt>0</asrwt>
<pdfrwt beam="1">  1        2 0.21630952E+00 0.95888752E+03</pdfrwt>
<pdfrwt beam="2">  1       -2 0.12358064E+00 0.95888752E+03</pdfrwt>
<totfact> 0.70665207E+00</totfact>
</mgrwt>
</event>
<event>
 4    1  0.6502538E-008  0.1472542E+04  0.7818608E-02  0.8929272E-01
          2   -1    0    0  501    0  0.00000000000E+00  0.00000000000E+00  0.30276171692E+04  0.30276171692E+04  0.25500000000E-02 0. -1.
         -2   -1    0    0    0  501 -0.00000000000E+00 -0.00000000000E+00 -0.81292262453E+03  0.81292262453E+03  0.25500000000E-02 0.  1.
    8880023    1    1    2    0    0 -0.10466097523E+04  0.79948676562E+03  0.20210302434E+04  0.25005888332E+04  0.65864270000E+03 0. -1.
    8880022    1    1    2    0    0  0.10466097523E+04 -0.79948676562E+03  0.19366430135E+03  0.13399509605E+04  0.15294330000E+03 0.  0.
<mgrwt>
<rscale>  0 0.14344225E+04</rscale>
<asrwt>0</asrwt>
<pdfrwt beam="1">  1        2 0.46578725E+00 0.14725425E+04</pdfrwt>
<pdfrwt beam="2">  1       -2 0.12506502E+00 0.14725425E+04</pdfrwt>
<totfact> 0.76493264E-01</totfact>
</mgrwt>
</event>
<event>
 4    1  0.6502538E-008  0.1531604E+04  0.7818608E-02  0.8887636E-01
          2   -1    0    0  501    0  0.00000000000E+00  0.00000000000E+00  0.29952183633E+04  0.29952183633E+04  0.25500000000E-02 0. -1.
         -2   -1    0    0    0  501 -0.00000000000E+00 -0.00000000000E+00 -0.99534438629E+03  0.99534438629E+03  0.25500000000E-02 0.  1.
    8880023    1    1    2    0    0  0.12599851651E+04  0.56959395133E+03  0.20961127227E+04  0.25960544367E+04  0.65864270000E+03 0.  0.
    8880022    1    1    2    0    0 -0.12599851651E+04 -0.56959395133E+03 -0.96238745660E+02  0.13945083129E+04  0.15294330000E+03 0.  0.
<mgrwt>
<rscale>  0 0.14952228E+04</rscale>
<asrwt>0</asrwt>
<pdfrwt beam="1">  1        2 0.46080283E+00 0.15316038E+04</pdfrwt>
<pdfrwt beam="2">  1       -2 0.15312990E+00 0.15316038E+04</pdfrwt>
<totfact> 0.46928886E-01</totfact>
</mgrwt>
</event>
<event>
 4    1  0.6502538E-008  0.8396547E+03  0.7818608E-02  0.9630832E-01
          2   -1    0    0  501    0  0.00000000000E+00  0.00000000000E+00  0.12724197724E+04  0.12724197724E+04  0.25500000000E-02 0. -1.
         -2   -1    0    0    0  501 -0.00000000000E+00 -0.00000000000E+00 -0.97328588809E+03  0.97328588809E+03  0.25500000000E-02 0.  1.
    8880023    1    1    2    0    0 -0.46721058475E+03  0.23005223366E+03  0.10340904862E+04  0.13320522139E+04  0.65864270000E+03 0.  0.
    8880022    1    1    2    0    0  0.46721058475E+03 -0.23005223366E+03 -0.73495660190E+03  0.91365344655E+03  0.15294330000E+03 0.  1.
<mgrwt>
<rscale>  0 0.75288715E+03</rscale>
<asrwt>0</asrwt>
<pdfrwt beam="1">  1        2 0.19575689E+00 0.83965467E+03</pdfrwt>
<pdfrwt beam="2">  1       -2 0.14973629E+00 0.83965467E+03</pdfrwt>
<totfact> 0.52174457E+00</totfact>
</mgrwt>
</event>
<event>
 4    1  0.6502538E-008  0.6822719E+03  0.7818608E-02  0.1008067E+00
          2   -1    0    0  501    0  0.00000000000E+00  0.00000000000E+00  0.26008339659E+04  0.26008339660E+04  0.25500000000E-02 0. -1.
         -2   -1    0    0    0  501 -0.00000000000E+00 -0.00000000000E+00 -0.23402965736E+03  0.23402965737E+03  0.25500000000E-02 0.  1.
    8880023    1    1    2    0    0 -0.17530729367E+03 -0.30855597997E+02  0.24815481568E+04  0.25736309323E+04  0.65864270000E+03 0. -1.
    8880022    1    1    2    0    0  0.17530729367E+03  0.30855597997E+02 -0.11474384818E+03  0.26123269101E+03  0.15294330000E+03 0.  0.
<mgrwt>
<rscale>  0 0.52250297E+03</rscale>
<asrwt>0</asrwt>
<pdfrwt beam="1">  1        2 0.40012831E+00 0.68227188E+03</pdfrwt>
<pdfrwt beam="2">  1       -2 0.36004562E-01 0.68227188E+03</pdfrwt>
<totfact> 0.23353539E+01</totfact>
</mgrwt>
</event>
<event>
 4    1  0.6502538E-008  0.1216356E+04  0.7818608E-02  0.9141385E-01
          2   -1    0    0  501    0  0.00000000000E+00  0.00000000000E+00  0.21896638694E+04  0.21896638694E+04  0.25500000000E-02 0. -1.
         -2   -1    0    0    0  501 -0.00000000000E+00 -0.00000000000E+00 -0.98392381075E+03  0.98392381075E+03  0.25500000000E-02 0.  1.
    8880023    1    1    2    0    0 -0.98353063102E+03 -0.27996415500E+03 -0.38544319947E+03  0.12759659465E+04  0.65864270000E+03 0.  0.
    8880022    1    1    2    0    0  0.98353063102E+03  0.27996415500E+03  0.15911832581E+04  0.18976217337E+04  0.15294330000E+03 0.  0.
<mgrwt>
<rscale>  0 0.11679469E+04</rscale>
<asrwt>0</asrwt>
<pdfrwt beam="1">  1        2 0.33687136E+00 0.12163563E+04</pdfrwt>
<pdfrwt beam="2">  1       -2 0.15137290E+00 0.12163563E+04</pdfrwt>
<totfact> 0.14887051E+00</totfact>
</mgrwt>
</event>
<event>
 4    1  0.6502538E-008  0.8004337E+03  0.7818608E-02  0.9709859E-01
         -2   -1    0    0    0  501 -0.00000000000E+00  0.00000000000E+00  0.59494782682E+03  0.59494782682E+03  0.25500000000E-02 0.  1.
          2   -1    0    0  501    0  0.00000000000E+00 -0.00000000000E+00 -0.19994383191E+04  0.19994383191E+04  0.25500000000E-02 0. -1.
    8880023    1    1    2    0    0 -0.40841340491E+03 -0.20020600288E+03 -0.18016661829E+04  0.19714703127E+04  0.65864270000E+03 0.  0.
    8880022    1    1    2    0    0  0.40841340491E+03  0.20020600288E+03  0.39717569071E+03  0.62291583316E+03  0.15294330000E+03 0.  0.
<mgrwt>
<rscale>  0 0.70432812E+03</rscale>
<asrwt>0</asrwt>
<pdfrwt beam="1">  1        2 0.30760589E+00 0.80043373E+03</pdfrwt>
<pdfrwt beam="2">  1       -2 0.91530436E-01 0.80043373E+03</pdfrwt>
<totfact> 0.69844212E+00</totfact>
</mgrwt>
</event>
<event>
 4    1  0.6502538E-008  0.1267641E+04  0.7818608E-02  0.9094020E-01
          2   -1    0    0  501    0  0.00000000000E+00  0.00000000000E+00  0.23975248403E+04  0.23975248403E+04  0.25500000000E-02 0. -1.
         -2   -1    0    0    0  501 -0.00000000000E+00 -0.00000000000E+00 -0.72176767472E+03  0.72176767473E+03  0.25500000000E-02 0.  1.
    8880023    1    1    2    0    0  0.10536422614E+04 -0.25088347519E+03  0.20150136228E+03  0.12835565973E+04  0.65864270000E+03 0.  0.
    8880022    1    1    2    0    0 -0.10536422614E+04  0.25088347519E+03  0.14742558033E+04  0.18357359177E+04  0.15294330000E+03 0.  0.
<mgrwt>
<rscale>  0 0.12217609E+04</rscale>
<asrwt>0</asrwt>
<pdfrwt beam="1">  1        2 0.36884998E+00 0.12676414E+04</pdfrwt>
<pdfrwt beam="2">  1       -2 0.11104118E+00 0.12676414E+04</pdfrwt>
<totfact> 0.24929139E+00</totfact>
</mgrwt>
</event>
<event>
 4    1  0.6502538E-008  0.7690775E+03  0.7818608E-02  0.9782149E-01
          2   -1    0    0  501    0  0.00000000000E+00  0.00000000000E+00  0.63341655389E+03  0.63341655389E+03  0.25500000000E-02 0. -1.
         -2   -1    0    0    0  501 -0.00000000000E+00 -0.00000000000E+00 -0.92568401157E+03  0.92568401157E+03  0.25500000000E-02 0.  1.
    8880023    1    1    2    0    0  0.16697721250E+03  0.36026186989E+03  0.30365537960E+03  0.82685355427E+03  0.65864270000E+03 0.  0.
    8880022    1    1    2    0    0 -0.16697721250E+03 -0.36026186989E+03 -0.59592283728E+03  0.73224701119E+03  0.15294330000E+03 0.  0.
<mgrwt>
<rscale>  0 0.66329373E+03</rscale>
<asrwt>0</asrwt>
<pdfrwt beam="1">  1        2 0.97448701E-01 0.76907751E+03</pdfrwt>
<pdfrwt beam="2">  1       -2 0.14241292E+00 0.76907751E+03</pdfrwt>
<totfact> 0.16142884E+01</totfact>
</mgrwt>
</event>
<event>
 4    1  0.6502538E-008  0.7563040E+03  0.7818608E-02  0.9814772E-01
          2   -1    0    0  501    0  0.00000000000E+00  0.00000000000E+00  0.25186027060E+04  0.25186027060E+04  0.25500000000E-02 0. -1.
         -2   -1    0    0    0  501 -0.00000000000E+00 -0.00000000000E+00 -0.37579787551E+03  0.37579787552E+03  0.25500000000E-02 0.  1.
    8880023    1    1    2    0    0  0.36813937001E+03  0.51565211888E+02  0.23309534930E+04  0.24505795150E+04  0.65864270000E+03 0. -1.
    8880022    1    1    2    0    0 -0.36813937001E+03 -0.51565211888E+02 -0.18814866250E+03  0.44382106647E+03  0.15294330000E+03 0.  0.
<mgrwt>
<rscale>  0 0.64575804E+03</rscale>
<asrwt>0</asrwt>
<pdfrwt beam="1">  1        2 0.38747733E+00 0.75630402E+03</pdfrwt>
<pdfrwt beam="2">  1       -2 0.57815060E-01 0.75630402E+03</pdfrwt>
<totfact> 0.99663995E+00</totfact>
</mgrwt>
</event>
<event>
 4    1  0.6502538E-008  0.1128215E+04  0.7818608E-02  0.9230274E-01
          2   -1    0    0  501    0  0.00000000000E+00  0.00000000000E+00  0.18542523824E+04  0.18542523824E+04  0.25500000000E-02 0. -1.
         -2   -1    0    0    0  501 -0.00000000000E+00 -0.00000000000E+00 -0.95619483191E+03  0.95619483191E+03  0.25500000000E-02 0.  1.
    8880023    1    1    2    0    0  0.35140860824E+03 -0.84591448203E+03  0.13650660978E+04  0.17709531271E+04  0.65864270000E+03 0. -1.
    8880022    1    1    2    0    0 -0.35140860824E+03  0.84591448203E+03 -0.46700854737E+03  0.10394940871E+04  0.15294330000E+03 0.  0.
<mgrwt>
<rscale>  0 0.10746345E+04</rscale>
<asrwt>0</asrwt>
<pdfrwt beam="1">  1        2 0.28526959E+00 0.11282152E+04</pdfrwt>
<pdfrwt beam="2">  1       -2 0.14710690E+00 0.11282152E+04</pdfrwt>
<totfact> 0.24904741E+00</totfact>
</mgrwt>
</event>
<event>
 4    1  0.6502538E-008  0.9549902E+03  0.7818608E-02  0.9442970E-01
         -2   -1    0    0    0  501 -0.00000000000E+00  0.00000000000E+00  0.71731267959E+03  0.71731267959E+03  0.25500000000E-02 0.  1.
          2   -1    0    0  501    0  0.00000000000E+00 -0.00000000000E+00 -0.35498671975E+04  0.35498671975E+04  0.25500000000E-02 0. -1.
    8880023    1    1    2    0    0  0.21772822662E+03 -0.65634632273E+03 -0.32888445868E+04  0.34246904967E+04  0.65864270000E+03 0.  0.
    8880022    1    1    2    0    0 -0.21772822662E+03  0.65634632273E+03  0.45629006889E+03  0.84248938036E+03  0.15294330000E+03 0.  0.
<mgrwt>
<rscale>  0 0.88622205E+03</rscale>
<asrwt>0</asrwt>
<pdfrwt beam="1">  1        2 0.54613341E+00 0.95499020E+03</pdfrwt>
<pdfrwt beam="2">  1       -2 0.11035580E+00 0.95499020E+03</pdfrwt>
<totfact> 0.50986193E-01</totfact>
</mgrwt>
</event>
<event>
 4    1  0.6502538E-008  0.1799490E+04  0.7818608E-02  0.8722818E-01
          2   -1    0    0  501    0  0.00000000000E+00  0.00000000000E+00  0.14142027521E+04  0.14142027521E+04  0.25500000000E-02 0. -1.
         -2   -1    0    0    0  501 -0.00000000000E+00 -0.00000000000E+00 -0.23503562180E+04  0.23503562180E+04  0.25500000000E-02 0.  1.
    8880023    1    1    2    0    0  0.12528059266E+04 -0.11112304471E+04 -0.10424150349E+04  0.20796141727E+04  0.65864270000E+03 0.  0.
    8880022    1    1    2    0    0 -0.12528059266E+04  0.11112304471E+04  0.10626156893E+03  0.16849447974E+04  0.15294330000E+03 0.  0.
<mgrwt>
<rscale>  0 0.17692624E+04</rscale>
<asrwt>0</asrwt>
<pdfrwt beam="1">  1        2 0.21756965E+00 0.17994905E+04</pdfrwt>
<pdfrwt beam="2">  1       -2 0.36159326E+00 0.17994905E+04</pdfrwt>
<totfact> 0.17052543E-01</totfact>
</mgrwt>
</event>
<event>
 4    1  0.6502538E-008  0.7084946E+03  0.7818608E-02  0.9963634E-01
          2   -1    0    0  501    0  0.00000000000E+00  0.00000000000E+00  0.26467952330E+04  0.26467952330E+04  0.25500000000E-02 0. -1.
         -2   -1    0    0    0  501 -0.00000000000E+00 -0.00000000000E+00 -0.72678881277E+03  0.72678881278E+03  0.25500000000E-02 0.  1.
    8880023    1    1    2    0    0 -0.15845691429E+03  0.20747481797E+03  0.25650530604E+04  0.26611016145E+04  0.65864270000E+03 0. -1.
    8880022    1    1    2    0    0  0.15845691429E+03 -0.20747481797E+03 -0.64504664021E+03  0.71248243125E+03  0.15294330000E+03 0.  0.
<mgrwt>
<rscale>  0 0.57273979E+03</rscale>
<asrwt>0</asrwt>
<pdfrwt beam="1">  1        2 0.40719927E+00 0.70849460E+03</pdfrwt>
<pdfrwt beam="2">  1       -2 0.11181366E+00 0.70849460E+03</pdfrwt>
<totfact> 0.19198391E+00</totfact>
</mgrwt>
</event>
<event>
 4    1  0.6502538E-008  0.6723072E+03  0.7818608E-02  0.1014060E+00
         -2   -1    0    0    0  501 -0.00000000000E+00  0.00000000000E+00  0.93131681423E+03  0.93131681423E+03  0.25500000000E-02 0.  1.
          2   -1    0    0  501    0  0.00000000000E+00 -0.00000000000E+00 -0.10082464918E+04  0.10082464918E+04  0.25500000000E-02 0. -1.
    8880023    1    1    2    0    0 -0.42499691423E+02 -0.12798623575E+03 -0.88203034269E+03  0.11090421236E+04  0.65864270000E+03 0. -1.
    8880022    1    1    2    0    0  0.42499691423E+02  0.12798623575E+03  0.80510066515E+03  0.83052118236E+03  0.15294330000E+03 0.  0.
<mgrwt>
<rscale>  0 0.49892379E+03</rscale>
<asrwt>0</asrwt>
<pdfrwt beam="1">  1        2 0.15511484E+00 0.67230715E+03</pdfrwt>
<pdfrwt beam="2">  1       -2 0.14327951E+00 0.67230715E+03</pdfrwt>
<totfact> 0.86525969E+00</totfact>
</mgrwt>
</event>
<event>
 4    1  0.6502538E-008  0.1198849E+04  0.7818608E-02  0.9158242E-01
         -2   -1    0    0    0  501 -0.00000000000E+00  0.00000000000E+00  0.49355187725E+03  0.49355187726E+03  0.25500000000E-02 0.  1.
          2   -1    0    0  501    0  0.00000000000E+00 -0.00000000000E+00 -0.33799532076E+04  0.33799532076E+04  0.25500000000E-02 0. -1.
    8880023    1    1    2    0    0 -0.21486929866E+03 -0.97839636208E+03 -0.25294178522E+04  0.27991414995E+04  0.65864270000E+03 0.  0.
    8880022    1    1    2    0    0  0.21486929866E+03  0.97839636208E+03 -0.35698347811E+03  0.10743635853E+04  0.15294330000E+03 0.  0.
<mgrwt>
<rscale>  0 0.11495030E+04</rscale>
<asrwt>0</asrwt>
<pdfrwt beam="1">  1        2 0.51999279E+00 0.11988488E+04</pdfrwt>
<pdfrwt beam="2">  1       -2 0.75931060E-01 0.11988488E+04</pdfrwt>
<totfact> 0.15310328E+00</totfact>
</mgrwt>
</event>
<event>
 4    1  0.6502538E-008  0.1455049E+04  0.7818608E-02  0.8942048E-01
          2   -1    0    0  501    0  0.00000000000E+00  0.00000000000E+00  0.32945907057E+04  0.32945907057E+04  0.25500000000E-02 0. -1.
         -2   -1    0    0    0  501 -0.00000000000E+00 -0.00000000000E+00 -0.13813507086E+04  0.13813507086E+04  0.25500000000E-02 0.  1.
    8880023    1    1    2    0    0 -0.22494277306E+02  0.12972471897E+04  0.27593298446E+04  0.31194659256E+04  0.65864270000E+03 0.  0.
    8880022    1    1    2    0    0  0.22494277306E+02 -0.12972471897E+04 -0.84608984747E+03  0.15564754886E+04  0.15294330000E+03 0.  0.
<mgrwt>
<rscale>  0 0.14163784E+04</rscale>
<asrwt>0</asrwt>
<pdfrwt beam="1">  1        2 0.50686011E+00 0.14550486E+04</pdfrwt>
<pdfrwt beam="2">  1       -2 0.21251549E+00 0.14550486E+04</pdfrwt>
<totfact> 0.11777377E-01</totfact>
</mgrwt>
</event>
<event>
 4    1  0.6502538E-008  0.8834157E+03  0.7818608E-02  0.9553197E-01
          2   -1    0    0  501    0  0.00000000000E+00  0.00000000000E+00  0.14855281152E+04  0.14855281152E+04  0.25500000000E-02 0. -1.
         -2   -1    0    0    0  501 -0.00000000000E+00 -0.00000000000E+00 -0.11349915182E+04  0.11349915182E+04  0.25500000000E-02 0.  1.
    8880023    1    1    2    0    0 -0.56091478558E+03  0.17885087539E+03  0.12524446228E+04  0.15326580740E+04  0.65864270000E+03 0. -1.
    8880022    1    1    2    0    0  0.56091478558E+03 -0.17885087539E+03 -0.90190802583E+03  0.10878615594E+04  0.15294330000E+03 0.  0.
<mgrwt>
<rscale>  0 0.80472914E+03</rscale>
<asrwt>0</asrwt>
<pdfrwt beam="1">  1        2 0.22854279E+00 0.88341567E+03</pdfrwt>
<pdfrwt beam="2">  1       -2 0.17461408E+00 0.88341567E+03</pdfrwt>
<totfact> 0.25775299E+00</totfact>
</mgrwt>
</event>
<event>
 4    1  0.6502538E-008  0.8034361E+03  0.7818608E-02  0.9703415E-01
         -2   -1    0    0    0  501 -0.00000000000E+00  0.00000000000E+00  0.19708240573E+04  0.19708240573E+04  0.25500000000E-02 0.  1.
          2   -1    0    0  501    0  0.00000000000E+00 -0.00000000000E+00 -0.31003866747E+03  0.31003866748E+03  0.25500000000E-02 0. -1.
    8880023    1    1    2    0    0 -0.35547573260E+03 -0.29212402028E+03  0.33731752229E+03  0.87137406250E+03  0.65864270000E+03 0.  0.
    8880022    1    1    2    0    0  0.35547573260E+03  0.29212402028E+03  0.13234678676E+04  0.14094886623E+04  0.15294330000E+03 0.  0.
<mgrwt>
<rscale>  0 0.70813824E+03</rscale>
<asrwt>0</asrwt>
<pdfrwt beam="1">  1        2 0.47698257E-01 0.80343615E+03</pdfrwt>
<pdfrwt beam="2">  1       -2 0.30320370E+00 0.80343615E+03</pdfrwt>
<totfact> 0.33214463E+00</totfact>
</mgrwt>
</event>
<event>
 4    1  0.6502538E-008  0.1621525E+04  0.7818608E-02  0.8828271E-01
          2   -1    0    0  501    0  0.00000000000E+00  0.00000000000E+00  0.93637238164E+03  0.93637238164E+03  0.25500000000E-02 0. -1.
         -2   -1    0    0    0  501 -0.00000000000E+00 -0.00000000000E+00 -0.36701137173E+04  0.36701137173E+04  0.25500000000E-02 0.  1.
    8880023    1    1    2    0    0 -0.14014753256E+04  0.48104116918E+03 -0.15563442269E+03  0.16289769717E+04  0.65864270000E+03 0.  0.
    8880022    1    1    2    0    0  0.14014753256E+04 -0.48104116918E+03 -0.25781069129E+04  0.29775091271E+04  0.15294330000E+03 0.  0.
<mgrwt>
<rscale>  0 0.15874886E+04</rscale>
<asrwt>0</asrwt>
<pdfrwt beam="1">  1        2 0.14405729E+00 0.16215252E+04</pdfrwt>
<pdfrwt beam="2">  1       -2 0.56463287E+00 0.16215252E+04</pdfrwt>
<totfact> 0.18297939E-02</totfact>
</mgrwt>
</event>
<event>
 4    1  0.6502538E-008  0.1634803E+04  0.7818608E-02  0.8819881E-01
          2   -1    0    0  501    0  0.00000000000E+00  0.00000000000E+00  0.13462360366E+04  0.13462360366E+04  0.25500000000E-02 0. -1.
         -2   -1    0    0    0  501 -0.00000000000E+00 -0.00000000000E+00 -0.30488141631E+04  0.30488141631E+04  0.25500000000E-02 0.  1.
    8880023    1    1    2    0    0  0.14021008435E+04  0.52238261813E+03  0.51635556383E+03  0.17144105838E+04  0.65864270000E+03 0. -1.
    8880022    1    1    2    0    0 -0.14021008435E+04 -0.52238261813E+03 -0.22189336903E+04  0.26806396159E+04  0.15294330000E+03 0.  0.
<mgrwt>
<rscale>  0 0.16010855E+04</rscale>
<asrwt>0</asrwt>
<pdfrwt beam="1">  1        2 0.20711324E+00 0.16348029E+04</pdfrwt>
<pdfrwt beam="2">  1       -2 0.46904833E+00 0.16348029E+04</pdfrwt>
<totfact> 0.37400779E-02</totfact>
</mgrwt>
</event>
<event>
 4    1  0.6502538E-008  0.7840398E+03  0.7818608E-02  0.9746432E-01
          2   -1    0    0  501    0  0.00000000000E+00  0.00000000000E+00  0.13584376560E+04  0.13584376560E+04  0.25500000000E-02 0. -1.
         -2   -1    0    0    0  501 -0.00000000000E+00 -0.00000000000E+00 -0.49724053340E+03  0.49724053340E+03  0.25500000000E-02 0.  1.
    8880023    1    1    2    0    0 -0.25362241832E+03 -0.34144381795E+03 -0.10301800930E+03  0.79077881130E+03  0.65864270000E+03 0.  0.
    8880022    1    1    2    0    0  0.25362241832E+03  0.34144381795E+03  0.96421513195E+03  0.10648993782E+04  0.15294330000E+03 0.  0.
<mgrwt>
<rscale>  0 0.68318307E+03</rscale>
<asrwt>0</asrwt>
<pdfrwt beam="1">  1        2 0.20899040E+00 0.78403981E+03</pdfrwt>
<pdfrwt beam="2">  1       -2 0.76498545E-01 0.78403981E+03</pdfrwt>
<totfact> 0.23771445E+01</totfact>
</mgrwt>
</event>
<event>
 4    1  0.6502538E-008  0.1286208E+04  0.7818608E-02  0.9077562E-01
          2   -1    0    0  501    0  0.00000000000E+00  0.00000000000E+00  0.26513868313E+04  0.26513868313E+04  0.25500000000E-02 0. -1.
         -2   -1    0    0    0  501 -0.00000000000E+00 -0.00000000000E+00 -0.68359596224E+03  0.68359596225E+03  0.25500000000E-02 0.  1.
    8880023    1    1    2    0    0  0.48647694637E+03  0.99189779008E+03  0.17921465450E+04  0.22059284871E+04  0.65864270000E+03 0.  0.
    8880022    1    1    2    0    0 -0.48647694637E+03 -0.99189779008E+03  0.17564432408E+03  0.11290543064E+04  0.15294330000E+03 0.  0.
<mgrwt>
<rscale>  0 0.12411726E+04</rscale>
<asrwt>0</asrwt>
<pdfrwt beam="1">  1        2 0.40790567E+00 0.12862081E+04</pdfrwt>
<pdfrwt beam="2">  1       -2 0.10516861E+00 0.12862081E+04</pdfrwt>
<totfact> 0.20254843E+00</totfact>
</mgrwt>
</event>
<event>
 4    1  0.6502538E-008  0.7391012E+03  0.7818608E-02  0.9862573E-01
          2   -1    0    0  501    0  0.00000000000E+00  0.00000000000E+00  0.37517935230E+04  0.37517935230E+04  0.25500000000E-02 0. -1.
         -2   -1    0    0    0  501 -0.00000000000E+00 -0.00000000000E+00 -0.18916155406E+03  0.18916155407E+03  0.25500000000E-02 0.  1.
    8880023    1    1    2    0    0 -0.34991867846E+02 -0.33352044534E+03  0.34872896889E+04  0.35647524316E+04  0.65864270000E+03 0. -1.
    8880022    1    1    2    0    0  0.34991867846E+02  0.33352044534E+03  0.75342280073E+02  0.37620264547E+03  0.15294330000E+03 0.  0.
<mgrwt>
<rscale>  0 0.62109947E+03</rscale>
<asrwt>0</asrwt>
<pdfrwt beam="1">  1        2 0.57719899E+00 0.73910116E+03</pdfrwt>
<pdfrwt beam="2">  1       -2 0.29101778E-01 0.73910116E+03</pdfrwt>
<totfact> 0.63423978E+00</totfact>
</mgrwt>
</event>
<event>
 4    1  0.6502538E-008  0.1054356E+04  0.7818608E-02  0.9313663E-01
          2   -1    0    0  501    0  0.00000000000E+00  0.00000000000E+00  0.11307828811E+04  0.11307828811E+04  0.25500000000E-02 0. -1.
         -2   -1    0    0    0  501 -0.00000000000E+00 -0.00000000000E+00 -0.14726617069E+04  0.14726617069E+04  0.25500000000E-02 0.  1.
    8880023    1    1    2    0    0  0.74315618135E+03 -0.35436664643E+03  0.70088326793E+03  0.12660586051E+04  0.65864270000E+03 0.  0.
    8880022    1    1    2    0    0 -0.74315618135E+03  0.35436664643E+03 -0.10427620937E+04  0.13373859829E+04  0.15294330000E+03 0.  0.
<mgrwt>
<rscale>  0 0.99534701E+03</rscale>
<asrwt>0</asrwt>
<pdfrwt beam="1">  1        2 0.17396660E+00 0.10543562E+04</pdfrwt>
<pdfrwt beam="2">  1       -2 0.22656334E+00 0.10543562E+04</pdfrwt>
<totfact> 0.18508660E+00</totfact>
</mgrwt>
</event>
<event>
 4    1  0.6502538E-008  0.8506849E+03  0.7818608E-02  0.9610353E-01
          2   -1    0    0  501    0  0.00000000000E+00  0.00000000000E+00  0.20314468450E+04  0.20314468450E+04  0.25500000000E-02 0. -1.
         -2   -1    0    0    0  501 -0.00000000000E+00 -0.00000000000E+00 -0.87547062080E+03  0.87547062080E+03  0.25500000000E-02 0.  1.
    8880023    1    1    2    0    0  0.45424361386E+03  0.28899355032E+03  0.18376008387E+04  0.20249547109E+04  0.65864270000E+03 0.  0.
    8880022    1    1    2    0    0 -0.45424361386E+03 -0.28899355032E+03 -0.68162461448E+03  0.88196275485E+03  0.15294330000E+03 0.  0.
<mgrwt>
<rscale>  0 0.76614726E+03</rscale>
<asrwt>0</asrwt>
<pdfrwt beam="1">  1        2 0.31253028E+00 0.85068486E+03</pdfrwt>
<pdfrwt beam="2">  1       -2 0.13468779E+00 0.85068486E+03</pdfrwt>
<totfact> 0.25986396E+00</totfact>
</mgrwt>
</event>
<event>
 4    1  0.6502538E-008  0.6940281E+03  0.7818608E-02  0.1002294E+00
         -2   -1    0    0    0  501 -0.00000000000E+00  0.00000000000E+00  0.32568538268E+03  0.32568538269E+03  0.25500000000E-02 0.  1.
          2   -1    0    0  501    0  0.00000000000E+00 -0.00000000000E+00 -0.24238113408E+04  0.24238113408E+04  0.25500000000E-02 0. -1.
    8880023    1    1    2    0    0 -0.13469846469E+03 -0.17239800877E+03 -0.23078996842E+04  0.24099950018E+04  0.65864270000E+03 0. -1.
    8880022    1    1    2    0    0  0.13469846469E+03  0.17239800877E+03  0.20977372616E+03  0.33950172167E+03  0.15294330000E+03 0.  0.
<mgrwt>
<rscale>  0 0.54655738E+03</rscale>
<asrwt>0</asrwt>
<pdfrwt beam="1">  1        2 0.37289404E+00 0.69402807E+03</pdfrwt>
<pdfrwt beam="2">  1       -2 0.50105445E-01 0.69402807E+03</pdfrwt>
<totfact> 0.15308454E+01</totfact>
</mgrwt>
</event>
<event>
 4    1  0.6502538E-008  0.1201812E+04  0.7818608E-02  0.9155363E-01
         -2   -1    0    0    0  501 -0.00000000000E+00  0.00000000000E+00  0.62173884527E+03  0.62173884528E+03  0.25500000000E-02 0.  1.
          2   -1    0    0  501    0  0.00000000000E+00 -0.00000000000E+00 -0.28555308410E+04  0.28555308410E+04  0.25500000000E-02 0. -1.
    8880023    1    1    2    0    0 -0.93639366362E+03 -0.36566335826E+03 -0.21422441102E+04  0.24563311704E+04  0.65864270000E+03 0.  0.
    8880022    1    1    2    0    0  0.93639366362E+03  0.36566335826E+03 -0.91547885564E+02  0.10209385159E+04  0.15294330000E+03 0.  0.
<mgrwt>
<rscale>  0 0.11526279E+04</rscale>
<asrwt>0</asrwt>
<pdfrwt beam="1">  1        2 0.43931243E+00 0.12018124E+04</pdfrwt>
<pdfrwt beam="2">  1       -2 0.95652132E-01 0.12018124E+04</pdfrwt>
<totfact> 0.19398396E+00</totfact>
</mgrwt>
</event>
<event>
 4    1  0.6502538E-008  0.8006770E+03  0.7818608E-02  0.9709334E-01
          2   -1    0    0  501    0  0.00000000000E+00  0.00000000000E+00  0.12071853747E+04  0.12071853747E+04  0.25500000000E-02 0. -1.
         -2   -1    0    0    0  501 -0.00000000000E+00 -0.00000000000E+00 -0.53181111122E+03  0.53181111122E+03  0.25500000000E-02 0.  1.
    8880023    1    1    2    0    0  0.38652349714E+03  0.24056805987E+03  0.90355820765E+03  0.12072700800E+04  0.65864270000E+03 0.  0.
    8880022    1    1    2    0    0 -0.38652349714E+03 -0.24056805987E+03 -0.22818394421E+03  0.53172640585E+03  0.15294330000E+03 0.  0.
<mgrwt>
<rscale>  0 0.70463746E+03</rscale>
<asrwt>0</asrwt>
<pdfrwt beam="1">  1        2 0.18572083E+00 0.80067697E+03</pdfrwt>
<pdfrwt beam="2">  1       -2 0.81817095E-01 0.80067697E+03</pdfrwt>
<totfact> 0.24978641E+01</totfact>
</mgrwt>
</event>
<event>
 4    1  0.6502538E-008  0.8536267E+03  0.7818608E-02  0.9605002E-01
          2   -1    0    0  501    0  0.00000000000E+00  0.00000000000E+00  0.31991676120E+04  0.31991676120E+04  0.25500000000E-02 0. -1.
         -2   -1    0    0    0  501 -0.00000000000E+00 -0.00000000000E+00 -0.35617331804E+03  0.35617331805E+03  0.25500000000E-02 0.  1.
    8880023    1    1    2    0    0 -0.43023088829E+03 -0.33131521903E+03  0.28663029934E+04  0.29907142037E+04  0.65864270000E+03 0. -1.
    8880022    1    1    2    0    0  0.43023088829E+03  0.33131521903E+03 -0.23308699518E+02  0.56462672633E+03  0.15294330000E+03 0.  0.
<mgrwt>
<rscale>  0 0.76965974E+03</rscale>
<asrwt>0</asrwt>
<pdfrwt beam="1">  1        2 0.49217962E+00 0.85362673E+03</pdfrwt>
<pdfrwt beam="2">  1       -2 0.54795896E-01 0.85362673E+03</pdfrwt>
<totfact> 0.42823120E+00</totfact>
</mgrwt>
</event>
<event>
 4    1  0.6502538E-008  0.7054400E+03  0.7818608E-02  0.9975341E-01
          2   -1    0    0  501    0  0.00000000000E+00  0.00000000000E+00  0.24029597662E+04  0.24029597662E+04  0.25500000000E-02 0. -1.
         -2   -1    0    0    0  501 -0.00000000000E+00 -0.00000000000E+00 -0.24619184098E+03  0.24619184099E+03  0.25500000000E-02 0.  1.
    8880023    1    1    2    0    0  0.25076686602E+03  0.30844050716E+02  0.22349473664E+04  0.23436371974E+04  0.65864270000E+03 0.  0.
    8880022    1    1    2    0    0 -0.25076686602E+03 -0.30844050716E+02 -0.78179441106E+02  0.30551440978E+03  0.15294330000E+03 0.  0.
<mgrwt>
<rscale>  0 0.56744849E+03</rscale>
<asrwt>0</asrwt>
<pdfrwt beam="1">  1        2 0.36968613E+00 0.70543999E+03</pdfrwt>
<pdfrwt beam="2">  1       -2 0.37875666E-01 0.70543999E+03</pdfrwt>
<totfact> 0.27318364E+01</totfact>
</mgrwt>
</event>
<event>
 4    1  0.6502538E-008  0.1061802E+04  0.7818608E-02  0.9304827E-01
         -2   -1    0    0    0  501 -0.00000000000E+00  0.00000000000E+00  0.69134028372E+03  0.69134028373E+03  0.25500000000E-02 0.  1.
          2   -1    0    0  501    0  0.00000000000E+00 -0.00000000000E+00 -0.15662293891E+04  0.15662293891E+04  0.25500000000E-02 0. -1.
    8880023    1    1    2    0    0 -0.55526544955E+03  0.62071950902E+03 -0.92656172206E+03  0.14092335716E+04  0.65864270000E+03 0.  0.
    8880022    1    1    2    0    0  0.55526544955E+03 -0.62071950902E+03  0.51672616656E+02  0.84833610124E+03  0.15294330000E+03 0.  0.
<mgrwt>
<rscale>  0 0.10033969E+04</rscale>
<asrwt>0</asrwt>
<pdfrwt beam="1">  1        2 0.24095837E+00 0.10618016E+04</pdfrwt>
<pdfrwt beam="2">  1       -2 0.10636004E+00 0.10618016E+04</pdfrwt>
<totfact> 0.82124489E+00</totfact>
</mgrwt>
</event>
<event>
 4    1  0.6502538E-008  0.9654142E+03  0.7818608E-02  0.9428275E-01
         -2   -1    0    0    0  501 -0.00000000000E+00  0.00000000000E+00  0.12192224335E+04  0.12192224335E+04  0.25500000000E-02 0.  1.
          2   -1    0    0  501    0  0.00000000000E+00 -0.00000000000E+00 -0.77954332329E+03  0.77954332330E+03  0.25500000000E-02 0. -1.
    8880023    1    1    2    0    0 -0.69540064052E+03 -0.12096441404E+03 -0.25304856662E+03  0.99802716578E+03  0.65864270000E+03 0.  0.
    8880022    1    1    2    0    0  0.69540064052E+03  0.12096441404E+03  0.69272767681E+03  0.10007385910E+04  0.15294330000E+03 0.  0.
<mgrwt>
<rscale>  0 0.89784859E+03</rscale>
<asrwt>0</asrwt>
<pdfrwt beam="1">  1        2 0.11992974E+00 0.96541424E+03</pdfrwt>
<pdfrwt beam="2">  1       -2 0.18757268E+00 0.96541424E+03</pdfrwt>
<totfact> 0.57132207E+00</totfact>
</mgrwt>
</event>
<event>
 4    1  0.6502538E-008  0.9593370E+03  0.7818608E-02  0.9436805E-01
          2   -1    0    0  501    0  0.00000000000E+00  0.00000000000E+00  0.24743043596E+04  0.24743043596E+04  0.25500000000E-02 0. -1.
         -2   -1    0    0    0  501 -0.00000000000E+00 -0.00000000000E+00 -0.92909568978E+03  0.92909568979E+03  0.25500000000E-02 0.  1.
    8880023    1    1    2    0    0 -0.39208423690E+03  0.57687718753E+03  0.22215656220E+04  0.24198515156E+04  0.65864270000E+03 0.  0.
    8880022    1    1    2    0    0  0.39208423690E+03 -0.57687718753E+03 -0.67635695226E+03  0.98354853373E+03  0.15294330000E+03 0.  0.
<mgrwt>
<rscale>  0 0.89107650E+03</rscale>
<asrwt>0</asrwt>
<pdfrwt beam="1">  1        2 0.38066220E+00 0.95933703E+03</pdfrwt>
<pdfrwt beam="2">  1       -2 0.14293780E+00 0.95933703E+03</pdfrwt>
<totfact> 0.12402757E+00</totfact>
</mgrwt>
</event>
<event>
 4    1  0.6502538E-008  0.7178476E+03  0.7818608E-02  0.9929937E-01
         -2   -1    0    0    0  501 -0.00000000000E+00  0.00000000000E+00  0.52646072147E+03  0.52646072148E+03  0.25500000000E-02 0.  1.
          2   -1    0    0  501    0  0.00000000000E+00 -0.00000000000E+00 -0.56857180836E+03  0.56857180836E+03  0.25500000000E-02 0. -1.
    8880023    1    1    2    0    0 -0.27892706120E+03 -0.60783351180E+02 -0.18461188204E+03  0.74120622940E+03  0.65864270000E+03 0.  0.
    8880022    1    1    2    0    0  0.27892706120E+03  0.60783351180E+02  0.14250079516E+03  0.35382630044E+03  0.15294330000E+03 0.  0.
<mgrwt>
<rscale>  0 0.58832074E+03</rscale>
<asrwt>0</asrwt>
<pdfrwt beam="1">  1        2 0.87472586E-01 0.71784757E+03</pdfrwt>
<pdfrwt beam="2">  1       -2 0.80993957E-01 0.71784757E+03</pdfrwt>
<totfact> 0.72120459E+01</totfact>
</mgrwt>
</event>
<event>
 4    1  0.6502538E-008  0.9867842E+03  0.7818608E-02  0.9399056E-01
          2   -1    0    0  501    0  0.00000000000E+00  0.00000000000E+00  0.11163393065E+04  0.11163393065E+04  0.25500000000E-02 0. -1.
         -2   -1    0    0    0  501 -0.00000000000E+00 -0.00000000000E+00 -0.69773202376E+03  0.69773202376E+03  0.25500000000E-02 0.  1.
    8880023    1    1    2    0    0 -0.15230654311E+03  0.71884321896E+03  0.39571917075E+03  0.10631729515E+04  0.65864270000E+03 0.  0.
    8880022    1    1    2    0    0  0.15230654311E+03 -0.71884321896E+03  0.22888112020E+02  0.75089837875E+03  0.15294330000E+03 0.  0.
<mgrwt>
<rscale>  0 0.92153423E+03</rscale>
<asrwt>0</asrwt>
<pdfrwt beam="1">  1        2 0.17174451E+00 0.98678420E+03</pdfrwt>
<pdfrwt beam="2">  1       -2 0.10734339E+00 0.98678420E+03</pdfrwt>
<totfact> 0.14757635E+01</totfact>
</mgrwt>
</event>
<event>
 4    1  0.6502538E-008  0.7435950E+03  0.7818608E-02  0.9849596E-01
         -2   -1    0    0    0  501 -0.00000000000E+00  0.00000000000E+00  0.43454798628E+03  0.43454798629E+03  0.25500000000E-02 0.  1.
          2   -1    0    0  501    0  0.00000000000E+00 -0.00000000000E+00 -0.40878950665E+04  0.40878950666E+04  0.25500000000E-02 0. -1.
    8880023    1    1    2    0    0 -0.19159051867E+02  0.34461025851E+03 -0.39642500875E+04  0.40333871946E+04  0.65864270000E+03 0. -1.
    8880022    1    1    2    0    0  0.19159051867E+02 -0.34461025851E+03  0.31090300721E+03  0.48905585820E+03  0.15294330000E+03 0.  0.
<mgrwt>
<rscale>  0 0.62767509E+03</rscale>
<asrwt>0</asrwt>
<pdfrwt beam="1">  1        2 0.62890691E+00 0.74359499E+03</pdfrwt>
<pdfrwt beam="2">  1       -2 0.66853539E-01 0.74359499E+03</pdfrwt>
<totfact> 0.66655685E-01</totfact>
</mgrwt>
</event>
<event>
 4    1  0.6502538E-008  0.7499151E+03  0.7818608E-02  0.9831953E-01
         -2   -1    0    0    0  501 -0.00000000000E+00  0.00000000000E+00  0.11752147943E+04  0.11752147943E+04  0.25500000000E-02 0.  1.
          2   -1    0    0  501    0  0.00000000000E+00 -0.00000000000E+00 -0.41581275875E+03  0.41581275875E+03  0.25500000000E-02 0. -1.
    8880023    1    1    2    0    0  0.30480436938E+03 -0.18882985369E+03  0.14224731227E+02  0.75004997599E+03  0.65864270000E+03 0.  1.
    8880022    1    1    2    0    0 -0.30480436938E+03  0.18882985369E+03  0.74517730437E+03  0.84097757711E+03  0.15294330000E+03 0.  0.
<mgrwt>
<rscale>  0 0.63675609E+03</rscale>
<asrwt>0</asrwt>
<pdfrwt beam="1">  1        2 0.63971193E-01 0.74991508E+03</pdfrwt>
<pdfrwt beam="2">  1       -2 0.18080228E+00 0.74991508E+03</pdfrwt>
<totfact> 0.13842960E+01</totfact>
</mgrwt>
</event>
<event>
 4    1  0.6502538E-008  0.9835874E+03  0.7818608E-02  0.9403352E-01
         -2   -1    0    0    0  501 -0.00000000000E+00  0.00000000000E+00  0.57256696192E+03  0.57256696193E+03  0.25500000000E-02 0.  1.
          2   -1    0    0  501    0  0.00000000000E+00 -0.00000000000E+00 -0.28224402582E+04  0.28224402582E+04  0.25500000000E-02 0. -1.
    8880023    1    1    2    0    0  0.39568479636E+03 -0.61405823972E+03 -0.24349122091E+04  0.26260696205E+04  0.65864270000E+03 0.  0.
    8880022    1    1    2    0    0 -0.39568479636E+03  0.61405823972E+03  0.18503891277E+03  0.76893759961E+03  0.15294330000E+03 0.  0.
<mgrwt>
<rscale>  0 0.91800304E+03</rscale>
<asrwt>0</asrwt>
<pdfrwt beam="1">  1        2 0.43422157E+00 0.98358741E+03</pdfrwt>
<pdfrwt beam="2">  1       -2 0.88087226E-01 0.98358741E+03</pdfrwt>
<totfact> 0.25354114E+00</totfact>
</mgrwt>
</event>
<event>
 4    1  0.6502538E-008  0.7875401E+03  0.7818608E-02  0.9738414E-01
         -2   -1    0    0    0  501 -0.00000000000E+00  0.00000000000E+00  0.37740834921E+03  0.37740834922E+03  0.25500000000E-02 0.  1.
          2   -1    0    0  501    0  0.00000000000E+00 -0.00000000000E+00 -0.16652173392E+04  0.16652173393E+04  0.25500000000E-02 0. -1.
    8880023    1    1    2    0    0  0.30193645550E+03 -0.30861551742E+03 -0.13671569412E+04  0.15777634388E+04  0.65864270000E+03 0.  0.
    8880022    1    1    2    0    0 -0.30193645550E+03  0.30861551742E+03  0.79347951196E+02  0.46486224962E+03  0.15294330000E+03 0.  0.
<mgrwt>
<rscale>  0 0.68774967E+03</rscale>
<asrwt>0</asrwt>
<pdfrwt beam="1">  1        2 0.25618728E+00 0.78754007E+03</pdfrwt>
<pdfrwt beam="2">  1       -2 0.58062824E-01 0.78754007E+03</pdfrwt>
<totfact> 0.29080670E+01</totfact>
</mgrwt>
</event>
<event>
 4    1  0.6502538E-008  0.1308458E+04  0.7818608E-02  0.9058290E-01
         -2   -1    0    0    0  501 -0.00000000000E+00  0.00000000000E+00  0.63639753179E+03  0.63639753179E+03  0.25500000000E-02 0.  1.
          2   -1    0    0  501    0  0.00000000000E+00 -0.00000000000E+00 -0.26797761785E+04  0.26797761785E+04  0.25500000000E-02 0. -1.
    8880023    1    1    2    0    0 -0.80197779723E+03  0.79692082926E+03 -0.50867446001E+03  0.14038558002E+04  0.65864270000E+03 0.  0.
    8880022    1    1    2    0    0  0.80197779723E+03 -0.79692082926E+03 -0.15347041867E+04  0.19123179100E+04  0.15294330000E+03 0.  0.
<mgrwt>
<rscale>  0 0.12643905E+04</rscale>
<asrwt>0</asrwt>
<pdfrwt beam="1">  1        2 0.41227325E+00 0.13084576E+04</pdfrwt>
<pdfrwt beam="2">  1       -2 0.97907314E-01 0.13084576E+04</pdfrwt>
<totfact> 0.23083646E+00</totfact>
</mgrwt>
</event>
<event>
 4    1  0.7241240E-008  0.9243260E+03  0.7818608E-02  0.9488058E-01
          2   -1    0    0  501    0  0.00000000000E+00  0.00000000000E+00  0.16157295283E+04  0.16157295283E+04  0.25500000000E-02 0. -1.
         -2   -1    0    0    0  501 -0.00000000000E+00 -0.00000000000E+00 -0.17708240805E+04  0.17708240805E+04  0.25500000000E-02 0.  1.
    8880023    1    1    2    0    0  0.59324507812E+03  0.26197066524E+03  0.14097522924E+04  0.16857580148E+04  0.65864270000E+03 0.  0.
    8880022    1    1    2    0    0 -0.59324507812E+03 -0.26197066524E+03 -0.15648468447E+04  0.17007955940E+04  0.15294330000E+03 0.  0.
<mgrwt>
<rscale>  0 0.85170041E+03</rscale>
<asrwt>0</asrwt>
<pdfrwt beam="1">  1        2 0.24857377E+00 0.92432600E+03</pdfrwt>
<pdfrwt beam="2">  1       -2 0.27243448E+00 0.92432600E+03</pdfrwt>
<totfact> 0.51947912E-01</totfact>
</mgrwt>
</event>
<event>
 4    1  0.6502538E-008  0.1331938E+04  0.7818608E-02  0.9038459E-01
         -2   -1    0    0    0  501 -0.00000000000E+00  0.00000000000E+00  0.78348974012E+03  0.78348974013E+03  0.25500000000E-02 0.  1.
          2   -1    0    0  501    0  0.00000000000E+00 -0.00000000000E+00 -0.28059714002E+04  0.28059714002E+04  0.25500000000E-02 0. -1.
    8880023    1    1    2    0    0 -0.85283982678E+03  0.78288685093E+03 -0.20225302818E+04  0.24217114895E+04  0.65864270000E+03 0.  0.
    8880022    1    1    2    0    0  0.85283982678E+03 -0.78288685093E+03  0.48621744959E-01  0.11677496508E+04  0.15294330000E+03 0.  0.
<mgrwt>
<rscale>  0 0.12888440E+04</rscale>
<asrwt>0</asrwt>
<pdfrwt beam="1">  1        2 0.43168790E+00 0.13319376E+04</pdfrwt>
<pdfrwt beam="2">  1       -2 0.12053688E+00 0.13319376E+04</pdfrwt>
<totfact> 0.11667388E+00</totfact>
</mgrwt>
</event>
<event>
 4    1  0.6502538E-008  0.7062196E+03  0.7818608E-02  0.9972316E-01
         -2   -1    0    0    0  501 -0.00000000000E+00  0.00000000000E+00  0.26109066308E+03  0.26109066309E+03  0.25500000000E-02 0.  1.
          2   -1    0    0  501    0  0.00000000000E+00 -0.00000000000E+00 -0.12345904580E+04  0.12345904580E+04  0.25500000000E-02 0. -1.
    8880023    1    1    2    0    0  0.24964383927E+03  0.51126709720E+02 -0.96824599823E+03  0.11984350238E+04  0.65864270000E+03 0. -1.
    8880022    1    1    2    0    0 -0.24964383927E+03 -0.51126709720E+02 -0.52537966435E+01  0.29724609724E+03  0.15294330000E+03 0.  0.
<mgrwt>
<rscale>  0 0.56880961E+03</rscale>
<asrwt>0</asrwt>
<pdfrwt beam="1">  1        2 0.18993699E+00 0.70621965E+03</pdfrwt>
<pdfrwt beam="2">  1       -2 0.40167795E-01 0.70621965E+03</pdfrwt>
<totfact> 0.10794111E+02</totfact>
</mgrwt>
</event>
<event>
 4    1  0.6502538E-008  0.9023436E+03  0.7818608E-02  0.9522280E-01
          2   -1    0    0  501    0  0.00000000000E+00  0.00000000000E+00  0.31206781554E+04  0.31206781554E+04  0.25500000000E-02 0. -1.
         -2   -1    0    0    0  501 -0.00000000000E+00 -0.00000000000E+00 -0.32128078726E+03  0.32128078728E+03  0.25500000000E-02 0.  1.
    8880023    1    1    2    0    0 -0.58183082692E+03 -0.20466229351E+03  0.26355191696E+04  0.27857109084E+04  0.65864270000E+03 0. -1.
    8880022    1    1    2    0    0  0.58183082692E+03  0.20466229351E+03  0.16387819854E+03  0.65624803429E+03  0.15294330000E+03 0.  0.
<mgrwt>
<rscale>  0 0.82660966E+03</rscale>
<asrwt>0</asrwt>
<pdfrwt beam="1">  1        2 0.48010434E+00 0.90234360E+03</pdfrwt>
<pdfrwt beam="2">  1       -2 0.49427813E-01 0.90234360E+03</pdfrwt>
<totfact> 0.58888144E+00</totfact>
</mgrwt>
</event>
<event>
 4    1  0.6502538E-008  0.8706379E+03  0.7818608E-02  0.9574914E-01
         -2   -1    0    0    0  501 -0.00000000000E+00  0.00000000000E+00  0.62304802115E+03  0.62304802116E+03  0.25500000000E-02 0.  1.
          2   -1    0    0  501    0  0.00000000000E+00 -0.00000000000E+00 -0.22592528021E+04  0.22592528021E+04  0.25500000000E-02 0. -1.
    8880023    1    1    2    0    0 -0.18858693825E+03  0.53724768818E+03 -0.20057005125E+04  0.21865143183E+04  0.65864270000E+03 0. -1.
    8880022    1    1    2    0    0  0.18858693825E+03 -0.53724768818E+03  0.36949573165E+03  0.69578650494E+03  0.15294330000E+03 0.  0.
<mgrwt>
<rscale>  0 0.78979041E+03</rscale>
<asrwt>0</asrwt>
<pdfrwt beam="1">  1        2 0.34757735E+00 0.87063788E+03</pdfrwt>
<pdfrwt beam="2">  1       -2 0.95853543E-01 0.87063788E+03</pdfrwt>
<totfact> 0.44631998E+00</totfact>
</mgrwt>
</event>
<event>
 4    1  0.6502538E-008  0.1518710E+04  0.7818608E-02  0.8896536E-01
         -2   -1    0    0    0  501 -0.00000000000E+00  0.00000000000E+00  0.18279506638E+04  0.18279506638E+04  0.25500000000E-02 0.  1.
          2   -1    0    0  501    0  0.00000000000E+00 -0.00000000000E+00 -0.26622256149E+04  0.26622256149E+04  0.25500000000E-02 0. -1.
    8880023    1    1    2    0    0 -0.10400056347E+04 -0.88941508829E+03 -0.21189347091E+04  0.26069839714E+04  0.65864270000E+03 0.  0.
    8880022    1    1    2    0    0  0.10400056347E+04  0.88941508829E+03  0.12846597580E+04  0.18831923073E+04  0.15294330000E+03 0.  0.
<mgrwt>
<rscale>  0 0.14819645E+04</rscale>
<asrwt>0</asrwt>
<pdfrwt beam="1">  1        2 0.40957317E+00 0.15187103E+04</pdfrwt>
<pdfrwt beam="2">  1       -2 0.28122318E+00 0.15187103E+04</pdfrwt>
<totfact> 0.10837655E-01</totfact>
</mgrwt>
</event>
<event>
 4    1  0.6502538E-008  0.8270102E+03  0.7818608E-02  0.9655178E-01
          2   -1    0    0  501    0  0.00000000000E+00  0.00000000000E+00  0.80451913911E+03  0.80451913911E+03  0.25500000000E-02 0. -1.
         -2   -1    0    0    0  501 -0.00000000000E+00 -0.00000000000E+00 -0.63925885976E+03  0.63925885976E+03  0.25500000000E-02 0.  1.
    8880023    1    1    2    0    0 -0.11056191306E+02  0.50001334914E+03  0.33738707610E+03  0.89318297905E+03  0.65864270000E+03 0.  1.
    8880022    1    1    2    0    0  0.11056191306E+02 -0.50001334914E+03 -0.17212679675E+03  0.55059501983E+03  0.15294330000E+03 0.  0.
<mgrwt>
<rscale>  0 0.73749351E+03</rscale>
<asrwt>0</asrwt>
<pdfrwt beam="1">  1        2 0.12377217E+00 0.82701015E+03</pdfrwt>
<pdfrwt beam="2">  1       -2 0.98347518E-01 0.82701015E+03</pdfrwt>
<totfact> 0.29597084E+01</totfact>
</mgrwt>
</event>
<event>
 4    1  0.6502538E-008  0.7027995E+03  0.7818608E-02  0.9985780E-01
          2   -1    0    0  501    0  0.00000000000E+00  0.00000000000E+00  0.77067336720E+03  0.77067336720E+03  0.25500000000E-02 0. -1.
         -2   -1    0    0    0  501 -0.00000000000E+00 -0.00000000000E+00 -0.88249708630E+03  0.88249708630E+03  0.25500000000E-02 0.  1.
    8880023    1    1    2    0    0  0.24350440201E+03  0.28681026980E+02  0.57498755248E+03  0.90804068569E+03  0.65864270000E+03 0. -1.
    8880022    1    1    2    0    0 -0.24350440201E+03 -0.28681026980E+02 -0.68681127157E+03  0.74512976781E+03  0.15294330000E+03 0.  0.
<mgrwt>
<rscale>  0 0.56278179E+03</rscale>
<asrwt>0</asrwt>
<pdfrwt beam="1">  1        2 0.11856513E+00 0.70279955E+03</pdfrwt>
<pdfrwt beam="2">  1       -2 0.13576878E+00 0.70279955E+03</pdfrwt>
<totfact> 0.14355617E+01</totfact>
</mgrwt>
</event>
<event>
 4    1  0.6502538E-008  0.1862933E+04  0.7818608E-02  0.8688500E-01
         -2   -1    0    0    0  501 -0.00000000000E+00  0.00000000000E+00  0.79112467989E+03  0.79112467989E+03  0.25500000000E-02 0.  1.
          2   -1    0    0  501    0  0.00000000000E+00 -0.00000000000E+00 -0.46819939193E+04  0.46819939193E+04  0.25500000000E-02 0. -1.
    8880023    1    1    2    0    0  0.34587072339E+03 -0.17079466244E+04 -0.10544618375E+04  0.21406560214E+04  0.65864270000E+03 0.  0.
    8880022    1    1    2    0    0 -0.34587072339E+03  0.17079466244E+04 -0.28364074020E+04  0.33324625778E+04  0.15294330000E+03 0.  0.
<mgrwt>
<rscale>  0 0.18338543E+04</rscale>
<asrwt>0</asrwt>
<pdfrwt beam="1">  1        2 0.72030674E+00 0.18629328E+04</pdfrwt>
<pdfrwt beam="2">  1       -2 0.12171149E+00 0.18629328E+04</pdfrwt>
<totfact> 0.38346976E-02</totfact>
</mgrwt>
</event>
<event>
 4    1  0.6502538E-008  0.6808710E+03  0.7818608E-02  0.1008835E+00
         -2   -1    0    0    0  501 -0.00000000000E+00  0.00000000000E+00  0.18159600962E+03  0.18159600963E+03  0.25500000000E-02 0.  1.
          2   -1    0    0  501    0  0.00000000000E+00 -0.00000000000E+00 -0.16260833371E+04  0.16260833371E+04  0.25500000000E-02 0. -1.
    8880023    1    1    2    0    0  0.98524692642E+01 -0.17227318275E+03 -0.14212600381E+04  0.15759331911E+04  0.65864270000E+03 0. -1.
    8880022    1    1    2    0    0 -0.98524692642E+01  0.17227318275E+03 -0.23227289333E+02  0.23174615559E+03  0.15294330000E+03 0.  0.
<mgrwt>
<rscale>  0 0.51940206E+03</rscale>
<asrwt>0</asrwt>
<pdfrwt beam="1">  1        2 0.25016666E+00 0.68087101E+03</pdfrwt>
<pdfrwt beam="2">  1       -2 0.27937849E-01 0.68087101E+03</pdfrwt>
<totfact> 0.12933651E+02</totfact>
</mgrwt>
</event>
<event>
 4    1  0.6502538E-008  0.6829120E+03  0.7818608E-02  0.1007722E+00
         -2   -1    0    0    0  501 -0.00000000000E+00  0.00000000000E+00  0.89912464487E+03  0.89912464487E+03  0.25500000000E-02 0.  1.
          2   -1    0    0  501    0  0.00000000000E+00 -0.00000000000E+00 -0.16765523557E+04  0.16765523557E+04  0.25500000000E-02 0. -1.
    8880023    1    1    2    0    0  0.13277189911E+03 -0.12218926298E+03 -0.15894270584E+04  0.17299269272E+04  0.65864270000E+03 0. -1.
    8880022    1    1    2    0    0 -0.13277189911E+03  0.12218926298E+03  0.81199934756E+03  0.84575007339E+03  0.15294330000E+03 0.  0.
<mgrwt>
<rscale>  0 0.52390049E+03</rscale>
<asrwt>0</asrwt>
<pdfrwt beam="1">  1        2 0.25793113E+00 0.68291200E+03</pdfrwt>
<pdfrwt beam="2">  1       -2 0.13832687E+00 0.68291200E+03</pdfrwt>
<totfact> 0.38996119E+00</totfact>
</mgrwt>
</event>
<event>
 4    1  0.6502538E-008  0.7340056E+03  0.7818608E-02  0.9877765E-01
          2   -1    0    0  501    0  0.00000000000E+00  0.00000000000E+00  0.19226976487E+04  0.19226976487E+04  0.25500000000E-02 0. -1.
         -2   -1    0    0    0  501 -0.00000000000E+00 -0.00000000000E+00 -0.80375069225E+03  0.80375069225E+03  0.25500000000E-02 0.  1.
    8880023    1    1    2    0    0  0.27813987759E+03 -0.16610899133E+03  0.18071801901E+04  0.19505549042E+04  0.65864270000E+03 0. -1.
    8880022    1    1    2    0    0 -0.27813987759E+03  0.16610899133E+03 -0.68823323357E+03  0.77589343683E+03  0.15294330000E+03 0.  0.
<mgrwt>
<rscale>  0 0.61351073E+03</rscale>
<asrwt>0</asrwt>
<pdfrwt beam="1">  1        2 0.29579964E+00 0.73400558E+03</pdfrwt>
<pdfrwt beam="2">  1       -2 0.12365395E+00 0.73400558E+03</pdfrwt>
<totfact> 0.37701855E+00</totfact>
</mgrwt>
</event>
<event>
 4    1  0.6502538E-008  0.6880820E+03  0.7818608E-02  0.1005078E+00
          2   -1    0    0  501    0  0.00000000000E+00  0.00000000000E+00  0.20320927510E+04  0.20320927510E+04  0.25500000000E-02 0. -1.
         -2   -1    0    0    0  501 -0.00000000000E+00 -0.00000000000E+00 -0.19623074743E+03  0.19623074744E+03  0.25500000000E-02 0.  1.
    8880023    1    1    2    0    0  0.92215426468E+02 -0.17647360382E+03  0.18530349239E+04  0.19766626554E+04  0.65864270000E+03 0.  0.
    8880022    1    1    2    0    0 -0.92215426468E+02  0.17647360382E+03 -0.17172920331E+02  0.25166084306E+03  0.15294330000E+03 0.  0.
<mgrwt>
<rscale>  0 0.53478680E+03</rscale>
<asrwt>0</asrwt>
<pdfrwt beam="1">  1        2 0.31262966E+00 0.68808199E+03</pdfrwt>
<pdfrwt beam="2">  1       -2 0.30189345E-01 0.68808199E+03</pdfrwt>
<totfact> 0.67336666E+01</totfact>
</mgrwt>
</event>
<event>
 4    1  0.8254459E-008  0.7206484E+03  0.7818608E-02  0.9920398E-01
          2   -1    0    0  501    0  0.00000000000E+00  0.00000000000E+00  0.17938685936E+04  0.17938685936E+04  0.25500000000E-02 0. -1.
         -2   -1    0    0    0  501 -0.00000000000E+00 -0.00000000000E+00 -0.17137659017E+04  0.17137659017E+04  0.25500000000E-02 0.  1.
    8880023    1    1    2    0    0 -0.28549980860E+03  0.63354086232E+02  0.17042207342E+04  0.18503249439E+04  0.65864270000E+03 0. -1.
    8880022    1    1    2    0    0  0.28549980860E+03 -0.63354086232E+02 -0.16241180423E+04  0.16573095514E+04  0.15294330000E+03 0.  0.
<mgrwt>
<rscale>  0 0.59282811E+03</rscale>
<asrwt>0</asrwt>
<pdfrwt beam="1">  1        2 0.27597978E+00 0.72064838E+03</pdfrwt>
<pdfrwt beam="2">  1       -2 0.26365629E+00 0.72064838E+03</pdfrwt>
<totfact> 0.48806654E-01</totfact>
</mgrwt>
</event>
<event>
 4    1  0.6502538E-008  0.8183934E+03  0.7818608E-02  0.9672352E-01
          2   -1    0    0  501    0  0.00000000000E+00  0.00000000000E+00  0.97741340291E+03  0.97741340292E+03  0.25500000000E-02 0. -1.
         -2   -1    0    0    0  501 -0.00000000000E+00 -0.00000000000E+00 -0.83353456082E+03  0.83353456082E+03  0.25500000000E-02 0.  1.
    8880023    1    1    2    0    0 -0.47982181354E+03  0.75687017209E+02  0.68546442034E+03  0.10675341564E+04  0.65864270000E+03 0. -1.
    8880022    1    1    2    0    0  0.47982181354E+03 -0.75687017209E+02 -0.54158557825E+03  0.74341380731E+03  0.15294330000E+03 0.  0.
<mgrwt>
<rscale>  0 0.72687073E+03</rscale>
<asrwt>0</asrwt>
<pdfrwt beam="1">  1        2 0.15037129E+00 0.81839337E+03</pdfrwt>
<pdfrwt beam="2">  1       -2 0.12823609E+00 0.81839337E+03</pdfrwt>
<totfact> 0.11821368E+01</totfact>
</mgrwt>
</event>
<event>
 4    1  0.6502538E-008  0.1072914E+04  0.7818608E-02  0.9291830E-01
          2   -1    0    0  501    0  0.00000000000E+00  0.00000000000E+00  0.19541887832E+04  0.19541887832E+04  0.25500000000E-02 0. -1.
         -2   -1    0    0    0  501 -0.00000000000E+00 -0.00000000000E+00 -0.51909983929E+03  0.51909983930E+03  0.25500000000E-02 0.  1.
    8880023    1    1    2    0    0  0.16623370825E+03 -0.83048150402E+03  0.44531690605E+03  0.11616585244E+04  0.65864270000E+03 0.  0.
    8880022    1    1    2    0    0 -0.16623370825E+03  0.83048150402E+03  0.98977203789E+03  0.13116300981E+04  0.15294330000E+03 0.  0.
<mgrwt>
<rscale>  0 0.10153848E+04</rscale>
<asrwt>0</asrwt>
<pdfrwt beam="1">  1        2 0.30064442E+00 0.10729135E+04</pdfrwt>
<pdfrwt beam="2">  1       -2 0.79861515E-01 0.10729135E+04</pdfrwt>
<totfact> 0.97705853E+00</totfact>
</mgrwt>
</event>
<event>
 4    1  0.6502538E-008  0.1269263E+04  0.7818608E-02  0.9092568E-01
         -2   -1    0    0    0  501 -0.00000000000E+00  0.00000000000E+00  0.20067015753E+04  0.20067015753E+04  0.25500000000E-02 0.  1.
          2   -1    0    0  501    0  0.00000000000E+00 -0.00000000000E+00 -0.10057751448E+04  0.10057751448E+04  0.25500000000E-02 0. -1.
    8880023    1    1    2    0    0  0.75246610024E+03 -0.78167322926E+03 -0.30736554689E+03  0.13059487184E+04  0.65864270000E+03 0.  0.
    8880022    1    1    2    0    0 -0.75246610024E+03  0.78167322926E+03  0.13082919774E+04  0.17065280017E+04  0.15294330000E+03 0.  0.
<mgrwt>
<rscale>  0 0.12234577E+04</rscale>
<asrwt>0</asrwt>
<pdfrwt beam="1">  1        2 0.15473464E+00 0.12692630E+04</pdfrwt>
<pdfrwt beam="2">  1       -2 0.30872332E+00 0.12692630E+04</pdfrwt>
<totfact> 0.68136855E-01</totfact>
</mgrwt>
</event>
<event>
 4    1  0.6502538E-008  0.8964728E+03  0.7818608E-02  0.9531718E-01
         -2   -1    0    0    0  501 -0.00000000000E+00  0.00000000000E+00  0.10287241050E+04  0.10287241050E+04  0.25500000000E-02 0.  1.
          2   -1    0    0  501    0  0.00000000000E+00 -0.00000000000E+00 -0.76980391878E+03  0.76980391878E+03  0.25500000000E-02 0. -1.
    8880023    1    1    2    0    0  0.54080486596E+03 -0.27817861374E+03  0.60572394622E+03  0.10819264991E+04  0.65864270000E+03 0.  1.
    8880022    1    1    2    0    0 -0.54080486596E+03  0.27817861374E+03 -0.34680376000E+03  0.71660152467E+03  0.15294330000E+03 0. -1.
<mgrwt>
<rscale>  0 0.81985249E+03</rscale>
<asrwt>0</asrwt>
<pdfrwt beam="1">  1        2 0.11843137E+00 0.89647278E+03</pdfrwt>
<pdfrwt beam="2">  1       -2 0.15826525E+00 0.89647278E+03</pdfrwt>
<totfact> 0.94162376E+00</totfact>
</mgrwt>
</event>
<event>
 4    1  0.6502538E-008  0.6685630E+03  0.7818608E-02  0.1016715E+00
          2   -1    0    0  501    0  0.00000000000E+00  0.00000000000E+00  0.17644445330E+04  0.17644445330E+04  0.25500000000E-02 0. -1.
         -2   -1    0    0    0  501 -0.00000000000E+00 -0.00000000000E+00 -0.33769900117E+03  0.33769900118E+03  0.25500000000E-02 0.  1.
    8880023    1    1    2    0    0 -0.10051874030E+03 -0.55337709549E+02  0.16664289393E+04  0.17955394441E+04  0.65864270000E+03 0. -1.
    8880022    1    1    2    0    0  0.10051874030E+03  0.55337709549E+02 -0.23968340746E+03  0.30660409012E+03  0.15294330000E+03 0.  0.
<mgrwt>
<rscale>  0 0.48891060E+03</rscale>
<asrwt>0</asrwt>
<pdfrwt beam="1">  1        2 0.27145300E+00 0.66856300E+03</pdfrwt>
<pdfrwt beam="2">  1       -2 0.51953693E-01 0.66856300E+03</pdfrwt>
<totfact> 0.32806746E+01</totfact>
</mgrwt>
</event>
<event>
 4    1  0.6502538E-008  0.9611072E+03  0.7818608E-02  0.9434310E-01
          2   -1    0    0  501    0  0.00000000000E+00  0.00000000000E+00  0.25146588147E+04  0.25146588147E+04  0.25500000000E-02 0. -1.
         -2   -1    0    0    0  501 -0.00000000000E+00 -0.00000000000E+00 -0.36361399817E+03  0.36361399818E+03  0.25500000000E-02 0.  1.
    8880023    1    1    2    0    0 -0.43719336191E+03 -0.54660665236E+03  0.51087175714E+03  0.10884470711E+04  0.65864270000E+03 0.  1.
    8880022    1    1    2    0    0  0.43719336191E+03  0.54660665236E+03  0.16401730593E+04  0.17898257417E+04  0.15294330000E+03 0.  0.
<mgrwt>
<rscale>  0 0.89305085E+03</rscale>
<asrwt>0</asrwt>
<pdfrwt beam="1">  1        2 0.38687059E+00 0.96110721E+03</pdfrwt>
<pdfrwt beam="2">  1       -2 0.55940615E-01 0.96110721E+03</pdfrwt>
<totfact> 0.10420104E+01</totfact>
</mgrwt>
</event>
<event>
 4    1  0.6502538E-008  0.1260588E+04  0.7818608E-02  0.9100365E-01
          2   -1    0    0  501    0  0.00000000000E+00  0.00000000000E+00  0.15974730661E+04  0.15974730661E+04  0.25500000000E-02 0. -1.
         -2   -1    0    0    0  501 -0.00000000000E+00 -0.00000000000E+00 -0.13593779817E+04  0.13593779817E+04  0.25500000000E-02 0.  1.
    8880023    1    1    2    0    0  0.55021410258E+03 -0.92332868150E+03  0.10178228807E+04  0.16201990728E+04  0.65864270000E+03 0.  0.
    8880022    1    1    2    0    0 -0.55021410258E+03  0.92332868150E+03 -0.77972779639E+03  0.13366519750E+04  0.15294330000E+03 0.  0.
<mgrwt>
<rscale>  0 0.12143770E+04</rscale>
<asrwt>0</asrwt>
<pdfrwt beam="1">  1        2 0.24576509E+00 0.12605878E+04</pdfrwt>
<pdfrwt beam="2">  1       -2 0.20913507E+00 0.12605878E+04</pdfrwt>
<totfact> 0.12503498E+00</totfact>
</mgrwt>
</event>
<event>
 4    1  0.6502538E-008  0.8337040E+03  0.7818608E-02  0.9642168E-01
         -2   -1    0    0    0  501 -0.00000000000E+00  0.00000000000E+00  0.97871399479E+03  0.97871399479E+03  0.25500000000E-02 0.  1.
          2   -1    0    0  501    0  0.00000000000E+00 -0.00000000000E+00 -0.52194816199E+03  0.52194816200E+03  0.25500000000E-02 0. -1.
    8880023    1    1    2    0    0  0.50877478122E+03 -0.48993409700E+02  0.60150928383E+02  0.83587108614E+03  0.65864270000E+03 0.  0.
    8880022    1    1    2    0    0 -0.50877478122E+03  0.48993409700E+02  0.39661490442E+03  0.66479107065E+03  0.15294330000E+03 0. -1.
<mgrwt>
<rscale>  0 0.74566992E+03</rscale>
<asrwt>0</asrwt>
<pdfrwt beam="1">  1        2 0.80299718E-01 0.83370399E+03</pdfrwt>
<pdfrwt beam="2">  1       -2 0.15057138E+00 0.83370399E+03</pdfrwt>
<totfact> 0.17484677E+01</totfact>
</mgrwt>
</event>
<event>
 4    1  0.6502538E-008  0.8811222E+03  0.7818608E-02  0.9557042E-01
          2   -1    0    0  501    0  0.00000000000E+00  0.00000000000E+00  0.32295325564E+04  0.32295325564E+04  0.25500000000E-02 0. -1.
         -2   -1    0    0    0  501 -0.00000000000E+00 -0.00000000000E+00 -0.26496725759E+03  0.26496725760E+03  0.25500000000E-02 0.  1.
    8880023    1    1    2    0    0 -0.34368256014E+03  0.47375992310E+03  0.26891254057E+04  0.28298006681E+04  0.65864270000E+03 0.  0.
    8880022    1    1    2    0    0  0.34368256014E+03 -0.47375992310E+03  0.27543989305E+03  0.66469914592E+03  0.15294330000E+03 0.  1.
<mgrwt>
<rscale>  0 0.80205841E+03</rscale>
<asrwt>0</asrwt>
<pdfrwt beam="1">  1        2 0.49685113E+00 0.88112222E+03</pdfrwt>
<pdfrwt beam="2">  1       -2 0.40764196E-01 0.88112222E+03</pdfrwt>
<totfact> 0.74041465E+00</totfact>
</mgrwt>
</event>
<event>
 4    1  0.6502538E-008  0.1118344E+04  0.7818608E-02  0.9240903E-01
         -2   -1    0    0    0  501 -0.00000000000E+00  0.00000000000E+00  0.13905899684E+04  0.13905899684E+04  0.25500000000E-02 0.  1.
          2   -1    0    0  501    0  0.00000000000E+00 -0.00000000000E+00 -0.74455566217E+03  0.74455566218E+03  0.25500000000E-02 0. -1.
    8880023    1    1    2    0    0 -0.40612959662E+02 -0.90290242569E+03  0.36291797482E+03  0.11757558699E+04  0.65864270000E+03 0. -1.
    8880022    1    1    2    0    0  0.40612959662E+02  0.90290242569E+03  0.28311633137E+03  0.95938976069E+03  0.15294330000E+03 0.  1.
<mgrwt>
<rscale>  0 0.10641039E+04</rscale>
<asrwt>0</asrwt>
<pdfrwt beam="1">  1        2 0.11454703E+00 0.11183436E+04</pdfrwt>
<pdfrwt beam="2">  1       -2 0.21393692E+00 0.11183436E+04</pdfrwt>
<totfact> 0.40199326E+00</totfact>
</mgrwt>
</event>
<event>
 4    1  0.6502538E-008  0.7335809E+03  0.7818608E-02  0.9879056E-01
         -2   -1    0    0    0  501 -0.00000000000E+00  0.00000000000E+00  0.60410628026E+03  0.60410628027E+03  0.25500000000E-02 0.  1.
          2   -1    0    0  501    0  0.00000000000E+00 -0.00000000000E+00 -0.16509035198E+04  0.16509035198E+04  0.25500000000E-02 0. -1.
    8880023    1    1    2    0    0 -0.23925964799E+03  0.21699203971E+03 -0.15047916052E+04  0.16740784647E+04  0.65864270000E+03 0. -1.
    8880022    1    1    2    0    0  0.23925964799E+03 -0.21699203971E+03  0.45799436568E+03  0.58093133541E+03  0.15294330000E+03 0.  0.
<mgrwt>
<rscale>  0 0.61287144E+03</rscale>
<asrwt>0</asrwt>
<pdfrwt beam="1">  1        2 0.25398516E+00 0.73358090E+03</pdfrwt>
<pdfrwt beam="2">  1       -2 0.92939428E-01 0.73358090E+03</pdfrwt>
<totfact> 0.10552104E+01</totfact>
</mgrwt>
</event>
<event>
 4    1  0.6502538E-008  0.1208888E+04  0.7818608E-02  0.9148531E-01
          2   -1    0    0  501    0  0.00000000000E+00  0.00000000000E+00  0.12013004328E+04  0.12013004328E+04  0.25500000000E-02 0. -1.
         -2   -1    0    0    0  501 -0.00000000000E+00 -0.00000000000E+00 -0.25692824010E+04  0.25692824010E+04  0.25500000000E-02 0.  1.
    8880023    1    1    2    0    0 -0.12792985605E+03 -0.10056009271E+04  0.74641877479E+03  0.14207570047E+04  0.65864270000E+03 0.  0.
    8880022    1    1    2    0    0  0.12792985605E+03  0.10056009271E+04 -0.21144007429E+04  0.23498258292E+04  0.15294330000E+03 0.  0.
<mgrwt>
<rscale>  0 0.11600837E+04</rscale>
<asrwt>0</asrwt>
<pdfrwt beam="1">  1        2 0.18481545E+00 0.12088877E+04</pdfrwt>
<pdfrwt beam="2">  1       -2 0.39527421E+00 0.12088877E+04</pdfrwt>
<totfact> 0.14809795E-01</totfact>
</mgrwt>
</event>
<event>
 4    1  0.6502538E-008  0.8396661E+03  0.7818608E-02  0.9630810E-01
          2   -1    0    0  501    0  0.00000000000E+00  0.00000000000E+00  0.65104419776E+03  0.65104419776E+03  0.25500000000E-02 0. -1.
         -2   -1    0    0    0  501 -0.00000000000E+00 -0.00000000000E+00 -0.97281219390E+03  0.97281219390E+03  0.25500000000E-02 0.  1.
    8880023    1    1    2    0    0  0.39106289066E+03 -0.34394581553E+03  0.20836475260E+03  0.86513292901E+03  0.65864270000E+03 0. -1.
    8880022    1    1    2    0    0 -0.39106289066E+03  0.34394581553E+03 -0.53013274875E+03  0.75872346265E+03  0.15294330000E+03 0.  0.
<mgrwt>
<rscale>  0 0.75290093E+03</rscale>
<asrwt>0</asrwt>
<pdfrwt beam="1">  1        2 0.10016065E+00 0.83966607E+03</pdfrwt>
<pdfrwt beam="2">  1       -2 0.14966341E+00 0.83966607E+03</pdfrwt>
<totfact> 0.13608863E+01</totfact>
</mgrwt>
</event>
<event>
 4    1  0.6502538E-008  0.1332859E+04  0.7818608E-02  0.9037691E-01
         -2   -1    0    0    0  501 -0.00000000000E+00  0.00000000000E+00  0.10621965841E+04  0.10621965841E+04  0.25500000000E-02 0.  1.
          2   -1    0    0  501    0  0.00000000000E+00 -0.00000000000E+00 -0.15390800390E+04  0.15390800390E+04  0.25500000000E-02 0. -1.
    8880023    1    1    2    0    0 -0.59232921627E+03 -0.99591588759E+03  0.15617988092E+02  0.13329502929E+04  0.65864270000E+03 0.  0.
    8880022    1    1    2    0    0  0.59232921627E+03  0.99591588759E+03 -0.49250144301E+03  0.12683263302E+04  0.15294330000E+03 0.  0.
<mgrwt>
<rscale>  0 0.12898024E+04</rscale>
<asrwt>0</asrwt>
<pdfrwt beam="1">  1        2 0.23678155E+00 0.13328588E+04</pdfrwt>
<pdfrwt beam="2">  1       -2 0.16341486E+00 0.13328588E+04</pdfrwt>
<totfact> 0.27507310E+00</totfact>
</mgrwt>
</event>
<event>
 4    1  0.6502538E-008  0.8600620E+03  0.7818608E-02  0.9593453E-01
         -2   -1    0    0    0  501 -0.00000000000E+00  0.00000000000E+00  0.10526576199E+04  0.10526576199E+04  0.25500000000E-02 0.  1.
          2   -1    0    0  501    0  0.00000000000E+00 -0.00000000000E+00 -0.68568086396E+03  0.68568086396E+03  0.25500000000E-02 0. -1.
    8880023    1    1    2    0    0  0.55284375566E+03  0.16132171385E+02 -0.25009313120E+03  0.89568590793E+03  0.65864270000E+03 0. -1.
    8880022    1    1    2    0    0 -0.55284375566E+03 -0.16132171385E+02  0.61706988718E+03  0.84265257598E+03  0.15294330000E+03 0.  0.
<mgrwt>
<rscale>  0 0.77731014E+03</rscale>
<asrwt>0</asrwt>
<pdfrwt beam="1">  1        2 0.10548936E+00 0.86006202E+03</pdfrwt>
<pdfrwt beam="2">  1       -2 0.16194732E+00 0.86006202E+03</pdfrwt>
<totfact> 0.10298963E+01</totfact>
</mgrwt>
</event>
<event>
 4    1  0.6502538E-008  0.7394320E+03  0.7818608E-02  0.9861605E-01
         -2   -1    0    0    0  501 -0.00000000000E+00  0.00000000000E+00  0.16605077532E+04  0.16605077532E+04  0.25500000000E-02 0.  1.
          2   -1    0    0  501    0  0.00000000000E+00 -0.00000000000E+00 -0.79045334694E+03  0.79045334695E+03  0.25500000000E-02 0. -1.
    8880023    1    1    2    0    0 -0.76776955767E+02  0.32719223897E+03 -0.58935317113E+03  0.94556693511E+03  0.65864270000E+03 0.  0.
    8880022    1    1    2    0    0  0.76776955767E+02 -0.32719223897E+03  0.14594075774E+04  0.15053941651E+04  0.15294330000E+03 0.  0.
<mgrwt>
<rscale>  0 0.62158716E+03</rscale>
<asrwt>0</asrwt>
<pdfrwt beam="1">  1        2 0.12160821E+00 0.73943199E+03</pdfrwt>
<pdfrwt beam="2">  1       -2 0.25546273E+00 0.73943199E+03</pdfrwt>
<totfact> 0.21539971E+00</totfact>
</mgrwt>
</event>
<event>
 4    1  0.6502538E-008  0.1028555E+04  0.7818608E-02  0.9345117E-01
          2   -1    0    0  501    0  0.00000000000E+00  0.00000000000E+00  0.20248132506E+04  0.20248132506E+04  0.25500000000E-02 0. -1.
         -2   -1    0    0    0  501 -0.00000000000E+00 -0.00000000000E+00 -0.12877828121E+04  0.12877828121E+04  0.25500000000E-02 0.  1.
    8880023    1    1    2    0    0 -0.45204986742E+03 -0.64789392119E+03 -0.97729400000E+03  0.14188126671E+04  0.65864270000E+03 0.  1.
    8880022    1    1    2    0    0  0.45204986742E+03  0.64789392119E+03  0.17143244385E+04  0.18937833955E+04  0.15294330000E+03 0.  0.
<mgrwt>
<rscale>  0 0.96733363E+03</rscale>
<asrwt>0</asrwt>
<pdfrwt beam="1">  1        2 0.31150973E+00 0.10285552E+04</pdfrwt>
<pdfrwt beam="2">  1       -2 0.19812043E+00 0.10285552E+04</pdfrwt>
<totfact> 0.88081684E-01</totfact>
</mgrwt>
</event>
<event>
 4    1  0.6502538E-008  0.7426334E+03  0.7818608E-02  0.9852342E-01
         -2   -1    0    0    0  501 -0.00000000000E+00  0.00000000000E+00  0.11207706612E+04  0.11207706613E+04  0.25500000000E-02 0.  1.
          2   -1    0    0  501    0  0.00000000000E+00 -0.00000000000E+00 -0.40311853346E+03  0.40311853346E+03  0.25500000000E-02 0. -1.
    8880023    1    1    2    0    0 -0.31500295492E+03 -0.13589426277E+03  0.33475868195E+02  0.74338748461E+03  0.65864270000E+03 0.  0.
    8880022    1    1    2    0    0  0.31500295492E+03  0.13589426277E+03  0.68417625960E+03  0.78050171010E+03  0.15294330000E+03 0.  0.
<mgrwt>
<rscale>  0 0.62627668E+03</rscale>
<asrwt>0</asrwt>
<pdfrwt beam="1">  1        2 0.62018237E-01 0.74263337E+03</pdfrwt>
<pdfrwt beam="2">  1       -2 0.17242625E+00 0.74263337E+03</pdfrwt>
<totfact> 0.16399198E+01</totfact>
</mgrwt>
</event>
<event>
 4    1  0.6502538E-008  0.2712813E+04  0.7818608E-02  0.8337142E-01
          2   -1    0    0  501    0  0.00000000000E+00  0.00000000000E+00  0.27590766237E+04  0.27590766237E+04  0.25500000000E-02 0. -1.
         -2   -1    0    0    0  501 -0.00000000000E+00 -0.00000000000E+00 -0.29647811304E+04  0.29647811304E+04  0.25500000000E-02 0.  1.
    8880023    1    1    2    0    0 -0.23526174963E+04  0.11792942489E+04 -0.11183064269E+04  0.29342739272E+04  0.65864270000E+03 0.  0.
    8880022    1    1    2    0    0  0.23526174963E+04 -0.11792942489E+04  0.91260192020E+03  0.27895838269E+04  0.15294330000E+03 0.  0.
<mgrwt>
<rscale>  0 0.26934237E+04</rscale>
<asrwt>0</asrwt>
<pdfrwt beam="1">  1        2 0.42447333E+00 0.27128130E+04</pdfrwt>
<pdfrwt beam="2">  1       -2 0.45612017E+00 0.27128130E+04</pdfrwt>
<totfact> 0.63174869E-03</totfact>
</mgrwt>
</event>
<event>
 4    1  0.6502538E-008  0.9685965E+03  0.7818608E-02  0.9423848E-01
          2   -1    0    0  501    0  0.00000000000E+00  0.00000000000E+00  0.18868125203E+04  0.18868125203E+04  0.25500000000E-02 0. -1.
         -2   -1    0    0    0  501 -0.00000000000E+00 -0.00000000000E+00 -0.65624925716E+03  0.65624925717E+03  0.25500000000E-02 0.  1.
    8880023    1    1    2    0    0  0.70553336284E+03  0.81188498328E+02  0.14853061543E+04  0.17732212148E+04  0.65864270000E+03 0. -1.
    8880022    1    1    2    0    0 -0.70553336284E+03 -0.81188498328E+02 -0.25474289116E+03  0.76984056268E+03  0.15294330000E+03 0.  1.
<mgrwt>
<rscale>  0 0.90138800E+03</rscale>
<asrwt>0</asrwt>
<pdfrwt beam="1">  1        2 0.29027885E+00 0.96859646E+03</pdfrwt>
<pdfrwt beam="2">  1       -2 0.10096142E+00 0.96859646E+03</pdfrwt>
<totfact> 0.62523649E+00</totfact>
</mgrwt>
</event>
<event>
 4    1  0.6502538E-008  0.6821632E+03  0.7818608E-02  0.1008126E+00
         -2   -1    0    0    0  501 -0.00000000000E+00  0.00000000000E+00  0.76811403982E+03  0.76811403982E+03  0.25500000000E-02 0.  1.
          2   -1    0    0  501    0  0.00000000000E+00 -0.00000000000E+00 -0.57029759124E+03  0.57029759124E+03  0.25500000000E-02 0. -1.
    8880023    1    1    2    0    0  0.20230216253E+02 -0.17642875501E+03 -0.33230252626E+03  0.75879611390E+03  0.65864270000E+03 0. -1.
    8880022    1    1    2    0    0 -0.20230216253E+02  0.17642875501E+03  0.53011897484E+03  0.57961551717E+03  0.15294330000E+03 0.  1.
<mgrwt>
<rscale>  0 0.52226442E+03</rscale>
<asrwt>0</asrwt>
<pdfrwt beam="1">  1        2 0.87738091E-01 0.68216316E+03</pdfrwt>
<pdfrwt beam="2">  1       -2 0.11817139E+00 0.68216316E+03</pdfrwt>
<totfact> 0.29620083E+01</totfact>
</mgrwt>
</event>
<event>
 4    1  0.6502538E-008  0.8723219E+03  0.7818608E-02  0.9572010E-01
         -2   -1    0    0    0  501 -0.00000000000E+00  0.00000000000E+00  0.76598913574E+03  0.76598913575E+03  0.25500000000E-02 0.  1.
          2   -1    0    0  501    0  0.00000000000E+00 -0.00000000000E+00 -0.13376118970E+04  0.13376118970E+04  0.25500000000E-02 0. -1.
    8880023    1    1    2    0    0 -0.29603936402E+02  0.57119069626E+03 -0.10336930846E+04  0.13525778366E+04  0.65864270000E+03 0. -1.
    8880022    1    1    2    0    0  0.29603936402E+02 -0.57119069626E+03  0.46207032332E+03  0.75102319621E+03  0.15294330000E+03 0.  0.
<mgrwt>
<rscale>  0 0.79176760E+03</rscale>
<asrwt>0</asrwt>
<pdfrwt beam="1">  1        2 0.20578645E+00 0.87232185E+03</pdfrwt>
<pdfrwt beam="2">  1       -2 0.11784448E+00 0.87232185E+03</pdfrwt>
<totfact> 0.87891985E+00</totfact>
</mgrwt>
</event>
<event>
 4    1  0.6502538E-008  0.1305879E+04  0.7818608E-02  0.9060500E-01
         -2   -1    0    0    0  501 -0.00000000000E+00  0.00000000000E+00  0.15804992111E+04  0.15804992111E+04  0.25500000000E-02 0.  1.
          2   -1    0    0  501    0  0.00000000000E+00 -0.00000000000E+00 -0.10481165299E+04  0.10481165299E+04  0.25500000000E-02 0. -1.
    8880023    1    1    2    0    0 -0.76925850409E+03 -0.82446969126E+03  0.69469358158E+03  0.14791613490E+04  0.65864270000E+03 0.  0.
    8880022    1    1    2    0    0  0.76925850409E+03  0.82446969126E+03 -0.16231090035E+03  0.11494543920E+04  0.15294330000E+03 0.  0.
<mgrwt>
<rscale>  0 0.12617017E+04</rscale>
<asrwt>0</asrwt>
<pdfrwt beam="1">  1        2 0.16124870E+00 0.13058787E+04</pdfrwt>
<pdfrwt beam="2">  1       -2 0.24315373E+00 0.13058787E+04</pdfrwt>
<totfact> 0.16010896E+00</totfact>
</mgrwt>
</event>
<event>
 4    1  0.6502538E-008  0.6872272E+03  0.7818608E-02  0.1005499E+00
          2   -1    0    0  501    0  0.00000000000E+00  0.00000000000E+00  0.67891163852E+03  0.67891163852E+03  0.25500000000E-02 0. -1.
         -2   -1    0    0    0  501 -0.00000000000E+00 -0.00000000000E+00 -0.37847263607E+03  0.37847263608E+03  0.25500000000E-02 0.  1.
    8880023    1    1    2    0    0  0.75580318781E+02  0.18099331837E+03  0.27014374082E+02  0.68775791421E+03  0.65864270000E+03 0.  1.
    8880022    1    1    2    0    0 -0.75580318781E+02 -0.18099331837E+03  0.27342462837E+03  0.36962636039E+03  0.15294330000E+03 0. -1.
<mgrwt>
<rscale>  0 0.53303260E+03</rscale>
<asrwt>0</asrwt>
<pdfrwt beam="1">  1        2 0.10444794E+00 0.68722716E+03</pdfrwt>
<pdfrwt beam="2">  1       -2 0.58226559E-01 0.68722716E+03</pdfrwt>
<totfact> 0.11928637E+02</totfact>
</mgrwt>
</event>
<event>
 4    1  0.6502538E-008  0.1086124E+04  0.7818608E-02  0.9276664E-01
         -2   -1    0    0    0  501 -0.00000000000E+00  0.00000000000E+00  0.85883042104E+03  0.85883042105E+03  0.25500000000E-02 0.  1.
          2   -1    0    0  501    0  0.00000000000E+00 -0.00000000000E+00 -0.33207934920E+04  0.33207934920E+04  0.25500000000E-02 0. -1.
    8880023    1    1    2    0    0 -0.24294493661E+02  0.86328774934E+03 -0.29725492169E+04  0.31647614466E+04  0.65864270000E+03 0.  0.
    8880022    1    1    2    0    0  0.24294493661E+02 -0.86328774934E+03  0.51058614589E+03  0.10148624665E+04  0.15294330000E+03 0.  0.
<mgrwt>
<rscale>  0 0.10295986E+04</rscale>
<asrwt>0</asrwt>
<pdfrwt beam="1">  1        2 0.51089130E+00 0.10861244E+04</pdfrwt>
<pdfrwt beam="2">  1       -2 0.13212776E+00 0.10861244E+04</pdfrwt>
<totfact> 0.45433465E-01</totfact>
</mgrwt>
</event>
<event>
 4    1  0.6502538E-008  0.7972343E+03  0.7818608E-02  0.9716808E-01
         -2   -1    0    0    0  501 -0.00000000000E+00  0.00000000000E+00  0.12455262459E+04  0.12455262459E+04  0.25500000000E-02 0.  1.
          2   -1    0    0  501    0  0.00000000000E+00 -0.00000000000E+00 -0.12296677079E+04  0.12296677079E+04  0.25500000000E-02 0. -1.
    8880023    1    1    2    0    0 -0.25870504321E+03  0.36721112241E+03 -0.10442167819E+04  0.13137622318E+04  0.65864270000E+03 0. -1.
    8880022    1    1    2    0    0  0.25870504321E+03 -0.36721112241E+03  0.10600753199E+04  0.11614317219E+04  0.15294330000E+03 0.  0.
<mgrwt>
<rscale>  0 0.70024794E+03</rscale>
<asrwt>0</asrwt>
<pdfrwt beam="1">  1        2 0.18917965E+00 0.79723429E+03</pdfrwt>
<pdfrwt beam="2">  1       -2 0.19161942E+00 0.79723429E+03</pdfrwt>
<totfact> 0.28009277E+00</totfact>
</mgrwt>
</event>
<event>
 4    1  0.6502538E-008  0.7290998E+03  0.7818608E-02  0.9892918E-01
          2   -1    0    0  501    0  0.00000000000E+00  0.00000000000E+00  0.11908886959E+04  0.11908886959E+04  0.25500000000E-02 0. -1.
         -2   -1    0    0    0  501 -0.00000000000E+00 -0.00000000000E+00 -0.61207257061E+03  0.61207257062E+03  0.25500000000E-02 0.  1.
    8880023    1    1    2    0    0  0.13516741491E+03  0.28196815960E+03  0.10119746568E+04  0.12472686901E+04  0.65864270000E+03 0. -1.
    8880022    1    1    2    0    0 -0.13516741491E+03 -0.28196815960E+03 -0.43315853149E+03  0.55569257643E+03  0.15294330000E+03 0.  0.
<mgrwt>
<rscale>  0 0.60605729E+03</rscale>
<asrwt>0</asrwt>
<pdfrwt beam="1">  1        2 0.18321364E+00 0.72909977E+03</pdfrwt>
<pdfrwt beam="2">  1       -2 0.94165012E-01 0.72909977E+03</pdfrwt>
<totfact> 0.18640956E+01</totfact>
</mgrwt>
</event>
<event>
 4    1  0.6502538E-008  0.9501080E+03  0.7818608E-02  0.9449959E-01
         -2   -1    0    0    0  501 -0.00000000000E+00  0.00000000000E+00  0.11287375817E+04  0.11287375817E+04  0.25500000000E-02 0.  1.
          2   -1    0    0  501    0  0.00000000000E+00 -0.00000000000E+00 -0.65414032874E+03  0.65414032875E+03  0.25500000000E-02 0. -1.
    8880023    1    1    2    0    0  0.66590829915E+03  0.15956541385E+03  0.26720528269E+02  0.95048365428E+03  0.65864270000E+03 0.  0.
    8880022    1    1    2    0    0 -0.66590829915E+03 -0.15956541385E+03  0.44787672469E+03  0.83239425617E+03  0.15294330000E+03 0.  0.
<mgrwt>
<rscale>  0 0.88075878E+03</rscale>
<asrwt>0</asrwt>
<pdfrwt beam="1">  1        2 0.10063697E+00 0.95010799E+03</pdfrwt>
<pdfrwt beam="2">  1       -2 0.17365194E+00 0.95010799E+03</pdfrwt>
<totfact> 0.89329174E+00</totfact>
</mgrwt>
</event>
<event>
 4    1  0.6502538E-008  0.8264036E+03  0.7818608E-02  0.9656371E-01
         -2   -1    0    0    0  501 -0.00000000000E+00  0.00000000000E+00  0.75629319629E+03  0.75629319630E+03  0.25500000000E-02 0.  1.
          2   -1    0    0  501    0  0.00000000000E+00 -0.00000000000E+00 -0.24237470050E+04  0.24237470050E+04  0.25500000000E-02 0. -1.
    8880023    1    1    2    0    0  0.42423098281E+03  0.26298443861E+03 -0.22505015543E+04  0.23974361709E+04  0.65864270000E+03 0. -1.
    8880022    1    1    2    0    0 -0.42423098281E+03 -0.26298443861E+03  0.58304774555E+03  0.78260403036E+03  0.15294330000E+03 0.  0.
<mgrwt>
<rscale>  0 0.73674947E+03</rscale>
<asrwt>0</asrwt>
<pdfrwt beam="1">  1        2 0.37288415E+00 0.82640362E+03</pdfrwt>
<pdfrwt beam="2">  1       -2 0.11635280E+00 0.82640362E+03</pdfrwt>
<totfact> 0.22821767E+00</totfact>
</mgrwt>
</event>
<event>
 4    1  0.6502538E-008  0.1012103E+04  0.7818608E-02  0.9365892E-01
         -2   -1    0    0    0  501 -0.00000000000E+00  0.00000000000E+00  0.12101310145E+04  0.12101310145E+04  0.25500000000E-02 0.  1.
          2   -1    0    0  501    0  0.00000000000E+00 -0.00000000000E+00 -0.20104543398E+04  0.20104543398E+04  0.25500000000E-02 0. -1.
    8880023    1    1    2    0    0  0.38091699180E+03  0.66741576388E+03 -0.17302773212E+04  0.20045476724E+04  0.65864270000E+03 0. -1.
    8880022    1    1    2    0    0 -0.38091699180E+03 -0.66741576388E+03  0.92995399582E+03  0.12160376819E+04  0.15294330000E+03 0.  0.
<mgrwt>
<rscale>  0 0.94936575E+03</rscale>
<asrwt>0</asrwt>
<pdfrwt beam="1">  1        2 0.30930067E+00 0.10121026E+04</pdfrwt>
<pdfrwt beam="2">  1       -2 0.18617400E+00 0.10121026E+04</pdfrwt>
<totfact> 0.10804429E+00</totfact>
</mgrwt>
</event>
<event>
 4    1  0.6502538E-008  0.1000920E+04  0.7818608E-02  0.9380355E-01
          2   -1    0    0  501    0  0.00000000000E+00  0.00000000000E+00  0.20969272812E+04  0.20969272812E+04  0.25500000000E-02 0. -1.
         -2   -1    0    0    0  501 -0.00000000000E+00 -0.00000000000E+00 -0.44828524159E+03  0.44828524160E+03  0.25500000000E-02 0.  1.
    8880023    1    1    2    0    0  0.49177407313E+03 -0.57112892745E+03  0.14303754995E+04  0.17457990338E+04  0.65864270000E+03 0.  0.
    8880022    1    1    2    0    0 -0.49177407313E+03  0.57112892745E+03  0.21826654014E+03  0.79941348897E+03  0.15294330000E+03 0.  0.
<mgrwt>
<rscale>  0 0.93710137E+03</rscale>
<asrwt>0</asrwt>
<pdfrwt beam="1">  1        2 0.32260420E+00 0.10009197E+04</pdfrwt>
<pdfrwt beam="2">  1       -2 0.68966959E-01 0.10009197E+04</pdfrwt>
<totfact> 0.11376276E+01</totfact>
</mgrwt>
</event>
<event>
 4    1  0.6502538E-008  0.1242248E+04  0.7818608E-02  0.9117109E-01
         -2   -1    0    0    0  501 -0.00000000000E+00  0.00000000000E+00  0.12604859014E+04  0.12604859014E+04  0.25500000000E-02 0.  1.
          2   -1    0    0  501    0  0.00000000000E+00 -0.00000000000E+00 -0.24150968689E+04  0.24150968689E+04  0.25500000000E-02 0. -1.
    8880023    1    1    2    0    0  0.31007186568E+03 -0.10065912356E+04 -0.19740290519E+04  0.23323746229E+04  0.65864270000E+03 0. -1.
    8880022    1    1    2    0    0 -0.31007186568E+03  0.10065912356E+04  0.81941808429E+03  0.13432081475E+04  0.15294330000E+03 0.  0.
<mgrwt>
<rscale>  0 0.11951533E+04</rscale>
<asrwt>0</asrwt>
<pdfrwt beam="1">  1        2 0.37155336E+00 0.12422482E+04</pdfrwt>
<pdfrwt beam="2">  1       -2 0.19392091E+00 0.12422482E+04</pdfrwt>
<totfact> 0.55115459E-01</totfact>
</mgrwt>
</event>
<event>
 4    1  0.6502538E-008  0.1844763E+04  0.7818608E-02  0.8698171E-01
          2   -1    0    0  501    0  0.00000000000E+00  0.00000000000E+00  0.26452509654E+04  0.26452509654E+04  0.25500000000E-02 0. -1.
         -2   -1    0    0    0  501 -0.00000000000E+00 -0.00000000000E+00 -0.21406375357E+04  0.21406375357E+04  0.25500000000E-02 0.  1.
    8880023    1    1    2    0    0 -0.16583741658E+04  0.46812085351E+03  0.18361719285E+04  0.26028214622E+04  0.65864270000E+03 0.  0.
    8880022    1    1    2    0    0  0.16583741658E+04 -0.46812085351E+03 -0.13315584988E+04  0.21830670388E+04  0.15294330000E+03 0.  0.
<mgrwt>
<rscale>  0 0.18153653E+04</rscale>
<asrwt>0</asrwt>
<pdfrwt beam="1">  1        2 0.40696168E+00 0.18447635E+04</pdfrwt>
<pdfrwt beam="2">  1       -2 0.32932885E+00 0.18447635E+04</pdfrwt>
<totfact> 0.53940661E-02</totfact>
</mgrwt>
</event>
<event>
 4    1  0.6502538E-008  0.9166218E+03  0.7818608E-02  0.9499858E-01
         -2   -1    0    0    0  501 -0.00000000000E+00  0.00000000000E+00  0.11472006454E+04  0.11472006454E+04  0.25500000000E-02 0.  1.
          2   -1    0    0  501    0  0.00000000000E+00 -0.00000000000E+00 -0.22657729039E+04  0.22657729039E+04  0.25500000000E-02 0. -1.
    8880023    1    1    2    0    0 -0.13060228148E+03  0.62396178459E+03 -0.20663663886E+04  0.22605454038E+04  0.65864270000E+03 0.  0.
    8880022    1    1    2    0    0  0.13060228148E+03 -0.62396178459E+03  0.94779413003E+03  0.11524281455E+04  0.15294330000E+03 0.  0.
<mgrwt>
<rscale>  0 0.84294262E+03</rscale>
<asrwt>0</asrwt>
<pdfrwt beam="1">  1        2 0.34858045E+00 0.91662177E+03</pdfrwt>
<pdfrwt beam="2">  1       -2 0.17649241E+00 0.91662177E+03</pdfrwt>
<totfact> 0.92320936E-01</totfact>
</mgrwt>
</event>
<event>
 4    1  0.6502538E-008  0.1133974E+04  0.7818608E-02  0.9224141E-01
          2   -1    0    0  501    0  0.00000000000E+00  0.00000000000E+00  0.22411281196E+04  0.22411281196E+04  0.25500000000E-02 0. -1.
         -2   -1    0    0    0  501 -0.00000000000E+00 -0.00000000000E+00 -0.10134217188E+04  0.10134217188E+04  0.25500000000E-02 0.  1.
    8880023    1    1    2    0    0 -0.74368977813E+03 -0.54682058158E+03  0.18220266584E+04  0.21460844775E+04  0.65864270000E+03 0. -1.
    8880022    1    1    2    0    0  0.74368977813E+03  0.54682058158E+03 -0.59432025761E+03  0.11084653608E+04  0.15294330000E+03 0.  0.
<mgrwt>
<rscale>  0 0.10807695E+04</rscale>
<asrwt>0</asrwt>
<pdfrwt beam="1">  1        2 0.34478894E+00 0.11339742E+04</pdfrwt>
<pdfrwt beam="2">  1       -2 0.15591103E+00 0.11339742E+04</pdfrwt>
<totfact> 0.13000625E+00</totfact>
</mgrwt>
</event>
<event>
 4    1  0.6502538E-008  0.8908148E+03  0.7818608E-02  0.9540941E-01
          2   -1    0    0  501    0  0.00000000000E+00  0.00000000000E+00  0.22123215567E+04  0.22123215567E+04  0.25500000000E-02 0. -1.
         -2   -1    0    0    0  501 -0.00000000000E+00 -0.00000000000E+00 -0.67624571562E+03  0.67624571563E+03  0.25500000000E-02 0.  1.
    8880023    1    1    2    0    0  0.55978952612E+03  0.21535195772E+03  0.19500699642E+04  0.21439038810E+04  0.65864270000E+03 0. -1.
    8880022    1    1    2    0    0 -0.55978952612E+03 -0.21535195772E+03 -0.41399412321E+03  0.74466339128E+03  0.15294330000E+03 0.  0.
<mgrwt>
<rscale>  0 0.81331574E+03</rscale>
<asrwt>0</asrwt>
<pdfrwt beam="1">  1        2 0.34035717E+00 0.89081479E+03</pdfrwt>
<pdfrwt beam="2">  1       -2 0.10403780E+00 0.89081479E+03</pdfrwt>
<totfact> 0.38897400E+00</totfact>
</mgrwt>
</event>
<event>
 4    1  0.6502538E-008  0.8907774E+03  0.7818608E-02  0.9541002E-01
         -2   -1    0    0    0  501 -0.00000000000E+00  0.00000000000E+00  0.37105508780E+03  0.37105508781E+03  0.25500000000E-02 0.  1.
          2   -1    0    0  501    0  0.00000000000E+00 -0.00000000000E+00 -0.32099395964E+04  0.32099395964E+04  0.25500000000E-02 0. -1.
    8880023    1    1    2    0    0  0.58088625759E+03 -0.14914841719E+03 -0.28247890768E+04  0.29619111448E+04  0.65864270000E+03 0.  0.
    8880022    1    1    2    0    0 -0.58088625759E+03  0.14914841719E+03 -0.14095431761E+02  0.61908353945E+03  0.15294330000E+03 0.  0.
<mgrwt>
<rscale>  0 0.81327242E+03</rscale>
<asrwt>0</asrwt>
<pdfrwt beam="1">  1        2 0.49383684E+00 0.89077736E+03</pdfrwt>
<pdfrwt beam="2">  1       -2 0.57085400E-01 0.89077736E+03</pdfrwt>
<totfact> 0.38451114E+00</totfact>
</mgrwt>
</event>
<event>
 4    1  0.6502538E-008  0.9482255E+03  0.7818608E-02  0.9452672E-01
          2   -1    0    0  501    0  0.00000000000E+00  0.00000000000E+00  0.39515284444E+04  0.39515284444E+04  0.25500000000E-02 0. -1.
         -2   -1    0    0    0  501 -0.00000000000E+00 -0.00000000000E+00 -0.21126014328E+03  0.21126014330E+03  0.25500000000E-02 0.  1.
    8880023    1    1    2    0    0  0.67908682615E+03  0.64517445337E+02  0.12075038266E+04  0.15353166174E+04  0.65864270000E+03 0.  1.
    8880022    1    1    2    0    0 -0.67908682615E+03 -0.64517445337E+02  0.25327644746E+04  0.26274719703E+04  0.15294330000E+03 0.  0.
<mgrwt>
<rscale>  0 0.87864911E+03</rscale>
<asrwt>0</asrwt>
<pdfrwt beam="1">  1        2 0.60792746E+00 0.94822551E+03</pdfrwt>
<pdfrwt beam="2">  1       -2 0.32501560E-01 0.94822551E+03</pdfrwt>
<totfact> 0.35044391E+00</totfact>
</mgrwt>
</event>
<event>
 4    1  0.6502538E-008  0.1102498E+04  0.7818608E-02  0.9258280E-01
          2   -1    0    0  501    0  0.00000000000E+00  0.00000000000E+00  0.20695373747E+04  0.20695373747E+04  0.25500000000E-02 0. -1.
         -2   -1    0    0    0  501 -0.00000000000E+00 -0.00000000000E+00 -0.57977669251E+03  0.57977669252E+03  0.25500000000E-02 0.  1.
    8880023    1    1    2    0    0  0.65544834976E+03  0.59336203307E+03  0.13471624741E+04  0.17407894701E+04  0.65864270000E+03 0.  0.
    8880022    1    1    2    0    0 -0.65544834976E+03 -0.59336203307E+03  0.14259820807E+03  0.90852459706E+03  0.15294330000E+03 0.  0.
<mgrwt>
<rscale>  0 0.10471607E+04</rscale>
<asrwt>0</asrwt>
<pdfrwt beam="1">  1        2 0.31839036E+00 0.11024977E+04</pdfrwt>
<pdfrwt beam="2">  1       -2 0.89196415E-01 0.11024977E+04</pdfrwt>
<totfact> 0.65321889E+00</totfact>
</mgrwt>
</event>
<event>
 4    1  0.6502538E-008  0.1160718E+04  0.7818608E-02  0.9196287E-01
         -2   -1    0    0    0  501 -0.00000000000E+00  0.00000000000E+00  0.17520098127E+04  0.17520098127E+04  0.25500000000E-02 0.  1.
          2   -1    0    0  501    0  0.00000000000E+00 -0.00000000000E+00 -0.12925969696E+04  0.12925969696E+04  0.25500000000E-02 0. -1.
    8880023    1    1    2    0    0 -0.19118159691E+03 -0.93643215017E+03 -0.83389683922E+03  0.14292129721E+04  0.65864270000E+03 0. -1.
    8880022    1    1    2    0    0  0.19118159691E+03  0.93643215017E+03  0.12933096823E+04  0.16153938102E+04  0.15294330000E+03 0.  0.
<mgrwt>
<rscale>  0 0.11091840E+04</rscale>
<asrwt>0</asrwt>
<pdfrwt beam="1">  1        2 0.19886107E+00 0.11607178E+04</pdfrwt>
<pdfrwt beam="2">  1       -2 0.26953997E+00 0.11607178E+04</pdfrwt>
<totfact> 0.79681886E-01</totfact>
</mgrwt>
</event>
<event>
 4    1  0.6502538E-008  0.1480702E+04  0.7818608E-02  0.8923384E-01
         -2   -1    0    0    0  501 -0.00000000000E+00  0.00000000000E+00  0.74099065531E+03  0.74099065532E+03  0.25500000000E-02 0.  1.
          2   -1    0    0  501    0  0.00000000000E+00 -0.00000000000E+00 -0.40437616563E+04  0.40437616563E+04  0.25500000000E-02 0. -1.
    8880023    1    1    2    0    0 -0.17184930885E+03  0.13149666907E+04 -0.30987065432E+04  0.34343066302E+04  0.65864270000E+03 0.  0.
    8880022    1    1    2    0    0  0.17184930885E+03 -0.13149666907E+04 -0.20406445778E+03  0.13504456815E+04  0.15294330000E+03 0.  0.
<mgrwt>
<rscale>  0 0.14428334E+04</rscale>
<asrwt>0</asrwt>
<pdfrwt beam="1">  1        2 0.62211716E+00 0.14807025E+04</pdfrwt>
<pdfrwt beam="2">  1       -2 0.11399857E+00 0.14807025E+04</pdfrwt>
<totfact> 0.18422906E-01</totfact>
</mgrwt>
</event>
<event>
 4    1  0.6502538E-008  0.7603176E+03  0.7818608E-02  0.9804286E-01
         -2   -1    0    0    0  501 -0.00000000000E+00  0.00000000000E+00  0.10330872867E+04  0.10330872867E+04  0.25500000000E-02 0.  1.
          2   -1    0    0  501    0  0.00000000000E+00 -0.00000000000E+00 -0.20209855184E+04  0.20209855184E+04  0.25500000000E-02 0. -1.
    8880023    1    1    2    0    0 -0.34649689492E+03 -0.15560380057E+03 -0.19042337786E+04  0.20504119417E+04  0.65864270000E+03 0. -1.
    8880022    1    1    2    0    0  0.34649689492E+03  0.15560380057E+03  0.91633554697E+03  0.10036608633E+04  0.15294330000E+03 0.  0.
<mgrwt>
<rscale>  0 0.65133041E+03</rscale>
<asrwt>0</asrwt>
<pdfrwt beam="1">  1        2 0.31092085E+00 0.76031760E+03</pdfrwt>
<pdfrwt beam="2">  1       -2 0.15893651E+00 0.76031760E+03</pdfrwt>
<totfact> 0.17304113E+00</totfact>
</mgrwt>
</event>
<event>
 4    1  0.6502538E-008  0.7060187E+03  0.7818608E-02  0.9973093E-01
          2   -1    0    0  501    0  0.00000000000E+00  0.00000000000E+00  0.34389528696E+04  0.34389528696E+04  0.25500000000E-02 0. -1.
         -2   -1    0    0    0  501 -0.00000000000E+00 -0.00000000000E+00 -0.22401021560E+03  0.22401021562E+03  0.25500000000E-02 0.  1.
    8880023    1    1    2    0    0  0.21752128927E+03 -0.13166877576E+03  0.32833982890E+04  0.33584470679E+04  0.65864270000E+03 0.  0.
    8880022    1    1    2    0    0 -0.21752128927E+03  0.13166877576E+03 -0.68455634994E+02  0.30451601727E+03  0.15294330000E+03 0.  0.
<mgrwt>
<rscale>  0 0.56845948E+03</rscale>
<asrwt>0</asrwt>
<pdfrwt beam="1">  1        2 0.52906963E+00 0.70601869E+03</pdfrwt>
<pdfrwt beam="2">  1       -2 0.34463113E-01 0.70601869E+03</pdfrwt>
<totfact> 0.77010247E+00</totfact>
</mgrwt>
</event>
<event>
 4    1  0.7062218E-008  0.8014730E+03  0.7818608E-02  0.9707620E-01
         -2   -1    0    0    0  501 -0.00000000000E+00  0.00000000000E+00  0.19531967430E+04  0.19531967430E+04  0.25500000000E-02 0.  1.
          2   -1    0    0  501    0  0.00000000000E+00 -0.00000000000E+00 -0.17421443509E+04  0.17421443509E+04  0.25500000000E-02 0. -1.
    8880023    1    1    2    0    0 -0.26241427242E+03 -0.37374797413E+03 -0.16170989190E+04  0.18048179738E+04  0.65864270000E+03 0. -1.
    8880022    1    1    2    0    0  0.26241427242E+03  0.37374797413E+03  0.18281513111E+04  0.18905231202E+04  0.15294330000E+03 0.  0.
<mgrwt>
<rscale>  0 0.70564902E+03</rscale>
<asrwt>0</asrwt>
<pdfrwt beam="1">  1        2 0.26802221E+00 0.80147302E+03</pdfrwt>
<pdfrwt beam="2">  1       -2 0.30049181E+00 0.80147302E+03</pdfrwt>
<totfact> 0.30727472E-01</totfact>
</mgrwt>
</event>
<event>
 4    1  0.6502538E-008  0.1466752E+04  0.7818608E-02  0.8933478E-01
          2   -1    0    0  501    0  0.00000000000E+00  0.00000000000E+00  0.22818776379E+04  0.22818776379E+04  0.25500000000E-02 0. -1.
         -2   -1    0    0    0  501 -0.00000000000E+00 -0.00000000000E+00 -0.12337607818E+04  0.12337607818E+04  0.25500000000E-02 0.  1.
    8880023    1    1    2    0    0 -0.12990555988E+04  0.17321941437E+03  0.15219482500E+04  0.21136903974E+04  0.65864270000E+03 0.  0.
    8880022    1    1    2    0    0  0.12990555988E+04 -0.17321941437E+03 -0.47383139387E+03  0.14019480222E+04  0.15294330000E+03 0.  0.
<mgrwt>
<rscale>  0 0.14284515E+04</rscale>
<asrwt>0</asrwt>
<pdfrwt beam="1">  1        2 0.35105809E+00 0.14667517E+04</pdfrwt>
<pdfrwt beam="2">  1       -2 0.18980935E+00 0.14667517E+04</pdfrwt>
<totfact> 0.68074764E-01</totfact>
</mgrwt>
</event>
<event>
 4    1  0.6502538E-008  0.1325634E+04  0.7818608E-02  0.9043733E-01
          2   -1    0    0  501    0  0.00000000000E+00  0.00000000000E+00  0.14476746366E+04  0.14476746366E+04  0.25500000000E-02 0. -1.
         -2   -1    0    0    0  501 -0.00000000000E+00 -0.00000000000E+00 -0.15097780414E+04  0.15097780414E+04  0.25500000000E-02 0.  1.
    8880023    1    1    2    0    0  0.13520948585E+03 -0.11424596173E+04  0.76665841051E+03  0.15313624348E+04  0.65864270000E+03 0. -1.
    8880022    1    1    2    0    0 -0.13520948585E+03  0.11424596173E+04 -0.82876181529E+03  0.14260902432E+04  0.15294330000E+03 0.  0.
<mgrwt>
<rscale>  0 0.12822838E+04</rscale>
<asrwt>0</asrwt>
<pdfrwt beam="1">  1        2 0.22271917E+00 0.13256341E+04</pdfrwt>
<pdfrwt beam="2">  1       -2 0.23227355E+00 0.13256341E+04</pdfrwt>
<totfact> 0.10768355E+00</totfact>
</mgrwt>
</event>
<event>
 4    1  0.6502538E-008  0.7522870E+03  0.7818608E-02  0.9825501E-01
         -2   -1    0    0    0  501 -0.00000000000E+00  0.00000000000E+00  0.11017316801E+04  0.11017316801E+04  0.25500000000E-02 0.  1.
          2   -1    0    0  501    0  0.00000000000E+00 -0.00000000000E+00 -0.14123917215E+04  0.14123917215E+04  0.25500000000E-02 0. -1.
    8880023    1    1    2    0    0  0.24790908395E+03  0.26583193750E+03 -0.12704499709E+04  0.14764751497E+04  0.65864270000E+03 0. -1.
    8880022    1    1    2    0    0 -0.24790908395E+03 -0.26583193750E+03  0.95978992946E+03  0.10376482519E+04  0.15294330000E+03 0.  0.
<mgrwt>
<rscale>  0 0.64011790E+03</rscale>
<asrwt>0</asrwt>
<pdfrwt beam="1">  1        2 0.21729103E+00 0.75228701E+03</pdfrwt>
<pdfrwt beam="2">  1       -2 0.16949718E+00 0.75228701E+03</pdfrwt>
<totfact> 0.31397914E+00</totfact>
</mgrwt>
</event>
<event>
 4    1  0.6502538E-008  0.1000229E+04  0.7818608E-02  0.9381258E-01
          2   -1    0    0  501    0  0.00000000000E+00  0.00000000000E+00  0.28353907614E+04  0.28353907614E+04  0.25500000000E-02 0. -1.
         -2   -1    0    0    0  501 -0.00000000000E+00 -0.00000000000E+00 -0.42376947483E+03  0.42376947484E+03  0.25500000000E-02 0.  1.
    8880023    1    1    2    0    0 -0.49435272906E+03 -0.56768225457E+03  0.22665518335E+04  0.24774412573E+04  0.65864270000E+03 0.  0.
    8880022    1    1    2    0    0  0.49435272906E+03  0.56768225457E+03  0.14506945306E+03  0.78171897899E+03  0.15294330000E+03 0.  0.
<mgrwt>
<rscale>  0 0.93634241E+03</rscale>
<asrwt>0</asrwt>
<pdfrwt beam="1">  1        2 0.43621399E+00 0.10002290E+04</pdfrwt>
<pdfrwt beam="2">  1       -2 0.65195300E-01 0.10002290E+04</pdfrwt>
<totfact> 0.48616899E+00</totfact>
</mgrwt>
</event>
<event>
 4    1  0.6502538E-008  0.9721388E+03  0.7818608E-02  0.9418952E-01
          2   -1    0    0  501    0  0.00000000000E+00  0.00000000000E+00  0.19695170970E+04  0.19695170970E+04  0.25500000000E-02 0. -1.
         -2   -1    0    0    0  501 -0.00000000000E+00 -0.00000000000E+00 -0.69490516611E+03  0.69490516611E+03  0.25500000000E-02 0.  1.
    8880023    1    1    2    0    0  0.59333799993E+03 -0.39899090668E+03  0.15935761914E+04  0.18666919965E+04  0.65864270000E+03 0. -1.
    8880022    1    1    2    0    0 -0.59333799993E+03  0.39899090668E+03 -0.31896426050E+03  0.79773026661E+03  0.15294330000E+03 0.  0.
<mgrwt>
<rscale>  0 0.90532275E+03</rscale>
<asrwt>0</asrwt>
<pdfrwt beam="1">  1        2 0.30300263E+00 0.97213884E+03</pdfrwt>
<pdfrwt beam="2">  1       -2 0.10690849E+00 0.97213884E+03</pdfrwt>
<totfact> 0.49049862E+00</totfact>
</mgrwt>
</event>
<event>
 4    1  0.6502538E-008  0.7242962E+03  0.7818608E-02  0.9908308E-01
         -2   -1    0    0    0  501 -0.00000000000E+00  0.00000000000E+00  0.36282798165E+03  0.36282798166E+03  0.25500000000E-02 0.  1.
          2   -1    0    0  501    0  0.00000000000E+00 -0.00000000000E+00 -0.11789386021E+04  0.11789386021E+04  0.25500000000E-02 0. -1.
    8880023    1    1    2    0    0  0.82963809129E+02  0.28967525432E+03 -0.93573508206E+03  0.11833026226E+04  0.65864270000E+03 0.  0.
    8880022    1    1    2    0    0 -0.82963809129E+02 -0.28967525432E+03  0.11962446164E+03  0.35846396113E+03  0.15294330000E+03 0.  0.
<mgrwt>
<rscale>  0 0.59860307E+03</rscale>
<asrwt>0</asrwt>
<pdfrwt beam="1">  1        2 0.18137517E+00 0.72429618E+03</pdfrwt>
<pdfrwt beam="2">  1       -2 0.55819690E-01 0.72429618E+03</pdfrwt>
<totfact> 0.59922697E+01</totfact>
</mgrwt>
</event>
<event>
 4    1  0.6502538E-008  0.7689338E+03  0.7818608E-02  0.9782505E-01
         -2   -1    0    0    0  501 -0.00000000000E+00  0.00000000000E+00  0.20390887890E+04  0.20390887890E+04  0.25500000000E-02 0.  1.
          2   -1    0    0  501    0  0.00000000000E+00 -0.00000000000E+00 -0.22640367919E+03  0.22640367920E+03  0.25500000000E-02 0. -1.
    8880023    1    1    2    0    0 -0.37993595641E+03  0.11444467180E+03  0.58478685212E+03  0.96604077686E+03  0.65864270000E+03 0. -1.
    8880022    1    1    2    0    0  0.37993595641E+03 -0.11444467180E+03  0.12278982576E+04  0.12994516913E+04  0.15294330000E+03 0.  0.
<mgrwt>
<rscale>  0 0.66309946E+03</rscale>
<asrwt>0</asrwt>
<pdfrwt beam="1">  1        2 0.34831337E-01 0.76893376E+03</pdfrwt>
<pdfrwt beam="2">  1       -2 0.31370596E+00 0.76893376E+03</pdfrwt>
<totfact> 0.40939288E+00</totfact>
</mgrwt>
</event>
<event>
 4    1  0.6502538E-008  0.8685531E+03  0.7818608E-02  0.9578526E-01
          2   -1    0    0  501    0  0.00000000000E+00  0.00000000000E+00  0.13237669776E+04  0.13237669776E+04  0.25500000000E-02 0. -1.
         -2   -1    0    0    0  501 -0.00000000000E+00 -0.00000000000E+00 -0.53015834506E+03  0.53015834506E+03  0.25500000000E-02 0.  1.
    8880023    1    1    2    0    0 -0.48930858445E+03  0.28487091644E+03  0.90785247137E+03  0.12564157934E+04  0.65864270000E+03 0. -1.
    8880022    1    1    2    0    0  0.48930858445E+03 -0.28487091644E+03 -0.11424383882E+03  0.59750952928E+03  0.15294330000E+03 0.  0.
<mgrwt>
<rscale>  0 0.78733893E+03</rscale>
<asrwt>0</asrwt>
<pdfrwt beam="1">  1        2 0.20365645E+00 0.86855313E+03</pdfrwt>
<pdfrwt beam="2">  1       -2 0.81562824E-01 0.86855313E+03</pdfrwt>
<totfact> 0.21360618E+01</totfact>
</mgrwt>
</event>
<event>
 4    1  0.6502538E-008  0.7150817E+03  0.7818608E-02  0.9939593E-01
          2   -1    0    0  501    0  0.00000000000E+00  0.00000000000E+00  0.32203379382E+04  0.32203379382E+04  0.25500000000E-02 0. -1.
         -2   -1    0    0    0  501 -0.00000000000E+00 -0.00000000000E+00 -0.22117730004E+03  0.22117730006E+03  0.25500000000E-02 0.  1.
    8880023    1    1    2    0    0  0.21109857660E+03  0.18157381555E+03  0.30384038179E+04  0.31214162853E+04  0.65864270000E+03 0. -1.
    8880022    1    1    2    0    0 -0.21109857660E+03 -0.18157381555E+03 -0.39243179664E+02  0.32009895299E+03  0.15294330000E+03 0.  0.
<mgrwt>
<rscale>  0 0.58380216E+03</rscale>
<asrwt>0</asrwt>
<pdfrwt beam="1">  1        2 0.49543661E+00 0.71508172E+03</pdfrwt>
<pdfrwt beam="2">  1       -2 0.34027277E-01 0.71508172E+03</pdfrwt>
<totfact> 0.10945712E+01</totfact>
</mgrwt>
</event>
<event>
 4    1  0.6502538E-008  0.6944691E+03  0.7818608E-02  0.1002097E+00
         -2   -1    0    0    0  501 -0.00000000000E+00  0.00000000000E+00  0.40996806333E+03  0.40996806334E+03  0.25500000000E-02 0.  1.
          2   -1    0    0  501    0  0.00000000000E+00 -0.00000000000E+00 -0.10150815834E+04  0.10150815834E+04  0.25500000000E-02 0. -1.
    8880023    1    1    2    0    0  0.79592261081E+02 -0.20528567931E+03 -0.82495683358E+03  0.10783511124E+04  0.65864270000E+03 0. -1.
    8880022    1    1    2    0    0 -0.79592261081E+02  0.20528567931E+03  0.21984331353E+03  0.34669853428E+03  0.15294330000E+03 0.  0.
<mgrwt>
<rscale>  0 0.54740309E+03</rscale>
<asrwt>0</asrwt>
<pdfrwt beam="1">  1        2 0.15616640E+00 0.69446911E+03</pdfrwt>
<pdfrwt beam="2">  1       -2 0.63072010E-01 0.69446911E+03</pdfrwt>
<totfact> 0.58531302E+01</totfact>
</mgrwt>
</event>
<event>
 4    1  0.6502538E-008  0.1200789E+04  0.7818608E-02  0.9156356E-01
         -2   -1    0    0    0  501 -0.00000000000E+00  0.00000000000E+00  0.99998685485E+03  0.99998685485E+03  0.25500000000E-02 0.  1.
          2   -1    0    0  501    0  0.00000000000E+00 -0.00000000000E+00 -0.19355764912E+04  0.19355764912E+04  0.25500000000E-02 0. -1.
    8880023    1    1    2    0    0  0.30739686030E+03 -0.95581915076E+03 -0.13779936447E+04  0.18277745402E+04  0.65864270000E+03 0.  0.
    8880022    1    1    2    0    0 -0.30739686030E+03  0.95581915076E+03  0.44240400838E+03  0.11077888058E+04  0.15294330000E+03 0.  0.
<mgrwt>
<rscale>  0 0.11515485E+04</rscale>
<asrwt>0</asrwt>
<pdfrwt beam="1">  1        2 0.29778100E+00 0.12007886E+04</pdfrwt>
<pdfrwt beam="2">  1       -2 0.15384413E+00 0.12007886E+04</pdfrwt>
<totfact> 0.19765613E+00</totfact>
</mgrwt>
</event>
<event>
 4    1  0.6502538E-008  0.7456425E+03  0.7818608E-02  0.9843805E-01
         -2   -1    0    0    0  501 -0.00000000000E+00  0.00000000000E+00  0.33737489491E+03  0.33737489492E+03  0.25500000000E-02 0.  1.
          2   -1    0    0  501    0  0.00000000000E+00 -0.00000000000E+00 -0.30732567145E+04  0.30732567145E+04  0.25500000000E-02 0. -1.
    8880023    1    1    2    0    0  0.34111840769E+03  0.76228419793E+02 -0.29007157557E+04  0.29950183041E+04  0.65864270000E+03 0. -1.
    8880022    1    1    2    0    0 -0.34111840769E+03 -0.76228419793E+02  0.16483393613E+03  0.41561330533E+03  0.15294330000E+03 0.  0.
<mgrwt>
<rscale>  0 0.63063753E+03</rscale>
<asrwt>0</asrwt>
<pdfrwt beam="1">  1        2 0.47280870E+00 0.74564251E+03</pdfrwt>
<pdfrwt beam="2">  1       -2 0.51903832E-01 0.74564251E+03</pdfrwt>
<totfact> 0.58638168E+00</totfact>
</mgrwt>
</event>
<event>
 4    1  0.6502538E-008  0.8537707E+03  0.7818608E-02  0.9604742E-01
         -2   -1    0    0    0  501 -0.00000000000E+00  0.00000000000E+00  0.53436684568E+03  0.53436684569E+03  0.25500000000E-02 0.  1.
          2   -1    0    0  501    0  0.00000000000E+00 -0.00000000000E+00 -0.17640818943E+04  0.17640818943E+04  0.25500000000E-02 0. -1.
    8880023    1    1    2    0    0 -0.45923696227E+03  0.29019913740E+03 -0.14580653757E+04  0.16896387108E+04  0.65864270000E+03 0. -1.
    8880022    1    1    2    0    0  0.45923696227E+03 -0.29019913740E+03  0.22835032703E+03  0.60881002927E+03  0.15294330000E+03 0.  0.
<mgrwt>
<rscale>  0 0.76983133E+03</rscale>
<asrwt>0</asrwt>
<pdfrwt beam="1">  1        2 0.27139721E+00 0.85377066E+03</pdfrwt>
<pdfrwt beam="2">  1       -2 0.82210285E-01 0.85377066E+03</pdfrwt>
<totfact> 0.11928636E+01</totfact>
</mgrwt>
</event>
<event>
 4    1  0.6502538E-008  0.1091618E+04  0.7818608E-02  0.9270446E-01
         -2   -1    0    0    0  501 -0.00000000000E+00  0.00000000000E+00  0.14234989746E+04  0.14234989746E+04  0.25500000000E-02 0.  1.
          2   -1    0    0  501    0  0.00000000000E+00 -0.00000000000E+00 -0.34545577849E+04  0.34545577849E+04  0.25500000000E-02 0. -1.
    8880023    1    1    2    0    0 -0.33436083052E+03  0.80375507132E+03 -0.32180388483E+04  0.33981470855E+04  0.65864270000E+03 0. -1.
    8880022    1    1    2    0    0  0.33436083052E+03 -0.80375507132E+03  0.11869800380E+04  0.14799096740E+04  0.15294330000E+03 0.  0.
<mgrwt>
<rscale>  0 0.10354974E+04</rscale>
<asrwt>0</asrwt>
<pdfrwt beam="1">  1        2 0.53147043E+00 0.10916179E+04</pdfrwt>
<pdfrwt beam="2">  1       -2 0.21899984E+00 0.10916179E+04</pdfrwt>
<totfact> 0.88775785E-02</totfact>
</mgrwt>
</event>
<event>
 4    1  0.6502538E-008  0.1908843E+04  0.7818608E-02  0.8664603E-01
          2   -1    0    0  501    0  0.00000000000E+00  0.00000000000E+00  0.32730606214E+04  0.32730606214E+04  0.25500000000E-02 0. -1.
         -2   -1    0    0    0  501 -0.00000000000E+00 -0.00000000000E+00 -0.13843888540E+04  0.13843888540E+04  0.25500000000E-02 0.  1.
    8880023    1    1    2    0    0 -0.13082715463E+04 -0.12240495407E+04 -0.17907346326E+03  0.19172243553E+04  0.65864270000E+03 0.  0.
    8880022    1    1    2    0    0  0.13082715463E+04  0.12240495407E+04  0.20677452307E+04  0.27402251201E+04  0.15294330000E+03 0.  0.
<mgrwt>
<rscale>  0 0.18805410E+04</rscale>
<asrwt>0</asrwt>
<pdfrwt beam="1">  1        2 0.50354779E+00 0.19088431E+04</pdfrwt>
<pdfrwt beam="2">  1       -2 0.21298290E+00 0.19088431E+04</pdfrwt>
<totfact> 0.11448373E-01</totfact>
</mgrwt>
</event>
<event>
 4    1  0.6502538E-008  0.7550027E+03  0.7818608E-02  0.9818221E-01
          2   -1    0    0  501    0  0.00000000000E+00  0.00000000000E+00  0.35294495996E+04  0.35294495996E+04  0.25500000000E-02 0. -1.
         -2   -1    0    0    0  501 -0.00000000000E+00 -0.00000000000E+00 -0.24697766707E+03  0.24697766709E+03  0.25500000000E-02 0.  1.
    8880023    1    1    2    0    0 -0.18451463737E+03  0.31964555568E+03  0.32913307350E+04  0.33768161256E+04  0.65864270000E+03 0. -1.
    8880022    1    1    2    0    0  0.18451463737E+03 -0.31964555568E+03 -0.88588024957E+01  0.39961114107E+03  0.15294330000E+03 0.  0.
<mgrwt>
<rscale>  0 0.64393808E+03</rscale>
<asrwt>0</asrwt>
<pdfrwt beam="1">  1        2 0.54299222E+00 0.75500274E+03</pdfrwt>
<pdfrwt beam="2">  1       -2 0.37996566E-01 0.75500274E+03</pdfrwt>
<totfact> 0.54898334E+00</totfact>
</mgrwt>
</event>
<event>
 4    1  0.6502538E-008  0.1062946E+04  0.7818608E-02  0.9303478E-01
         -2   -1    0    0    0  501 -0.00000000000E+00  0.00000000000E+00  0.91128189585E+03  0.91128189585E+03  0.25500000000E-02 0.  1.
          2   -1    0    0  501    0  0.00000000000E+00 -0.00000000000E+00 -0.26607217658E+04  0.26607217659E+04  0.25500000000E-02 0. -1.
    8880023    1    1    2    0    0  0.33197339194E+03 -0.76540046811E+03 -0.23185353060E+04  0.25505804008E+04  0.65864270000E+03 0.  0.
    8880022    1    1    2    0    0 -0.33197339194E+03  0.76540046811E+03  0.56909543602E+03  0.10214232609E+04  0.15294330000E+03 0.  0.
<mgrwt>
<rscale>  0 0.10046330E+04</rscale>
<asrwt>0</asrwt>
<pdfrwt beam="1">  1        2 0.40934181E+00 0.10629461E+04</pdfrwt>
<pdfrwt beam="2">  1       -2 0.14019722E+00 0.10629461E+04</pdfrwt>
<totfact> 0.10022629E+00</totfact>
</mgrwt>
</event>
<event>
 4    1  0.6502538E-008  0.7936559E+03  0.7818608E-02  0.9724685E-01
         -2   -1    0    0    0  501 -0.00000000000E+00  0.00000000000E+00  0.28605330807E+03  0.28605330808E+03  0.25500000000E-02 0.  1.
          2   -1    0    0  501    0  0.00000000000E+00 -0.00000000000E+00 -0.43838436200E+04  0.43838436200E+04  0.25500000000E-02 0. -1.
    8880023    1    1    2    0    0  0.10774709366E+03  0.42949970334E+03 -0.41249745611E+04  0.42006314725E+04  0.65864270000E+03 0. -1.
    8880022    1    1    2    0    0 -0.10774709366E+03 -0.42949970334E+03  0.27184249245E+02  0.46926545556E+03  0.15294330000E+03 0.  0.
<mgrwt>
<rscale>  0 0.69565889E+03</rscale>
<asrwt>0</asrwt>
<pdfrwt beam="1">  1        2 0.67443743E+00 0.79365587E+03</pdfrwt>
<pdfrwt beam="2">  1       -2 0.44008204E-01 0.79365587E+03</pdfrwt>
<totfact> 0.87189632E-01</totfact>
</mgrwt>
</event>
<event>
 4    1  0.6502538E-008  0.1512839E+04  0.7818608E-02  0.8900623E-01
         -2   -1    0    0    0  501 -0.00000000000E+00  0.00000000000E+00  0.95559198355E+03  0.95559198355E+03  0.25500000000E-02 0.  1.
          2   -1    0    0  501    0  0.00000000000E+00 -0.00000000000E+00 -0.23728772890E+04  0.23728772891E+04  0.25500000000E-02 0. -1.
    8880023    1    1    2    0    0 -0.24696452156E+03 -0.13393578990E+04 -0.26064824909E+03  0.15351282593E+04  0.65864270000E+03 0.  0.
    8880022    1    1    2    0    0  0.24696452156E+03  0.13393578990E+04 -0.11566370564E+04  0.17933410133E+04  0.15294330000E+03 0.  0.
<mgrwt>
<rscale>  0 0.14759241E+04</rscale>
<asrwt>0</asrwt>
<pdfrwt beam="1">  1        2 0.36505804E+00 0.15128388E+04</pdfrwt>
<pdfrwt beam="2">  1       -2 0.14701415E+00 0.15128388E+04</pdfrwt>
<totfact> 0.12287386E+00</totfact>
</mgrwt>
</event>
<event>
 4    1  0.6502538E-008  0.1055665E+04  0.7818608E-02  0.9312102E-01
         -2   -1    0    0    0  501 -0.00000000000E+00  0.00000000000E+00  0.48358676389E+03  0.48358676390E+03  0.25500000000E-02 0.  1.
          2   -1    0    0  501    0  0.00000000000E+00 -0.00000000000E+00 -0.24293066657E+04  0.24293066657E+04  0.25500000000E-02 0. -1.
    8880023    1    1    2    0    0 -0.73642507395E+03 -0.37188291212E+03 -0.17618814034E+04  0.20539364829E+04  0.65864270000E+03 0. -1.
    8880022    1    1    2    0    0  0.73642507395E+03  0.37188291212E+03 -0.18383849848E+03  0.85895694677E+03  0.15294330000E+03 0.  0.
<mgrwt>
<rscale>  0 0.99676330E+03</rscale>
<asrwt>0</asrwt>
<pdfrwt beam="1">  1        2 0.37373948E+00 0.10556652E+04</pdfrwt>
<pdfrwt beam="2">  1       -2 0.74397965E-01 0.10556652E+04</pdfrwt>
<totfact> 0.62319677E+00</totfact>
</mgrwt>
</event>
<event>
 4    1  0.6502538E-008  0.6672366E+03  0.7818608E-02  0.1017726E+00
         -2   -1    0    0    0  501 -0.00000000000E+00  0.00000000000E+00  0.19475325542E+03  0.19475325543E+03  0.25500000000E-02 0.  1.
          2   -1    0    0  501    0  0.00000000000E+00 -0.00000000000E+00 -0.34583513287E+04  0.34583513287E+04  0.25500000000E-02 0. -1.
    8880023    1    1    2    0    0  0.10405335276E+03 -0.23818402016E+02 -0.33719993551E+04  0.34373804377E+04  0.65864270000E+03 0. -1.
    8880022    1    1    2    0    0 -0.10405335276E+03  0.23818402016E+02  0.10840128172E+03  0.21572414651E+03  0.15294330000E+03 0.  0.
<mgrwt>
<rscale>  0 0.48516062E+03</rscale>
<asrwt>0</asrwt>
<pdfrwt beam="1">  1        2 0.53205400E+00 0.66723656E+03</pdfrwt>
<pdfrwt beam="2">  1       -2 0.29962042E-01 0.66723656E+03</pdfrwt>
<totfact> 0.97966313E+00</totfact>
</mgrwt>
</event>
<event>
 4    1  0.6502538E-008  0.7474062E+03  0.7818608E-02  0.9838876E-01
          2   -1    0    0  501    0  0.00000000000E+00  0.00000000000E+00  0.29571598247E+04  0.29571598247E+04  0.25500000000E-02 0. -1.
         -2   -1    0    0    0  501 -0.00000000000E+00 -0.00000000000E+00 -0.29949997736E+03  0.29949997737E+03  0.25500000000E-02 0.  1.
    8880023    1    1    2    0    0 -0.22021244861E+03  0.27624671608E+03  0.27591125046E+04  0.28585516945E+04  0.65864270000E+03 0. -1.
    8880022    1    1    2    0    0  0.22021244861E+03 -0.27624671608E+03 -0.10145265725E+03  0.39810810761E+03  0.15294330000E+03 0.  0.
<mgrwt>
<rscale>  0 0.63317329E+03</rscale>
<asrwt>0</asrwt>
<pdfrwt beam="1">  1        2 0.45494764E+00 0.74740617E+03</pdfrwt>
<pdfrwt beam="2">  1       -2 0.46076922E-01 0.74740617E+03</pdfrwt>
<totfact> 0.87916719E+00</totfact>
</mgrwt>
</event>
<event>
 4    1  0.6502538E-008  0.8079937E+03  0.7818608E-02  0.9693771E-01
          2   -1    0    0  501    0  0.00000000000E+00  0.00000000000E+00  0.25741737660E+04  0.25741737660E+04  0.25500000000E-02 0. -1.
         -2   -1    0    0    0  501 -0.00000000000E+00 -0.00000000000E+00 -0.27996206907E+03  0.27996206908E+03  0.25500000000E-02 0.  1.
    8880023    1    1    2    0    0  0.59067384950E+02 -0.46427870284E+03  0.22119878928E+04  0.23549404056E+04  0.65864270000E+03 0.  0.
    8880022    1    1    2    0    0 -0.59067384950E+02  0.46427870284E+03  0.82223804203E+02  0.49919542953E+03  0.15294330000E+03 0.  1.
<mgrwt>
<rscale>  0 0.71388866E+03</rscale>
<asrwt>0</asrwt>
<pdfrwt beam="1">  1        2 0.39602672E+00 0.80799374E+03</pdfrwt>
<pdfrwt beam="2">  1       -2 0.43071089E-01 0.80799374E+03</pdfrwt>
<totfact> 0.16739164E+01</totfact>
</mgrwt>
</event>
<event>
 4    1  0.6502538E-008  0.1538953E+04  0.7818608E-02  0.8882609E-01
         -2   -1    0    0    0  501 -0.00000000000E+00  0.00000000000E+00  0.10952893301E+04  0.10952893301E+04  0.25500000000E-02 0.  1.
          2   -1    0    0  501    0  0.00000000000E+00 -0.00000000000E+00 -0.37005740608E+04  0.37005740608E+04  0.25500000000E-02 0. -1.
    8880023    1    1    2    0    0 -0.12124839793E+04 -0.68150481562E+03 -0.29742093442E+04  0.33487755438E+04  0.65864270000E+03 0.  0.
    8880022    1    1    2    0    0  0.12124839793E+04  0.68150481562E+03  0.36892461353E+03  0.14470878471E+04  0.15294330000E+03 0.  0.
<mgrwt>
<rscale>  0 0.15027767E+04</rscale>
<asrwt>0</asrwt>
<pdfrwt beam="1">  1        2 0.56931908E+00 0.15389530E+04</pdfrwt>
<pdfrwt beam="2">  1       -2 0.16850605E+00 0.15389530E+04</pdfrwt>
<totfact> 0.12082928E-01</totfact>
</mgrwt>
</event>
<event>
 4    1  0.6502538E-008  0.1081282E+04  0.7818608E-02  0.9282188E-01
         -2   -1    0    0    0  501 -0.00000000000E+00  0.00000000000E+00  0.15730097061E+04  0.15730097061E+04  0.25500000000E-02 0.  1.
          2   -1    0    0  501    0  0.00000000000E+00 -0.00000000000E+00 -0.13006655805E+04  0.13006655805E+04  0.25500000000E-02 0. -1.
    8880023    1    1    2    0    0  0.48155011808E+03  0.70955561566E+03 -0.90437542066E+03  0.14096328585E+04  0.65864270000E+03 0.  0.
    8880022    1    1    2    0    0 -0.48155011808E+03 -0.70955561566E+03  0.11767195462E+04  0.14640424282E+04  0.15294330000E+03 0.  0.
<mgrwt>
<rscale>  0 0.10243929E+04</rscale>
<asrwt>0</asrwt>
<pdfrwt beam="1">  1        2 0.20010240E+00 0.10812816E+04</pdfrwt>
<pdfrwt beam="2">  1       -2 0.24200149E+00 0.10812816E+04</pdfrwt>
<totfact> 0.11719765E+00</totfact>
</mgrwt>
</event>
<event>
 4    1  0.6502538E-008  0.1159102E+04  0.7818608E-02  0.9197941E-01
          2   -1    0    0  501    0  0.00000000000E+00  0.00000000000E+00  0.31477863963E+04  0.31477863963E+04  0.25500000000E-02 0. -1.
         -2   -1    0    0    0  501 -0.00000000000E+00 -0.00000000000E+00 -0.44780710716E+03  0.44780710717E+03  0.25500000000E-02 0.  1.
    8880023    1    1    2    0    0 -0.30062544999E+03 -0.90516983203E+03  0.22477363270E+04  0.25289991870E+04  0.65864270000E+03 0. -1.
    8880022    1    1    2    0    0  0.30062544999E+03  0.90516983203E+03  0.45224296210E+03  0.10665943164E+04  0.15294330000E+03 0.  0.
<mgrwt>
<rscale>  0 0.11074710E+04</rscale>
<asrwt>0</asrwt>
<pdfrwt beam="1">  1        2 0.48427485E+00 0.11591024E+04</pdfrwt>
<pdfrwt beam="2">  1       -2 0.68893399E-01 0.11591024E+04</pdfrwt>
<totfact> 0.27071086E+00</totfact>
</mgrwt>
</event>
<event>
 4    1  0.6502538E-008  0.7853574E+03  0.7818608E-02  0.9743400E-01
          2   -1    0    0  501    0  0.00000000000E+00  0.00000000000E+00  0.13121610876E+04  0.13121610876E+04  0.25500000000E-02 0. -1.
         -2   -1    0    0    0  501 -0.00000000000E+00 -0.00000000000E+00 -0.14085044432E+04  0.14085044432E+04  0.25500000000E-02 0.  1.
    8880023    1    1    2    0    0  0.13325485352E+03 -0.40647166336E+03  0.11508673080E+04  0.13932989041E+04  0.65864270000E+03 0. -1.
    8880022    1    1    2    0    0 -0.13325485352E+03  0.40647166336E+03 -0.12472106636E+04  0.13273666267E+04  0.15294330000E+03 0.  0.
<mgrwt>
<rscale>  0 0.68490563E+03</rscale>
<asrwt>0</asrwt>
<pdfrwt beam="1">  1        2 0.20187094E+00 0.78535742E+03</pdfrwt>
<pdfrwt beam="2">  1       -2 0.21669299E+00 0.78535742E+03</pdfrwt>
<totfact> 0.17303374E+00</totfact>
</mgrwt>
</event>
<event>
 4    1  0.6502538E-008  0.8730677E+03  0.7818608E-02  0.9570728E-01
          2   -1    0    0  501    0  0.00000000000E+00  0.00000000000E+00  0.70144371766E+03  0.70144371767E+03  0.25500000000E-02 0. -1.
         -2   -1    0    0    0  501 -0.00000000000E+00 -0.00000000000E+00 -0.10118929764E+04  0.10118929764E+04  0.25500000000E-02 0.  1.
    8880023    1    1    2    0    0 -0.41635765061E+03 -0.39380608133E+03  0.23859259655E+03  0.90508207159E+03  0.65864270000E+03 0.  1.
    8880022    1    1    2    0    0  0.41635765061E+03  0.39380608133E+03 -0.54904185533E+03  0.80825462252E+03  0.15294330000E+03 0.  0.
<mgrwt>
<rscale>  0 0.79264242E+03</rscale>
<asrwt>0</asrwt>
<pdfrwt beam="1">  1        2 0.10791442E+00 0.87306765E+03</pdfrwt>
<pdfrwt beam="2">  1       -2 0.15567584E+00 0.87306765E+03</pdfrwt>
<totfact> 0.11125057E+01</totfact>
</mgrwt>
</event>
<event>
 4    1  0.6502538E-008  0.1578948E+04  0.7818608E-02  0.8855810E-01
         -2   -1    0    0    0  501 -0.00000000000E+00  0.00000000000E+00  0.35602482549E+04  0.35602482549E+04  0.25500000000E-02 0.  1.
          2   -1    0    0  501    0  0.00000000000E+00 -0.00000000000E+00 -0.16319741198E+04  0.16319741198E+04  0.25500000000E-02 0. -1.
    8880023    1    1    2    0    0  0.13970800307E+04 -0.32777055777E+03 -0.10407171655E+04  0.18910760364E+04  0.65864270000E+03 0.  0.
    8880022    1    1    2    0    0 -0.13970800307E+04  0.32777055777E+03  0.29689913006E+04  0.33011463383E+04  0.15294330000E+03 0.  0.
<mgrwt>
<rscale>  0 0.15438428E+04</rscale>
<asrwt>0</asrwt>
<pdfrwt beam="1">  1        2 0.25107294E+00 0.15789479E+04</pdfrwt>
<pdfrwt beam="2">  1       -2 0.54773050E+00 0.15789479E+04</pdfrwt>
<totfact> 0.85552794E-03</totfact>
</mgrwt>
</event>
<event>
 4    1  0.6502538E-008  0.9232175E+03  0.7818608E-02  0.9489743E-01
          2   -1    0    0  501    0  0.00000000000E+00  0.00000000000E+00  0.70492510327E+03  0.70492510328E+03  0.25500000000E-02 0. -1.
         -2   -1    0    0    0  501 -0.00000000000E+00 -0.00000000000E+00 -0.11033045021E+04  0.11033045021E+04  0.25500000000E-02 0.  1.
    8880023    1    1    2    0    0  0.62360628786E+03  0.17214976839E+03  0.16378306525E+03  0.93763289391E+03  0.65864270000E+03 0. -1.
    8880022    1    1    2    0    0 -0.62360628786E+03 -0.17214976839E+03 -0.56216246409E+03  0.87059671149E+03  0.15294330000E+03 0.  0.
<mgrwt>
<rscale>  0 0.85044258E+03</rscale>
<asrwt>0</asrwt>
<pdfrwt beam="1">  1        2 0.10845002E+00 0.92321750E+03</pdfrwt>
<pdfrwt beam="2">  1       -2 0.16973915E+00 0.92321750E+03</pdfrwt>
<totfact> 0.86855258E+00</totfact>
</mgrwt>
</event>
<event>
 4    1  0.6502538E-008  0.7993203E+03  0.7818608E-02  0.9712268E-01
          2   -1    0    0  501    0  0.00000000000E+00  0.00000000000E+00  0.13310585753E+04  0.13310585753E+04  0.25500000000E-02 0. -1.
         -2   -1    0    0    0  501 -0.00000000000E+00 -0.00000000000E+00 -0.53812037347E+03  0.53812037348E+03  0.25500000000E-02 0.  1.
    8880023    1    1    2    0    0  0.25357919129E+03  0.37523361361E+03  0.10553422195E+04  0.13238806886E+04  0.65864270000E+03 0. -1.
    8880022    1    1    2    0    0 -0.25357919129E+03 -0.37523361361E+03 -0.26240401771E+03  0.54529826018E+03  0.15294330000E+03 0.  0.
<mgrwt>
<rscale>  0 0.70291052E+03</rscale>
<asrwt>0</asrwt>
<pdfrwt beam="1">  1        2 0.20477824E+00 0.79932026E+03</pdfrwt>
<pdfrwt beam="2">  1       -2 0.82787750E-01 0.79932026E+03</pdfrwt>
<totfact> 0.20600324E+01</totfact>
</mgrwt>
</event>
<event>
 4    1  0.6502538E-008  0.8670219E+03  0.7818608E-02  0.9581193E-01
         -2   -1    0    0    0  501 -0.00000000000E+00  0.00000000000E+00  0.68212972546E+03  0.68212972546E+03  0.25500000000E-02 0.  1.
          2   -1    0    0  501    0  0.00000000000E+00 -0.00000000000E+00 -0.14430288558E+04  0.14430288558E+04  0.25500000000E-02 0. -1.
    8880023    1    1    2    0    0 -0.47218590383E+03 -0.30815145573E+03 -0.11373667487E+04  0.14301504028E+04  0.65864270000E+03 0. -1.
    8880022    1    1    2    0    0  0.47218590383E+03  0.30815145573E+03  0.37646761833E+03  0.69500817845E+03  0.15294330000E+03 0.  0.
<mgrwt>
<rscale>  0 0.78553575E+03</rscale>
<asrwt>0</asrwt>
<pdfrwt beam="1">  1        2 0.22200444E+00 0.86702195E+03</pdfrwt>
<pdfrwt beam="2">  1       -2 0.10494304E+00 0.86702195E+03</pdfrwt>
<totfact> 0.10154592E+01</totfact>
</mgrwt>
</event>
<event>
 4    1  0.6502538E-008  0.1003809E+04  0.7818608E-02  0.9376591E-01
          2   -1    0    0  501    0  0.00000000000E+00  0.00000000000E+00  0.17101954706E+04  0.17101954706E+04  0.25500000000E-02 0. -1.
         -2   -1    0    0    0  501 -0.00000000000E+00 -0.00000000000E+00 -0.63400858560E+03  0.63400858561E+03  0.25500000000E-02 0.  1.
    8880023    1    1    2    0    0 -0.54015152615E+03 -0.53109283111E+03  0.11968144438E+04  0.15620493864E+04  0.65864270000E+03 0.  0.
    8880022    1    1    2    0    0  0.54015152615E+03  0.53109283111E+03 -0.12062755883E+03  0.78215466976E+03  0.15294330000E+03 0.  0.
<mgrwt>
<rscale>  0 0.94027481E+03</rscale>
<asrwt>0</asrwt>
<pdfrwt beam="1">  1        2 0.26310699E+00 0.10038095E+04</pdfrwt>
<pdfrwt beam="2">  1       -2 0.97539784E-01 0.10038095E+04</pdfrwt>
<totfact> 0.84542701E+00</totfact>
</mgrwt>
</event>
<event>
 4    1  0.6502538E-008  0.7899673E+03  0.7818608E-02  0.9732924E-01
          2   -1    0    0  501    0  0.00000000000E+00  0.00000000000E+00  0.22508764124E+04  0.22508764124E+04  0.25500000000E-02 0. -1.
         -2   -1    0    0    0  501 -0.00000000000E+00 -0.00000000000E+00 -0.50086112606E+03  0.50086112606E+03  0.25500000000E-02 0.  1.
    8880023    1    1    2    0    0  0.37050413964E+03 -0.23014068071E+03  0.20525548007E+04  0.21993247751E+04  0.65864270000E+03 0. -1.
    8880022    1    1    2    0    0 -0.37050413964E+03  0.23014068071E+03 -0.30253951430E+03  0.55241276337E+03  0.15294330000E+03 0.  0.
<mgrwt>
<rscale>  0 0.69089893E+03</rscale>
<asrwt>0</asrwt>
<pdfrwt beam="1">  1        2 0.34628868E+00 0.78996725E+03</pdfrwt>
<pdfrwt beam="2">  1       -2 0.77055557E-01 0.78996725E+03</pdfrwt>
<totfact> 0.75259030E+00</totfact>
</mgrwt>
</event>
<event>
 4    1  0.6502538E-008  0.6883693E+03  0.7818608E-02  0.1004937E+00
         -2   -1    0    0    0  501 -0.00000000000E+00  0.00000000000E+00  0.26323184877E+03  0.26323184878E+03  0.25500000000E-02 0.  1.
          2   -1    0    0  501    0  0.00000000000E+00 -0.00000000000E+00 -0.17505825007E+04  0.17505825007E+04  0.25500000000E-02 0. -1.
    8880023    1    1    2    0    0  0.19580058025E+03 -0.41282464499E+02 -0.15970607936E+04  0.17390961715E+04  0.65864270000E+03 0. -1.
    8880022    1    1    2    0    0 -0.19580058025E+03  0.41282464499E+02  0.10971014166E+03  0.27471817796E+03  0.15294330000E+03 0.  0.
<mgrwt>
<rscale>  0 0.53537266E+03</rscale>
<asrwt>0</asrwt>
<pdfrwt beam="1">  1        2 0.26932038E+00 0.68836932E+03</pdfrwt>
<pdfrwt beam="2">  1       -2 0.40497209E-01 0.68836932E+03</pdfrwt>
<totfact> 0.54783658E+01</totfact>
</mgrwt>
</event>
<event>
 4    1  0.6502538E-008  0.1299381E+04  0.7818608E-02  0.9066094E-01
         -2   -1    0    0    0  501 -0.00000000000E+00  0.00000000000E+00  0.14333972758E+04  0.14333972758E+04  0.25500000000E-02 0.  1.
          2   -1    0    0  501    0  0.00000000000E+00 -0.00000000000E+00 -0.16552055458E+04  0.16552055458E+04  0.25500000000E-02 0. -1.
    8880023    1    1    2    0    0  0.23820843870E+03 -0.10944581980E+04  0.83216841632E+03  0.15430153877E+04  0.65864270000E+03 0.  0.
    8880022    1    1    2    0    0 -0.23820843870E+03  0.10944581980E+04 -0.10539766863E+04  0.15455874339E+04  0.15294330000E+03 0. -1.
<mgrwt>
<rscale>  0 0.12549249E+04</rscale>
<asrwt>0</asrwt>
<pdfrwt beam="1">  1        2 0.25464701E+00 0.12993815E+04</pdfrwt>
<pdfrwt beam="2">  1       -2 0.22052266E+00 0.12993815E+04</pdfrwt>
<totfact> 0.97740613E-01</totfact>
</mgrwt>
</event>
<event>
 4    1  0.6502538E-008  0.9203927E+03  0.7818608E-02  0.9494057E-01
          2   -1    0    0  501    0  0.00000000000E+00  0.00000000000E+00  0.13457484924E+04  0.13457484924E+04  0.25500000000E-02 0. -1.
         -2   -1    0    0    0  501 -0.00000000000E+00 -0.00000000000E+00 -0.60667313166E+03  0.60667313166E+03  0.25500000000E-02 0.  1.
    8880023    1    1    2    0    0 -0.49097317690E+03 -0.41503968189E+03  0.88369451362E+03  0.12759462362E+04  0.65864270000E+03 0. -1.
    8880022    1    1    2    0    0  0.49097317690E+03  0.41503968189E+03 -0.14461915290E+03  0.67647538786E+03  0.15294330000E+03 0.  0.
<mgrwt>
<rscale>  0 0.84723389E+03</rscale>
<asrwt>0</asrwt>
<pdfrwt beam="1">  1        2 0.20703823E+00 0.92039274E+03</pdfrwt>
<pdfrwt beam="2">  1       -2 0.93334328E-01 0.92039274E+03</pdfrwt>
<totfact> 0.15143983E+01</totfact>
</mgrwt>
</event>
<event>
 4    1  0.1037082E-007  0.1111984E+04  0.7818608E-02  0.9247830E-01
         -2   -1    0    0    0  501 -0.00000000000E+00  0.00000000000E+00  0.24637359430E+04  0.24637359430E+04  0.25500000000E-02 0.  1.
          2   -1    0    0  501    0  0.00000000000E+00 -0.00000000000E+00 -0.21692515208E+04  0.21692515208E+04  0.25500000000E-02 0. -1.
    8880023    1    1    2    0    0 -0.88143290726E+03  0.16054053804E+03 -0.19314302848E+04  0.22286611195E+04  0.65864270000E+03 0.  0.
    8880022    1    1    2    0    0  0.88143290726E+03 -0.16054053804E+03  0.22259147070E+04  0.24043263443E+04  0.15294330000E+03 0.  0.
<mgrwt>
<rscale>  0 0.10573095E+04</rscale>
<asrwt>0</asrwt>
<pdfrwt beam="1">  1        2 0.33373100E+00 0.11119836E+04</pdfrwt>
<pdfrwt beam="2">  1       -2 0.37903630E+00 0.11119836E+04</pdfrwt>
<totfact> 0.54631442E-02</totfact>
</mgrwt>
</event>
<event>
 4    1  0.7421484E-008  0.8490331E+03  0.7818608E-02  0.9613377E-01
          2   -1    0    0  501    0  0.00000000000E+00  0.00000000000E+00  0.15060491100E+04  0.15060491100E+04  0.25500000000E-02 0. -1.
         -2   -1    0    0    0  501 -0.00000000000E+00 -0.00000000000E+00 -0.21424493101E+04  0.21424493101E+04  0.25500000000E-02 0.  1.
    8880023    1    1    2    0    0 -0.37907526763E+03  0.37861442291E+03  0.13448285479E+04  0.15904153449E+04  0.65864270000E+03 0. -1.
    8880022    1    1    2    0    0  0.37907526763E+03 -0.37861442291E+03 -0.19812287480E+04  0.20580830753E+04  0.15294330000E+03 0.  0.
<mgrwt>
<rscale>  0 0.76417076E+03</rscale>
<asrwt>0</asrwt>
<pdfrwt beam="1">  1        2 0.23169986E+00 0.84903307E+03</pdfrwt>
<pdfrwt beam="2">  1       -2 0.32960759E+00 0.84903307E+03</pdfrwt>
<totfact> 0.27326471E-01</totfact>
</mgrwt>
</event>
<event>
 4    1  0.6502538E-008  0.1124422E+04  0.7818608E-02  0.9234341E-01
          2   -1    0    0  501    0  0.00000000000E+00  0.00000000000E+00  0.14610670444E+04  0.14610670444E+04  0.25500000000E-02 0. -1.
         -2   -1    0    0    0  501 -0.00000000000E+00 -0.00000000000E+00 -0.16947942829E+04  0.16947942829E+04  0.25500000000E-02 0.  1.
    8880023    1    1    2    0    0 -0.91132031710E+03  0.30852254664E+01  0.10737786834E+04  0.15547749374E+04  0.65864270000E+03 0. -1.
    8880022    1    1    2    0    0  0.91132031710E+03 -0.30852254664E+01 -0.13075059219E+04  0.16010863899E+04  0.15294330000E+03 0.  0.
<mgrwt>
<rscale>  0 0.10705900E+04</rscale>
<asrwt>0</asrwt>
<pdfrwt beam="1">  1        2 0.22477955E+00 0.11244218E+04</pdfrwt>
<pdfrwt beam="2">  1       -2 0.26073758E+00 0.11244218E+04</pdfrwt>
<totfact> 0.72410842E-01</totfact>
</mgrwt>
</event>
<event>
 4    1  0.6502538E-008  0.1006339E+04  0.7818608E-02  0.9373311E-01
         -2   -1    0    0    0  501 -0.00000000000E+00  0.00000000000E+00  0.99200853213E+03  0.99200853214E+03  0.25500000000E-02 0.  1.
          2   -1    0    0  501    0  0.00000000000E+00 -0.00000000000E+00 -0.15950515838E+04  0.15950515838E+04  0.25500000000E-02 0. -1.
    8880023    1    1    2    0    0 -0.68205440788E+03 -0.33720911553E+03 -0.12301111836E+04  0.15893054877E+04  0.65864270000E+03 0.  0.
    8880022    1    1    2    0    0  0.68205440788E+03  0.33720911553E+03  0.62706813200E+03  0.99775462820E+03  0.15294330000E+03 0.  0.
<mgrwt>
<rscale>  0 0.94305030E+03</rscale>
<asrwt>0</asrwt>
<pdfrwt beam="1">  1        2 0.24539255E+00 0.10063391E+04</pdfrwt>
<pdfrwt beam="2">  1       -2 0.15261670E+00 0.10063391E+04</pdfrwt>
<totfact> 0.31876826E+00</totfact>
</mgrwt>
</event>
<event>
 4    1  0.6502538E-008  0.7725757E+03  0.7818608E-02  0.9773575E-01
         -2   -1    0    0    0  501 -0.00000000000E+00  0.00000000000E+00  0.41860751030E+03  0.41860751031E+03  0.25500000000E-02 0.  1.
          2   -1    0    0  501    0  0.00000000000E+00 -0.00000000000E+00 -0.13657333496E+04  0.13657333496E+04  0.25500000000E-02 0. -1.
    8880023    1    1    2    0    0 -0.40373649527E+03  0.77338636410E+01 -0.10842009960E+04  0.13313019854E+04  0.65864270000E+03 0.  0.
    8880022    1    1    2    0    0  0.40373649527E+03 -0.77338636410E+01  0.13707515669E+03  0.45303887455E+03  0.15294330000E+03 0.  0.
<mgrwt>
<rscale>  0 0.66800147E+03</rscale>
<asrwt>0</asrwt>
<pdfrwt beam="1">  1        2 0.21011282E+00 0.77257568E+03</pdfrwt>
<pdfrwt beam="2">  1       -2 0.64401156E-01 0.77257568E+03</pdfrwt>
<totfact> 0.34342457E+01</totfact>
</mgrwt>
</event>
<event>
 4    1  0.6502538E-008  0.7370002E+03  0.7818608E-02  0.9868773E-01
          2   -1    0    0  501    0  0.00000000000E+00  0.00000000000E+00  0.10388077235E+04  0.10388077235E+04  0.25500000000E-02 0. -1.
         -2   -1    0    0    0  501 -0.00000000000E+00 -0.00000000000E+00 -0.34538193991E+03  0.34538193992E+03  0.25500000000E-02 0.  1.
    8880023    1    1    2    0    0 -0.10243806624E+03  0.31442882955E+03  0.70466369919E+03  0.10196667012E+04  0.65864270000E+03 0. -1.
    8880022    1    1    2    0    0  0.10243806624E+03 -0.31442882955E+03 -0.11237915573E+02  0.36452296228E+03  0.15294330000E+03 0.  0.
<mgrwt>
<rscale>  0 0.61798836E+03</rscale>
<asrwt>0</asrwt>
<pdfrwt beam="1">  1        2 0.15981657E+00 0.73700017E+03</pdfrwt>
<pdfrwt beam="2">  1       -2 0.53135683E-01 0.73700017E+03</pdfrwt>
<totfact> 0.80700935E+01</totfact>
</mgrwt>
</event>
<event>
 4    1  0.6502538E-008  0.7606953E+03  0.7818608E-02  0.9803311E-01
         -2   -1    0    0    0  501 -0.00000000000E+00  0.00000000000E+00  0.16405415254E+03  0.16405415256E+03  0.25500000000E-02 0.  1.
          2   -1    0    0  501    0  0.00000000000E+00 -0.00000000000E+00 -0.25576342652E+04  0.25576342652E+04  0.25500000000E-02 0. -1.
    8880023    1    1    2    0    0 -0.26485932504E+02  0.37966521068E+03 -0.20501540297E+04  0.21867301911E+04  0.65864270000E+03 0. -1.
    8880022    1    1    2    0    0  0.26485932504E+02 -0.37966521068E+03 -0.34342608299E+03  0.53495822670E+03  0.15294330000E+03 0.  1.
<mgrwt>
<rscale>  0 0.65185176E+03</rscale>
<asrwt>0</asrwt>
<pdfrwt beam="1">  1        2 0.39348216E+00 0.76069533E+03</pdfrwt>
<pdfrwt beam="2">  1       -2 0.25239102E-01 0.76069533E+03</pdfrwt>
<totfact> 0.47259605E+01</totfact>
</mgrwt>
</event>
<event>
 4    1  0.6502538E-008  0.1166940E+04  0.7818608E-02  0.9189948E-01
         -2   -1    0    0    0  501 -0.00000000000E+00  0.00000000000E+00  0.88200619978E+03  0.88200619978E+03  0.25500000000E-02 0.  1.
          2   -1    0    0  501    0  0.00000000000E+00 -0.00000000000E+00 -0.32058775298E+04  0.32058775298E+04  0.25500000000E-02 0. -1.
    8880023    1    1    2    0    0 -0.95634458348E+03  0.11551738867E+03 -0.27771359119E+04  0.30123468108E+04  0.65864270000E+03 0. -1.
    8880022    1    1    2    0    0  0.95634458348E+03 -0.11551738867E+03  0.45326458184E+03  0.10755369188E+04  0.15294330000E+03 0.  0.
<mgrwt>
<rscale>  0 0.11157783E+04</rscale>
<asrwt>0</asrwt>
<pdfrwt beam="1">  1        2 0.49321192E+00 0.11669402E+04</pdfrwt>
<pdfrwt beam="2">  1       -2 0.13569326E+00 0.11669402E+04</pdfrwt>
<totfact> 0.49789802E-01</totfact>
</mgrwt>
</event>
<event>
 4    1  0.6502538E-008  0.9867706E+03  0.7818608E-02  0.9399074E-01
          2   -1    0    0  501    0  0.00000000000E+00  0.00000000000E+00  0.32575093961E+04  0.32575093961E+04  0.25500000000E-02 0. -1.
         -2   -1    0    0    0  501 -0.00000000000E+00 -0.00000000000E+00 -0.60618676937E+03  0.60618676938E+03  0.25500000000E-02 0.  1.
    8880023    1    1    2    0    0  0.50079996647E+03  0.53768530071E+03  0.29077063803E+04  0.30705818161E+04  0.65864270000E+03 0. -1.
    8880022    1    1    2    0    0 -0.50079996647E+03 -0.53768530071E+03 -0.25638375361E+03  0.79311434935E+03  0.15294330000E+03 0.  0.
<mgrwt>
<rscale>  0 0.92151926E+03</rscale>
<asrwt>0</asrwt>
<pdfrwt beam="1">  1        2 0.50115530E+00 0.98677064E+03</pdfrwt>
<pdfrwt beam="2">  1       -2 0.93259502E-01 0.98677064E+03</pdfrwt>
<totfact> 0.11904987E+00</totfact>
</mgrwt>
</event>
<event>
 4    1  0.6502538E-008  0.7032418E+03  0.7818608E-02  0.9984009E-01
          2   -1    0    0  501    0  0.00000000000E+00  0.00000000000E+00  0.17837372969E+04  0.17837372969E+04  0.25500000000E-02 0. -1.
         -2   -1    0    0    0  501 -0.00000000000E+00 -0.00000000000E+00 -0.31332709630E+03  0.31332709631E+03  0.25500000000E-02 0.  1.
    8880023    1    1    2    0    0  0.12477235071E+03 -0.21253409297E+03  0.16233732266E+04  0.17691494339E+04  0.65864270000E+03 0. -1.
    8880022    1    1    2    0    0 -0.12477235071E+03  0.21253409297E+03 -0.15296302607E+03  0.32791495930E+03  0.15294330000E+03 0.  0.
<mgrwt>
<rscale>  0 0.56356982E+03</rscale>
<asrwt>0</asrwt>
<pdfrwt beam="1">  1        2 0.27442112E+00 0.70324184E+03</pdfrwt>
<pdfrwt beam="2">  1       -2 0.48204168E-01 0.70324184E+03</pdfrwt>
<totfact> 0.37120046E+01</totfact>
</mgrwt>
</event>
<event>
 4    1  0.6502538E-008  0.8192343E+03  0.7818608E-02  0.9670654E-01
         -2   -1    0    0    0  501 -0.00000000000E+00  0.00000000000E+00  0.48386813858E+03  0.48386813859E+03  0.25500000000E-02 0.  1.
          2   -1    0    0  501    0  0.00000000000E+00 -0.00000000000E+00 -0.19322351861E+04  0.19322351861E+04  0.25500000000E-02 0. -1.
    8880023    1    1    2    0    0 -0.47249436367E+03 -0.11867446332E+03 -0.16694939705E+04  0.18596652590E+04  0.65864270000E+03 0.  0.
    8880022    1    1    2    0    0  0.47249436367E+03  0.11867446332E+03  0.22112692289E+03  0.55643806572E+03  0.15294330000E+03 0.  0.
<mgrwt>
<rscale>  0 0.72791247E+03</rscale>
<asrwt>0</asrwt>
<pdfrwt beam="1">  1        2 0.29726695E+00 0.81923425E+03</pdfrwt>
<pdfrwt beam="2">  1       -2 0.74441253E-01 0.81923425E+03</pdfrwt>
<totfact> 0.12109745E+01</totfact>
</mgrwt>
</event>
<event>
 4    1  0.6502538E-008  0.6984401E+03  0.7818608E-02  0.1000373E+00
          2   -1    0    0  501    0  0.00000000000E+00  0.00000000000E+00  0.24339290727E+04  0.24339290727E+04  0.25500000000E-02 0. -1.
         -2   -1    0    0    0  501 -0.00000000000E+00 -0.00000000000E+00 -0.50778983328E+03  0.50778983329E+03  0.25500000000E-02 0.  1.
    8880023    1    1    2    0    0  0.14974131465E+03 -0.17772432578E+03  0.23405752247E+04  0.24425623812E+04  0.65864270000E+03 0. -1.
    8880022    1    1    2    0    0 -0.14974131465E+03  0.17772432578E+03 -0.41443598531E+03  0.49915652477E+03  0.15294330000E+03 0.  0.
<mgrwt>
<rscale>  0 0.55486782E+03</rscale>
<asrwt>0</asrwt>
<pdfrwt beam="1">  1        2 0.37445062E+00 0.69844012E+03</pdfrwt>
<pdfrwt beam="2">  1       -2 0.78121513E-01 0.69844012E+03</pdfrwt>
<totfact> 0.58608859E+00</totfact>
</mgrwt>
</event>
<event>
 4    1  0.6502538E-008  0.8021715E+03  0.7818608E-02  0.9706120E-01
         -2   -1    0    0    0  501 -0.00000000000E+00  0.00000000000E+00  0.51431019597E+03  0.51431019597E+03  0.25500000000E-02 0.  1.
          2   -1    0    0  501    0  0.00000000000E+00 -0.00000000000E+00 -0.32141268167E+04  0.32141268167E+04  0.25500000000E-02 0. -1.
    8880023    1    1    2    0    0 -0.44522725090E+03 -0.10696552794E+03 -0.30359768443E+04  0.31401647305E+04  0.65864270000E+03 0. -1.
    8880022    1    1    2    0    0  0.44522725090E+03  0.10696552794E+03  0.33616022355E+03  0.58827228222E+03  0.15294330000E+03 0.  0.
<mgrwt>
<rscale>  0 0.70653557E+03</rscale>
<asrwt>0</asrwt>
<pdfrwt beam="1">  1        2 0.49448104E+00 0.80217151E+03</pdfrwt>
<pdfrwt beam="2">  1       -2 0.79124648E-01 0.80217151E+03</pdfrwt>
<totfact> 0.19139826E+00</totfact>
</mgrwt>
</event>
<event>
 4    1  0.6502538E-008  0.1786929E+04  0.7818608E-02  0.8729802E-01
          2   -1    0    0  501    0  0.00000000000E+00  0.00000000000E+00  0.19852090427E+04  0.19852090427E+04  0.25500000000E-02 0. -1.
         -2   -1    0    0    0  501 -0.00000000000E+00 -0.00000000000E+00 -0.18393926801E+04  0.18393926801E+04  0.25500000000E-02 0.  1.
    8880023    1    1    2    0    0 -0.15603666156E+04 -0.56970197003E+03  0.89198012721E+03  0.19971837831E+04  0.65864270000E+03 0.  0.
    8880022    1    1    2    0    0  0.15603666156E+04  0.56970197003E+03 -0.74616376458E+03  0.18274179397E+04  0.15294330000E+03 0.  0.
<mgrwt>
<rscale>  0 0.17564616E+04</rscale>
<asrwt>0</asrwt>
<pdfrwt beam="1">  1        2 0.30541677E+00 0.17869288E+04</pdfrwt>
<pdfrwt beam="2">  1       -2 0.28298349E+00 0.17869288E+04</pdfrwt>
<totfact> 0.25013542E-01</totfact>
</mgrwt>
</event>
<event>
 4    1  0.6502538E-008  0.7219482E+03  0.7818608E-02  0.9916048E-01
         -2   -1    0    0    0  501 -0.00000000000E+00  0.00000000000E+00  0.46016220513E+03  0.46016220513E+03  0.25500000000E-02 0.  1.
          2   -1    0    0  501    0  0.00000000000E+00 -0.00000000000E+00 -0.18592047808E+04  0.18592047808E+04  0.25500000000E-02 0. -1.
    8880023    1    1    2    0    0 -0.16551472844E+03  0.24495685905E+03 -0.17147962759E+04  0.18605739604E+04  0.65864270000E+03 0.  0.
    8880022    1    1    2    0    0  0.16551472844E+03 -0.24495685905E+03  0.31575370017E+03  0.45879302557E+03  0.15294330000E+03 0.  0.
<mgrwt>
<rscale>  0 0.59489786E+03</rscale>
<asrwt>0</asrwt>
<pdfrwt beam="1">  1        2 0.28603150E+00 0.72194819E+03</pdfrwt>
<pdfrwt beam="2">  1       -2 0.70794186E-01 0.72194819E+03</pdfrwt>
<totfact> 0.15025913E+01</totfact>
</mgrwt>
</event>
<event>
 4    1  0.6502538E-008  0.1253579E+04  0.7818608E-02  0.9106721E-01
         -2   -1    0    0    0  501 -0.00000000000E+00  0.00000000000E+00  0.25193454699E+04  0.25193454699E+04  0.25500000000E-02 0.  1.
          2   -1    0    0  501    0  0.00000000000E+00 -0.00000000000E+00 -0.17707515347E+04  0.17707515347E+04  0.25500000000E-02 0. -1.
    8880023    1    1    2    0    0  0.34020156385E+03  0.10108971570E+04 -0.14044135432E+04  0.18825083725E+04  0.65864270000E+03 0.  0.
    8880022    1    1    2    0    0 -0.34020156385E+03 -0.10108971570E+04  0.21530074784E+04  0.24075886320E+04  0.15294330000E+03 0.  0.
<mgrwt>
<rscale>  0 0.12070347E+04</rscale>
<asrwt>0</asrwt>
<pdfrwt beam="1">  1        2 0.27242331E+00 0.12535790E+04</pdfrwt>
<pdfrwt beam="2">  1       -2 0.38759161E+00 0.12535790E+04</pdfrwt>
<totfact> 0.78053147E-02</totfact>
</mgrwt>
</event>
<event>
 4    1  0.6502538E-008  0.1229353E+04  0.7818608E-02  0.9129104E-01
         -2   -1    0    0    0  501 -0.00000000000E+00  0.00000000000E+00  0.13366967071E+04  0.13366967072E+04  0.25500000000E-02 0.  1.
          2   -1    0    0  501    0  0.00000000000E+00 -0.00000000000E+00 -0.18007507251E+04  0.18007507251E+04  0.25500000000E-02 0. -1.
    8880023    1    1    2    0    0  0.54808166055E+03  0.88153628683E+03 -0.13049568224E+04  0.17928252135E+04  0.65864270000E+03 0.  0.
    8880022    1    1    2    0    0 -0.54808166055E+03 -0.88153628683E+03  0.84090280444E+03  0.13446222187E+04  0.15294330000E+03 0.  0.
<mgrwt>
<rscale>  0 0.11816140E+04</rscale>
<asrwt>0</asrwt>
<pdfrwt beam="1">  1        2 0.27703857E+00 0.12293535E+04</pdfrwt>
<pdfrwt beam="2">  1       -2 0.20564565E+00 0.12293535E+04</pdfrwt>
<totfact> 0.10185261E+00</totfact>
</mgrwt>
</event>
<event>
 4    1  0.6502538E-008  0.8652009E+03  0.7818608E-02  0.9584378E-01
         -2   -1    0    0    0  501 -0.00000000000E+00  0.00000000000E+00  0.67829724706E+03  0.67829724706E+03  0.25500000000E-02 0.  1.
          2   -1    0    0  501    0  0.00000000000E+00 -0.00000000000E+00 -0.24422998933E+04  0.24422998933E+04  0.25500000000E-02 0. -1.
    8880023    1    1    2    0    0  0.33890215924E+03  0.44711042015E+03 -0.22193412192E+04  0.23820260399E+04  0.65864270000E+03 0. -1.
    8880022    1    1    2    0    0 -0.33890215924E+03 -0.44711042015E+03  0.45533857297E+03  0.73857110043E+03  0.15294330000E+03 0.  0.
<mgrwt>
<rscale>  0 0.78338824E+03</rscale>
<asrwt>0</asrwt>
<pdfrwt beam="1">  1        2 0.37573844E+00 0.86520091E+03</pdfrwt>
<pdfrwt beam="2">  1       -2 0.10435342E+00 0.86520091E+03</pdfrwt>
<totfact> 0.28821691E+00</totfact>
</mgrwt>
</event>
<event>
 4    1  0.6502538E-008  0.7357544E+03  0.7818608E-02  0.9872491E-01
         -2   -1    0    0    0  501 -0.00000000000E+00  0.00000000000E+00  0.86898820813E+02  0.86898820851E+02  0.25500000000E-02 0.  1.
          2   -1    0    0  501    0  0.00000000000E+00 -0.00000000000E+00 -0.40733979556E+04  0.40733979556E+04  0.25500000000E-02 0. -1.
    8880023    1    1    2    0    0  0.91752514846E+02  0.31481081169E+03 -0.33337440812E+04  0.34139689771E+04  0.65864270000E+03 0.  0.
    8880022    1    1    2    0    0 -0.91752514846E+02 -0.31481081169E+03 -0.65275505353E+03  0.74632779933E+03  0.15294330000E+03 0.  0.
<mgrwt>
<rscale>  0 0.61613200E+03</rscale>
<asrwt>0</asrwt>
<pdfrwt beam="1">  1        2 0.62667646E+00 0.73575443E+03</pdfrwt>
<pdfrwt beam="2">  1       -2 0.13369053E-01 0.73575443E+03</pdfrwt>
<totfact> 0.14035138E+01</totfact>
</mgrwt>
</event>
<event>
 4    1  0.6502538E-008  0.8182079E+03  0.7818608E-02  0.9672727E-01
         -2   -1    0    0    0  501 -0.00000000000E+00  0.00000000000E+00  0.72484449920E+03  0.72484449920E+03  0.25500000000E-02 0.  1.
          2   -1    0    0  501    0  0.00000000000E+00 -0.00000000000E+00 -0.14774465855E+04  0.14774465855E+04  0.25500000000E-02 0. -1.
    8880023    1    1    2    0    0  0.42379864861E+02  0.48358858353E+03 -0.12478248098E+04  0.14921564708E+04  0.65864270000E+03 0. -1.
    8880022    1    1    2    0    0 -0.42379864861E+02 -0.48358858353E+03  0.49522272348E+03  0.71013461395E+03  0.15294330000E+03 0.  0.
<mgrwt>
<rscale>  0 0.72664081E+03</rscale>
<asrwt>0</asrwt>
<pdfrwt beam="1">  1        2 0.22729947E+00 0.81820791E+03</pdfrwt>
<pdfrwt beam="2">  1       -2 0.11151454E+00 0.81820791E+03</pdfrwt>
<totfact> 0.84352034E+00</totfact>
</mgrwt>
</event>
<event>
 4    1  0.6502538E-008  0.7971657E+03  0.7818608E-02  0.9716958E-01
          2   -1    0    0  501    0  0.00000000000E+00  0.00000000000E+00  0.20049684056E+04  0.20049684056E+04  0.25500000000E-02 0. -1.
         -2   -1    0    0    0  501 -0.00000000000E+00 -0.00000000000E+00 -0.34030395735E+03  0.34030395736E+03  0.25500000000E-02 0.  1.
    8880023    1    1    2    0    0  0.33768570387E+03 -0.29602597698E+03  0.16916901123E+04  0.18701039158E+04  0.65864270000E+03 0.  1.
    8880022    1    1    2    0    0 -0.33768570387E+03  0.29602597698E+03 -0.27025664029E+02  0.47516844716E+03  0.15294330000E+03 0.  0.
<mgrwt>
<rscale>  0 0.70016029E+03</rscale>
<asrwt>0</asrwt>
<pdfrwt beam="1">  1        2 0.30845667E+00 0.79716574E+03</pdfrwt>
<pdfrwt beam="2">  1       -2 0.52354456E-01 0.79716574E+03</pdfrwt>
<totfact> 0.23481625E+01</totfact>
</mgrwt>
</event>
<event>
 4    1  0.6502538E-008  0.6660468E+03  0.7818608E-02  0.1018671E+00
          2   -1    0    0  501    0  0.00000000000E+00  0.00000000000E+00  0.25988264816E+03  0.25988264818E+03  0.25500000000E-02 0. -1.
         -2   -1    0    0    0  501 -0.00000000000E+00 -0.00000000000E+00 -0.16359235862E+04  0.16359235862E+04  0.25500000000E-02 0.  1.
    8880023    1    1    2    0    0 -0.63024011551E+02 -0.76394540585E+02 -0.18549067900E+03  0.69139362893E+03  0.65864270000E+03 0.  0.
    8880022    1    1    2    0    0  0.63024011551E+02  0.76394540585E+02 -0.11905502590E+04  0.12044126054E+04  0.15294330000E+03 0.  1.
<mgrwt>
<rscale>  0 0.48169319E+03</rscale>
<asrwt>0</asrwt>
<pdfrwt beam="1">  1        2 0.39981947E-01 0.66604681E+03</pdfrwt>
<pdfrwt beam="2">  1       -2 0.25168055E+00 0.66604681E+03</pdfrwt>
<totfact> 0.83868427E+00</totfact>
</mgrwt>
</event>
<event>
 4    1  0.6502538E-008  0.9123868E+03  0.7818608E-02  0.9506432E-01
          2   -1    0    0  501    0  0.00000000000E+00  0.00000000000E+00  0.94387481413E+03  0.94387481414E+03  0.25500000000E-02 0. -1.
         -2   -1    0    0    0  501 -0.00000000000E+00 -0.00000000000E+00 -0.88089337442E+03  0.88089337443E+03  0.25500000000E-02 0.  1.
    8880023    1    1    2    0    0 -0.61347957852E+03 -0.14927233189E+03  0.50135234236E+03  0.10410589800E+04  0.65864270000E+03 0.  1.
    8880022    1    1    2    0    0  0.61347957852E+03  0.14927233189E+03 -0.43837090265E+03  0.78370920859E+03  0.15294330000E+03 0.  1.
<mgrwt>
<rscale>  0 0.83811245E+03</rscale>
<asrwt>0</asrwt>
<pdfrwt beam="1">  1        2 0.14521151E+00 0.91238678E+03</pdfrwt>
<pdfrwt beam="2">  1       -2 0.13552206E+00 0.91238678E+03</pdfrwt>
<totfact> 0.10702360E+01</totfact>
</mgrwt>
</event>
<event>
 4    1  0.6502538E-008  0.9242717E+03  0.7818608E-02  0.9488140E-01
          2   -1    0    0  501    0  0.00000000000E+00  0.00000000000E+00  0.22294790133E+04  0.22294790133E+04  0.25500000000E-02 0. -1.
         -2   -1    0    0    0  501 -0.00000000000E+00 -0.00000000000E+00 -0.32826618522E+03  0.32826618523E+03  0.25500000000E-02 0.  1.
    8880023    1    1    2    0    0  0.51527283163E+02 -0.64638454046E+03  0.15498905647E+04  0.18045606124E+04  0.65864270000E+03 0. -1.
    8880022    1    1    2    0    0 -0.51527283163E+02  0.64638454046E+03  0.35132226348E+03  0.75318458620E+03  0.15294330000E+03 0.  0.
<mgrwt>
<rscale>  0 0.85163885E+03</rscale>
<asrwt>0</asrwt>
<pdfrwt beam="1">  1        2 0.34299677E+00 0.92427174E+03</pdfrwt>
<pdfrwt beam="2">  1       -2 0.50502491E-01 0.92427174E+03</pdfrwt>
<totfact> 0.18722051E+01</totfact>
</mgrwt>
</event>
<event>
 4    1  0.6502538E-008  0.6735145E+03  0.7818608E-02  0.1013259E+00
          2   -1    0    0  501    0  0.00000000000E+00  0.00000000000E+00  0.78726760185E+03  0.78726760185E+03  0.25500000000E-02 0. -1.
         -2   -1    0    0    0  501 -0.00000000000E+00 -0.00000000000E+00 -0.59684893678E+03  0.59684893679E+03  0.25500000000E-02 0.  1.
    8880023    1    1    2    0    0  0.13408095288E+03 -0.42823892798E+02  0.61457471388E+03  0.91176963808E+03  0.65864270000E+03 0. -1.
    8880022    1    1    2    0    0 -0.13408095288E+03  0.42823892798E+02 -0.42415604881E+03  0.47234690057E+03  0.15294330000E+03 0.  0.
<mgrwt>
<rscale>  0 0.50199542E+03</rscale>
<asrwt>0</asrwt>
<pdfrwt beam="1">  1        2 0.12111809E+00 0.67351451E+03</pdfrwt>
<pdfrwt beam="2">  1       -2 0.91822913E-01 0.67351451E+03</pdfrwt>
<totfact> 0.36241440E+01</totfact>
</mgrwt>
</event>
<event>
 4    1  0.6502538E-008  0.1404263E+04  0.7818608E-02  0.8980377E-01
         -2   -1    0    0    0  501 -0.00000000000E+00  0.00000000000E+00  0.14706316767E+04  0.14706316767E+04  0.25500000000E-02 0.  1.
          2   -1    0    0  501    0  0.00000000000E+00 -0.00000000000E+00 -0.13250599136E+04  0.13250599136E+04  0.25500000000E-02 0. -1.
    8880023    1    1    2    0    0  0.11142534541E+03 -0.12352039643E+04 -0.35678853881E+03  0.14488798117E+04  0.65864270000E+03 0.  0.
    8880022    1    1    2    0    0 -0.11142534541E+03  0.12352039643E+04  0.50236030196E+03  0.13468117786E+04  0.15294330000E+03 0.  0.
<mgrwt>
<rscale>  0 0.13638932E+04</rscale>
<asrwt>0</asrwt>
<pdfrwt beam="1">  1        2 0.20385537E+00 0.14042630E+04</pdfrwt>
<pdfrwt beam="2">  1       -2 0.22625103E+00 0.14042630E+04</pdfrwt>
<totfact> 0.13721817E+00</totfact>
</mgrwt>
</event>
<event>
 4    1  0.6502538E-008  0.1183836E+04  0.7818608E-02  0.9172997E-01
          2   -1    0    0  501    0  0.00000000000E+00  0.00000000000E+00  0.29886575888E+04  0.29886575888E+04  0.25500000000E-02 0. -1.
         -2   -1    0    0    0  501 -0.00000000000E+00 -0.00000000000E+00 -0.71510574892E+03  0.71510574893E+03  0.25500000000E-02 0.  1.
    8880023    1    1    2    0    0 -0.16493453629E+03 -0.96977021620E+03  0.24233393556E+04  0.26970431054E+04  0.65864270000E+03 0. -1.
    8880022    1    1    2    0    0  0.16493453629E+03  0.96977021620E+03 -0.14978751568E+03  0.10067202324E+04  0.15294330000E+03 0.  0.
<mgrwt>
<rscale>  0 0.11336542E+04</rscale>
<asrwt>0</asrwt>
<pdfrwt beam="1">  1        2 0.45979347E+00 0.11838361E+04</pdfrwt>
<pdfrwt beam="2">  1       -2 0.11001627E+00 0.11838361E+04</pdfrwt>
<totfact> 0.11521674E+00</totfact>
</mgrwt>
</event>
<event>
 4    1  0.6502538E-008  0.6619758E+03  0.7818608E-02  0.1022218E+00
         -2   -1    0    0    0  501 -0.00000000000E+00  0.00000000000E+00  0.11196934660E+03  0.11196934663E+03  0.25500000000E-02 0.  1.
          2   -1    0    0  501    0  0.00000000000E+00 -0.00000000000E+00 -0.23553578043E+04  0.23553578043E+04  0.25500000000E-02 0. -1.
    8880023    1    1    2    0    0  0.43811153519E+02 -0.49823393905E+02 -0.21965882700E+04  0.22941691354E+04  0.65864270000E+03 0. -1.
    8880022    1    1    2    0    0 -0.43811153519E+02  0.49823393905E+02 -0.46800187700E+02  0.17315801551E+03  0.15294330000E+03 0.  0.
<mgrwt>
<rscale>  0 0.46894767E+03</rscale>
<asrwt>0</asrwt>
<pdfrwt beam="1">  1        2 0.36236270E+00 0.66197583E+03</pdfrwt>
<pdfrwt beam="2">  1       -2 0.17226055E-01 0.66197583E+03</pdfrwt>
<totfact> 0.12183882E+02</totfact>
</mgrwt>
</event>
<event>
 4    1  0.6502538E-008  0.7664829E+03  0.7818608E-02  0.9788604E-01
          2   -1    0    0  501    0  0.00000000000E+00  0.00000000000E+00  0.11562844794E+04  0.11562844794E+04  0.25500000000E-02 0. -1.
         -2   -1    0    0    0  501 -0.00000000000E+00 -0.00000000000E+00 -0.37034487428E+03  0.37034487429E+03  0.25500000000E-02 0.  1.
    8880023    1    1    2    0    0 -0.39122664987E+03 -0.25051937206E+02  0.17736417630E+03  0.78673639068E+03  0.65864270000E+03 0.  1.
    8880022    1    1    2    0    0  0.39122664987E+03  0.25051937206E+02  0.60857542880E+03  0.73989296299E+03  0.15294330000E+03 0.  0.
<mgrwt>
<rscale>  0 0.65977720E+03</rscale>
<asrwt>0</asrwt>
<pdfrwt beam="1">  1        2 0.17788992E+00 0.76648294E+03</pdfrwt>
<pdfrwt beam="2">  1       -2 0.56976134E-01 0.76648294E+03</pdfrwt>
<totfact> 0.59007345E+01</totfact>
</mgrwt>
</event>
<event>
 4    1  0.6502538E-008  0.8009068E+03  0.7818608E-02  0.9708839E-01
         -2   -1    0    0    0  501 -0.00000000000E+00  0.00000000000E+00  0.81170680903E+03  0.81170680903E+03  0.25500000000E-02 0.  1.
          2   -1    0    0  501    0  0.00000000000E+00 -0.00000000000E+00 -0.10863624010E+04  0.10863624010E+04  0.25500000000E-02 0. -1.
    8880023    1    1    2    0    0  0.42545631854E+02 -0.45368645594E+03 -0.83689194971E+03  0.11583781217E+04  0.65864270000E+03 0. -1.
    8880022    1    1    2    0    0 -0.42545631854E+02  0.45368645594E+03  0.56223635777E+03  0.73969108830E+03  0.15294330000E+03 0.  0.
<mgrwt>
<rscale>  0 0.70492967E+03</rscale>
<asrwt>0</asrwt>
<pdfrwt beam="1">  1        2 0.16713268E+00 0.80090682E+03</pdfrwt>
<pdfrwt beam="2">  1       -2 0.12487797E+00 0.80090682E+03</pdfrwt>
<totfact> 0.10808445E+01</totfact>
</mgrwt>
</event>
<event>
 4    1  0.6502538E-008  0.1427195E+04  0.7818608E-02  0.8962835E-01
         -2   -1    0    0    0  501 -0.00000000000E+00  0.00000000000E+00  0.84150564700E+03  0.84150564700E+03  0.25500000000E-02 0.  1.
          2   -1    0    0  501    0  0.00000000000E+00 -0.00000000000E+00 -0.25171397997E+04  0.25171397997E+04  0.25500000000E-02 0. -1.
    8880023    1    1    2    0    0 -0.47707974400E+03  0.11728039752E+04 -0.15013578313E+04  0.20714632003E+04  0.65864270000E+03 0.  0.
    8880022    1    1    2    0    0  0.47707974400E+03 -0.11728039752E+04 -0.17427632139E+03  0.12871822464E+04  0.15294330000E+03 0.  0.
<mgrwt>
<rscale>  0 0.13876119E+04</rscale>
<asrwt>0</asrwt>
<pdfrwt beam="1">  1        2 0.38725227E+00 0.14271946E+04</pdfrwt>
<pdfrwt beam="2">  1       -2 0.12946241E+00 0.14271946E+04</pdfrwt>
<totfact> 0.14261780E+00</totfact>
</mgrwt>
</event>
<event>
 4    1  0.6502538E-008  0.7025976E+03  0.7818608E-02  0.9986591E-01
          2   -1    0    0  501    0  0.00000000000E+00  0.00000000000E+00  0.87559923086E+03  0.87559923087E+03  0.25500000000E-02 0. -1.
         -2   -1    0    0    0  501 -0.00000000000E+00 -0.00000000000E+00 -0.58465396408E+03  0.58465396408E+03  0.25500000000E-02 0.  1.
    8880023    1    1    2    0    0  0.72449137590E+02  0.23363273567E+03  0.67875513205E+03  0.97690934496E+03  0.65864270000E+03 0. -1.
    8880022    1    1    2    0    0 -0.72449137590E+02 -0.23363273567E+03 -0.38780986526E+03  0.48334384999E+03  0.15294330000E+03 0.  0.
<mgrwt>
<rscale>  0 0.56242105E+03</rscale>
<asrwt>0</asrwt>
<pdfrwt beam="1">  1        2 0.13470757E+00 0.70259757E+03</pdfrwt>
<pdfrwt beam="2">  1       -2 0.89946764E-01 0.70259757E+03</pdfrwt>
<totfact> 0.32863739E+01</totfact>
</mgrwt>
</event>
<event>
 4    1  0.6502538E-008  0.6754677E+03  0.7818608E-02  0.1012013E+00
         -2   -1    0    0    0  501 -0.00000000000E+00  0.00000000000E+00  0.20528585287E+03  0.20528585289E+03  0.25500000000E-02 0.  1.
          2   -1    0    0  501    0  0.00000000000E+00 -0.00000000000E+00 -0.46418573023E+04  0.46418573023E+04  0.25500000000E-02 0. -1.
    8880023    1    1    2    0    0  0.11722585635E+03 -0.93297976747E+02 -0.45534106356E+04  0.46032385379E+04  0.65864270000E+03 0. -1.
    8880022    1    1    2    0    0 -0.11722585635E+03  0.93297976747E+02  0.11683918624E+03  0.24390461726E+03  0.15294330000E+03 0.  0.
<mgrwt>
<rscale>  0 0.50682348E+03</rscale>
<asrwt>0</asrwt>
<pdfrwt beam="1">  1        2 0.71413181E+00 0.67546770E+03</pdfrwt>
<pdfrwt beam="2">  1       -2 0.31582442E-01 0.67546770E+03</pdfrwt>
<totfact> 0.96497001E-01</totfact>
</mgrwt>
</event>
<event>
 4    1  0.6905748E-008  0.1319556E+04  0.7818608E-02  0.9048853E-01
         -2   -1    0    0    0  501 -0.00000000000E+00  0.00000000000E+00  0.21441919038E+04  0.21441919038E+04  0.25500000000E-02 0.  1.
          2   -1    0    0  501    0  0.00000000000E+00 -0.00000000000E+00 -0.19592985518E+04  0.19592985518E+04  0.25500000000E-02 0. -1.
    8880023    1    1    2    0    0 -0.57201669401E+03 -0.99005822825E+03 -0.15402344512E+04  0.20281890357E+04  0.65864270000E+03 0.  0.
    8880022    1    1    2    0    0  0.57201669401E+03  0.99005822825E+03  0.17251278032E+04  0.20753014200E+04  0.15294330000E+03 0.  0.
<mgrwt>
<rscale>  0 0.12759552E+04</rscale>
<asrwt>0</asrwt>
<pdfrwt beam="1">  1        2 0.30143055E+00 0.13195562E+04</pdfrwt>
<pdfrwt beam="2">  1       -2 0.32987568E+00 0.13195562E+04</pdfrwt>
<totfact> 0.14080111E-01</totfact>
</mgrwt>
</event>
<event>
 4    1  0.6502538E-008  0.7400116E+03  0.7818608E-02  0.9859913E-01
          2   -1    0    0  501    0  0.00000000000E+00  0.00000000000E+00  0.31509300326E+03  0.31509300327E+03  0.25500000000E-02 0. -1.
         -2   -1    0    0    0  501 -0.00000000000E+00 -0.00000000000E+00 -0.18279173037E+04  0.18279173037E+04  0.25500000000E-02 0.  1.
    8880023    1    1    2    0    0 -0.33487962991E+03  0.40775682560E+02 -0.18263925402E+03  0.76221671865E+03  0.65864270000E+03 0. -1.
    8880022    1    1    2    0    0  0.33487962991E+03 -0.40775682560E+02 -0.13301850465E+04  0.13807935884E+04  0.15294330000E+03 0.  0.
<mgrwt>
<rscale>  0 0.62244023E+03</rscale>
<asrwt>0</asrwt>
<pdfrwt beam="1">  1        2 0.48475848E-01 0.74001164E+03</pdfrwt>
<pdfrwt beam="2">  1       -2 0.28121804E+00 0.74001164E+03</pdfrwt>
<totfact> 0.44590297E+00</totfact>
</mgrwt>
</event>
<event>
 4    1  0.6502538E-008  0.7245507E+03  0.7818608E-02  0.9907478E-01
          2   -1    0    0  501    0  0.00000000000E+00  0.00000000000E+00  0.81425574718E+03  0.81425574719E+03  0.25500000000E-02 0. -1.
         -2   -1    0    0    0  501 -0.00000000000E+00 -0.00000000000E+00 -0.21419138924E+04  0.21419138924E+04  0.25500000000E-02 0.  1.
    8880023    1    1    2    0    0 -0.25808133185E+03 -0.15670825763E+03  0.63567545777E+03  0.96387600122E+03  0.65864270000E+03 0.  0.
    8880022    1    1    2    0    0  0.25808133185E+03  0.15670825763E+03 -0.19633336030E+04  0.19922936384E+04  0.15294330000E+03 0.  0.
<mgrwt>
<rscale>  0 0.59900214E+03</rscale>
<asrwt>0</asrwt>
<pdfrwt beam="1">  1        2 0.12527012E+00 0.72455066E+03</pdfrwt>
<pdfrwt beam="2">  1       -2 0.32952521E+00 0.72455066E+03</pdfrwt>
<totfact> 0.74324171E-01</totfact>
</mgrwt>
</event>
<event>
 4    1  0.6502538E-008  0.6936869E+03  0.7818608E-02  0.1002447E+00
         -2   -1    0    0    0  501 -0.00000000000E+00  0.00000000000E+00  0.17579140815E+03  0.17579140817E+03  0.25500000000E-02 0.  1.
          2   -1    0    0  501    0  0.00000000000E+00 -0.00000000000E+00 -0.19323666192E+04  0.19323666192E+04  0.25500000000E-02 0. -1.
    8880023    1    1    2    0    0  0.19089478681E+03  0.10464448813E+03 -0.17001049922E+04  0.18361804049E+04  0.65864270000E+03 0.  0.
    8880022    1    1    2    0    0 -0.19089478681E+03 -0.10464448813E+03 -0.56470218902E+02  0.27197762254E+03  0.15294330000E+03 0.  0.
<mgrwt>
<rscale>  0 0.54590075E+03</rscale>
<asrwt>0</asrwt>
<pdfrwt beam="1">  1        2 0.29728716E+00 0.69368689E+03</pdfrwt>
<pdfrwt beam="2">  1       -2 0.27044833E-01 0.69368689E+03</pdfrwt>
<totfact> 0.93346863E+01</totfact>
</mgrwt>
</event>
<event>
 4    1  0.6502538E-008  0.9893957E+03  0.7818608E-02  0.9395565E-01
          2   -1    0    0  501    0  0.00000000000E+00  0.00000000000E+00  0.10564452587E+04  0.10564452587E+04  0.25500000000E-02 0. -1.
         -2   -1    0    0    0  501 -0.00000000000E+00 -0.00000000000E+00 -0.75303180471E+03  0.75303180472E+03  0.25500000000E-02 0.  1.
    8880023    1    1    2    0    0 -0.73454203582E+03  0.74441992063E+02  0.36124828535E+03  0.10532825559E+04  0.65864270000E+03 0.  0.
    8880022    1    1    2    0    0  0.73454203582E+03 -0.74441992063E+02 -0.57834831324E+02  0.75619450759E+03  0.15294330000E+03 0.  0.
<mgrwt>
<rscale>  0 0.92441591E+03</rscale>
<asrwt>0</asrwt>
<pdfrwt beam="1">  1        2 0.16253004E+00 0.98939568E+03</pdfrwt>
<pdfrwt beam="2">  1       -2 0.11585105E+00 0.98939568E+03</pdfrwt>
<totfact> 0.13345987E+01</totfact>
</mgrwt>
</event>
<event>
 4    1  0.6502538E-008  0.6700919E+03  0.7818608E-02  0.1015597E+00
          2   -1    0    0  501    0  0.00000000000E+00  0.00000000000E+00  0.89148896432E+03  0.89148896432E+03  0.25500000000E-02 0. -1.
         -2   -1    0    0    0  501 -0.00000000000E+00 -0.00000000000E+00 -0.17393005713E+04  0.17393005713E+04  0.25500000000E-02 0.  1.
    8880023    1    1    2    0    0 -0.10641497364E+03  0.62360154528E+02  0.75873334882E+03  0.10122743879E+04  0.65864270000E+03 0. -1.
    8880022    1    1    2    0    0  0.10641497364E+03 -0.62360154528E+02 -0.16065449558E+04  0.16185151477E+04  0.15294330000E+03 0.  0.
<mgrwt>
<rscale>  0 0.49309504E+03</rscale>
<asrwt>0</asrwt>
<pdfrwt beam="1">  1        2 0.13715215E+00 0.67009189E+03</pdfrwt>
<pdfrwt beam="2">  1       -2 0.26758470E+00 0.67009189E+03</pdfrwt>
<totfact> 0.15676036E+00</totfact>
</mgrwt>
</event>
<event>
 4    1  0.6502538E-008  0.9537299E+03  0.7818608E-02  0.9444768E-01
          2   -1    0    0  501    0  0.00000000000E+00  0.00000000000E+00  0.24078634675E+04  0.24078634675E+04  0.25500000000E-02 0. -1.
         -2   -1    0    0    0  501 -0.00000000000E+00 -0.00000000000E+00 -0.10142106413E+04  0.10142106413E+04  0.25500000000E-02 0.  1.
    8880023    1    1    2    0    0  0.87784079201E+02  0.68416699953E+03  0.21712224192E+04  0.23714568366E+04  0.65864270000E+03 0. -1.
    8880022    1    1    2    0    0 -0.87784079201E+02 -0.68416699953E+03 -0.77756959296E+03  0.10506172722E+04  0.15294330000E+03 0.  0.
<mgrwt>
<rscale>  0 0.88481288E+03</rscale>
<asrwt>0</asrwt>
<pdfrwt beam="1">  1        2 0.37044053E+00 0.95372991E+03</pdfrwt>
<pdfrwt beam="2">  1       -2 0.15603241E+00 0.95372991E+03</pdfrwt>
<totfact> 0.10730137E+00</totfact>
</mgrwt>
</event>
<event>
 4    1  0.6502538E-008  0.1310226E+04  0.7818608E-02  0.9056779E-01
          2   -1    0    0  501    0  0.00000000000E+00  0.00000000000E+00  0.27270636658E+04  0.27270636658E+04  0.25500000000E-02 0. -1.
         -2   -1    0    0    0  501 -0.00000000000E+00 -0.00000000000E+00 -0.90836593234E+03  0.90836593235E+03  0.25500000000E-02 0.  1.
    8880023    1    1    2    0    0 -0.24160951258E+03 -0.11065739835E+04  0.20844319654E+04  0.24620211132E+04  0.65864270000E+03 0.  0.
    8880022    1    1    2    0    0  0.24160951258E+03  0.11065739835E+04 -0.26573423190E+03  0.11734084849E+04  0.15294330000E+03 0.  0.
<mgrwt>
<rscale>  0 0.12662336E+04</rscale>
<asrwt>0</asrwt>
<pdfrwt beam="1">  1        2 0.41954825E+00 0.13102257E+04</pdfrwt>
<pdfrwt beam="2">  1       -2 0.13974861E+00 0.13102257E+04</pdfrwt>
<totfact> 0.89357123E-01</totfact>
</mgrwt>
</event>
<event>
 4    1  0.6502538E-008  0.8530505E+03  0.7818608E-02  0.9606047E-01
         -2   -1    0    0    0  501 -0.00000000000E+00  0.00000000000E+00  0.22403874962E+03  0.22403874963E+03  0.25500000000E-02 0.  1.
          2   -1    0    0  501    0  0.00000000000E+00 -0.00000000000E+00 -0.28354869465E+04  0.28354869465E+04  0.25500000000E-02 0. -1.
    8880023    1    1    2    0    0  0.31587154564E+03 -0.44057937667E+03 -0.22068978009E+04  0.23660289792E+04  0.65864270000E+03 0. -1.
    8880022    1    1    2    0    0 -0.31587154564E+03  0.44057937667E+03 -0.40455039597E+03  0.69349671693E+03  0.15294330000E+03 0.  0.
<mgrwt>
<rscale>  0 0.76897256E+03</rscale>
<asrwt>0</asrwt>
<pdfrwt beam="1">  1        2 0.43622874E+00 0.85305054E+03</pdfrwt>
<pdfrwt beam="2">  1       -2 0.34467502E-01 0.85305054E+03</pdfrwt>
<totfact> 0.18027264E+01</totfact>
</mgrwt>
</event>
<event>
 4    1  0.6502538E-008  0.1040721E+04  0.7818608E-02  0.9330121E-01
          2   -1    0    0  501    0  0.00000000000E+00  0.00000000000E+00  0.31673145500E+04  0.31673145500E+04  0.25500000000E-02 0. -1.
         -2   -1    0    0    0  501 -0.00000000000E+00 -0.00000000000E+00 -0.52841981613E+03  0.52841981614E+03  0.25500000000E-02 0.  1.
    8880023    1    1    2    0    0  0.13034022106E+03 -0.79517317666E+03  0.26795475927E+04  0.28745563939E+04  0.65864270000E+03 0.  0.
    8880022    1    1    2    0    0 -0.13034022106E+03  0.79517317666E+03 -0.40652858821E+02  0.82117797221E+03  0.15294330000E+03 0.  0.
<mgrwt>
<rscale>  0 0.98056570E+03</rscale>
<asrwt>0</asrwt>
<pdfrwt beam="1">  1        2 0.48727916E+00 0.10407205E+04</pdfrwt>
<pdfrwt beam="2">  1       -2 0.81295357E-01 0.10407205E+04</pdfrwt>
<totfact> 0.18498256E+00</totfact>
</mgrwt>
</event>
<event>
 4    1  0.6502538E-008  0.6807452E+03  0.7818608E-02  0.1008905E+00
         -2   -1    0    0    0  501 -0.00000000000E+00  0.00000000000E+00  0.43305724531E+03  0.43305724531E+03  0.25500000000E-02 0.  1.
          2   -1    0    0  501    0  0.00000000000E+00 -0.00000000000E+00 -0.51334942301E+03  0.51334942301E+03  0.25500000000E-02 0. -1.
    8880023    1    1    2    0    0 -0.75170904909E+02 -0.15476795499E+03 -0.16611868384E+03  0.70072063493E+03  0.65864270000E+03 0.  0.
    8880022    1    1    2    0    0  0.75170904909E+02  0.15476795499E+03  0.85826506137E+02  0.24568603340E+03  0.15294330000E+03 0.  0.
<mgrwt>
<rscale>  0 0.51912057E+03</rscale>
<asrwt>0</asrwt>
<pdfrwt beam="1">  1        2 0.78976834E-01 0.68074517E+03</pdfrwt>
<pdfrwt beam="2">  1       -2 0.66624192E-01 0.68074517E+03</pdfrwt>
<totfact> 0.12537353E+02</totfact>
</mgrwt>
</event>
<event>
 4    1  0.6502538E-008  0.8694939E+03  0.7818608E-02  0.9576894E-01
          2   -1    0    0  501    0  0.00000000000E+00  0.00000000000E+00  0.18484223782E+04  0.18484223782E+04  0.25500000000E-02 0. -1.
         -2   -1    0    0    0  501 -0.00000000000E+00 -0.00000000000E+00 -0.10077038749E+04  0.10077038749E+04  0.25500000000E-02 0.  1.
    8880023    1    1    2    0    0 -0.23686354473E+03 -0.51585376625E+03  0.16445514778E+04  0.18602605238E+04  0.65864270000E+03 0.  0.
    8880022    1    1    2    0    0  0.23686354473E+03  0.51585376625E+03 -0.80383297453E+03  0.99586572937E+03  0.15294330000E+03 0.  0.
<mgrwt>
<rscale>  0 0.78844571E+03</rscale>
<asrwt>0</asrwt>
<pdfrwt beam="1">  1        2 0.28437267E+00 0.86949391E+03</pdfrwt>
<pdfrwt beam="2">  1       -2 0.15503137E+00 0.86949391E+03</pdfrwt>
<totfact> 0.22573245E+00</totfact>
</mgrwt>
</event>
<event>
 4    1  0.6502538E-008  0.1150915E+04  0.7818608E-02  0.9206379E-01
          2   -1    0    0  501    0  0.00000000000E+00  0.00000000000E+00  0.10778848615E+04  0.10778848615E+04  0.25500000000E-02 0. -1.
         -2   -1    0    0    0  501 -0.00000000000E+00 -0.00000000000E+00 -0.15517020105E+04  0.15517020105E+04  0.25500000000E-02 0.  1.
    8880023    1    1    2    0    0 -0.86402301624E+03  0.37981420429E+03  0.50897139939E+03  0.12584342232E+04  0.65864270000E+03 0.  0.
    8880022    1    1    2    0    0  0.86402301624E+03 -0.37981420429E+03 -0.98278854845E+03  0.13711526488E+04  0.15294330000E+03 0.  0.
<mgrwt>
<rscale>  0 0.10987824E+04</rscale>
<asrwt>0</asrwt>
<pdfrwt beam="1">  1        2 0.16582844E+00 0.11509148E+04</pdfrwt>
<pdfrwt beam="2">  1       -2 0.23872339E+00 0.11509148E+04</pdfrwt>
<totfact> 0.16589913E+00</totfact>
</mgrwt>
</event>
<event>
 4    1  0.6502538E-008  0.8364804E+03  0.7818608E-02  0.9636853E-01
         -2   -1    0    0    0  501 -0.00000000000E+00  0.00000000000E+00  0.56297218450E+03  0.56297218451E+03  0.25500000000E-02 0.  1.
          2   -1    0    0  501    0  0.00000000000E+00 -0.00000000000E+00 -0.16781250855E+04  0.16781250855E+04  0.25500000000E-02 0. -1.
    8880023    1    1    2    0    0  0.46642148114E+03  0.21986425530E+03 -0.14012192304E+04  0.16319052750E+04  0.65864270000E+03 0.  0.
    8880022    1    1    2    0    0 -0.46642148114E+03 -0.21986425530E+03  0.28606632943E+03  0.60919199492E+03  0.15294330000E+03 0.  0.
<mgrwt>
<rscale>  0 0.74904311E+03</rscale>
<asrwt>0</asrwt>
<pdfrwt beam="1">  1        2 0.25817309E+00 0.83648042E+03</pdfrwt>
<pdfrwt beam="2">  1       -2 0.86611106E-01 0.83648042E+03</pdfrwt>
<totfact> 0.11833949E+01</totfact>
</mgrwt>
</event>
<event>
 4    1  0.6502538E-008  0.1318093E+04  0.7818608E-02  0.9050091E-01
         -2   -1    0    0    0  501 -0.00000000000E+00  0.00000000000E+00  0.58500490251E+03  0.58500490251E+03  0.25500000000E-02 0.  1.
          2   -1    0    0  501    0  0.00000000000E+00 -0.00000000000E+00 -0.30664614269E+04  0.30664614269E+04  0.25500000000E-02 0. -1.
    8880023    1    1    2    0    0  0.56639045643E+03 -0.99134307891E+03 -0.20168487290E+04  0.24093667739E+04  0.65864270000E+03 0. -1.
    8880022    1    1    2    0    0 -0.56639045643E+03  0.99134307891E+03 -0.46460779539E+03  0.12420995555E+04  0.15294330000E+03 0.  0.
<mgrwt>
<rscale>  0 0.12744313E+04</rscale>
<asrwt>0</asrwt>
<pdfrwt beam="1">  1        2 0.47176329E+00 0.13180931E+04</pdfrwt>
<pdfrwt beam="2">  1       -2 0.90000756E-01 0.13180931E+04</pdfrwt>
<totfact> 0.16350105E+00</totfact>
</mgrwt>
</event>
<event>
 4    1  0.6502538E-008  0.1081202E+04  0.7818608E-02  0.9282280E-01
         -2   -1    0    0    0  501 -0.00000000000E+00  0.00000000000E+00  0.67134339927E+03  0.67134339927E+03  0.25500000000E-02 0.  1.
          2   -1    0    0  501    0  0.00000000000E+00 -0.00000000000E+00 -0.21355014334E+04  0.21355014334E+04  0.25500000000E-02 0. -1.
    8880023    1    1    2    0    0 -0.89797016607E+02  0.85271528764E+03 -0.15941670238E+04  0.19262309239E+04  0.65864270000E+03 0.  0.
    8880022    1    1    2    0    0  0.89797016607E+02 -0.85271528764E+03  0.13000898969E+03  0.88061390880E+03  0.15294330000E+03 0.  0.
<mgrwt>
<rscale>  0 0.10243069E+04</rscale>
<asrwt>0</asrwt>
<pdfrwt beam="1">  1        2 0.32853868E+00 0.10812017E+04</pdfrwt>
<pdfrwt beam="2">  1       -2 0.10328360E+00 0.10812017E+04</pdfrwt>
<totfact> 0.42593832E+00</totfact>
</mgrwt>
</event>
<event>
 4    1  0.1117758E-007  0.1560194E+04  0.7818608E-02  0.8868260E-01
          2   -1    0    0  501    0  0.00000000000E+00  0.00000000000E+00  0.34291471140E+04  0.34291471140E+04  0.25500000000E-02 0. -1.
         -2   -1    0    0    0  501 -0.00000000000E+00 -0.00000000000E+00 -0.17223417429E+04  0.17223417429E+04  0.25500000000E-02 0.  1.
    8880023    1    1    2    0    0  0.37428235905E+03  0.13639315048E+04  0.29011090945E+04  0.32940310591E+04  0.65864270000E+03 0.  0.
    8880022    1    1    2    0    0 -0.37428235905E+03 -0.13639315048E+04 -0.11943037233E+04  0.18574577978E+04  0.15294330000E+03 0.  0.
<mgrwt>
<rscale>  0 0.15245956E+04</rscale>
<asrwt>0</asrwt>
<pdfrwt beam="1">  1        2 0.52756109E+00 0.15601944E+04</pdfrwt>
<pdfrwt beam="2">  1       -2 0.26497566E+00 0.15601944E+04</pdfrwt>
<totfact> 0.44369325E-02</totfact>
</mgrwt>
</event>
<event>
 4    1  0.6502538E-008  0.7185378E+03  0.7818608E-02  0.9927565E-01
         -2   -1    0    0    0  501 -0.00000000000E+00  0.00000000000E+00  0.20971441810E+03  0.20971441811E+03  0.25500000000E-02 0.  1.
          2   -1    0    0  501    0  0.00000000000E+00 -0.00000000000E+00 -0.16478707123E+04  0.16478707123E+04  0.25500000000E-02 0. -1.
    8880023    1    1    2    0    0 -0.22064505441E+03 -0.18385347570E+03 -0.13352565028E+04  0.15163134488E+04  0.65864270000E+03 0.  0.
    8880022    1    1    2    0    0  0.22064505441E+03  0.18385347570E+03 -0.10289979140E+03  0.34127168158E+03  0.15294330000E+03 0.  0.
<mgrwt>
<rscale>  0 0.58943771E+03</rscale>
<asrwt>0</asrwt>
<pdfrwt beam="1">  1        2 0.25351856E+00 0.71853778E+03</pdfrwt>
<pdfrwt beam="2">  1       -2 0.32263758E-01 0.71853778E+03</pdfrwt>
<totfact> 0.95984664E+01</totfact>
</mgrwt>
</event>
<event>
 4    1  0.6502538E-008  0.1075287E+04  0.7818608E-02  0.9289083E-01
          2   -1    0    0  501    0  0.00000000000E+00  0.00000000000E+00  0.22026370184E+04  0.22026370184E+04  0.25500000000E-02 0. -1.
         -2   -1    0    0    0  501 -0.00000000000E+00 -0.00000000000E+00 -0.98908426029E+03  0.98908426030E+03  0.25500000000E-02 0.  1.
    8880023    1    1    2    0    0 -0.75149146540E+03 -0.39710424775E+03  0.18356308994E+04  0.21273885897E+04  0.65864270000E+03 0.  0.
    8880022    1    1    2    0    0  0.75149146540E+03  0.39710424775E+03 -0.62207814130E+03  0.10643326891E+04  0.15294330000E+03 0.  0.
<mgrwt>
<rscale>  0 0.10179411E+04</rscale>
<asrwt>0</asrwt>
<pdfrwt beam="1">  1        2 0.33886723E+00 0.10752867E+04</pdfrwt>
<pdfrwt beam="2">  1       -2 0.15216681E+00 0.10752867E+04</pdfrwt>
<totfact> 0.14695061E+00</totfact>
</mgrwt>
</event>
<event>
 4    1  0.6502538E-008  0.7540599E+03  0.7818608E-02  0.9820736E-01
         -2   -1    0    0    0  501 -0.00000000000E+00  0.00000000000E+00  0.71438899918E+03  0.71438899918E+03  0.25500000000E-02 0.  1.
          2   -1    0    0  501    0  0.00000000000E+00 -0.00000000000E+00 -0.17996823844E+04  0.17996823844E+04  0.25500000000E-02 0. -1.
    8880023    1    1    2    0    0  0.35802751985E+03 -0.81316803487E+02 -0.16553337180E+04  0.18189931423E+04  0.65864270000E+03 0. -1.
    8880022    1    1    2    0    0 -0.35802751985E+03  0.81316803487E+02  0.57004033278E+03  0.69507824129E+03  0.15294330000E+03 0.  0.
<mgrwt>
<rscale>  0 0.64261521E+03</rscale>
<asrwt>0</asrwt>
<pdfrwt beam="1">  1        2 0.27687421E+00 0.75405990E+03</pdfrwt>
<pdfrwt beam="2">  1       -2 0.10990600E+00 0.75405990E+03</pdfrwt>
<totfact> 0.58574701E+00</totfact>
</mgrwt>
</event>
<event>
 4    1  0.6502538E-008  0.8268894E+03  0.7818608E-02  0.9655415E-01
          2   -1    0    0  501    0  0.00000000000E+00  0.00000000000E+00  0.21826120541E+04  0.21826120541E+04  0.25500000000E-02 0. -1.
         -2   -1    0    0    0  501 -0.00000000000E+00 -0.00000000000E+00 -0.30540615022E+03  0.30540615024E+03  0.25500000000E-02 0.  1.
    8880023    1    1    2    0    0  0.48663619342E+03  0.11454765596E+03  0.17710032694E+04  0.19545328692E+04  0.65864270000E+03 0. -1.
    8880022    1    1    2    0    0 -0.48663619342E+03 -0.11454765596E+03  0.10620263447E+03  0.53348533515E+03  0.15294330000E+03 0.  0.
<mgrwt>
<rscale>  0 0.73734548E+03</rscale>
<asrwt>0</asrwt>
<pdfrwt beam="1">  1        2 0.33578645E+00 0.82688945E+03</pdfrwt>
<pdfrwt beam="2">  1       -2 0.46985564E-01 0.82688945E+03</pdfrwt>
<totfact> 0.23286641E+01</totfact>
</mgrwt>
</event>
<event>
 4    1  0.6502538E-008  0.1239686E+04  0.7818608E-02  0.9119478E-01
          2   -1    0    0  501    0  0.00000000000E+00  0.00000000000E+00  0.46261801788E+04  0.46261801788E+04  0.25500000000E-02 0. -1.
         -2   -1    0    0    0  501 -0.00000000000E+00 -0.00000000000E+00 -0.33129041617E+03  0.33129041618E+03  0.25500000000E-02 0.  1.
    8880023    1    1    2    0    0  0.10036155857E+04 -0.30946102038E+03  0.13783449525E+04  0.18538218311E+04  0.65864270000E+03 0. -1.
    8880022    1    1    2    0    0 -0.10036155857E+04  0.30946102038E+03  0.29165448102E+04  0.31036487639E+04  0.15294330000E+03 0.  0.
<mgrwt>
<rscale>  0 0.11924642E+04</rscale>
<asrwt>0</asrwt>
<pdfrwt beam="1">  1        2 0.71171996E+00 0.12396857E+04</pdfrwt>
<pdfrwt beam="2">  1       -2 0.50967761E-01 0.12396857E+04</pdfrwt>
<totfact> 0.34590444E-01</totfact>
</mgrwt>
</event>
<event>
 4    1  0.6502538E-008  0.6871359E+03  0.7818608E-02  0.1005545E+00
         -2   -1    0    0    0  501 -0.00000000000E+00  0.00000000000E+00  0.19816868564E+03  0.19816868565E+03  0.25500000000E-02 0.  1.
          2   -1    0    0  501    0  0.00000000000E+00 -0.00000000000E+00 -0.13654798112E+04  0.13654798112E+04  0.25500000000E-02 0. -1.
    8880023    1    1    2    0    0  0.80078951187E+02  0.17869785688E+03 -0.11150098913E+04  0.13097338762E+04  0.65864270000E+03 0. -1.
    8880022    1    1    2    0    0 -0.80078951187E+02 -0.17869785688E+03 -0.52301234292E+02  0.25391462069E+03  0.15294330000E+03 0.  0.
<mgrwt>
<rscale>  0 0.53284435E+03</rscale>
<asrwt>0</asrwt>
<pdfrwt beam="1">  1        2 0.21007381E+00 0.68713592E+03</pdfrwt>
<pdfrwt beam="2">  1       -2 0.30487491E-01 0.68713592E+03</pdfrwt>
<totfact> 0.15361445E+02</totfact>
</mgrwt>
</event>
<event>
 4    1  0.6502538E-008  0.8618336E+03  0.7818608E-02  0.9590310E-01
          2   -1    0    0  501    0  0.00000000000E+00  0.00000000000E+00  0.12743772304E+04  0.12743772304E+04  0.25500000000E-02 0. -1.
         -2   -1    0    0    0  501 -0.00000000000E+00 -0.00000000000E+00 -0.19801497284E+04  0.19801497284E+04  0.25500000000E-02 0.  1.
    8880023    1    1    2    0    0 -0.54930515552E+03  0.84916188236E+02  0.10778567138E+04  0.13800479030E+04  0.65864270000E+03 0.  0.
    8880022    1    1    2    0    0  0.54930515552E+03 -0.84916188236E+02 -0.17836292117E+04  0.18744790558E+04  0.15294330000E+03 0.  0.
<mgrwt>
<rscale>  0 0.77940852E+03</rscale>
<asrwt>0</asrwt>
<pdfrwt beam="1">  1        2 0.19605804E+00 0.86183358E+03</pdfrwt>
<pdfrwt beam="2">  1       -2 0.30463842E+00 0.86183358E+03</pdfrwt>
<totfact> 0.52404482E-01</totfact>
</mgrwt>
</event>
<event>
 4    1  0.6502538E-008  0.7155758E+03  0.7818608E-02  0.9937850E-01
          2   -1    0    0  501    0  0.00000000000E+00  0.00000000000E+00  0.11751972000E+04  0.11751972000E+04  0.25500000000E-02 0. -1.
         -2   -1    0    0    0  501 -0.00000000000E+00 -0.00000000000E+00 -0.51537519117E+03  0.51537519118E+03  0.25500000000E-02 0.  1.
    8880023    1    1    2    0    0 -0.94749839920E+02 -0.26317485362E+03  0.99656586214E+03  0.12268627713E+04  0.65864270000E+03 0. -1.
    8880022    1    1    2    0    0  0.94749839920E+02  0.26317485362E+03 -0.33674385336E+03  0.46370961984E+03  0.15294330000E+03 0.  0.
<mgrwt>
<rscale>  0 0.58461450E+03</rscale>
<asrwt>0</asrwt>
<pdfrwt beam="1">  1        2 0.18079957E+00 0.71557581E+03</pdfrwt>
<pdfrwt beam="2">  1       -2 0.79288492E-01 0.71557581E+03</pdfrwt>
<totfact> 0.28257841E+01</totfact>
</mgrwt>
</event>
<event>
 4    1  0.6502538E-008  0.1243877E+04  0.7818608E-02  0.9115608E-01
         -2   -1    0    0    0  501 -0.00000000000E+00  0.00000000000E+00  0.87044272339E+03  0.87044272340E+03  0.25500000000E-02 0.  1.
          2   -1    0    0  501    0  0.00000000000E+00 -0.00000000000E+00 -0.17494136540E+04  0.17494136540E+04  0.25500000000E-02 0. -1.
    8880023    1    1    2    0    0 -0.18298312440E+03 -0.10392001579E+04 -0.92894565327E+03  0.15524722300E+04  0.65864270000E+03 0. -1.
    8880022    1    1    2    0    0  0.18298312440E+03  0.10392001579E+04  0.49974722698E+02  0.10673841473E+04  0.15294330000E+03 0.  1.
<mgrwt>
<rscale>  0 0.11968622E+04</rscale>
<asrwt>0</asrwt>
<pdfrwt beam="1">  1        2 0.26914056E+00 0.12438770E+04</pdfrwt>
<pdfrwt beam="2">  1       -2 0.13391427E+00 0.12438770E+04</pdfrwt>
<totfact> 0.35943074E+00</totfact>
</mgrwt>
</event>
<event>
 4    1  0.6502538E-008  0.7201431E+03  0.7818608E-02  0.9922102E-01
          2   -1    0    0  501    0  0.00000000000E+00  0.00000000000E+00  0.30578218242E+03  0.30578218243E+03  0.25500000000E-02 0. -1.
         -2   -1    0    0    0  501 -0.00000000000E+00 -0.00000000000E+00 -0.96618211811E+03  0.96618211812E+03  0.25500000000E-02 0.  1.
    8880023    1    1    2    0    0  0.46961549829E+02  0.28738567187E+03 -0.28930475011E+03  0.77608205511E+03  0.65864270000E+03 0.  0.
    8880022    1    1    2    0    0 -0.46961549829E+02 -0.28738567187E+03 -0.37109518558E+03  0.49588224544E+03  0.15294330000E+03 0.  0.
<mgrwt>
<rscale>  0 0.59201987E+03</rscale>
<asrwt>0</asrwt>
<pdfrwt beam="1">  1        2 0.47043413E-01 0.72014312E+03</pdfrwt>
<pdfrwt beam="2">  1       -2 0.14864340E+00 0.72014312E+03</pdfrwt>
<totfact> 0.33443902E+01</totfact>
</mgrwt>
</event>
<event>
 4    1  0.6502538E-008  0.8035872E+03  0.7818608E-02  0.9703093E-01
         -2   -1    0    0    0  501 -0.00000000000E+00  0.00000000000E+00  0.36066646994E+03  0.36066646995E+03  0.25500000000E-02 0.  1.
          2   -1    0    0  501    0  0.00000000000E+00 -0.00000000000E+00 -0.11667637424E+04  0.11667637424E+04  0.25500000000E-02 0. -1.
    8880023    1    1    2    0    0 -0.25733065258E+03 -0.38173698175E+03 -0.58692569951E+03  0.99510510550E+03  0.65864270000E+03 0.  1.
    8880022    1    1    2    0    0  0.25733065258E+03  0.38173698175E+03 -0.21917157298E+03  0.53232510687E+03  0.15294330000E+03 0. -1.
<mgrwt>
<rscale>  0 0.70832946E+03</rscale>
<asrwt>0</asrwt>
<pdfrwt beam="1">  1        2 0.17950211E+00 0.80358720E+03</pdfrwt>
<pdfrwt beam="2">  1       -2 0.55487150E-01 0.80358720E+03</pdfrwt>
<totfact> 0.61268619E+01</totfact>
</mgrwt>
</event>
<event>
 4    1  0.6502538E-008  0.9905574E+03  0.7818608E-02  0.9394017E-01
         -2   -1    0    0    0  501 -0.00000000000E+00  0.00000000000E+00  0.11028350956E+04  0.11028350956E+04  0.25500000000E-02 0.  1.
          2   -1    0    0  501    0  0.00000000000E+00 -0.00000000000E+00 -0.35058036269E+04  0.35058036269E+04  0.25500000000E-02 0. -1.
    8880023    1    1    2    0    0  0.54173032701E+03 -0.50390683689E+03 -0.32944127981E+04  0.34401104253E+04  0.65864270000E+03 0. -1.
    8880022    1    1    2    0    0 -0.54173032701E+03  0.50390683689E+03  0.89144426681E+03  0.11685282972E+04  0.15294330000E+03 0.  0.
<mgrwt>
<rscale>  0 0.92569702E+03</rscale>
<asrwt>0</asrwt>
<pdfrwt beam="1">  1        2 0.53935440E+00 0.99055745E+03</pdfrwt>
<pdfrwt beam="2">  1       -2 0.16966694E+00 0.99055745E+03</pdfrwt>
<totfact> 0.17823916E-01</totfact>
</mgrwt>
</event>
<event>
 4    1  0.6502538E-008  0.7066584E+03  0.7818608E-02  0.9970626E-01
          2   -1    0    0  501    0  0.00000000000E+00  0.00000000000E+00  0.12169387637E+04  0.12169387637E+04  0.25500000000E-02 0. -1.
         -2   -1    0    0    0  501 -0.00000000000E+00 -0.00000000000E+00 -0.12230414089E+04  0.12230414089E+04  0.25500000000E-02 0.  1.
    8880023    1    1    2    0    0 -0.13899822296E+03 -0.21502398018E+03  0.10927723585E+04  0.13013521629E+04  0.65864270000E+03 0. -1.
    8880022    1    1    2    0    0  0.13899822296E+03  0.21502398018E+03 -0.10988750036E+04  0.11386280098E+04  0.15294330000E+03 0.  0.
<mgrwt>
<rscale>  0 0.56957225E+03</rscale>
<asrwt>0</asrwt>
<pdfrwt beam="1">  1        2 0.18722135E+00 0.70665835E+03</pdfrwt>
<pdfrwt beam="2">  1       -2 0.18816022E+00 0.70665835E+03</pdfrwt>
<totfact> 0.30479050E+00</totfact>
</mgrwt>
</event>
<event>
 4    1  0.6502538E-008  0.1458764E+04  0.7818608E-02  0.8939317E-01
         -2   -1    0    0    0  501 -0.00000000000E+00  0.00000000000E+00  0.12569228553E+04  0.12569228553E+04  0.25500000000E-02 0.  1.
          2   -1    0    0  501    0  0.00000000000E+00 -0.00000000000E+00 -0.16667288389E+04  0.16667288389E+04  0.25500000000E-02 0. -1.
    8880023    1    1    2    0    0 -0.39828792220E+03  0.12391724509E+04 -0.64007786290E+03  0.15930133423E+04  0.65864270000E+03 0. -1.
    8880022    1    1    2    0    0  0.39828792220E+03 -0.12391724509E+04  0.23027187933E+03  0.13306383518E+04  0.15294330000E+03 0.  0.
<mgrwt>
<rscale>  0 0.14202119E+04</rscale>
<asrwt>0</asrwt>
<pdfrwt beam="1">  1        2 0.25641982E+00 0.14587638E+04</pdfrwt>
<pdfrwt beam="2">  1       -2 0.19337275E+00 0.14587638E+04</pdfrwt>
<totfact> 0.14231153E+00</totfact>
</mgrwt>
</event>
<event>
 4    1  0.6502538E-008  0.1058753E+04  0.7818608E-02  0.9308432E-01
         -2   -1    0    0    0  501 -0.00000000000E+00  0.00000000000E+00  0.65824348813E+03  0.65824348814E+03  0.25500000000E-02 0.  1.
          2   -1    0    0  501    0  0.00000000000E+00 -0.00000000000E+00 -0.25578570662E+04  0.25578570662E+04  0.25500000000E-02 0. -1.
    8880023    1    1    2    0    0  0.54041977077E+03  0.62856511967E+03 -0.20981085382E+04  0.23501100576E+04  0.65864270000E+03 0. -1.
    8880022    1    1    2    0    0 -0.54041977077E+03 -0.62856511967E+03  0.19849496013E+03  0.86599049678E+03  0.15294330000E+03 0.  0.
<mgrwt>
<rscale>  0 0.10001025E+04</rscale>
<asrwt>0</asrwt>
<pdfrwt beam="1">  1        2 0.39351647E+00 0.10587530E+04</pdfrwt>
<pdfrwt beam="2">  1       -2 0.10126823E+00 0.10587530E+04</pdfrwt>
<totfact> 0.25858520E+00</totfact>
</mgrwt>
</event>
<event>
 4    1  0.6502538E-008  0.7321621E+03  0.7818608E-02  0.9883396E-01
         -2   -1    0    0    0  501 -0.00000000000E+00  0.00000000000E+00  0.24025358055E+03  0.24025358057E+03  0.25500000000E-02 0.  1.
          2   -1    0    0  501    0  0.00000000000E+00 -0.00000000000E+00 -0.12310052979E+04  0.12310052979E+04  0.25500000000E-02 0. -1.
    8880023    1    1    2    0    0 -0.31647615680E+03 -0.45760184505E+02 -0.63706083088E+03  0.97051937684E+03  0.65864270000E+03 0.  0.
    8880022    1    1    2    0    0  0.31647615680E+03  0.45760184505E+02 -0.35369088644E+03  0.50073950161E+03  0.15294330000E+03 0.  0.
<mgrwt>
<rscale>  0 0.61072773E+03</rscale>
<asrwt>0</asrwt>
<pdfrwt beam="1">  1        2 0.18938543E+00 0.73216211E+03</pdfrwt>
<pdfrwt beam="2">  1       -2 0.36962090E-01 0.73216211E+03</pdfrwt>
<totfact> 0.12714192E+02</totfact>
</mgrwt>
</event>
<event>
 4    1  0.6502538E-008  0.9319368E+03  0.7818608E-02  0.9476594E-01
         -2   -1    0    0    0  501 -0.00000000000E+00  0.00000000000E+00  0.99163753038E+03  0.99163753039E+03  0.25500000000E-02 0.  1.
          2   -1    0    0  501    0  0.00000000000E+00 -0.00000000000E+00 -0.19329174963E+04  0.19329174963E+04  0.25500000000E-02 0. -1.
    8880023    1    1    2    0    0  0.65666867338E+03  0.59010242578E+02 -0.16809219626E+04  0.19219793979E+04  0.65864270000E+03 0. -1.
    8880022    1    1    2    0    0 -0.65666867338E+03 -0.59010242578E+02  0.73964199664E+03  0.10025756288E+04  0.15294330000E+03 0.  0.
<mgrwt>
<rscale>  0 0.86031681E+03</rscale>
<asrwt>0</asrwt>
<pdfrwt beam="1">  1        2 0.29737192E+00 0.93193678E+03</pdfrwt>
<pdfrwt beam="2">  1       -2 0.15255962E+00 0.93193678E+03</pdfrwt>
<totfact> 0.20985557E+00</totfact>
</mgrwt>
</event>
<event>
 4    1  0.6502538E-008  0.9767249E+03  0.7818608E-02  0.9412663E-01
         -2   -1    0    0    0  501 -0.00000000000E+00  0.00000000000E+00  0.10444815264E+04  0.10444815264E+04  0.25500000000E-02 0.  1.
          2   -1    0    0  501    0  0.00000000000E+00 -0.00000000000E+00 -0.11376148510E+04  0.11376148510E+04  0.25500000000E-02 0. -1.
    8880023    1    1    2    0    0 -0.71863753134E+03 -0.61167308932E+02 -0.72074718366E+03  0.12138649225E+04  0.65864270000E+03 0. -1.
    8880022    1    1    2    0    0  0.71863753134E+03  0.61167308932E+02  0.62761385901E+03  0.96823145486E+03  0.15294330000E+03 0.  0.
<mgrwt>
<rscale>  0 0.91040877E+03</rscale>
<asrwt>0</asrwt>
<pdfrwt beam="1">  1        2 0.17501767E+00 0.97672491E+03</pdfrwt>
<pdfrwt beam="2">  1       -2 0.16068947E+00 0.97672491E+03</pdfrwt>
<totfact> 0.51097874E+00</totfact>
</mgrwt>
</event>
<event>
 4    1  0.6502538E-008  0.8673738E+03  0.7818608E-02  0.9580579E-01
         -2   -1    0    0    0  501 -0.00000000000E+00  0.00000000000E+00  0.20369392789E+04  0.20369392789E+04  0.25500000000E-02 0.  1.
          2   -1    0    0  501    0  0.00000000000E+00 -0.00000000000E+00 -0.35749166228E+03  0.35749166229E+03  0.25500000000E-02 0. -1.
    8880023    1    1    2    0    0 -0.52329565394E+03 -0.21139723127E+03  0.15784042521E+04  0.18010267405E+04  0.65864270000E+03 0.  1.
    8880022    1    1    2    0    0  0.52329565394E+03  0.21139723127E+03  0.10104336451E+03  0.59340420064E+03  0.15294330000E+03 0.  0.
<mgrwt>
<rscale>  0 0.78595033E+03</rscale>
<asrwt>0</asrwt>
<pdfrwt beam="1">  1        2 0.54998719E-01 0.86737382E+03</pdfrwt>
<pdfrwt beam="2">  1       -2 0.31337526E+00 0.86737382E+03</pdfrwt>
<totfact> 0.24377346E+00</totfact>
</mgrwt>
</event>
<event>
 4    1  0.6502538E-008  0.1147871E+04  0.7818608E-02  0.9209540E-01
          2   -1    0    0  501    0  0.00000000000E+00  0.00000000000E+00  0.70253295434E+03  0.70253295434E+03  0.25500000000E-02 0. -1.
         -2   -1    0    0    0  501 -0.00000000000E+00 -0.00000000000E+00 -0.18233160408E+04  0.18233160408E+04  0.25500000000E-02 0.  1.
    8880023    1    1    2    0    0  0.94009884497E+03  0.35272510331E+01 -0.13613785108E+03  0.11559160872E+04  0.65864270000E+03 0. -1.
    8880022    1    1    2    0    0 -0.94009884497E+03 -0.35272510331E+01 -0.98464523540E+03  0.13699329080E+04  0.15294330000E+03 0. -1.
<mgrwt>
<rscale>  0 0.10955499E+04</rscale>
<asrwt>0</asrwt>
<pdfrwt beam="1">  1        2 0.10808199E+00 0.11478713E+04</pdfrwt>
<pdfrwt beam="2">  1       -2 0.28051016E+00 0.11478713E+04</pdfrwt>
<totfact> 0.16809215E+00</totfact>
</mgrwt>
</event>
<event>
 4    1  0.6502538E-008  0.6614077E+03  0.7818608E-02  0.1022758E+00
          2   -1    0    0  501    0  0.00000000000E+00  0.00000000000E+00  0.12193713495E+04  0.12193713495E+04  0.25500000000E-02 0. -1.
         -2   -1    0    0    0  501 -0.00000000000E+00 -0.00000000000E+00 -0.33504963400E+03  0.33504963401E+03  0.25500000000E-02 0.  1.
    8880023    1    1    2    0    0 -0.56814730746E+02 -0.20544198174E+02  0.10997999842E+04  0.12833628439E+04  0.65864270000E+03 0. -1.
    8880022    1    1    2    0    0  0.56814730746E+02  0.20544198174E+02 -0.21547826872E+03  0.27105813954E+03  0.15294330000E+03 0.  0.
<mgrwt>
<rscale>  0 0.46704213E+03</rscale>
<asrwt>0</asrwt>
<pdfrwt beam="1">  1        2 0.18759559E+00 0.66140773E+03</pdfrwt>
<pdfrwt beam="2">  1       -2 0.51546098E-01 0.66140773E+03</pdfrwt>
<totfact> 0.67252908E+01</totfact>
</mgrwt>
</event>
<event>
 4    1  0.6502538E-008  0.6861399E+03  0.7818608E-02  0.1006044E+00
         -2   -1    0    0    0  501 -0.00000000000E+00  0.00000000000E+00  0.10244191789E+04  0.10244191789E+04  0.25500000000E-02 0.  1.
          2   -1    0    0  501    0  0.00000000000E+00 -0.00000000000E+00 -0.10764444267E+04  0.10764444267E+04  0.25500000000E-02 0. -1.
    8880023    1    1    2    0    0 -0.15845500290E+03 -0.10894819125E+03 -0.94887755598E+03  0.11709639272E+04  0.65864270000E+03 0. -1.
    8880022    1    1    2    0    0  0.15845500290E+03  0.10894819125E+03  0.89685230816E+03  0.92989967846E+03  0.15294330000E+03 0.  0.
<mgrwt>
<rscale>  0 0.53077633E+03</rscale>
<asrwt>0</asrwt>
<pdfrwt beam="1">  1        2 0.16560683E+00 0.68613986E+03</pdfrwt>
<pdfrwt beam="2">  1       -2 0.15760295E+00 0.68613986E+03</pdfrwt>
<totfact> 0.60863677E+00</totfact>
</mgrwt>
</event>
<event>
 4    1  0.6502538E-008  0.7674584E+03  0.7818608E-02  0.9786168E-01
         -2   -1    0    0    0  501 -0.00000000000E+00  0.00000000000E+00  0.71255408918E+03  0.71255408919E+03  0.25500000000E-02 0.  1.
          2   -1    0    0  501    0  0.00000000000E+00 -0.00000000000E+00 -0.99970178650E+03  0.99970178650E+03  0.25500000000E-02 0. -1.
    8880023    1    1    2    0    0  0.16908767918E+03  0.35579707767E+03 -0.75862161517E+03  0.10791196250E+04  0.65864270000E+03 0. -1.
    8880022    1    1    2    0    0 -0.16908767918E+03 -0.35579707767E+03  0.47147391786E+03  0.63313625072E+03  0.15294330000E+03 0.  0.
<mgrwt>
<rscale>  0 0.66110185E+03</rscale>
<asrwt>0</asrwt>
<pdfrwt beam="1">  1        2 0.15380028E+00 0.76745841E+03</pdfrwt>
<pdfrwt beam="2">  1       -2 0.10962371E+00 0.76745841E+03</pdfrwt>
<totfact> 0.16941809E+01</totfact>
</mgrwt>
</event>
<event>
 4    1  0.6502538E-008  0.1371898E+04  0.7818608E-02  0.9005832E-01
         -2   -1    0    0    0  501 -0.00000000000E+00  0.00000000000E+00  0.19041855438E+04  0.19041855438E+04  0.25500000000E-02 0.  1.
          2   -1    0    0  501    0  0.00000000000E+00 -0.00000000000E+00 -0.16257550709E+04  0.16257550709E+04  0.25500000000E-02 0. -1.
    8880023    1    1    2    0    0 -0.67651323747E+03 -0.99530040466E+03 -0.10524774560E+04  0.17291073008E+04  0.65864270000E+03 0.  0.
    8880022    1    1    2    0    0  0.67651323747E+03  0.99530040466E+03  0.13309079289E+04  0.18008333138E+04  0.15294330000E+03 0.  0.
<mgrwt>
<rscale>  0 0.13303568E+04</rscale>
<asrwt>0</asrwt>
<pdfrwt beam="1">  1        2 0.25011616E+00 0.13718977E+04</pdfrwt>
<pdfrwt beam="2">  1       -2 0.29295162E+00 0.13718977E+04</pdfrwt>
<totfact> 0.36111524E-01</totfact>
</mgrwt>
</event>
<event>
 4    1  0.6502538E-008  0.1004722E+04  0.7818608E-02  0.9375406E-01
         -2   -1    0    0    0  501 -0.00000000000E+00  0.00000000000E+00  0.18884278898E+04  0.18884278898E+04  0.25500000000E-02 0.  1.
          2   -1    0    0  501    0  0.00000000000E+00 -0.00000000000E+00 -0.75152870669E+03  0.75152870669E+03  0.25500000000E-02 0. -1.
    8880023    1    1    2    0    0  0.43485366226E+03  0.62173817260E+03 -0.26456639474E+03  0.10389714367E+04  0.65864270000E+03 0. -1.
    8880022    1    1    2    0    0 -0.43485366226E+03 -0.62173817260E+03  0.14014655778E+04  0.16009851597E+04  0.15294330000E+03 0.  0.
<mgrwt>
<rscale>  0 0.94127626E+03</rscale>
<asrwt>0</asrwt>
<pdfrwt beam="1">  1        2 0.11561980E+00 0.10047220E+04</pdfrwt>
<pdfrwt beam="2">  1       -2 0.29052737E+00 0.10047220E+04</pdfrwt>
<totfact> 0.13621836E+00</totfact>
</mgrwt>
</event>
<event>
 4    1  0.6502538E-008  0.1148207E+04  0.7818608E-02  0.9209191E-01
         -2   -1    0    0    0  501 -0.00000000000E+00  0.00000000000E+00  0.50469670114E+03  0.50469670115E+03  0.25500000000E-02 0.  1.
          2   -1    0    0  501    0  0.00000000000E+00 -0.00000000000E+00 -0.25238430286E+04  0.25238430286E+04  0.25500000000E-02 0. -1.
    8880023    1    1    2    0    0  0.91358918217E+03 -0.22343564292E+03 -0.53953760752E+03  0.12686527171E+04  0.65864270000E+03 0.  0.
    8880022    1    1    2    0    0 -0.91358918217E+03  0.22343564292E+03 -0.14796087199E+04  0.17598870127E+04  0.15294330000E+03 0.  0.
<mgrwt>
<rscale>  0 0.10959064E+04</rscale>
<asrwt>0</asrwt>
<pdfrwt beam="1">  1        2 0.38828354E+00 0.11482068E+04</pdfrwt>
<pdfrwt beam="2">  1       -2 0.77645647E-01 0.11482068E+04</pdfrwt>
<totfact> 0.49475385E+00</totfact>
</mgrwt>
</event>
<event>
 4    1  0.6502538E-008  0.9761632E+03  0.7818608E-02  0.9413430E-01
          2   -1    0    0  501    0  0.00000000000E+00  0.00000000000E+00  0.14120577654E+04  0.14120577654E+04  0.25500000000E-02 0. -1.
         -2   -1    0    0    0  501 -0.00000000000E+00 -0.00000000000E+00 -0.79959999636E+03  0.79959999637E+03  0.25500000000E-02 0.  1.
    8880023    1    1    2    0    0  0.69629120187E+03  0.18510243037E+03  0.98457368174E+03  0.13864630859E+04  0.65864270000E+03 0.  0.
    8880022    1    1    2    0    0 -0.69629120187E+03 -0.18510243037E+03 -0.37211591272E+03  0.82519467585E+03  0.15294330000E+03 0.  0.
<mgrwt>
<rscale>  0 0.90978628E+03</rscale>
<asrwt>0</asrwt>
<pdfrwt beam="1">  1        2 0.21723965E+00 0.97616318E+03</pdfrwt>
<pdfrwt beam="2">  1       -2 0.12301539E+00 0.97616318E+03</pdfrwt>
<totfact> 0.70787464E+00</totfact>
</mgrwt>
</event>
<event>
 4    1  0.6502538E-008  0.6586897E+03  0.7818608E-02  0.1025541E+00
          2   -1    0    0  501    0  0.00000000000E+00  0.00000000000E+00  0.54717907343E+03  0.54717907343E+03  0.25500000000E-02 0. -1.
         -2   -1    0    0    0  501 -0.00000000000E+00 -0.00000000000E+00 -0.49641936627E+03  0.49641936627E+03  0.25500000000E-02 0.  1.
    8880023    1    1    2    0    0 -0.71666973407E+01  0.32431758319E+01  0.32118132275E+03  0.73282298551E+03  0.65864270000E+03 0. -1.
    8880022    1    1    2    0    0  0.71666973407E+01 -0.32431758319E+01 -0.27042161559E+03  0.31077545420E+03  0.15294330000E+03 0.  0.
<mgrwt>
<rscale>  0 0.45739001E+03</rscale>
<asrwt>0</asrwt>
<pdfrwt beam="1">  1        2 0.84181396E-01 0.65868967E+03</pdfrwt>
<pdfrwt beam="2">  1       -2 0.76372210E-01 0.65868967E+03</pdfrwt>
<totfact> 0.86406408E+01</totfact>
</mgrwt>
</event>
<event>
 4    1  0.6502538E-008  0.6959234E+03  0.7818608E-02  0.1001455E+00
          2   -1    0    0  501    0  0.00000000000E+00  0.00000000000E+00  0.12416090121E+04  0.12416090121E+04  0.25500000000E-02 0. -1.
         -2   -1    0    0    0  501 -0.00000000000E+00 -0.00000000000E+00 -0.20538170903E+03  0.20538170905E+03  0.25500000000E-02 0.  1.
    8880023    1    1    2    0    0  0.22034462815E+03 -0.44129429491E+02  0.91442013983E+03  0.11491186014E+04  0.65864270000E+03 0.  0.
    8880022    1    1    2    0    0 -0.22034462815E+03  0.44129429491E+02  0.12180716327E+03  0.29787211978E+03  0.15294330000E+03 0.  0.
<mgrwt>
<rscale>  0 0.55016744E+03</rscale>
<asrwt>0</asrwt>
<pdfrwt beam="1">  1        2 0.19101677E+00 0.69592339E+03</pdfrwt>
<pdfrwt beam="2">  1       -2 0.31597186E-01 0.69592339E+03</pdfrwt>
<totfact> 0.16919757E+02</totfact>
</mgrwt>
</event>
<event>
 4    1  0.6502538E-008  0.6987753E+03  0.7818608E-02  0.1000232E+00
          2   -1    0    0  501    0  0.00000000000E+00  0.00000000000E+00  0.85686584112E+03  0.85686584113E+03  0.25500000000E-02 0. -1.
         -2   -1    0    0    0  501 -0.00000000000E+00 -0.00000000000E+00 -0.28857110097E+04  0.28857110097E+04  0.25500000000E-02 0.  1.
    8880023    1    1    2    0    0 -0.90270930390E+02  0.21523923660E+03  0.70611309207E+03  0.99341968719E+03  0.65864270000E+03 0. -1.
    8880022    1    1    2    0    0  0.90270930390E+02 -0.21523923660E+03 -0.27349582606E+04  0.27491571636E+04  0.15294330000E+03 0.  0.
<mgrwt>
<rscale>  0 0.55548630E+03</rscale>
<asrwt>0</asrwt>
<pdfrwt beam="1">  1        2 0.13182552E+00 0.69877534E+03</pdfrwt>
<pdfrwt beam="2">  1       -2 0.44395554E+00 0.69877534E+03</pdfrwt>
<totfact> 0.12943826E-01</totfact>
</mgrwt>
</event>
<event>
 4    1  0.6502538E-008  0.1871341E+04  0.7818608E-02  0.8684067E-01
          2   -1    0    0  501    0  0.00000000000E+00  0.00000000000E+00  0.32860713889E+04  0.32860713889E+04  0.25500000000E-02 0. -1.
         -2   -1    0    0    0  501 -0.00000000000E+00 -0.00000000000E+00 -0.14692558880E+04  0.14692558880E+04  0.25500000000E-02 0.  1.
    8880023    1    1    2    0    0 -0.12609525228E+04 -0.12157733732E+04  0.22677370356E+04  0.29401611569E+04  0.65864270000E+03 0. -1.
    8880022    1    1    2    0    0  0.12609525228E+04  0.12157733732E+04 -0.45092153469E+03  0.18151661200E+04  0.15294330000E+03 0.  0.
<mgrwt>
<rscale>  0 0.18424079E+04</rscale>
<asrwt>0</asrwt>
<pdfrwt beam="1">  1        2 0.50554944E+00 0.18713408E+04</pdfrwt>
<pdfrwt beam="2">  1       -2 0.22603937E+00 0.18713408E+04</pdfrwt>
<totfact> 0.92957055E-02</totfact>
</mgrwt>
</event>
<event>
 4    1  0.6502538E-008  0.1155396E+04  0.7818608E-02  0.9201749E-01
          2   -1    0    0  501    0  0.00000000000E+00  0.00000000000E+00  0.29199760040E+04  0.29199760040E+04  0.25500000000E-02 0. -1.
         -2   -1    0    0    0  501 -0.00000000000E+00 -0.00000000000E+00 -0.52604078428E+03  0.52604078429E+03  0.25500000000E-02 0.  1.
    8880023    1    1    2    0    0  0.90916923558E+03 -0.27302322270E+03  0.38332714982E+03  0.12173250548E+04  0.65864270000E+03 0.  0.
    8880022    1    1    2    0    0 -0.90916923558E+03  0.27302322270E+03  0.20106080699E+04  0.22286917335E+04  0.15294330000E+03 0.  0.
<mgrwt>
<rscale>  0 0.11035395E+04</rscale>
<asrwt>0</asrwt>
<pdfrwt beam="1">  1        2 0.44922708E+00 0.11553963E+04</pdfrwt>
<pdfrwt beam="2">  1       -2 0.80929351E-01 0.11553963E+04</pdfrwt>
<totfact> 0.26237643E+00</totfact>
</mgrwt>
</event>
<event>
 4    1  0.6502538E-008  0.1216412E+04  0.7818608E-02  0.9141331E-01
         -2   -1    0    0    0  501 -0.00000000000E+00  0.00000000000E+00  0.68466604949E+03  0.68466604950E+03  0.25500000000E-02 0.  1.
          2   -1    0    0  501    0  0.00000000000E+00 -0.00000000000E+00 -0.29583313484E+04  0.29583313484E+04  0.25500000000E-02 0. -1.
    8880023    1    1    2    0    0  0.69220623860E+03  0.75279428051E+03 -0.81436467410E+02  0.12191352714E+04  0.65864270000E+03 0.  0.
    8880022    1    1    2    0    0 -0.69220623860E+03 -0.75279428051E+03 -0.21922288315E+04  0.24238621265E+04  0.15294330000E+03 0.  0.
<mgrwt>
<rscale>  0 0.11680059E+04</rscale>
<asrwt>0</asrwt>
<pdfrwt beam="1">  1        2 0.45512789E+00 0.12164123E+04</pdfrwt>
<pdfrwt beam="2">  1       -2 0.10533324E+00 0.12164123E+04</pdfrwt>
<totfact> 0.13311268E+00</totfact>
</mgrwt>
</event>
<event>
 4    1  0.6502538E-008  0.7647148E+03  0.7818608E-02  0.9793051E-01
         -2   -1    0    0    0  501 -0.00000000000E+00  0.00000000000E+00  0.27069733977E+03  0.27069733978E+03  0.25500000000E-02 0.  1.
          2   -1    0    0  501    0  0.00000000000E+00 -0.00000000000E+00 -0.19372354698E+04  0.19372354698E+04  0.25500000000E-02 0. -1.
    8880023    1    1    2    0    0 -0.38425136165E+03  0.57700601126E+02 -0.16153675022E+04  0.17872327329E+04  0.65864270000E+03 0. -1.
    8880022    1    1    2    0    0  0.38425136165E+03 -0.57700601126E+02 -0.51170627817E+02  0.42070007662E+03  0.15294330000E+03 0.  0.
<mgrwt>
<rscale>  0 0.65736809E+03</rscale>
<asrwt>0</asrwt>
<pdfrwt beam="1">  1        2 0.29803622E+00 0.76471477E+03</pdfrwt>
<pdfrwt beam="2">  1       -2 0.41645746E-01 0.76471477E+03</pdfrwt>
<totfact> 0.40664482E+01</totfact>
</mgrwt>
</event>
<event>
 4    1  0.6502538E-008  0.9061895E+03  0.7818608E-02  0.9516168E-01
         -2   -1    0    0    0  501 -0.00000000000E+00  0.00000000000E+00  0.49066155287E+03  0.49066155288E+03  0.25500000000E-02 0.  1.
          2   -1    0    0  501    0  0.00000000000E+00 -0.00000000000E+00 -0.15898631129E+04  0.15898631129E+04  0.25500000000E-02 0. -1.
    8880023    1    1    2    0    0  0.52213179916E+02 -0.62019587280E+03 -0.11182603709E+04  0.14393351243E+04  0.65864270000E+03 0.  0.
    8880022    1    1    2    0    0 -0.52213179916E+02  0.62019587280E+03  0.19058810846E+02  0.64118954146E+03  0.15294330000E+03 0.  0.
<mgrwt>
<rscale>  0 0.83102268E+03</rscale>
<asrwt>0</asrwt>
<pdfrwt beam="1">  1        2 0.24459432E+00 0.90618946E+03</pdfrwt>
<pdfrwt beam="2">  1       -2 0.75486394E-01 0.90618946E+03</pdfrwt>
<totfact> 0.17917734E+01</totfact>
</mgrwt>
</event>
<event>
 4    1  0.6502538E-008  0.8873674E+03  0.7818608E-02  0.9546623E-01
         -2   -1    0    0    0  501 -0.00000000000E+00  0.00000000000E+00  0.53290516964E+03  0.53290516964E+03  0.25500000000E-02 0.  1.
          2   -1    0    0  501    0  0.00000000000E+00 -0.00000000000E+00 -0.22253721738E+04  0.22253721738E+04  0.25500000000E-02 0. -1.
    8880023    1    1    2    0    0 -0.59002225507E+03  0.74057426572E+02 -0.19106516227E+04  0.21066586324E+04  0.65864270000E+03 0.  0.
    8880022    1    1    2    0    0  0.59002225507E+03 -0.74057426572E+02  0.21818461847E+03  0.65161871110E+03  0.15294330000E+03 0.  0.
<mgrwt>
<rscale>  0 0.80932067E+03</rscale>
<asrwt>0</asrwt>
<pdfrwt beam="1">  1        2 0.34236495E+00 0.88736744E+03</pdfrwt>
<pdfrwt beam="2">  1       -2 0.81985412E-01 0.88736744E+03</pdfrwt>
<totfact> 0.66664597E+00</totfact>
</mgrwt>
</event>
<event>
 4    1  0.6502538E-008  0.8441670E+03  0.7818608E-02  0.9622373E-01
         -2   -1    0    0    0  501 -0.00000000000E+00  0.00000000000E+00  0.68512956419E+03  0.68512956419E+03  0.25500000000E-02 0.  1.
          2   -1    0    0  501    0  0.00000000000E+00 -0.00000000000E+00 -0.15312058118E+04  0.15312058118E+04  0.25500000000E-02 0. -1.
    8880023    1    1    2    0    0 -0.50598583877E+03  0.15095034845E+03 -0.12680398010E+04  0.15233328001E+04  0.65864270000E+03 0. -1.
    8880022    1    1    2    0    0  0.50598583877E+03 -0.15095034845E+03  0.42196355341E+03  0.69300257586E+03  0.15294330000E+03 0.  0.
<mgrwt>
<rscale>  0 0.75832951E+03</rscale>
<asrwt>0</asrwt>
<pdfrwt beam="1">  1        2 0.23557012E+00 0.84416698E+03</pdfrwt>
<pdfrwt beam="2">  1       -2 0.10540455E+00 0.84416698E+03</pdfrwt>
<totfact> 0.89917334E+00</totfact>
</mgrwt>
</event>
<event>
 4    1  0.6502538E-008  0.8318160E+03  0.7818608E-02  0.9645809E-01
         -2   -1    0    0    0  501 -0.00000000000E+00  0.00000000000E+00  0.98445037140E+03  0.98445037140E+03  0.25500000000E-02 0.  1.
          2   -1    0    0  501    0  0.00000000000E+00 -0.00000000000E+00 -0.63517231038E+03  0.63517231038E+03  0.25500000000E-02 0. -1.
    8880023    1    1    2    0    0 -0.24860518743E+03 -0.44306115500E+03 -0.20044215782E+03  0.85562549704E+03  0.65864270000E+03 0. -1.
    8880022    1    1    2    0    0  0.24860518743E+03  0.44306115500E+03  0.54972021884E+03  0.76399718475E+03  0.15294330000E+03 0.  0.
<mgrwt>
<rscale>  0 0.74337020E+03</rscale>
<asrwt>0</asrwt>
<pdfrwt beam="1">  1        2 0.97718817E-01 0.83181604E+03</pdfrwt>
<pdfrwt beam="2">  1       -2 0.15145390E+00 0.83181604E+03</pdfrwt>
<totfact> 0.13604020E+01</totfact>
</mgrwt>
</event>
<event>
 4    1  0.6502538E-008  0.7908509E+03  0.7818608E-02  0.9730939E-01
          2   -1    0    0  501    0  0.00000000000E+00  0.00000000000E+00  0.28215501866E+04  0.28215501866E+04  0.25500000000E-02 0. -1.
         -2   -1    0    0    0  501 -0.00000000000E+00 -0.00000000000E+00 -0.21505409563E+03  0.21505409565E+03  0.25500000000E-02 0.  1.
    8880023    1    1    2    0    0  0.36481902356E+03  0.24195464845E+03  0.24037556548E+04  0.25305110998E+04  0.65864270000E+03 0. -1.
    8880022    1    1    2    0    0 -0.36481902356E+03 -0.24195464845E+03  0.20274043616E+03  0.50609318246E+03  0.15294330000E+03 0.  0.
<mgrwt>
<rscale>  0 0.69204207E+03</rscale>
<asrwt>0</asrwt>
<pdfrwt beam="1">  1        2 0.43408463E+00 0.79085092E+03</pdfrwt>
<pdfrwt beam="2">  1       -2 0.33085246E-01 0.79085092E+03</pdfrwt>
<totfact> 0.20040989E+01</totfact>
</mgrwt>
</event>
<event>
 4    1  0.6502538E-008  0.7357137E+03  0.7818608E-02  0.9872613E-01
         -2   -1    0    0    0  501 -0.00000000000E+00  0.00000000000E+00  0.52085360712E+03  0.52085360713E+03  0.25500000000E-02 0.  1.
          2   -1    0    0  501    0  0.00000000000E+00 -0.00000000000E+00 -0.10166669781E+04  0.10166669781E+04  0.25500000000E-02 0. -1.
    8880023    1    1    2    0    0 -0.31049372936E+03  0.10515748949E+03 -0.78390898354E+03  0.10750757900E+04  0.65864270000E+03 0.  1.
    8880022    1    1    2    0    0  0.31049372936E+03 -0.10515748949E+03  0.28809561260E+03  0.46244479517E+03  0.15294330000E+03 0.  0.
<mgrwt>
<rscale>  0 0.61607117E+03</rscale>
<asrwt>0</asrwt>
<pdfrwt beam="1">  1        2 0.15641030E+00 0.73571371E+03</pdfrwt>
<pdfrwt beam="2">  1       -2 0.80131324E-01 0.73571371E+03</pdfrwt>
<totfact> 0.34440965E+01</totfact>
</mgrwt>
</event>
<event>
 4    1  0.6502538E-008  0.9716468E+03  0.7818608E-02  0.9419630E-01
         -2   -1    0    0    0  501 -0.00000000000E+00  0.00000000000E+00  0.63481859655E+03  0.63481859656E+03  0.25500000000E-02 0.  1.
          2   -1    0    0  501    0  0.00000000000E+00 -0.00000000000E+00 -0.31817119521E+04  0.31817119521E+04  0.25500000000E-02 0. -1.
    8880023    1    1    2    0    0 -0.49676455938E+03  0.51333453354E+03 -0.28608795850E+04  0.30213787543E+04  0.65864270000E+03 0. -1.
    8880022    1    1    2    0    0  0.49676455938E+03 -0.51333453354E+03  0.31398622945E+03  0.79515179436E+03  0.15294330000E+03 0.  0.
<mgrwt>
<rscale>  0 0.90477657E+03</rscale>
<asrwt>0</asrwt>
<pdfrwt beam="1">  1        2 0.48949413E+00 0.97164684E+03</pdfrwt>
<pdfrwt beam="2">  1       -2 0.97664402E-01 0.97164684E+03</pdfrwt>
<totfact> 0.11983409E+00</totfact>
</mgrwt>
</event>
<event>
 4    1  0.6502538E-008  0.8431762E+03  0.7818608E-02  0.9624220E-01
          2   -1    0    0  501    0  0.00000000000E+00  0.00000000000E+00  0.22752798220E+04  0.22752798220E+04  0.25500000000E-02 0. -1.
         -2   -1    0    0    0  501 -0.00000000000E+00 -0.00000000000E+00 -0.31494553258E+03  0.31494553259E+03  0.25500000000E-02 0.  1.
    8880023    1    1    2    0    0 -0.13632238977E+03  0.50848020693E+03  0.18470995101E+04  0.20304488965E+04  0.65864270000E+03 0. -1.
    8880022    1    1    2    0    0  0.13632238977E+03 -0.50848020693E+03  0.11323477934E+03  0.55977645812E+03  0.15294330000E+03 0.  0.
<mgrwt>
<rscale>  0 0.75713670E+03</rscale>
<asrwt>0</asrwt>
<pdfrwt beam="1">  1        2 0.35004305E+00 0.84317621E+03</pdfrwt>
<pdfrwt beam="2">  1       -2 0.48453158E-01 0.84317621E+03</pdfrwt>
<totfact> 0.19401995E+01</totfact>
</mgrwt>
</event>
<event>
 4    1  0.6502538E-008  0.1234933E+04  0.7818608E-02  0.9123891E-01
          2   -1    0    0  501    0  0.00000000000E+00  0.00000000000E+00  0.19856384074E+04  0.19856384074E+04  0.25500000000E-02 0. -1.
         -2   -1    0    0    0  501 -0.00000000000E+00 -0.00000000000E+00 -0.85332423866E+03  0.85332423867E+03  0.25500000000E-02 0.  1.
    8880023    1    1    2    0    0  0.10399459793E+04 -0.98806183492E+02  0.12733333115E+04  0.17738202361E+04  0.65864270000E+03 0.  0.
    8880022    1    1    2    0    0 -0.10399459793E+04  0.98806183492E+02 -0.14101914271E+03  0.10651424099E+04  0.15294330000E+03 0.  0.
<mgrwt>
<rscale>  0 0.11874753E+04</rscale>
<asrwt>0</asrwt>
<pdfrwt beam="1">  1        2 0.30548283E+00 0.12349334E+04</pdfrwt>
<pdfrwt beam="2">  1       -2 0.13128065E+00 0.12349334E+04</pdfrwt>
<totfact> 0.28003804E+00</totfact>
</mgrwt>
</event>
<event>
 4    1  0.6502538E-008  0.8919410E+03  0.7818608E-02  0.9539095E-01
         -2   -1    0    0    0  501 -0.00000000000E+00  0.00000000000E+00  0.12158960853E+04  0.12158960853E+04  0.25500000000E-02 0.  1.
          2   -1    0    0  501    0  0.00000000000E+00 -0.00000000000E+00 -0.84222615952E+03  0.84222615953E+03  0.25500000000E-02 0. -1.
    8880023    1    1    2    0    0  0.57664155584E+03  0.17097697453E+03 -0.47203270342E+03  0.10091450288E+04  0.65864270000E+03 0.  0.
    8880022    1    1    2    0    0 -0.57664155584E+03 -0.17097697453E+03  0.84570262918E+03  0.10489772160E+04  0.15294330000E+03 0.  0.
<mgrwt>
<rscale>  0 0.81461889E+03</rscale>
<asrwt>0</asrwt>
<pdfrwt beam="1">  1        2 0.12957326E+00 0.89194104E+03</pdfrwt>
<pdfrwt beam="2">  1       -2 0.18706094E+00 0.89194104E+03</pdfrwt>
<totfact> 0.52308794E+00</totfact>
</mgrwt>
</event>
<event>
 4    1  0.6502538E-008  0.7779329E+03  0.7818608E-02  0.9760715E-01
         -2   -1    0    0    0  501 -0.00000000000E+00  0.00000000000E+00  0.52603661882E+03  0.52603661882E+03  0.25500000000E-02 0.  1.
          2   -1    0    0  501    0  0.00000000000E+00 -0.00000000000E+00 -0.18114850976E+04  0.18114850976E+04  0.25500000000E-02 0. -1.
    8880023    1    1    2    0    0 -0.42459730179E+02  0.41178451733E+03 -0.16110839450E+04  0.17890698705E+04  0.65864270000E+03 0. -1.
    8880022    1    1    2    0    0  0.42459730179E+02 -0.41178451733E+03  0.32563546624E+03  0.54845184591E+03  0.15294330000E+03 0.  0.
<mgrwt>
<rscale>  0 0.67514076E+03</rscale>
<asrwt>0</asrwt>
<pdfrwt beam="1">  1        2 0.27869001E+00 0.77793285E+03</pdfrwt>
<pdfrwt beam="2">  1       -2 0.80928711E-01 0.77793285E+03</pdfrwt>
<totfact> 0.11759185E+01</totfact>
</mgrwt>
</event>
<event>
 4    1  0.6502538E-008  0.7039111E+03  0.7818608E-02  0.9981348E-01
         -2   -1    0    0    0  501 -0.00000000000E+00  0.00000000000E+00  0.53229003667E+03  0.53229003667E+03  0.25500000000E-02 0.  1.
          2   -1    0    0  501    0  0.00000000000E+00 -0.00000000000E+00 -0.71383247837E+03  0.71383247837E+03  0.25500000000E-02 0. -1.
    8880023    1    1    2    0    0  0.66400434415E+02  0.23931478626E+03 -0.46160194338E+03  0.84176430490E+03  0.65864270000E+03 0. -1.
    8880022    1    1    2    0    0 -0.66400434415E+02 -0.23931478626E+03  0.28005950168E+03  0.40435821014E+03  0.15294330000E+03 0.  0.
<mgrwt>
<rscale>  0 0.56475727E+03</rscale>
<asrwt>0</asrwt>
<pdfrwt beam="1">  1        2 0.10982038E+00 0.70391107E+03</pdfrwt>
<pdfrwt beam="2">  1       -2 0.81890775E-01 0.70391107E+03</pdfrwt>
<totfact> 0.53273707E+01</totfact>
</mgrwt>
</event>
<event>
 4    1  0.6502538E-008  0.7600468E+03  0.7818608E-02  0.9804986E-01
         -2   -1    0    0    0  501 -0.00000000000E+00  0.00000000000E+00  0.51898043326E+03  0.51898043327E+03  0.25500000000E-02 0.  1.
          2   -1    0    0  501    0  0.00000000000E+00 -0.00000000000E+00 -0.23101721157E+04  0.23101721157E+04  0.25500000000E-02 0. -1.
    8880023    1    1    2    0    0  0.19583912511E+03 -0.32481981925E+03 -0.21529359931E+04  0.22831566908E+04  0.65864270000E+03 0.  0.
    8880022    1    1    2    0    0 -0.19583912511E+03  0.32481981925E+03  0.36174431064E+03  0.54599585823E+03  0.15294330000E+03 0.  0.
<mgrwt>
<rscale>  0 0.65095628E+03</rscale>
<asrwt>0</asrwt>
<pdfrwt beam="1">  1        2 0.35541109E+00 0.76004676E+03</pdfrwt>
<pdfrwt beam="2">  1       -2 0.79843145E-01 0.76004676E+03</pdfrwt>
<totfact> 0.64737992E+00</totfact>
</mgrwt>
</event>
<event>
 4    1  0.6502538E-008  0.7624529E+03  0.7818608E-02  0.9798798E-01
         -2   -1    0    0    0  501 -0.00000000000E+00  0.00000000000E+00  0.80211407224E+03  0.80211407225E+03  0.25500000000E-02 0.  1.
          2   -1    0    0  501    0  0.00000000000E+00 -0.00000000000E+00 -0.27031499551E+04  0.27031499551E+04  0.25500000000E-02 0. -1.
    8880023    1    1    2    0    0  0.35768152410E+03 -0.13995750877E+03 -0.25910370367E+04  0.27008900956E+04  0.65864270000E+03 0. -1.
    8880022    1    1    2    0    0 -0.35768152410E+03  0.13995750877E+03  0.69000115375E+03  0.80437393179E+03  0.15294330000E+03 0.  0.
<mgrwt>
<rscale>  0 0.65427080E+03</rscale>
<asrwt>0</asrwt>
<pdfrwt beam="1">  1        2 0.41586922E+00 0.76245287E+03</pdfrwt>
<pdfrwt beam="2">  1       -2 0.12340217E+00 0.76245287E+03</pdfrwt>
<totfact> 0.13812902E+00</totfact>
</mgrwt>
</event>
<event>
 4    1  0.6502538E-008  0.6884004E+03  0.7818608E-02  0.1004922E+00
         -2   -1    0    0    0  501 -0.00000000000E+00  0.00000000000E+00  0.47361460956E+03  0.47361460956E+03  0.25500000000E-02 0.  1.
          2   -1    0    0  501    0  0.00000000000E+00 -0.00000000000E+00 -0.34809554086E+04  0.34809554086E+04  0.25500000000E-02 0. -1.
    8880023    1    1    2    0    0  0.11917128343E+03  0.16088218147E+03 -0.34104335763E+04  0.34792171901E+04  0.65864270000E+03 0. -1.
    8880022    1    1    2    0    0 -0.11917128343E+03 -0.16088218147E+03  0.40309277724E+03  0.47535282810E+03  0.15294330000E+03 0.  0.
<mgrwt>
<rscale>  0 0.53543588E+03</rscale>
<asrwt>0</asrwt>
<pdfrwt beam="1">  1        2 0.53553158E+00 0.68840038E+03</pdfrwt>
<pdfrwt beam="2">  1       -2 0.72863788E-01 0.68840038E+03</pdfrwt>
<totfact> 0.15742781E+00</totfact>
</mgrwt>
</event>
<event>
 4    1  0.6502538E-008  0.9302557E+03  0.7818608E-02  0.9479110E-01
          2   -1    0    0  501    0  0.00000000000E+00  0.00000000000E+00  0.10538132823E+04  0.10538132823E+04  0.25500000000E-02 0. -1.
         -2   -1    0    0    0  501 -0.00000000000E+00 -0.00000000000E+00 -0.13831536433E+04  0.13831536433E+04  0.25500000000E-02 0.  1.
    8880023    1    1    2    0    0 -0.39230069193E+03 -0.52693992108E+03  0.72906187627E+03  0.11819081771E+04  0.65864270000E+03 0.  0.
    8880022    1    1    2    0    0  0.39230069193E+03  0.52693992108E+03 -0.10584022373E+04  0.12550587485E+04  0.15294330000E+03 0.  0.
<mgrwt>
<rscale>  0 0.85841654E+03</rscale>
<asrwt>0</asrwt>
<pdfrwt beam="1">  1        2 0.16212512E+00 0.93025573E+03</pdfrwt>
<pdfrwt beam="2">  1       -2 0.21279287E+00 0.93025573E+03</pdfrwt>
<totfact> 0.25613440E+00</totfact>
</mgrwt>
</event>
<event>
 4    1  0.6502538E-008  0.1110626E+04  0.7818608E-02  0.9249316E-01
         -2   -1    0    0    0  501 -0.00000000000E+00  0.00000000000E+00  0.70807250385E+03  0.70807250385E+03  0.25500000000E-02 0.  1.
          2   -1    0    0  501    0  0.00000000000E+00 -0.00000000000E+00 -0.17345727145E+04  0.17345727145E+04  0.25500000000E-02 0. -1.
    8880023    1    1    2    0    0  0.48278280501E+03  0.75272922633E+03 -0.10593282039E+04  0.15348182221E+04  0.65864270000E+03 0.  0.
    8880022    1    1    2    0    0 -0.48278280501E+03 -0.75272922633E+03  0.32827993274E+02  0.90782699626E+03  0.15294330000E+03 0.  0.
<mgrwt>
<rscale>  0 0.10558584E+04</rscale>
<asrwt>0</asrwt>
<pdfrwt beam="1">  1        2 0.26685734E+00 0.11106263E+04</pdfrwt>
<pdfrwt beam="2">  1       -2 0.10893423E+00 0.11106263E+04</pdfrwt>
<totfact> 0.62171739E+00</totfact>
</mgrwt>
</event>
<event>
 4    1  0.6502538E-008  0.1016197E+04  0.7818608E-02  0.9360667E-01
         -2   -1    0    0    0  501 -0.00000000000E+00  0.00000000000E+00  0.10883370707E+04  0.10883370707E+04  0.25500000000E-02 0.  1.
          2   -1    0    0  501    0  0.00000000000E+00 -0.00000000000E+00 -0.19809427059E+04  0.19809427059E+04  0.25500000000E-02 0. -1.
    8880023    1    1    2    0    0 -0.24496079227E+03 -0.73405724237E+03 -0.16744232161E+04  0.19586600362E+04  0.65864270000E+03 0.  0.
    8880022    1    1    2    0    0  0.24496079227E+03  0.73405724237E+03  0.78181758085E+03  0.11106197403E+04  0.15294330000E+03 0.  0.
<mgrwt>
<rscale>  0 0.95384521E+03</rscale>
<asrwt>0</asrwt>
<pdfrwt beam="1">  1        2 0.30476042E+00 0.10161968E+04</pdfrwt>
<pdfrwt beam="2">  1       -2 0.16743647E+00 0.10161968E+04</pdfrwt>
<totfact> 0.15146104E+00</totfact>
</mgrwt>
</event>
<event>
 4    1  0.6502538E-008  0.7285814E+03  0.7818608E-02  0.9894552E-01
         -2   -1    0    0    0  501 -0.00000000000E+00  0.00000000000E+00  0.35114816495E+03  0.35114816496E+03  0.25500000000E-02 0.  1.
          2   -1    0    0  501    0  0.00000000000E+00 -0.00000000000E+00 -0.14399209122E+04  0.14399209122E+04  0.25500000000E-02 0. -1.
    8880023    1    1    2    0    0 -0.29728630681E+03  0.92959684400E+02 -0.12192434388E+04  0.14203469366E+04  0.65864270000E+03 0. -1.
    8880022    1    1    2    0    0  0.29728630681E+03 -0.92959684400E+02  0.13047069151E+03  0.37072214055E+03  0.15294330000E+03 0.  0.
<mgrwt>
<rscale>  0 0.60526062E+03</rscale>
<asrwt>0</asrwt>
<pdfrwt beam="1">  1        2 0.22152629E+00 0.72858140E+03</pdfrwt>
<pdfrwt beam="2">  1       -2 0.54022795E-01 0.72858140E+03</pdfrwt>
<totfact> 0.45348966E+01</totfact>
</mgrwt>
</event>
<event>
 4    1  0.6502538E-008  0.1343067E+04  0.7818608E-02  0.9029234E-01
         -2   -1    0    0    0  501 -0.00000000000E+00  0.00000000000E+00  0.15480370237E+04  0.15480370237E+04  0.25500000000E-02 0.  1.
          2   -1    0    0  501    0  0.00000000000E+00 -0.00000000000E+00 -0.16673109784E+04  0.16673109784E+04  0.25500000000E-02 0. -1.
    8880023    1    1    2    0    0  0.50180614713E+03 -0.10574537845E+04 -0.10559284863E+04  0.17084534205E+04  0.65864270000E+03 0.  0.
    8880022    1    1    2    0    0 -0.50180614713E+03  0.10574537845E+04  0.93665453159E+03  0.15068945816E+04  0.15294330000E+03 0.  0.
<mgrwt>
<rscale>  0 0.13004182E+04</rscale>
<asrwt>0</asrwt>
<pdfrwt beam="1">  1        2 0.25650938E+00 0.13430667E+04</pdfrwt>
<pdfrwt beam="2">  1       -2 0.23815954E+00 0.13430667E+04</pdfrwt>
<totfact> 0.74263704E-01</totfact>
</mgrwt>
</event>
<event>
 4    1  0.6502538E-008  0.9186834E+03  0.7818608E-02  0.9496681E-01
          2   -1    0    0  501    0  0.00000000000E+00  0.00000000000E+00  0.11579963884E+04  0.11579963884E+04  0.25500000000E-02 0. -1.
         -2   -1    0    0    0  501 -0.00000000000E+00 -0.00000000000E+00 -0.95800675566E+03  0.95800675567E+03  0.25500000000E-02 0.  1.
    8880023    1    1    2    0    0  0.56528477752E+03  0.30103502199E+03  0.80524285024E+03  0.12216362872E+04  0.65864270000E+03 0.  0.
    8880022    1    1    2    0    0 -0.56528477752E+03 -0.30103502199E+03 -0.60525321755E+03  0.89436685679E+03  0.15294330000E+03 0.  0.
<mgrwt>
<rscale>  0 0.84528980E+03</rscale>
<asrwt>0</asrwt>
<pdfrwt beam="1">  1        2 0.17815329E+00 0.91868339E+03</pdfrwt>
<pdfrwt beam="2">  1       -2 0.14738565E+00 0.91868339E+03</pdfrwt>
<totfact> 0.63009376E+00</totfact>
</mgrwt>
</event>
<event>
 4    1  0.6502538E-008  0.1121931E+04  0.7818608E-02  0.9237023E-01
         -2   -1    0    0    0  501 -0.00000000000E+00  0.00000000000E+00  0.10403651051E+04  0.10403651051E+04  0.25500000000E-02 0.  1.
          2   -1    0    0  501    0  0.00000000000E+00 -0.00000000000E+00 -0.18771536289E+04  0.18771536289E+04  0.25500000000E-02 0. -1.
    8880023    1    1    2    0    0 -0.27370133558E+03  0.86602856508E+03 -0.14333012623E+04  0.18201869716E+04  0.65864270000E+03 0.  0.
    8880022    1    1    2    0    0  0.27370133558E+03 -0.86602856508E+03  0.59651273854E+03  0.10973317625E+04  0.15294330000E+03 0.  0.
<mgrwt>
<rscale>  0 0.10679324E+04</rscale>
<asrwt>0</asrwt>
<pdfrwt beam="1">  1        2 0.28879287E+00 0.11219305E+04</pdfrwt>
<pdfrwt beam="2">  1       -2 0.16005617E+00 0.11219305E+04</pdfrwt>
<totfact> 0.19297563E+00</totfact>
</mgrwt>
</event>
<event>
 4    1  0.6502538E-008  0.6693420E+03  0.7818608E-02  0.1016139E+00
         -2   -1    0    0    0  501 -0.00000000000E+00  0.00000000000E+00  0.47160359804E+03  0.47160359805E+03  0.25500000000E-02 0.  1.
          2   -1    0    0  501    0  0.00000000000E+00 -0.00000000000E+00 -0.16205345627E+04  0.16205345627E+04  0.25500000000E-02 0. -1.
    8880023    1    1    2    0    0 -0.87670661187E+02 -0.80761467672E+02 -0.15269916048E+04  0.16672498694E+04  0.65864270000E+03 0. -1.
    8880022    1    1    2    0    0  0.87670661187E+02  0.80761467672E+02  0.37806064016E+03  0.42488829138E+03  0.15294330000E+03 0.  0.
<mgrwt>
<rscale>  0 0.49106034E+03</rscale>
<asrwt>0</asrwt>
<pdfrwt beam="1">  1        2 0.24931301E+00 0.66934204E+03</pdfrwt>
<pdfrwt beam="2">  1       -2 0.72554401E-01 0.66934204E+03</pdfrwt>
<totfact> 0.19361531E+01</totfact>
</mgrwt>
</event>
<event>
 4    1  0.6502538E-008  0.1141180E+04  0.7818608E-02  0.9216535E-01
         -2   -1    0    0    0  501 -0.00000000000E+00  0.00000000000E+00  0.13839081600E+04  0.13839081600E+04  0.25500000000E-02 0.  1.
          2   -1    0    0  501    0  0.00000000000E+00 -0.00000000000E+00 -0.13381228153E+04  0.13381228153E+04  0.25500000000E-02 0. -1.
    8880023    1    1    2    0    0  0.69767156552E+03  0.61784858153E+03 -0.84799479680E+03  0.14217552056E+04  0.65864270000E+03 0.  0.
    8880022    1    1    2    0    0 -0.69767156552E+03 -0.61784858153E+03  0.89378014148E+03  0.13002757697E+04  0.15294330000E+03 0.  0.
<mgrwt>
<rscale>  0 0.10884379E+04</rscale>
<asrwt>0</asrwt>
<pdfrwt beam="1">  1        2 0.20586505E+00 0.11411804E+04</pdfrwt>
<pdfrwt beam="2">  1       -2 0.21290895E+00 0.11411804E+04</pdfrwt>
<totfact> 0.16830202E+00</totfact>
</mgrwt>
</event>
<event>
 4    1  0.6502538E-008  0.9467537E+03  0.7818608E-02  0.9454800E-01
          2   -1    0    0  501    0  0.00000000000E+00  0.00000000000E+00  0.18468107620E+04  0.18468107620E+04  0.25500000000E-02 0. -1.
         -2   -1    0    0    0  501 -0.00000000000E+00 -0.00000000000E+00 -0.63796916853E+03  0.63796916853E+03  0.25500000000E-02 0.  1.
    8880023    1    1    2    0    0  0.57543433580E+03  0.36250192607E+03  0.14631632349E+04  0.17427533329E+04  0.65864270000E+03 0.  0.
    8880022    1    1    2    0    0 -0.57543433580E+03 -0.36250192607E+03 -0.25432164144E+03  0.74202659759E+03  0.15294330000E+03 0.  1.
<mgrwt>
<rscale>  0 0.87699838E+03</rscale>
<asrwt>0</asrwt>
<pdfrwt beam="1">  1        2 0.28412473E+00 0.94675368E+03</pdfrwt>
<pdfrwt beam="2">  1       -2 0.98149102E-01 0.94675368E+03</pdfrwt>
<totfact> 0.70517294E+00</totfact>
</mgrwt>
</event>
<event>
 4    1  0.6502538E-008  0.1511646E+04  0.7818608E-02  0.8901456E-01
         -2   -1    0    0    0  501 -0.00000000000E+00  0.00000000000E+00  0.80291169113E+03  0.80291169113E+03  0.25500000000E-02 0.  1.
          2   -1    0    0  501    0  0.00000000000E+00 -0.00000000000E+00 -0.37849237833E+04  0.37849237833E+04  0.25500000000E-02 0. -1.
    8880023    1    1    2    0    0  0.93174358349E+03 -0.99152311480E+03 -0.28323551641E+04  0.32104999882E+04  0.65864270000E+03 0.  0.
    8880022    1    1    2    0    0 -0.93174358349E+03  0.99152311480E+03 -0.14965692814E+03  0.13773354863E+04  0.15294330000E+03 0.  0.
<mgrwt>
<rscale>  0 0.14746971E+04</rscale>
<asrwt>0</asrwt>
<pdfrwt beam="1">  1        2 0.58229596E+00 0.15116463E+04</pdfrwt>
<pdfrwt beam="2">  1       -2 0.12352488E+00 0.15116463E+04</pdfrwt>
<totfact> 0.23915489E-01</totfact>
</mgrwt>
</event>
<event>
 4    1  0.6502538E-008  0.1285884E+04  0.7818608E-02  0.9077846E-01
         -2   -1    0    0    0  501 -0.00000000000E+00  0.00000000000E+00  0.55320981855E+03  0.55320981856E+03  0.25500000000E-02 0.  1.
          2   -1    0    0  501    0  0.00000000000E+00 -0.00000000000E+00 -0.26769167940E+04  0.26769167940E+04  0.25500000000E-02 0. -1.
    8880023    1    1    2    0    0 -0.34703082356E+03  0.10484551487E+04 -0.13999154075E+04  0.19008582130E+04  0.65864270000E+03 0. -1.
    8880022    1    1    2    0    0  0.34703082356E+03 -0.10484551487E+04 -0.72379156790E+03  0.13292683996E+04  0.15294330000E+03 0.  1.
<mgrwt>
<rscale>  0 0.12408345E+04</rscale>
<asrwt>0</asrwt>
<pdfrwt beam="1">  1        2 0.41183335E+00 0.12858844E+04</pdfrwt>
<pdfrwt beam="2">  1       -2 0.85109204E-01 0.12858844E+04</pdfrwt>
<totfact> 0.32212251E+00</totfact>
</mgrwt>
</event>
<event>
 4    1  0.6502538E-008  0.1142494E+04  0.7818608E-02  0.9215156E-01
          2   -1    0    0  501    0  0.00000000000E+00  0.00000000000E+00  0.17703077168E+04  0.17703077168E+04  0.25500000000E-02 0. -1.
         -2   -1    0    0    0  501 -0.00000000000E+00 -0.00000000000E+00 -0.12468145317E+04  0.12468145317E+04  0.25500000000E-02 0.  1.
    8880023    1    1    2    0    0 -0.86006204789E+02  0.92956221420E+03  0.13446355245E+04  0.17644653234E+04  0.65864270000E+03 0. -1.
    8880022    1    1    2    0    0  0.86006204789E+02 -0.92956221420E+03 -0.82114233944E+03  0.12526569251E+04  0.15294330000E+03 0.  0.
<mgrwt>
<rscale>  0 0.10898351E+04</rscale>
<asrwt>0</asrwt>
<pdfrwt beam="1">  1        2 0.27235503E+00 0.11424943E+04</pdfrwt>
<pdfrwt beam="2">  1       -2 0.19181762E+00 0.11424943E+04</pdfrwt>
<totfact> 0.13198857E+00</totfact>
</mgrwt>
</event>
<event>
 4    1  0.6502538E-008  0.7946136E+03  0.7818608E-02  0.9722566E-01
         -2   -1    0    0    0  501 -0.00000000000E+00  0.00000000000E+00  0.10076823397E+04  0.10076823397E+04  0.25500000000E-02 0.  1.
          2   -1    0    0  501    0  0.00000000000E+00 -0.00000000000E+00 -0.18847999769E+04  0.18847999769E+04  0.25500000000E-02 0. -1.
    8880023    1    1    2    0    0 -0.21319435168E+03  0.39006237456E+03 -0.17383217244E+04  0.19113275783E+04  0.65864270000E+03 0. -1.
    8880022    1    1    2    0    0  0.21319435168E+03 -0.39006237456E+03  0.86120408723E+03  0.98115473831E+03  0.15294330000E+03 0.  0.
<mgrwt>
<rscale>  0 0.69688975E+03</rscale>
<asrwt>0</asrwt>
<pdfrwt beam="1">  1        2 0.28996923E+00 0.79461355E+03</pdfrwt>
<pdfrwt beam="2">  1       -2 0.15502805E+00 0.79461355E+03</pdfrwt>
<totfact> 0.21827348E+00</totfact>
</mgrwt>
</event>
<event>
 4    1  0.6502538E-008  0.7459868E+03  0.7818608E-02  0.9842839E-01
         -2   -1    0    0    0  501 -0.00000000000E+00  0.00000000000E+00  0.13211606811E+04  0.13211606811E+04  0.25500000000E-02 0.  1.
          2   -1    0    0  501    0  0.00000000000E+00 -0.00000000000E+00 -0.26582605682E+03  0.26582605683E+03  0.25500000000E-02 0. -1.
    8880023    1    1    2    0    0 -0.21414979911E+03 -0.27717495953E+03  0.45034568724E+03  0.87138254454E+03  0.65864270000E+03 0. -1.
    8880022    1    1    2    0    0  0.21414979911E+03  0.27717495953E+03  0.60498893701E+03  0.71560419337E+03  0.15294330000E+03 0.  0.
<mgrwt>
<rscale>  0 0.63113369E+03</rscale>
<asrwt>0</asrwt>
<pdfrwt beam="1">  1        2 0.40896316E-01 0.74598680E+03</pdfrwt>
<pdfrwt beam="2">  1       -2 0.20325549E+00 0.74598680E+03</pdfrwt>
<totfact> 0.16196422E+01</totfact>
</mgrwt>
</event>
<event>
 4    1  0.6502538E-008  0.1023302E+04  0.7818608E-02  0.9351687E-01
         -2   -1    0    0    0  501 -0.00000000000E+00  0.00000000000E+00  0.66061123186E+03  0.66061123187E+03  0.25500000000E-02 0.  1.
          2   -1    0    0  501    0  0.00000000000E+00 -0.00000000000E+00 -0.12805482927E+04  0.12805482928E+04  0.25500000000E-02 0. -1.
    8880023    1    1    2    0    0 -0.58391154627E+02  0.78097851194E+03 -0.48291656398E+03  0.11315279833E+04  0.65864270000E+03 0.  0.
    8880022    1    1    2    0    0  0.58391154627E+02 -0.78097851194E+03 -0.13702049691E+03  0.80963154128E+03  0.15294330000E+03 0.  1.
<mgrwt>
<rscale>  0 0.96160606E+03</rscale>
<asrwt>0</asrwt>
<pdfrwt beam="1">  1        2 0.19700743E+00 0.10233021E+04</pdfrwt>
<pdfrwt beam="2">  1       -2 0.10163250E+00 0.10233021E+04</pdfrwt>
<totfact> 0.13381659E+01</totfact>
</mgrwt>
</event>
<event>
 4    1  0.6502538E-008  0.9724191E+03  0.7818608E-02  0.9418566E-01
         -2   -1    0    0    0  501 -0.00000000000E+00  0.00000000000E+00  0.49947483168E+03  0.49947483169E+03  0.25500000000E-02 0.  1.
          2   -1    0    0  501    0  0.00000000000E+00 -0.00000000000E+00 -0.23266083295E+04  0.23266083295E+04  0.25500000000E-02 0. -1.
    8880023    1    1    2    0    0 -0.54151629055E+03 -0.46749195460E+03 -0.18545295625E+04  0.20940102017E+04  0.65864270000E+03 0.  0.
    8880022    1    1    2    0    0  0.54151629055E+03  0.46749195460E+03  0.27396064690E+02  0.73207295943E+03  0.15294330000E+03 0.  0.
<mgrwt>
<rscale>  0 0.90563377E+03</rscale>
<asrwt>0</asrwt>
<pdfrwt beam="1">  1        2 0.35793974E+00 0.97241906E+03</pdfrwt>
<pdfrwt beam="2">  1       -2 0.76842283E-01 0.97241906E+03</pdfrwt>
<totfact> 0.66962666E+00</totfact>
</mgrwt>
</event>
<event>
 4    1  0.6502538E-008  0.1226484E+04  0.7818608E-02  0.9131798E-01
         -2   -1    0    0    0  501 -0.00000000000E+00  0.00000000000E+00  0.10321458780E+04  0.10321458780E+04  0.25500000000E-02 0.  1.
          2   -1    0    0  501    0  0.00000000000E+00 -0.00000000000E+00 -0.13603188611E+04  0.13603188611E+04  0.25500000000E-02 0. -1.
    8880023    1    1    2    0    0  0.45178625753E+03 -0.93077493854E+03 -0.51467623017E+03  0.13300957247E+04  0.65864270000E+03 0.  0.
    8880022    1    1    2    0    0 -0.45178625753E+03  0.93077493854E+03  0.18650324705E+03  0.10623690145E+04  0.15294330000E+03 0.  0.
<mgrwt>
<rscale>  0 0.11785984E+04</rscale>
<asrwt>0</asrwt>
<pdfrwt beam="1">  1        2 0.20927982E+00 0.12264840E+04</pdfrwt>
<pdfrwt beam="2">  1       -2 0.15879167E+00 0.12264840E+04</pdfrwt>
<totfact> 0.38014249E+00</totfact>
</mgrwt>
</event>
<event>
 4    1  0.6502538E-008  0.7424131E+03  0.7818608E-02  0.9852973E-01
          2   -1    0    0  501    0  0.00000000000E+00  0.00000000000E+00  0.18374065306E+04  0.18374065306E+04  0.25500000000E-02 0. -1.
         -2   -1    0    0    0  501 -0.00000000000E+00 -0.00000000000E+00 -0.37576728365E+03  0.37576728365E+03  0.25500000000E-02 0.  1.
    8880023    1    1    2    0    0 -0.26031265892E+03  0.22272020541E+03  0.16381628671E+04  0.17985423975E+04  0.65864270000E+03 0. -1.
    8880022    1    1    2    0    0  0.26031265892E+03 -0.22272020541E+03 -0.17652362011E+03  0.41463141676E+03  0.15294330000E+03 0.  0.
<mgrwt>
<rscale>  0 0.62595568E+03</rscale>
<asrwt>0</asrwt>
<pdfrwt beam="1">  1        2 0.28267793E+00 0.74241308E+03</pdfrwt>
<pdfrwt beam="2">  1       -2 0.57810351E-01 0.74241308E+03</pdfrwt>
<totfact> 0.23759373E+01</totfact>
</mgrwt>
</event>
<event>
 4    1  0.6502538E-008  0.6674991E+03  0.7818608E-02  0.1017523E+00
         -2   -1    0    0    0  501 -0.00000000000E+00  0.00000000000E+00  0.46100093984E+03  0.46100093984E+03  0.25500000000E-02 0.  1.
          2   -1    0    0  501    0  0.00000000000E+00 -0.00000000000E+00 -0.13041235096E+04  0.13041235096E+04  0.25500000000E-02 0. -1.
    8880023    1    1    2    0    0 -0.94764247877E+02 -0.52579601212E+02 -0.11936587629E+04  0.13676170245E+04  0.65864270000E+03 0. -1.
    8880022    1    1    2    0    0  0.94764247877E+02  0.52579601212E+02  0.35053619317E+03  0.39750742493E+03  0.15294330000E+03 0.  0.
<mgrwt>
<rscale>  0 0.48591229E+03</rscale>
<asrwt>0</asrwt>
<pdfrwt beam="1">  1        2 0.20063439E+00 0.66749913E+03</pdfrwt>
<pdfrwt beam="2">  1       -2 0.70923222E-01 0.66749913E+03</pdfrwt>
<totfact> 0.30581626E+01</totfact>
</mgrwt>
</event>
<event>
 4    1  0.6502538E-008  0.7458148E+03  0.7818608E-02  0.9843322E-01
          2   -1    0    0  501    0  0.00000000000E+00  0.00000000000E+00  0.25150810529E+04  0.25150810529E+04  0.25500000000E-02 0. -1.
         -2   -1    0    0    0  501 -0.00000000000E+00 -0.00000000000E+00 -0.83931891439E+03  0.83931891440E+03  0.25500000000E-02 0.  1.
    8880023    1    1    2    0    0 -0.12525032870E+03 -0.32671364611E+03  0.24121884612E+04  0.25248550117E+04  0.65864270000E+03 0. -1.
    8880022    1    1    2    0    0  0.12525032870E+03  0.32671364611E+03 -0.73642632277E+03  0.82954495555E+03  0.15294330000E+03 0.  0.
<mgrwt>
<rscale>  0 0.63088584E+03</rscale>
<asrwt>0</asrwt>
<pdfrwt beam="1">  1        2 0.38693554E+00 0.74581476E+03</pdfrwt>
<pdfrwt beam="2">  1       -2 0.12912599E+00 0.74581476E+03</pdfrwt>
<totfact> 0.15864348E+00</totfact>
</mgrwt>
</event>
<event>
 4    1  0.6502538E-008  0.1687939E+04  0.7818608E-02  0.8787196E-01
         -2   -1    0    0    0  501 -0.00000000000E+00  0.00000000000E+00  0.14023730216E+04  0.14023730216E+04  0.25500000000E-02 0.  1.
          2   -1    0    0  501    0  0.00000000000E+00 -0.00000000000E+00 -0.21965622181E+04  0.21965622181E+04  0.25500000000E-02 0. -1.
    8880023    1    1    2    0    0  0.91814021598E+03  0.12539325682E+04  0.26968275641E+03  0.17093470499E+04  0.65864270000E+03 0.  0.
    8880022    1    1    2    0    0 -0.91814021598E+03 -0.12539325682E+04 -0.10638719530E+04  0.18895881898E+04  0.15294330000E+03 0.  0.
<mgrwt>
<rscale>  0 0.16554377E+04</rscale>
<asrwt>0</asrwt>
<pdfrwt beam="1">  1        2 0.33793265E+00 0.16879391E+04</pdfrwt>
<pdfrwt beam="2">  1       -2 0.21574970E+00 0.16879391E+04</pdfrwt>
<totfact> 0.50230545E-01</totfact>
</mgrwt>
</event>
<event>
 4    1  0.6502538E-008  0.1042733E+04  0.7818608E-02  0.9327668E-01
         -2   -1    0    0    0  501 -0.00000000000E+00  0.00000000000E+00  0.81229010516E+03  0.81229010516E+03  0.25500000000E-02 0.  1.
          2   -1    0    0  501    0  0.00000000000E+00 -0.00000000000E+00 -0.11858239611E+04  0.11858239611E+04  0.25500000000E-02 0. -1.
    8880023    1    1    2    0    0 -0.72414543840E+01 -0.80835030289E+03  0.10222927293E+03  0.10477326383E+04  0.65864270000E+03 0.  1.
    8880022    1    1    2    0    0  0.72414543840E+01  0.80835030289E+03 -0.47576312888E+03  0.95038142798E+03  0.15294330000E+03 0. -1.
<mgrwt>
<rscale>  0 0.98275091E+03</rscale>
<asrwt>0</asrwt>
<pdfrwt beam="1">  1        2 0.18243446E+00 0.10427334E+04</pdfrwt>
<pdfrwt beam="2">  1       -2 0.12496771E+00 0.10427334E+04</pdfrwt>
<totfact> 0.91602326E+00</totfact>
</mgrwt>
</event>
<event>
 4    1  0.6502538E-008  0.7300286E+03  0.7818608E-02  0.9890007E-01
          2   -1    0    0  501    0  0.00000000000E+00  0.00000000000E+00  0.18239319197E+04  0.18239319197E+04  0.25500000000E-02 0. -1.
         -2   -1    0    0    0  501 -0.00000000000E+00 -0.00000000000E+00 -0.22172173580E+03  0.22172173581E+03  0.25500000000E-02 0.  1.
    8880023    1    1    2    0    0  0.30915177351E+03  0.59638418233E+02  0.15198138699E+04  0.16860533697E+04  0.65864270000E+03 0. -1.
    8880022    1    1    2    0    0 -0.30915177351E+03 -0.59638418233E+02  0.82396313987E+02  0.35960028583E+03  0.15294330000E+03 0.  0.
<mgrwt>
<rscale>  0 0.60748031E+03</rscale>
<asrwt>0</asrwt>
<pdfrwt beam="1">  1        2 0.28060491E+00 0.73002861E+03</pdfrwt>
<pdfrwt beam="2">  1       -2 0.34111036E-01 0.73002861E+03</pdfrwt>
<totfact> 0.69172654E+01</totfact>
</mgrwt>
</event>
<event>
 4    1  0.6502538E-008  0.1166436E+04  0.7818608E-02  0.9190460E-01
          2   -1    0    0  501    0  0.00000000000E+00  0.00000000000E+00  0.19339176632E+04  0.19339176632E+04  0.25500000000E-02 0. -1.
         -2   -1    0    0    0  501 -0.00000000000E+00 -0.00000000000E+00 -0.79088424547E+03  0.79088424548E+03  0.25500000000E-02 0.  1.
    8880023    1    1    2    0    0  0.96215083461E+03  0.32058279907E+02  0.12898520541E+04  0.17390487312E+04  0.65864270000E+03 0.  0.
    8880022    1    1    2    0    0 -0.96215083461E+03 -0.32058279907E+02 -0.14681863638E+03  0.98575317745E+03  0.15294330000E+03 0.  0.
<mgrwt>
<rscale>  0 0.11152438E+04</rscale>
<asrwt>0</asrwt>
<pdfrwt beam="1">  1        2 0.29752579E+00 0.11664357E+04</pdfrwt>
<pdfrwt beam="2">  1       -2 0.12167450E+00 0.11664357E+04</pdfrwt>
<totfact> 0.36523269E+00</totfact>
</mgrwt>
</event>
<event>
 4    1  0.6502538E-008  0.1199319E+04  0.7818608E-02  0.9157784E-01
         -2   -1    0    0    0  501 -0.00000000000E+00  0.00000000000E+00  0.22571683870E+04  0.22571683870E+04  0.25500000000E-02 0.  1.
          2   -1    0    0  501    0  0.00000000000E+00 -0.00000000000E+00 -0.95236073057E+03  0.95236073057E+03  0.25500000000E-02 0. -1.
    8880023    1    1    2    0    0 -0.10319634051E+03  0.99694903125E+03 -0.36708081567E+03  0.12542389673E+04  0.65864270000E+03 0.  0.
    8880022    1    1    2    0    0  0.10319634051E+03 -0.99694903125E+03  0.16718884721E+04  0.19552901503E+04  0.15294330000E+03 0.  0.
<mgrwt>
<rscale>  0 0.11499993E+04</rscale>
<asrwt>0</asrwt>
<pdfrwt beam="1">  1        2 0.14651704E+00 0.11993194E+04</pdfrwt>
<pdfrwt beam="2">  1       -2 0.34725667E+00 0.11993194E+04</pdfrwt>
<totfact> 0.43059020E-01</totfact>
</mgrwt>
</event>
<event>
 4    1  0.6502538E-008  0.1250760E+04  0.7818608E-02  0.9109293E-01
          2   -1    0    0  501    0  0.00000000000E+00  0.00000000000E+00  0.98505197934E+03  0.98505197935E+03  0.25500000000E-02 0. -1.
         -2   -1    0    0    0  501 -0.00000000000E+00 -0.00000000000E+00 -0.15159470826E+04  0.15159470826E+04  0.25500000000E-02 0.  1.
    8880023    1    1    2    0    0  0.93179602877E+03 -0.51219826244E+03  0.10076748047E+03  0.12548128110E+04  0.65864270000E+03 0.  0.
    8880022    1    1    2    0    0 -0.93179602877E+03  0.51219826244E+03 -0.63166258369E+03  0.12461862509E+04  0.15294330000E+03 0.  0.
<mgrwt>
<rscale>  0 0.12040803E+04</rscale>
<asrwt>0</asrwt>
<pdfrwt beam="1">  1        2 0.15154646E+00 0.12507602E+04</pdfrwt>
<pdfrwt beam="2">  1       -2 0.23322263E+00 0.12507602E+04</pdfrwt>
<totfact> 0.20363506E+00</totfact>
</mgrwt>
</event>
<event>
 4    1  0.6502538E-008  0.7680854E+03  0.7818608E-02  0.9784608E-01
         -2   -1    0    0    0  501 -0.00000000000E+00  0.00000000000E+00  0.19320667206E+03  0.19320667207E+03  0.25500000000E-02 0.  1.
          2   -1    0    0  501    0  0.00000000000E+00 -0.00000000000E+00 -0.22586418577E+04  0.22586418577E+04  0.25500000000E-02 0. -1.
    8880023    1    1    2    0    0  0.12281162422E+03 -0.37558261116E+03 -0.17863443479E+04  0.19444745636E+04  0.65864270000E+03 0. -1.
    8880022    1    1    2    0    0 -0.12281162422E+03  0.37558261116E+03 -0.27909083774E+03  0.50737396620E+03  0.15294330000E+03 0.  0.
<mgrwt>
<rscale>  0 0.66195166E+03</rscale>
<asrwt>0</asrwt>
<pdfrwt beam="1">  1        2 0.34748334E+00 0.76808541E+03</pdfrwt>
<pdfrwt beam="2">  1       -2 0.29724105E-01 0.76808541E+03</pdfrwt>
<totfact> 0.51531990E+01</totfact>
</mgrwt>
</event>
<event>
 4    1  0.6502538E-008  0.9061145E+03  0.7818608E-02  0.9516286E-01
         -2   -1    0    0    0  501 -0.00000000000E+00  0.00000000000E+00  0.19926092308E+04  0.19926092308E+04  0.25500000000E-02 0.  1.
          2   -1    0    0  501    0  0.00000000000E+00 -0.00000000000E+00 -0.34342676637E+03  0.34342676638E+03  0.25500000000E-02 0. -1.
    8880023    1    1    2    0    0 -0.61909803826E+03  0.62856559780E+02  0.53933259415E+03  0.10544776818E+04  0.65864270000E+03 0. -1.
    8880022    1    1    2    0    0  0.61909803826E+03 -0.62856559780E+02  0.11098498703E+04  0.12815583153E+04  0.15294330000E+03 0.  0.
<mgrwt>
<rscale>  0 0.83093679E+03</rscale>
<asrwt>0</asrwt>
<pdfrwt beam="1">  1        2 0.52834889E-01 0.90611453E+03</pdfrwt>
<pdfrwt beam="2">  1       -2 0.30655526E+00 0.90611453E+03</pdfrwt>
<totfact> 0.27917121E+00</totfact>
</mgrwt>
</event>
<event>
 4    1  0.6502538E-008  0.6777073E+03  0.7818608E-02  0.1010651E+00
          2   -1    0    0  501    0  0.00000000000E+00  0.00000000000E+00  0.28994261727E+03  0.28994261729E+03  0.25500000000E-02 0. -1.
         -2   -1    0    0    0  501 -0.00000000000E+00 -0.00000000000E+00 -0.15904375824E+04  0.15904375824E+04  0.25500000000E-02 0.  1.
    8880023    1    1    2    0    0  0.12634387988E+03 -0.97540758582E+02 -0.13109676122E+03  0.69027063000E+03  0.65864270000E+03 0.  0.
    8880022    1    1    2    0    0 -0.12634387988E+03  0.97540758582E+02 -0.11693982039E+04  0.11901095697E+04  0.15294330000E+03 0.  0.
<mgrwt>
<rscale>  0 0.51216558E+03</rscale>
<asrwt>0</asrwt>
<pdfrwt beam="1">  1        2 0.44606558E-01 0.67770730E+03</pdfrwt>
<pdfrwt beam="2">  1       -2 0.24468270E+00 0.67770730E+03</pdfrwt>
<totfact> 0.81763521E+00</totfact>
</mgrwt>
</event>
<event>
 4    1  0.6502538E-008  0.8076431E+03  0.7818608E-02  0.9694507E-01
         -2   -1    0    0    0  501 -0.00000000000E+00  0.00000000000E+00  0.49642817159E+03  0.49642817159E+03  0.25500000000E-02 0.  1.
          2   -1    0    0  501    0  0.00000000000E+00 -0.00000000000E+00 -0.17838829521E+04  0.17838829521E+04  0.25500000000E-02 0. -1.
    8880023    1    1    2    0    0 -0.46092526520E+03 -0.77621690162E+02 -0.15314080136E+04  0.17313283736E+04  0.65864270000E+03 0. -1.
    8880022    1    1    2    0    0  0.46092526520E+03  0.77621690162E+02  0.24395323312E+03  0.54898275005E+03  0.15294330000E+03 0.  0.
<mgrwt>
<rscale>  0 0.71344768E+03</rscale>
<asrwt>0</asrwt>
<pdfrwt beam="1">  1        2 0.27444353E+00 0.80764313E+03</pdfrwt>
<pdfrwt beam="2">  1       -2 0.76373566E-01 0.80764313E+03</pdfrwt>
<totfact> 0.13808525E+01</totfact>
</mgrwt>
</event>
<event>
 4    1  0.6502538E-008  0.6920721E+03  0.7818608E-02  0.1003183E+00
         -2   -1    0    0    0  501 -0.00000000000E+00  0.00000000000E+00  0.15294601843E+03  0.15294601845E+03  0.25500000000E-02 0.  1.
          2   -1    0    0  501    0  0.00000000000E+00 -0.00000000000E+00 -0.23293973751E+04  0.23293973751E+04  0.25500000000E-02 0. -1.
    8880023    1    1    2    0    0  0.19011635009E+03 -0.94917377979E+02 -0.20977433416E+04  0.22089569640E+04  0.65864270000E+03 0. -1.
    8880022    1    1    2    0    0 -0.19011635009E+03  0.94917377979E+02 -0.78708015037E+02  0.27338642955E+03  0.15294330000E+03 0.  0.
<mgrwt>
<rscale>  0 0.54276347E+03</rscale>
<asrwt>0</asrwt>
<pdfrwt beam="1">  1        2 0.35836880E+00 0.69207206E+03</pdfrwt>
<pdfrwt beam="2">  1       -2 0.23530158E-01 0.69207206E+03</pdfrwt>
<totfact> 0.72717239E+01</totfact>
</mgrwt>
</event>
<event>
 4    1  0.6502538E-008  0.1866880E+04  0.7818608E-02  0.8686416E-01
          2   -1    0    0  501    0  0.00000000000E+00  0.00000000000E+00  0.25159385497E+04  0.25159385497E+04  0.25500000000E-02 0. -1.
         -2   -1    0    0    0  501 -0.00000000000E+00 -0.00000000000E+00 -0.20826695963E+04  0.20826695963E+04  0.25500000000E-02 0.  1.
    8880023    1    1    2    0    0  0.17065169858E+04  0.37313786885E+03  0.16277936996E+04  0.24768840560E+04  0.65864270000E+03 0.  1.
    8880022    1    1    2    0    0 -0.17065169858E+04 -0.37313786885E+03 -0.11945247462E+04  0.21217240900E+04  0.15294330000E+03 0.  0.
<mgrwt>
<rscale>  0 0.18378704E+04</rscale>
<asrwt>0</asrwt>
<pdfrwt beam="1">  1        2 0.38706747E+00 0.18668804E+04</pdfrwt>
<pdfrwt beam="2">  1       -2 0.32041070E+00 0.18668804E+04</pdfrwt>
<totfact> 0.72825164E-02</totfact>
</mgrwt>
</event>
<event>
 4    1  0.6502538E-008  0.8586100E+03  0.7818608E-02  0.9596041E-01
          2   -1    0    0  501    0  0.00000000000E+00  0.00000000000E+00  0.20971711085E+04  0.20971711085E+04  0.25500000000E-02 0. -1.
         -2   -1    0    0    0  501 -0.00000000000E+00 -0.00000000000E+00 -0.61281445417E+03  0.61281445418E+03  0.25500000000E-02 0.  1.
    8880023    1    1    2    0    0 -0.72173177847E+02  0.54606953043E+03  0.18443551092E+04  0.20344180678E+04  0.65864270000E+03 0. -1.
    8880022    1    1    2    0    0  0.72173177847E+02 -0.54606953043E+03 -0.35999845482E+03  0.67556749489E+03  0.15294330000E+03 0.  0.
<mgrwt>
<rscale>  0 0.77558780E+03</rscale>
<asrwt>0</asrwt>
<pdfrwt beam="1">  1        2 0.32264171E+00 0.85860998E+03</pdfrwt>
<pdfrwt beam="2">  1       -2 0.94279145E-01 0.85860998E+03</pdfrwt>
<totfact> 0.57134863E+00</totfact>
</mgrwt>
</event>
<event>
 4    1  0.6502538E-008  0.2127709E+04  0.7818608E-02  0.8560106E-01
          2   -1    0    0  501    0  0.00000000000E+00  0.00000000000E+00  0.33758983159E+04  0.33758983159E+04  0.25500000000E-02 0. -1.
         -2   -1    0    0    0  501 -0.00000000000E+00 -0.00000000000E+00 -0.28876577218E+04  0.28876577218E+04  0.25500000000E-02 0.  1.
    8880023    1    1    2    0    0 -0.19694778295E+04  0.46313319569E+03 -0.20901377824E+04  0.29825863665E+04  0.65864270000E+03 0.  1.
    8880022    1    1    2    0    0  0.19694778295E+04 -0.46313319569E+03  0.25783783765E+04  0.32809696712E+04  0.15294330000E+03 0.  0.
<mgrwt>
<rscale>  0 0.21025831E+04</rscale>
<asrwt>0</asrwt>
<pdfrwt beam="1">  1        2 0.51936897E+00 0.21277090E+04</pdfrwt>
<pdfrwt beam="2">  1       -2 0.44425503E+00 0.21277090E+04</pdfrwt>
<totfact> 0.32364173E-03</totfact>
</mgrwt>
</event>
<event>
 4    1  0.6502538E-008  0.6821854E+03  0.7818608E-02  0.1008113E+00
         -2   -1    0    0    0  501 -0.00000000000E+00  0.00000000000E+00  0.61982402709E+03  0.61982402709E+03  0.25500000000E-02 0.  1.
          2   -1    0    0  501    0  0.00000000000E+00 -0.00000000000E+00 -0.72912768400E+03  0.72912768400E+03  0.25500000000E-02 0. -1.
    8880023    1    1    2    0    0  0.17276363228E+03  0.41466915529E+02 -0.53233327506E+03  0.86530670847E+03  0.65864270000E+03 0. -1.
    8880022    1    1    2    0    0 -0.17276363228E+03 -0.41466915529E+02  0.42302961815E+03  0.48364500263E+03  0.15294330000E+03 0.  0.
<mgrwt>
<rscale>  0 0.52231335E+03</rscale>
<asrwt>0</asrwt>
<pdfrwt beam="1">  1        2 0.11217349E+00 0.68218545E+03</pdfrwt>
<pdfrwt beam="2">  1       -2 0.95357543E-01 0.68218545E+03</pdfrwt>
<totfact> 0.36628588E+01</totfact>
</mgrwt>
</event>
<event>
 4    1  0.6502538E-008  0.1310314E+04  0.7818608E-02  0.9056704E-01
         -2   -1    0    0    0  501 -0.00000000000E+00  0.00000000000E+00  0.15559721480E+04  0.15559721480E+04  0.25500000000E-02 0.  1.
          2   -1    0    0  501    0  0.00000000000E+00 -0.00000000000E+00 -0.13110796401E+04  0.13110796401E+04  0.25500000000E-02 0. -1.
    8880023    1    1    2    0    0  0.90235544949E+03  0.68473800222E+03 -0.60445193199E+03  0.14430120697E+04  0.65864270000E+03 0.  0.
    8880022    1    1    2    0    0 -0.90235544949E+03 -0.68473800222E+03  0.84934443993E+03  0.14240397184E+04  0.15294330000E+03 0.  0.
<mgrwt>
<rscale>  0 0.12663252E+04</rscale>
<asrwt>0</asrwt>
<pdfrwt beam="1">  1        2 0.20170456E+00 0.13103136E+04</pdfrwt>
<pdfrwt beam="2">  1       -2 0.23938033E+00 0.13103136E+04</pdfrwt>
<totfact> 0.11685668E+00</totfact>
</mgrwt>
</event>
<event>
 4    1  0.6502538E-008  0.1150291E+04  0.7818608E-02  0.9207026E-01
          2   -1    0    0  501    0  0.00000000000E+00  0.00000000000E+00  0.21053408976E+04  0.21053408976E+04  0.25500000000E-02 0. -1.
         -2   -1    0    0    0  501 -0.00000000000E+00 -0.00000000000E+00 -0.12450858050E+04  0.12450858050E+04  0.25500000000E-02 0.  1.
    8880023    1    1    2    0    0 -0.51318568586E+02  0.94166156712E+03 -0.82338047358E+03  0.14146115060E+04  0.65864270000E+03 0.  0.
    8880022    1    1    2    0    0  0.51318568586E+02 -0.94166156712E+03  0.16836355661E+04  0.19358151965E+04  0.15294330000E+03 0.  0.
<mgrwt>
<rscale>  0 0.10981205E+04</rscale>
<asrwt>0</asrwt>
<pdfrwt beam="1">  1        2 0.32389860E+00 0.11502914E+04</pdfrwt>
<pdfrwt beam="2">  1       -2 0.19155166E+00 0.11502914E+04</pdfrwt>
<totfact> 0.86407559E-01</totfact>
</mgrwt>
</event>
<event>
 4    1  0.6502538E-008  0.9272900E+03  0.7818608E-02  0.9483570E-01
          2   -1    0    0  501    0  0.00000000000E+00  0.00000000000E+00  0.26814408984E+04  0.26814408984E+04  0.25500000000E-02 0. -1.
         -2   -1    0    0    0  501 -0.00000000000E+00 -0.00000000000E+00 -0.32935514114E+03  0.32935514115E+03  0.25500000000E-02 0.  1.
    8880023    1    1    2    0    0 -0.40145154899E+03  0.51467781210E+03  0.20981125003E+04  0.22938925141E+04  0.65864270000E+03 0.  0.
    8880022    1    1    2    0    0  0.40145154899E+03 -0.51467781210E+03  0.25397325699E+03  0.71690352540E+03  0.15294330000E+03 0.  0.
<mgrwt>
<rscale>  0 0.85506013E+03</rscale>
<asrwt>0</asrwt>
<pdfrwt beam="1">  1        2 0.41252935E+00 0.92729003E+03</pdfrwt>
<pdfrwt beam="2">  1       -2 0.50670024E-01 0.92729003E+03</pdfrwt>
<totfact> 0.10287190E+01</totfact>
</mgrwt>
</event>
<event>
 4    1  0.6502538E-008  0.9406916E+03  0.7818608E-02  0.9463635E-01
          2   -1    0    0  501    0  0.00000000000E+00  0.00000000000E+00  0.16431781873E+04  0.16431781873E+04  0.25500000000E-02 0. -1.
         -2   -1    0    0    0  501 -0.00000000000E+00 -0.00000000000E+00 -0.10700025952E+04  0.10700025952E+04  0.25500000000E-02 0.  1.
    8880023    1    1    2    0    0 -0.56125811883E+03 -0.36889002353E+03  0.13687524184E+04  0.16608383168E+04  0.65864270000E+03 0. -1.
    8880022    1    1    2    0    0  0.56125811883E+03  0.36889002353E+03 -0.79557682635E+03  0.10523424657E+04  0.15294330000E+03 0.  0.
<mgrwt>
<rscale>  0 0.87018771E+03</rscale>
<asrwt>0</asrwt>
<pdfrwt beam="1">  1        2 0.25279664E+00 0.94069162E+03</pdfrwt>
<pdfrwt beam="2">  1       -2 0.16461578E+00 0.94069162E+03</pdfrwt>
<totfact> 0.24614736E+00</totfact>
</mgrwt>
</event>
<event>
 4    1  0.6502538E-008  0.9779726E+03  0.7818608E-02  0.9410961E-01
          2   -1    0    0  501    0  0.00000000000E+00  0.00000000000E+00  0.11055018856E+04  0.11055018856E+04  0.25500000000E-02 0. -1.
         -2   -1    0    0    0  501 -0.00000000000E+00 -0.00000000000E+00 -0.75790990753E+03  0.75790990753E+03  0.25500000000E-02 0.  1.
    8880023    1    1    2    0    0  0.38343142657E+03  0.61286258151E+03  0.51568949912E+03  0.11056066518E+04  0.65864270000E+03 0.  0.
    8880022    1    1    2    0    0 -0.38343142657E+03 -0.61286258151E+03 -0.16809752103E+03  0.75780514137E+03  0.15294330000E+03 0.  0.
<mgrwt>
<rscale>  0 0.91179095E+03</rscale>
<asrwt>0</asrwt>
<pdfrwt beam="1">  1        2 0.17007721E+00 0.97797260E+03</pdfrwt>
<pdfrwt beam="2">  1       -2 0.11660152E+00 0.97797260E+03</pdfrwt>
<totfact> 0.12257021E+01</totfact>
</mgrwt>
</event>
<event>
 4    1  0.6502538E-008  0.8743473E+03  0.7818608E-02  0.9568535E-01
          2   -1    0    0  501    0  0.00000000000E+00  0.00000000000E+00  0.17115232091E+04  0.17115232091E+04  0.25500000000E-02 0. -1.
         -2   -1    0    0    0  501 -0.00000000000E+00 -0.00000000000E+00 -0.45686261261E+03  0.45686261262E+03  0.25500000000E-02 0.  1.
    8880023    1    1    2    0    0 -0.15056128942E+03  0.55498127936E+03  0.13054332503E+04  0.15711903448E+04  0.65864270000E+03 0. -1.
    8880022    1    1    2    0    0  0.15056128942E+03 -0.55498127936E+03 -0.50772653786E+02  0.59719547696E+03  0.15294330000E+03 0.  0.
<mgrwt>
<rscale>  0 0.79414220E+03</rscale>
<asrwt>0</asrwt>
<pdfrwt beam="1">  1        2 0.26331126E+00 0.87434726E+03</pdfrwt>
<pdfrwt beam="2">  1       -2 0.70286556E-01 0.87434726E+03</pdfrwt>
<totfact> 0.18030516E+01</totfact>
</mgrwt>
</event>
<event>
 4    1  0.6502538E-008  0.1052085E+04  0.7818608E-02  0.9316380E-01
          2   -1    0    0  501    0  0.00000000000E+00  0.00000000000E+00  0.66187718956E+03  0.66187718956E+03  0.25500000000E-02 0. -1.
         -2   -1    0    0    0  501 -0.00000000000E+00 -0.00000000000E+00 -0.30406742630E+04  0.30406742630E+04  0.25500000000E-02 0.  1.
    8880023    1    1    2    0    0  0.40198503951E+03  0.71517808480E+03  0.12860423592E+03  0.10599155253E+04  0.65864270000E+03 0. -1.
    8880022    1    1    2    0    0 -0.40198503951E+03 -0.71517808480E+03 -0.25074013094E+04  0.26426359273E+04  0.15294330000E+03 0.  0.
<mgrwt>
<rscale>  0 0.99288799E+03</rscale>
<asrwt>0</asrwt>
<pdfrwt beam="1">  1        2 0.10182726E+00 0.10520845E+04</pdfrwt>
<pdfrwt beam="2">  1       -2 0.46779603E+00 0.10520845E+04</pdfrwt>
<totfact> 0.11757939E-01</totfact>
</mgrwt>
</event>
<event>
 4    1  0.6502538E-008  0.1503388E+04  0.7818608E-02  0.8907248E-01
          2   -1    0    0  501    0  0.00000000000E+00  0.00000000000E+00  0.21864305986E+04  0.21864305986E+04  0.25500000000E-02 0. -1.
         -2   -1    0    0    0  501 -0.00000000000E+00 -0.00000000000E+00 -0.10275510164E+04  0.10275510164E+04  0.25500000000E-02 0.  1.
    8880023    1    1    2    0    0  0.70997731150E+03 -0.11499114391E+04  0.10810227056E+04  0.18516977067E+04  0.65864270000E+03 0.  0.
    8880022    1    1    2    0    0 -0.70997731150E+03  0.11499114391E+04  0.77856876636E+02  0.13622839083E+04  0.15294330000E+03 0.  0.
<mgrwt>
<rscale>  0 0.14661977E+04</rscale>
<asrwt>0</asrwt>
<pdfrwt beam="1">  1        2 0.33637394E+00 0.15033876E+04</pdfrwt>
<pdfrwt beam="2">  1       -2 0.15808477E+00 0.15033876E+04</pdfrwt>
<totfact> 0.12898507E+00</totfact>
</mgrwt>
</event>
<event>
 4    1  0.6502538E-008  0.1016926E+04  0.7818608E-02  0.9359740E-01
          2   -1    0    0  501    0  0.00000000000E+00  0.00000000000E+00  0.27096522804E+04  0.27096522804E+04  0.25500000000E-02 0. -1.
         -2   -1    0    0    0  501 -0.00000000000E+00 -0.00000000000E+00 -0.32030523428E+03  0.32030523429E+03  0.25500000000E-02 0.  1.
    8880023    1    1    2    0    0  0.77334088508E+03 -0.47672519039E+02  0.17035670067E+04  0.19840059340E+04  0.65864270000E+03 0.  0.
    8880022    1    1    2    0    0 -0.77334088508E+03  0.47672519039E+02  0.68578003938E+03  0.10459515806E+04  0.15294330000E+03 0.  0.
<mgrwt>
<rscale>  0 0.95464267E+03</rscale>
<asrwt>0</asrwt>
<pdfrwt beam="1">  1        2 0.41686958E+00 0.10169263E+04</pdfrwt>
<pdfrwt beam="2">  1       -2 0.49277729E-01 0.10169263E+04</pdfrwt>
<totfact> 0.10361333E+01</totfact>
</mgrwt>
</event>
<event>
 4    1  0.6502538E-008  0.1281873E+04  0.7818608E-02  0.9081374E-01
          2   -1    0    0  501    0  0.00000000000E+00  0.00000000000E+00  0.80109742015E+03  0.80109742015E+03  0.25500000000E-02 0. -1.
         -2   -1    0    0    0  501 -0.00000000000E+00 -0.00000000000E+00 -0.28022374859E+04  0.28022374859E+04  0.25500000000E-02 0.  1.
    8880023    1    1    2    0    0  0.49904723944E+03  0.97996901589E+03  0.36979647863E+02  0.12824059887E+04  0.65864270000E+03 0.  0.
    8880022    1    1    2    0    0 -0.49904723944E+03 -0.97996901589E+03 -0.20381197136E+04  0.23209289174E+04  0.15294330000E+03 0.  0.
<mgrwt>
<rscale>  0 0.12366430E+04</rscale>
<asrwt>0</asrwt>
<pdfrwt beam="1">  1        2 0.12324576E+00 0.12818727E+04</pdfrwt>
<pdfrwt beam="2">  1       -2 0.43111346E+00 0.12818727E+04</pdfrwt>
<totfact> 0.15564946E-01</totfact>
</mgrwt>
</event>
<event>
 4    1  0.6502538E-008  0.7219648E+03  0.7818608E-02  0.9915993E-01
          2   -1    0    0  501    0  0.00000000000E+00  0.00000000000E+00  0.33169525909E+04  0.33169525909E+04  0.25500000000E-02 0. -1.
         -2   -1    0    0    0  501 -0.00000000000E+00 -0.00000000000E+00 -0.71913578692E+03  0.71913578692E+03  0.25500000000E-02 0.  1.
    8880023    1    1    2    0    0  0.20117061784E+03 -0.21668710775E+03  0.32363990993E+04  0.33159481685E+04  0.65864270000E+03 0. -1.
    8880022    1    1    2    0    0 -0.20117061784E+03  0.21668710775E+03 -0.63858229531E+03  0.72014020930E+03  0.15294330000E+03 0.  0.
<mgrwt>
<rscale>  0 0.59492417E+03</rscale>
<asrwt>0</asrwt>
<pdfrwt beam="1">  1        2 0.51030041E+00 0.72196477E+03</pdfrwt>
<pdfrwt beam="2">  1       -2 0.11063627E+00 0.72196477E+03</pdfrwt>
<totfact> 0.76507177E-01</totfact>
</mgrwt>
</event>
<event>
 4    1  0.6502538E-008  0.1111466E+04  0.7818608E-02  0.9248396E-01
          2   -1    0    0  501    0  0.00000000000E+00  0.00000000000E+00  0.34490570241E+04  0.34490570241E+04  0.25500000000E-02 0. -1.
         -2   -1    0    0    0  501 -0.00000000000E+00 -0.00000000000E+00 -0.11424355183E+04  0.11424355183E+04  0.25500000000E-02 0.  1.
    8880023    1    1    2    0    0 -0.16208475324E+03 -0.88049714609E+03  0.31572049203E+04  0.33471330728E+04  0.65864270000E+03 0. -1.
    8880022    1    1    2    0    0  0.16208475324E+03  0.88049714609E+03 -0.85058341452E+03  0.12443594696E+04  0.15294330000E+03 0.  0.
<mgrwt>
<rscale>  0 0.10567563E+04</rscale>
<asrwt>0</asrwt>
<pdfrwt beam="1">  1        2 0.53062417E+00 0.11114661E+04</pdfrwt>
<pdfrwt beam="2">  1       -2 0.17575931E+00 0.11114661E+04</pdfrwt>
<totfact> 0.17248254E-01</totfact>
</mgrwt>
</event>
<event>
 4    1  0.6502538E-008  0.1186086E+04  0.7818608E-02  0.9170767E-01
          2   -1    0    0  501    0  0.00000000000E+00  0.00000000000E+00  0.22588438482E+04  0.22588438482E+04  0.25500000000E-02 0. -1.
         -2   -1    0    0    0  501 -0.00000000000E+00 -0.00000000000E+00 -0.55068522342E+03  0.55068522343E+03  0.25500000000E-02 0.  1.
    8880023    1    1    2    0    0 -0.96129784864E+03 -0.22112672805E+03  0.12083669558E+04  0.16932074562E+04  0.65864270000E+03 0.  0.
    8880022    1    1    2    0    0  0.96129784864E+03  0.22112672805E+03  0.49979166898E+03  0.11163216154E+04  0.15294330000E+03 0.  0.
<mgrwt>
<rscale>  0 0.11360318E+04</rscale>
<asrwt>0</asrwt>
<pdfrwt beam="1">  1        2 0.34751444E+00 0.11860863E+04</pdfrwt>
<pdfrwt beam="2">  1       -2 0.84720804E-01 0.11860863E+04</pdfrwt>
<totfact> 0.57173035E+00</totfact>
</mgrwt>
</event>
<event>
 4    1  0.6502538E-008  0.1355103E+04  0.7818608E-02  0.9019378E-01
         -2   -1    0    0    0  501 -0.00000000000E+00  0.00000000000E+00  0.76258896811E+03  0.76258896812E+03  0.25500000000E-02 0.  1.
          2   -1    0    0  501    0  0.00000000000E+00 -0.00000000000E+00 -0.27796513625E+04  0.27796513625E+04  0.25500000000E-02 0. -1.
    8880023    1    1    2    0    0 -0.52036315554E+03  0.10638210778E+04 -0.19120156710E+04  0.23435245319E+04  0.65864270000E+03 0.  0.
    8880022    1    1    2    0    0  0.52036315554E+03 -0.10638210778E+04 -0.10504672342E+03  0.11987157988E+04  0.15294330000E+03 0.  0.
<mgrwt>
<rscale>  0 0.13129244E+04</rscale>
<asrwt>0</asrwt>
<pdfrwt beam="1">  1        2 0.42763867E+00 0.13551027E+04</pdfrwt>
<pdfrwt beam="2">  1       -2 0.11732138E+00 0.13551027E+04</pdfrwt>
<totfact> 0.12909659E+00</totfact>
</mgrwt>
</event>
<event>
 4    1  0.6540767E-008  0.1042291E+04  0.7818608E-02  0.9328206E-01
         -2   -1    0    0    0  501 -0.00000000000E+00  0.00000000000E+00  0.78430630868E+03  0.78430630869E+03  0.25500000000E-02 0.  1.
          2   -1    0    0  501    0  0.00000000000E+00 -0.00000000000E+00 -0.26628333168E+04  0.26628333168E+04  0.25500000000E-02 0. -1.
    8880023    1    1    2    0    0 -0.80703331970E+03  0.35467771892E+02 -0.22986032849E+04  0.25238755932E+04  0.65864270000E+03 0. -1.
    8880022    1    1    2    0    0  0.80703331970E+03 -0.35467771892E+02  0.42007627685E+03  0.92326403230E+03  0.15294330000E+03 0.  0.
<mgrwt>
<rscale>  0 0.98227099E+03</rscale>
<asrwt>0</asrwt>
<pdfrwt beam="1">  1        2 0.40966666E+00 0.10422912E+04</pdfrwt>
<pdfrwt beam="2">  1       -2 0.12066251E+00 0.10422912E+04</pdfrwt>
<totfact> 0.14691901E+00</totfact>
</mgrwt>
</event>
<event>
 4    1  0.6502538E-008  0.1106971E+04  0.7818608E-02  0.9253334E-01
         -2   -1    0    0    0  501 -0.00000000000E+00  0.00000000000E+00  0.11301735791E+04  0.11301735791E+04  0.25500000000E-02 0.  1.
          2   -1    0    0  501    0  0.00000000000E+00 -0.00000000000E+00 -0.46126260398E+04  0.46126260398E+04  0.25500000000E-02 0. -1.
    8880023    1    1    2    0    0 -0.52155479887E+03  0.72080147752E+03 -0.43512753330E+04  0.44898754335E+04  0.65864270000E+03 0. -1.
    8880022    1    1    2    0    0  0.52155479887E+03 -0.72080147752E+03  0.86882287228E+03  0.12529241855E+04  0.15294330000E+03 0.  0.
<mgrwt>
<rscale>  0 0.10519487E+04</rscale>
<asrwt>0</asrwt>
<pdfrwt beam="1">  1        2 0.70963476E+00 0.11069708E+04</pdfrwt>
<pdfrwt beam="2">  1       -2 0.17387286E+00 0.11069708E+04</pdfrwt>
<totfact> 0.19888455E-02</totfact>
</mgrwt>
</event>
<event>
 4    1  0.6502538E-008  0.8140228E+03  0.7818608E-02  0.9681258E-01
          2   -1    0    0  501    0  0.00000000000E+00  0.00000000000E+00  0.44753283673E+04  0.44753283673E+04  0.25500000000E-02 0. -1.
         -2   -1    0    0    0  501 -0.00000000000E+00 -0.00000000000E+00 -0.18154683230E+03  0.18154683232E+03  0.25500000000E-02 0.  1.
    8880023    1    1    2    0    0 -0.73985625659E+02  0.47259814540E+03  0.39850905032E+04  0.40673799189E+04  0.65864270000E+03 0.  0.
    8880022    1    1    2    0    0  0.73985625659E+02 -0.47259814540E+03  0.30869103177E+03  0.58949528068E+03  0.15294330000E+03 0.  0.
<mgrwt>
<rscale>  0 0.72143745E+03</rscale>
<asrwt>0</asrwt>
<pdfrwt beam="1">  1        2 0.68851207E+00 0.81402278E+03</pdfrwt>
<pdfrwt beam="2">  1       -2 0.27930281E-01 0.81402278E+03</pdfrwt>
<totfact> 0.17002037E+00</totfact>
</mgrwt>
</event>
<event>
 4    1  0.6502538E-008  0.8020453E+03  0.7818608E-02  0.9706391E-01
          2   -1    0    0  501    0  0.00000000000E+00  0.00000000000E+00  0.23337099850E+04  0.23337099850E+04  0.25500000000E-02 0. -1.
         -2   -1    0    0    0  501 -0.00000000000E+00 -0.00000000000E+00 -0.33808560329E+03  0.33808560330E+03  0.25500000000E-02 0.  1.
    8880023    1    1    2    0    0  0.43751911984E+03  0.13432599981E+03  0.20352842452E+04  0.21876148242E+04  0.65864270000E+03 0.  0.
    8880022    1    1    2    0    0 -0.43751911984E+03 -0.13432599981E+03 -0.39659863483E+02  0.48418076401E+03  0.15294330000E+03 0.  0.
<mgrwt>
<rscale>  0 0.70637544E+03</rscale>
<asrwt>0</asrwt>
<pdfrwt beam="1">  1        2 0.35903231E+00 0.80204530E+03</pdfrwt>
<pdfrwt beam="2">  1       -2 0.52013169E-01 0.80204530E+03</pdfrwt>
<totfact> 0.15664212E+01</totfact>
</mgrwt>
</event>
<event>
 4    1  0.6502538E-008  0.7965636E+03  0.7818608E-02  0.9718276E-01
          2   -1    0    0  501    0  0.00000000000E+00  0.00000000000E+00  0.34182374184E+04  0.34182374184E+04  0.25500000000E-02 0. -1.
         -2   -1    0    0    0  501 -0.00000000000E+00 -0.00000000000E+00 -0.76364367510E+03  0.76364367510E+03  0.25500000000E-02 0.  1.
    8880023    1    1    2    0    0  0.11368154599E+03  0.43333568695E+03  0.32925149804E+04  0.33875017954E+04  0.65864270000E+03 0. -1.
    8880022    1    1    2    0    0 -0.11368154599E+03 -0.43333568695E+03 -0.63792123710E+03  0.79437929809E+03  0.15294330000E+03 0.  0.
<mgrwt>
<rscale>  0 0.69938988E+03</rscale>
<asrwt>0</asrwt>
<pdfrwt beam="1">  1        2 0.52588268E+00 0.79656357E+03</pdfrwt>
<pdfrwt beam="2">  1       -2 0.11748364E+00 0.79656357E+03</pdfrwt>
<totfact> 0.55649032E-01</totfact>
</mgrwt>
</event>
<event>
 4    1  0.6502538E-008  0.1344088E+04  0.7818608E-02  0.9028392E-01
         -2   -1    0    0    0  501 -0.00000000000E+00  0.00000000000E+00  0.51469926156E+03  0.51469926157E+03  0.25500000000E-02 0.  1.
          2   -1    0    0  501    0  0.00000000000E+00 -0.00000000000E+00 -0.41995751538E+04  0.41995751538E+04  0.25500000000E-02 0. -1.
    8880023    1    1    2    0    0 -0.86915442697E+03  0.78570564404E+03 -0.31350411110E+04  0.34110197523E+04  0.65864270000E+03 0.  0.
    8880022    1    1    2    0    0  0.86915442697E+03 -0.78570564404E+03 -0.54983478124E+03  0.13032546630E+04  0.15294330000E+03 0.  0.
<mgrwt>
<rscale>  0 0.13014800E+04</rscale>
<asrwt>0</asrwt>
<pdfrwt beam="1">  1        2 0.64608846E+00 0.13440882E+04</pdfrwt>
<pdfrwt beam="2">  1       -2 0.79184504E-01 0.13440882E+04</pdfrwt>
<totfact> 0.32921038E-01</totfact>
</mgrwt>
</event>
<event>
 4    1  0.6502538E-008  0.1022414E+04  0.7818608E-02  0.9352803E-01
          2   -1    0    0  501    0  0.00000000000E+00  0.00000000000E+00  0.15528054816E+04  0.15528054816E+04  0.25500000000E-02 0. -1.
         -2   -1    0    0    0  501 -0.00000000000E+00 -0.00000000000E+00 -0.86970884350E+03  0.86970884350E+03  0.25500000000E-02 0.  1.
    8880023    1    1    2    0    0 -0.65662497359E+03  0.42469347103E+03  0.11177785129E+04  0.15148464973E+04  0.65864270000E+03 0.  0.
    8880022    1    1    2    0    0  0.65662497359E+03 -0.42469347103E+03 -0.43468187480E+03  0.90766782778E+03  0.15294330000E+03 0.  0.
<mgrwt>
<rscale>  0 0.96063729E+03</rscale>
<asrwt>0</asrwt>
<pdfrwt beam="1">  1        2 0.23889315E+00 0.10224144E+04</pdfrwt>
<pdfrwt beam="2">  1       -2 0.13380136E+00 0.10224144E+04</pdfrwt>
<totfact> 0.47415317E+00</totfact>
</mgrwt>
</event>
<event>
 4    1  0.6502538E-008  0.8168438E+03  0.7818608E-02  0.9675494E-01
          2   -1    0    0  501    0  0.00000000000E+00  0.00000000000E+00  0.95950854473E+03  0.95950854473E+03  0.25500000000E-02 0. -1.
         -2   -1    0    0    0  501 -0.00000000000E+00 -0.00000000000E+00 -0.14869211865E+04  0.14869211865E+04  0.25500000000E-02 0.  1.
    8880023    1    1    2    0    0  0.29825198177E+03 -0.38009119715E+03  0.72700630933E+03  0.10935135769E+04  0.65864270000E+03 0.  0.
    8880022    1    1    2    0    0 -0.29825198177E+03  0.38009119715E+03 -0.12544189511E+04  0.13529161544E+04  0.15294330000E+03 0.  0.
<mgrwt>
<rscale>  0 0.72494799E+03</rscale>
<asrwt>0</asrwt>
<pdfrwt beam="1">  1        2 0.14761670E+00 0.81684378E+03</pdfrwt>
<pdfrwt beam="2">  1       -2 0.22875710E+00 0.81684378E+03</pdfrwt>
<totfact> 0.23727085E+00</totfact>
</mgrwt>
</event>
<event>
 4    1  0.6502538E-008  0.1000816E+04  0.7818608E-02  0.9380492E-01
          2   -1    0    0  501    0  0.00000000000E+00  0.00000000000E+00  0.18998930503E+04  0.18998930503E+04  0.25500000000E-02 0. -1.
         -2   -1    0    0    0  501 -0.00000000000E+00 -0.00000000000E+00 -0.70734781298E+03  0.70734781299E+03  0.25500000000E-02 0.  1.
    8880023    1    1    2    0    0 -0.47704444708E+03  0.58330958457E+03  0.14797755042E+04  0.17864398184E+04  0.65864270000E+03 0. -1.
    8880022    1    1    2    0    0  0.47704444708E+03 -0.58330958457E+03 -0.28723026688E+03  0.82080104481E+03  0.15294330000E+03 0.  0.
<mgrwt>
<rscale>  0 0.93698692E+03</rscale>
<asrwt>0</asrwt>
<pdfrwt beam="1">  1        2 0.29229124E+00 0.10008155E+04</pdfrwt>
<pdfrwt beam="2">  1       -2 0.10882274E+00 0.10008155E+04</pdfrwt>
<totfact> 0.51136552E+00</totfact>
</mgrwt>
</event>
<event>
 4    1  0.6502538E-008  0.6645432E+03  0.7818608E-02  0.1019920E+00
          2   -1    0    0  501    0  0.00000000000E+00  0.00000000000E+00  0.12115356509E+04  0.12115356509E+04  0.25500000000E-02 0. -1.
         -2   -1    0    0    0  501 -0.00000000000E+00 -0.00000000000E+00 -0.28811820272E+03  0.28811820273E+03  0.25500000000E-02 0.  1.
    8880023    1    1    2    0    0  0.71648322678E+02 -0.51710998765E+02  0.10770436698E+04  0.12655594741E+04  0.65864270000E+03 0. -1.
    8880022    1    1    2    0    0 -0.71648322678E+02  0.51710998765E+02 -0.15362622164E+03  0.23409437953E+03  0.15294330000E+03 0.  0.
<mgrwt>
<rscale>  0 0.47715590E+03</rscale>
<asrwt>0</asrwt>
<pdfrwt beam="1">  1        2 0.18639010E+00 0.66454324E+03</pdfrwt>
<pdfrwt beam="2">  1       -2 0.44325878E-01 0.66454324E+03</pdfrwt>
<totfact> 0.92079908E+01</totfact>
</mgrwt>
</event>
<event>
 4    1  0.6502538E-008  0.1068154E+04  0.7818608E-02  0.9297369E-01
         -2   -1    0    0    0  501 -0.00000000000E+00  0.00000000000E+00  0.65116019049E+03  0.65116019049E+03  0.25500000000E-02 0.  1.
          2   -1    0    0  501    0  0.00000000000E+00 -0.00000000000E+00 -0.19033661387E+04  0.19033661387E+04  0.25500000000E-02 0. -1.
    8880023    1    1    2    0    0  0.83854118610E+03 -0.63185750559E+02 -0.13189296379E+04  0.16972122306E+04  0.65864270000E+03 0.  0.
    8880022    1    1    2    0    0 -0.83854118610E+03  0.63185750559E+02  0.66723689642E+02  0.85731409858E+03  0.15294330000E+03 0.  0.
<mgrwt>
<rscale>  0 0.10102543E+04</rscale>
<asrwt>0</asrwt>
<pdfrwt beam="1">  1        2 0.29282556E+00 0.10681545E+04</pdfrwt>
<pdfrwt beam="2">  1       -2 0.10017849E+00 0.10681545E+04</pdfrwt>
<totfact> 0.61668579E+00</totfact>
</mgrwt>
</event>
<event>
 4    1  0.6502538E-008  0.7283613E+03  0.7818608E-02  0.9895247E-01
         -2   -1    0    0    0  501 -0.00000000000E+00  0.00000000000E+00  0.27098441278E+03  0.27098441279E+03  0.25500000000E-02 0.  1.
          2   -1    0    0  501    0  0.00000000000E+00 -0.00000000000E+00 -0.17350121358E+04  0.17350121358E+04  0.25500000000E-02 0. -1.
    8880023    1    1    2    0    0  0.23741232160E+03 -0.20083659751E+03 -0.14899855453E+04  0.16584833677E+04  0.65864270000E+03 0. -1.
    8880022    1    1    2    0    0 -0.23741232160E+03  0.20083659751E+03  0.25957822305E+02  0.34751318090E+03  0.15294330000E+03 0.  0.
<mgrwt>
<rscale>  0 0.60492178E+03</rscale>
<asrwt>0</asrwt>
<pdfrwt beam="1">  1        2 0.26692494E+00 0.72836128E+03</pdfrwt>
<pdfrwt beam="2">  1       -2 0.41689911E-01 0.72836128E+03</pdfrwt>
<totfact> 0.52529633E+01</totfact>
</mgrwt>
</event>
<event>
 4    1  0.6502538E-008  0.1303860E+04  0.7818608E-02  0.9062233E-01
          2   -1    0    0  501    0  0.00000000000E+00  0.00000000000E+00  0.20154099042E+04  0.20154099042E+04  0.25500000000E-02 0. -1.
         -2   -1    0    0    0  501 -0.00000000000E+00 -0.00000000000E+00 -0.10306675060E+04  0.10306675060E+04  0.25500000000E-02 0.  1.
    8880023    1    1    2    0    0  0.20175461632E+03  0.11070395371E+04  0.13266321358E+04  0.18601087312E+04  0.65864270000E+03 0.  0.
    8880022    1    1    2    0    0 -0.20175461632E+03 -0.11070395371E+04 -0.34188973767E+03  0.11859686790E+04  0.15294330000E+03 0.  0.
<mgrwt>
<rscale>  0 0.12595969E+04</rscale>
<asrwt>0</asrwt>
<pdfrwt beam="1">  1        2 0.31006306E+00 0.13038603E+04</pdfrwt>
<pdfrwt beam="2">  1       -2 0.15856423E+00 0.13038603E+04</pdfrwt>
<totfact> 0.16262877E+00</totfact>
</mgrwt>
</event>
<event>
 4    1  0.6502538E-008  0.1188606E+04  0.7818608E-02  0.9168278E-01
         -2   -1    0    0    0  501 -0.00000000000E+00  0.00000000000E+00  0.82342469997E+03  0.82342469997E+03  0.25500000000E-02 0.  1.
          2   -1    0    0  501    0  0.00000000000E+00 -0.00000000000E+00 -0.16274809629E+04  0.16274809629E+04  0.25500000000E-02 0. -1.
    8880023    1    1    2    0    0 -0.98470187495E+03  0.96630077635E+02 -0.82944452170E+03  0.14494011092E+04  0.65864270000E+03 0. -1.
    8880022    1    1    2    0    0  0.98470187495E+03 -0.96630077635E+02  0.25388258747E+02  0.10015045537E+04  0.15294330000E+03 0.  0.
<mgrwt>
<rscale>  0 0.11386937E+04</rscale>
<asrwt>0</asrwt>
<pdfrwt beam="1">  1        2 0.25038169E+00 0.11886065E+04</pdfrwt>
<pdfrwt beam="2">  1       -2 0.12668072E+00 0.11886065E+04</pdfrwt>
<totfact> 0.48673900E+00</totfact>
</mgrwt>
</event>
<event>
 4    1  0.6502538E-008  0.7664781E+03  0.7818608E-02  0.9788616E-01
         -2   -1    0    0    0  501 -0.00000000000E+00  0.00000000000E+00  0.31093909701E+03  0.31093909702E+03  0.25500000000E-02 0.  1.
          2   -1    0    0  501    0  0.00000000000E+00 -0.00000000000E+00 -0.12487350671E+04  0.12487350671E+04  0.25500000000E-02 0. -1.
    8880023    1    1    2    0    0 -0.19949404157E+03 -0.33746192279E+03 -0.82054782525E+03  0.11228478801E+04  0.65864270000E+03 0.  0.
    8880022    1    1    2    0    0  0.19949404157E+03  0.33746192279E+03 -0.11724814481E+03  0.43682628404E+03  0.15294330000E+03 0.  0.
<mgrwt>
<rscale>  0 0.65977058E+03</rscale>
<asrwt>0</asrwt>
<pdfrwt beam="1">  1        2 0.19211308E+00 0.76647807E+03</pdfrwt>
<pdfrwt beam="2">  1       -2 0.47836785E-01 0.76647807E+03</pdfrwt>
<totfact> 0.74498433E+01</totfact>
</mgrwt>
</event>
<event>
 4    1  0.6502538E-008  0.1470394E+04  0.7818608E-02  0.8930830E-01
          2   -1    0    0  501    0  0.00000000000E+00  0.00000000000E+00  0.16684694765E+04  0.16684694765E+04  0.25500000000E-02 0. -1.
         -2   -1    0    0    0  501 -0.00000000000E+00 -0.00000000000E+00 -0.15357010814E+04  0.15357010814E+04  0.25500000000E-02 0.  1.
    8880023    1    1    2    0    0 -0.13144009999E+04 -0.24436886937E+02  0.85043830325E+03  0.16986178687E+04  0.65864270000E+03 0.  0.
    8880022    1    1    2    0    0  0.13144009999E+04  0.24436886937E+02 -0.71766990811E+03  0.15055526892E+04  0.15294330000E+03 0.  0.
<mgrwt>
<rscale>  0 0.14322069E+04</rscale>
<asrwt>0</asrwt>
<pdfrwt beam="1">  1        2 0.25668761E+00 0.14703936E+04</pdfrwt>
<pdfrwt beam="2">  1       -2 0.23626171E+00 0.14703936E+04</pdfrwt>
<totfact> 0.75175298E-01</totfact>
</mgrwt>
</event>
<event>
 4    1  0.6502538E-008  0.1215860E+04  0.7818608E-02  0.9141858E-01
         -2   -1    0    0    0  501 -0.00000000000E+00  0.00000000000E+00  0.13283507369E+04  0.13283507369E+04  0.25500000000E-02 0.  1.
          2   -1    0    0  501    0  0.00000000000E+00 -0.00000000000E+00 -0.20846311152E+04  0.20846311152E+04  0.25500000000E-02 0. -1.
    8880023    1    1    2    0    0  0.85090392837E+03  0.56609805568E+03 -0.16480432788E+04  0.20480140036E+04  0.65864270000E+03 0. -1.
    8880022    1    1    2    0    0 -0.85090392837E+03 -0.56609805568E+03  0.89176290043E+03  0.13649678486E+04  0.15294330000E+03 0.  0.
<mgrwt>
<rscale>  0 0.11674243E+04</rscale>
<asrwt>0</asrwt>
<pdfrwt beam="1">  1        2 0.32071248E+00 0.12158597E+04</pdfrwt>
<pdfrwt beam="2">  1       -2 0.20436165E+00 0.12158597E+04</pdfrwt>
<totfact> 0.72399076E-01</totfact>
</mgrwt>
</event>
<event>
 4    1  0.6502538E-008  0.6803404E+03  0.7818608E-02  0.1009132E+00
         -2   -1    0    0    0  501 -0.00000000000E+00  0.00000000000E+00  0.74411492211E+03  0.74411492211E+03  0.25500000000E-02 0.  1.
          2   -1    0    0  501    0  0.00000000000E+00 -0.00000000000E+00 -0.76788837982E+03  0.76788837983E+03  0.25500000000E-02 0. -1.
    8880023    1    1    2    0    0 -0.31632868203E+02  0.16748811057E+03 -0.59043252648E+03  0.90081833913E+03  0.65864270000E+03 0. -1.
    8880022    1    1    2    0    0  0.31632868203E+02 -0.16748811057E+03  0.56665906876E+03  0.61118496281E+03  0.15294330000E+03 0.  0.
<mgrwt>
<rscale>  0 0.51821176E+03</rscale>
<asrwt>0</asrwt>
<pdfrwt beam="1">  1        2 0.11813667E+00 0.68034044E+03</pdfrwt>
<pdfrwt beam="2">  1       -2 0.11447922E+00 0.68034044E+03</pdfrwt>
<totfact> 0.22141220E+01</totfact>
</mgrwt>
</event>
<event>
 4    1  0.6502538E-008  0.9517681E+03  0.7818608E-02  0.9447575E-01
          2   -1    0    0  501    0  0.00000000000E+00  0.00000000000E+00  0.18288338128E+04  0.18288338129E+04  0.25500000000E-02 0. -1.
         -2   -1    0    0    0  501 -0.00000000000E+00 -0.00000000000E+00 -0.55341389428E+03  0.55341389429E+03  0.25500000000E-02 0.  1.
    8880023    1    1    2    0    0  0.68676387487E+03  0.20189237627E+02  0.13740544054E+04  0.16714927282E+04  0.65864270000E+03 0.  0.
    8880022    1    1    2    0    0 -0.68676387487E+03 -0.20189237627E+02 -0.98634486802E+02  0.71075497897E+03  0.15294330000E+03 0.  0.
<mgrwt>
<rscale>  0 0.88261774E+03</rscale>
<asrwt>0</asrwt>
<pdfrwt beam="1">  1        2 0.28135904E+00 0.95176806E+03</pdfrwt>
<pdfrwt beam="2">  1       -2 0.85140600E-01 0.95176806E+03</pdfrwt>
<totfact> 0.10032987E+01</totfact>
</mgrwt>
</event>
<event>
 4    1  0.6502538E-008  0.8703231E+03  0.7818608E-02  0.9575458E-01
          2   -1    0    0  501    0  0.00000000000E+00  0.00000000000E+00  0.15042854976E+04  0.15042854976E+04  0.25500000000E-02 0. -1.
         -2   -1    0    0    0  501 -0.00000000000E+00 -0.00000000000E+00 -0.53414200869E+03  0.53414200870E+03  0.25500000000E-02 0.  1.
    8880023    1    1    2    0    0 -0.17276910838E+03 -0.54203590261E+03  0.11316188657E+04  0.14275936215E+04  0.65864270000E+03 0.  0.
    8880022    1    1    2    0    0  0.17276910838E+03  0.54203590261E+03 -0.16147537682E+03  0.61083388484E+03  0.15294330000E+03 0. -1.
<mgrwt>
<rscale>  0 0.78942051E+03</rscale>
<asrwt>0</asrwt>
<pdfrwt beam="1">  1        2 0.23142854E+00 0.87032310E+03</pdfrwt>
<pdfrwt beam="2">  1       -2 0.82175694E-01 0.87032310E+03</pdfrwt>
<totfact> 0.16587321E+01</totfact>
</mgrwt>
</event>
<event>
 4    1  0.6502538E-008  0.9851895E+03  0.7818608E-02  0.9401196E-01
         -2   -1    0    0    0  501 -0.00000000000E+00  0.00000000000E+00  0.12598795678E+04  0.12598795678E+04  0.25500000000E-02 0.  1.
          2   -1    0    0  501    0  0.00000000000E+00 -0.00000000000E+00 -0.14797498191E+04  0.14797498191E+04  0.25500000000E-02 0. -1.
    8880023    1    1    2    0    0 -0.53795790488E+03  0.49738264169E+03 -0.11703692479E+04  0.15298243632E+04  0.65864270000E+03 0. -1.
    8880022    1    1    2    0    0  0.53795790488E+03 -0.49738264169E+03  0.95049899666E+03  0.12098050237E+04  0.15294330000E+03 0.  0.
<mgrwt>
<rscale>  0 0.91977325E+03</rscale>
<asrwt>0</asrwt>
<pdfrwt beam="1">  1        2 0.22765382E+00 0.98518953E+03</pdfrwt>
<pdfrwt beam="2">  1       -2 0.19382763E+00 0.98518953E+03</pdfrwt>
<totfact> 0.18950587E+00</totfact>
</mgrwt>
</event>
<event>
 4    1  0.6502538E-008  0.9904530E+03  0.7818608E-02  0.9394156E-01
          2   -1    0    0  501    0  0.00000000000E+00  0.00000000000E+00  0.18691593198E+04  0.18691593198E+04  0.25500000000E-02 0. -1.
         -2   -1    0    0    0  501 -0.00000000000E+00 -0.00000000000E+00 -0.75262056675E+03  0.75262056675E+03  0.25500000000E-02 0.  1.
    8880023    1    1    2    0    0  0.41396345034E+03  0.61304258656E+03  0.14821143552E+04  0.17825992593E+04  0.65864270000E+03 0. -1.
    8880022    1    1    2    0    0 -0.41396345034E+03 -0.61304258656E+03 -0.36557560218E+03  0.83918062721E+03  0.15294330000E+03 0.  0.
<mgrwt>
<rscale>  0 0.92558187E+03</rscale>
<asrwt>0</asrwt>
<pdfrwt beam="1">  1        2 0.28756297E+00 0.99045301E+03</pdfrwt>
<pdfrwt beam="2">  1       -2 0.11578778E+00 0.99045301E+03</pdfrwt>
<totfact> 0.45751666E+00</totfact>
</mgrwt>
</event>
<event>
 4    1  0.6502538E-008  0.1051083E+04  0.7818608E-02  0.9317580E-01
         -2   -1    0    0    0  501 -0.00000000000E+00  0.00000000000E+00  0.68909511898E+03  0.68909511898E+03  0.25500000000E-02 0.  1.
          2   -1    0    0  501    0  0.00000000000E+00 -0.00000000000E+00 -0.20961034372E+04  0.20961034372E+04  0.25500000000E-02 0. -1.
    8880023    1    1    2    0    0 -0.43687107415E+03 -0.69289968308E+03 -0.16144780807E+04  0.19264776110E+04  0.65864270000E+03 0. -1.
    8880022    1    1    2    0    0  0.43687107415E+03  0.69289968308E+03  0.20746976254E+03  0.85872094515E+03  0.15294330000E+03 0.  0.
<mgrwt>
<rscale>  0 0.99180396E+03</rscale>
<asrwt>0</asrwt>
<pdfrwt beam="1">  1        2 0.32247745E+00 0.10510835E+04</pdfrwt>
<pdfrwt beam="2">  1       -2 0.10601463E+00 0.10510835E+04</pdfrwt>
<totfact> 0.42207938E+00</totfact>
</mgrwt>
</event>
<event>
 4    1  0.6502538E-008  0.1215521E+04  0.7818608E-02  0.9142181E-01
          2   -1    0    0  501    0  0.00000000000E+00  0.00000000000E+00  0.22171108962E+04  0.22171108962E+04  0.25500000000E-02 0. -1.
         -2   -1    0    0    0  501 -0.00000000000E+00 -0.00000000000E+00 -0.13224103738E+04  0.13224103738E+04  0.25500000000E-02 0.  1.
    8880023    1    1    2    0    0 -0.93004641637E+03 -0.42272180629E+03  0.17959596062E+04  0.21686311755E+04  0.65864270000E+03 0.  0.
    8880022    1    1    2    0    0  0.93004641637E+03  0.42272180629E+03 -0.90125908380E+03  0.13708900945E+04  0.15294330000E+03 0.  0.
<mgrwt>
<rscale>  0 0.11670674E+04</rscale>
<asrwt>0</asrwt>
<pdfrwt beam="1">  1        2 0.34109398E+00 0.12155206E+04</pdfrwt>
<pdfrwt beam="2">  1       -2 0.20344775E+00 0.12155206E+04</pdfrwt>
<totfact> 0.61915540E-01</totfact>
</mgrwt>
</event>
<event>
 4    1  0.6502538E-008  0.1890608E+04  0.7818608E-02  0.8674004E-01
          2   -1    0    0  501    0  0.00000000000E+00  0.00000000000E+00  0.24703018887E+04  0.24703018887E+04  0.25500000000E-02 0. -1.
         -2   -1    0    0    0  501 -0.00000000000E+00 -0.00000000000E+00 -0.16431296548E+04  0.16431296548E+04  0.25500000000E-02 0.  1.
    8880023    1    1    2    0    0 -0.14694790313E+04  0.99056628972E+03  0.12735164134E+04  0.22795272447E+04  0.65864270000E+03 0.  0.
    8880022    1    1    2    0    0  0.14694790313E+04 -0.99056628972E+03 -0.44634417946E+03  0.18339042988E+04  0.15294330000E+03 0.  0.
<mgrwt>
<rscale>  0 0.18620033E+04</rscale>
<asrwt>0</asrwt>
<pdfrwt beam="1">  1        2 0.38004644E+00 0.18906085E+04</pdfrwt>
<pdfrwt beam="2">  1       -2 0.25278918E+00 0.18906085E+04</pdfrwt>
<totfact> 0.20114253E-01</totfact>
</mgrwt>
</event>
<event>
 4    1  0.6502538E-008  0.7636980E+03  0.7818608E-02  0.9795626E-01
          2   -1    0    0  501    0  0.00000000000E+00  0.00000000000E+00  0.16806950842E+04  0.16806950842E+04  0.25500000000E-02 0. -1.
         -2   -1    0    0    0  501 -0.00000000000E+00 -0.00000000000E+00 -0.22611206308E+03  0.22611206309E+03  0.25500000000E-02 0.  1.
    8880023    1    1    2    0    0 -0.36820890015E+03 -0.11767166516E+03  0.11901998200E+04  0.14141464679E+04  0.65864270000E+03 0.  0.
    8880022    1    1    2    0    0  0.36820890015E+03  0.11767166516E+03  0.26438320106E+03  0.49266067932E+03  0.15294330000E+03 0.  0.
<mgrwt>
<rscale>  0 0.65597796E+03</rscale>
<asrwt>0</asrwt>
<pdfrwt beam="1">  1        2 0.25856846E+00 0.76369799E+03</pdfrwt>
<pdfrwt beam="2">  1       -2 0.34786473E-01 0.76369799E+03</pdfrwt>
<totfact> 0.79519380E+01</totfact>
</mgrwt>
</event>
<event>
 4    1  0.6502538E-008  0.1146050E+04  0.7818608E-02  0.9211438E-01
         -2   -1    0    0    0  501 -0.00000000000E+00  0.00000000000E+00  0.17313565188E+04  0.17313565188E+04  0.25500000000E-02 0.  1.
          2   -1    0    0  501    0  0.00000000000E+00 -0.00000000000E+00 -0.89107267717E+03  0.89107267717E+03  0.25500000000E-02 0. -1.
    8880023    1    1    2    0    0 -0.68419862448E+03  0.64147634873E+03 -0.25324872968E+03  0.11736970602E+04  0.65864270000E+03 0. -1.
    8880022    1    1    2    0    0  0.68419862448E+03 -0.64147634873E+03  0.10935325713E+04  0.14487321358E+04  0.15294330000E+03 0.  0.
<mgrwt>
<rscale>  0 0.10936144E+04</rscale>
<asrwt>0</asrwt>
<pdfrwt beam="1">  1        2 0.13708810E+00 0.11460497E+04</pdfrwt>
<pdfrwt beam="2">  1       -2 0.26636254E+00 0.11460497E+04</pdfrwt>
<totfact> 0.14898188E+00</totfact>
</mgrwt>
</event>
<event>
 4    1  0.6502538E-008  0.1086438E+04  0.7818608E-02  0.9276308E-01
         -2   -1    0    0    0  501 -0.00000000000E+00  0.00000000000E+00  0.64330613318E+03  0.64330613318E+03  0.25500000000E-02 0.  1.
          2   -1    0    0  501    0  0.00000000000E+00 -0.00000000000E+00 -0.15302905199E+04  0.15302905199E+04  0.25500000000E-02 0. -1.
    8880023    1    1    2    0    0  0.17084152789E+00  0.86402362106E+03 -0.33480354310E+03  0.11368555166E+04  0.65864270000E+03 0.  0.
    8880022    1    1    2    0    0 -0.17084152789E+00 -0.86402362106E+03 -0.55218084358E+03  0.10367411364E+04  0.15294330000E+03 0.  0.
<mgrwt>
<rscale>  0 0.10299353E+04</rscale>
<asrwt>0</asrwt>
<pdfrwt beam="1">  1        2 0.23542931E+00 0.10864378E+04</pdfrwt>
<pdfrwt beam="2">  1       -2 0.98970175E-01 0.10864378E+04</pdfrwt>
<totfact> 0.10201435E+01</totfact>
</mgrwt>
</event>
<event>
 4    1  0.6502538E-008  0.1129935E+04  0.7818608E-02  0.9228437E-01
          2   -1    0    0  501    0  0.00000000000E+00  0.00000000000E+00  0.37591384929E+04  0.37591384929E+04  0.25500000000E-02 0. -1.
         -2   -1    0    0    0  501 -0.00000000000E+00 -0.00000000000E+00 -0.11433904438E+04  0.11433904438E+04  0.25500000000E-02 0.  1.
    8880023    1    1    2    0    0  0.71409143002E+03 -0.57707559763E+03  0.34637451012E+04  0.36433889647E+04  0.65864270000E+03 0.  0.
    8880022    1    1    2    0    0 -0.71409143002E+03  0.57707559763E+03 -0.84799705204E+03  0.12591399720E+04  0.15294330000E+03 0.  0.
<mgrwt>
<rscale>  0 0.10764672E+04</rscale>
<asrwt>0</asrwt>
<pdfrwt beam="1">  1        2 0.57832900E+00 0.11299350E+04</pdfrwt>
<pdfrwt beam="2">  1       -2 0.17590622E+00 0.11299350E+04</pdfrwt>
<totfact> 0.10337917E-01</totfact>
</mgrwt>
</event>
<event>
 4    1  0.6502538E-008  0.8176529E+03  0.7818608E-02  0.9673851E-01
         -2   -1    0    0    0  501 -0.00000000000E+00  0.00000000000E+00  0.14405653839E+04  0.14405653839E+04  0.25500000000E-02 0.  1.
          2   -1    0    0  501    0  0.00000000000E+00 -0.00000000000E+00 -0.44209531492E+03  0.44209531493E+03  0.25500000000E-02 0. -1.
    8880023    1    1    2    0    0  0.37644799464E+03  0.30501309443E+03  0.65442013480E+02  0.82026760501E+03  0.65864270000E+03 0. -1.
    8880022    1    1    2    0    0 -0.37644799464E+03 -0.30501309443E+03  0.93302805552E+03  0.10623930938E+04  0.15294330000E+03 0.  0.
<mgrwt>
<rscale>  0 0.72595245E+03</rscale>
<asrwt>0</asrwt>
<pdfrwt beam="1">  1        2 0.68014664E-01 0.81765291E+03</pdfrwt>
<pdfrwt beam="2">  1       -2 0.22162544E+00 0.81765291E+03</pdfrwt>
<totfact> 0.69540115E+00</totfact>
</mgrwt>
</event>
<event>
 4    1  0.6502538E-008  0.1124861E+04  0.7818608E-02  0.9233869E-01
          2   -1    0    0  501    0  0.00000000000E+00  0.00000000000E+00  0.32444914935E+04  0.32444914935E+04  0.25500000000E-02 0. -1.
         -2   -1    0    0    0  501 -0.00000000000E+00 -0.00000000000E+00 -0.33451356408E+03  0.33451356409E+03  0.25500000000E-02 0.  1.
    8880023    1    1    2    0    0  0.69873079972E+03  0.58589885148E+03  0.19135444201E+04  0.22196766991E+04  0.65864270000E+03 0.  0.
    8880022    1    1    2    0    0 -0.69873079972E+03 -0.58589885148E+03  0.99643350932E+03  0.13593283585E+04  0.15294330000E+03 0. -1.
<mgrwt>
<rscale>  0 0.10710585E+04</rscale>
<asrwt>0</asrwt>
<pdfrwt beam="1">  1        2 0.49915254E+00 0.11248611E+04</pdfrwt>
<pdfrwt beam="2">  1       -2 0.51463625E-01 0.11248611E+04</pdfrwt>
<totfact> 0.43759980E+00</totfact>
</mgrwt>
</event>
<event>
 4    1  0.6502538E-008  0.9176398E+03  0.7818608E-02  0.9498287E-01
          2   -1    0    0  501    0  0.00000000000E+00  0.00000000000E+00  0.11156550666E+04  0.11156550667E+04  0.25500000000E-02 0. -1.
         -2   -1    0    0    0  501 -0.00000000000E+00 -0.00000000000E+00 -0.80509539594E+03  0.80509539594E+03  0.25500000000E-02 0.  1.
    8880023    1    1    2    0    0  0.54028980398E+03  0.34108582241E+03  0.70255211620E+03  0.11556999147E+04  0.65864270000E+03 0.  0.
    8880022    1    1    2    0    0 -0.54028980398E+03 -0.34108582241E+03 -0.39199244549E+03  0.76505054792E+03  0.15294330000E+03 0.  0.
<mgrwt>
<rscale>  0 0.84410200E+03</rscale>
<asrwt>0</asrwt>
<pdfrwt beam="1">  1        2 0.17163924E+00 0.91763981E+03</pdfrwt>
<pdfrwt beam="2">  1       -2 0.12386083E+00 0.91763981E+03</pdfrwt>
<totfact> 0.10455116E+01</totfact>
</mgrwt>
</event>
<event>
 4    1  0.6502538E-008  0.7392549E+03  0.7818608E-02  0.9862123E-01
          2   -1    0    0  501    0  0.00000000000E+00  0.00000000000E+00  0.11086590479E+04  0.11086590480E+04  0.25500000000E-02 0. -1.
         -2   -1    0    0    0  501 -0.00000000000E+00 -0.00000000000E+00 -0.54532282969E+03  0.54532282969E+03  0.25500000000E-02 0.  1.
    8880023    1    1    2    0    0 -0.44046427950E+02 -0.33278756212E+03  0.89297558408E+03  0.11592684113E+04  0.65864270000E+03 0.  0.
    8880022    1    1    2    0    0  0.44046427950E+02  0.33278756212E+03 -0.32963936582E+03  0.49471346639E+03  0.15294330000E+03 0.  0.
<mgrwt>
<rscale>  0 0.62132622E+03</rscale>
<asrwt>0</asrwt>
<pdfrwt beam="1">  1        2 0.17056293E+00 0.73925493E+03</pdfrwt>
<pdfrwt beam="2">  1       -2 0.83895820E-01 0.73925493E+03</pdfrwt>
<totfact> 0.27211792E+01</totfact>
</mgrwt>
</event>
<event>
 4    1  0.6502538E-008  0.7104037E+03  0.7818608E-02  0.9956505E-01
         -2   -1    0    0    0  501 -0.00000000000E+00  0.00000000000E+00  0.49523805450E+03  0.49523805451E+03  0.25500000000E-02 0.  1.
          2   -1    0    0  501    0  0.00000000000E+00 -0.00000000000E+00 -0.21036505924E+04  0.21036505924E+04  0.25500000000E-02 0. -1.
    8880023    1    1    2    0    0  0.25620556241E+03 -0.72263012043E+02 -0.19877491256E+04  0.21108813386E+04  0.65864270000E+03 0. -1.
    8880022    1    1    2    0    0 -0.25620556241E+03  0.72263012043E+02  0.37933658773E+03  0.48800730827E+03  0.15294330000E+03 0.  0.
<mgrwt>
<rscale>  0 0.57599260E+03</rscale>
<asrwt>0</asrwt>
<pdfrwt beam="1">  1        2 0.32363855E+00 0.71040372E+03</pdfrwt>
<pdfrwt beam="2">  1       -2 0.76190471E-01 0.71040372E+03</pdfrwt>
<totfact> 0.94198193E+00</totfact>
</mgrwt>
</event>
<event>
 4    1  0.6502538E-008  0.8947721E+03  0.7818608E-02  0.9534477E-01
         -2   -1    0    0    0  501 -0.00000000000E+00  0.00000000000E+00  0.20268900148E+04  0.20268900148E+04  0.25500000000E-02 0.  1.
          2   -1    0    0  501    0  0.00000000000E+00 -0.00000000000E+00 -0.52055894929E+03  0.52055894930E+03  0.25500000000E-02 0. -1.
    8880023    1    1    2    0    0  0.55874004131E+03 -0.23370176602E+03 -0.23417134330E+02  0.89507849803E+03  0.65864270000E+03 0.  0.
    8880022    1    1    2    0    0 -0.55874004131E+03  0.23370176602E+03  0.15297481998E+04  0.16523704661E+04  0.15294330000E+03 0.  0.
<mgrwt>
<rscale>  0 0.81789028E+03</rscale>
<asrwt>0</asrwt>
<pdfrwt beam="1">  1        2 0.80085992E-01 0.89477212E+03</pdfrwt>
<pdfrwt beam="2">  1       -2 0.31182923E+00 0.89477212E+03</pdfrwt>
<totfact> 0.16149907E+00</totfact>
</mgrwt>
</event>
<event>
 4    1  0.6502538E-008  0.1233119E+04  0.7818608E-02  0.9125582E-01
          2   -1    0    0  501    0  0.00000000000E+00  0.00000000000E+00  0.15131371962E+04  0.15131371962E+04  0.25500000000E-02 0. -1.
         -2   -1    0    0    0  501 -0.00000000000E+00 -0.00000000000E+00 -0.14415662079E+04  0.14415662079E+04  0.25500000000E-02 0.  1.
    8880023    1    1    2    0    0 -0.23070343452E+03  0.10166354992E+04  0.97087774994E+03  0.15694539256E+04  0.65864270000E+03 0.  0.
    8880022    1    1    2    0    0  0.23070343452E+03 -0.10166354992E+04 -0.89930676168E+03  0.13852494785E+04  0.15294330000E+03 0.  0.
<mgrwt>
<rscale>  0 0.11855696E+04</rscale>
<asrwt>0</asrwt>
<pdfrwt beam="1">  1        2 0.23279034E+00 0.12331188E+04</pdfrwt>
<pdfrwt beam="2">  1       -2 0.22177942E+00 0.12331188E+04</pdfrwt>
<totfact> 0.11617591E+00</totfact>
</mgrwt>
</event>
<event>
 4    1  0.6502538E-008  0.8263130E+03  0.7818608E-02  0.9656549E-01
          2   -1    0    0  501    0  0.00000000000E+00  0.00000000000E+00  0.32004656515E+04  0.32004656515E+04  0.25500000000E-02 0. -1.
         -2   -1    0    0    0  501 -0.00000000000E+00 -0.00000000000E+00 -0.21188212879E+03  0.21188212881E+03  0.25500000000E-02 0.  1.
    8880023    1    1    2    0    0  0.49699431904E+03 -0.44493454992E+02  0.26834615343E+04  0.28078032398E+04  0.65864270000E+03 0.  0.
    8880022    1    1    2    0    0 -0.49699431904E+03  0.44493454992E+02  0.30512198836E+03  0.60454454054E+03  0.15294330000E+03 0.  0.
<mgrwt>
<rscale>  0 0.73663829E+03</rscale>
<asrwt>0</asrwt>
<pdfrwt beam="1">  1        2 0.49237928E+00 0.82631303E+03</pdfrwt>
<pdfrwt beam="2">  1       -2 0.32597254E-01 0.82631303E+03</pdfrwt>
<totfact> 0.11984879E+01</totfact>
</mgrwt>
</event>
<event>
 4    1  0.6502538E-008  0.9507731E+03  0.7818608E-02  0.9449003E-01
          2   -1    0    0  501    0  0.00000000000E+00  0.00000000000E+00  0.14077823083E+04  0.14077823083E+04  0.25500000000E-02 0. -1.
         -2   -1    0    0    0  501 -0.00000000000E+00 -0.00000000000E+00 -0.53717561541E+03  0.53717561542E+03  0.25500000000E-02 0.  1.
    8880023    1    1    2    0    0  0.37185057649E+03 -0.57609588300E+03  0.79315467985E+03  0.12381695643E+04  0.65864270000E+03 0.  0.
    8880022    1    1    2    0    0 -0.37185057649E+03  0.57609588300E+03  0.77452013065E+02  0.70678835940E+03  0.15294330000E+03 0.  0.
<mgrwt>
<rscale>  0 0.88150377E+03</rscale>
<asrwt>0</asrwt>
<pdfrwt beam="1">  1        2 0.21658189E+00 0.95077312E+03</pdfrwt>
<pdfrwt beam="2">  1       -2 0.82642404E-01 0.95077312E+03</pdfrwt>
<totfact> 0.18412913E+01</totfact>
</mgrwt>
</event>
<event>
 4    1  0.6502538E-008  0.7471468E+03  0.7818608E-02  0.9839597E-01
         -2   -1    0    0    0  501 -0.00000000000E+00  0.00000000000E+00  0.78942607209E+03  0.78942607210E+03  0.25500000000E-02 0.  1.
          2   -1    0    0  501    0  0.00000000000E+00 -0.00000000000E+00 -0.12103422432E+04  0.12103422432E+04  0.25500000000E-02 0. -1.
    8880023    1    1    2    0    0  0.19923005930E+03 -0.29107650250E+03 -0.10342533979E+04  0.12758951540E+04  0.65864270000E+03 0. -1.
    8880022    1    1    2    0    0 -0.19923005930E+03  0.29107650250E+03  0.61333722677E+03  0.72387316126E+03  0.15294330000E+03 0.  0.
<mgrwt>
<rscale>  0 0.63280130E+03</rscale>
<asrwt>0</asrwt>
<pdfrwt beam="1">  1        2 0.18620650E+00 0.74714681E+03</pdfrwt>
<pdfrwt beam="2">  1       -2 0.12145016E+00 0.74714681E+03</pdfrwt>
<totfact> 0.98191529E+00</totfact>
</mgrwt>
</event>
<event>
 4    1  0.6502538E-008  0.1033777E+04  0.7818608E-02  0.9338642E-01
          2   -1    0    0  501    0  0.00000000000E+00  0.00000000000E+00  0.12813151004E+04  0.12813151004E+04  0.25500000000E-02 0. -1.
         -2   -1    0    0    0  501 -0.00000000000E+00 -0.00000000000E+00 -0.91449140037E+03  0.91449140038E+03  0.25500000000E-02 0.  1.
    8880023    1    1    2    0    0  0.79661595613E+03  0.16974519726E+02  0.77074998606E+03  0.12894769727E+04  0.65864270000E+03 0.  0.
    8880022    1    1    2    0    0 -0.79661595613E+03 -0.16974519726E+02 -0.40392628604E+03  0.90632952806E+03  0.15294330000E+03 0.  0.
<mgrwt>
<rscale>  0 0.97301891E+03</rscale>
<asrwt>0</asrwt>
<pdfrwt beam="1">  1        2 0.19712540E+00 0.10337772E+04</pdfrwt>
<pdfrwt beam="2">  1       -2 0.14069098E+00 0.10337772E+04</pdfrwt>
<totfact> 0.59418454E+00</totfact>
</mgrwt>
</event>
<event>
 4    1  0.6502538E-008  0.1050182E+04  0.7818608E-02  0.9318662E-01
         -2   -1    0    0    0  501 -0.00000000000E+00  0.00000000000E+00  0.16047818513E+04  0.16047818513E+04  0.25500000000E-02 0.  1.
          2   -1    0    0  501    0  0.00000000000E+00 -0.00000000000E+00 -0.59474568959E+03  0.59474568959E+03  0.25500000000E-02 0. -1.
    8880023    1    1    2    0    0  0.75271649942E+03  0.32014080661E+03  0.85241306913E+03  0.13525866003E+04  0.65864270000E+03 0.  0.
    8880022    1    1    2    0    0 -0.75271649942E+03 -0.32014080661E+03  0.15762309257E+03  0.84694094061E+03  0.15294330000E+03 0.  0.
<mgrwt>
<rscale>  0 0.99082762E+03</rscale>
<asrwt>0</asrwt>
<pdfrwt beam="1">  1        2 0.91499337E-01 0.10501821E+04</pdfrwt>
<pdfrwt beam="2">  1       -2 0.24688951E+00 0.10501821E+04</pdfrwt>
<totfact> 0.33449653E+00</totfact>
</mgrwt>
</event>
<event>
 4    1  0.6502538E-008  0.6631206E+03  0.7818608E-02  0.1021165E+00
          2   -1    0    0  501    0  0.00000000000E+00  0.00000000000E+00  0.77077646923E+03  0.77077646924E+03  0.25500000000E-02 0. -1.
         -2   -1    0    0    0  501 -0.00000000000E+00 -0.00000000000E+00 -0.52755459236E+03  0.52755459237E+03  0.25500000000E-02 0.  1.
    8880023    1    1    2    0    0 -0.74036523235E+01 -0.76576008380E+02  0.60528578006E+03  0.89783059702E+03  0.65864270000E+03 0. -1.
    8880022    1    1    2    0    0  0.74036523235E+01  0.76576008380E+02 -0.36206390319E+03  0.40050046459E+03  0.15294330000E+03 0.  0.
<mgrwt>
<rscale>  0 0.47268521E+03</rscale>
<asrwt>0</asrwt>
<pdfrwt beam="1">  1        2 0.11858100E+00 0.66312058E+03</pdfrwt>
<pdfrwt beam="2">  1       -2 0.81162245E-01 0.66312058E+03</pdfrwt>
<totfact> 0.49424820E+01</totfact>
</mgrwt>
</event>
<event>
 4    1  0.6502538E-008  0.6804492E+03  0.7818608E-02  0.1009071E+00
         -2   -1    0    0    0  501 -0.00000000000E+00  0.00000000000E+00  0.26016071381E+03  0.26016071382E+03  0.25500000000E-02 0.  1.
          2   -1    0    0  501    0  0.00000000000E+00 -0.00000000000E+00 -0.19520250611E+04  0.19520250611E+04  0.25500000000E-02 0. -1.
    8880023    1    1    2    0    0  0.15701154935E+03 -0.67441238289E+02 -0.18245029200E+04  0.19472601415E+04  0.65864270000E+03 0. -1.
    8880022    1    1    2    0    0 -0.15701154935E+03  0.67441238289E+02  0.13263857274E+03  0.26492563342E+03  0.15294330000E+03 0.  0.
<mgrwt>
<rscale>  0 0.51845656E+03</rscale>
<asrwt>0</asrwt>
<pdfrwt beam="1">  1        2 0.30031154E+00 0.68044923E+03</pdfrwt>
<pdfrwt beam="2">  1       -2 0.40024726E-01 0.68044923E+03</pdfrwt>
<totfact> 0.43605095E+01</totfact>
</mgrwt>
</event>
<event>
 4    1  0.6502538E-008  0.8224372E+03  0.7818608E-02  0.9664230E-01
          2   -1    0    0  501    0  0.00000000000E+00  0.00000000000E+00  0.55888061499E+03  0.55888061499E+03  0.25500000000E-02 0. -1.
         -2   -1    0    0    0  501 -0.00000000000E+00 -0.00000000000E+00 -0.22953003879E+04  0.22953003879E+04  0.25500000000E-02 0.  1.
    8880023    1    1    2    0    0  0.49241405214E+03 -0.11005521552E+02  0.20319856092E+03  0.84716738705E+03  0.65864270000E+03 0. -1.
    8880022    1    1    2    0    0 -0.49241405214E+03  0.11005521552E+02 -0.19396183338E+04  0.20070136159E+04  0.15294330000E+03 0.  0.
<mgrwt>
<rscale>  0 0.73187021E+03</rscale>
<asrwt>0</asrwt>
<pdfrwt beam="1">  1        2 0.85981634E-01 0.82243719E+03</pdfrwt>
<pdfrwt beam="2">  1       -2 0.35312313E+00 0.82243719E+03</pdfrwt>
<totfact> 0.83669624E-01</totfact>
</mgrwt>
</event>
<event>
 4    1  0.6502538E-008  0.8460977E+03  0.7818608E-02  0.9618788E-01
          2   -1    0    0  501    0  0.00000000000E+00  0.00000000000E+00  0.41356668797E+04  0.41356668797E+04  0.25500000000E-02 0. -1.
         -2   -1    0    0    0  501 -0.00000000000E+00 -0.00000000000E+00 -0.18377207195E+03  0.18377207197E+03  0.25500000000E-02 0.  1.
    8880023    1    1    2    0    0 -0.27878087292E+03  0.45205338337E+03  0.35136532224E+04  0.36140891259E+04  0.65864270000E+03 0. -1.
    8880022    1    1    2    0    0  0.27878087292E+03 -0.45205338337E+03  0.43824158530E+03  0.70534982570E+03  0.15294330000E+03 0.  0.
<mgrwt>
<rscale>  0 0.76065047E+03</rscale>
<asrwt>0</asrwt>
<pdfrwt beam="1">  1        2 0.63625645E+00 0.84609766E+03</pdfrwt>
<pdfrwt beam="2">  1       -2 0.28272626E-01 0.84609766E+03</pdfrwt>
<totfact> 0.32942251E+00</totfact>
</mgrwt>
</event>
<event>
 4    1  0.6502538E-008  0.7685213E+03  0.7818608E-02  0.9783526E-01
          2   -1    0    0  501    0  0.00000000000E+00  0.00000000000E+00  0.24296309657E+04  0.24296309657E+04  0.25500000000E-02 0. -1.
         -2   -1    0    0    0  501 -0.00000000000E+00 -0.00000000000E+00 -0.30014036390E+03  0.30014036391E+03  0.25500000000E-02 0.  1.
    8880023    1    1    2    0    0 -0.11006066870E+03 -0.38039647675E+03  0.21712182020E+04  0.23032180786E+04  0.65864270000E+03 0. -1.
    8880022    1    1    2    0    0  0.11006066870E+03  0.38039647675E+03 -0.41727600252E+02  0.42655325102E+03  0.15294330000E+03 0.  0.
<mgrwt>
<rscale>  0 0.66254174E+03</rscale>
<asrwt>0</asrwt>
<pdfrwt beam="1">  1        2 0.37378937E+00 0.76852133E+03</pdfrwt>
<pdfrwt beam="2">  1       -2 0.46175442E-01 0.76852133E+03</pdfrwt>
<totfact> 0.17707581E+01</totfact>
</mgrwt>
</event>
<event>
 4    1  0.6502538E-008  0.8111602E+03  0.7818608E-02  0.9687165E-01
          2   -1    0    0  501    0  0.00000000000E+00  0.00000000000E+00  0.17004066795E+04  0.17004066795E+04  0.25500000000E-02 0. -1.
         -2   -1    0    0    0  501 -0.00000000000E+00 -0.00000000000E+00 -0.42881419195E+03  0.42881419196E+03  0.25500000000E-02 0.  1.
    8880023    1    1    2    0    0  0.38999417358E+03 -0.26846817276E+03  0.13976137410E+04  0.16159532761E+04  0.65864270000E+03 0.  0.
    8880022    1    1    2    0    0 -0.38999417358E+03  0.26846817276E+03 -0.12602125338E+03  0.51326759544E+03  0.15294330000E+03 0.  0.
<mgrwt>
<rscale>  0 0.71786126E+03</rscale>
<asrwt>0</asrwt>
<pdfrwt beam="1">  1        2 0.26160103E+00 0.81116017E+03</pdfrwt>
<pdfrwt beam="2">  1       -2 0.65971415E-01 0.81116017E+03</pdfrwt>
<totfact> 0.21139031E+01</totfact>
</mgrwt>
</event>
<event>
 4    1  0.7294047E-008  0.7744226E+03  0.7818608E-02  0.9769105E-01
          2   -1    0    0  501    0  0.00000000000E+00  0.00000000000E+00  0.23908720009E+04  0.23908720009E+04  0.25500000000E-02 0. -1.
         -2   -1    0    0    0  501 -0.00000000000E+00 -0.00000000000E+00 -0.13756851150E+04  0.13756851150E+04  0.25500000000E-02 0.  1.
    8880023    1    1    2    0    0  0.40441623325E+03  0.48658987424E+02  0.22911281722E+04  0.24184703212E+04  0.65864270000E+03 0. -1.
    8880022    1    1    2    0    0 -0.40441623325E+03 -0.48658987424E+02 -0.12759412863E+04  0.13480867947E+04  0.15294330000E+03 0.  0.
<mgrwt>
<rscale>  0 0.67047215E+03</rscale>
<asrwt>0</asrwt>
<pdfrwt beam="1">  1        2 0.36782646E+00 0.77442262E+03</pdfrwt>
<pdfrwt beam="2">  1       -2 0.21164387E+00 0.77442262E+03</pdfrwt>
<totfact> 0.47260812E-01</totfact>
</mgrwt>
</event>
<event>
 4    1  0.6502538E-008  0.1169400E+04  0.7818608E-02  0.9187457E-01
          2   -1    0    0  501    0  0.00000000000E+00  0.00000000000E+00  0.78039573780E+03  0.78039573781E+03  0.25500000000E-02 0. -1.
         -2   -1    0    0    0  501 -0.00000000000E+00 -0.00000000000E+00 -0.19200082734E+04  0.19200082734E+04  0.25500000000E-02 0.  1.
    8880023    1    1    2    0    0 -0.39610593370E+03  0.88135431490E+03  0.37281050899E+02  0.11699937701E+04  0.65864270000E+03 0.  0.
    8880022    1    1    2    0    0  0.39610593370E+03 -0.88135431490E+03 -0.11768935865E+04  0.15304102411E+04  0.15294330000E+03 0.  0.
<mgrwt>
<rscale>  0 0.11183831E+04</rscale>
<asrwt>0</asrwt>
<pdfrwt beam="1">  1        2 0.12006088E+00 0.11693997E+04</pdfrwt>
<pdfrwt beam="2">  1       -2 0.29538589E+00 0.11693997E+04</pdfrwt>
<totfact> 0.11878625E+00</totfact>
</mgrwt>
</event>
<event>
 4    1  0.6502538E-008  0.1094708E+04  0.7818608E-02  0.9266972E-01
         -2   -1    0    0    0  501 -0.00000000000E+00  0.00000000000E+00  0.88607860993E+03  0.88607860993E+03  0.25500000000E-02 0.  1.
          2   -1    0    0  501    0  0.00000000000E+00 -0.00000000000E+00 -0.18734808021E+04  0.18734808021E+04  0.25500000000E-02 0. -1.
    8880023    1    1    2    0    0 -0.10688297055E+02 -0.87433412975E+03 -0.14028878025E+04  0.17794602561E+04  0.65864270000E+03 0.  0.
    8880022    1    1    2    0    0  0.10688297055E+02  0.87433412975E+03  0.41548561035E+03  0.98009915598E+03  0.15294330000E+03 0.  0.
<mgrwt>
<rscale>  0 0.10388122E+04</rscale>
<asrwt>0</asrwt>
<pdfrwt beam="1">  1        2 0.28822781E+00 0.10947075E+04</pdfrwt>
<pdfrwt beam="2">  1       -2 0.13631979E+00 0.10947075E+04</pdfrwt>
<totfact> 0.29781050E+00</totfact>
</mgrwt>
</event>
<event>
 4    1  0.6502538E-008  0.8159504E+03  0.7818608E-02  0.9677313E-01
          2   -1    0    0  501    0  0.00000000000E+00  0.00000000000E+00  0.80352121818E+03  0.80352121819E+03  0.25500000000E-02 0. -1.
         -2   -1    0    0    0  501 -0.00000000000E+00 -0.00000000000E+00 -0.16575784716E+04  0.16575784716E+04  0.25500000000E-02 0.  1.
    8880023    1    1    2    0    0 -0.24307048329E+03  0.41579024119E+03  0.53988292145E+03  0.97839080109E+03  0.65864270000E+03 0. -1.
    8880022    1    1    2    0    0  0.24307048329E+03 -0.41579024119E+03 -0.13939401749E+04  0.14827088887E+04  0.15294330000E+03 0.  0.
<mgrwt>
<rscale>  0 0.72383763E+03</rscale>
<asrwt>0</asrwt>
<pdfrwt beam="1">  1        2 0.12361865E+00 0.81595036E+03</pdfrwt>
<pdfrwt beam="2">  1       -2 0.25501207E+00 0.81595036E+03</pdfrwt>
<totfact> 0.20962069E+00</totfact>
</mgrwt>
</event>
<event>
 4    1  0.6502538E-008  0.1159793E+04  0.7818608E-02  0.9197233E-01
         -2   -1    0    0    0  501 -0.00000000000E+00  0.00000000000E+00  0.64681785240E+03  0.64681785241E+03  0.25500000000E-02 0.  1.
          2   -1    0    0  501    0  0.00000000000E+00 -0.00000000000E+00 -0.32565564765E+04  0.32565564765E+04  0.25500000000E-02 0. -1.
    8880023    1    1    2    0    0  0.59699644000E+02 -0.95275648670E+03 -0.26938655421E+04  0.29329218768E+04  0.65864270000E+03 0.  0.
    8880022    1    1    2    0    0 -0.59699644000E+02  0.95275648670E+03  0.84126917971E+02  0.97045245210E+03  0.15294330000E+03 0.  0.
<mgrwt>
<rscale>  0 0.11082031E+04</rscale>
<asrwt>0</asrwt>
<pdfrwt beam="1">  1        2 0.50100868E+00 0.11597927E+04</pdfrwt>
<pdfrwt beam="2">  1       -2 0.99510441E-01 0.11597927E+04</pdfrwt>
<totfact> 0.99585882E-01</totfact>
</mgrwt>
</event>
<event>
 4    1  0.6502538E-008  0.9253607E+03  0.7818608E-02  0.9486488E-01
          2   -1    0    0  501    0  0.00000000000E+00  0.00000000000E+00  0.12967656538E+04  0.12967656538E+04  0.25500000000E-02 0. -1.
         -2   -1    0    0    0  501 -0.00000000000E+00 -0.00000000000E+00 -0.55952883832E+03  0.55952883832E+03  0.25500000000E-02 0.  1.
    8880023    1    1    2    0    0  0.64248191608E+03 -0.98484681646E+02  0.95672971657E+02  0.93029337780E+03  0.65864270000E+03 0.  1.
    8880022    1    1    2    0    0 -0.64248191608E+03  0.98484681646E+02  0.64156384381E+03  0.92600111431E+03  0.15294330000E+03 0.  0.
<mgrwt>
<rscale>  0 0.85287385E+03</rscale>
<asrwt>0</asrwt>
<pdfrwt beam="1">  1        2 0.19950240E+00 0.92536071E+03</pdfrwt>
<pdfrwt beam="2">  1       -2 0.86081361E-01 0.92536071E+03</pdfrwt>
<totfact> 0.19479881E+01</totfact>
</mgrwt>
</event>
<event>
 4    1  0.6502538E-008  0.9919224E+03  0.7818608E-02  0.9392203E-01
          2   -1    0    0  501    0  0.00000000000E+00  0.00000000000E+00  0.85145285522E+03  0.85145285522E+03  0.25500000000E-02 0. -1.
         -2   -1    0    0    0  501 -0.00000000000E+00 -0.00000000000E+00 -0.14720210771E+04  0.14720210771E+04  0.25500000000E-02 0.  1.
    8880023    1    1    2    0    0  0.66486931454E+02  0.73870104547E+03  0.38553688463E+03  0.10642126866E+04  0.65864270000E+03 0. -1.
    8880022    1    1    2    0    0 -0.66486931454E+02 -0.73870104547E+03 -0.10061051065E+04  0.12592612457E+04  0.15294330000E+03 0.  0.
<mgrwt>
<rscale>  0 0.92720149E+03</rscale>
<asrwt>0</asrwt>
<pdfrwt beam="1">  1        2 0.13099275E+00 0.99192235E+03</pdfrwt>
<pdfrwt beam="2">  1       -2 0.22646478E+00 0.99192235E+03</pdfrwt>
<totfact> 0.28364326E+00</totfact>
</mgrwt>
</event>
<event>
 4    1  0.6502538E-008  0.7084534E+03  0.7818608E-02  0.9963790E-01
         -2   -1    0    0    0  501 -0.00000000000E+00  0.00000000000E+00  0.19457160498E+03  0.19457160500E+03  0.25500000000E-02 0.  1.
          2   -1    0    0  501    0  0.00000000000E+00 -0.00000000000E+00 -0.40874948420E+04  0.40874948420E+04  0.25500000000E-02 0. -1.
    8880023    1    1    2    0    0  0.43713784355E+02  0.25726461612E+03 -0.39151972802E+04  0.39787781953E+04  0.65864270000E+03 0. -1.
    8880022    1    1    2    0    0 -0.43713784355E+02 -0.25726461612E+03  0.22274043179E+02  0.30328825178E+03  0.15294330000E+03 0.  0.
<mgrwt>
<rscale>  0 0.57266910E+03</rscale>
<asrwt>0</asrwt>
<pdfrwt beam="1">  1        2 0.62884530E+00 0.70845337E+03</pdfrwt>
<pdfrwt beam="2">  1       -2 0.29934096E-01 0.70845337E+03</pdfrwt>
<totfact> 0.33467077E+00</totfact>
</mgrwt>
</event>
<event>
 4    1  0.6502538E-008  0.1038896E+04  0.7818608E-02  0.9332351E-01
          2   -1    0    0  501    0  0.00000000000E+00  0.00000000000E+00  0.26829349551E+04  0.26829349551E+04  0.25500000000E-02 0. -1.
         -2   -1    0    0    0  501 -0.00000000000E+00 -0.00000000000E+00 -0.65776623214E+03  0.65776623215E+03  0.25500000000E-02 0.  1.
    8880023    1    1    2    0    0  0.62787455922E+02  0.80096920016E+03  0.22620679188E+04  0.24892278722E+04  0.65864270000E+03 0. -1.
    8880022    1    1    2    0    0 -0.62787455922E+02 -0.80096920016E+03 -0.23689919584E+03  0.85147331505E+03  0.15294330000E+03 0.  0.
<mgrwt>
<rscale>  0 0.97858357E+03</rscale>
<asrwt>0</asrwt>
<pdfrwt beam="1">  1        2 0.41275922E+00 0.10388956E+04</pdfrwt>
<pdfrwt beam="2">  1       -2 0.10119481E+00 0.10388956E+04</pdfrwt>
<totfact> 0.21969338E+00</totfact>
</mgrwt>
</event>
<event>
 4    1  0.6502538E-008  0.1043294E+04  0.7818608E-02  0.9326987E-01
          2   -1    0    0  501    0  0.00000000000E+00  0.00000000000E+00  0.47233844019E+04  0.47233844019E+04  0.25500000000E-02 0. -1.
         -2   -1    0    0    0  501 -0.00000000000E+00 -0.00000000000E+00 -0.29530186430E+03  0.29530186431E+03  0.25500000000E-02 0.  1.
    8880023    1    1    2    0    0  0.67762146133E+03 -0.44213284528E+03  0.39077618632E+04  0.40446341347E+04  0.65864270000E+03 0. -1.
    8880022    1    1    2    0    0 -0.67762146133E+03  0.44213284528E+03  0.52032067442E+03  0.97405213154E+03  0.15294330000E+03 0.  0.
<mgrwt>
<rscale>  0 0.98335942E+03</rscale>
<asrwt>0</asrwt>
<pdfrwt beam="1">  1        2 0.72667455E+00 0.10432941E+04</pdfrwt>
<pdfrwt beam="2">  1       -2 0.45431054E-01 0.10432941E+04</pdfrwt>
<totfact> 0.35866175E-01</totfact>
</mgrwt>
</event>
<event>
 4    1  0.6502538E-008  0.7471207E+03  0.7818608E-02  0.9839670E-01
         -2   -1    0    0    0  501 -0.00000000000E+00  0.00000000000E+00  0.61843247415E+03  0.61843247416E+03  0.25500000000E-02 0.  1.
          2   -1    0    0  501    0  0.00000000000E+00 -0.00000000000E+00 -0.92478832977E+03  0.92478832977E+03  0.25500000000E-02 0. -1.
    8880023    1    1    2    0    0 -0.20002912452E+03  0.29046070861E+03 -0.67773430746E+03  0.10087185295E+04  0.65864270000E+03 0. -1.
    8880022    1    1    2    0    0  0.20002912452E+03 -0.29046070861E+03  0.37137845185E+03  0.53450227447E+03  0.15294330000E+03 0.  0.
<mgrwt>
<rscale>  0 0.63276378E+03</rscale>
<asrwt>0</asrwt>
<pdfrwt beam="1">  1        2 0.14227513E+00 0.74712066E+03</pdfrwt>
<pdfrwt beam="2">  1       -2 0.95143458E-01 0.74712066E+03</pdfrwt>
<totfact> 0.26617352E+01</totfact>
</mgrwt>
</event>
<event>
 4    1  0.7625091E-008  0.8976319E+03  0.7818608E-02  0.9529844E-01
         -2   -1    0    0    0  501 -0.00000000000E+00  0.00000000000E+00  0.18230685760E+04  0.18230685760E+04  0.25500000000E-02 0.  1.
          2   -1    0    0  501    0  0.00000000000E+00 -0.00000000000E+00 -0.15976446458E+04  0.15976446458E+04  0.25500000000E-02 0. -1.
    8880023    1    1    2    0    0  0.54287137786E+03  0.27789098558E+03 -0.14083738508E+04  0.16701077338E+04  0.65864270000E+03 0. -1.
    8880022    1    1    2    0    0 -0.54287137786E+03 -0.27789098558E+03  0.16337977809E+04  0.17506054880E+04  0.15294330000E+03 0.  0.
<mgrwt>
<rscale>  0 0.82118856E+03</rscale>
<asrwt>0</asrwt>
<pdfrwt beam="1">  1        2 0.24579148E+00 0.89763185E+03</pdfrwt>
<pdfrwt beam="2">  1       -2 0.28047209E+00 0.89763185E+03</pdfrwt>
<totfact> 0.47776963E-01</totfact>
</mgrwt>
</event>
<event>
 4    1  0.6502538E-008  0.1442999E+04  0.7818608E-02  0.8950972E-01
          2   -1    0    0  501    0  0.00000000000E+00  0.00000000000E+00  0.11405122186E+04  0.11405122186E+04  0.25500000000E-02 0. -1.
         -2   -1    0    0    0  501 -0.00000000000E+00 -0.00000000000E+00 -0.21281886717E+04  0.21281886717E+04  0.25500000000E-02 0.  1.
    8880023    1    1    2    0    0 -0.53794053494E+03 -0.11657858107E+04  0.26646534265E+03  0.14673958432E+04  0.65864270000E+03 0.  0.
    8880022    1    1    2    0    0  0.53794053494E+03  0.11657858107E+04 -0.12541417958E+04  0.18013050471E+04  0.15294330000E+03 0.  0.
<mgrwt>
<rscale>  0 0.14039399E+04</rscale>
<asrwt>0</asrwt>
<pdfrwt beam="1">  1        2 0.17546342E+00 0.14429992E+04</pdfrwt>
<pdfrwt beam="2">  1       -2 0.32741364E+00 0.14429992E+04</pdfrwt>
<totfact> 0.42187177E-01</totfact>
</mgrwt>
</event>
<event>
 4    1  0.6502538E-008  0.1095465E+04  0.7818608E-02  0.9266122E-01
         -2   -1    0    0    0  501 -0.00000000000E+00  0.00000000000E+00  0.19745999183E+04  0.19745999183E+04  0.25500000000E-02 0.  1.
          2   -1    0    0  501    0  0.00000000000E+00 -0.00000000000E+00 -0.67755990135E+03  0.67755990136E+03  0.25500000000E-02 0. -1.
    8880023    1    1    2    0    0 -0.82965868481E+03  0.27910484257E+03  0.19089814763E+02  0.10956311759E+04  0.65864270000E+03 0.  0.
    8880022    1    1    2    0    0  0.82965868481E+03 -0.27910484257E+03  0.12779502022E+04  0.15565286437E+04  0.15294330000E+03 0.  0.
<mgrwt>
<rscale>  0 0.10396243E+04</rscale>
<asrwt>0</asrwt>
<pdfrwt beam="1">  1        2 0.10423999E+00 0.10954649E+04</pdfrwt>
<pdfrwt beam="2">  1       -2 0.30378460E+00 0.10954649E+04</pdfrwt>
<totfact> 0.12790861E+00</totfact>
</mgrwt>
</event>
<event>
 4    1  0.6502538E-008  0.7188196E+03  0.7818608E-02  0.9926600E-01
          2   -1    0    0  501    0  0.00000000000E+00  0.00000000000E+00  0.36031856641E+04  0.36031856641E+04  0.25500000000E-02 0. -1.
         -2   -1    0    0    0  501 -0.00000000000E+00 -0.00000000000E+00 -0.68583996246E+03  0.68583996246E+03  0.25500000000E-02 0.  1.
    8880023    1    1    2    0    0  0.12353679767E+03  0.26005778018E+03  0.35260190225E+04  0.35985430027E+04  0.65864270000E+03 0. -1.
    8880022    1    1    2    0    0 -0.12353679767E+03 -0.26005778018E+03 -0.60867332079E+03  0.69048262387E+03  0.15294330000E+03 0.  0.
<mgrwt>
<rscale>  0 0.58989257E+03</rscale>
<asrwt>0</asrwt>
<pdfrwt beam="1">  1        2 0.55433627E+00 0.71881958E+03</pdfrwt>
<pdfrwt beam="2">  1       -2 0.10551384E+00 0.71881958E+03</pdfrwt>
<totfact> 0.55007687E-01</totfact>
</mgrwt>
</event>
<event>
 4    1  0.6502538E-008  0.6978322E+03  0.7818608E-02  0.1000632E+00
         -2   -1    0    0    0  501 -0.00000000000E+00  0.00000000000E+00  0.19103591978E+03  0.19103591980E+03  0.25500000000E-02 0.  1.
          2   -1    0    0  501    0  0.00000000000E+00 -0.00000000000E+00 -0.16119531638E+04  0.16119531638E+04  0.25500000000E-02 0. -1.
    8880023    1    1    2    0    0 -0.34216500033E+01 -0.23053813039E+03 -0.13463271223E+04  0.15164321494E+04  0.65864270000E+03 0. -1.
    8880022    1    1    2    0    0  0.34216500033E+01  0.23053813039E+03 -0.74590121698E+02  0.28655693417E+03  0.15294330000E+03 0.  0.
<mgrwt>
<rscale>  0 0.55374171E+03</rscale>
<asrwt>0</asrwt>
<pdfrwt beam="1">  1        2 0.24799279E+00 0.69783217E+03</pdfrwt>
<pdfrwt beam="2">  1       -2 0.29390143E-01 0.69783217E+03</pdfrwt>
<totfact> 0.11974386E+02</totfact>
</mgrwt>
</event>
<event>
 4    1  0.6502538E-008  0.6948584E+03  0.7818608E-02  0.1001924E+00
         -2   -1    0    0    0  501 -0.00000000000E+00  0.00000000000E+00  0.12228545856E+04  0.12228545856E+04  0.25500000000E-02 0.  1.
          2   -1    0    0  501    0  0.00000000000E+00 -0.00000000000E+00 -0.25199794995E+03  0.25199794996E+03  0.25500000000E-02 0. -1.
    8880023    1    1    2    0    0  0.20685702106E+03 -0.78918441218E+02  0.30915649833E+03  0.76053000877E+03  0.65864270000E+03 0.  0.
    8880022    1    1    2    0    0 -0.20685702106E+03  0.78918441218E+02  0.66170013730E+03  0.71432252676E+03  0.15294330000E+03 0.  0.
<mgrwt>
<rscale>  0 0.54814662E+03</rscale>
<asrwt>0</asrwt>
<pdfrwt beam="1">  1        2 0.38768916E-01 0.69485837E+03</pdfrwt>
<pdfrwt beam="2">  1       -2 0.18813147E+00 0.69485837E+03</pdfrwt>
<totfact> 0.21701421E+01</totfact>
</mgrwt>
</event>
<event>
 4    1  0.6502538E-008  0.1022677E+04  0.7818608E-02  0.9352473E-01
          2   -1    0    0  501    0  0.00000000000E+00  0.00000000000E+00  0.17522786000E+04  0.17522786000E+04  0.25500000000E-02 0. -1.
         -2   -1    0    0    0  501 -0.00000000000E+00 -0.00000000000E+00 -0.56525919370E+03  0.56525919371E+03  0.25500000000E-02 0.  1.
    8880023    1    1    2    0    0 -0.13138580548E+03  0.77122983089E+03  0.11213896992E+04  0.15176899373E+04  0.65864270000E+03 0.  0.
    8880022    1    1    2    0    0  0.13138580548E+03 -0.77122983089E+03  0.65629707070E+02  0.79984785641E+03  0.15294330000E+03 0.  0.
<mgrwt>
<rscale>  0 0.96092375E+03</rscale>
<asrwt>0</asrwt>
<pdfrwt beam="1">  1        2 0.26958132E+00 0.10226768E+04</pdfrwt>
<pdfrwt beam="2">  1       -2 0.86962953E-01 0.10226768E+04</pdfrwt>
<totfact> 0.10450568E+01</totfact>
</mgrwt>
</event>
<event>
 4    1  0.6502538E-008  0.8293363E+03  0.7818608E-02  0.9650625E-01
         -2   -1    0    0    0  501 -0.00000000000E+00  0.00000000000E+00  0.31838048161E+03  0.31838048162E+03  0.25500000000E-02 0.  1.
          2   -1    0    0  501    0  0.00000000000E+00 -0.00000000000E+00 -0.18594949289E+04  0.18594949289E+04  0.25500000000E-02 0. -1.
    8880023    1    1    2    0    0  0.49050983580E+02  0.50158001769E+03 -0.14088921215E+04  0.16348626026E+04  0.65864270000E+03 0.  0.
    8880022    1    1    2    0    0 -0.49050983580E+02 -0.50158001769E+03 -0.13222232586E+03  0.54301280796E+03  0.15294330000E+03 0.  0.
<mgrwt>
<rscale>  0 0.74034208E+03</rscale>
<asrwt>0</asrwt>
<pdfrwt beam="1">  1        2 0.28607614E+00 0.82933631E+03</pdfrwt>
<pdfrwt beam="2">  1       -2 0.48981614E-01 0.82933631E+03</pdfrwt>
<totfact> 0.32185895E+01</totfact>
</mgrwt>
</event>
<event>
 4    1  0.6502538E-008  0.6594245E+03  0.7818608E-02  0.1024754E+00
         -2   -1    0    0    0  501 -0.00000000000E+00  0.00000000000E+00  0.10311260651E+04  0.10311260651E+04  0.25500000000E-02 0.  1.
          2   -1    0    0  501    0  0.00000000000E+00 -0.00000000000E+00 -0.88062941437E+03  0.88062941437E+03  0.25500000000E-02 0. -1.
    8880023    1    1    2    0    0 -0.30586723346E+02 -0.97406718399E+01 -0.74949869008E+03  0.99829300360E+03  0.65864270000E+03 0. -1.
    8880022    1    1    2    0    0  0.30586723346E+02  0.97406718399E+01  0.89999534082E+03  0.91346247588E+03  0.15294330000E+03 0.  0.
<mgrwt>
<rscale>  0 0.46009406E+03</rscale>
<asrwt>0</asrwt>
<pdfrwt beam="1">  1        2 0.13548145E+00 0.65942447E+03</pdfrwt>
<pdfrwt beam="2">  1       -2 0.15863478E+00 0.65942447E+03</pdfrwt>
<totfact> 0.80252905E+00</totfact>
</mgrwt>
</event>
<event>
 4    1  0.6502538E-008  0.8312190E+03  0.7818608E-02  0.9646965E-01
         -2   -1    0    0    0  501 -0.00000000000E+00  0.00000000000E+00  0.13570363617E+04  0.13570363617E+04  0.25500000000E-02 0.  1.
          2   -1    0    0  501    0  0.00000000000E+00 -0.00000000000E+00 -0.78184538165E+03  0.78184538166E+03  0.25500000000E-02 0. -1.
    8880023    1    1    2    0    0 -0.50196354001E+03 -0.71745670587E+02 -0.47883361784E+03  0.95927403623E+03  0.65864270000E+03 0.  0.
    8880022    1    1    2    0    0  0.50196354001E+03  0.71745670587E+02  0.10540245979E+04  0.11796077071E+04  0.15294330000E+03 0.  0.
<mgrwt>
<rscale>  0 0.74264193E+03</rscale>
<asrwt>0</asrwt>
<pdfrwt beam="1">  1        2 0.12028391E+00 0.83121901E+03</pdfrwt>
<pdfrwt beam="2">  1       -2 0.20877482E+00 0.83121901E+03</pdfrwt>
<totfact> 0.41925207E+00</totfact>
</mgrwt>
</event>
<event>
 4    1  0.6502538E-008  0.9333064E+03  0.7818608E-02  0.9474551E-01
         -2   -1    0    0    0  501 -0.00000000000E+00  0.00000000000E+00  0.70678168529E+03  0.70678168530E+03  0.25500000000E-02 0.  1.
          2   -1    0    0  501    0  0.00000000000E+00 -0.00000000000E+00 -0.29570003020E+04  0.29570003020E+04  0.25500000000E-02 0. -1.
    8880023    1    1    2    0    0  0.26522775722E+03  0.60572674187E+03 -0.26951920422E+04  0.28522133510E+04  0.65864270000E+03 0. -1.
    8880022    1    1    2    0    0 -0.26522775722E+03 -0.60572674187E+03  0.44497342550E+03  0.81156863630E+03  0.15294330000E+03 0.  0.
<mgrwt>
<rscale>  0 0.86186385E+03</rscale>
<asrwt>0</asrwt>
<pdfrwt beam="1">  1        2 0.45492312E+00 0.93330641E+03</pdfrwt>
<pdfrwt beam="2">  1       -2 0.10873565E+00 0.93330641E+03</pdfrwt>
<totfact> 0.12880849E+00</totfact>
</mgrwt>
</event>
<event>
 4    1  0.6502538E-008  0.1181305E+04  0.7818608E-02  0.9175513E-01
          2   -1    0    0  501    0  0.00000000000E+00  0.00000000000E+00  0.13255821302E+04  0.13255821302E+04  0.25500000000E-02 0. -1.
         -2   -1    0    0    0  501 -0.00000000000E+00 -0.00000000000E+00 -0.10077350274E+04  0.10077350274E+04  0.25500000000E-02 0.  1.
    8880023    1    1    2    0    0 -0.80066835803E+03 -0.56621701188E+03  0.56653554538E+03  0.13101313883E+04  0.65864270000E+03 0. -1.
    8880022    1    1    2    0    0  0.80066835803E+03  0.56621701188E+03 -0.24868844254E+03  0.10231857693E+04  0.15294330000E+03 0.  0.
<mgrwt>
<rscale>  0 0.11309791E+04</rscale>
<asrwt>0</asrwt>
<pdfrwt beam="1">  1        2 0.20393571E+00 0.11813051E+04</pdfrwt>
<pdfrwt beam="2">  1       -2 0.15503616E+00 0.11813051E+04</pdfrwt>
<totfact> 0.42674006E+00</totfact>
</mgrwt>
</event>
<event>
 4    1  0.6502538E-008  0.9384572E+03  0.7818608E-02  0.9466920E-01
         -2   -1    0    0    0  501 -0.00000000000E+00  0.00000000000E+00  0.71781267929E+03  0.71781267929E+03  0.25500000000E-02 0.  1.
          2   -1    0    0  501    0  0.00000000000E+00 -0.00000000000E+00 -0.16403675609E+04  0.16403675609E+04  0.25500000000E-02 0. -1.
    8880023    1    1    2    0    0  0.63588853669E+03 -0.20624621194E+03  0.27522008497E+03  0.97798161151E+03  0.65864270000E+03 0.  1.
    8880022    1    1    2    0    0 -0.63588853669E+03  0.20624621194E+03 -0.11977749666E+04  0.13801986287E+04  0.15294330000E+03 0.  0.
<mgrwt>
<rscale>  0 0.86767246E+03</rscale>
<asrwt>0</asrwt>
<pdfrwt beam="1">  1        2 0.25236424E+00 0.93845721E+03</pdfrwt>
<pdfrwt beam="2">  1       -2 0.11043272E+00 0.93845721E+03</pdfrwt>
<totfact> 0.69087723E+00</totfact>
</mgrwt>
</event>
<event>
 4    1  0.6502538E-008  0.6899343E+03  0.7818608E-02  0.1004184E+00
          2   -1    0    0  501    0  0.00000000000E+00  0.00000000000E+00  0.24320599192E+04  0.24320599192E+04  0.25500000000E-02 0. -1.
         -2   -1    0    0    0  501 -0.00000000000E+00 -0.00000000000E+00 -0.13060502360E+03  0.13060502362E+03  0.25500000000E-02 0.  1.
    8880023    1    1    2    0    0  0.19842604596E+03  0.53162438807E+02  0.21654117772E+04  0.22726674882E+04  0.65864270000E+03 0.  0.
    8880022    1    1    2    0    0 -0.19842604596E+03 -0.53162438807E+02  0.13604311833E+03  0.28999745460E+03  0.15294330000E+03 0.  0.
<mgrwt>
<rscale>  0 0.53853157E+03</rscale>
<asrwt>0</asrwt>
<pdfrwt beam="1">  1        2 0.37416304E+00 0.68993431E+03</pdfrwt>
<pdfrwt beam="2">  1       -2 0.20093082E-01 0.68993431E+03</pdfrwt>
<totfact> 0.84263754E+01</totfact>
</mgrwt>
</event>
<event>
 4    1  0.6502538E-008  0.9451556E+03  0.7818608E-02  0.9457119E-01
          2   -1    0    0  501    0  0.00000000000E+00  0.00000000000E+00  0.97498030008E+03  0.97498030008E+03  0.25500000000E-02 0. -1.
         -2   -1    0    0    0  501 -0.00000000000E+00 -0.00000000000E+00 -0.12124890814E+04  0.12124890815E+04  0.25500000000E-02 0.  1.
    8880023    1    1    2    0    0  0.64441264938E+03  0.21033618748E+03  0.58434467558E+03  0.11112055978E+04  0.65864270000E+03 0. -1.
    8880022    1    1    2    0    0 -0.64441264938E+03 -0.21033618748E+03 -0.82185345696E+03  0.10762637837E+04  0.15294330000E+03 0.  0.
<mgrwt>
<rscale>  0 0.87520486E+03</rscale>
<asrwt>0</asrwt>
<pdfrwt beam="1">  1        2 0.14999697E+00 0.94515564E+03</pdfrwt>
<pdfrwt beam="2">  1       -2 0.18653678E+00 0.94515564E+03</pdfrwt>
<totfact> 0.42657611E+00</totfact>
</mgrwt>
</event>
<event>
 4    1  0.6502538E-008  0.6704201E+03  0.7818608E-02  0.1015364E+00
         -2   -1    0    0    0  501 -0.00000000000E+00  0.00000000000E+00  0.14197806427E+03  0.14197806429E+03  0.25500000000E-02 0.  1.
          2   -1    0    0  501    0  0.00000000000E+00 -0.00000000000E+00 -0.18300452680E+04  0.18300452680E+04  0.25500000000E-02 0. -1.
    8880023    1    1    2    0    0  0.12223102076E+03 -0.26691488162E+02 -0.16354673321E+04  0.17675453201E+04  0.65864270000E+03 0. -1.
    8880022    1    1    2    0    0 -0.12223102076E+03  0.26691488162E+02 -0.52599871696E+02  0.20447801225E+03  0.15294330000E+03 0.  0.
<mgrwt>
<rscale>  0 0.49397532E+03</rscale>
<asrwt>0</asrwt>
<pdfrwt beam="1">  1        2 0.28154541E+00 0.67042007E+03</pdfrwt>
<pdfrwt beam="2">  1       -2 0.21842780E-01 0.67042007E+03</pdfrwt>
<totfact> 0.15604774E+02</totfact>
</mgrwt>
</event>
<event>
 4    1  0.6502538E-008  0.8403314E+03  0.7818608E-02  0.9629556E-01
         -2   -1    0    0    0  501 -0.00000000000E+00  0.00000000000E+00  0.58613689210E+03  0.58613689211E+03  0.25500000000E-02 0.  1.
          2   -1    0    0  501    0  0.00000000000E+00 -0.00000000000E+00 -0.13617845332E+04  0.13617845333E+04  0.25500000000E-02 0. -1.
    8880023    1    1    2    0    0 -0.10992315090E+03 -0.51016031940E+03 -0.10450737454E+04  0.13410205033E+04  0.65864270000E+03 0. -1.
    8880022    1    1    2    0    0  0.10992315090E+03  0.51016031940E+03  0.26942610424E+03  0.60690092211E+03  0.15294330000E+03 0.  0.
<mgrwt>
<rscale>  0 0.75370499E+03</rscale>
<asrwt>0</asrwt>
<pdfrwt beam="1">  1        2 0.20950531E+00 0.84033140E+03</pdfrwt>
<pdfrwt beam="2">  1       -2 0.90174907E-01 0.84033140E+03</pdfrwt>
<totfact> 0.16194974E+01</totfact>
</mgrwt>
</event>
<event>
 4    1  0.6502538E-008  0.1215554E+04  0.7818608E-02  0.9142149E-01
         -2   -1    0    0    0  501 -0.00000000000E+00  0.00000000000E+00  0.11639707537E+04  0.11639707537E+04  0.25500000000E-02 0.  1.
          2   -1    0    0  501    0  0.00000000000E+00 -0.00000000000E+00 -0.18144102407E+04  0.18144102407E+04  0.25500000000E-02 0. -1.
    8880023    1    1    2    0    0  0.28070055773E+03  0.98232773298E+03  0.60070162238E+03  0.13558809769E+04  0.65864270000E+03 0.  1.
    8880022    1    1    2    0    0 -0.28070055773E+03 -0.98232773298E+03 -0.12511411094E+04  0.16225000175E+04  0.15294330000E+03 0.  0.
<mgrwt>
<rscale>  0 0.11671023E+04</rscale>
<asrwt>0</asrwt>
<pdfrwt beam="1">  1        2 0.27914004E+00 0.12155537E+04</pdfrwt>
<pdfrwt beam="2">  1       -2 0.17907242E+00 0.12155537E+04</pdfrwt>
<totfact> 0.15108778E+00</totfact>
</mgrwt>
</event>
<event>
 4    1  0.6502538E-008  0.1613416E+04  0.7818608E-02  0.8833441E-01
          2   -1    0    0  501    0  0.00000000000E+00  0.00000000000E+00  0.25151427487E+04  0.25151427487E+04  0.25500000000E-02 0. -1.
         -2   -1    0    0    0  501 -0.00000000000E+00 -0.00000000000E+00 -0.11072829761E+04  0.11072829761E+04  0.25500000000E-02 0.  1.
    8880023    1    1    2    0    0  0.70695285440E+03  0.12920981853E+04  0.14083896245E+04  0.21416516055E+04  0.65864270000E+03 0.  0.
    8880022    1    1    2    0    0 -0.70695285440E+03 -0.12920981853E+04 -0.52985183919E+00  0.14807741193E+04  0.15294330000E+03 0.  0.
<mgrwt>
<rscale>  0 0.15791810E+04</rscale>
<asrwt>0</asrwt>
<pdfrwt beam="1">  1        2 0.38694504E+00 0.16134157E+04</pdfrwt>
<pdfrwt beam="2">  1       -2 0.17035123E+00 0.16134157E+04</pdfrwt>
<totfact> 0.67344156E-01</totfact>
</mgrwt>
</event>
<event>
 4    1  0.6502538E-008  0.1171396E+04  0.7818608E-02  0.9185442E-01
         -2   -1    0    0    0  501 -0.00000000000E+00  0.00000000000E+00  0.89017906108E+03  0.89017906109E+03  0.25500000000E-02 0.  1.
          2   -1    0    0  501    0  0.00000000000E+00 -0.00000000000E+00 -0.24561664342E+04  0.24561664342E+04  0.25500000000E-02 0. -1.
    8880023    1    1    2    0    0  0.41008552695E+03 -0.87760359705E+03  0.32546731747E+03  0.12157702883E+04  0.65864270000E+03 0.  0.
    8880022    1    1    2    0    0 -0.41008552695E+03  0.87760359705E+03 -0.18914546906E+04  0.21305752070E+04  0.15294330000E+03 0.  0.
<mgrwt>
<rscale>  0 0.11204966E+04</rscale>
<asrwt>0</asrwt>
<pdfrwt beam="1">  1        2 0.37787175E+00 0.11713959E+04</pdfrwt>
<pdfrwt beam="2">  1       -2 0.13695063E+00 0.11713959E+04</pdfrwt>
<totfact> 0.13779871E+00</totfact>
</mgrwt>
</event>
<event>
 4    1  0.6502538E-008  0.1168675E+04  0.7818608E-02  0.9188191E-01
         -2   -1    0    0    0  501 -0.00000000000E+00  0.00000000000E+00  0.16957811740E+04  0.16957811740E+04  0.25500000000E-02 0.  1.
          2   -1    0    0  501    0  0.00000000000E+00 -0.00000000000E+00 -0.97837972126E+03  0.97837972126E+03  0.25500000000E-02 0. -1.
    8880023    1    1    2    0    0 -0.79372718675E+03  0.54953351651E+03 -0.35669720837E+03  0.12218973105E+04  0.65864270000E+03 0. -1.
    8880022    1    1    2    0    0  0.79372718675E+03 -0.54953351651E+03  0.10740986611E+04  0.14522635848E+04  0.15294330000E+03 0.  0.
<mgrwt>
<rscale>  0 0.11176152E+04</rscale>
<asrwt>0</asrwt>
<pdfrwt beam="1">  1        2 0.15051996E+00 0.11686745E+04</pdfrwt>
<pdfrwt beam="2">  1       -2 0.26088941E+00 0.11686745E+04</pdfrwt>
<totfact> 0.14024097E+00</totfact>
</mgrwt>
</event>
<event>
 4    1  0.6502538E-008  0.6599213E+03  0.7818608E-02  0.1024237E+00
          2   -1    0    0  501    0  0.00000000000E+00  0.00000000000E+00  0.21186731121E+04  0.21186731121E+04  0.25500000000E-02 0. -1.
         -2   -1    0    0    0  501 -0.00000000000E+00 -0.00000000000E+00 -0.99957067086E+03  0.99957067086E+03  0.25500000000E-02 0.  1.
    8880023    1    1    2    0    0  0.39487423247E+02  0.11254394034E+02  0.20605112415E+04  0.21636087216E+04  0.65864270000E+03 0. -1.
    8880022    1    1    2    0    0 -0.39487423247E+02 -0.11254394034E+02 -0.94140880026E+03  0.95463506127E+03  0.15294330000E+03 0.  0.
<mgrwt>
<rscale>  0 0.46188068E+03</rscale>
<asrwt>0</asrwt>
<pdfrwt beam="1">  1        2 0.32594971E+00 0.65992130E+03</pdfrwt>
<pdfrwt beam="2">  1       -2 0.15378010E+00 0.65992130E+03</pdfrwt>
<totfact> 0.17064803E+00</totfact>
</mgrwt>
</event>
<event>
 4    1  0.6502538E-008  0.1052046E+04  0.7818608E-02  0.9316426E-01
         -2   -1    0    0    0  501 -0.00000000000E+00  0.00000000000E+00  0.12737598339E+04  0.12737598339E+04  0.25500000000E-02 0.  1.
          2   -1    0    0  501    0  0.00000000000E+00 -0.00000000000E+00 -0.11161171934E+04  0.11161171934E+04  0.25500000000E-02 0. -1.
    8880023    1    1    2    0    0  0.30751884630E+03  0.76054138365E+03 -0.64335233090E+03  0.12331680603E+04  0.65864270000E+03 0.  0.
    8880022    1    1    2    0    0 -0.30751884630E+03 -0.76054138365E+03  0.80099497144E+03  0.11567089670E+04  0.15294330000E+03 0.  0.
<mgrwt>
<rscale>  0 0.99284650E+03</rscale>
<asrwt>0</asrwt>
<pdfrwt beam="1">  1        2 0.17171034E+00 0.10520462E+04</pdfrwt>
<pdfrwt beam="2">  1       -2 0.19596305E+00 0.10520462E+04</pdfrwt>
<totfact> 0.29697595E+00</totfact>
</mgrwt>
</event>
<event>
 4    1  0.6502538E-008  0.7751541E+03  0.7818608E-02  0.9767346E-01
          2   -1    0    0  501    0  0.00000000000E+00  0.00000000000E+00  0.23298971536E+04  0.23298971536E+04  0.25500000000E-02 0. -1.
         -2   -1    0    0    0  501 -0.00000000000E+00 -0.00000000000E+00 -0.27831876358E+03  0.27831876359E+03  0.25500000000E-02 0.  1.
    8880023    1    1    2    0    0 -0.29354127674E+03 -0.28440682871E+03  0.20280968161E+04  0.21711841532E+04  0.65864270000E+03 0. -1.
    8880022    1    1    2    0    0  0.29354127674E+03  0.28440682871E+03  0.23481573872E+02  0.43703176394E+03  0.15294330000E+03 0.  0.
<mgrwt>
<rscale>  0 0.67144795E+03</rscale>
<asrwt>0</asrwt>
<pdfrwt beam="1">  1        2 0.35844571E+00 0.77515413E+03</pdfrwt>
<pdfrwt beam="2">  1       -2 0.42818273E-01 0.77515413E+03</pdfrwt>
<totfact> 0.23380731E+01</totfact>
</mgrwt>
</event>
<event>
 4    1  0.6502538E-008  0.7903692E+03  0.7818608E-02  0.9732020E-01
          2   -1    0    0  501    0  0.00000000000E+00  0.00000000000E+00  0.20164743121E+04  0.20164743121E+04  0.25500000000E-02 0. -1.
         -2   -1    0    0    0  501 -0.00000000000E+00 -0.00000000000E+00 -0.42613679093E+03  0.42613679094E+03  0.25500000000E-02 0.  1.
    8880023    1    1    2    0    0 -0.94834560028E+02 -0.42647357497E+03  0.17759597991E+04  0.19438921571E+04  0.65864270000E+03 0. -1.
    8880022    1    1    2    0    0  0.94834560028E+02  0.42647357497E+03 -0.18562227800E+03  0.49871894593E+03  0.15294330000E+03 0.  0.
<mgrwt>
<rscale>  0 0.69141916E+03</rscale>
<asrwt>0</asrwt>
<pdfrwt beam="1">  1        2 0.31022682E+00 0.79036922E+03</pdfrwt>
<pdfrwt beam="2">  1       -2 0.65559507E-01 0.79036922E+03</pdfrwt>
<totfact> 0.14431225E+01</totfact>
</mgrwt>
</event>
<event>
 4    1  0.6502538E-008  0.6817002E+03  0.7818608E-02  0.1008378E+00
          2   -1    0    0  501    0  0.00000000000E+00  0.00000000000E+00  0.22452432086E+04  0.22452432086E+04  0.25500000000E-02 0. -1.
         -2   -1    0    0    0  501 -0.00000000000E+00 -0.00000000000E+00 -0.12885897485E+03  0.12885897487E+03  0.25500000000E-02 0.  1.
    8880023    1    1    2    0    0 -0.16730535931E+03  0.53980708244E+02  0.20012956460E+04  0.21142136763E+04  0.65864270000E+03 0.  0.
    8880022    1    1    2    0    0  0.16730535931E+03 -0.53980708244E+02  0.11508858777E+03  0.25988850718E+03  0.15294330000E+03 0.  0.
<mgrwt>
<rscale>  0 0.52124477E+03</rscale>
<asrwt>0</asrwt>
<pdfrwt beam="1">  1        2 0.34542201E+00 0.68170023E+03</pdfrwt>
<pdfrwt beam="2">  1       -2 0.19824459E-01 0.68170023E+03</pdfrwt>
<totfact> 0.10969220E+02</totfact>
</mgrwt>
</event>
<event>
 4    1  0.6502538E-008  0.6972358E+03  0.7818608E-02  0.1000887E+00
         -2   -1    0    0    0  501 -0.00000000000E+00  0.00000000000E+00  0.22549763981E+04  0.22549763981E+04  0.25500000000E-02 0.  1.
          2   -1    0    0  501    0  0.00000000000E+00 -0.00000000000E+00 -0.79008835573E+03  0.79008835573E+03  0.25500000000E-02 0. -1.
    8880023    1    1    2    0    0 -0.21515973627E+03  0.77678097399E+02 -0.62547183051E+03  0.93667113544E+03  0.65864270000E+03 0. -1.
    8880022    1    1    2    0    0  0.21515973627E+03 -0.77678097399E+02  0.20903598729E+04  0.21083936184E+04  0.15294330000E+03 0.  0.
<mgrwt>
<rscale>  0 0.55263141E+03</rscale>
<asrwt>0</asrwt>
<pdfrwt beam="1">  1        2 0.12155205E+00 0.69723583E+03</pdfrwt>
<pdfrwt beam="2">  1       -2 0.34691945E+00 0.69723583E+03</pdfrwt>
<totfact> 0.60822197E-01</totfact>
</mgrwt>
</event>
<event>
 4    1  0.6502538E-008  0.1282593E+04  0.7818608E-02  0.9080740E-01
         -2   -1    0    0    0  501 -0.00000000000E+00  0.00000000000E+00  0.17405411973E+04  0.17405411973E+04  0.25500000000E-02 0.  1.
          2   -1    0    0  501    0  0.00000000000E+00 -0.00000000000E+00 -0.24824845418E+04  0.24824845418E+04  0.25500000000E-02 0. -1.
    8880023    1    1    2    0    0  0.70617663203E+03 -0.84412556333E+03 -0.21046888492E+04  0.24647025704E+04  0.65864270000E+03 0.  0.
    8880022    1    1    2    0    0 -0.70617663203E+03  0.84412556333E+03  0.13627455046E+04  0.17583231687E+04  0.15294330000E+03 0.  0.
<mgrwt>
<rscale>  0 0.12373952E+04</rscale>
<asrwt>0</asrwt>
<pdfrwt beam="1">  1        2 0.38192070E+00 0.12825925E+04</pdfrwt>
<pdfrwt beam="2">  1       -2 0.26777557E+00 0.12825925E+04</pdfrwt>
<totfact> 0.17213734E-01</totfact>
</mgrwt>
</event>
<event>
 4    1  0.6502538E-008  0.6801381E+03  0.7818608E-02  0.1009246E+00
         -2   -1    0    0    0  501 -0.00000000000E+00  0.00000000000E+00  0.29646140118E+04  0.29646140118E+04  0.25500000000E-02 0.  1.
          2   -1    0    0  501    0  0.00000000000E+00 -0.00000000000E+00 -0.38047294435E+03  0.38047294436E+03  0.25500000000E-02 0. -1.
    8880023    1    1    2    0    0  0.13596463054E+03 -0.10144592617E+03 -0.67634662266E+02  0.68349272893E+03  0.65864270000E+03 0. -1.
    8880022    1    1    2    0    0 -0.13596463054E+03  0.10144592617E+03  0.26517757297E+04  0.26615942272E+04  0.15294330000E+03 0.  0.
<mgrwt>
<rscale>  0 0.51775550E+03</rscale>
<asrwt>0</asrwt>
<pdfrwt beam="1">  1        2 0.58534298E-01 0.68013812E+03</pdfrwt>
<pdfrwt beam="2">  1       -2 0.45609447E+00 0.68013812E+03</pdfrwt>
<totfact> 0.28768933E-01</totfact>
</mgrwt>
</event>
<event>
 4    1  0.6502538E-008  0.9698845E+03  0.7818608E-02  0.9422064E-01
          2   -1    0    0  501    0  0.00000000000E+00  0.00000000000E+00  0.10460346029E+04  0.10460346029E+04  0.25500000000E-02 0. -1.
         -2   -1    0    0    0  501 -0.00000000000E+00 -0.00000000000E+00 -0.10608539706E+04  0.10608539706E+04  0.25500000000E-02 0.  1.
    8880023    1    1    2    0    0  0.60827008214E+03  0.36996375647E+03  0.61136417057E+03  0.11464911815E+04  0.65864270000E+03 0.  0.
    8880022    1    1    2    0    0 -0.60827008214E+03 -0.36996375647E+03 -0.62618353828E+03  0.96039739200E+03  0.15294330000E+03 0.  0.
<mgrwt>
<rscale>  0 0.90281931E+03</rscale>
<asrwt>0</asrwt>
<pdfrwt beam="1">  1        2 0.16092840E+00 0.96988447E+03</pdfrwt>
<pdfrwt beam="2">  1       -2 0.16320830E+00 0.96988447E+03</pdfrwt>
<totfact> 0.55840578E+00</totfact>
</mgrwt>
</event>
<event>
 4    1  0.6502538E-008  0.1431437E+04  0.7818608E-02  0.8959632E-01
          2   -1    0    0  501    0  0.00000000000E+00  0.00000000000E+00  0.26828121048E+04  0.26828121048E+04  0.25500000000E-02 0. -1.
         -2   -1    0    0    0  501 -0.00000000000E+00 -0.00000000000E+00 -0.82038968401E+03  0.82038968402E+03  0.25500000000E-02 0.  1.
    8880023    1    1    2    0    0  0.10703788562E+03 -0.12663906692E+04  0.26432079240E+03  0.14556366729E+04  0.65864270000E+03 0.  1.
    8880022    1    1    2    0    0 -0.10703788562E+03  0.12663906692E+04  0.15981016284E+04  0.20475651159E+04  0.15294330000E+03 0.  0.
<mgrwt>
<rscale>  0 0.13919966E+04</rscale>
<asrwt>0</asrwt>
<pdfrwt beam="1">  1        2 0.41274031E+00 0.14314373E+04</pdfrwt>
<pdfrwt beam="2">  1       -2 0.12621380E+00 0.14314373E+04</pdfrwt>
<totfact> 0.12166317E+00</totfact>
</mgrwt>
</event>
<event>
 4    1  0.6502538E-008  0.9129575E+03  0.7818608E-02  0.9505543E-01
          2   -1    0    0  501    0  0.00000000000E+00  0.00000000000E+00  0.24861398312E+04  0.24861398312E+04  0.25500000000E-02 0. -1.
         -2   -1    0    0    0  501 -0.00000000000E+00 -0.00000000000E+00 -0.53851437295E+03  0.53851437296E+03  0.25500000000E-02 0.  1.
    8880023    1    1    2    0    0  0.16322763108E+03  0.61076837217E+03  0.21562618811E+04  0.23415714318E+04  0.65864270000E+03 0. -1.
    8880022    1    1    2    0    0 -0.16322763108E+03 -0.61076837217E+03 -0.20863642284E+03  0.68308277239E+03  0.15294330000E+03 0.  0.
<mgrwt>
<rscale>  0 0.83876411E+03</rscale>
<asrwt>0</asrwt>
<pdfrwt beam="1">  1        2 0.38248305E+00 0.91295754E+03</pdfrwt>
<pdfrwt beam="2">  1       -2 0.82848365E-01 0.91295754E+03</pdfrwt>
<totfact> 0.46292835E+00</totfact>
</mgrwt>
</event>
<event>
 4    1  0.6502538E-008  0.9734364E+03  0.7818608E-02  0.9417167E-01
          2   -1    0    0  501    0  0.00000000000E+00  0.00000000000E+00  0.26378731419E+04  0.26378731419E+04  0.25500000000E-02 0. -1.
         -2   -1    0    0    0  501 -0.00000000000E+00 -0.00000000000E+00 -0.52041030889E+03  0.52041030890E+03  0.25500000000E-02 0.  1.
    8880023    1    1    2    0    0 -0.69376037332E+03  0.18017997848E+03  0.22144711809E+04  0.24189793504E+04  0.65864270000E+03 0. -1.
    8880022    1    1    2    0    0  0.69376037332E+03 -0.18017997848E+03 -0.97008347950E+02  0.73930410037E+03  0.15294330000E+03 0.  0.
<mgrwt>
<rscale>  0 0.90676270E+03</rscale>
<asrwt>0</asrwt>
<pdfrwt beam="1">  1        2 0.40582664E+00 0.97343643E+03</pdfrwt>
<pdfrwt beam="2">  1       -2 0.80063124E-01 0.97343643E+03</pdfrwt>
<totfact> 0.40558624E+00</totfact>
</mgrwt>
</event>
<event>
 4    1  0.6502538E-008  0.1091679E+04  0.7818608E-02  0.9270377E-01
          2   -1    0    0  501    0  0.00000000000E+00  0.00000000000E+00  0.43517457053E+04  0.43517457053E+04  0.25500000000E-02 0. -1.
         -2   -1    0    0    0  501 -0.00000000000E+00 -0.00000000000E+00 -0.44584333353E+03  0.44584333354E+03  0.25500000000E-02 0.  1.
    8880023    1    1    2    0    0  0.83989487779E+03 -0.22919400657E+03  0.37427639726E+04  0.38987235936E+04  0.65864270000E+03 0. -1.
    8880022    1    1    2    0    0 -0.83989487779E+03  0.22919400657E+03  0.16313839919E+03  0.89886544526E+03  0.15294330000E+03 0.  0.
<mgrwt>
<rscale>  0 0.10355633E+04</rscale>
<asrwt>0</asrwt>
<pdfrwt beam="1">  1        2 0.66949935E+00 0.10916792E+04</pdfrwt>
<pdfrwt beam="2">  1       -2 0.68591281E-01 0.10916792E+04</pdfrwt>
<totfact> 0.34703521E-01</totfact>
</mgrwt>
</event>
<event>
 4    1  0.6502538E-008  0.1062912E+04  0.7818608E-02  0.9303518E-01
          2   -1    0    0  501    0  0.00000000000E+00  0.00000000000E+00  0.23711833729E+04  0.23711833729E+04  0.25500000000E-02 0. -1.
         -2   -1    0    0    0  501 -0.00000000000E+00 -0.00000000000E+00 -0.52971702066E+03  0.52971702067E+03  0.25500000000E-02 0.  1.
    8880023    1    1    2    0    0  0.43711904043E+03  0.71056177966E+03  0.17504333344E+04  0.20478765008E+04  0.65864270000E+03 0.  1.
    8880022    1    1    2    0    0 -0.43711904043E+03 -0.71056177966E+03  0.91033017841E+02  0.85302389273E+03  0.15294330000E+03 0.  0.
<mgrwt>
<rscale>  0 0.10045959E+04</rscale>
<asrwt>0</asrwt>
<pdfrwt beam="1">  1        2 0.36479744E+00 0.10629117E+04</pdfrwt>
<pdfrwt beam="2">  1       -2 0.81494926E-01 0.10629117E+04</pdfrwt>
<totfact> 0.54741400E+00</totfact>
</mgrwt>
</event>
<event>
 4    1  0.6502538E-008  0.8919910E+03  0.7818608E-02  0.9539013E-01
         -2   -1    0    0    0  501 -0.00000000000E+00  0.00000000000E+00  0.10035993112E+04  0.10035993112E+04  0.25500000000E-02 0.  1.
          2   -1    0    0  501    0  0.00000000000E+00 -0.00000000000E+00 -0.10533685492E+04  0.10533685492E+04  0.25500000000E-02 0. -1.
    8880023    1    1    2    0    0 -0.59515982166E+03  0.87307551015E+02 -0.71792195692E+03  0.11450152681E+04  0.65864270000E+03 0.  0.
    8880022    1    1    2    0    0  0.59515982166E+03 -0.87307551015E+02  0.66815271889E+03  0.91195259227E+03  0.15294330000E+03 0.  0.
<mgrwt>
<rscale>  0 0.81467673E+03</rscale>
<asrwt>0</asrwt>
<pdfrwt beam="1">  1        2 0.16205670E+00 0.89199105E+03</pdfrwt>
<pdfrwt beam="2">  1       -2 0.15439989E+00 0.89199105E+03</pdfrwt>
<totfact> 0.64764204E+00</totfact>
</mgrwt>
</event>
<event>
 4    1  0.6502538E-008  0.9734568E+03  0.7818608E-02  0.9417139E-01
          2   -1    0    0  501    0  0.00000000000E+00  0.00000000000E+00  0.10533912458E+04  0.10533912458E+04  0.25500000000E-02 0. -1.
         -2   -1    0    0    0  501 -0.00000000000E+00 -0.00000000000E+00 -0.86766454757E+03  0.86766454757E+03  0.25500000000E-02 0.  1.
    8880023    1    1    2    0    0 -0.71587874744E+03  0.36408058201E+02  0.53320372008E+03  0.11099208716E+04  0.65864270000E+03 0.  0.
    8880022    1    1    2    0    0  0.71587874744E+03 -0.36408058201E+02 -0.34747702182E+03  0.81113492185E+03  0.15294330000E+03 0.  0.
<mgrwt>
<rscale>  0 0.90678530E+03</rscale>
<asrwt>0</asrwt>
<pdfrwt beam="1">  1        2 0.16206019E+00 0.97345680E+03</pdfrwt>
<pdfrwt beam="2">  1       -2 0.13348685E+00 0.97345680E+03</pdfrwt>
<totfact> 0.94036526E+00</totfact>
</mgrwt>
</event>
<event>
 4    1  0.7334402E-008  0.8871220E+03  0.7818608E-02  0.9547029E-01
         -2   -1    0    0    0  501 -0.00000000000E+00  0.00000000000E+00  0.25500640862E+04  0.25500640862E+04  0.25500000000E-02 0.  1.
          2   -1    0    0  501    0  0.00000000000E+00 -0.00000000000E+00 -0.13966228860E+04  0.13966228860E+04  0.25500000000E-02 0. -1.
    8880023    1    1    2    0    0  0.58408235329E+03  0.10964974641E+03 -0.12125459032E+04  0.15024157334E+04  0.65864270000E+03 0.  0.
    8880022    1    1    2    0    0 -0.58408235329E+03 -0.10964974641E+03  0.23659871035E+04  0.24442712388E+04  0.15294330000E+03 0.  0.
<mgrwt>
<rscale>  0 0.80903589E+03</rscale>
<asrwt>0</asrwt>
<pdfrwt beam="1">  1        2 0.21486506E+00 0.88712201E+03</pdfrwt>
<pdfrwt beam="2">  1       -2 0.39231754E+00 0.88712201E+03</pdfrwt>
<totfact> 0.12596790E-01</totfact>
</mgrwt>
</event>
<event>
 4    1  0.6502538E-008  0.9377707E+03  0.7818608E-02  0.9467932E-01
          2   -1    0    0  501    0  0.00000000000E+00  0.00000000000E+00  0.70550298535E+03  0.70550298536E+03  0.25500000000E-02 0. -1.
         -2   -1    0    0    0  501 -0.00000000000E+00 -0.00000000000E+00 -0.11511296447E+04  0.11511296447E+04  0.25500000000E-02 0.  1.
    8880023    1    1    2    0    0 -0.66731544063E+03 -0.17142519503E+02  0.14917059315E+03  0.94956086451E+03  0.65864270000E+03 0.  0.
    8880022    1    1    2    0    0  0.66731544063E+03  0.17142519503E+02 -0.59479725250E+03  0.90707176556E+03  0.15294330000E+03 0.  0.
<mgrwt>
<rscale>  0 0.86689917E+03</rscale>
<asrwt>0</asrwt>
<pdfrwt beam="1">  1        2 0.10853892E+00 0.93777074E+03</pdfrwt>
<pdfrwt beam="2">  1       -2 0.17709687E+00 0.93777074E+03</pdfrwt>
<totfact> 0.76913848E+00</totfact>
</mgrwt>
</event>
<event>
 4    1  0.6502538E-008  0.1024435E+04  0.7818608E-02  0.9350264E-01
         -2   -1    0    0    0  501 -0.00000000000E+00  0.00000000000E+00  0.12780149049E+04  0.12780149049E+04  0.25500000000E-02 0.  1.
          2   -1    0    0  501    0  0.00000000000E+00 -0.00000000000E+00 -0.10725910794E+04  0.10725910794E+04  0.25500000000E-02 0. -1.
    8880023    1    1    2    0    0  0.78074177135E+03  0.78101410628E+02 -0.62330314762E+03  0.11991557714E+04  0.65864270000E+03 0.  0.
    8880022    1    1    2    0    0 -0.78074177135E+03 -0.78101410628E+02  0.82872697317E+03  0.11514502130E+04  0.15294330000E+03 0.  0.
<mgrwt>
<rscale>  0 0.96284238E+03</rscale>
<asrwt>0</asrwt>
<pdfrwt beam="1">  1        2 0.16501401E+00 0.10244353E+04</pdfrwt>
<pdfrwt beam="2">  1       -2 0.19661768E+00 0.10244353E+04</pdfrwt>
<totfact> 0.31382289E+00</totfact>
</mgrwt>
</event>
<event>
 4    1  0.6502538E-008  0.1075730E+04  0.7818608E-02  0.9288572E-01
         -2   -1    0    0    0  501 -0.00000000000E+00  0.00000000000E+00  0.12375916338E+04  0.12375916338E+04  0.25500000000E-02 0.  1.
          2   -1    0    0  501    0  0.00000000000E+00 -0.00000000000E+00 -0.11385934183E+04  0.11385934183E+04  0.25500000000E-02 0. -1.
    8880023    1    1    2    0    0  0.71316000723E+03 -0.46345120479E+03 -0.62910446108E+03  0.12461809035E+04  0.65864270000E+03 0.  0.
    8880022    1    1    2    0    0 -0.71316000723E+03  0.46345120479E+03  0.72810267652E+03  0.11300041485E+04  0.15294330000E+03 0.  0.
<mgrwt>
<rscale>  0 0.10184182E+04</rscale>
<asrwt>0</asrwt>
<pdfrwt beam="1">  1        2 0.17516822E+00 0.10757297E+04</pdfrwt>
<pdfrwt beam="2">  1       -2 0.19039871E+00 0.10757297E+04</pdfrwt>
<totfact> 0.31256580E+00</totfact>
</mgrwt>
</event>
<event>
 4    1  0.6502538E-008  0.1023178E+04  0.7818608E-02  0.9351842E-01
         -2   -1    0    0    0  501 -0.00000000000E+00  0.00000000000E+00  0.57035567840E+03  0.57035567841E+03  0.25500000000E-02 0.  1.
          2   -1    0    0  501    0  0.00000000000E+00 -0.00000000000E+00 -0.26740836023E+04  0.26740836023E+04  0.25500000000E-02 0. -1.
    8880023    1    1    2    0    0  0.17007312488E+02  0.78281204467E+03 -0.22140636375E+04  0.24390514433E+04  0.65864270000E+03 0.  0.
    8880022    1    1    2    0    0 -0.17007312488E+02 -0.78281204467E+03  0.11033571358E+03  0.80538783742E+03  0.15294330000E+03 0.  0.
<mgrwt>
<rscale>  0 0.96147116E+03</rscale>
<asrwt>0</asrwt>
<pdfrwt beam="1">  1        2 0.41139747E+00 0.10231785E+04</pdfrwt>
<pdfrwt beam="2">  1       -2 0.87747029E-01 0.10231785E+04</pdfrwt>
<totfact> 0.31128158E+00</totfact>
</mgrwt>
</event>
<event>
 4    1  0.6502538E-008  0.7263980E+03  0.7818608E-02  0.9901503E-01
          2   -1    0    0  501    0  0.00000000000E+00  0.00000000000E+00  0.23025305456E+04  0.23025305456E+04  0.25500000000E-02 0. -1.
         -2   -1    0    0    0  501 -0.00000000000E+00 -0.00000000000E+00 -0.46170943636E+03  0.46170943637E+03  0.25500000000E-02 0.  1.
    8880023    1    1    2    0    0 -0.25075784933E+03 -0.17596695111E+03  0.21705607233E+04  0.22888835546E+04  0.65864270000E+03 0. -1.
    8880022    1    1    2    0    0  0.25075784933E+03  0.17596695111E+03 -0.32973961407E+03  0.47535642731E+03  0.15294330000E+03 0.  0.
<mgrwt>
<rscale>  0 0.60188482E+03</rscale>
<asrwt>0</asrwt>
<pdfrwt beam="1">  1        2 0.35423547E+00 0.72639801E+03</pdfrwt>
<pdfrwt beam="2">  1       -2 0.71032220E-01 0.72639801E+03</pdfrwt>
<totfact> 0.85211170E+00</totfact>
</mgrwt>
</event>
<event>
 4    1  0.6502538E-008  0.1961729E+04  0.7818608E-02  0.8637984E-01
          2   -1    0    0  501    0  0.00000000000E+00  0.00000000000E+00  0.27549121810E+04  0.27549121810E+04  0.25500000000E-02 0. -1.
         -2   -1    0    0    0  501 -0.00000000000E+00 -0.00000000000E+00 -0.19511006172E+04  0.19511006172E+04  0.25500000000E-02 0.  1.
    8880023    1    1    2    0    0 -0.60176156240E+03  0.17471275643E+04 -0.92683631714E+03  0.21696560716E+04  0.65864270000E+03 0.  0.
    8880022    1    1    2    0    0  0.60176156240E+03 -0.17471275643E+04  0.17306478809E+04  0.25363567266E+04  0.15294330000E+03 0.  0.
<mgrwt>
<rscale>  0 0.19342694E+04</rscale>
<asrwt>0</asrwt>
<pdfrwt beam="1">  1        2 0.42383264E+00 0.19617293E+04</pdfrwt>
<pdfrwt beam="2">  1       -2 0.30016933E+00 0.19617293E+04</pdfrwt>
<totfact> 0.69380844E-02</totfact>
</mgrwt>
</event>
<event>
 4    1  0.6502538E-008  0.6590072E+03  0.7818608E-02  0.1025197E+00
         -2   -1    0    0    0  501 -0.00000000000E+00  0.00000000000E+00  0.19244589779E+04  0.19244589779E+04  0.25500000000E-02 0.  1.
          2   -1    0    0  501    0  0.00000000000E+00 -0.00000000000E+00 -0.36929947282E+03  0.36929947283E+03  0.25500000000E-02 0. -1.
    8880023    1    1    2    0    0  0.21913563933E+02  0.19644805786E+00 -0.68687942457E+02  0.66257715217E+03  0.65864270000E+03 0. -1.
    8880022    1    1    2    0    0 -0.21913563933E+02 -0.19644805786E+00  0.16238474475E+04  0.16311812985E+04  0.15294330000E+03 0.  0.
<mgrwt>
<rscale>  0 0.45856771E+03</rscale>
<asrwt>0</asrwt>
<pdfrwt beam="1">  1        2 0.56815304E-01 0.65900717E+03</pdfrwt>
<pdfrwt beam="2">  1       -2 0.29607061E+00 0.65900717E+03</pdfrwt>
<totfact> 0.30802864E+00</totfact>
</mgrwt>
</event>
<event>
 4    1  0.6502538E-008  0.9706234E+03  0.7818608E-02  0.9421043E-01
         -2   -1    0    0    0  501 -0.00000000000E+00  0.00000000000E+00  0.85385607641E+03  0.85385607642E+03  0.25500000000E-02 0.  1.
          2   -1    0    0  501    0  0.00000000000E+00 -0.00000000000E+00 -0.12543005594E+04  0.12543005594E+04  0.25500000000E-02 0. -1.
    8880023    1    1    2    0    0  0.68390946763E+03  0.20141339250E+03 -0.81672749269E+03  0.12685241496E+04  0.65864270000E+03 0.  0.
    8880022    1    1    2    0    0 -0.68390946763E+03 -0.20141339250E+03  0.41628300975E+03  0.83963248616E+03  0.15294330000E+03 0.  0.
<mgrwt>
<rscale>  0 0.90364008E+03</rscale>
<asrwt>0</asrwt>
<pdfrwt beam="1">  1        2 0.19296932E+00 0.97062337E+03</pdfrwt>
<pdfrwt beam="2">  1       -2 0.13136247E+00 0.97062337E+03</pdfrwt>
<totfact> 0.74014847E+00</totfact>
</mgrwt>
</event>
<event>
 4    1  0.6502538E-008  0.1064011E+04  0.7818608E-02  0.9302225E-01
          2   -1    0    0  501    0  0.00000000000E+00  0.00000000000E+00  0.16444523738E+04  0.16444523738E+04  0.25500000000E-02 0. -1.
         -2   -1    0    0    0  501 -0.00000000000E+00 -0.00000000000E+00 -0.14824640647E+04  0.14824640647E+04  0.25500000000E-02 0.  1.
    8880023    1    1    2    0    0  0.37596653195E+03 -0.74629640357E+03  0.13170130359E+04  0.16931162684E+04  0.65864270000E+03 0.  0.
    8880022    1    1    2    0    0 -0.37596653195E+03  0.74629640357E+03 -0.11550247269E+04  0.14338001701E+04  0.15294330000E+03 0.  0.
<mgrwt>
<rscale>  0 0.10057829E+04</rscale>
<asrwt>0</asrwt>
<pdfrwt beam="1">  1        2 0.25299267E+00 0.10640110E+04</pdfrwt>
<pdfrwt beam="2">  1       -2 0.22807140E+00 0.10640110E+04</pdfrwt>
<totfact> 0.91459099E-01</totfact>
</mgrwt>
</event>
<event>
 4    1  0.6502538E-008  0.7060847E+03  0.7818608E-02  0.9972838E-01
         -2   -1    0    0    0  501 -0.00000000000E+00  0.00000000000E+00  0.11273452201E+04  0.11273452201E+04  0.25500000000E-02 0.  1.
          2   -1    0    0  501    0  0.00000000000E+00 -0.00000000000E+00 -0.78119559879E+03  0.78119559880E+03  0.25500000000E-02 0. -1.
    8880023    1    1    2    0    0 -0.25308128752E+03 -0.26368606927E+02 -0.59395117918E+03  0.92267743607E+03  0.65864270000E+03 0. -1.
    8880022    1    1    2    0    0  0.25308128752E+03  0.26368606927E+02  0.94010080052E+03  0.98586338286E+03  0.15294330000E+03 0.  0.
<mgrwt>
<rscale>  0 0.56857460E+03</rscale>
<asrwt>0</asrwt>
<pdfrwt beam="1">  1        2 0.12018394E+00 0.70608473E+03</pdfrwt>
<pdfrwt beam="2">  1       -2 0.17343773E+00 0.70608473E+03</pdfrwt>
<totfact> 0.73340987E+00</totfact>
</mgrwt>
</event>
<event>
 4    1  0.6502538E-008  0.1608735E+04  0.7818608E-02  0.8836441E-01
         -2   -1    0    0    0  501 -0.00000000000E+00  0.00000000000E+00  0.43496583169E+04  0.43496583169E+04  0.25500000000E-02 0.  1.
          2   -1    0    0  501    0  0.00000000000E+00 -0.00000000000E+00 -0.74180192826E+03  0.74180192827E+03  0.25500000000E-02 0. -1.
    8880023    1    1    2    0    0 -0.14191598553E+04  0.37443707489E+03  0.55695528697E+03  0.17024180496E+04  0.65864270000E+03 0. -1.
    8880022    1    1    2    0    0  0.14191598553E+04 -0.37443707489E+03  0.30509011016E+04  0.33890421955E+04  0.15294330000E+03 0.  0.
<mgrwt>
<rscale>  0 0.15743847E+04</rscale>
<asrwt>0</asrwt>
<pdfrwt beam="1">  1        2 0.11412337E+00 0.16087349E+04</pdfrwt>
<pdfrwt beam="2">  1       -2 0.66917820E+00 0.16087349E+04</pdfrwt>
<totfact> 0.10150011E-02</totfact>
</mgrwt>
</event>
<event>
 4    1  0.6502538E-008  0.1164994E+04  0.7818608E-02  0.9191925E-01
         -2   -1    0    0    0  501 -0.00000000000E+00  0.00000000000E+00  0.62753604087E+03  0.62753604087E+03  0.25500000000E-02 0.  1.
          2   -1    0    0  501    0  0.00000000000E+00 -0.00000000000E+00 -0.43349163605E+04  0.43349163605E+04  0.25500000000E-02 0. -1.
    8880023    1    1    2    0    0  0.49839391364E+03 -0.82158641288E+03 -0.38098973478E+04  0.39840342285E+04  0.65864270000E+03 0.  0.
    8880022    1    1    2    0    0 -0.49839391364E+03  0.82158641288E+03  0.10251702812E+03  0.97841817290E+03  0.15294330000E+03 0.  0.
<mgrwt>
<rscale>  0 0.11137164E+04</rscale>
<asrwt>0</asrwt>
<pdfrwt beam="1">  1        2 0.66691019E+00 0.11649940E+04</pdfrwt>
<pdfrwt beam="2">  1       -2 0.96544009E-01 0.11649940E+04</pdfrwt>
<totfact> 0.16316303E-01</totfact>
</mgrwt>
</event>
<event>
 4    1  0.6502538E-008  0.6745781E+03  0.7818608E-02  0.1012574E+00
          2   -1    0    0  501    0  0.00000000000E+00  0.00000000000E+00  0.16971826009E+04  0.16971826009E+04  0.25500000000E-02 0. -1.
         -2   -1    0    0    0  501 -0.00000000000E+00 -0.00000000000E+00 -0.11561723945E+03  0.11561723948E+03  0.25500000000E-02 0.  1.
    8880023    1    1    2    0    0 -0.13889966881E+03 -0.44183957477E+02  0.11932773741E+04  0.13707539669E+04  0.65864270000E+03 0.  1.
    8880022    1    1    2    0    0  0.13889966881E+03  0.44183957477E+02  0.38828798737E+03  0.44204587346E+03  0.15294330000E+03 0. -1.
<mgrwt>
<rscale>  0 0.50464505E+03</rscale>
<asrwt>0</asrwt>
<pdfrwt beam="1">  1        2 0.26110501E+00 0.67457805E+03</pdfrwt>
<pdfrwt beam="2">  1       -2 0.17787268E-01 0.67457805E+03</pdfrwt>
<totfact> 0.26358395E+02</totfact>
</mgrwt>
</event>
<event>
 4    1  0.6502538E-008  0.6788662E+03  0.7818608E-02  0.1009972E+00
          2   -1    0    0  501    0  0.00000000000E+00  0.00000000000E+00  0.12698295333E+04  0.12698295333E+04  0.25500000000E-02 0. -1.
         -2   -1    0    0    0  501 -0.00000000000E+00 -0.00000000000E+00 -0.47180498335E+03  0.47180498336E+03  0.25500000000E-02 0.  1.
    8880023    1    1    2    0    0 -0.18643641495E+01  0.16445554187E+03  0.11433483062E+04  0.13297009652E+04  0.65864270000E+03 0. -1.
    8880022    1    1    2    0    0  0.18643641495E+01 -0.16445554187E+03 -0.34532375634E+03  0.41193355145E+03  0.15294330000E+03 0.  0.
<mgrwt>
<rscale>  0 0.51485606E+03</rscale>
<asrwt>0</asrwt>
<pdfrwt beam="1">  1        2 0.19535838E+00 0.67886619E+03</pdfrwt>
<pdfrwt beam="2">  1       -2 0.72585384E-01 0.67886619E+03</pdfrwt>
<totfact> 0.30379823E+01</totfact>
</mgrwt>
</event>
<event>
 4    1  0.6502538E-008  0.1507836E+04  0.7818608E-02  0.8904122E-01
         -2   -1    0    0    0  501 -0.00000000000E+00  0.00000000000E+00  0.19811790046E+04  0.19811790046E+04  0.25500000000E-02 0.  1.
          2   -1    0    0  501    0  0.00000000000E+00 -0.00000000000E+00 -0.12204169798E+04  0.12204169798E+04  0.25500000000E-02 0. -1.
    8880023    1    1    2    0    0 -0.12103075683E+04  0.61230350876E+03 -0.21587669304E+03  0.15232113936E+04  0.65864270000E+03 0.  0.
    8880022    1    1    2    0    0  0.12103075683E+04 -0.61230350876E+03  0.97663871779E+03  0.16783845908E+04  0.15294330000E+03 0.  0.
<mgrwt>
<rscale>  0 0.14707764E+04</rscale>
<asrwt>0</asrwt>
<pdfrwt beam="1">  1        2 0.18775646E+00 0.15078363E+04</pdfrwt>
<pdfrwt beam="2">  1       -2 0.30479677E+00 0.15078363E+04</pdfrwt>
<totfact> 0.51618281E-01</totfact>
</mgrwt>
</event>
<event>
 4    1  0.6502538E-008  0.8757376E+03  0.7818608E-02  0.9566160E-01
         -2   -1    0    0    0  501 -0.00000000000E+00  0.00000000000E+00  0.69634410442E+03  0.69634410443E+03  0.25500000000E-02 0.  1.
          2   -1    0    0  501    0  0.00000000000E+00 -0.00000000000E+00 -0.19380449409E+04  0.19380449409E+04  0.25500000000E-02 0. -1.
    8880023    1    1    2    0    0  0.51305830314E+03  0.26434324441E+03 -0.16794330143E+04  0.18940463640E+04  0.65864270000E+03 0. -1.
    8880022    1    1    2    0    0 -0.51305830314E+03 -0.26434324441E+03  0.43773217780E+03  0.74034268132E+03  0.15294330000E+03 0.  0.
<mgrwt>
<rscale>  0 0.79577010E+03</rscale>
<asrwt>0</asrwt>
<pdfrwt beam="1">  1        2 0.29816076E+00 0.87573762E+03</pdfrwt>
<pdfrwt beam="2">  1       -2 0.10712986E+00 0.87573762E+03</pdfrwt>
<totfact> 0.51430315E+00</totfact>
</mgrwt>
</event>
<event>
 4    1  0.6502538E-008  0.1001437E+04  0.7818608E-02  0.9379680E-01
          2   -1    0    0  501    0  0.00000000000E+00  0.00000000000E+00  0.14159097411E+04  0.14159097411E+04  0.25500000000E-02 0. -1.
         -2   -1    0    0    0  501 -0.00000000000E+00 -0.00000000000E+00 -0.62266110927E+03  0.62266110928E+03  0.25500000000E-02 0.  1.
    8880023    1    1    2    0    0 -0.52574485197E+03  0.54097895357E+03  0.10660063404E+03  0.10070947220E+04  0.65864270000E+03 0.  0.
    8880022    1    1    2    0    0  0.52574485197E+03 -0.54097895357E+03  0.68664799778E+03  0.10314761284E+04  0.15294330000E+03 0.  0.
<mgrwt>
<rscale>  0 0.93766970E+03</rscale>
<asrwt>0</asrwt>
<pdfrwt beam="1">  1        2 0.21783227E+00 0.10014370E+04</pdfrwt>
<pdfrwt beam="2">  1       -2 0.95794017E-01 0.10014370E+04</pdfrwt>
<totfact> 0.12889444E+01</totfact>
</mgrwt>
</event>
<event>
 4    1  0.6502538E-008  0.7925456E+03  0.7818608E-02  0.9727152E-01
          2   -1    0    0  501    0  0.00000000000E+00  0.00000000000E+00  0.13589378282E+04  0.13589378282E+04  0.25500000000E-02 0. -1.
         -2   -1    0    0    0  501 -0.00000000000E+00 -0.00000000000E+00 -0.89227495595E+03  0.89227495595E+03  0.25500000000E-02 0.  1.
    8880023    1    1    2    0    0 -0.12301202559E+03  0.42330418749E+03  0.11663957462E+04  0.14101800015E+04  0.65864270000E+03 0. -1.
    8880022    1    1    2    0    0  0.12301202559E+03 -0.42330418749E+03 -0.69973287396E+03  0.84103278266E+03  0.15294330000E+03 0.  0.
<mgrwt>
<rscale>  0 0.69422943E+03</rscale>
<asrwt>0</asrwt>
<pdfrwt beam="1">  1        2 0.20906736E+00 0.79254565E+03</pdfrwt>
<pdfrwt beam="2">  1       -2 0.13727307E+00 0.79254565E+03</pdfrwt>
<totfact> 0.58739561E+00</totfact>
</mgrwt>
</event>
<event>
 4    1  0.6502538E-008  0.7403405E+03  0.7818608E-02  0.9858956E-01
         -2   -1    0    0    0  501 -0.00000000000E+00  0.00000000000E+00  0.17030252031E+04  0.17030252031E+04  0.25500000000E-02 0.  1.
          2   -1    0    0  501    0  0.00000000000E+00 -0.00000000000E+00 -0.72604558554E+03  0.72604558554E+03  0.25500000000E-02 0. -1.
    8880023    1    1    2    0    0 -0.20652328495E+03 -0.26766015883E+03 -0.50836786496E+03  0.89807678973E+03  0.65864270000E+03 0. -1.
    8880022    1    1    2    0    0  0.20652328495E+03  0.26766015883E+03  0.14853474825E+04  0.15309939989E+04  0.15294330000E+03 0.  0.
<mgrwt>
<rscale>  0 0.62292340E+03</rscale>
<asrwt>0</asrwt>
<pdfrwt beam="1">  1        2 0.11169932E+00 0.74034049E+03</pdfrwt>
<pdfrwt beam="2">  1       -2 0.26200388E+00 0.74034049E+03</pdfrwt>
<totfact> 0.21962105E+00</totfact>
</mgrwt>
</event>
<event>
 4    1  0.6502538E-008  0.6650915E+03  0.7818608E-02  0.1019457E+00
          2   -1    0    0  501    0  0.00000000000E+00  0.00000000000E+00  0.75840712547E+03  0.75840712547E+03  0.25500000000E-02 0. -1.
         -2   -1    0    0    0  501 -0.00000000000E+00 -0.00000000000E+00 -0.57877392856E+03  0.57877392857E+03  0.25500000000E-02 0.  1.
    8880023    1    1    2    0    0  0.55754736700E+02 -0.73674774215E+02  0.59033461195E+03  0.88929282205E+03  0.65864270000E+03 0. -1.
    8880022    1    1    2    0    0 -0.55754736700E+02  0.73674774215E+02 -0.41070141504E+03  0.44788823199E+03  0.15294330000E+03 0.  0.
<mgrwt>
<rscale>  0 0.47883171E+03</rscale>
<asrwt>0</asrwt>
<pdfrwt beam="1">  1        2 0.11667802E+00 0.66509155E+03</pdfrwt>
<pdfrwt beam="2">  1       -2 0.89042144E-01 0.66509155E+03</pdfrwt>
<totfact> 0.40876702E+01</totfact>
</mgrwt>
</event>
<event>
 4    1  0.6502538E-008  0.1047686E+04  0.7818608E-02  0.9321669E-01
         -2   -1    0    0    0  501 -0.00000000000E+00  0.00000000000E+00  0.21561157586E+04  0.21561157586E+04  0.25500000000E-02 0.  1.
          2   -1    0    0  501    0  0.00000000000E+00 -0.00000000000E+00 -0.69085766505E+03  0.69085766505E+03  0.25500000000E-02 0. -1.
    8880023    1    1    2    0    0  0.74559066313E+03  0.32852600659E+03 -0.12350196769E+03  0.10549396742E+04  0.65864270000E+03 0.  0.
    8880022    1    1    2    0    0 -0.74559066313E+03 -0.32852600659E+03  0.15887600613E+04  0.17920337495E+04  0.15294330000E+03 0.  0.
<mgrwt>
<rscale>  0 0.98812228E+03</rscale>
<asrwt>0</asrwt>
<pdfrwt beam="1">  1        2 0.10628579E+00 0.10476855E+04</pdfrwt>
<pdfrwt beam="2">  1       -2 0.33171012E+00 0.10476855E+04</pdfrwt>
<totfact> 0.84695379E-01</totfact>
</mgrwt>
</event>
<event>
 4    1  0.6502538E-008  0.1086276E+04  0.7818608E-02  0.9276492E-01
         -2   -1    0    0    0  501 -0.00000000000E+00  0.00000000000E+00  0.24504411556E+04  0.24504411556E+04  0.25500000000E-02 0.  1.
          2   -1    0    0  501    0  0.00000000000E+00 -0.00000000000E+00 -0.52144111409E+03  0.52144111409E+03  0.25500000000E-02 0. -1.
    8880023    1    1    2    0    0 -0.43053311409E+02 -0.86274710476E+03  0.30860932044E+03  0.11292635092E+04  0.65864270000E+03 0.  0.
    8880022    1    1    2    0    0  0.43053311409E+02  0.86274710476E+03  0.16203907211E+04  0.18426187604E+04  0.15294330000E+03 0.  0.
<mgrwt>
<rscale>  0 0.10297619E+04</rscale>
<asrwt>0</asrwt>
<pdfrwt beam="1">  1        2 0.80221710E-01 0.10862764E+04</pdfrwt>
<pdfrwt beam="2">  1       -2 0.37699094E+00 0.10862764E+04</pdfrwt>
<totfact> 0.61758055E-01</totfact>
</mgrwt>
</event>
<event>
 4    1  0.6502538E-008  0.9342471E+03  0.7818608E-02  0.9473151E-01
         -2   -1    0    0    0  501 -0.00000000000E+00  0.00000000000E+00  0.58465543039E+03  0.58465543039E+03  0.25500000000E-02 0.  1.
          2   -1    0    0  501    0  0.00000000000E+00 -0.00000000000E+00 -0.20322919161E+04  0.20322919161E+04  0.25500000000E-02 0. -1.
    8880023    1    1    2    0    0 -0.52955848134E+02 -0.66045675806E+03 -0.16597590778E+04  0.19046306345E+04  0.65864270000E+03 0. -1.
    8880022    1    1    2    0    0  0.52955848134E+02  0.66045675806E+03  0.21212259211E+03  0.71231671202E+03  0.15294330000E+03 0.  0.
<mgrwt>
<rscale>  0 0.86292578E+03</rscale>
<asrwt>0</asrwt>
<pdfrwt beam="1">  1        2 0.31266029E+00 0.93424711E+03</pdfrwt>
<pdfrwt beam="2">  1       -2 0.89946990E-01 0.93424711E+03</pdfrwt>
<totfact> 0.68503965E+00</totfact>
</mgrwt>
</event>
<event>
 4    1  0.6502538E-008  0.7959364E+03  0.7818608E-02  0.9719652E-01
         -2   -1    0    0    0  501 -0.00000000000E+00  0.00000000000E+00  0.83212706529E+03  0.83212706529E+03  0.25500000000E-02 0.  1.
          2   -1    0    0  501    0  0.00000000000E+00 -0.00000000000E+00 -0.59092328450E+03  0.59092328450E+03  0.25500000000E-02 0. -1.
    8880023    1    1    2    0    0 -0.27561545537E+03 -0.35176785969E+03 -0.14976090256E+03  0.80990310566E+03  0.65864270000E+03 0.  0.
    8880022    1    1    2    0    0  0.27561545537E+03  0.35176785969E+03  0.39096468335E+03  0.61314724414E+03  0.15294330000E+03 0.  0.
<mgrwt>
<rscale>  0 0.69858664E+03</rscale>
<asrwt>0</asrwt>
<pdfrwt beam="1">  1        2 0.90911274E-01 0.79593637E+03</pdfrwt>
<pdfrwt beam="2">  1       -2 0.12801955E+00 0.79593637E+03</pdfrwt>
<totfact> 0.23020660E+01</totfact>
</mgrwt>
</event>
<event>
 4    1  0.6502538E-008  0.9264317E+03  0.7818608E-02  0.9484867E-01
          2   -1    0    0  501    0  0.00000000000E+00  0.00000000000E+00  0.46246132430E+04  0.46246132430E+04  0.25500000000E-02 0. -1.
         -2   -1    0    0    0  501 -0.00000000000E+00 -0.00000000000E+00 -0.52948789226E+03  0.52948789227E+03  0.25500000000E-02 0.  1.
    8880023    1    1    2    0    0  0.16826640123E+02  0.65129288064E+03  0.43428015675E+04  0.44405181244E+04  0.65864270000E+03 0. -1.
    8880022    1    1    2    0    0 -0.16826640123E+02 -0.65129288064E+03 -0.24767621668E+03  0.71358301094E+03  0.15294330000E+03 0.  0.
<mgrwt>
<rscale>  0 0.85408779E+03</rscale>
<asrwt>0</asrwt>
<pdfrwt beam="1">  1        2 0.71147897E+00 0.92643173E+03</pdfrwt>
<pdfrwt beam="2">  1       -2 0.81459675E-01 0.92643173E+03</pdfrwt>
<totfact> 0.13449375E-01</totfact>
</mgrwt>
</event>
<event>
 4    1  0.6502538E-008  0.9909584E+03  0.7818608E-02  0.9393484E-01
          2   -1    0    0  501    0  0.00000000000E+00  0.00000000000E+00  0.20744931817E+04  0.20744931817E+04  0.25500000000E-02 0. -1.
         -2   -1    0    0    0  501 -0.00000000000E+00 -0.00000000000E+00 -0.75945151318E+03  0.75945151319E+03  0.25500000000E-02 0.  1.
    8880023    1    1    2    0    0  0.71308936143E+03  0.19922827765E+03  0.17134443105E+04  0.19793660489E+04  0.65864270000E+03 0. -1.
    8880022    1    1    2    0    0 -0.71308936143E+03 -0.19922827765E+03 -0.39840264201E+03  0.85457864599E+03  0.15294330000E+03 0.  0.
<mgrwt>
<rscale>  0 0.92613905E+03</rscale>
<asrwt>0</asrwt>
<pdfrwt beam="1">  1        2 0.31915279E+00 0.99095840E+03</pdfrwt>
<pdfrwt beam="2">  1       -2 0.11683870E+00 0.99095840E+03</pdfrwt>
<totfact> 0.34489209E+00</totfact>
</mgrwt>
</event>
<event>
 4    1  0.7548251E-008  0.1209041E+04  0.7818608E-02  0.9148384E-01
          2   -1    0    0  501    0  0.00000000000E+00  0.00000000000E+00  0.28048020618E+04  0.28048020618E+04  0.25500000000E-02 0. -1.
         -2   -1    0    0    0  501 -0.00000000000E+00 -0.00000000000E+00 -0.12688207387E+04  0.12688207387E+04  0.25500000000E-02 0.  1.
    8880023    1    1    2    0    0 -0.18468994488E+03  0.99692457753E+03  0.24294082859E+04  0.27136329550E+04  0.65864270000E+03 0. -1.
    8880022    1    1    2    0    0  0.18468994488E+03 -0.99692457753E+03 -0.89342696275E+03  0.13599898455E+04  0.15294330000E+03 0.  0.
<mgrwt>
<rscale>  0 0.11602448E+04</rscale>
<asrwt>0</asrwt>
<pdfrwt beam="1">  1        2 0.43150801E+00 0.12090406E+04</pdfrwt>
<pdfrwt beam="2">  1       -2 0.19520319E+00 0.12090406E+04</pdfrwt>
<totfact> 0.32157412E-01</totfact>
</mgrwt>
</event>
<event>
 4    1  0.6502538E-008  0.8940193E+03  0.7818608E-02  0.9535701E-01
         -2   -1    0    0    0  501 -0.00000000000E+00  0.00000000000E+00  0.71838086280E+03  0.71838086281E+03  0.25500000000E-02 0.  1.
          2   -1    0    0  501    0  0.00000000000E+00 -0.00000000000E+00 -0.10998262755E+04  0.10998262755E+04  0.25500000000E-02 0. -1.
    8880023    1    1    2    0    0  0.91772594907E+02  0.59752670504E+03 -0.68346086120E+03  0.11253396498E+04  0.65864270000E+03 0.  0.
    8880022    1    1    2    0    0 -0.91772594907E+02 -0.59752670504E+03  0.30201544852E+03  0.69286748846E+03  0.15294330000E+03 0.  0.
<mgrwt>
<rscale>  0 0.81702102E+03</rscale>
<asrwt>0</asrwt>
<pdfrwt beam="1">  1        2 0.16920404E+00 0.89401934E+03</pdfrwt>
<pdfrwt beam="2">  1       -2 0.11052013E+00 0.89401934E+03</pdfrwt>
<totfact> 0.14194250E+01</totfact>
</mgrwt>
</event>
<event>
 4    1  0.6502538E-008  0.1223591E+04  0.7818608E-02  0.9134524E-01
          2   -1    0    0  501    0  0.00000000000E+00  0.00000000000E+00  0.98777933543E+03  0.98777933544E+03  0.25500000000E-02 0. -1.
         -2   -1    0    0    0  501 -0.00000000000E+00 -0.00000000000E+00 -0.17250218306E+04  0.17250218306E+04  0.25500000000E-02 0.  1.
    8880023    1    1    2    0    0 -0.90408165670E+03 -0.49598570822E+03 -0.10627547704E+04  0.16206860810E+04  0.65864270000E+03 0.  0.
    8880022    1    1    2    0    0  0.90408165670E+03  0.49598570822E+03  0.32551227522E+03  0.10921150851E+04  0.15294330000E+03 0.  0.
<mgrwt>
<rscale>  0 0.11755574E+04</rscale>
<asrwt>0</asrwt>
<pdfrwt beam="1">  1        2 0.15196605E+00 0.12235913E+04</pdfrwt>
<pdfrwt beam="2">  1       -2 0.26538797E+00 0.12235913E+04</pdfrwt>
<totfact> 0.12906247E+00</totfact>
</mgrwt>
</event>
<event>
 4    1  0.6502538E-008  0.1527572E+04  0.7818608E-02  0.8890408E-01
          2   -1    0    0  501    0  0.00000000000E+00  0.00000000000E+00  0.14008083566E+04  0.14008083566E+04  0.25500000000E-02 0. -1.
         -2   -1    0    0    0  501 -0.00000000000E+00 -0.00000000000E+00 -0.17893875418E+04  0.17893875418E+04  0.25500000000E-02 0.  1.
    8880023    1    1    2    0    0  0.60001104368E+02 -0.13769774747E+04  0.42087986750E+03  0.15844927161E+04  0.65864270000E+03 0.  0.
    8880022    1    1    2    0    0 -0.60001104368E+02  0.13769774747E+04 -0.80945905272E+03  0.16057031822E+04  0.15294330000E+03 0.  0.
<mgrwt>
<rscale>  0 0.14910782E+04</rscale>
<asrwt>0</asrwt>
<pdfrwt beam="1">  1        2 0.21550898E+00 0.15275724E+04</pdfrwt>
<pdfrwt beam="2">  1       -2 0.27529039E+00 0.15275724E+04</pdfrwt>
<totfact> 0.61066526E-01</totfact>
</mgrwt>
</event>
<event>
 4    1  0.6502538E-008  0.9730645E+03  0.7818608E-02  0.9417678E-01
         -2   -1    0    0    0  501 -0.00000000000E+00  0.00000000000E+00  0.11033017399E+04  0.11033017399E+04  0.25500000000E-02 0.  1.
          2   -1    0    0  501    0  0.00000000000E+00 -0.00000000000E+00 -0.17056438473E+04  0.17056438473E+04  0.25500000000E-02 0. -1.
    8880023    1    1    2    0    0  0.31227298814E+03 -0.64461603240E+03 -0.14135005667E+04  0.17160531188E+04  0.65864270000E+03 0.  0.
    8880022    1    1    2    0    0 -0.31227298814E+03  0.64461603240E+03  0.81115845925E+03  0.10928924683E+04  0.15294330000E+03 0.  0.
<mgrwt>
<rscale>  0 0.90635000E+03</rscale>
<asrwt>0</asrwt>
<pdfrwt beam="1">  1        2 0.26240675E+00 0.97306447E+03</pdfrwt>
<pdfrwt beam="2">  1       -2 0.16973873E+00 0.97306447E+03</pdfrwt>
<totfact> 0.20795051E+00</totfact>
</mgrwt>
</event>
<event>
 4    1  0.6502538E-008  0.1299166E+04  0.7818608E-02  0.9066280E-01
          2   -1    0    0  501    0  0.00000000000E+00  0.00000000000E+00  0.19785374173E+04  0.19785374173E+04  0.25500000000E-02 0. -1.
         -2   -1    0    0    0  501 -0.00000000000E+00 -0.00000000000E+00 -0.92255556985E+03  0.92255556986E+03  0.25500000000E-02 0.  1.
    8880023    1    1    2    0    0  0.71778841024E+03  0.85953654788E+03  0.11914468266E+04  0.17627759432E+04  0.65864270000E+03 0. -1.
    8880022    1    1    2    0    0 -0.71778841024E+03 -0.85953654788E+03 -0.13546497915E+03  0.11383170440E+04  0.15294330000E+03 0.  0.
<mgrwt>
<rscale>  0 0.12547006E+04</rscale>
<asrwt>0</asrwt>
<pdfrwt beam="1">  1        2 0.30439037E+00 0.12991665E+04</pdfrwt>
<pdfrwt beam="2">  1       -2 0.14193163E+00 0.12991665E+04</pdfrwt>
<totfact> 0.22937638E+00</totfact>
</mgrwt>
</event>
<event>
 4    1  0.6502538E-008  0.6679406E+03  0.7818608E-02  0.1017184E+00
         -2   -1    0    0    0  501 -0.00000000000E+00  0.00000000000E+00  0.17566584926E+04  0.17566584926E+04  0.25500000000E-02 0.  1.
          2   -1    0    0  501    0  0.00000000000E+00 -0.00000000000E+00 -0.10958285305E+04  0.10958285305E+04  0.25500000000E-02 0. -1.
    8880023    1    1    2    0    0  0.98247694755E+02 -0.51786948881E+02 -0.98814334678E+03  0.11927162184E+04  0.65864270000E+03 0. -1.
    8880022    1    1    2    0    0 -0.98247694755E+02  0.51786948881E+02  0.16489733089E+04  0.16597708047E+04  0.15294330000E+03 0.  0.
<mgrwt>
<rscale>  0 0.48716568E+03</rscale>
<asrwt>0</asrwt>
<pdfrwt beam="1">  1        2 0.16858901E+00 0.66794064E+03</pdfrwt>
<pdfrwt beam="2">  1       -2 0.27025515E+00 0.66794064E+03</pdfrwt>
<totfact> 0.11190237E+00</totfact>
</mgrwt>
</event>
<event>
 4    1  0.6502538E-008  0.7865598E+03  0.7818608E-02  0.9740647E-01
          2   -1    0    0  501    0  0.00000000000E+00  0.00000000000E+00  0.12184496888E+04  0.12184496888E+04  0.25500000000E-02 0. -1.
         -2   -1    0    0    0  501 -0.00000000000E+00 -0.00000000000E+00 -0.10039759047E+04  0.10039759047E+04  0.25500000000E-02 0.  1.
    8880023    1    1    2    0    0  0.88936910674E+02 -0.42066182017E+03  0.10251466873E+04  0.12921308284E+04  0.65864270000E+03 0.  0.
    8880022    1    1    2    0    0 -0.88936910674E+02  0.42066182017E+03 -0.81067290314E+03  0.93029476508E+03  0.15294330000E+03 0.  0.
<mgrwt>
<rscale>  0 0.68647381E+03</rscale>
<asrwt>0</asrwt>
<pdfrwt beam="1">  1        2 0.18745380E+00 0.78655982E+03</pdfrwt>
<pdfrwt beam="2">  1       -2 0.15445783E+00 0.78655982E+03</pdfrwt>
<totfact> 0.52032593E+00</totfact>
</mgrwt>
</event>
<event>
 4    1  0.6502538E-008  0.1331290E+04  0.7818608E-02  0.9039000E-01
         -2   -1    0    0    0  501 -0.00000000000E+00  0.00000000000E+00  0.96183341731E+03  0.96183341731E+03  0.25500000000E-02 0.  1.
          2   -1    0    0  501    0  0.00000000000E+00 -0.00000000000E+00 -0.23788562377E+04  0.23788562377E+04  0.25500000000E-02 0. -1.
    8880023    1    1    2    0    0 -0.71053845079E+03 -0.91304808748E+03 -0.16808800211E+04  0.21442223652E+04  0.65864270000E+03 0.  0.
    8880022    1    1    2    0    0  0.71053845079E+03  0.91304808748E+03  0.26385720069E+03  0.11964672898E+04  0.15294330000E+03 0.  0.
<mgrwt>
<rscale>  0 0.12881697E+04</rscale>
<asrwt>0</asrwt>
<pdfrwt beam="1">  1        2 0.36597788E+00 0.13312896E+04</pdfrwt>
<pdfrwt beam="2">  1       -2 0.14797437E+00 0.13312896E+04</pdfrwt>
<totfact> 0.12210280E+00</totfact>
</mgrwt>
</event>
<event>
 4    1  0.6502538E-008  0.7956843E+03  0.7818608E-02  0.9720206E-01
         -2   -1    0    0    0  501 -0.00000000000E+00  0.00000000000E+00  0.47663460878E+03  0.47663460879E+03  0.25500000000E-02 0.  1.
          2   -1    0    0  501    0  0.00000000000E+00 -0.00000000000E+00 -0.15126541337E+04  0.15126541337E+04  0.25500000000E-02 0. -1.
    8880023    1    1    2    0    0  0.30192116626E+03 -0.32885697932E+03 -0.12414926430E+04  0.14745906186E+04  0.65864270000E+03 0.  0.
    8880022    1    1    2    0    0 -0.30192116626E+03  0.32885697932E+03  0.20547311809E+03  0.51469812391E+03  0.15294330000E+03 0.  0.
<mgrwt>
<rscale>  0 0.69826358E+03</rscale>
<asrwt>0</asrwt>
<pdfrwt beam="1">  1        2 0.23271602E+00 0.79568430E+03</pdfrwt>
<pdfrwt beam="2">  1       -2 0.73328402E-01 0.79568430E+03</pdfrwt>
<totfact> 0.21349204E+01</totfact>
</mgrwt>
</event>
<event>
 4    1  0.6502538E-008  0.7068123E+03  0.7818608E-02  0.9970034E-01
         -2   -1    0    0    0  501 -0.00000000000E+00  0.00000000000E+00  0.34641336134E+03  0.34641336135E+03  0.25500000000E-02 0.  1.
          2   -1    0    0  501    0  0.00000000000E+00 -0.00000000000E+00 -0.24557319649E+04  0.24557319649E+04  0.25500000000E-02 0. -1.
    8880023    1    1    2    0    0  0.25092142422E+03 -0.53026955160E+02 -0.23274146344E+04  0.24323738417E+04  0.65864270000E+03 0. -1.
    8880022    1    1    2    0    0 -0.25092142422E+03  0.53026955160E+02  0.21809603083E+03  0.36977148455E+03  0.15294330000E+03 0.  0.
<mgrwt>
<rscale>  0 0.56983933E+03</rscale>
<asrwt>0</asrwt>
<pdfrwt beam="1">  1        2 0.37780491E+00 0.70681230E+03</pdfrwt>
<pdfrwt beam="2">  1       -2 0.53294365E-01 0.70681230E+03</pdfrwt>
<totfact> 0.12917804E+01</totfact>
</mgrwt>
</event>
<event>
 4    1  0.6502538E-008  0.7707226E+03  0.7818608E-02  0.9778099E-01
         -2   -1    0    0    0  501 -0.00000000000E+00  0.00000000000E+00  0.85950566555E+03  0.85950566556E+03  0.25500000000E-02 0.  1.
          2   -1    0    0  501    0  0.00000000000E+00 -0.00000000000E+00 -0.77281501620E+03  0.77281501621E+03  0.25500000000E-02 0. -1.
    8880023    1    1    2    0    0  0.87859782205E+02 -0.39049169636E+03 -0.49042934751E+03  0.91352846558E+03  0.65864270000E+03 0. -1.
    8880022    1    1    2    0    0 -0.87859782205E+02  0.39049169636E+03  0.57711999686E+03  0.71879221619E+03  0.15294330000E+03 0.  0.
<mgrwt>
<rscale>  0 0.66551232E+03</rscale>
<asrwt>0</asrwt>
<pdfrwt beam="1">  1        2 0.11889462E+00 0.77072259E+03</pdfrwt>
<pdfrwt beam="2">  1       -2 0.13223164E+00 0.77072259E+03</pdfrwt>
<totfact> 0.15189595E+01</totfact>
</mgrwt>
</event>
<event>
 4    1  0.6502538E-008  0.8999362E+03  0.7818608E-02  0.9526134E-01
          2   -1    0    0  501    0  0.00000000000E+00  0.00000000000E+00  0.10947136399E+04  0.10947136399E+04  0.25500000000E-02 0. -1.
         -2   -1    0    0    0  501 -0.00000000000E+00 -0.00000000000E+00 -0.10987875150E+04  0.10987875150E+04  0.25500000000E-02 0.  1.
    8880023    1    1    2    0    0  0.24333663909E+01  0.61324460832E+03  0.77685042691E+03  0.11888572929E+04  0.65864270000E+03 0.  0.
    8880022    1    1    2    0    0 -0.24333663909E+01 -0.61324460832E+03 -0.78092430205E+03  0.10046438620E+04  0.15294330000E+03 0.  0.
<mgrwt>
<rscale>  0 0.82384180E+03</rscale>
<asrwt>0</asrwt>
<pdfrwt beam="1">  1        2 0.16841748E+00 0.89993615E+03</pdfrwt>
<pdfrwt beam="2">  1       -2 0.16904423E+00 0.89993615E+03</pdfrwt>
<totfact> 0.47623247E+00</totfact>
</mgrwt>
</event>
<event>
 4    1  0.6502538E-008  0.9243731E+03  0.7818608E-02  0.9487986E-01
         -2   -1    0    0    0  501 -0.00000000000E+00  0.00000000000E+00  0.54897497471E+03  0.54897497472E+03  0.25500000000E-02 0.  1.
          2   -1    0    0  501    0  0.00000000000E+00 -0.00000000000E+00 -0.22258953314E+04  0.22258953314E+04  0.25500000000E-02 0. -1.
    8880023    1    1    2    0    0 -0.62283168467E+03 -0.18093130568E+03 -0.18658186110E+04  0.20822451201E+04  0.65864270000E+03 0. -1.
    8880022    1    1    2    0    0  0.62283168467E+03  0.18093130568E+03  0.18889825430E+03  0.69262518601E+03  0.15294330000E+03 0.  0.
<mgrwt>
<rscale>  0 0.85175386E+03</rscale>
<asrwt>0</asrwt>
<pdfrwt beam="1">  1        2 0.34244543E+00 0.92437311E+03</pdfrwt>
<pdfrwt beam="2">  1       -2 0.84457689E-01 0.92437311E+03</pdfrwt>
<totfact> 0.61957577E+00</totfact>
</mgrwt>
</event>
<event>
 4    1  0.6502538E-008  0.7589338E+03  0.7818608E-02  0.9807876E-01
         -2   -1    0    0    0  501 -0.00000000000E+00  0.00000000000E+00  0.44585422088E+03  0.44585422089E+03  0.25500000000E-02 0.  1.
          2   -1    0    0  501    0  0.00000000000E+00 -0.00000000000E+00 -0.21953712212E+04  0.21953712212E+04  0.25500000000E-02 0. -1.
    8880023    1    1    2    0    0 -0.36193333084E+03  0.10570953087E+03 -0.20164816249E+04  0.21545715562E+04  0.65864270000E+03 0. -1.
    8880022    1    1    2    0    0  0.36193333084E+03 -0.10570953087E+03  0.26696462457E+03  0.48665388592E+03  0.15294330000E+03 0.  0.
<mgrwt>
<rscale>  0 0.64941595E+03</rscale>
<asrwt>0</asrwt>
<pdfrwt beam="1">  1        2 0.33774941E+00 0.75893376E+03</pdfrwt>
<pdfrwt beam="2">  1       -2 0.68592958E-01 0.75893376E+03</pdfrwt>
<totfact> 0.10485726E+01</totfact>
</mgrwt>
</event>
<event>
 4    1  0.6502538E-008  0.6650553E+03  0.7818608E-02  0.1019487E+00
          2   -1    0    0  501    0  0.00000000000E+00  0.00000000000E+00  0.79079860864E+03  0.79079860865E+03  0.25500000000E-02 0. -1.
         -2   -1    0    0    0  501 -0.00000000000E+00 -0.00000000000E+00 -0.14744458518E+04  0.14744458518E+04  0.25500000000E-02 0.  1.
    8880023    1    1    2    0    0  0.49377926041E+02 -0.77783148545E+02  0.64393073130E+03  0.92571344959E+03  0.65864270000E+03 0. -1.
    8880022    1    1    2    0    0 -0.49377926041E+02  0.77783148545E+02 -0.13275779744E+04  0.13395310108E+04  0.15294330000E+03 0.  0.
<mgrwt>
<rscale>  0 0.47872181E+03</rscale>
<asrwt>0</asrwt>
<pdfrwt beam="1">  1        2 0.12166132E+00 0.66505534E+03</pdfrwt>
<pdfrwt beam="2">  1       -2 0.22683782E+00 0.66505534E+03</pdfrwt>
<totfact> 0.32565688E+00</totfact>
</mgrwt>
</event>
<event>
 4    1  0.6502538E-008  0.7844224E+03  0.7818608E-02  0.9745549E-01
          2   -1    0    0  501    0  0.00000000000E+00  0.00000000000E+00  0.11613536117E+04  0.11613536117E+04  0.25500000000E-02 0. -1.
         -2   -1    0    0    0  501 -0.00000000000E+00 -0.00000000000E+00 -0.51996319328E+03  0.51996319328E+03  0.25500000000E-02 0.  1.
    8880023    1    1    2    0    0 -0.37648751080E+03  0.19941260014E+03  0.87233144935E+03  0.11731498603E+04  0.65864270000E+03 0. -1.
    8880022    1    1    2    0    0  0.37648751080E+03 -0.19941260014E+03 -0.23094103095E+03  0.50816694469E+03  0.15294330000E+03 0.  0.
<mgrwt>
<rscale>  0 0.68368364E+03</rscale>
<asrwt>0</asrwt>
<pdfrwt beam="1">  1        2 0.17866979E+00 0.78442236E+03</pdfrwt>
<pdfrwt beam="2">  1       -2 0.79994337E-01 0.78442236E+03</pdfrwt>
<totfact> 0.28032300E+01</totfact>
</mgrwt>
</event>
<event>
 4    1  0.6502538E-008  0.1227091E+04  0.7818608E-02  0.9131227E-01
         -2   -1    0    0    0  501 -0.00000000000E+00  0.00000000000E+00  0.63197115556E+03  0.63197115556E+03  0.25500000000E-02 0.  1.
          2   -1    0    0  501    0  0.00000000000E+00 -0.00000000000E+00 -0.22175204972E+04  0.22175204972E+04  0.25500000000E-02 0. -1.
    8880023    1    1    2    0    0 -0.85294186234E+03  0.58688433077E+03 -0.12470266515E+04  0.17495224245E+04  0.65864270000E+03 0.  0.
    8880022    1    1    2    0    0  0.85294186234E+03 -0.58688433077E+03 -0.33852269016E+03  0.10999692282E+04  0.15294330000E+03 0. -1.
<mgrwt>
<rscale>  0 0.11792368E+04</rscale>
<asrwt>0</asrwt>
<pdfrwt beam="1">  1        2 0.34115700E+00 0.12270914E+04</pdfrwt>
<pdfrwt beam="2">  1       -2 0.97226333E-01 0.12270914E+04</pdfrwt>
<totfact> 0.43581985E+00</totfact>
</mgrwt>
</event>
<event>
 4    1  0.6502538E-008  0.7626073E+03  0.7818608E-02  0.9798404E-01
         -2   -1    0    0    0  501 -0.00000000000E+00  0.00000000000E+00  0.22136894306E+03  0.22136894308E+03  0.25500000000E-02 0.  1.
          2   -1    0    0  501    0  0.00000000000E+00 -0.00000000000E+00 -0.20622738019E+04  0.20622738019E+04  0.25500000000E-02 0. -1.
    8880023    1    1    2    0    0  0.21186617889E+03  0.32073725731E+03 -0.16702710161E+04  0.18361304800E+04  0.65864270000E+03 0.  0.
    8880022    1    1    2    0    0 -0.21186617889E+03 -0.32073725731E+03 -0.17063384265E+03  0.44751226492E+03  0.15294330000E+03 0.  0.
<mgrwt>
<rscale>  0 0.65448281E+03</rscale>
<asrwt>0</asrwt>
<pdfrwt beam="1">  1        2 0.31727288E+00 0.76260729E+03</pdfrwt>
<pdfrwt beam="2">  1       -2 0.34056762E-01 0.76260729E+03</pdfrwt>
<totfact> 0.51243723E+01</totfact>
</mgrwt>
</event>
<event>
 4    1  0.6502538E-008  0.7910798E+03  0.7818608E-02  0.9730426E-01
         -2   -1    0    0    0  501 -0.00000000000E+00  0.00000000000E+00  0.75106370460E+03  0.75106370460E+03  0.25500000000E-02 0.  1.
          2   -1    0    0  501    0  0.00000000000E+00 -0.00000000000E+00 -0.18403739498E+04  0.18403739498E+04  0.25500000000E-02 0. -1.
    8880023    1    1    2    0    0 -0.43410342919E+03 -0.59592147950E+02 -0.16701077417E+04  0.18479900125E+04  0.65864270000E+03 0. -1.
    8880022    1    1    2    0    0  0.43410342919E+03  0.59592147950E+02  0.58079749646E+03  0.74344764190E+03  0.15294330000E+03 0.  0.
<mgrwt>
<rscale>  0 0.69233784E+03</rscale>
<asrwt>0</asrwt>
<pdfrwt beam="1">  1        2 0.28313445E+00 0.79107978E+03</pdfrwt>
<pdfrwt beam="2">  1       -2 0.11554826E+00 0.79107978E+03</pdfrwt>
<totfact> 0.48992786E+00</totfact>
</mgrwt>
</event>
<event>
 4    1  0.6502538E-008  0.1120280E+04  0.7818608E-02  0.9238806E-01
          2   -1    0    0  501    0  0.00000000000E+00  0.00000000000E+00  0.83210191085E+03  0.83210191085E+03  0.25500000000E-02 0. -1.
         -2   -1    0    0    0  501 -0.00000000000E+00 -0.00000000000E+00 -0.14310667446E+04  0.14310667446E+04  0.25500000000E-02 0.  1.
    8880023    1    1    2    0    0  0.19205751119E+03  0.88562420141E+03  0.76086797013E+02  0.11228605081E+04  0.65864270000E+03 0.  0.
    8880022    1    1    2    0    0 -0.19205751119E+03 -0.88562420141E+03 -0.67505163081E+03  0.11403081474E+04  0.15294330000E+03 0.  0.
<mgrwt>
<rscale>  0 0.10661707E+04</rscale>
<asrwt>0</asrwt>
<pdfrwt beam="1">  1        2 0.12801568E+00 0.11202797E+04</pdfrwt>
<pdfrwt beam="2">  1       -2 0.22016411E+00 0.11202797E+04</pdfrwt>
<totfact> 0.31636945E+00</totfact>
</mgrwt>
</event>
<event>
 4    1  0.6502538E-008  0.1933572E+04  0.7818608E-02  0.8652039E-01
          2   -1    0    0  501    0  0.00000000000E+00  0.00000000000E+00  0.27961727400E+04  0.27961727400E+04  0.25500000000E-02 0. -1.
         -2   -1    0    0    0  501 -0.00000000000E+00 -0.00000000000E+00 -0.17861325949E+04  0.17861325949E+04  0.25500000000E-02 0.  1.
    8880023    1    1    2    0    0  0.78588033427E+03 -0.16392928480E+04  0.17554202422E+04  0.26115511433E+04  0.65864270000E+03 0.  0.
    8880022    1    1    2    0    0 -0.78588033427E+03  0.16392928480E+04 -0.74538009708E+03  0.19707541915E+04  0.15294330000E+03 0.  0.
<mgrwt>
<rscale>  0 0.19056700E+04</rscale>
<asrwt>0</asrwt>
<pdfrwt beam="1">  1        2 0.43018042E+00 0.19335716E+04</pdfrwt>
<pdfrwt beam="2">  1       -2 0.27478963E+00 0.19335716E+04</pdfrwt>
<totfact> 0.94030383E-02</totfact>
</mgrwt>
</event>
<event>
 4    1  0.6502538E-008  0.8154208E+03  0.7818608E-02  0.9678394E-01
          2   -1    0    0  501    0  0.00000000000E+00  0.00000000000E+00  0.33316999659E+04  0.33316999659E+04  0.25500000000E-02 0. -1.
         -2   -1    0    0    0  501 -0.00000000000E+00 -0.00000000000E+00 -0.32209825494E+03  0.32209825495E+03  0.25500000000E-02 0.  1.
    8880023    1    1    2    0    0  0.17584943604E+03  0.44741243781E+03  0.30409246661E+04  0.31483541644E+04  0.65864270000E+03 0.  0.
    8880022    1    1    2    0    0 -0.17584943604E+03 -0.44741243781E+03 -0.31322955106E+02  0.50544405644E+03  0.15294330000E+03 0.  0.
<mgrwt>
<rscale>  0 0.72317888E+03</rscale>
<asrwt>0</asrwt>
<pdfrwt beam="1">  1        2 0.51256921E+00 0.81542082E+03</pdfrwt>
<pdfrwt beam="2">  1       -2 0.49553580E-01 0.81542082E+03</pdfrwt>
<totfact> 0.43518732E+00</totfact>
</mgrwt>
</event>
<event>
 4    1  0.6502538E-008  0.7467625E+03  0.7818608E-02  0.9840669E-01
          2   -1    0    0  501    0  0.00000000000E+00  0.00000000000E+00  0.38116844337E+04  0.38116844337E+04  0.25500000000E-02 0. -1.
         -2   -1    0    0    0  501 -0.00000000000E+00 -0.00000000000E+00 -0.32845680299E+03  0.32845680300E+03  0.25500000000E-02 0.  1.
    8880023    1    1    2    0    0  0.95098285856E+02  0.33882202192E+03  0.36471973921E+04  0.37228622147E+04  0.65864270000E+03 0.  0.
    8880022    1    1    2    0    0 -0.95098285856E+02 -0.33882202192E+03 -0.16396976141E+03  0.41727902198E+03  0.15294330000E+03 0.  0.
<mgrwt>
<rscale>  0 0.63224954E+03</rscale>
<asrwt>0</asrwt>
<pdfrwt beam="1">  1        2 0.58641297E+00 0.74676251E+03</pdfrwt>
<pdfrwt beam="2">  1       -2 0.50531817E-01 0.74676251E+03</pdfrwt>
<totfact> 0.19634766E+00</totfact>
</mgrwt>
</event>
<event>
 4    1  0.6502538E-008  0.6882312E+03  0.7818608E-02  0.1005005E+00
          2   -1    0    0  501    0  0.00000000000E+00  0.00000000000E+00  0.15811176719E+03  0.15811176721E+03  0.25500000000E-02 0. -1.
         -2   -1    0    0    0  501 -0.00000000000E+00 -0.00000000000E+00 -0.16367158330E+04  0.16367158330E+04  0.25500000000E-02 0.  1.
    8880023    1    1    2    0    0  0.18624992626E+03  0.71853557127E+02 -0.72176054824E+03  0.99729657774E+03  0.65864270000E+03 0.  0.
    8880022    1    1    2    0    0 -0.18624992626E+03 -0.71853557127E+02 -0.75684351757E+03  0.79753102248E+03  0.15294330000E+03 0.  0.
<mgrwt>
<rscale>  0 0.53509126E+03</rscale>
<asrwt>0</asrwt>
<pdfrwt beam="1">  1        2 0.24324888E-01 0.68823119E+03</pdfrwt>
<pdfrwt beam="2">  1       -2 0.25180242E+00 0.68823119E+03</pdfrwt>
<totfact> 0.14632774E+01</totfact>
</mgrwt>
</event>
<event>
 4    1  0.6538888E-008  0.1120677E+04  0.7818608E-02  0.9238377E-01
         -2   -1    0    0    0  501 -0.00000000000E+00  0.00000000000E+00  0.16018786431E+04  0.16018786431E+04  0.25500000000E-02 0.  1.
          2   -1    0    0  501    0  0.00000000000E+00 -0.00000000000E+00 -0.26818582215E+04  0.26818582215E+04  0.25500000000E-02 0. -1.
    8880023    1    1    2    0    0  0.79099774233E+03  0.44320300579E+03 -0.24151955131E+04  0.26625337379E+04  0.65864270000E+03 0.  0.
    8880022    1    1    2    0    0 -0.79099774233E+03 -0.44320300579E+03  0.13352159347E+04  0.16212031267E+04  0.15294330000E+03 0.  0.
<mgrwt>
<rscale>  0 0.10665946E+04</rscale>
<asrwt>0</asrwt>
<pdfrwt beam="1">  1        2 0.41259357E+00 0.11206768E+04</pdfrwt>
<pdfrwt beam="2">  1       -2 0.24644287E+00 0.11206768E+04</pdfrwt>
<totfact> 0.18262058E-01</totfact>
</mgrwt>
</event>
<event>
 4    1  0.6502538E-008  0.9456054E+03  0.7818608E-02  0.9456465E-01
          2   -1    0    0  501    0  0.00000000000E+00  0.00000000000E+00  0.14736008459E+04  0.14736008459E+04  0.25500000000E-02 0. -1.
         -2   -1    0    0    0  501 -0.00000000000E+00 -0.00000000000E+00 -0.69034213182E+03  0.69034213182E+03  0.25500000000E-02 0.  1.
    8880023    1    1    2    0    0 -0.58538695236E+03 -0.34304737294E+03  0.10554198944E+04  0.14170676568E+04  0.65864270000E+03 0.  0.
    8880022    1    1    2    0    0  0.58538695236E+03  0.34304737294E+03 -0.27216118028E+03  0.74687532101E+03  0.15294330000E+03 0.  0.
<mgrwt>
<rscale>  0 0.87570978E+03</rscale>
<asrwt>0</asrwt>
<pdfrwt beam="1">  1        2 0.22670782E+00 0.94560541E+03</pdfrwt>
<pdfrwt beam="2">  1       -2 0.10620648E+00 0.94560541E+03</pdfrwt>
<totfact> 0.94003891E+00</totfact>
</mgrwt>
</event>
<event>
 4    1  0.8938383E-008  0.9125693E+03  0.7818608E-02  0.9506148E-01
         -2   -1    0    0    0  501 -0.00000000000E+00  0.00000000000E+00  0.15391759149E+04  0.15391759149E+04  0.25500000000E-02 0.  1.
          2   -1    0    0  501    0  0.00000000000E+00 -0.00000000000E+00 -0.20869951449E+04  0.20869951449E+04  0.25500000000E-02 0. -1.
    8880023    1    1    2    0    0 -0.56856512352E+03  0.27514761276E+03 -0.19100498376E+04  0.21168545290E+04  0.65864270000E+03 0.  0.
    8880022    1    1    2    0    0  0.56856512352E+03 -0.27514761276E+03  0.13622306076E+04  0.15093165307E+04  0.15294330000E+03 0.  0.
<mgrwt>
<rscale>  0 0.83832086E+03</rscale>
<asrwt>0</asrwt>
<pdfrwt beam="1">  1        2 0.32107618E+00 0.91256929E+03</pdfrwt>
<pdfrwt beam="2">  1       -2 0.23679629E+00 0.91256929E+03</pdfrwt>
<totfact> 0.47194224E-01</totfact>
</mgrwt>
</event>
<event>
 4    1  0.6502538E-008  0.9969295E+03  0.7818608E-02  0.9385586E-01
         -2   -1    0    0    0  501 -0.00000000000E+00  0.00000000000E+00  0.13073576295E+04  0.13073576295E+04  0.25500000000E-02 0.  1.
          2   -1    0    0  501    0  0.00000000000E+00 -0.00000000000E+00 -0.11451464763E+04  0.11451464763E+04  0.25500000000E-02 0. -1.
    8880023    1    1    2    0    0  0.69740440188E+03 -0.27145051045E+03 -0.76105782554E+03  0.12542238634E+04  0.65864270000E+03 0.  0.
    8880022    1    1    2    0    0 -0.69740440188E+03  0.27145051045E+03  0.92326897877E+03  0.11982802425E+04  0.15294330000E+03 0.  0.
<mgrwt>
<rscale>  0 0.93271464E+03</rscale>
<asrwt>0</asrwt>
<pdfrwt beam="1">  1        2 0.17617638E+00 0.99692953E+03</pdfrwt>
<pdfrwt beam="2">  1       -2 0.20113194E+00 0.99692953E+03</pdfrwt>
<totfact> 0.26527652E+00</totfact>
</mgrwt>
</event>
<event>
 4    1  0.6502538E-008  0.1770693E+04  0.7818608E-02  0.8738923E-01
          2   -1    0    0  501    0  0.00000000000E+00  0.00000000000E+00  0.33432644135E+04  0.33432644135E+04  0.25500000000E-02 0. -1.
         -2   -1    0    0    0  501 -0.00000000000E+00 -0.00000000000E+00 -0.97047004008E+03  0.97047004008E+03  0.25500000000E-02 0.  1.
    8880023    1    1    2    0    0 -0.65255370007E+03 -0.15085481899E+04  0.18987746203E+04  0.25962856618E+04  0.65864270000E+03 0.  0.
    8880022    1    1    2    0    0  0.65255370007E+03  0.15085481899E+04  0.47401975311E+03  0.17174487917E+04  0.15294330000E+03 0.  0.
<mgrwt>
<rscale>  0 0.17399109E+04</rscale>
<asrwt>0</asrwt>
<pdfrwt beam="1">  1        2 0.51434837E+00 0.17706931E+04</pdfrwt>
<pdfrwt beam="2">  1       -2 0.14930308E+00 0.17706931E+04</pdfrwt>
<totfact> 0.29167214E-01</totfact>
</mgrwt>
</event>
<event>
 4    1  0.6502538E-008  0.1484058E+04  0.7818608E-02  0.8920976E-01
         -2   -1    0    0    0  501 -0.00000000000E+00  0.00000000000E+00  0.80614544754E+03  0.80614544755E+03  0.25500000000E-02 0.  1.
          2   -1    0    0  501    0  0.00000000000E+00 -0.00000000000E+00 -0.31770171832E+04  0.31770171832E+04  0.25500000000E-02 0. -1.
    8880023    1    1    2    0    0  0.12421997969E+04 -0.47493009255E+03 -0.21708488505E+04  0.26296413949E+04  0.65864270000E+03 0.  0.
    8880022    1    1    2    0    0 -0.12421997969E+04  0.47493009255E+03 -0.20002288520E+03  0.13535212358E+04  0.15294330000E+03 0.  0.
<mgrwt>
<rscale>  0 0.14462914E+04</rscale>
<asrwt>0</asrwt>
<pdfrwt beam="1">  1        2 0.48877187E+00 0.14840583E+04</pdfrwt>
<pdfrwt beam="2">  1       -2 0.12402238E+00 0.14840583E+04</pdfrwt>
<totfact> 0.62704332E-01</totfact>
</mgrwt>
</event>
<event>
 4    1  0.6502538E-008  0.1352938E+04  0.7818608E-02  0.9021142E-01
          2   -1    0    0  501    0  0.00000000000E+00  0.00000000000E+00  0.35378519307E+04  0.35378519307E+04  0.25500000000E-02 0. -1.
         -2   -1    0    0    0  501 -0.00000000000E+00 -0.00000000000E+00 -0.91809668686E+03  0.91809668686E+03  0.25500000000E-02 0.  1.
    8880023    1    1    2    0    0 -0.68350125641E+03  0.96408341295E+03  0.29276675754E+04  0.32251633188E+04  0.65864270000E+03 0.  0.
    8880022    1    1    2    0    0  0.68350125641E+03 -0.96408341295E+03 -0.30791233158E+03  0.12307852987E+04  0.15294330000E+03 0.  0.
<mgrwt>
<rscale>  0 0.13106759E+04</rscale>
<asrwt>0</asrwt>
<pdfrwt beam="1">  1        2 0.54428490E+00 0.13529379E+04</pdfrwt>
<pdfrwt beam="2">  1       -2 0.14124565E+00 0.13529379E+04</pdfrwt>
<totfact> 0.26133249E-01</totfact>
</mgrwt>
</event>
<event>
 4    1  0.6502538E-008  0.8784978E+03  0.7818608E-02  0.9561470E-01
          2   -1    0    0  501    0  0.00000000000E+00  0.00000000000E+00  0.20637745366E+04  0.20637745366E+04  0.25500000000E-02 0. -1.
         -2   -1    0    0    0  501 -0.00000000000E+00 -0.00000000000E+00 -0.85590744455E+03  0.85590744455E+03  0.25500000000E-02 0.  1.
    8880023    1    1    2    0    0 -0.34304248132E+03  0.46932933411E+03  0.18451622197E+04  0.20436198255E+04  0.65864270000E+03 0. -1.
    8880022    1    1    2    0    0  0.34304248132E+03 -0.46932933411E+03 -0.63729512765E+03  0.87606215566E+03  0.15294330000E+03 0.  0.
<mgrwt>
<rscale>  0 0.79899670E+03</rscale>
<asrwt>0</asrwt>
<pdfrwt beam="1">  1        2 0.31750377E+00 0.87849779E+03</pdfrwt>
<pdfrwt beam="2">  1       -2 0.13167807E+00 0.87849779E+03</pdfrwt>
<totfact> 0.26310864E+00</totfact>
</mgrwt>
</event>
<event>
 4    1  0.6502538E-008  0.7946720E+03  0.7818608E-02  0.9722437E-01
         -2   -1    0    0    0  501 -0.00000000000E+00  0.00000000000E+00  0.60413482116E+03  0.60413482116E+03  0.25500000000E-02 0.  1.
          2   -1    0    0  501    0  0.00000000000E+00 -0.00000000000E+00 -0.20516790593E+04  0.20516790593E+04  0.25500000000E-02 0. -1.
    8880023    1    1    2    0    0 -0.18695531961E+03  0.40341187592E+03 -0.18648706791E+04  0.20271275957E+04  0.65864270000E+03 0. -1.
    8880022    1    1    2    0    0  0.18695531961E+03 -0.40341187592E+03  0.41732644104E+03  0.62868628470E+03  0.15294330000E+03 0.  0.
<mgrwt>
<rscale>  0 0.69696485E+03</rscale>
<asrwt>0</asrwt>
<pdfrwt beam="1">  1        2 0.31564293E+00 0.79467203E+03</pdfrwt>
<pdfrwt beam="2">  1       -2 0.92943819E-01 0.79467203E+03</pdfrwt>
<totfact> 0.63161530E+00</totfact>
</mgrwt>
</event>
<event>
 4    1  0.6502538E-008  0.8830883E+03  0.7818608E-02  0.9553745E-01
         -2   -1    0    0    0  501 -0.00000000000E+00  0.00000000000E+00  0.11456373965E+04  0.11456373965E+04  0.25500000000E-02 0.  1.
          2   -1    0    0  501    0  0.00000000000E+00 -0.00000000000E+00 -0.59930704890E+03  0.59930704891E+03  0.25500000000E-02 0. -1.
    8880023    1    1    2    0    0  0.12412838370E+03 -0.57500162705E+03 -0.61671958873E+02  0.88523915612E+03  0.65864270000E+03 0.  0.
    8880022    1    1    2    0    0 -0.12412838370E+03  0.57500162705E+03  0.60800230646E+03  0.85970528929E+03  0.15294330000E+03 0.  0.
<mgrwt>
<rscale>  0 0.80434818E+03</rscale>
<asrwt>0</asrwt>
<pdfrwt beam="1">  1        2 0.92201085E-01 0.88308829E+03</pdfrwt>
<pdfrwt beam="2">  1       -2 0.17625191E+00 0.88308829E+03</pdfrwt>
<totfact> 0.95962627E+00</totfact>
</mgrwt>
</event>
<event>
 4    1  0.6502538E-008  0.1179199E+04  0.7818608E-02  0.9177612E-01
          2   -1    0    0  501    0  0.00000000000E+00  0.00000000000E+00  0.17077378653E+04  0.17077378653E+04  0.25500000000E-02 0. -1.
         -2   -1    0    0    0  501 -0.00000000000E+00 -0.00000000000E+00 -0.11266622539E+04  0.11266622539E+04  0.25500000000E-02 0.  1.
    8880023    1    1    2    0    0  0.89376259003E+03 -0.39735184063E+03  0.11874308691E+04  0.16734701454E+04  0.65864270000E+03 0.  0.
    8880022    1    1    2    0    0 -0.89376259003E+03  0.39735184063E+03 -0.60635525760E+03  0.11609299738E+04  0.15294330000E+03 0.  0.
<mgrwt>
<rscale>  0 0.11287523E+04</rscale>
<asrwt>0</asrwt>
<pdfrwt beam="1">  1        2 0.26272890E+00 0.11791990E+04</pdfrwt>
<pdfrwt beam="2">  1       -2 0.17333265E+00 0.11791990E+04</pdfrwt>
<totfact> 0.19072238E+00</totfact>
</mgrwt>
</event>
<event>
 4    1  0.6502538E-008  0.1008404E+04  0.7818608E-02  0.9370645E-01
         -2   -1    0    0    0  501 -0.00000000000E+00  0.00000000000E+00  0.22028488826E+04  0.22028488826E+04  0.25500000000E-02 0.  1.
          2   -1    0    0  501    0  0.00000000000E+00 -0.00000000000E+00 -0.51656314084E+03  0.51656314084E+03  0.25500000000E-02 0. -1.
    8880023    1    1    2    0    0  0.43153460884E+03 -0.62995677617E+03  0.18086799206E+03  0.10244955321E+04  0.65864270000E+03 0.  0.
    8880022    1    1    2    0    0 -0.43153460884E+03  0.62995677617E+03  0.15054177497E+04  0.16949164913E+04  0.15294330000E+03 0.  0.
<mgrwt>
<rscale>  0 0.94531382E+03</rscale>
<asrwt>0</asrwt>
<pdfrwt beam="1">  1        2 0.79471252E-01 0.10084036E+04</pdfrwt>
<pdfrwt beam="2">  1       -2 0.33889983E+00 0.10084036E+04</pdfrwt>
<totfact> 0.10956513E+00</totfact>
</mgrwt>
</event>
<event>
 4    1  0.6502538E-008  0.7518478E+03  0.7818608E-02  0.9826689E-01
         -2   -1    0    0    0  501 -0.00000000000E+00  0.00000000000E+00  0.12635885592E+04  0.12635885592E+04  0.25500000000E-02 0.  1.
          2   -1    0    0  501    0  0.00000000000E+00 -0.00000000000E+00 -0.65835325087E+03  0.65835325087E+03  0.25500000000E-02 0. -1.
    8880023    1    1    2    0    0  0.30882297071E+03 -0.18998231091E+03 -0.39341301719E+03  0.84855695982E+03  0.65864270000E+03 0.  0.
    8880022    1    1    2    0    0 -0.30882297071E+03  0.18998231091E+03  0.99864832550E+03  0.10733848502E+04  0.15294330000E+03 0.  0.
<mgrwt>
<rscale>  0 0.63949720E+03</rscale>
<asrwt>0</asrwt>
<pdfrwt beam="1">  1        2 0.10128512E+00 0.75184780E+03</pdfrwt>
<pdfrwt beam="2">  1       -2 0.19439824E+00 0.75184780E+03</pdfrwt>
<totfact> 0.65354471E+00</totfact>
</mgrwt>
</event>
<event>
 4    1  0.6502538E-008  0.8743247E+03  0.7818608E-02  0.9568574E-01
          2   -1    0    0  501    0  0.00000000000E+00  0.00000000000E+00  0.86183226376E+03  0.86183226376E+03  0.25500000000E-02 0. -1.
         -2   -1    0    0    0  501 -0.00000000000E+00 -0.00000000000E+00 -0.17922220119E+04  0.17922220119E+04  0.25500000000E-02 0.  1.
    8880023    1    1    2    0    0 -0.56627292568E+03  0.99842312609E+02  0.56747512751E+03  0.10423395514E+04  0.65864270000E+03 0. -1.
    8880022    1    1    2    0    0  0.56627292568E+03 -0.99842312609E+02 -0.14978648756E+04  0.16117147242E+04  0.15294330000E+03 0.  0.
<mgrwt>
<rscale>  0 0.79411580E+03</rscale>
<asrwt>0</asrwt>
<pdfrwt beam="1">  1        2 0.13258958E+00 0.87432472E+03</pdfrwt>
<pdfrwt beam="2">  1       -2 0.27572646E+00 0.87432472E+03</pdfrwt>
<totfact> 0.14177752E+00</totfact>
</mgrwt>
</event>
<event>
 4    1  0.6502538E-008  0.7684271E+03  0.7818608E-02  0.9783759E-01
         -2   -1    0    0    0  501 -0.00000000000E+00  0.00000000000E+00  0.51695114088E+03  0.51695114089E+03  0.25500000000E-02 0.  1.
          2   -1    0    0  501    0  0.00000000000E+00 -0.00000000000E+00 -0.29002189324E+04  0.29002189324E+04  0.25500000000E-02 0. -1.
    8880023    1    1    2    0    0  0.29898582017E+03  0.25937916076E+03 -0.27506036669E+04  0.28559238100E+04  0.65864270000E+03 0. -1.
    8880022    1    1    2    0    0 -0.29898582017E+03 -0.25937916076E+03  0.36733587540E+03  0.56124626330E+03  0.15294330000E+03 0.  0.
<mgrwt>
<rscale>  0 0.66241430E+03</rscale>
<asrwt>0</asrwt>
<pdfrwt beam="1">  1        2 0.44618752E+00 0.76842714E+03</pdfrwt>
<pdfrwt beam="2">  1       -2 0.79530946E-01 0.76842714E+03</pdfrwt>
<totfact> 0.29810911E+00</totfact>
</mgrwt>
</event>
<event>
 4    1  0.6502538E-008  0.7755765E+03  0.7818608E-02  0.9766332E-01
         -2   -1    0    0    0  501 -0.00000000000E+00  0.00000000000E+00  0.19747783868E+04  0.19747783868E+04  0.25500000000E-02 0.  1.
          2   -1    0    0  501    0  0.00000000000E+00 -0.00000000000E+00 -0.30590906013E+03  0.30590906014E+03  0.25500000000E-02 0. -1.
    8880023    1    1    2    0    0  0.19859611731E+03  0.35814566989E+03  0.27988046437E+03  0.82453139374E+03  0.65864270000E+03 0. -1.
    8880022    1    1    2    0    0 -0.19859611731E+03 -0.35814566989E+03  0.13889888623E+04  0.14561560532E+04  0.15294330000E+03 0.  0.
<mgrwt>
<rscale>  0 0.67201070E+03</rscale>
<asrwt>0</asrwt>
<pdfrwt beam="1">  1        2 0.47062932E-01 0.77557652E+03</pdfrwt>
<pdfrwt beam="2">  1       -2 0.30381206E+00 0.77557652E+03</pdfrwt>
<totfact> 0.33553476E+00</totfact>
</mgrwt>
</event>
<event>
 4    1  0.7265468E-008  0.1031023E+04  0.7818608E-02  0.9342050E-01
         -2   -1    0    0    0  501 -0.00000000000E+00  0.00000000000E+00  0.17031015571E+04  0.17031015571E+04  0.25500000000E-02 0.  1.
          2   -1    0    0  501    0  0.00000000000E+00 -0.00000000000E+00 -0.18547565349E+04  0.18547565349E+04  0.25500000000E-02 0. -1.
    8880023    1    1    2    0    0 -0.56285708217E+03 -0.55891926362E+03 -0.15976871679E+04  0.19014766185E+04  0.65864270000E+03 0. -1.
    8880022    1    1    2    0    0  0.56285708217E+03  0.55891926362E+03  0.14460321900E+04  0.16563814735E+04  0.15294330000E+03 0.  0.
<mgrwt>
<rscale>  0 0.97002171E+03</rscale>
<asrwt>0</asrwt>
<pdfrwt beam="1">  1        2 0.28534716E+00 0.10310233E+04</pdfrwt>
<pdfrwt beam="2">  1       -2 0.26201563E+00 0.10310233E+04</pdfrwt>
<totfact> 0.43539414E-01</totfact>
</mgrwt>
</event>
<event>
 4    1  0.6502538E-008  0.7972702E+03  0.7818608E-02  0.9716730E-01
          2   -1    0    0  501    0  0.00000000000E+00  0.00000000000E+00  0.36912644011E+04  0.36912644011E+04  0.25500000000E-02 0. -1.
         -2   -1    0    0    0  501 -0.00000000000E+00 -0.00000000000E+00 -0.25612029374E+03  0.25612029375E+03  0.25500000000E-02 0.  1.
    8880023    1    1    2    0    0  0.24806165801E+03  0.37455962281E+03  0.33763235810E+04  0.34691786675E+04  0.65864270000E+03 0.  0.
    8880022    1    1    2    0    0 -0.24806165801E+03 -0.37455962281E+03  0.58820526311E+02  0.47820602729E+03  0.15294330000E+03 0.  0.
<mgrwt>
<rscale>  0 0.70029379E+03</rscale>
<asrwt>0</asrwt>
<pdfrwt beam="1">  1        2 0.56788682E+00 0.79727016E+03</pdfrwt>
<pdfrwt beam="2">  1       -2 0.39403123E-01 0.79727016E+03</pdfrwt>
<totfact> 0.39038964E+00</totfact>
</mgrwt>
</event>
<event>
 4    1  0.6502538E-008  0.1032172E+04  0.7818608E-02  0.9340626E-01
          2   -1    0    0  501    0  0.00000000000E+00  0.00000000000E+00  0.63109534662E+03  0.63109534662E+03  0.25500000000E-02 0. -1.
         -2   -1    0    0    0  501 -0.00000000000E+00 -0.00000000000E+00 -0.23562190587E+04  0.23562190587E+04  0.25500000000E-02 0.  1.
    8880023    1    1    2    0    0 -0.74398693866E+03 -0.27938003139E+03  0.53154172979E+02  0.10335401972E+04  0.65864270000E+03 0. -1.
    8880022    1    1    2    0    0  0.74398693866E+03  0.27938003139E+03 -0.17782778851E+04  0.19537742081E+04  0.15294330000E+03 0.  0.
<mgrwt>
<rscale>  0 0.97127266E+03</rscale>
<asrwt>0</asrwt>
<pdfrwt beam="1">  1        2 0.97091593E-01 0.10321725E+04</pdfrwt>
<pdfrwt beam="2">  1       -2 0.36249523E+00 0.10321725E+04</pdfrwt>
<totfact> 0.61081187E-01</totfact>
</mgrwt>
</event>
<event>
 4    1  0.6502538E-008  0.8684836E+03  0.7818608E-02  0.9578647E-01
          2   -1    0    0  501    0  0.00000000000E+00  0.00000000000E+00  0.27677137749E+04  0.27677137749E+04  0.25500000000E-02 0. -1.
         -2   -1    0    0    0  501 -0.00000000000E+00 -0.00000000000E+00 -0.27760434124E+03  0.27760434125E+03  0.25500000000E-02 0.  1.
    8880023    1    1    2    0    0  0.37573294023E+03  0.42341263814E+03  0.22497885190E+04  0.24115994881E+04  0.65864270000E+03 0.  1.
    8880022    1    1    2    0    0 -0.37573294023E+03 -0.42341263814E+03  0.24032091467E+03  0.63371862806E+03  0.15294330000E+03 0.  0.
<mgrwt>
<rscale>  0 0.78725707E+03</rscale>
<asrwt>0</asrwt>
<pdfrwt beam="1">  1        2 0.42580211E+00 0.86848357E+03</pdfrwt>
<pdfrwt beam="2">  1       -2 0.42708361E-01 0.86848357E+03</pdfrwt>
<totfact> 0.13018546E+01</totfact>
</mgrwt>
</event>
<event>
 4    1  0.6502538E-008  0.1118377E+04  0.7818608E-02  0.9240866E-01
         -2   -1    0    0    0  501 -0.00000000000E+00  0.00000000000E+00  0.71135962745E+03  0.71135962745E+03  0.25500000000E-02 0.  1.
          2   -1    0    0  501    0  0.00000000000E+00 -0.00000000000E+00 -0.23319547663E+04  0.23319547663E+04  0.25500000000E-02 0. -1.
    8880023    1    1    2    0    0  0.63997597579E+03 -0.63826964093E+03 -0.17904191484E+04  0.21110112073E+04  0.65864270000E+03 0. -1.
    8880022    1    1    2    0    0 -0.63997597579E+03  0.63826964093E+03  0.16982400960E+03  0.93230318640E+03  0.15294330000E+03 0.  0.
<mgrwt>
<rscale>  0 0.10641398E+04</rscale>
<asrwt>0</asrwt>
<pdfrwt beam="1">  1        2 0.35876227E+00 0.11183772E+04</pdfrwt>
<pdfrwt beam="2">  1       -2 0.10943994E+00 0.11183772E+04</pdfrwt>
<totfact> 0.28623085E+00</totfact>
</mgrwt>
</event>
<event>
 4    1  0.6502538E-008  0.9569906E+03  0.7818608E-02  0.9440127E-01
         -2   -1    0    0    0  501 -0.00000000000E+00  0.00000000000E+00  0.10570562567E+04  0.10570562568E+04  0.25500000000E-02 0.  1.
          2   -1    0    0  501    0  0.00000000000E+00 -0.00000000000E+00 -0.67800744648E+03  0.67800744649E+03  0.25500000000E-02 0. -1.
    8880023    1    1    2    0    0  0.65426568302E+03  0.23228692583E+03  0.36430585967E+03  0.10239871901E+04  0.65864270000E+03 0.  1.
    8880022    1    1    2    0    0 -0.65426568302E+03 -0.23228692583E+03  0.14742950592E+02  0.71107651311E+03  0.15294330000E+03 0. -1.
<mgrwt>
<rscale>  0 0.88845717E+03</rscale>
<asrwt>0</asrwt>
<pdfrwt beam="1">  1        2 0.10430884E+00 0.95699060E+03</pdfrwt>
<pdfrwt beam="2">  1       -2 0.16262404E+00 0.95699060E+03</pdfrwt>
<totfact> 0.10238447E+01</totfact>
</mgrwt>
</event>
<event>
 4    1  0.6502538E-008  0.6635365E+03  0.7818608E-02  0.1020794E+00
          2   -1    0    0  501    0  0.00000000000E+00  0.00000000000E+00  0.30575429194E+04  0.30575429194E+04  0.25500000000E-02 0. -1.
         -2   -1    0    0    0  501 -0.00000000000E+00 -0.00000000000E+00 -0.99918370664E+02  0.99918370696E+02  0.25500000000E-02 0.  1.
    8880023    1    1    2    0    0 -0.80296166817E+02  0.47906132603E+01  0.29005426792E+04  0.29754711332E+04  0.65864270000E+03 0. -1.
    8880022    1    1    2    0    0  0.80296166817E+02 -0.47906132603E+01  0.57081869609E+02  0.18199015697E+03  0.15294330000E+03 0.  0.
<mgrwt>
<rscale>  0 0.47401119E+03</rscale>
<asrwt>0</asrwt>
<pdfrwt beam="1">  1        2 0.47039117E+00 0.66353646E+03</pdfrwt>
<pdfrwt beam="2">  1       -2 0.15372059E-01 0.66353646E+03</pdfrwt>
<totfact> 0.57672049E+01</totfact>
</mgrwt>
</event>
<event>
 4    1  0.6502538E-008  0.8765672E+03  0.7818608E-02  0.9564747E-01
         -2   -1    0    0    0  501 -0.00000000000E+00  0.00000000000E+00  0.17195103680E+03  0.17195103682E+03  0.25500000000E-02 0.  1.
          2   -1    0    0  501    0  0.00000000000E+00 -0.00000000000E+00 -0.31870100790E+04  0.31870100790E+04  0.25500000000E-02 0. -1.
    8880023    1    1    2    0    0  0.33832687526E+03 -0.46914264623E+03 -0.16452336525E+04  0.18641791423E+04  0.65864270000E+03 0. -1.
    8880022    1    1    2    0    0 -0.33832687526E+03  0.46914264623E+03 -0.13698253896E+04  0.14947819734E+04  0.15294330000E+03 0.  1.
<mgrwt>
<rscale>  0 0.79674061E+03</rscale>
<asrwt>0</asrwt>
<pdfrwt beam="1">  1        2 0.49030920E+00 0.87656723E+03</pdfrwt>
<pdfrwt beam="2">  1       -2 0.26454008E-01 0.87656723E+03</pdfrwt>
<totfact> 0.17863072E+01</totfact>
</mgrwt>
</event>
<event>
 4    1  0.6502538E-008  0.9064638E+03  0.7818608E-02  0.9515734E-01
          2   -1    0    0  501    0  0.00000000000E+00  0.00000000000E+00  0.19772109604E+04  0.19772109604E+04  0.25500000000E-02 0. -1.
         -2   -1    0    0    0  501 -0.00000000000E+00 -0.00000000000E+00 -0.42680993648E+03  0.42680993648E+03  0.25500000000E-02 0.  1.
    8880023    1    1    2    0    0  0.45383229161E+03  0.42650051846E+03  0.15103388504E+04  0.17614766790E+04  0.65864270000E+03 0.  0.
    8880022    1    1    2    0    0 -0.45383229161E+03 -0.42650051846E+03  0.40062173437E+02  0.64254421786E+03  0.15294330000E+03 0.  0.
<mgrwt>
<rscale>  0 0.83133710E+03</rscale>
<asrwt>0</asrwt>
<pdfrwt beam="1">  1        2 0.30418629E+00 0.90646381E+03</pdfrwt>
<pdfrwt beam="2">  1       -2 0.65663069E-01 0.90646381E+03</pdfrwt>
<totfact> 0.14891433E+01</totfact>
</mgrwt>
</event>
<event>
 4    1  0.6502538E-008  0.8154332E+03  0.7818608E-02  0.9678369E-01
          2   -1    0    0  501    0  0.00000000000E+00  0.00000000000E+00  0.20338980647E+04  0.20338980647E+04  0.25500000000E-02 0. -1.
         -2   -1    0    0    0  501 -0.00000000000E+00 -0.00000000000E+00 -0.26142393991E+03  0.26142393992E+03  0.25500000000E-02 0.  1.
    8880023    1    1    2    0    0 -0.42427976416E+03  0.22607045465E+03  0.58042083229E+03  0.10009094452E+04  0.65864270000E+03 0.  0.
    8880022    1    1    2    0    0  0.42427976416E+03 -0.22607045465E+03  0.11920532925E+04  0.12944125594E+04  0.15294330000E+03 0.  0.
<mgrwt>
<rscale>  0 0.72319434E+03</rscale>
<asrwt>0</asrwt>
<pdfrwt beam="1">  1        2 0.31290739E+00 0.81543324E+03</pdfrwt>
<pdfrwt beam="2">  1       -2 0.40219068E-01 0.81543324E+03</pdfrwt>
<totfact> 0.38323172E+01</totfact>
</mgrwt>
</event>
<event>
 4    1  0.6502538E-008  0.1152672E+04  0.7818608E-02  0.9204561E-01
          2   -1    0    0  501    0  0.00000000000E+00  0.00000000000E+00  0.14084129479E+04  0.14084129479E+04  0.25500000000E-02 0. -1.
         -2   -1    0    0    0  501 -0.00000000000E+00 -0.00000000000E+00 -0.11413781036E+04  0.11413781036E+04  0.25500000000E-02 0.  1.
    8880023    1    1    2    0    0 -0.32896393975E+03  0.88691842651E+03  0.84636838377E+03  0.14300318934E+04  0.65864270000E+03 0. -1.
    8880022    1    1    2    0    0  0.32896393975E+03 -0.88691842651E+03 -0.57933353945E+03  0.11197591580E+04  0.15294330000E+03 0.  0.
<mgrwt>
<rscale>  0 0.11006477E+04</rscale>
<asrwt>0</asrwt>
<pdfrwt beam="1">  1        2 0.21667891E+00 0.11526716E+04</pdfrwt>
<pdfrwt beam="2">  1       -2 0.17559663E+00 0.11526716E+04</pdfrwt>
<totfact> 0.27162867E+00</totfact>
</mgrwt>
</event>
<event>
 4    1  0.6502538E-008  0.1050347E+04  0.7818608E-02  0.9318464E-01
          2   -1    0    0  501    0  0.00000000000E+00  0.00000000000E+00  0.23223034662E+04  0.23223034662E+04  0.25500000000E-02 0. -1.
         -2   -1    0    0    0  501 -0.00000000000E+00 -0.00000000000E+00 -0.62692557729E+03  0.62692557730E+03  0.25500000000E-02 0.  1.
    8880023    1    1    2    0    0  0.55908216842E+03 -0.59736607737E+03  0.18261475529E+04  0.21066666069E+04  0.65864270000E+03 0.  0.
    8880022    1    1    2    0    0 -0.55908216842E+03  0.59736607737E+03 -0.13076966405E+03  0.84256243654E+03  0.15294330000E+03 0.  0.
<mgrwt>
<rscale>  0 0.99100649E+03</rscale>
<asrwt>0</asrwt>
<pdfrwt beam="1">  1        2 0.35727746E+00 0.10503472E+04</pdfrwt>
<pdfrwt beam="2">  1       -2 0.96450088E-01 0.10503472E+04</pdfrwt>
<totfact> 0.39573101E+00</totfact>
</mgrwt>
</event>
<event>
 4    1  0.6502538E-008  0.1842740E+04  0.7818608E-02  0.8699255E-01
         -2   -1    0    0    0  501 -0.00000000000E+00  0.00000000000E+00  0.93020077751E+03  0.93020077752E+03  0.25500000000E-02 0.  1.
          2   -1    0    0  501    0  0.00000000000E+00 -0.00000000000E+00 -0.38203398881E+04  0.38203398881E+04  0.25500000000E-02 0. -1.
    8880023    1    1    2    0    0 -0.57756223737E+03  0.16212045061E+04 -0.22492413921E+04  0.29077103079E+04  0.65864270000E+03 0.  0.
    8880022    1    1    2    0    0  0.57756223737E+03 -0.16212045061E+04 -0.64089771850E+03  0.18428303577E+04  0.15294330000E+03 0.  0.
<mgrwt>
<rscale>  0 0.18133062E+04</rscale>
<asrwt>0</asrwt>
<pdfrwt beam="1">  1        2 0.58774459E+00 0.18427405E+04</pdfrwt>
<pdfrwt beam="2">  1       -2 0.14310781E+00 0.18427405E+04</pdfrwt>
<totfact> 0.14791432E-01</totfact>
</mgrwt>
</event>
<event>
 4    1  0.6502538E-008  0.1133219E+04  0.7818608E-02  0.9224942E-01
         -2   -1    0    0    0  501 -0.00000000000E+00  0.00000000000E+00  0.64840960158E+03  0.64840960159E+03  0.25500000000E-02 0.  1.
          2   -1    0    0  501    0  0.00000000000E+00 -0.00000000000E+00 -0.22421000243E+04  0.22421000243E+04  0.25500000000E-02 0. -1.
    8880023    1    1    2    0    0 -0.57903135248E+03  0.71770376850E+03 -0.15939850044E+04  0.19557541785E+04  0.65864270000E+03 0. -1.
    8880022    1    1    2    0    0  0.57903135248E+03 -0.71770376850E+03  0.29458168628E+00  0.93475544731E+03  0.15294330000E+03 0.  0.
<mgrwt>
<rscale>  0 0.10799658E+04</rscale>
<asrwt>0</asrwt>
<pdfrwt beam="1">  1        2 0.34493846E+00 0.11332194E+04</pdfrwt>
<pdfrwt beam="2">  1       -2 0.99755324E-01 0.11332194E+04</pdfrwt>
<totfact> 0.40132579E+00</totfact>
</mgrwt>
</event>
<event>
 4    1  0.6502538E-008  0.1408950E+04  0.7818608E-02  0.8976760E-01
          2   -1    0    0  501    0  0.00000000000E+00  0.00000000000E+00  0.23910259433E+04  0.23910259433E+04  0.25500000000E-02 0. -1.
         -2   -1    0    0    0  501 -0.00000000000E+00 -0.00000000000E+00 -0.93215330531E+03  0.93215330531E+03  0.25500000000E-02 0.  1.
    8880023    1    1    2    0    0  0.69273001450E+03 -0.10351106818E+04  0.15126046130E+04  0.20671506762E+04  0.65864270000E+03 0. -1.
    8880022    1    1    2    0    0 -0.69273001450E+03  0.10351106818E+04 -0.53731975029E+02  0.12560285724E+04  0.15294330000E+03 0.  0.
<mgrwt>
<rscale>  0 0.13687434E+04</rscale>
<asrwt>0</asrwt>
<pdfrwt beam="1">  1        2 0.36785014E+00 0.14089497E+04</pdfrwt>
<pdfrwt beam="2">  1       -2 0.14340820E+00 0.14089497E+04</pdfrwt>
<totfact> 0.12949004E+00</totfact>
</mgrwt>
</event>
<event>
 4    1  0.6502538E-008  0.1141040E+04  0.7818608E-02  0.9216683E-01
          2   -1    0    0  501    0  0.00000000000E+00  0.00000000000E+00  0.19972570787E+04  0.19972570787E+04  0.25500000000E-02 0. -1.
         -2   -1    0    0    0  501 -0.00000000000E+00 -0.00000000000E+00 -0.75259188443E+03  0.75259188443E+03  0.25500000000E-02 0.  1.
    8880023    1    1    2    0    0 -0.70488416157E+02 -0.92908148398E+03  0.13858333228E+04  0.17951337626E+04  0.65864270000E+03 0.  0.
    8880022    1    1    2    0    0  0.70488416157E+02  0.92908148398E+03 -0.14116812851E+03  0.95471520057E+03  0.15294330000E+03 0.  0.
<mgrwt>
<rscale>  0 0.10882881E+04</rscale>
<asrwt>0</asrwt>
<pdfrwt beam="1">  1        2 0.30727031E+00 0.11410395E+04</pdfrwt>
<pdfrwt beam="2">  1       -2 0.11578337E+00 0.11410395E+04</pdfrwt>
<totfact> 0.38221387E+00</totfact>
</mgrwt>
</event>
<event>
 4    1  0.6502538E-008  0.7840719E+03  0.7818608E-02  0.9746358E-01
         -2   -1    0    0    0  501 -0.00000000000E+00  0.00000000000E+00  0.20892580491E+03  0.20892580492E+03  0.25500000000E-02 0.  1.
          2   -1    0    0  501    0  0.00000000000E+00 -0.00000000000E+00 -0.29468281457E+04  0.29468281457E+04  0.25500000000E-02 0. -1.
    8880023    1    1    2    0    0  0.20502508717E+03  0.37272400490E+03 -0.25471638485E+04  0.26651101943E+04  0.65864270000E+03 0. -1.
    8880022    1    1    2    0    0 -0.20502508717E+03 -0.37272400490E+03 -0.19073849229E+03  0.49064375636E+03  0.15294330000E+03 0.  0.
<mgrwt>
<rscale>  0 0.68322502E+03</rscale>
<asrwt>0</asrwt>
<pdfrwt beam="1">  1        2 0.45335814E+00 0.78407186E+03</pdfrwt>
<pdfrwt beam="2">  1       -2 0.32142434E-01 0.78407186E+03</pdfrwt>
<totfact> 0.17816566E+01</totfact>
</mgrwt>
</event>
<event>
 4    1  0.6502538E-008  0.6987403E+03  0.7818608E-02  0.1000247E+00
         -2   -1    0    0    0  501 -0.00000000000E+00  0.00000000000E+00  0.20350995095E+03  0.20350995097E+03  0.25500000000E-02 0.  1.
          2   -1    0    0  501    0  0.00000000000E+00 -0.00000000000E+00 -0.13903728173E+04  0.13903728173E+04  0.25500000000E-02 0. -1.
    8880023    1    1    2    0    0 -0.19506309686E+03  0.12797753707E+03 -0.10973186100E+04  0.13009020716E+04  0.65864270000E+03 0. -1.
    8880022    1    1    2    0    0  0.19506309686E+03 -0.12797753707E+03 -0.89544256306E+02  0.29298069664E+03  0.15294330000E+03 0.  1.
<mgrwt>
<rscale>  0 0.55542181E+03</rscale>
<asrwt>0</asrwt>
<pdfrwt beam="1">  1        2 0.21390350E+00 0.69874034E+03</pdfrwt>
<pdfrwt beam="2">  1       -2 0.31309224E-01 0.69874034E+03</pdfrwt>
<totfact> 0.14138396E+02</totfact>
</mgrwt>
</event>
<event>
 4    1  0.6502538E-008  0.8342630E+03  0.7818608E-02  0.9641094E-01
          2   -1    0    0  501    0  0.00000000000E+00  0.00000000000E+00  0.12932883476E+04  0.12932883476E+04  0.25500000000E-02 0. -1.
         -2   -1    0    0    0  501 -0.00000000000E+00 -0.00000000000E+00 -0.74487585718E+03  0.74487585718E+03  0.25500000000E-02 0.  1.
    8880023    1    1    2    0    0  0.49320369887E+03 -0.13760298822E+03  0.10253662218E+04  0.13218814493E+04  0.65864270000E+03 0.  0.
    8880022    1    1    2    0    0 -0.49320369887E+03  0.13760298822E+03 -0.47695373136E+03  0.71628275550E+03  0.15294330000E+03 0.  0.
<mgrwt>
<rscale>  0 0.74634986E+03</rscale>
<asrwt>0</asrwt>
<pdfrwt beam="1">  1        2 0.19896744E+00 0.83426295E+03</pdfrwt>
<pdfrwt beam="2">  1       -2 0.11459629E+00 0.83426295E+03</pdfrwt>
<totfact> 0.10027608E+01</totfact>
</mgrwt>
</event>
<event>
 4    1  0.6502538E-008  0.1131516E+04  0.7818608E-02  0.9226752E-01
         -2   -1    0    0    0  501 -0.00000000000E+00  0.00000000000E+00  0.10102328933E+04  0.10102328933E+04  0.25500000000E-02 0.  1.
          2   -1    0    0  501    0  0.00000000000E+00 -0.00000000000E+00 -0.24694569933E+04  0.24694569933E+04  0.25500000000E-02 0. -1.
    8880023    1    1    2    0    0  0.88549447981E+03 -0.24983730014E+03 -0.20740201548E+04  0.23626021584E+04  0.65864270000E+03 0.  1.
    8880022    1    1    2    0    0 -0.88549447981E+03  0.24983730014E+03  0.61479605483E+03  0.11170877281E+04  0.15294330000E+03 0.  0.
<mgrwt>
<rscale>  0 0.10781520E+04</rscale>
<asrwt>0</asrwt>
<pdfrwt beam="1">  1        2 0.37991646E+00 0.11315164E+04</pdfrwt>
<pdfrwt beam="2">  1       -2 0.15542045E+00 0.11315164E+04</pdfrwt>
<totfact> 0.97427213E-01</totfact>
</mgrwt>
</event>
<event>
 4    1  0.6502538E-008  0.1049734E+04  0.7818608E-02  0.9319201E-01
         -2   -1    0    0    0  501 -0.00000000000E+00  0.00000000000E+00  0.16013660602E+04  0.16013660602E+04  0.25500000000E-02 0.  1.
          2   -1    0    0  501    0  0.00000000000E+00 -0.00000000000E+00 -0.11455271408E+04  0.11455271408E+04  0.25500000000E-02 0. -1.
    8880023    1    1    2    0    0 -0.79893105859E+03 -0.17274279720E+03 -0.74428470625E+03  0.12868181070E+04  0.65864270000E+03 0. -1.
    8880022    1    1    2    0    0  0.79893105859E+03  0.17274279720E+03  0.12001236257E+04  0.14600750940E+04  0.15294330000E+03 0.  0.
<mgrwt>
<rscale>  0 0.99034198E+03</rscale>
<asrwt>0</asrwt>
<pdfrwt beam="1">  1        2 0.17623495E+00 0.10497338E+04</pdfrwt>
<pdfrwt beam="2">  1       -2 0.24636401E+00 0.10497338E+04</pdfrwt>
<totfact> 0.13685188E+00</totfact>
</mgrwt>
</event>
<event>
 4    1  0.6502538E-008  0.7706281E+03  0.7818608E-02  0.9778331E-01
         -2   -1    0    0    0  501 -0.00000000000E+00  0.00000000000E+00  0.75553267034E+03  0.75553267035E+03  0.25500000000E-02 0.  1.
          2   -1    0    0  501    0  0.00000000000E+00 -0.00000000000E+00 -0.98282568389E+03  0.98282568389E+03  0.25500000000E-02 0. -1.
    8880023    1    1    2    0    0 -0.39222624686E+03 -0.78841477023E+02 -0.74129620951E+03  0.10692930766E+04  0.65864270000E+03 0.  0.
    8880022    1    1    2    0    0  0.39222624686E+03  0.78841477023E+02  0.51400319597E+03  0.66906527761E+03  0.15294330000E+03 0.  0.
<mgrwt>
<rscale>  0 0.66538507E+03</rscale>
<asrwt>0</asrwt>
<pdfrwt beam="1">  1        2 0.15120395E+00 0.77062806E+03</pdfrwt>
<pdfrwt beam="2">  1       -2 0.11623580E+00 0.77062806E+03</pdfrwt>
<totfact> 0.15056593E+01</totfact>
</mgrwt>
</event>
<event>
 4    1  0.6502538E-008  0.7818877E+03  0.7818608E-02  0.9751421E-01
          2   -1    0    0  501    0  0.00000000000E+00  0.00000000000E+00  0.12012737634E+04  0.12012737634E+04  0.25500000000E-02 0. -1.
         -2   -1    0    0    0  501 -0.00000000000E+00 -0.00000000000E+00 -0.63407580107E+03  0.63407580107E+03  0.25500000000E-02 0.  1.
    8880023    1    1    2    0    0  0.41623041171E+03 -0.65501396426E+02  0.96085055975E+03  0.12387825447E+04  0.65864270000E+03 0. -1.
    8880022    1    1    2    0    0 -0.41623041171E+03  0.65501396426E+02 -0.39365259746E+03  0.59656701976E+03  0.15294330000E+03 0.  0.
<mgrwt>
<rscale>  0 0.68036012E+03</rscale>
<asrwt>0</asrwt>
<pdfrwt beam="1">  1        2 0.18481135E+00 0.78188771E+03</pdfrwt>
<pdfrwt beam="2">  1       -2 0.97550125E-01 0.78188771E+03</pdfrwt>
<totfact> 0.16818841E+01</totfact>
</mgrwt>
</event>
<event>
 4    1  0.6502538E-008  0.1237333E+04  0.7818608E-02  0.9121660E-01
          2   -1    0    0  501    0  0.00000000000E+00  0.00000000000E+00  0.24602980750E+04  0.24602980750E+04  0.25500000000E-02 0. -1.
         -2   -1    0    0    0  501 -0.00000000000E+00 -0.00000000000E+00 -0.85986009572E+03  0.85986009573E+03  0.25500000000E-02 0.  1.
    8880023    1    1    2    0    0  0.60341445259E+03 -0.85619710504E+03 -0.17844519162E+03  0.12501341436E+04  0.65864270000E+03 0.  0.
    8880022    1    1    2    0    0 -0.60341445259E+03  0.85619710504E+03  0.17788831709E+04  0.20700240272E+04  0.15294330000E+03 0.  0.
<mgrwt>
<rscale>  0 0.11899946E+04</rscale>
<asrwt>0</asrwt>
<pdfrwt beam="1">  1        2 0.37850740E+00 0.12373329E+04</pdfrwt>
<pdfrwt beam="2">  1       -2 0.13228617E+00 0.12373329E+04</pdfrwt>
<totfact> 0.14860530E+00</totfact>
</mgrwt>
</event>
<event>
 4    1  0.6502538E-008  0.8425428E+03  0.7818608E-02  0.9625404E-01
          2   -1    0    0  501    0  0.00000000000E+00  0.00000000000E+00  0.27716425472E+04  0.27716425473E+04  0.25500000000E-02 0. -1.
         -2   -1    0    0    0  501 -0.00000000000E+00 -0.00000000000E+00 -0.72061385396E+03  0.72061385397E+03  0.25500000000E-02 0.  1.
    8880023    1    1    2    0    0  0.41249404433E+02 -0.52380023784E+03  0.25903496101E+04  0.27239290577E+04  0.65864270000E+03 0. -1.
    8880022    1    1    2    0    0 -0.41249404433E+02  0.52380023784E+03 -0.53932091680E+03  0.76832734354E+03  0.15294330000E+03 0.  0.
<mgrwt>
<rscale>  0 0.75637352E+03</rscale>
<asrwt>0</asrwt>
<pdfrwt beam="1">  1        2 0.42640654E+00 0.84254282E+03</pdfrwt>
<pdfrwt beam="2">  1       -2 0.11086367E+00 0.84254282E+03</pdfrwt>
<totfact> 0.16136899E+00</totfact>
</mgrwt>
</event>
<event>
 4    1  0.6502538E-008  0.2046308E+04  0.7818608E-02  0.8597285E-01
          2   -1    0    0  501    0  0.00000000000E+00  0.00000000000E+00  0.46649632070E+04  0.46649632070E+04  0.25500000000E-02 0. -1.
         -2   -1    0    0    0  501 -0.00000000000E+00 -0.00000000000E+00 -0.99708042162E+03  0.99708042163E+03  0.25500000000E-02 0.  1.
    8880023    1    1    2    0    0  0.19027822649E+04  0.36467027932E+03  0.29500143885E+04  0.35902590239E+04  0.65864270000E+03 0.  0.
    8880022    1    1    2    0    0 -0.19027822649E+04 -0.36467027932E+03  0.71786839687E+03  0.20717846047E+04  0.15294330000E+03 0.  0.
<mgrwt>
<rscale>  0 0.20200910E+04</rscale>
<asrwt>0</asrwt>
<pdfrwt beam="1">  1        2 0.71768665E+00 0.20463076E+04</pdfrwt>
<pdfrwt beam="2">  1       -2 0.15339699E+00 0.20463076E+04</pdfrwt>
<totfact> 0.21366452E-02</totfact>
</mgrwt>
</event>
<event>
 4    1  0.6502538E-008  0.6863766E+03  0.7818608E-02  0.1005925E+00
          2   -1    0    0  501    0  0.00000000000E+00  0.00000000000E+00  0.16930412229E+04  0.16930412229E+04  0.25500000000E-02 0. -1.
         -2   -1    0    0    0  501 -0.00000000000E+00 -0.00000000000E+00 -0.47981919722E+03  0.47981919723E+03  0.25500000000E-02 0.  1.
    8880023    1    1    2    0    0  0.13048246475E+02 -0.19269773996E+03  0.15847883676E+04  0.17270399683E+04  0.65864270000E+03 0. -1.
    8880022    1    1    2    0    0 -0.13048246475E+02  0.19269773996E+03 -0.37156634198E+03  0.44582045179E+03  0.15294330000E+03 0.  0.
<mgrwt>
<rscale>  0 0.53127011E+03</rscale>
<asrwt>0</asrwt>
<pdfrwt beam="1">  1        2 0.26046788E+00 0.68637663E+03</pdfrwt>
<pdfrwt beam="2">  1       -2 0.73818338E-01 0.68637663E+03</pdfrwt>
<totfact> 0.16970959E+01</totfact>
</mgrwt>
</event>
<event>
 4    1  0.6502538E-008  0.1129379E+04  0.7818608E-02  0.9229030E-01
         -2   -1    0    0    0  501 -0.00000000000E+00  0.00000000000E+00  0.15138948548E+04  0.15138948548E+04  0.25500000000E-02 0.  1.
          2   -1    0    0  501    0  0.00000000000E+00 -0.00000000000E+00 -0.28569052451E+04  0.28569052451E+04  0.25500000000E-02 0. -1.
    8880023    1    1    2    0    0  0.83666195834E+03  0.37640954441E+03 -0.25839553428E+04  0.28199863116E+04  0.65864270000E+03 0.  0.
    8880022    1    1    2    0    0 -0.83666195834E+03 -0.37640954441E+03  0.12409449526E+04  0.15508137883E+04  0.15294330000E+03 0.  0.
<mgrwt>
<rscale>  0 0.10758751E+04</rscale>
<asrwt>0</asrwt>
<pdfrwt beam="1">  1        2 0.43952388E+00 0.11293793E+04</pdfrwt>
<pdfrwt beam="2">  1       -2 0.23290690E+00 0.11293793E+04</pdfrwt>
<totfact> 0.17385406E-01</totfact>
</mgrwt>
</event>
<event>
 4    1  0.6502538E-008  0.7223755E+03  0.7818608E-02  0.9914629E-01
         -2   -1    0    0    0  501 -0.00000000000E+00  0.00000000000E+00  0.24782072427E+03  0.24782072428E+03  0.25500000000E-02 0.  1.
          2   -1    0    0  501    0  0.00000000000E+00 -0.00000000000E+00 -0.20890984313E+04  0.20890984313E+04  0.25500000000E-02 0. -1.
    8880023    1    1    2    0    0  0.29580514689E+03 -0.22703280400E+02 -0.18672708308E+04  0.20021305367E+04  0.65864270000E+03 0. -1.
    8880022    1    1    2    0    0 -0.29580514689E+03  0.22703280400E+02  0.25993123794E+02  0.33478861893E+03  0.15294330000E+03 0.  0.
<mgrwt>
<rscale>  0 0.59557531E+03</rscale>
<asrwt>0</asrwt>
<pdfrwt beam="1">  1        2 0.32139975E+00 0.72237548E+03</pdfrwt>
<pdfrwt beam="2">  1       -2 0.38126267E-01 0.72237548E+03</pdfrwt>
<totfact> 0.40115980E+01</totfact>
</mgrwt>
</event>
<event>
 4    1  0.6502538E-008  0.7984023E+03  0.7818608E-02  0.9714261E-01
         -2   -1    0    0    0  501 -0.00000000000E+00  0.00000000000E+00  0.34204764131E+03  0.34204764132E+03  0.25500000000E-02 0.  1.
          2   -1    0    0  501    0  0.00000000000E+00 -0.00000000000E+00 -0.13300291907E+04  0.13300291907E+04  0.25500000000E-02 0. -1.
    8880023    1    1    2    0    0  0.13741588134E+03  0.42982899950E+03 -0.87078117246E+03  0.11814000803E+04  0.65864270000E+03 0. -1.
    8880022    1    1    2    0    0 -0.13741588134E+03 -0.42982899950E+03 -0.11720037692E+03  0.49067675166E+03  0.15294330000E+03 0.  1.
<mgrwt>
<rscale>  0 0.70173998E+03</rscale>
<asrwt>0</asrwt>
<pdfrwt beam="1">  1        2 0.20461987E+00 0.79840234E+03</pdfrwt>
<pdfrwt beam="2">  1       -2 0.52622715E-01 0.79840234E+03</pdfrwt>
<totfact> 0.54882926E+01</totfact>
</mgrwt>
</event>
<event>
 4    1  0.6502538E-008  0.8804410E+03  0.7818608E-02  0.9558189E-01
          2   -1    0    0  501    0  0.00000000000E+00  0.00000000000E+00  0.17374822517E+04  0.17374822517E+04  0.25500000000E-02 0. -1.
         -2   -1    0    0    0  501 -0.00000000000E+00 -0.00000000000E+00 -0.38717865691E+03  0.38717865692E+03  0.25500000000E-02 0.  1.
    8880023    1    1    2    0    0  0.22711075443E+03  0.53831853223E+03  0.12238015486E+04  0.15076029230E+04  0.65864270000E+03 0.  0.
    8880022    1    1    2    0    0 -0.22711075443E+03 -0.53831853223E+03  0.12650204625E+03  0.61705798564E+03  0.15294330000E+03 0.  0.
<mgrwt>
<rscale>  0 0.80126424E+03</rscale>
<asrwt>0</asrwt>
<pdfrwt beam="1">  1        2 0.26730496E+00 0.88044099E+03</pdfrwt>
<pdfrwt beam="2">  1       -2 0.59565947E-01 0.88044099E+03</pdfrwt>
<totfact> 0.24892254E+01</totfact>
</mgrwt>
</event>
<event>
 4    1  0.6502538E-008  0.8066084E+03  0.7818608E-02  0.9696685E-01
          2   -1    0    0  501    0  0.00000000000E+00  0.00000000000E+00  0.45541746738E+03  0.45541746739E+03  0.25500000000E-02 0. -1.
         -2   -1    0    0    0  501 -0.00000000000E+00 -0.00000000000E+00 -0.13023003022E+04  0.13023003022E+04  0.25500000000E-02 0.  1.
    8880023    1    1    2    0    0  0.26443225678E+03  0.38325253180E+03 -0.32534470067E+02  0.80726428111E+03  0.65864270000E+03 0.  0.
    8880022    1    1    2    0    0 -0.26443225678E+03 -0.38325253180E+03 -0.81434836470E+03  0.95045348843E+03  0.15294330000E+03 0.  0.
<mgrwt>
<rscale>  0 0.71214489E+03</rscale>
<asrwt>0</asrwt>
<pdfrwt beam="1">  1        2 0.70064226E-01 0.80660841E+03</pdfrwt>
<pdfrwt beam="2">  1       -2 0.20035389E+00 0.80660841E+03</pdfrwt>
<totfact> 0.91947526E+00</totfact>
</mgrwt>
</event>
<event>
 4    1  0.6502538E-008  0.7748948E+03  0.7818608E-02  0.9767969E-01
         -2   -1    0    0    0  501 -0.00000000000E+00  0.00000000000E+00  0.37431162759E+03  0.37431162760E+03  0.25500000000E-02 0.  1.
          2   -1    0    0  501    0  0.00000000000E+00 -0.00000000000E+00 -0.30432514029E+04  0.30432514029E+04  0.25500000000E-02 0. -1.
    8880023    1    1    2    0    0 -0.94635359645E+02 -0.39710935356E+03 -0.28440825426E+04  0.29477563341E+04  0.65864270000E+03 0. -1.
    8880022    1    1    2    0    0  0.94635359645E+02  0.39710935356E+03  0.17514276732E+03  0.46980669635E+03  0.15294330000E+03 0.  0.
<mgrwt>
<rscale>  0 0.67110215E+03</rscale>
<asrwt>0</asrwt>
<pdfrwt beam="1">  1        2 0.46819251E+00 0.77489476E+03</pdfrwt>
<pdfrwt beam="2">  1       -2 0.57586406E-01 0.77489476E+03</pdfrwt>
<totfact> 0.49068268E+00</totfact>
</mgrwt>
</event>
<event>
 4    1  0.6502538E-008  0.6665435E+03  0.7818608E-02  0.1018272E+00
         -2   -1    0    0    0  501 -0.00000000000E+00  0.00000000000E+00  0.28606862767E+03  0.28606862769E+03  0.25500000000E-02 0.  1.
          2   -1    0    0  501    0  0.00000000000E+00 -0.00000000000E+00 -0.76842721971E+03  0.76842721971E+03  0.25500000000E-02 0. -1.
    8880023    1    1    2    0    0  0.98507240370E+02  0.27682129855E+02 -0.54407630435E+03  0.86040642021E+03  0.65864270000E+03 0. -1.
    8880022    1    1    2    0    0 -0.98507240370E+02 -0.27682129855E+02  0.61717712315E+02  0.19408942719E+03  0.15294330000E+03 0.  0.
<mgrwt>
<rscale>  0 0.48315317E+03</rscale>
<asrwt>0</asrwt>
<pdfrwt beam="1">  1        2 0.11821957E+00 0.66654346E+03</pdfrwt>
<pdfrwt beam="2">  1       -2 0.44010558E-01 0.66654346E+03</pdfrwt>
<totfact> 0.18049174E+02</totfact>
</mgrwt>
</event>
<event>
 4    1  0.6502538E-008  0.1442670E+04  0.7818608E-02  0.8951217E-01
         -2   -1    0    0    0  501 -0.00000000000E+00  0.00000000000E+00  0.99016835822E+03  0.99016835822E+03  0.25500000000E-02 0.  1.
          2   -1    0    0  501    0  0.00000000000E+00 -0.00000000000E+00 -0.21636000963E+04  0.21636000963E+04  0.25500000000E-02 0. -1.
    8880023    1    1    2    0    0  0.11526597476E+04  0.56467751653E+03 -0.11758209929E+04  0.18611422313E+04  0.65864270000E+03 0.  0.
    8880022    1    1    2    0    0 -0.11526597476E+04 -0.56467751653E+03  0.23892548371E+01  0.12926262232E+04  0.15294330000E+03 0.  0.
<mgrwt>
<rscale>  0 0.14035995E+04</rscale>
<asrwt>0</asrwt>
<pdfrwt beam="1">  1        2 0.33286155E+00 0.14426695E+04</pdfrwt>
<pdfrwt beam="2">  1       -2 0.15233359E+00 0.14426695E+04</pdfrwt>
<totfact> 0.14775905E+00</totfact>
</mgrwt>
</event>
<event>
 4    1  0.6502538E-008  0.7448150E+03  0.7818608E-02  0.9846137E-01
         -2   -1    0    0    0  501 -0.00000000000E+00  0.00000000000E+00  0.72386479208E+03  0.72386479208E+03  0.25500000000E-02 0.  1.
          2   -1    0    0  501    0  0.00000000000E+00 -0.00000000000E+00 -0.94894805595E+03  0.94894805595E+03  0.25500000000E-02 0. -1.
    8880023    1    1    2    0    0  0.63203579691E+02  0.34197136702E+03 -0.72868461383E+03  0.10419839639E+04  0.65864270000E+03 0. -1.
    8880022    1    1    2    0    0 -0.63203579691E+02 -0.34197136702E+03  0.50360134996E+03  0.63082888412E+03  0.15294330000E+03 0.  0.
<mgrwt>
<rscale>  0 0.62944263E+03</rscale>
<asrwt>0</asrwt>
<pdfrwt beam="1">  1        2 0.14599201E+00 0.74481495E+03</pdfrwt>
<pdfrwt beam="2">  1       -2 0.11136381E+00 0.74481495E+03</pdfrwt>
<totfact> 0.17629058E+01</totfact>
</mgrwt>
</event>
<event>
 4    1  0.6502538E-008  0.1792416E+04  0.7818608E-02  0.8726743E-01
         -2   -1    0    0    0  501 -0.00000000000E+00  0.00000000000E+00  0.18168321467E+04  0.18168321467E+04  0.25500000000E-02 0.  1.
          2   -1    0    0  501    0  0.00000000000E+00 -0.00000000000E+00 -0.27592930905E+04  0.27592930905E+04  0.25500000000E-02 0. -1.
    8880023    1    1    2    0    0  0.14844638880E+04 -0.75849306242E+03 -0.19288595549E+04  0.26331073182E+04  0.65864270000E+03 0.  0.
    8880022    1    1    2    0    0 -0.14844638880E+04  0.75849306242E+03  0.98639861108E+03  0.19430179190E+04  0.15294330000E+03 0.  0.
<mgrwt>
<rscale>  0 0.17620537E+04</rscale>
<asrwt>0</asrwt>
<pdfrwt beam="1">  1        2 0.42450663E+00 0.17924160E+04</pdfrwt>
<pdfrwt beam="2">  1       -2 0.27951264E+00 0.17924160E+04</pdfrwt>
<totfact> 0.94007814E-02</totfact>
</mgrwt>
</event>
<event>
 4    1  0.6502538E-008  0.1548532E+04  0.7818608E-02  0.8876105E-01
          2   -1    0    0  501    0  0.00000000000E+00  0.00000000000E+00  0.40904030622E+04  0.40904030622E+04  0.25500000000E-02 0. -1.
         -2   -1    0    0    0  501 -0.00000000000E+00 -0.00000000000E+00 -0.62804977498E+03  0.62804977498E+03  0.25500000000E-02 0.  1.
    8880023    1    1    2    0    0  0.96436185382E+03 -0.10169299434E+04  0.27080813046E+04  0.31195600416E+04  0.65864270000E+03 0.  0.
    8880022    1    1    2    0    0 -0.96436185382E+03  0.10169299434E+04  0.75427198269E+03  0.15988927956E+04  0.15294330000E+03 0.  0.
<mgrwt>
<rscale>  0 0.15126183E+04</rscale>
<asrwt>0</asrwt>
<pdfrwt beam="1">  1        2 0.62929277E+00 0.15485317E+04</pdfrwt>
<pdfrwt beam="2">  1       -2 0.96623044E-01 0.15485317E+04</pdfrwt>
<totfact> 0.24952649E-01</totfact>
</mgrwt>
</event>
<event>
 4    1  0.6502538E-008  0.1646858E+04  0.7818608E-02  0.8812343E-01
         -2   -1    0    0    0  501 -0.00000000000E+00  0.00000000000E+00  0.17303692350E+04  0.17303692350E+04  0.25500000000E-02 0.  1.
          2   -1    0    0  501    0  0.00000000000E+00 -0.00000000000E+00 -0.16218769793E+04  0.16218769793E+04  0.25500000000E-02 0. -1.
    8880023    1    1    2    0    0  0.14688933513E+04 -0.34739600882E+03 -0.49475398760E+03  0.17195706961E+04  0.65864270000E+03 0. -1.
    8880022    1    1    2    0    0 -0.14688933513E+04  0.34739600882E+03  0.60324624333E+03  0.16326755182E+04  0.15294330000E+03 0.  0.
<mgrwt>
<rscale>  0 0.16134250E+04</rscale>
<asrwt>0</asrwt>
<pdfrwt beam="1">  1        2 0.24951954E+00 0.16468582E+04</pdfrwt>
<pdfrwt beam="2">  1       -2 0.26621065E+00 0.16468582E+04</pdfrwt>
<totfact> 0.51321368E-01</totfact>
</mgrwt>
</event>
<event>
 4    1  0.6502538E-008  0.7291314E+03  0.7818608E-02  0.9892819E-01
          2   -1    0    0  501    0  0.00000000000E+00  0.00000000000E+00  0.12345971793E+04  0.12345971793E+04  0.25500000000E-02 0. -1.
         -2   -1    0    0    0  501 -0.00000000000E+00 -0.00000000000E+00 -0.36493039838E+03  0.36493039839E+03  0.25500000000E-02 0.  1.
    8880023    1    1    2    0    0  0.24146541312E+03  0.19878849229E+03  0.99144235198E+03  0.12306870252E+04  0.65864270000E+03 0. -1.
    8880022    1    1    2    0    0 -0.24146541312E+03 -0.19878849229E+03 -0.12177557111E+03  0.36884055245E+03  0.15294330000E+03 0.  0.
<mgrwt>
<rscale>  0 0.60610586E+03</rscale>
<asrwt>0</asrwt>
<pdfrwt beam="1">  1        2 0.18993803E+00 0.72913141E+03</pdfrwt>
<pdfrwt beam="2">  1       -2 0.56143138E-01 0.72913141E+03</pdfrwt>
<totfact> 0.54868249E+01</totfact>
</mgrwt>
</event>
<event>
 4    1  0.6502538E-008  0.1011955E+04  0.7818608E-02  0.9366081E-01
         -2   -1    0    0    0  501 -0.00000000000E+00  0.00000000000E+00  0.51085955583E+03  0.51085955583E+03  0.25500000000E-02 0.  1.
          2   -1    0    0  501    0  0.00000000000E+00 -0.00000000000E+00 -0.25155505881E+04  0.25155505881E+04  0.25500000000E-02 0. -1.
    8880023    1    1    2    0    0  0.76818766458E+03 -0.11446385971E+02 -0.20018111859E+04  0.22430562940E+04  0.65864270000E+03 0.  0.
    8880022    1    1    2    0    0 -0.76818766458E+03  0.11446385971E+02 -0.28798464223E+01  0.78335384999E+03  0.15294330000E+03 0.  0.
<mgrwt>
<rscale>  0 0.94920443E+03</rscale>
<asrwt>0</asrwt>
<pdfrwt beam="1">  1        2 0.38700777E+00 0.10119553E+04</pdfrwt>
<pdfrwt beam="2">  1       -2 0.78593779E-01 0.10119553E+04</pdfrwt>
<totfact> 0.49490662E+00</totfact>
</mgrwt>
</event>
<event>
 4    1  0.6502538E-008  0.8152673E+03  0.7818608E-02  0.9678708E-01
          2   -1    0    0  501    0  0.00000000000E+00  0.00000000000E+00  0.16387371929E+04  0.16387371929E+04  0.25500000000E-02 0. -1.
         -2   -1    0    0    0  501 -0.00000000000E+00 -0.00000000000E+00 -0.46180410649E+03  0.46180410650E+03  0.25500000000E-02 0.  1.
    8880023    1    1    2    0    0  0.40727778826E+03 -0.25490260193E+03  0.13417897018E+04  0.15700510640E+04  0.65864270000E+03 0. -1.
    8880022    1    1    2    0    0 -0.40727778826E+03  0.25490260193E+03 -0.16485661538E+03  0.53049023547E+03  0.15294330000E+03 0.  0.
<mgrwt>
<rscale>  0 0.72298779E+03</rscale>
<asrwt>0</asrwt>
<pdfrwt beam="1">  1        2 0.25211341E+00 0.81526728E+03</pdfrwt>
<pdfrwt beam="2">  1       -2 0.71046786E-01 0.81526728E+03</pdfrwt>
<totfact> 0.19443427E+01</totfact>
</mgrwt>
</event>
<event>
 4    1  0.6647480E-008  0.1047821E+04  0.7818608E-02  0.9321506E-01
         -2   -1    0    0    0  501 -0.00000000000E+00  0.00000000000E+00  0.11063245178E+04  0.11063245178E+04  0.25500000000E-02 0.  1.
          2   -1    0    0  501    0  0.00000000000E+00 -0.00000000000E+00 -0.33460978608E+04  0.33460978608E+04  0.25500000000E-02 0. -1.
    8880023    1    1    2    0    0  0.21075580948E+03 -0.78721046370E+03 -0.30912003684E+04  0.32639620477E+04  0.65864270000E+03 0.  0.
    8880022    1    1    2    0    0 -0.21075580948E+03  0.78721046370E+03  0.85142702534E+03  0.11884603308E+04  0.15294330000E+03 0.  0.
<mgrwt>
<rscale>  0 0.98826895E+03</rscale>
<asrwt>0</asrwt>
<pdfrwt beam="1">  1        2 0.51478428E+00 0.10478208E+04</pdfrwt>
<pdfrwt beam="2">  1       -2 0.17020377E+00 0.10478208E+04</pdfrwt>
<totfact> 0.22395842E-01</totfact>
</mgrwt>
</event>
<event>
 4    1  0.6502538E-008  0.8058110E+03  0.7818608E-02  0.9698369E-01
         -2   -1    0    0    0  501 -0.00000000000E+00  0.00000000000E+00  0.80100785980E+03  0.80100785980E+03  0.25500000000E-02 0.  1.
          2   -1    0    0  501    0  0.00000000000E+00 -0.00000000000E+00 -0.57259297190E+03  0.57259297190E+03  0.25500000000E-02 0. -1.
    8880023    1    1    2    0    0 -0.43842512945E+03  0.15265844968E+03  0.33609551776E+03  0.87309312202E+03  0.65864270000E+03 0.  0.
    8880022    1    1    2    0    0  0.43842512945E+03 -0.15265844968E+03 -0.10768062986E+03  0.50050770969E+03  0.15294330000E+03 0.  0.
<mgrwt>
<rscale>  0 0.71113956E+03</rscale>
<asrwt>0</asrwt>
<pdfrwt beam="1">  1        2 0.88091227E-01 0.80581102E+03</pdfrwt>
<pdfrwt beam="2">  1       -2 0.12323198E+00 0.80581102E+03</pdfrwt>
<totfact> 0.26290660E+01</totfact>
</mgrwt>
</event>
<event>
 4    1  0.6502538E-008  0.8850909E+03  0.7818608E-02  0.9550402E-01
          2   -1    0    0  501    0  0.00000000000E+00  0.00000000000E+00  0.61358616062E+03  0.61358616062E+03  0.25500000000E-02 0. -1.
         -2   -1    0    0    0  501 -0.00000000000E+00 -0.00000000000E+00 -0.30404972238E+04  0.30404972238E+04  0.25500000000E-02 0.  1.
    8880023    1    1    2    0    0 -0.47906918935E+03  0.34650883656E+03  0.24087956682E+03  0.91728339894E+03  0.65864270000E+03 0.  0.
    8880022    1    1    2    0    0  0.47906918935E+03 -0.34650883656E+03 -0.26677906300E+04  0.27367999854E+04  0.15294330000E+03 0.  0.
<mgrwt>
<rscale>  0 0.80667713E+03</rscale>
<asrwt>0</asrwt>
<pdfrwt beam="1">  1        2 0.94397873E-01 0.88509088E+03</pdfrwt>
<pdfrwt beam="2">  1       -2 0.46776879E+00 0.88509088E+03</pdfrwt>
<totfact> 0.13282665E-01</totfact>
</mgrwt>
</event>
<event>
 4    1  0.6502538E-008  0.7466577E+03  0.7818608E-02  0.9840961E-01
         -2   -1    0    0    0  501 -0.00000000000E+00  0.00000000000E+00  0.47166220189E+03  0.47166220189E+03  0.25500000000E-02 0.  1.
          2   -1    0    0  501    0  0.00000000000E+00 -0.00000000000E+00 -0.11100862812E+04  0.11100862812E+04  0.25500000000E-02 0. -1.
    8880023    1    1    2    0    0  0.52495214353E+02 -0.34775252787E+03 -0.85994414546E+03  0.11388598280E+04  0.65864270000E+03 0. -1.
    8880022    1    1    2    0    0 -0.52495214353E+02  0.34775252787E+03  0.22152006612E+03  0.44288865517E+03  0.15294330000E+03 0.  0.
<mgrwt>
<rscale>  0 0.63209898E+03</rscale>
<asrwt>0</asrwt>
<pdfrwt beam="1">  1        2 0.17078250E+00 0.74665774E+03</pdfrwt>
<pdfrwt beam="2">  1       -2 0.72563416E-01 0.74665774E+03</pdfrwt>
<totfact> 0.37538016E+01</totfact>
</mgrwt>
</event>
<event>
 4    1  0.6502538E-008  0.1112489E+04  0.7818608E-02  0.9247277E-01
         -2   -1    0    0    0  501 -0.00000000000E+00  0.00000000000E+00  0.11888118924E+04  0.11888118924E+04  0.25500000000E-02 0.  1.
          2   -1    0    0  501    0  0.00000000000E+00 -0.00000000000E+00 -0.16623613980E+04  0.16623613980E+04  0.25500000000E-02 0. -1.
    8880023    1    1    2    0    0 -0.55752300798E+03  0.70213262615E+03 -0.12370276816E+04  0.16636916242E+04  0.65864270000E+03 0.  0.
    8880022    1    1    2    0    0  0.55752300798E+03 -0.70213262615E+03  0.76347817600E+03  0.11874816661E+04  0.15294330000E+03 0.  0.
<mgrwt>
<rscale>  0 0.10578500E+04</rscale>
<asrwt>0</asrwt>
<pdfrwt beam="1">  1        2 0.25574791E+00 0.11124893E+04</pdfrwt>
<pdfrwt beam="2">  1       -2 0.18289414E+00 0.11124893E+04</pdfrwt>
<totfact> 0.17471624E+00</totfact>
</mgrwt>
</event>
<event>
 4    1  0.6502538E-008  0.7256192E+03  0.7818608E-02  0.9904012E-01
          2   -1    0    0  501    0  0.00000000000E+00  0.00000000000E+00  0.10135766302E+04  0.10135766302E+04  0.25500000000E-02 0. -1.
         -2   -1    0    0    0  501 -0.00000000000E+00 -0.00000000000E+00 -0.50461656815E+03  0.50461656816E+03  0.25500000000E-02 0.  1.
    8880023    1    1    2    0    0 -0.12548038664E+03 -0.27743051832E+03  0.79278812955E+03  0.10747261254E+04  0.65864270000E+03 0. -1.
    8880022    1    1    2    0    0  0.12548038664E+03  0.27743051832E+03 -0.28382806749E+03  0.44346707300E+03  0.15294330000E+03 0.  0.
<mgrwt>
<rscale>  0 0.60067255E+03</rscale>
<asrwt>0</asrwt>
<pdfrwt beam="1">  1        2 0.15593487E+00 0.72561920E+03</pdfrwt>
<pdfrwt beam="2">  1       -2 0.77633319E-01 0.72561920E+03</pdfrwt>
<totfact> 0.37176816E+01</totfact>
</mgrwt>
</event>
<event>
 4    1  0.6502538E-008  0.1180843E+04  0.7818608E-02  0.9175972E-01
          2   -1    0    0  501    0  0.00000000000E+00  0.00000000000E+00  0.17740991723E+04  0.17740991723E+04  0.25500000000E-02 0. -1.
         -2   -1    0    0    0  501 -0.00000000000E+00 -0.00000000000E+00 -0.12628612518E+04  0.12628612518E+04  0.25500000000E-02 0.  1.
    8880023    1    1    2    0    0 -0.86391066929E+03 -0.46285991197E+03  0.13098006396E+04  0.17635103812E+04  0.65864270000E+03 0.  0.
    8880022    1    1    2    0    0  0.86391066929E+03  0.46285991197E+03 -0.79856271906E+03  0.12734500430E+04  0.15294330000E+03 0.  0.
<mgrwt>
<rscale>  0 0.11304910E+04</rscale>
<asrwt>0</asrwt>
<pdfrwt beam="1">  1        2 0.27293833E+00 0.11808434E+04</pdfrwt>
<pdfrwt beam="2">  1       -2 0.19428635E+00 0.11808434E+04</pdfrwt>
<totfact> 0.12587255E+00</totfact>
</mgrwt>
</event>
<event>
 4    1  0.6502538E-008  0.9047637E+03  0.7818608E-02  0.9518427E-01
          2   -1    0    0  501    0  0.00000000000E+00  0.00000000000E+00  0.90154313980E+03  0.90154313980E+03  0.25500000000E-02 0. -1.
         -2   -1    0    0    0  501 -0.00000000000E+00 -0.00000000000E+00 -0.10019131166E+04  0.10019131166E+04  0.25500000000E-02 0.  1.
    8880023    1    1    2    0    0 -0.28626308626E+03  0.55030959224E+03  0.49400131235E+03  0.10308417457E+04  0.65864270000E+03 0. -1.
    8880022    1    1    2    0    0  0.28626308626E+03 -0.55030959224E+03 -0.59437128915E+03  0.87261451068E+03  0.15294330000E+03 0.  0.
<mgrwt>
<rscale>  0 0.82938791E+03</rscale>
<asrwt>0</asrwt>
<pdfrwt beam="1">  1        2 0.13869894E+00 0.90476373E+03</pdfrwt>
<pdfrwt beam="2">  1       -2 0.15414048E+00 0.90476373E+03</pdfrwt>
<totfact> 0.81541727E+00</totfact>
</mgrwt>
</event>
<event>
 4    1  0.6502538E-008  0.1047992E+04  0.7818608E-02  0.9321299E-01
         -2   -1    0    0    0  501 -0.00000000000E+00  0.00000000000E+00  0.75544622140E+03  0.75544622140E+03  0.25500000000E-02 0.  1.
          2   -1    0    0  501    0  0.00000000000E+00 -0.00000000000E+00 -0.13677082500E+04  0.13677082500E+04  0.25500000000E-02 0. -1.
    8880023    1    1    2    0    0  0.21641671388E+03  0.78590147217E+03 -0.74147220151E+03  0.12837712218E+04  0.65864270000E+03 0. -1.
    8880022    1    1    2    0    0 -0.21641671388E+03 -0.78590147217E+03  0.12921017288E+03  0.83938324965E+03  0.15294330000E+03 0.  0.
<mgrwt>
<rscale>  0 0.98845462E+03</rscale>
<asrwt>0</asrwt>
<pdfrwt beam="1">  1        2 0.21041665E+00 0.10479921E+04</pdfrwt>
<pdfrwt beam="2">  1       -2 0.11622250E+00 0.10479921E+04</pdfrwt>
<totfact> 0.85810486E+00</totfact>
</mgrwt>
</event>
<event>
 4    1  0.6502538E-008  0.1016408E+04  0.7818608E-02  0.9360399E-01
          2   -1    0    0  501    0  0.00000000000E+00  0.00000000000E+00  0.23126677587E+04  0.23126677587E+04  0.25500000000E-02 0. -1.
         -2   -1    0    0    0  501 -0.00000000000E+00 -0.00000000000E+00 -0.10749990781E+04  0.10749990781E+04  0.25500000000E-02 0.  1.
    8880023    1    1    2    0    0  0.20749409455E+03 -0.74580268864E+03  0.20294944511E+04  0.22697870787E+04  0.65864270000E+03 0. -1.
    8880022    1    1    2    0    0 -0.20749409455E+03  0.74580268864E+03 -0.79182577042E+03  0.11178797580E+04  0.15294330000E+03 0.  0.
<mgrwt>
<rscale>  0 0.95407631E+03</rscale>
<asrwt>0</asrwt>
<pdfrwt beam="1">  1        2 0.35579504E+00 0.10164082E+04</pdfrwt>
<pdfrwt beam="2">  1       -2 0.16538447E+00 0.10164082E+04</pdfrwt>
<totfact> 0.10255159E+00</totfact>
</mgrwt>
</event>
<event>
 4    1  0.6502538E-008  0.1538882E+04  0.7818608E-02  0.8882657E-01
         -2   -1    0    0    0  501 -0.00000000000E+00  0.00000000000E+00  0.31888890756E+04  0.31888890756E+04  0.25500000000E-02 0.  1.
          2   -1    0    0  501    0  0.00000000000E+00 -0.00000000000E+00 -0.29442586336E+04  0.29442586336E+04  0.25500000000E-02 0. -1.
    8880023    1    1    2    0    0 -0.13580428187E+04  0.30011048683E+03  0.28141173299E+04  0.32073997497E+04  0.65864270000E+03 0.  1.
    8880022    1    1    2    0    0  0.13580428187E+04 -0.30011048683E+03 -0.25694868880E+04  0.29257479595E+04  0.15294330000E+03 0.  0.
<mgrwt>
<rscale>  0 0.15027033E+04</rscale>
<asrwt>0</asrwt>
<pdfrwt beam="1">  1        2 0.45296287E+00 0.15388817E+04</pdfrwt>
<pdfrwt beam="2">  1       -2 0.49059832E+00 0.15388817E+04</pdfrwt>
<totfact> 0.33116672E-03</totfact>
</mgrwt>
</event>
<event>
 4    1  0.6502538E-008  0.7098382E+03  0.7818608E-02  0.9958602E-01
         -2   -1    0    0    0  501 -0.00000000000E+00  0.00000000000E+00  0.61226968491E+03  0.61226968491E+03  0.25500000000E-02 0.  1.
          2   -1    0    0  501    0  0.00000000000E+00 -0.00000000000E+00 -0.17118840995E+04  0.17118840995E+04  0.25500000000E-02 0. -1.
    8880023    1    1    2    0    0 -0.25131670613E+03 -0.83066339198E+02 -0.15928548191E+04  0.17438626048E+04  0.65864270000E+03 0. -1.
    8880022    1    1    2    0    0  0.25131670613E+03  0.83066339198E+02  0.49324040449E+03  0.58029117961E+03  0.15294330000E+03 0.  0.
<mgrwt>
<rscale>  0 0.57503327E+03</rscale>
<asrwt>0</asrwt>
<pdfrwt beam="1">  1        2 0.26336678E+00 0.70983823E+03</pdfrwt>
<pdfrwt beam="2">  1       -2 0.94195337E-01 0.70983823E+03</pdfrwt>
<totfact> 0.95042872E+00</totfact>
</mgrwt>
</event>
<event>
 4    1  0.6502538E-008  0.6714571E+03  0.7818608E-02  0.1014639E+00
          2   -1    0    0  501    0  0.00000000000E+00  0.00000000000E+00  0.24736090668E+04  0.24736090668E+04  0.25500000000E-02 0. -1.
         -2   -1    0    0    0  501 -0.00000000000E+00 -0.00000000000E+00 -0.42816798618E+03  0.42816798619E+03  0.25500000000E-02 0.  1.
    8880023    1    1    2    0    0 -0.13055182118E+03 -0.79344791004E+00  0.24010941267E+04  0.24932123093E+04  0.65864270000E+03 0. -1.
    8880022    1    1    2    0    0  0.13055182118E+03  0.79344791004E+00 -0.35565304610E+03  0.40856474369E+03  0.15294330000E+03 0.  0.
<mgrwt>
<rscale>  0 0.49671789E+03</rscale>
<asrwt>0</asrwt>
<pdfrwt beam="1">  1        2 0.38055524E+00 0.67145708E+03</pdfrwt>
<pdfrwt beam="2">  1       -2 0.65871999E-01 0.67145708E+03</pdfrwt>
<totfact> 0.81331910E+00</totfact>
</mgrwt>
</event>
<event>
 4    1  0.6502538E-008  0.7469052E+03  0.7818608E-02  0.9840271E-01
         -2   -1    0    0    0  501 -0.00000000000E+00  0.00000000000E+00  0.43126155028E+03  0.43126155029E+03  0.25500000000E-02 0.  1.
          2   -1    0    0  501    0  0.00000000000E+00 -0.00000000000E+00 -0.15498267359E+04  0.15498267359E+04  0.25500000000E-02 0. -1.
    8880023    1    1    2    0    0  0.10790915711E+03  0.33528020695E+03 -0.13427070554E+04  0.15364666109E+04  0.65864270000E+03 0. -1.
    8880022    1    1    2    0    0 -0.10790915711E+03 -0.33528020695E+03  0.22414186980E+03  0.44462167533E+03  0.15294330000E+03 0.  0.
<mgrwt>
<rscale>  0 0.63245452E+03</rscale>
<asrwt>0</asrwt>
<pdfrwt beam="1">  1        2 0.23843488E+00 0.74690522E+03</pdfrwt>
<pdfrwt beam="2">  1       -2 0.66347931E-01 0.74690522E+03</pdfrwt>
<totfact> 0.25469234E+01</totfact>
</mgrwt>
</event>
<event>
 4    1  0.6502538E-008  0.7643270E+03  0.7818608E-02  0.9794031E-01
         -2   -1    0    0    0  501 -0.00000000000E+00  0.00000000000E+00  0.13983112835E+04  0.13983112835E+04  0.25500000000E-02 0.  1.
          2   -1    0    0  501    0  0.00000000000E+00 -0.00000000000E+00 -0.38105694740E+04  0.38105694740E+04  0.25500000000E-02 0. -1.
    8880023    1    1    2    0    0  0.21238835841E+02 -0.38721372468E+03 -0.37399657166E+04  0.38172685685E+04  0.65864270000E+03 0. -1.
    8880022    1    1    2    0    0 -0.21238835841E+02  0.38721372468E+03  0.13277075260E+04  0.13916121890E+04  0.15294330000E+03 0.  0.
<mgrwt>
<rscale>  0 0.65683835E+03</rscale>
<asrwt>0</asrwt>
<pdfrwt beam="1">  1        2 0.58624145E+00 0.76432700E+03</pdfrwt>
<pdfrwt beam="2">  1       -2 0.21512481E+00 0.76432700E+03</pdfrwt>
<totfact> 0.56822904E-02</totfact>
</mgrwt>
</event>
<event>
 4    1  0.6502538E-008  0.9294659E+03  0.7818608E-02  0.9480295E-01
          2   -1    0    0  501    0  0.00000000000E+00  0.00000000000E+00  0.18952945335E+04  0.18952945335E+04  0.25500000000E-02 0. -1.
         -2   -1    0    0    0  501 -0.00000000000E+00 -0.00000000000E+00 -0.57038430261E+03  0.57038430262E+03  0.25500000000E-02 0.  1.
    8880023    1    1    2    0    0 -0.59932869919E+02 -0.65307329601E+03  0.15047475468E+04  0.17686639208E+04  0.65864270000E+03 0. -1.
    8880022    1    1    2    0    0  0.59932869919E+02  0.65307329601E+03 -0.17983731599E+03  0.69701491526E+03  0.15294330000E+03 0.  0.
<mgrwt>
<rscale>  0 0.85752317E+03</rscale>
<asrwt>0</asrwt>
<pdfrwt beam="1">  1        2 0.29158378E+00 0.92946591E+03</pdfrwt>
<pdfrwt beam="2">  1       -2 0.87751429E-01 0.92946591E+03</pdfrwt>
<totfact> 0.86296240E+00</totfact>
</mgrwt>
</event>
<event>
 4    1  0.6502538E-008  0.7064421E+03  0.7818608E-02  0.9971458E-01
          2   -1    0    0  501    0  0.00000000000E+00  0.00000000000E+00  0.26676049676E+04  0.26676049676E+04  0.25500000000E-02 0. -1.
         -2   -1    0    0    0  501 -0.00000000000E+00 -0.00000000000E+00 -0.70474862161E+03  0.70474862161E+03  0.25500000000E-02 0.  1.
    8880023    1    1    2    0    0 -0.20051258367E+03  0.15825579314E+03  0.25865256150E+04  0.26812637236E+04  0.65864270000E+03 0. -1.
    8880022    1    1    2    0    0  0.20051258367E+03 -0.15825579314E+03 -0.62366926899E+03  0.69108986562E+03  0.15294330000E+03 0.  0.
<mgrwt>
<rscale>  0 0.56919656E+03</rscale>
<asrwt>0</asrwt>
<pdfrwt beam="1">  1        2 0.41040076E+00 0.70644207E+03</pdfrwt>
<pdfrwt beam="2">  1       -2 0.10842286E+00 0.70644207E+03</pdfrwt>
<totfact> 0.20128016E+00</totfact>
</mgrwt>
</event>
<event>
 4    1  0.6502538E-008  0.8332387E+03  0.7818608E-02  0.9643064E-01
          2   -1    0    0  501    0  0.00000000000E+00  0.00000000000E+00  0.14140482841E+04  0.14140482841E+04  0.25500000000E-02 0. -1.
         -2   -1    0    0    0  501 -0.00000000000E+00 -0.00000000000E+00 -0.47780503530E+03  0.47780503531E+03  0.25500000000E-02 0.  1.
    8880023    1    1    2    0    0 -0.45685512895E+03  0.22750793150E+03  0.10566165387E+04  0.13456318902E+04  0.65864270000E+03 0. -1.
    8880022    1    1    2    0    0  0.45685512895E+03 -0.22750793150E+03 -0.12037328996E+03  0.54622142918E+03  0.15294330000E+03 0.  0.
<mgrwt>
<rscale>  0 0.74510356E+03</rscale>
<asrwt>0</asrwt>
<pdfrwt beam="1">  1        2 0.21754589E+00 0.83323867E+03</pdfrwt>
<pdfrwt beam="2">  1       -2 0.73508466E-01 0.83323867E+03</pdfrwt>
<totfact> 0.24021749E+01</totfact>
</mgrwt>
</event>
<event>
 4    1  0.6502538E-008  0.7488483E+03  0.7818608E-02  0.9834884E-01
         -2   -1    0    0    0  501 -0.00000000000E+00  0.00000000000E+00  0.41071669452E+03  0.41071669452E+03  0.25500000000E-02 0.  1.
          2   -1    0    0  501    0  0.00000000000E+00 -0.00000000000E+00 -0.17886288100E+04  0.17886288100E+04  0.25500000000E-02 0. -1.
    8880023    1    1    2    0    0  0.35614701297E+03 -0.11082917404E+02 -0.15898970522E+04  0.17574260635E+04  0.65864270000E+03 0. -1.
    8880022    1    1    2    0    0 -0.35614701297E+03  0.11082917404E+02  0.21198493673E+03  0.44191944098E+03  0.15294330000E+03 0.  0.
<mgrwt>
<rscale>  0 0.63523610E+03</rscale>
<asrwt>0</asrwt>
<pdfrwt beam="1">  1        2 0.27517366E+00 0.74884827E+03</pdfrwt>
<pdfrwt beam="2">  1       -2 0.63187185E-01 0.74884827E+03</pdfrwt>
<totfact> 0.20910979E+01</totfact>
</mgrwt>
</event>
<event>
 4    1  0.6502538E-008  0.1533918E+04  0.7818608E-02  0.8886049E-01
         -2   -1    0    0    0  501 -0.00000000000E+00  0.00000000000E+00  0.15367626622E+04  0.15367626622E+04  0.25500000000E-02 0.  1.
          2   -1    0    0  501    0  0.00000000000E+00 -0.00000000000E+00 -0.16547755848E+04  0.16547755848E+04  0.25500000000E-02 0. -1.
    8880023    1    1    2    0    0 -0.73600940028E+03  0.11736200250E+04 -0.69383438952E+03  0.16835409608E+04  0.65864270000E+03 0.  0.
    8880022    1    1    2    0    0  0.73600940028E+03 -0.11736200250E+04  0.57582146696E+03  0.15079972862E+04  0.15294330000E+03 0.  0.
<mgrwt>
<rscale>  0 0.14976016E+04</rscale>
<asrwt>0</asrwt>
<pdfrwt beam="1">  1        2 0.25458086E+00 0.15339179E+04</pdfrwt>
<pdfrwt beam="2">  1       -2 0.23642502E+00 0.15339179E+04</pdfrwt>
<totfact> 0.75860160E-01</totfact>
</mgrwt>
</event>
<event>
 4    1  0.6502538E-008  0.7797634E+03  0.7818608E-02  0.9756393E-01
          2   -1    0    0  501    0  0.00000000000E+00  0.00000000000E+00  0.21200924530E+04  0.21200924530E+04  0.25500000000E-02 0. -1.
         -2   -1    0    0    0  501 -0.00000000000E+00 -0.00000000000E+00 -0.27448860906E+03  0.27448860907E+03  0.25500000000E-02 0.  1.
    8880023    1    1    2    0    0  0.38990428688E+03  0.14898109275E+03  0.17824923137E+04  0.19455872568E+04  0.65864270000E+03 0. -1.
    8880022    1    1    2    0    0 -0.38990428688E+03 -0.14898109275E+03  0.63111530191E+02  0.44899380528E+03  0.15294330000E+03 0.  0.
<mgrwt>
<rscale>  0 0.67756177E+03</rscale>
<asrwt>0</asrwt>
<pdfrwt beam="1">  1        2 0.32616807E+00 0.77976338E+03</pdfrwt>
<pdfrwt beam="2">  1       -2 0.42229017E-01 0.77976338E+03</pdfrwt>
<totfact> 0.31368550E+01</totfact>
</mgrwt>
</event>
<event>
 4    1  0.6502538E-008  0.7459197E+03  0.7818608E-02  0.9843027E-01
         -2   -1    0    0    0  501 -0.00000000000E+00  0.00000000000E+00  0.52901088542E+03  0.52901088543E+03  0.25500000000E-02 0.  1.
          2   -1    0    0  501    0  0.00000000000E+00 -0.00000000000E+00 -0.27400069944E+04  0.27400069944E+04  0.25500000000E-02 0. -1.
    8880023    1    1    2    0    0 -0.30732838449E+03  0.16773547938E+03 -0.26112396448E+04  0.27156893445E+04  0.65864270000E+03 0. -1.
    8880022    1    1    2    0    0  0.30732838449E+03 -0.16773547938E+03  0.40024353586E+03  0.55332853529E+03  0.15294330000E+03 0.  0.
<mgrwt>
<rscale>  0 0.63103698E+03</rscale>
<asrwt>0</asrwt>
<pdfrwt beam="1">  1        2 0.42153953E+00 0.74591966E+03</pdfrwt>
<pdfrwt beam="2">  1       -2 0.81386292E-01 0.74591966E+03</pdfrwt>
<totfact> 0.35380230E+00</totfact>
</mgrwt>
</event>
<event>
 4    1  0.6502538E-008  0.7335693E+03  0.7818608E-02  0.9879091E-01
          2   -1    0    0  501    0  0.00000000000E+00  0.00000000000E+00  0.60682645367E+03  0.60682645368E+03  0.25500000000E-02 0. -1.
         -2   -1    0    0    0  501 -0.00000000000E+00 -0.00000000000E+00 -0.89915117352E+03  0.89915117353E+03  0.25500000000E-02 0.  1.
    8880023    1    1    2    0    0  0.30605597899E+03  0.10316681079E+03 -0.66465998578E+03  0.98989734624E+03  0.65864270000E+03 0.  0.
    8880022    1    1    2    0    0 -0.30605597899E+03 -0.10316681079E+03  0.37233526594E+03  0.51608028096E+03  0.15294330000E+03 0.  0.
<mgrwt>
<rscale>  0 0.61285391E+03</rscale>
<asrwt>0</asrwt>
<pdfrwt beam="1">  1        2 0.93357916E-01 0.73356926E+03</pdfrwt>
<pdfrwt beam="2">  1       -2 0.13833095E+00 0.73356926E+03</pdfrwt>
<totfact> 0.18403053E+01</totfact>
</mgrwt>
</event>
<event>
 4    1  0.6502538E-008  0.1045043E+04  0.7818608E-02  0.9324864E-01
         -2   -1    0    0    0  501 -0.00000000000E+00  0.00000000000E+00  0.10035882785E+04  0.10035882785E+04  0.25500000000E-02 0.  1.
          2   -1    0    0  501    0  0.00000000000E+00 -0.00000000000E+00 -0.10015580315E+04  0.10015580315E+04  0.25500000000E-02 0. -1.
    8880023    1    1    2    0    0  0.17375271636E+03 -0.79253726793E+03 -0.35765629146E+03  0.11045512920E+04  0.65864270000E+03 0. -1.
    8880022    1    1    2    0    0 -0.17375271636E+03  0.79253726793E+03  0.35968653847E+03  0.90059501801E+03  0.15294330000E+03 0.  0.
<mgrwt>
<rscale>  0 0.98525725E+03</rscale>
<asrwt>0</asrwt>
<pdfrwt beam="1">  1        2 0.15408585E+00 0.10450433E+04</pdfrwt>
<pdfrwt beam="2">  1       -2 0.15439820E+00 0.10450433E+04</pdfrwt>
<totfact> 0.68809197E+00</totfact>
</mgrwt>
</event>
<event>
 4    1  0.6502538E-008  0.7742922E+03  0.7818608E-02  0.9769420E-01
         -2   -1    0    0    0  501 -0.00000000000E+00  0.00000000000E+00  0.57645803879E+03  0.57645803880E+03  0.25500000000E-02 0.  1.
          2   -1    0    0  501    0  0.00000000000E+00 -0.00000000000E+00 -0.16505151773E+04  0.16505151773E+04  0.25500000000E-02 0. -1.
    8880023    1    1    2    0    0 -0.30767527218E+03 -0.26655975706E+03 -0.14554230123E+04  0.16485704499E+04  0.65864270000E+03 0.  0.
    8880022    1    1    2    0    0  0.30767527218E+03  0.26655975706E+03  0.38136587383E+03  0.57840276619E+03  0.15294330000E+03 0.  0.
<mgrwt>
<rscale>  0 0.67029799E+03</rscale>
<asrwt>0</asrwt>
<pdfrwt beam="1">  1        2 0.25392541E+00 0.77429218E+03</pdfrwt>
<pdfrwt beam="2">  1       -2 0.88685852E-01 0.77429218E+03</pdfrwt>
<totfact> 0.11699652E+01</totfact>
</mgrwt>
</event>
<event>
 4    1  0.6502538E-008  0.7566137E+03  0.7818608E-02  0.9813954E-01
         -2   -1    0    0    0  501 -0.00000000000E+00  0.00000000000E+00  0.32709480464E+03  0.32709480465E+03  0.25500000000E-02 0.  1.
          2   -1    0    0  501    0  0.00000000000E+00 -0.00000000000E+00 -0.20170945552E+04  0.20170945552E+04  0.25500000000E-02 0. -1.
    8880023    1    1    2    0    0  0.12089477988E+03 -0.35219099373E+03 -0.17778614263E+04  0.19321634251E+04  0.65864270000E+03 0. -1.
    8880022    1    1    2    0    0 -0.12089477988E+03  0.35219099373E+03  0.87861675707E+02  0.41202593479E+03  0.15294330000E+03 0.  0.
<mgrwt>
<rscale>  0 0.64619014E+03</rscale>
<asrwt>0</asrwt>
<pdfrwt beam="1">  1        2 0.31032223E+00 0.75661367E+03</pdfrwt>
<pdfrwt beam="2">  1       -2 0.50322279E-01 0.75661367E+03</pdfrwt>
<totfact> 0.25210620E+01</totfact>
</mgrwt>
</event>
<event>
 4    1  0.6502538E-008  0.1002710E+04  0.7818608E-02  0.9378021E-01
         -2   -1    0    0    0  501 -0.00000000000E+00  0.00000000000E+00  0.68471843984E+03  0.68471843984E+03  0.25500000000E-02 0.  1.
          2   -1    0    0  501    0  0.00000000000E+00 -0.00000000000E+00 -0.12549215253E+04  0.12549215253E+04  0.25500000000E-02 0. -1.
    8880023    1    1    2    0    0 -0.61299279621E+03  0.44255645278E+03 -0.59851508186E+03  0.11677529240E+04  0.65864270000E+03 0.  0.
    8880022    1    1    2    0    0  0.61299279621E+03 -0.44255645278E+03  0.28311996394E+02  0.77188704112E+03  0.15294330000E+03 0.  0.
<mgrwt>
<rscale>  0 0.93906735E+03</rscale>
<asrwt>0</asrwt>
<pdfrwt beam="1">  1        2 0.19306485E+00 0.10027096E+04</pdfrwt>
<pdfrwt beam="2">  1       -2 0.10534130E+00 0.10027096E+04</pdfrwt>
<totfact> 0.12733342E+01</totfact>
</mgrwt>
</event>
<event>
 4    1  0.6502538E-008  0.9265972E+03  0.7818608E-02  0.9484617E-01
          2   -1    0    0  501    0  0.00000000000E+00  0.00000000000E+00  0.18748777638E+04  0.18748777638E+04  0.25500000000E-02 0. -1.
         -2   -1    0    0    0  501 -0.00000000000E+00 -0.00000000000E+00 -0.85424086030E+03  0.85424086030E+03  0.25500000000E-02 0.  1.
    8880023    1    1    2    0    0 -0.42200888966E+03 -0.49666964795E+03  0.15966007737E+04  0.18460001298E+04  0.65864270000E+03 0.  0.
    8880022    1    1    2    0    0  0.42200888966E+03  0.49666964795E+03 -0.57596387025E+03  0.88311849431E+03  0.15294330000E+03 0.  0.
<mgrwt>
<rscale>  0 0.85427532E+03</rscale>
<asrwt>0</asrwt>
<pdfrwt beam="1">  1        2 0.28844273E+00 0.92659724E+03</pdfrwt>
<pdfrwt beam="2">  1       -2 0.13142167E+00 0.92659724E+03</pdfrwt>
<totfact> 0.33341385E+00</totfact>
</mgrwt>
</event>
<event>
 4    1  0.6502538E-008  0.9828285E+03  0.7818608E-02  0.9404376E-01
          2   -1    0    0  501    0  0.00000000000E+00  0.00000000000E+00  0.28758063443E+04  0.28758063443E+04  0.25500000000E-02 0. -1.
         -2   -1    0    0    0  501 -0.00000000000E+00 -0.00000000000E+00 -0.29268382436E+03  0.29268382437E+03  0.25500000000E-02 0.  1.
    8880023    1    1    2    0    0 -0.72571630921E+03 -0.74010496145E+02  0.19769295057E+04  0.22077595412E+04  0.65864270000E+03 0.  0.
    8880022    1    1    2    0    0  0.72571630921E+03  0.74010496145E+02  0.60619301417E+03  0.96073062741E+03  0.15294330000E+03 0.  0.
<mgrwt>
<rscale>  0 0.91716418E+03</rscale>
<asrwt>0</asrwt>
<pdfrwt beam="1">  1        2 0.44243173E+00 0.98282853E+03</pdfrwt>
<pdfrwt beam="2">  1       -2 0.45028282E-01 0.98282853E+03</pdfrwt>
<totfact> 0.99430182E+00</totfact>
</mgrwt>
</event>
<event>
 4    1  0.6502538E-008  0.1251139E+04  0.7818608E-02  0.9108947E-01
         -2   -1    0    0    0  501 -0.00000000000E+00  0.00000000000E+00  0.17782139606E+04  0.17782139606E+04  0.25500000000E-02 0.  1.
          2   -1    0    0  501    0  0.00000000000E+00 -0.00000000000E+00 -0.23440238835E+04  0.23440238835E+04  0.25500000000E-02 0. -1.
    8880023    1    1    2    0    0 -0.62250305122E+03  0.86257041114E+03 -0.19823612665E+04  0.23441638510E+04  0.65864270000E+03 0. -1.
    8880022    1    1    2    0    0  0.62250305122E+03 -0.86257041114E+03  0.14165513436E+04  0.17780739931E+04  0.15294330000E+03 0.  0.
<mgrwt>
<rscale>  0 0.12044770E+04</rscale>
<asrwt>0</asrwt>
<pdfrwt beam="1">  1        2 0.36061906E+00 0.12511387E+04</pdfrwt>
<pdfrwt beam="2">  1       -2 0.27357138E+00 0.12511387E+04</pdfrwt>
<totfact> 0.19127620E-01</totfact>
</mgrwt>
</event>
<event>
 4    1  0.6502538E-008  0.1545627E+04  0.7818608E-02  0.8878071E-01
         -2   -1    0    0    0  501 -0.00000000000E+00  0.00000000000E+00  0.21928988552E+04  0.21928988552E+04  0.25500000000E-02 0.  1.
          2   -1    0    0  501    0  0.00000000000E+00 -0.00000000000E+00 -0.23193371627E+04  0.23193371627E+04  0.25500000000E-02 0. -1.
    8880023    1    1    2    0    0 -0.12792436671E+03 -0.13924040367E+04  0.16404012082E+04  0.22538589076E+04  0.65864270000E+03 0.  0.
    8880022    1    1    2    0    0  0.12792436671E+03  0.13924040367E+04 -0.17668395158E+04  0.22583771104E+04  0.15294330000E+03 0.  0.
<mgrwt>
<rscale>  0 0.15096346E+04</rscale>
<asrwt>0</asrwt>
<pdfrwt beam="1">  1        2 0.35682110E+00 0.15456273E+04</pdfrwt>
<pdfrwt beam="2">  1       -2 0.33736906E+00 0.15456273E+04</pdfrwt>
<totfact> 0.77026798E-02</totfact>
</mgrwt>
</event>
<event>
 4    1  0.6502538E-008  0.8786597E+03  0.7818608E-02  0.9561196E-01
          2   -1    0    0  501    0  0.00000000000E+00  0.00000000000E+00  0.29472826768E+04  0.29472826768E+04  0.25500000000E-02 0. -1.
         -2   -1    0    0    0  501 -0.00000000000E+00 -0.00000000000E+00 -0.23221062751E+03  0.23221062752E+03  0.25500000000E-02 0.  1.
    8880023    1    1    2    0    0 -0.50599101641E+03  0.28671535837E+03  0.86040662847E+03  0.12297733035E+04  0.65864270000E+03 0.  0.
    8880022    1    1    2    0    0  0.50599101641E+03 -0.28671535837E+03  0.18546654208E+04  0.19497200008E+04  0.15294330000E+03 0.  0.
<mgrwt>
<rscale>  0 0.79918572E+03</rscale>
<asrwt>0</asrwt>
<pdfrwt beam="1">  1        2 0.45342809E+00 0.87865967E+03</pdfrwt>
<pdfrwt beam="2">  1       -2 0.35724713E-01 0.87865967E+03</pdfrwt>
<totfact> 0.14363132E+01</totfact>
</mgrwt>
</event>
<event>
 4    1  0.6502538E-008  0.1434863E+04  0.7818608E-02  0.8957056E-01
          2   -1    0    0  501    0  0.00000000000E+00  0.00000000000E+00  0.16982345620E+04  0.16982345620E+04  0.25500000000E-02 0. -1.
         -2   -1    0    0    0  501 -0.00000000000E+00 -0.00000000000E+00 -0.20126095507E+04  0.20126095507E+04  0.25500000000E-02 0.  1.
    8880023    1    1    2    0    0 -0.11119089119E+04  0.62344167993E+03  0.10945457844E+04  0.18046777100E+04  0.65864270000E+03 0.  0.
    8880022    1    1    2    0    0  0.11119089119E+04 -0.62344167993E+03 -0.14089207731E+04  0.19061664027E+04  0.15294330000E+03 0.  0.
<mgrwt>
<rscale>  0 0.13955359E+04</rscale>
<asrwt>0</asrwt>
<pdfrwt beam="1">  1        2 0.26126686E+00 0.14348628E+04</pdfrwt>
<pdfrwt beam="2">  1       -2 0.30963224E+00 0.14348628E+04</pdfrwt>
<totfact> 0.25815356E-01</totfact>
</mgrwt>
</event>
<event>
 4    1  0.6502538E-008  0.1274162E+04  0.7818608E-02  0.9088200E-01
          2   -1    0    0  501    0  0.00000000000E+00  0.00000000000E+00  0.21018469496E+04  0.21018469496E+04  0.25500000000E-02 0. -1.
         -2   -1    0    0    0  501 -0.00000000000E+00 -0.00000000000E+00 -0.13513426632E+04  0.13513426632E+04  0.25500000000E-02 0.  1.
    8880023    1    1    2    0    0 -0.11704302256E+03 -0.10844263623E+04  0.16120925545E+04  0.20548314322E+04  0.65864270000E+03 0.  0.
    8880022    1    1    2    0    0  0.11704302256E+03  0.10844263623E+04 -0.86158826814E+03  0.13983581805E+04  0.15294330000E+03 0.  0.
<mgrwt>
<rscale>  0 0.12285826E+04</rscale>
<asrwt>0</asrwt>
<pdfrwt beam="1">  1        2 0.32336107E+00 0.12741624E+04</pdfrwt>
<pdfrwt beam="2">  1       -2 0.20789887E+00 0.12741624E+04</pdfrwt>
<totfact> 0.66682281E-01</totfact>
</mgrwt>
</event>
<event>
 4    1  0.6502538E-008  0.9098657E+03  0.7818608E-02  0.9510376E-01
         -2   -1    0    0    0  501 -0.00000000000E+00  0.00000000000E+00  0.34922551525E+03  0.34922551526E+03  0.25500000000E-02 0.  1.
          2   -1    0    0  501    0  0.00000000000E+00 -0.00000000000E+00 -0.25480108707E+04  0.25480108707E+04  0.25500000000E-02 0. -1.
    8880023    1    1    2    0    0 -0.36911233590E+03 -0.50774154047E+03 -0.20373360070E+04  0.22312762268E+04  0.65864270000E+03 0.  0.
    8880022    1    1    2    0    0  0.36911233590E+03  0.50774154047E+03 -0.16144934837E+03  0.66596015912E+03  0.15294330000E+03 0.  0.
<mgrwt>
<rscale>  0 0.83523146E+03</rscale>
<asrwt>0</asrwt>
<pdfrwt beam="1">  1        2 0.39200166E+00 0.90986570E+03</pdfrwt>
<pdfrwt beam="2">  1       -2 0.53727004E-01 0.90986570E+03</pdfrwt>
<totfact> 0.10918291E+01</totfact>
</mgrwt>
</event>
<event>
 4    1  0.6502538E-008  0.7252402E+03  0.7818608E-02  0.9905238E-01
         -2   -1    0    0    0  501 -0.00000000000E+00  0.00000000000E+00  0.44558424242E+03  0.44558424243E+03  0.25500000000E-02 0.  1.
          2   -1    0    0  501    0  0.00000000000E+00 -0.00000000000E+00 -0.16601828025E+04  0.16601828025E+04  0.25500000000E-02 0. -1.
    8880023    1    1    2    0    0  0.25910415371E+03 -0.15820292840E+03 -0.14972654109E+04  0.16636637419E+04  0.65864270000E+03 0. -1.
    8880022    1    1    2    0    0 -0.25910415371E+03  0.15820292840E+03  0.28266685082E+03  0.44210330308E+03  0.15294330000E+03 0.  0.
<mgrwt>
<rscale>  0 0.60008102E+03</rscale>
<asrwt>0</asrwt>
<pdfrwt beam="1">  1        2 0.25541274E+00 0.72524019E+03</pdfrwt>
<pdfrwt beam="2">  1       -2 0.68551423E-01 0.72524019E+03</pdfrwt>
<totfact> 0.20687421E+01</totfact>
</mgrwt>
</event>
<event>
 4    1  0.6502538E-008  0.7935954E+03  0.7818608E-02  0.9724819E-01
          2   -1    0    0  501    0  0.00000000000E+00  0.00000000000E+00  0.91621540787E+03  0.91621540787E+03  0.25500000000E-02 0. -1.
         -2   -1    0    0    0  501 -0.00000000000E+00 -0.00000000000E+00 -0.12669916319E+04  0.12669916319E+04  0.25500000000E-02 0.  1.
    8880023    1    1    2    0    0  0.19139319331E+02 -0.44228625653E+03  0.68379366236E+03  0.10475530656E+04  0.65864270000E+03 0.  0.
    8880022    1    1    2    0    0 -0.19139319331E+02  0.44228625653E+03 -0.10345698863E+04  0.11356539742E+04  0.15294330000E+03 0.  0.
<mgrwt>
<rscale>  0 0.69558110E+03</rscale>
<asrwt>0</asrwt>
<pdfrwt beam="1">  1        2 0.14095622E+00 0.79359540E+03</pdfrwt>
<pdfrwt beam="2">  1       -2 0.19492179E+00 0.79359540E+03</pdfrwt>
<totfact> 0.41755717E+00</totfact>
</mgrwt>
</event>
<event>
 4    1  0.6502538E-008  0.1493103E+04  0.7818608E-02  0.8914521E-01
          2   -1    0    0  501    0  0.00000000000E+00  0.00000000000E+00  0.22687617198E+04  0.22687617198E+04  0.25500000000E-02 0. -1.
         -2   -1    0    0    0  501 -0.00000000000E+00 -0.00000000000E+00 -0.12467972432E+04  0.12467972432E+04  0.25500000000E-02 0.  1.
    8880023    1    1    2    0    0 -0.70397174052E+03 -0.11401627504E+04  0.14691265686E+04  0.20946814530E+04  0.65864270000E+03 0. -1.
    8880022    1    1    2    0    0  0.70397174052E+03  0.11401627504E+04 -0.44716209198E+03  0.14208775100E+04  0.15294330000E+03 0.  0.
<mgrwt>
<rscale>  0 0.14556088E+04</rscale>
<asrwt>0</asrwt>
<pdfrwt beam="1">  1        2 0.34904026E+00 0.14931033E+04</pdfrwt>
<pdfrwt beam="2">  1       -2 0.19181496E+00 0.14931033E+04</pdfrwt>
<totfact> 0.66938021E-01</totfact>
</mgrwt>
</event>
<event>
 4    1  0.6502538E-008  0.8141749E+03  0.7818608E-02  0.9680945E-01
         -2   -1    0    0    0  501 -0.00000000000E+00  0.00000000000E+00  0.71830191824E+03  0.71830191824E+03  0.25500000000E-02 0.  1.
          2   -1    0    0  501    0  0.00000000000E+00 -0.00000000000E+00 -0.91477922897E+03  0.91477922898E+03  0.25500000000E-02 0. -1.
    8880023    1    1    2    0    0  0.83011860490E+02  0.47135928936E+03 -0.58112779253E+03  0.10002950895E+04  0.65864270000E+03 0. -1.
    8880022    1    1    2    0    0 -0.83011860490E+02 -0.47135928936E+03  0.38465048179E+03  0.63278605768E+03  0.15294330000E+03 0.  0.
<mgrwt>
<rscale>  0 0.72162708E+03</rscale>
<asrwt>0</asrwt>
<pdfrwt beam="1">  1        2 0.14073527E+00 0.81417489E+03</pdfrwt>
<pdfrwt beam="2">  1       -2 0.11050799E+00 0.81417489E+03</pdfrwt>
<totfact> 0.18791042E+01</totfact>
</mgrwt>
</event>
<event>
 4    1  0.6502538E-008  0.1126054E+04  0.7818608E-02  0.9232588E-01
          2   -1    0    0  501    0  0.00000000000E+00  0.00000000000E+00  0.28662851628E+04  0.28662851628E+04  0.25500000000E-02 0. -1.
         -2   -1    0    0    0  501 -0.00000000000E+00 -0.00000000000E+00 -0.42285771033E+03  0.42285771034E+03  0.25500000000E-02 0.  1.
    8880023    1    1    2    0    0 -0.89032487370E+03 -0.20373947748E+03  0.19187807081E+04  0.22247961181E+04  0.65864270000E+03 0.  0.
    8880022    1    1    2    0    0  0.89032487370E+03  0.20373947748E+03  0.52464674438E+03  0.10643467550E+04  0.15294330000E+03 0.  0.
<mgrwt>
<rscale>  0 0.10723309E+04</rscale>
<asrwt>0</asrwt>
<pdfrwt beam="1">  1        2 0.44096693E+00 0.11260543E+04</pdfrwt>
<pdfrwt beam="2">  1       -2 0.65055035E-01 0.11260543E+04</pdfrwt>
<totfact> 0.46031312E+00</totfact>
</mgrwt>
</event>
<event>
 4    1  0.6502538E-008  0.8449156E+03  0.7818608E-02  0.9620980E-01
          2   -1    0    0  501    0  0.00000000000E+00  0.00000000000E+00  0.73004396485E+03  0.73004396485E+03  0.25500000000E-02 0. -1.
         -2   -1    0    0    0  501 -0.00000000000E+00 -0.00000000000E+00 -0.10993980047E+04  0.10993980047E+04  0.25500000000E-02 0.  1.
    8880023    1    1    2    0    0  0.34473162389E+03  0.40153740536E+03  0.35748818928E+03  0.91743130105E+03  0.65864270000E+03 0. -1.
    8880022    1    1    2    0    0 -0.34473162389E+03 -0.40153740536E+03 -0.72684222914E+03  0.91201066852E+03  0.15294330000E+03 0.  0.
<mgrwt>
<rscale>  0 0.75923001E+03</rscale>
<asrwt>0</asrwt>
<pdfrwt beam="1">  1        2 0.11231446E+00 0.84491561E+03</pdfrwt>
<pdfrwt beam="2">  1       -2 0.16913815E+00 0.84491561E+03</pdfrwt>
<totfact> 0.84509915E+00</totfact>
</mgrwt>
</event>
<event>
 4    1  0.6502538E-008  0.9393962E+03  0.7818608E-02  0.9465538E-01
         -2   -1    0    0    0  501 -0.00000000000E+00  0.00000000000E+00  0.11590172820E+04  0.11590172820E+04  0.25500000000E-02 0.  1.
          2   -1    0    0  501    0  0.00000000000E+00 -0.00000000000E+00 -0.91365351769E+03  0.91365351769E+03  0.25500000000E-02 0. -1.
    8880023    1    1    2    0    0 -0.53048628079E+03  0.40894912118E+03 -0.49566286163E+03  0.10621426253E+04  0.65864270000E+03 0.  0.
    8880022    1    1    2    0    0  0.53048628079E+03 -0.40894912118E+03  0.74102662590E+03  0.10105281743E+04  0.15294330000E+03 0.  0.
<mgrwt>
<rscale>  0 0.86872983E+03</rscale>
<asrwt>0</asrwt>
<pdfrwt beam="1">  1        2 0.14056208E+00 0.93939623E+03</pdfrwt>
<pdfrwt beam="2">  1       -2 0.17831035E+00 0.93939623E+03</pdfrwt>
<totfact> 0.53348500E+00</totfact>
</mgrwt>
</event>
<event>
 4    1  0.6502538E-008  0.1362900E+04  0.7818608E-02  0.9013060E-01
          2   -1    0    0  501    0  0.00000000000E+00  0.00000000000E+00  0.16559981878E+04  0.16559981878E+04  0.25500000000E-02 0. -1.
         -2   -1    0    0    0  501 -0.00000000000E+00 -0.00000000000E+00 -0.20732603963E+04  0.20732603963E+04  0.25500000000E-02 0.  1.
    8880023    1    1    2    0    0  0.46894040185E+03 -0.10971693445E+04  0.11292744338E+04  0.17699594978E+04  0.65864270000E+03 0.  0.
    8880022    1    1    2    0    0 -0.46894040185E+03  0.10971693445E+04 -0.15465366423E+04  0.19592990864E+04  0.15294330000E+03 0.  0.
<mgrwt>
<rscale>  0 0.13210201E+04</rscale>
<asrwt>0</asrwt>
<pdfrwt beam="1">  1        2 0.25476895E+00 0.13628998E+04</pdfrwt>
<pdfrwt beam="2">  1       -2 0.31896314E+00 0.13628998E+04</pdfrwt>
<totfact> 0.24103520E-01</totfact>
</mgrwt>
</event>
<event>
 4    1  0.6502538E-008  0.7376991E+03  0.7818608E-02  0.9866701E-01
         -2   -1    0    0    0  501 -0.00000000000E+00  0.00000000000E+00  0.65467873146E+03  0.65467873146E+03  0.25500000000E-02 0.  1.
          2   -1    0    0  501    0  0.00000000000E+00 -0.00000000000E+00 -0.34086585337E+04  0.34086585337E+04  0.25500000000E-02 0. -1.
    8880023    1    1    2    0    0  0.22650954829E+03  0.24307045719E+03 -0.33136365632E+04  0.33947587988E+04  0.65864270000E+03 0. -1.
    8880022    1    1    2    0    0 -0.22650954829E+03 -0.24307045719E+03  0.55965676096E+03  0.66857846639E+03  0.15294330000E+03 0.  0.
<mgrwt>
<rscale>  0 0.61902610E+03</rscale>
<asrwt>0</asrwt>
<pdfrwt beam="1">  1        2 0.52440899E+00 0.73769915E+03</pdfrwt>
<pdfrwt beam="2">  1       -2 0.10071981E+00 0.73769915E+03</pdfrwt>
<totfact> 0.83079684E-01</totfact>
</mgrwt>
</event>
<event>
 4    1  0.6593691E-008  0.1086443E+04  0.7818608E-02  0.9276302E-01
          2   -1    0    0  501    0  0.00000000000E+00  0.00000000000E+00  0.16611406067E+04  0.16611406067E+04  0.25500000000E-02 0. -1.
         -2   -1    0    0    0  501 -0.00000000000E+00 -0.00000000000E+00 -0.18903586542E+04  0.18903586542E+04  0.25500000000E-02 0.  1.
    8880023    1    1    2    0    0  0.15614819786E+02  0.86388968425E+03  0.13572558928E+04  0.17385347204E+04  0.65864270000E+03 0.  0.
    8880022    1    1    2    0    0 -0.15614819786E+02 -0.86388968425E+03 -0.15864739403E+04  0.18129645406E+04  0.15294330000E+03 0.  0.
<mgrwt>
<rscale>  0 0.10299414E+04</rscale>
<asrwt>0</asrwt>
<pdfrwt beam="1">  1        2 0.25556009E+00 0.10864435E+04</pdfrwt>
<pdfrwt beam="2">  1       -2 0.29082441E+00 0.10864435E+04</pdfrwt>
<totfact> 0.36955116E-01</totfact>
</mgrwt>
</event>
<event>
 4    1  0.6502538E-008  0.9245626E+03  0.7818608E-02  0.9487698E-01
          2   -1    0    0  501    0  0.00000000000E+00  0.00000000000E+00  0.34647555115E+04  0.34647555115E+04  0.25500000000E-02 0. -1.
         -2   -1    0    0    0  501 -0.00000000000E+00 -0.00000000000E+00 -0.52522241381E+03  0.52522241382E+03  0.25500000000E-02 0.  1.
    8880023    1    1    2    0    0 -0.64846776413E+03 -0.22256997056E+02  0.31563483376E+04  0.32889741333E+04  0.65864270000E+03 0. -1.
    8880022    1    1    2    0    0  0.64846776413E+03  0.22256997056E+02 -0.21681523998E+03  0.70100379195E+03  0.15294330000E+03 0.  0.
<mgrwt>
<rscale>  0 0.85196880E+03</rscale>
<asrwt>0</asrwt>
<pdfrwt beam="1">  1        2 0.53303930E+00 0.92456261E+03</pdfrwt>
<pdfrwt beam="2">  1       -2 0.80803449E-01 0.92456261E+03</pdfrwt>
<totfact> 0.12186223E+00</totfact>
</mgrwt>
</event>
<event>
 4    1  0.6502538E-008  0.1546371E+04  0.7818608E-02  0.8877568E-01
         -2   -1    0    0    0  501 -0.00000000000E+00  0.00000000000E+00  0.96079289328E+03  0.96079289329E+03  0.25500000000E-02 0.  1.
          2   -1    0    0  501    0  0.00000000000E+00 -0.00000000000E+00 -0.30424856403E+04  0.30424856403E+04  0.25500000000E-02 0. -1.
    8880023    1    1    2    0    0  0.13990377429E+04 -0.12043561789E+02 -0.20849884985E+04  0.25958503228E+04  0.65864270000E+03 0.  0.
    8880022    1    1    2    0    0 -0.13990377429E+04  0.12043561789E+02  0.32957514267E+01  0.14074282108E+04  0.15294330000E+03 0.  0.
<mgrwt>
<rscale>  0 0.15103981E+04</rscale>
<asrwt>0</asrwt>
<pdfrwt beam="1">  1        2 0.46807471E+00 0.15463705E+04</pdfrwt>
<pdfrwt beam="2">  1       -2 0.14781429E+00 0.15463705E+04</pdfrwt>
<totfact> 0.48112632E-01</totfact>
</mgrwt>
</event>
<event>
 4    1  0.6502538E-008  0.9443504E+03  0.7818608E-02  0.9458290E-01
          2   -1    0    0  501    0  0.00000000000E+00  0.00000000000E+00  0.11021983982E+04  0.11021983982E+04  0.25500000000E-02 0. -1.
         -2   -1    0    0    0  501 -0.00000000000E+00 -0.00000000000E+00 -0.84043441260E+03  0.84043441260E+03  0.25500000000E-02 0.  1.
    8880023    1    1    2    0    0  0.44382914854E+03  0.51088475752E+03  0.65109204764E+03  0.11470477799E+04  0.65864270000E+03 0.  0.
    8880022    1    1    2    0    0 -0.44382914854E+03 -0.51088475752E+03 -0.38932806203E+03  0.79558503094E+03  0.15294330000E+03 0.  0.
<mgrwt>
<rscale>  0 0.87430066E+03</rscale>
<asrwt>0</asrwt>
<pdfrwt beam="1">  1        2 0.16956898E+00 0.94435044E+03</pdfrwt>
<pdfrwt beam="2">  1       -2 0.12929760E+00 0.94435044E+03</pdfrwt>
<totfact> 0.95364191E+00</totfact>
</mgrwt>
</event>
<event>
 4    1  0.6502538E-008  0.9070108E+03  0.7818608E-02  0.9514869E-01
         -2   -1    0    0    0  501 -0.00000000000E+00  0.00000000000E+00  0.15985041344E+04  0.15985041344E+04  0.25500000000E-02 0.  1.
          2   -1    0    0  501    0  0.00000000000E+00 -0.00000000000E+00 -0.10933064538E+04  0.10933064538E+04  0.25500000000E-02 0. -1.
    8880023    1    1    2    0    0  0.39558295644E+03  0.48205033186E+03 -0.81779107665E+03  0.12212497080E+04  0.65864270000E+03 0. -1.
    8880022    1    1    2    0    0 -0.39558295644E+03 -0.48205033186E+03  0.13229887572E+04  0.14705608802E+04  0.15294330000E+03 0.  0.
<mgrwt>
<rscale>  0 0.83196381E+03</rscale>
<asrwt>0</asrwt>
<pdfrwt beam="1">  1        2 0.16820099E+00 0.90701081E+03</pdfrwt>
<pdfrwt beam="2">  1       -2 0.24592371E+00 0.90701081E+03</pdfrwt>
<totfact> 0.15110537E+00</totfact>
</mgrwt>
</event>
<event>
 4    1  0.6502538E-008  0.7692408E+03  0.7818608E-02  0.9781746E-01
         -2   -1    0    0    0  501 -0.00000000000E+00  0.00000000000E+00  0.42787950427E+03  0.42787950428E+03  0.25500000000E-02 0.  1.
          2   -1    0    0  501    0  0.00000000000E+00 -0.00000000000E+00 -0.14703753505E+04  0.14703753505E+04  0.25500000000E-02 0. -1.
    8880023    1    1    2    0    0  0.12636598683E+03 -0.37676620464E+03 -0.12156483995E+04  0.14385869362E+04  0.65864270000E+03 0. -1.
    8880022    1    1    2    0    0 -0.12636598683E+03  0.37676620464E+03  0.17315255331E+03  0.45966791853E+03  0.15294330000E+03 0.  0.
<mgrwt>
<rscale>  0 0.66351427E+03</rscale>
<asrwt>0</asrwt>
<pdfrwt beam="1">  1        2 0.22621159E+00 0.76924076E+03</pdfrwt>
<pdfrwt beam="2">  1       -2 0.65827617E-01 0.76924076E+03</pdfrwt>
<totfact> 0.28608059E+01</totfact>
</mgrwt>
</event>
<event>
 4    1  0.6502538E-008  0.8184632E+03  0.7818608E-02  0.9672211E-01
         -2   -1    0    0    0  501 -0.00000000000E+00  0.00000000000E+00  0.62186299718E+03  0.62186299718E+03  0.25500000000E-02 0.  1.
          2   -1    0    0  501    0  0.00000000000E+00 -0.00000000000E+00 -0.23786920741E+04  0.23786920741E+04  0.25500000000E-02 0. -1.
    8880023    1    1    2    0    0  0.28486241522E+03  0.39360530254E+03 -0.21861810412E+04  0.23343670408E+04  0.65864270000E+03 0. -1.
    8880022    1    1    2    0    0 -0.28486241522E+03 -0.39360530254E+03  0.42935196427E+03  0.66618803054E+03  0.15294330000E+03 0.  0.
<mgrwt>
<rscale>  0 0.72695723E+03</rscale>
<asrwt>0</asrwt>
<pdfrwt beam="1">  1        2 0.36595262E+00 0.81846315E+03</pdfrwt>
<pdfrwt beam="2">  1       -2 0.95671232E-01 0.81846315E+03</pdfrwt>
<totfact> 0.38766616E+00</totfact>
</mgrwt>
</event>
<event>
 4    1  0.6502538E-008  0.7907256E+03  0.7818608E-02  0.9731220E-01
          2   -1    0    0  501    0  0.00000000000E+00  0.00000000000E+00  0.16905348989E+04  0.16905348989E+04  0.25500000000E-02 0. -1.
         -2   -1    0    0    0  501 -0.00000000000E+00 -0.00000000000E+00 -0.24645768425E+03  0.24645768427E+03  0.25500000000E-02 0.  1.
    8880023    1    1    2    0    0  0.43503213525E+03  0.46731066111E+02  0.11217688313E+04  0.13724475467E+04  0.65864270000E+03 0. -1.
    8880022    1    1    2    0    0 -0.43503213525E+03 -0.46731066111E+02  0.32230838336E+03  0.56454503650E+03  0.15294330000E+03 0.  0.
<mgrwt>
<rscale>  0 0.69188005E+03</rscale>
<asrwt>0</asrwt>
<pdfrwt beam="1">  1        2 0.26008229E+00 0.79072559E+03</pdfrwt>
<pdfrwt beam="2">  1       -2 0.37916567E-01 0.79072559E+03</pdfrwt>
<totfact> 0.66397890E+01</totfact>
</mgrwt>
</event>
<event>
 4    1  0.6502538E-008  0.1493442E+04  0.7818608E-02  0.8914281E-01
          2   -1    0    0  501    0  0.00000000000E+00  0.00000000000E+00  0.13245573401E+04  0.13245573401E+04  0.25500000000E-02 0. -1.
         -2   -1    0    0    0  501 -0.00000000000E+00 -0.00000000000E+00 -0.23168978385E+04  0.23168978385E+04  0.25500000000E-02 0.  1.
    8880023    1    1    2    0    0 -0.11032751856E+04  0.76114510060E+03  0.55079002065E+03  0.15917719222E+04  0.65864270000E+03 0.  0.
    8880022    1    1    2    0    0  0.11032751856E+04 -0.76114510060E+03 -0.15431305191E+04  0.20496832563E+04  0.15294330000E+03 0.  0.
<mgrwt>
<rscale>  0 0.14559573E+04</rscale>
<asrwt>0</asrwt>
<pdfrwt beam="1">  1        2 0.20377805E+00 0.14934417E+04</pdfrwt>
<pdfrwt beam="2">  1       -2 0.35644582E+00 0.14934417E+04</pdfrwt>
<totfact> 0.21411245E-01</totfact>
</mgrwt>
</event>
<event>
 4    1  0.6502538E-008  0.6708953E+03  0.7818608E-02  0.1015029E+00
         -2   -1    0    0    0  501 -0.00000000000E+00  0.00000000000E+00  0.64888750174E+03  0.64888750174E+03  0.25500000000E-02 0.  1.
          2   -1    0    0  501    0  0.00000000000E+00 -0.00000000000E+00 -0.33822391666E+04  0.33822391666E+04  0.25500000000E-02 0. -1.
    8880023    1    1    2    0    0  0.89084551049E+02  0.91401179244E+02 -0.33326916185E+04  0.33995490676E+04  0.65864270000E+03 0. -1.
    8880022    1    1    2    0    0 -0.89084551049E+02 -0.91401179244E+02  0.59933995360E+03  0.63157760077E+03  0.15294330000E+03 0.  0.
<mgrwt>
<rscale>  0 0.49523927E+03</rscale>
<asrwt>0</asrwt>
<pdfrwt beam="1">  1        2 0.52034447E+00 0.67089525E+03</pdfrwt>
<pdfrwt beam="2">  1       -2 0.99828849E-01 0.67089525E+03</pdfrwt>
<totfact> 0.89871175E-01</totfact>
</mgrwt>
</event>
<event>
 4    1  0.6502538E-008  0.7312489E+03  0.7818608E-02  0.9886213E-01
          2   -1    0    0  501    0  0.00000000000E+00  0.00000000000E+00  0.13687129902E+04  0.13687129902E+04  0.25500000000E-02 0. -1.
         -2   -1    0    0    0  501 -0.00000000000E+00 -0.00000000000E+00 -0.92774949051E+03  0.92774949051E+03  0.25500000000E-02 0.  1.
    8880023    1    1    2    0    0  0.24682034785E+03  0.19998618067E+03  0.12307248383E+04  0.14315755623E+04  0.65864270000E+03 0. -1.
    8880022    1    1    2    0    0 -0.24682034785E+03 -0.19998618067E+03 -0.78976133867E+03  0.86488691841E+03  0.15294330000E+03 0.  0.
<mgrwt>
<rscale>  0 0.60934130E+03</rscale>
<asrwt>0</asrwt>
<pdfrwt beam="1">  1        2 0.21057123E+00 0.73124891E+03</pdfrwt>
<pdfrwt beam="2">  1       -2 0.14273069E+00 0.73124891E+03</pdfrwt>
<totfact> 0.52870945E+00</totfact>
</mgrwt>
</event>
<event>
 4    1  0.6502538E-008  0.1057674E+04  0.7818608E-02  0.9309713E-01
         -2   -1    0    0    0  501 -0.00000000000E+00  0.00000000000E+00  0.94687400976E+03  0.94687400976E+03  0.25500000000E-02 0.  1.
          2   -1    0    0  501    0  0.00000000000E+00 -0.00000000000E+00 -0.11935563341E+04  0.11935563341E+04  0.25500000000E-02 0. -1.
    8880023    1    1    2    0    0 -0.12192766573E+03 -0.81853390506E+03 -0.61312034043E+03  0.12225346079E+04  0.65864270000E+03 0.  0.
    8880022    1    1    2    0    0  0.12192766573E+03  0.81853390506E+03  0.36643801611E+03  0.91789573594E+03  0.15294330000E+03 0.  0.
<mgrwt>
<rscale>  0 0.99893594E+03</rscale>
<asrwt>0</asrwt>
<pdfrwt beam="1">  1        2 0.18362405E+00 0.10576740E+04</pdfrwt>
<pdfrwt beam="2">  1       -2 0.14567292E+00 0.10576740E+04</pdfrwt>
<totfact> 0.60986306E+00</totfact>
</mgrwt>
</event>
<event>
 4    1  0.6502538E-008  0.7785446E+03  0.7818608E-02  0.9759267E-01
          2   -1    0    0  501    0  0.00000000000E+00  0.00000000000E+00  0.17853138871E+04  0.17853138871E+04  0.25500000000E-02 0. -1.
         -2   -1    0    0    0  501 -0.00000000000E+00 -0.00000000000E+00 -0.53478513958E+03  0.53478513958E+03  0.25500000000E-02 0.  1.
    8880023    1    1    2    0    0 -0.10205527915E+03 -0.40237565786E+03  0.15847397006E+04  0.17656532997E+04  0.65864270000E+03 0. -1.
    8880022    1    1    2    0    0  0.10205527915E+03  0.40237565786E+03 -0.33421095301E+03  0.55444572698E+03  0.15294330000E+03 0.  0.
<mgrwt>
<rscale>  0 0.67595082E+03</rscale>
<asrwt>0</asrwt>
<pdfrwt beam="1">  1        2 0.27466367E+00 0.77854458E+03</pdfrwt>
<pdfrwt beam="2">  1       -2 0.82274638E-01 0.77854458E+03</pdfrwt>
<totfact> 0.11706970E+01</totfact>
</mgrwt>
</event>
<event>
 4    1  0.6502538E-008  0.1664507E+04  0.7818608E-02  0.8801438E-01
         -2   -1    0    0    0  501 -0.00000000000E+00  0.00000000000E+00  0.13564515500E+04  0.13564515500E+04  0.25500000000E-02 0.  1.
          2   -1    0    0  501    0  0.00000000000E+00 -0.00000000000E+00 -0.28403785979E+04  0.28403785979E+04  0.25500000000E-02 0. -1.
    8880023    1    1    2    0    0  0.59642918369E+02 -0.15274863191E+04 -0.19760309475E+04  0.25836563712E+04  0.65864270000E+03 0.  0.
    8880022    1    1    2    0    0 -0.59642918369E+02  0.15274863191E+04  0.49210389968E+03  0.16131737767E+04  0.15294330000E+03 0.  1.
<mgrwt>
<rscale>  0 0.16314805E+04</rscale>
<asrwt>0</asrwt>
<pdfrwt beam="1">  1        2 0.43698132E+00 0.16645065E+04</pdfrwt>
<pdfrwt beam="2">  1       -2 0.20868485E+00 0.16645065E+04</pdfrwt>
<totfact> 0.23558432E-01</totfact>
</mgrwt>
</event>
<event>
 4    1  0.6502538E-008  0.1002048E+04  0.7818608E-02  0.9378883E-01
         -2   -1    0    0    0  501 -0.00000000000E+00  0.00000000000E+00  0.15740900297E+04  0.15740900297E+04  0.25500000000E-02 0.  1.
          2   -1    0    0  501    0  0.00000000000E+00 -0.00000000000E+00 -0.13043405402E+04  0.13043405402E+04  0.25500000000E-02 0. -1.
    8880023    1    1    2    0    0 -0.32437732154E+03  0.68195983629E+03 -0.98556934727E+03  0.14055059621E+04  0.65864270000E+03 0.  0.
    8880022    1    1    2    0    0  0.32437732154E+03 -0.68195983629E+03  0.12553188368E+04  0.14729246077E+04  0.15294330000E+03 0.  0.
<mgrwt>
<rscale>  0 0.93834072E+03</rscale>
<asrwt>0</asrwt>
<pdfrwt beam="1">  1        2 0.20066778E+00 0.10020479E+04</pdfrwt>
<pdfrwt beam="2">  1       -2 0.24216770E+00 0.10020479E+04</pdfrwt>
<totfact> 0.11757118E+00</totfact>
</mgrwt>
</event>
<event>
 4    1  0.6502538E-008  0.7252878E+03  0.7818608E-02  0.9905084E-01
          2   -1    0    0  501    0  0.00000000000E+00  0.00000000000E+00  0.28491478031E+04  0.28491478031E+04  0.25500000000E-02 0. -1.
         -2   -1    0    0    0  501 -0.00000000000E+00 -0.00000000000E+00 -0.10047548621E+03  0.10047548625E+03  0.25500000000E-02 0.  1.
    8880023    1    1    2    0    0  0.24890905524E+02  0.30267568996E+03  0.19965654173E+04  0.21242212226E+04  0.65864270000E+03 0.  0.
    8880022    1    1    2    0    0 -0.24890905524E+02 -0.30267568996E+03  0.75210689959E+03  0.82540206681E+03  0.15294330000E+03 0.  0.
<mgrwt>
<rscale>  0 0.60015532E+03</rscale>
<asrwt>0</asrwt>
<pdfrwt beam="1">  1        2 0.43833037E+00 0.72528776E+03</pdfrwt>
<pdfrwt beam="2">  1       -2 0.15457769E-01 0.72528776E+03</pdfrwt>
<totfact> 0.75686815E+01</totfact>
</mgrwt>
</event>
<event>
 4    1  0.6502538E-008  0.8689930E+03  0.7818608E-02  0.9577763E-01
          2   -1    0    0  501    0  0.00000000000E+00  0.00000000000E+00  0.11023184995E+04  0.11023184995E+04  0.25500000000E-02 0. -1.
         -2   -1    0    0    0  501 -0.00000000000E+00 -0.00000000000E+00 -0.50787042963E+03  0.50787042963E+03  0.25500000000E-02 0.  1.
    8880023    1    1    2    0    0 -0.41708162827E+03  0.38390294199E+03  0.53398774452E+03  0.10199468962E+04  0.65864270000E+03 0.  1.
    8880022    1    1    2    0    0  0.41708162827E+03 -0.38390294199E+03  0.60460325374E+02  0.59024203296E+03  0.15294330000E+03 0.  0.
<mgrwt>
<rscale>  0 0.78785648E+03</rscale>
<asrwt>0</asrwt>
<pdfrwt beam="1">  1        2 0.16958746E+00 0.86899296E+03</pdfrwt>
<pdfrwt beam="2">  1       -2 0.78133912E-01 0.86899296E+03</pdfrwt>
<totfact> 0.31845987E+01</totfact>
</mgrwt>
</event>
<event>
 4    1  0.6502538E-008  0.1104527E+04  0.7818608E-02  0.9256033E-01
          2   -1    0    0  501    0  0.00000000000E+00  0.00000000000E+00  0.16628131852E+04  0.16628131852E+04  0.25500000000E-02 0. -1.
         -2   -1    0    0    0  501 -0.00000000000E+00 -0.00000000000E+00 -0.62537261348E+03  0.62537261348E+03  0.25500000000E-02 0.  1.
    8880023    1    1    2    0    0 -0.50962967250E+03 -0.72556664629E+03  0.35931327914E+03  0.11615014422E+04  0.65864270000E+03 0. -1.
    8880022    1    1    2    0    0  0.50962967250E+03  0.72556664629E+03  0.67812729260E+03  0.11266843565E+04  0.15294330000E+03 0.  1.
<mgrwt>
<rscale>  0 0.10493332E+04</rscale>
<asrwt>0</asrwt>
<pdfrwt beam="1">  1        2 0.25581741E+00 0.11045269E+04</pdfrwt>
<pdfrwt beam="2">  1       -2 0.96211172E-01 0.11045269E+04</pdfrwt>
<totfact> 0.91827468E+00</totfact>
</mgrwt>
</event>
<event>
 4    1  0.6502538E-008  0.9215928E+03  0.7818608E-02  0.9492221E-01
         -2   -1    0    0    0  501 -0.00000000000E+00  0.00000000000E+00  0.19692439046E+04  0.19692439046E+04  0.25500000000E-02 0.  1.
          2   -1    0    0  501    0  0.00000000000E+00 -0.00000000000E+00 -0.34362930310E+03  0.34362930311E+03  0.25500000000E-02 0. -1.
    8880023    1    1    2    0    0  0.44368259217E+03  0.46762033631E+03  0.62765690246E+03  0.11150275400E+04  0.65864270000E+03 0.  0.
    8880022    1    1    2    0    0 -0.44368259217E+03 -0.46762033631E+03  0.99795769903E+03  0.11978456677E+04  0.15294330000E+03 0.  0.
<mgrwt>
<rscale>  0 0.84859761E+03</rscale>
<asrwt>0</asrwt>
<pdfrwt beam="1">  1        2 0.52866046E-01 0.92159277E+03</pdfrwt>
<pdfrwt beam="2">  1       -2 0.30296060E+00 0.92159277E+03</pdfrwt>
<totfact> 0.29280566E+00</totfact>
</mgrwt>
</event>
<event>
 4    1  0.6502538E-008  0.6629895E+03  0.7818608E-02  0.1021283E+00
         -2   -1    0    0    0  501 -0.00000000000E+00  0.00000000000E+00  0.28904635023E+03  0.28904635024E+03  0.25500000000E-02 0.  1.
          2   -1    0    0  501    0  0.00000000000E+00 -0.00000000000E+00 -0.10979504205E+04  0.10979504205E+04  0.25500000000E-02 0. -1.
    8880023    1    1    2    0    0 -0.44679835881E+02  0.61225167790E+02 -0.95482562398E+03  0.11624314979E+04  0.65864270000E+03 0. -1.
    8880022    1    1    2    0    0  0.44679835881E+02 -0.61225167790E+02  0.14592155371E+03  0.22456527282E+03  0.15294330000E+03 0.  0.
<mgrwt>
<rscale>  0 0.47226370E+03</rscale>
<asrwt>0</asrwt>
<pdfrwt beam="1">  1        2 0.16891545E+00 0.66298945E+03</pdfrwt>
<pdfrwt beam="2">  1       -2 0.44468670E-01 0.66298945E+03</pdfrwt>
<totfact> 0.10699911E+02</totfact>
</mgrwt>
</event>
<event>
 4    1  0.6502538E-008  0.7028545E+03  0.7818608E-02  0.9985560E-01
          2   -1    0    0  501    0  0.00000000000E+00  0.00000000000E+00  0.15458972611E+04  0.15458972611E+04  0.25500000000E-02 0. -1.
         -2   -1    0    0    0  501 -0.00000000000E+00 -0.00000000000E+00 -0.18971707017E+03  0.18971707019E+03  0.25500000000E-02 0.  1.
    8880023    1    1    2    0    0  0.12391368235E+03  0.21175357602E+03  0.59329746575E+03  0.91978598965E+03  0.65864270000E+03 0.  1.
    8880022    1    1    2    0    0 -0.12391368235E+03 -0.21175357602E+03  0.76288272515E+03  0.81582834161E+03  0.15294330000E+03 0.  0.
<mgrwt>
<rscale>  0 0.56287976E+03</rscale>
<asrwt>0</asrwt>
<pdfrwt beam="1">  1        2 0.23783034E+00 0.70285445E+03</pdfrwt>
<pdfrwt beam="2">  1       -2 0.29187242E-01 0.70285445E+03</pdfrwt>
<totfact> 0.13182461E+02</totfact>
</mgrwt>
</event>
<event>
 4    1  0.6502538E-008  0.9390336E+03  0.7818608E-02  0.9466071E-01
          2   -1    0    0  501    0  0.00000000000E+00  0.00000000000E+00  0.19645800554E+04  0.19645800554E+04  0.25500000000E-02 0. -1.
         -2   -1    0    0    0  501 -0.00000000000E+00 -0.00000000000E+00 -0.95301466265E+03  0.95301466266E+03  0.25500000000E-02 0.  1.
    8880023    1    1    2    0    0 -0.62032246230E+03 -0.25134434060E+03  0.17020309617E+04  0.19438861941E+04  0.65864270000E+03 0. -1.
    8880022    1    1    2    0    0  0.62032246230E+03  0.25134434060E+03 -0.69046556893E+03  0.97370852398E+03  0.15294330000E+03 0.  0.
<mgrwt>
<rscale>  0 0.86832157E+03</rscale>
<asrwt>0</asrwt>
<pdfrwt beam="1">  1        2 0.30224308E+00 0.93903362E+03</pdfrwt>
<pdfrwt beam="2">  1       -2 0.14661764E+00 0.93903362E+03</pdfrwt>
<totfact> 0.22379266E+00</totfact>
</mgrwt>
</event>
<event>
 4    1  0.6502538E-008  0.1138421E+04  0.7818608E-02  0.9219438E-01
          2   -1    0    0  501    0  0.00000000000E+00  0.00000000000E+00  0.24116270611E+04  0.24116270611E+04  0.25500000000E-02 0. -1.
         -2   -1    0    0    0  501 -0.00000000000E+00 -0.00000000000E+00 -0.18422203292E+04  0.18422203292E+04  0.25500000000E-02 0.  1.
    8880023    1    1    2    0    0 -0.61253520086E+03  0.69784877678E+03  0.21393919155E+04  0.24234273791E+04  0.65864270000E+03 0.  0.
    8880022    1    1    2    0    0  0.61253520086E+03 -0.69784877678E+03 -0.15699851836E+04  0.18304200112E+04  0.15294330000E+03 0.  0.
<mgrwt>
<rscale>  0 0.10855027E+04</rscale>
<asrwt>0</asrwt>
<pdfrwt beam="1">  1        2 0.37101955E+00 0.11384211E+04</pdfrwt>
<pdfrwt beam="2">  1       -2 0.28341851E+00 0.11384211E+04</pdfrwt>
<totfact> 0.15540894E-01</totfact>
</mgrwt>
</event>
<event>
 4    1  0.6502538E-008  0.1381715E+04  0.7818608E-02  0.8998022E-01
          2   -1    0    0  501    0  0.00000000000E+00  0.00000000000E+00  0.24614364933E+04  0.24614364933E+04  0.25500000000E-02 0. -1.
         -2   -1    0    0    0  501 -0.00000000000E+00 -0.00000000000E+00 -0.79556862684E+03  0.79556862685E+03  0.25500000000E-02 0.  1.
    8880023    1    1    2    0    0  0.10875759001E+04 -0.54083839064E+03  0.28353883331E+03  0.14105077028E+04  0.65864270000E+03 0.  0.
    8880022    1    1    2    0    0 -0.10875759001E+04  0.54083839064E+03  0.13823290331E+04  0.18464974173E+04  0.15294330000E+03 0.  0.
<mgrwt>
<rscale>  0 0.13405376E+04</rscale>
<asrwt>0</asrwt>
<pdfrwt beam="1">  1        2 0.37868254E+00 0.13817155E+04</pdfrwt>
<pdfrwt beam="2">  1       -2 0.12239517E+00 0.13817155E+04</pdfrwt>
<totfact> 0.17790448E+00</totfact>
</mgrwt>
</event>
<event>
 4    1  0.6502538E-008  0.6610606E+03  0.7818608E-02  0.1023095E+00
         -2   -1    0    0    0  501 -0.00000000000E+00  0.00000000000E+00  0.13829556101E+03  0.13829556103E+03  0.25500000000E-02 0.  1.
          2   -1    0    0  501    0  0.00000000000E+00 -0.00000000000E+00 -0.28377951170E+04  0.28377951170E+04  0.25500000000E-02 0. -1.
    8880023    1    1    2    0    0  0.27128719640E+02  0.49547134110E+02 -0.27311422613E+04  0.28100069650E+04  0.65864270000E+03 0. -1.
    8880022    1    1    2    0    0 -0.27128719640E+02 -0.49547134110E+02  0.31642705245E+02  0.16608371304E+03  0.15294330000E+03 0.  0.
<mgrwt>
<rscale>  0 0.46586009E+03</rscale>
<asrwt>0</asrwt>
<pdfrwt beam="1">  1        2 0.43658382E+00 0.66106058E+03</pdfrwt>
<pdfrwt beam="2">  1       -2 0.21276242E-01 0.66106058E+03</pdfrwt>
<totfact> 0.44705030E+01</totfact>
</mgrwt>
</event>
<event>
 4    1  0.6502538E-008  0.8402881E+03  0.7818608E-02  0.9629637E-01
         -2   -1    0    0    0  501 -0.00000000000E+00  0.00000000000E+00  0.52419209575E+03  0.52419209575E+03  0.25500000000E-02 0.  1.
          2   -1    0    0  501    0  0.00000000000E+00 -0.00000000000E+00 -0.11286134183E+04  0.11286134183E+04  0.25500000000E-02 0. -1.
    8880023    1    1    2    0    0 -0.22556684954E+03 -0.47052464825E+03 -0.70858030213E+03  0.10991679121E+04  0.65864270000E+03 0. -1.
    8880022    1    1    2    0    0  0.22556684954E+03  0.47052464825E+03  0.10415897958E+03  0.55363760192E+03  0.15294330000E+03 0.  0.
<mgrwt>
<rscale>  0 0.75365265E+03</rscale>
<asrwt>0</asrwt>
<pdfrwt beam="1">  1        2 0.17363283E+00 0.84028808E+03</pdfrwt>
<pdfrwt beam="2">  1       -2 0.80644938E-01 0.84028808E+03</pdfrwt>
<totfact> 0.28654524E+01</totfact>
</mgrwt>
</event>
<event>
 4    1  0.6502538E-008  0.1176457E+04  0.7818608E-02  0.9180354E-01
          2   -1    0    0  501    0  0.00000000000E+00  0.00000000000E+00  0.60751894108E+03  0.60751894108E+03  0.25500000000E-02 0. -1.
         -2   -1    0    0    0  501 -0.00000000000E+00 -0.00000000000E+00 -0.31544976243E+04  0.31544976243E+04  0.25500000000E-02 0.  1.
    8880023    1    1    2    0    0  0.21162106947E+03 -0.95155548171E+03 -0.25129499042E+04  0.27747015585E+04  0.65864270000E+03 0.  1.
    8880022    1    1    2    0    0 -0.21162106947E+03  0.95155548171E+03 -0.34028778988E+02  0.98731500679E+03  0.15294330000E+03 0.  0.
<mgrwt>
<rscale>  0 0.11258525E+04</rscale>
<asrwt>0</asrwt>
<pdfrwt beam="1">  1        2 0.93464454E-01 0.11764572E+04</pdfrwt>
<pdfrwt beam="2">  1       -2 0.48530732E+00 0.11764572E+04</pdfrwt>
<totfact> 0.98695435E-02</totfact>
</mgrwt>
</event>
<event>
 4    1  0.6502538E-008  0.9589099E+03  0.7818608E-02  0.9437409E-01
         -2   -1    0    0    0  501 -0.00000000000E+00  0.00000000000E+00  0.50704772682E+03  0.50704772683E+03  0.25500000000E-02 0.  1.
          2   -1    0    0  501    0  0.00000000000E+00 -0.00000000000E+00 -0.24665326790E+04  0.24665326790E+04  0.25500000000E-02 0. -1.
    8880023    1    1    2    0    0  0.63180114417E+03  0.29415183906E+03 -0.20413901682E+04  0.22553895485E+04  0.65864270000E+03 0. -1.
    8880022    1    1    2    0    0 -0.63180114417E+03 -0.29415183906E+03  0.81905216015E+02  0.71819085738E+03  0.15294330000E+03 0.  0.
<mgrwt>
<rscale>  0 0.89059988E+03</rscale>
<asrwt>0</asrwt>
<pdfrwt beam="1">  1        2 0.37946656E+00 0.95890990E+03</pdfrwt>
<pdfrwt beam="2">  1       -2 0.78007344E-01 0.95890990E+03</pdfrwt>
<totfact> 0.54064538E+00</totfact>
</mgrwt>
</event>
<event>
 4    1  0.6502538E-008  0.6792179E+03  0.7818608E-02  0.1009770E+00
          2   -1    0    0  501    0  0.00000000000E+00  0.00000000000E+00  0.10664035697E+04  0.10664035697E+04  0.25500000000E-02 0. -1.
         -2   -1    0    0    0  501 -0.00000000000E+00 -0.00000000000E+00 -0.58093383435E+03  0.58093383435E+03  0.25500000000E-02 0.  1.
    8880023    1    1    2    0    0  0.16590519214E+03 -0.15025287779E+01  0.92834595918E+03  0.11502883189E+04  0.65864270000E+03 0. -1.
    8880022    1    1    2    0    0 -0.16590519214E+03  0.15025287779E+01 -0.44287622386E+03  0.49704908514E+03  0.15294330000E+03 0.  0.
<mgrwt>
<rscale>  0 0.51566333E+03</rscale>
<asrwt>0</asrwt>
<pdfrwt beam="1">  1        2 0.16406208E+00 0.67921793E+03</pdfrwt>
<pdfrwt beam="2">  1       -2 0.89374438E-01 0.67921793E+03</pdfrwt>
<totfact> 0.25162166E+01</totfact>
</mgrwt>
</event>
<event>
 4    1  0.6502538E-008  0.8168922E+03  0.7818608E-02  0.9675395E-01
         -2   -1    0    0    0  501 -0.00000000000E+00  0.00000000000E+00  0.18062457726E+03  0.18062457727E+03  0.25500000000E-02 0.  1.
          2   -1    0    0  501    0  0.00000000000E+00 -0.00000000000E+00 -0.38465405311E+04  0.38465405311E+04  0.25500000000E-02 0. -1.
    8880023    1    1    2    0    0  0.21160210276E+03 -0.43442752467E+03 -0.33062493187E+04  0.34056713711E+04  0.65864270000E+03 0. -1.
    8880022    1    1    2    0    0 -0.21160210276E+03  0.43442752467E+03 -0.35966663520E+03  0.62149373736E+03  0.15294330000E+03 0.  0.
<mgrwt>
<rscale>  0 0.72500817E+03</rscale>
<asrwt>0</asrwt>
<pdfrwt beam="1">  1        2 0.59177541E+00 0.81689224E+03</pdfrwt>
<pdfrwt beam="2">  1       -2 0.27788399E-01 0.81689224E+03</pdfrwt>
<totfact> 0.57835739E+00</totfact>
</mgrwt>
</event>
<event>
 4    1  0.6502538E-008  0.7472488E+03  0.7818608E-02  0.9839313E-01
         -2   -1    0    0    0  501 -0.00000000000E+00  0.00000000000E+00  0.31263203593E+03  0.31263203594E+03  0.25500000000E-02 0.  1.
          2   -1    0    0  501    0  0.00000000000E+00 -0.00000000000E+00 -0.39494545759E+04  0.39494545759E+04  0.25500000000E-02 0. -1.
    8880023    1    1    2    0    0 -0.31913201472E+03  0.15074944283E+03 -0.37788659229E+04  0.38520395256E+04  0.65864270000E+03 0. -1.
    8880022    1    1    2    0    0  0.31913201472E+03 -0.15074944283E+03  0.14204338289E+03  0.41004708628E+03  0.15294330000E+03 0.  0.
<mgrwt>
<rscale>  0 0.63294769E+03</rscale>
<asrwt>0</asrwt>
<pdfrwt beam="1">  1        2 0.60760836E+00 0.74724885E+03</pdfrwt>
<pdfrwt beam="2">  1       -2 0.48097239E-01 0.74724885E+03</pdfrwt>
<totfact> 0.17058607E+00</totfact>
</mgrwt>
</event>
<event>
 4    1  0.6502538E-008  0.6641308E+03  0.7818608E-02  0.1020274E+00
          2   -1    0    0  501    0  0.00000000000E+00  0.00000000000E+00  0.24420349522E+04  0.24420349522E+04  0.25500000000E-02 0. -1.
         -2   -1    0    0    0  501 -0.00000000000E+00 -0.00000000000E+00 -0.23675873032E+03  0.23675873033E+03  0.25500000000E-02 0.  1.
    8880023    1    1    2    0    0 -0.51917605006E+01 -0.85044311426E+02  0.23559754071E+04  0.24477928455E+04  0.65864270000E+03 0. -1.
    8880022    1    1    2    0    0  0.51917605006E+01  0.85044311426E+02 -0.15069918521E+03  0.23100083706E+03  0.15294330000E+03 0.  0.
<mgrwt>
<rscale>  0 0.47587845E+03</rscale>
<asrwt>0</asrwt>
<pdfrwt beam="1">  1        2 0.37569769E+00 0.66413078E+03</pdfrwt>
<pdfrwt beam="2">  1       -2 0.36424419E-01 0.66413078E+03</pdfrwt>
<totfact> 0.28184801E+01</totfact>
</mgrwt>
</event>
<event>
 4    1  0.6502538E-008  0.9299128E+03  0.7818608E-02  0.9479624E-01
          2   -1    0    0  501    0  0.00000000000E+00  0.00000000000E+00  0.35256245167E+04  0.35256245167E+04  0.25500000000E-02 0. -1.
         -2   -1    0    0    0  501 -0.00000000000E+00 -0.00000000000E+00 -0.27862113430E+03  0.27862113432E+03  0.25500000000E-02 0.  1.
    8880023    1    1    2    0    0  0.49852009887E+03  0.42708936306E+03  0.68476561660E+03  0.11548340872E+04  0.65864270000E+03 0.  1.
    8880022    1    1    2    0    0 -0.49852009887E+03 -0.42708936306E+03  0.25622377658E+04  0.26494115638E+04  0.15294330000E+03 0.  0.
<mgrwt>
<rscale>  0 0.85802870E+03</rscale>
<asrwt>0</asrwt>
<pdfrwt beam="1">  1        2 0.54240381E+00 0.92991280E+03</pdfrwt>
<pdfrwt beam="2">  1       -2 0.42864787E-01 0.92991280E+03</pdfrwt>
<totfact> 0.42244893E+00</totfact>
</mgrwt>
</event>
<event>
 4    1  0.6502538E-008  0.8996942E+03  0.7818608E-02  0.9526523E-01
          2   -1    0    0  501    0  0.00000000000E+00  0.00000000000E+00  0.17688170415E+04  0.17688170415E+04  0.25500000000E-02 0. -1.
         -2   -1    0    0    0  501 -0.00000000000E+00 -0.00000000000E+00 -0.61931292392E+03  0.61931292392E+03  0.25500000000E-02 0.  1.
    8880023    1    1    2    0    0 -0.43201087004E+03  0.43474825582E+03  0.14359561803E+04  0.16945264223E+04  0.65864270000E+03 0.  0.
    8880022    1    1    2    0    0  0.43201087004E+03 -0.43474825582E+03 -0.28645206275E+03  0.69360354313E+03  0.15294330000E+03 0.  0.
<mgrwt>
<rscale>  0 0.82356339E+03</rscale>
<asrwt>0</asrwt>
<pdfrwt beam="1">  1        2 0.27212569E+00 0.89969419E+03</pdfrwt>
<pdfrwt beam="2">  1       -2 0.95278915E-01 0.89969419E+03</pdfrwt>
<totfact> 0.83932328E+00</totfact>
</mgrwt>
</event>
<event>
 4    1  0.6502538E-008  0.7429243E+03  0.7818608E-02  0.9851509E-01
          2   -1    0    0  501    0  0.00000000000E+00  0.00000000000E+00  0.12155010016E+04  0.12155010016E+04  0.25500000000E-02 0. -1.
         -2   -1    0    0    0  501 -0.00000000000E+00 -0.00000000000E+00 -0.25769847972E+03  0.25769847974E+03  0.25500000000E-02 0.  1.
    8880023    1    1    2    0    0 -0.62432262150E+02  0.33797712631E+03  0.62163659098E+03  0.96869426692E+03  0.65864270000E+03 0.  0.
    8880022    1    1    2    0    0  0.62432262150E+02 -0.33797712631E+03  0.33616593091E+03  0.50450521442E+03  0.15294330000E+03 0. -1.
<mgrwt>
<rscale>  0 0.62670027E+03</rscale>
<asrwt>0</asrwt>
<pdfrwt beam="1">  1        2 0.18700016E+00 0.74292431E+03</pdfrwt>
<pdfrwt beam="2">  1       -2 0.39645919E-01 0.74292431E+03</pdfrwt>
<totfact> 0.11327966E+02</totfact>
</mgrwt>
</event>
<event>
 4    1  0.6502538E-008  0.7593766E+03  0.7818608E-02  0.9806724E-01
          2   -1    0    0  501    0  0.00000000000E+00  0.00000000000E+00  0.31068025311E+04  0.31068025311E+04  0.25500000000E-02 0. -1.
         -2   -1    0    0    0  501 -0.00000000000E+00 -0.00000000000E+00 -0.34246571859E+03  0.34246571860E+03  0.25500000000E-02 0.  1.
    8880023    1    1    2    0    0 -0.32181154850E+03 -0.19819171075E+03  0.29167592840E+04  0.30139903043E+04  0.65864270000E+03 0.  0.
    8880022    1    1    2    0    0  0.32181154850E+03  0.19819171075E+03 -0.15242247151E+03  0.43527794544E+03  0.15294330000E+03 0.  0.
<mgrwt>
<rscale>  0 0.65002938E+03</rscale>
<asrwt>0</asrwt>
<pdfrwt beam="1">  1        2 0.47796962E+00 0.75937661E+03</pdfrwt>
<pdfrwt beam="2">  1       -2 0.52687034E-01 0.75937661E+03</pdfrwt>
<totfact> 0.54050353E+00</totfact>
</mgrwt>
</event>
<event>
 4    1  0.6502538E-008  0.9708273E+03  0.7818608E-02  0.9420761E-01
         -2   -1    0    0    0  501 -0.00000000000E+00  0.00000000000E+00  0.72061361014E+03  0.72061361015E+03  0.25500000000E-02 0.  1.
          2   -1    0    0  501    0  0.00000000000E+00 -0.00000000000E+00 -0.26104630377E+04  0.26104630377E+04  0.25500000000E-02 0. -1.
    8880023    1    1    2    0    0  0.55557318737E+03 -0.44725142305E+03 -0.22983924761E+04  0.24950177520E+04  0.65864270000E+03 0.  0.
    8880022    1    1    2    0    0 -0.55557318737E+03  0.44725142305E+03  0.40854304855E+03  0.83605889593E+03  0.15294330000E+03 0.  0.
<mgrwt>
<rscale>  0 0.90386655E+03</rscale>
<asrwt>0</asrwt>
<pdfrwt beam="1">  1        2 0.40160969E+00 0.97082728E+03</pdfrwt>
<pdfrwt beam="2">  1       -2 0.11086363E+00 0.97082728E+03</pdfrwt>
<totfact> 0.19621647E+00</totfact>
</mgrwt>
</event>
<event>
 4    1  0.6502538E-008  0.8078193E+03  0.7818608E-02  0.9694137E-01
          2   -1    0    0  501    0  0.00000000000E+00  0.00000000000E+00  0.27017349409E+04  0.27017349409E+04  0.25500000000E-02 0. -1.
         -2   -1    0    0    0  501 -0.00000000000E+00 -0.00000000000E+00 -0.16977369270E+03  0.16977369272E+03  0.25500000000E-02 0.  1.
    8880023    1    1    2    0    0  0.39905863447E+03  0.24395484165E+03  0.19416355209E+04  0.21029789492E+04  0.65864270000E+03 0.  0.
    8880022    1    1    2    0    0 -0.39905863447E+03 -0.24395484165E+03  0.59032572730E+03  0.76852968442E+03  0.15294330000E+03 0.  0.
<mgrwt>
<rscale>  0 0.71366924E+03</rscale>
<asrwt>0</asrwt>
<pdfrwt beam="1">  1        2 0.41565153E+00 0.80781926E+03</pdfrwt>
<pdfrwt beam="2">  1       -2 0.26119030E-01 0.80781926E+03</pdfrwt>
<totfact> 0.36441643E+01</totfact>
</mgrwt>
</event>
<event>
 4    1  0.6502538E-008  0.1706071E+04  0.7818608E-02  0.8776355E-01
         -2   -1    0    0    0  501 -0.00000000000E+00  0.00000000000E+00  0.87604649482E+03  0.87604649482E+03  0.25500000000E-02 0.  1.
          2   -1    0    0  501    0  0.00000000000E+00 -0.00000000000E+00 -0.49766298498E+04  0.49766298498E+04  0.25500000000E-02 0. -1.
    8880023    1    1    2    0    0  0.57168226983E+03 -0.14663045335E+04 -0.39024574260E+04  0.42590907211E+04  0.65864270000E+03 0.  0.
    8880022    1    1    2    0    0 -0.57168226983E+03  0.14663045335E+04 -0.19812592900E+03  0.15935856235E+04  0.15294330000E+03 0.  0.
<mgrwt>
<rscale>  0 0.16739639E+04</rscale>
<asrwt>0</asrwt>
<pdfrwt beam="1">  1        2 0.76563535E+00 0.17060715E+04</pdfrwt>
<pdfrwt beam="2">  1       -2 0.13477639E+00 0.17060715E+04</pdfrwt>
<totfact> 0.13910287E-02</totfact>
</mgrwt>
</event>
<event>
 4    1  0.6502538E-008  0.6944706E+03  0.7818608E-02  0.1002096E+00
          2   -1    0    0  501    0  0.00000000000E+00  0.00000000000E+00  0.20060047621E+04  0.20060047621E+04  0.25500000000E-02 0. -1.
         -2   -1    0    0    0  501 -0.00000000000E+00 -0.00000000000E+00 -0.28048246787E+03  0.28048246788E+03  0.25500000000E-02 0.  1.
    8880023    1    1    2    0    0 -0.19989552119E+03 -0.92309258838E+02  0.18608243569E+04  0.19861915094E+04  0.65864270000E+03 0. -1.
    8880022    1    1    2    0    0  0.19989552119E+03  0.92309258838E+02 -0.13530206261E+03  0.30029572061E+03  0.15294330000E+03 0.  0.
<mgrwt>
<rscale>  0 0.54740595E+03</rscale>
<asrwt>0</asrwt>
<pdfrwt beam="1">  1        2 0.30861612E+00 0.69447061E+03</pdfrwt>
<pdfrwt beam="2">  1       -2 0.43151148E-01 0.69447061E+03</pdfrwt>
<totfact> 0.35096668E+01</totfact>
</mgrwt>
</event>
<event>
 4    1  0.6502538E-008  0.7228099E+03  0.7818608E-02  0.9913190E-01
         -2   -1    0    0    0  501 -0.00000000000E+00  0.00000000000E+00  0.54256303698E+03  0.54256303699E+03  0.25500000000E-02 0.  1.
          2   -1    0    0  501    0  0.00000000000E+00 -0.00000000000E+00 -0.12719239629E+04  0.12719239629E+04  0.25500000000E-02 0. -1.
    8880023    1    1    2    0    0  0.26904647073E+03 -0.12750673405E+03 -0.10992717129E+04  0.13156186665E+04  0.65864270000E+03 0. -1.
    8880022    1    1    2    0    0 -0.26904647073E+03  0.12750673405E+03  0.36991078701E+03  0.49886833334E+03  0.15294330000E+03 0.  0.
<mgrwt>
<rscale>  0 0.59626263E+03</rscale>
<asrwt>0</asrwt>
<pdfrwt beam="1">  1        2 0.19568061E+00 0.72280992E+03</pdfrwt>
<pdfrwt beam="2">  1       -2 0.83471237E-01 0.72280992E+03</pdfrwt>
<totfact> 0.22060730E+01</totfact>
</mgrwt>
</event>
<event>
 4    1  0.6502538E-008  0.7652342E+03  0.7818608E-02  0.9791740E-01
          2   -1    0    0  501    0  0.00000000000E+00  0.00000000000E+00  0.90805196610E+03  0.90805196610E+03  0.25500000000E-02 0. -1.
         -2   -1    0    0    0  501 -0.00000000000E+00 -0.00000000000E+00 -0.49580237516E+03  0.49580237517E+03  0.25500000000E-02 0.  1.
    8880023    1    1    2    0    0  0.43849270608E+02 -0.38710523575E+03  0.57250926248E+03  0.95569361406E+03  0.65864270000E+03 0. -1.
    8880022    1    1    2    0    0 -0.43849270608E+02  0.38710523575E+03 -0.16025967154E+03  0.44816072721E+03  0.15294330000E+03 0.  0.
<mgrwt>
<rscale>  0 0.65807694E+03</rscale>
<asrwt>0</asrwt>
<pdfrwt beam="1">  1        2 0.13970030E+00 0.76523423E+03</pdfrwt>
<pdfrwt beam="2">  1       -2 0.76277289E-01 0.76523423E+03</pdfrwt>
<totfact> 0.45131155E+01</totfact>
</mgrwt>
</event>
<event>
 4    1  0.6502538E-008  0.7914963E+03  0.7818608E-02  0.9729494E-01
          2   -1    0    0  501    0  0.00000000000E+00  0.00000000000E+00  0.52368334089E+03  0.52368334090E+03  0.25500000000E-02 0. -1.
         -2   -1    0    0    0  501 -0.00000000000E+00 -0.00000000000E+00 -0.11248334012E+04  0.11248334012E+04  0.25500000000E-02 0.  1.
    8880023    1    1    2    0    0 -0.38621397829E+03  0.20855450129E+03  0.10983123460E+03  0.79908029847E+03  0.65864270000E+03 0.  0.
    8880022    1    1    2    0    0  0.38621397829E+03 -0.20855450129E+03 -0.71098129486E+03  0.84943644359E+03  0.15294330000E+03 0.  0.
<mgrwt>
<rscale>  0 0.69287585E+03</rscale>
<asrwt>0</asrwt>
<pdfrwt beam="1">  1        2 0.80566668E-01 0.79149632E+03</pdfrwt>
<pdfrwt beam="2">  1       -2 0.17305129E+00 0.79149632E+03</pdfrwt>
<totfact> 0.11969194E+01</totfact>
</mgrwt>
</event>
<event>
 4    1  0.6502538E-008  0.6881365E+03  0.7818608E-02  0.1005051E+00
         -2   -1    0    0    0  501 -0.00000000000E+00  0.00000000000E+00  0.19685845937E+03  0.19685845938E+03  0.25500000000E-02 0.  1.
          2   -1    0    0  501    0  0.00000000000E+00 -0.00000000000E+00 -0.23363486602E+04  0.23363486602E+04  0.25500000000E-02 0. -1.
    8880023    1    1    2    0    0 -0.19142105332E+03 -0.55494186782E+02 -0.21733711585E+04  0.22797091970E+04  0.65864270000E+03 0. -1.
    8880022    1    1    2    0    0  0.19142105332E+03  0.55494186782E+02  0.33880957637E+02  0.25349792253E+03  0.15294330000E+03 0.  0.
<mgrwt>
<rscale>  0 0.53489807E+03</rscale>
<asrwt>0</asrwt>
<pdfrwt beam="1">  1        2 0.35943823E+00 0.68813649E+03</pdfrwt>
<pdfrwt beam="2">  1       -2 0.30285919E-01 0.68813649E+03</pdfrwt>
<totfact> 0.45549031E+01</totfact>
</mgrwt>
</event>
<event>
 4    1  0.6502538E-008  0.9458718E+03  0.7818608E-02  0.9456079E-01
          2   -1    0    0  501    0  0.00000000000E+00  0.00000000000E+00  0.25560315369E+04  0.25560315369E+04  0.25500000000E-02 0. -1.
         -2   -1    0    0    0  501 -0.00000000000E+00 -0.00000000000E+00 -0.47425149419E+03  0.47425149419E+03  0.25500000000E-02 0.  1.
    8880023    1    1    2    0    0 -0.67813154295E+03  0.31637291693E+02  0.21321899271E+04  0.23325752719E+04  0.65864270000E+03 0.  0.
    8880022    1    1    2    0    0  0.67813154295E+03 -0.31637291693E+02 -0.50409884359E+02  0.69770775918E+03  0.15294330000E+03 0.  0.
<mgrwt>
<rscale>  0 0.87600882E+03</rscale>
<asrwt>0</asrwt>
<pdfrwt beam="1">  1        2 0.39323562E+00 0.94587183E+03</pdfrwt>
<pdfrwt beam="2">  1       -2 0.72961769E-01 0.94587183E+03</pdfrwt>
<totfact> 0.55870689E+00</totfact>
</mgrwt>
</event>
<event>
 4    1  0.6502538E-008  0.1344533E+04  0.7818608E-02  0.9028026E-01
         -2   -1    0    0    0  501 -0.00000000000E+00  0.00000000000E+00  0.10841984315E+04  0.10841984315E+04  0.25500000000E-02 0.  1.
          2   -1    0    0  501    0  0.00000000000E+00 -0.00000000000E+00 -0.30914489037E+04  0.30914489037E+04  0.25500000000E-02 0. -1.
    8880023    1    1    2    0    0 -0.95418178508E+02 -0.11682702856E+04 -0.25439614221E+04  0.28774137715E+04  0.65864270000E+03 0.  0.
    8880022    1    1    2    0    0  0.95418178508E+02  0.11682702856E+04  0.53671094986E+03  0.12982335636E+04  0.15294330000E+03 0.  0.
<mgrwt>
<rscale>  0 0.13019429E+04</rscale>
<asrwt>0</asrwt>
<pdfrwt beam="1">  1        2 0.47560752E+00 0.13445335E+04</pdfrwt>
<pdfrwt beam="2">  1       -2 0.16679976E+00 0.13445335E+04</pdfrwt>
<totfact> 0.33051551E-01</totfact>
</mgrwt>
</event>
<event>
 4    1  0.6502538E-008  0.1072115E+04  0.7818608E-02  0.9292756E-01
          2   -1    0    0  501    0  0.00000000000E+00  0.00000000000E+00  0.33257348445E+04  0.33257348445E+04  0.25500000000E-02 0. -1.
         -2   -1    0    0    0  501 -0.00000000000E+00 -0.00000000000E+00 -0.44242488919E+03  0.44242488919E+03  0.25500000000E-02 0.  1.
    8880023    1    1    2    0    0  0.83366451759E+03  0.14361158691E+03  0.40681765222E+03  0.11467046805E+04  0.65864270000E+03 0.  0.
    8880022    1    1    2    0    0 -0.83366451759E+03 -0.14361158691E+03  0.24764923031E+04  0.26214550532E+04  0.15294330000E+03 0. -1.
<mgrwt>
<rscale>  0 0.10145246E+04</rscale>
<asrwt>0</asrwt>
<pdfrwt beam="1">  1        2 0.51165151E+00 0.10721152E+04</pdfrwt>
<pdfrwt beam="2">  1       -2 0.68065368E-01 0.10721152E+04</pdfrwt>
<totfact> 0.21566671E+00</totfact>
</mgrwt>
</event>
<event>
 4    1  0.6502538E-008  0.9647160E+03  0.7818608E-02  0.9429250E-01
         -2   -1    0    0    0  501 -0.00000000000E+00  0.00000000000E+00  0.48240082052E+04  0.48240082052E+04  0.25500000000E-02 0.  1.
          2   -1    0    0  501    0  0.00000000000E+00 -0.00000000000E+00 -0.24935605703E+03  0.24935605705E+03  0.25500000000E-02 0. -1.
    8880023    1    1    2    0    0 -0.29728476378E+03 -0.63913108423E+03  0.86974163741E+03  0.12988947208E+04  0.65864270000E+03 0.  0.
    8880022    1    1    2    0    0  0.29728476378E+03  0.63913108423E+03  0.37049105108E+04  0.37744695415E+04  0.15294330000E+03 0.  0.
<mgrwt>
<rscale>  0 0.89707139E+03</rscale>
<asrwt>0</asrwt>
<pdfrwt beam="1">  1        2 0.38362469E-01 0.96471601E+03</pdfrwt>
<pdfrwt beam="2">  1       -2 0.74215513E+00 0.96471601E+03</pdfrwt>
<totfact> 0.21969316E-02</totfact>
</mgrwt>
</event>
<event>
 4    1  0.6502538E-008  0.6602959E+03  0.7818608E-02  0.1023855E+00
          2   -1    0    0  501    0  0.00000000000E+00  0.00000000000E+00  0.18495359239E+04  0.18495359239E+04  0.25500000000E-02 0. -1.
         -2   -1    0    0    0  501 -0.00000000000E+00 -0.00000000000E+00 -0.96717829173E+02  0.96717829207E+02  0.25500000000E-02 0.  1.
    8880023    1    1    2    0    0 -0.34252600856E+02  0.31735988442E+02  0.15709749249E+04  0.17040988335E+04  0.65864270000E+03 0. -1.
    8880022    1    1    2    0    0  0.34252600856E+02 -0.31735988442E+02  0.18184316980E+03  0.24215491952E+03  0.15294330000E+03 0.  0.
<mgrwt>
<rscale>  0 0.46320651E+03</rscale>
<asrwt>0</asrwt>
<pdfrwt beam="1">  1        2 0.28454397E+00 0.66029586E+03</pdfrwt>
<pdfrwt beam="2">  1       -2 0.14879667E-01 0.66029586E+03</pdfrwt>
<totfact> 0.29555782E+02</totfact>
</mgrwt>
</event>
<event>
 4    1  0.6502538E-008  0.1448047E+04  0.7818608E-02  0.8947221E-01
          2   -1    0    0  501    0  0.00000000000E+00  0.00000000000E+00  0.22793986959E+04  0.22793986959E+04  0.25500000000E-02 0. -1.
         -2   -1    0    0    0  501 -0.00000000000E+00 -0.00000000000E+00 -0.10710787616E+04  0.10710787616E+04  0.25500000000E-02 0.  1.
    8880023    1    1    2    0    0  0.24008423177E+03 -0.12670393852E+04  0.14276354459E+04  0.20334656168E+04  0.65864270000E+03 0.  0.
    8880022    1    1    2    0    0 -0.24008423177E+03  0.12670393852E+04 -0.21931551154E+03  0.13170118407E+04  0.15294330000E+03 0.  0.
<mgrwt>
<rscale>  0 0.14091515E+04</rscale>
<asrwt>0</asrwt>
<pdfrwt beam="1">  1        2 0.35067672E+00 0.14480468E+04</pdfrwt>
<pdfrwt beam="2">  1       -2 0.16478135E+00 0.14480468E+04</pdfrwt>
<totfact> 0.10253360E+00</totfact>
</mgrwt>
</event>
<event>
 4    1  0.6502538E-008  0.6687685E+03  0.7818608E-02  0.1016562E+00
          2   -1    0    0  501    0  0.00000000000E+00  0.00000000000E+00  0.67170798809E+03  0.67170798810E+03  0.25500000000E-02 0. -1.
         -2   -1    0    0    0  501 -0.00000000000E+00 -0.00000000000E+00 -0.66919475359E+03  0.66919475359E+03  0.25500000000E-02 0.  1.
    8880023    1    1    2    0    0 -0.72522564242E+02 -0.90451867113E+02  0.48204635705E+03  0.82439065933E+03  0.65864270000E+03 0.  0.
    8880022    1    1    2    0    0  0.72522564242E+02  0.90451867113E+02 -0.47953312254E+03  0.51651208235E+03  0.15294330000E+03 0.  0.
<mgrwt>
<rscale>  0 0.48948125E+03</rscale>
<asrwt>0</asrwt>
<pdfrwt beam="1">  1        2 0.10333969E+00 0.66876847E+03</pdfrwt>
<pdfrwt beam="2">  1       -2 0.10295304E+00 0.66876847E+03</pdfrwt>
<totfact> 0.33933009E+01</totfact>
</mgrwt>
</event>
<event>
 4    1  0.6502538E-008  0.9818245E+03  0.7818608E-02  0.9405733E-01
          2   -1    0    0  501    0  0.00000000000E+00  0.00000000000E+00  0.14554592767E+04  0.14554592767E+04  0.25500000000E-02 0. -1.
         -2   -1    0    0    0  501 -0.00000000000E+00 -0.00000000000E+00 -0.12160089296E+04  0.12160089296E+04  0.25500000000E-02 0.  1.
    8880023    1    1    2    0    0  0.67637794182E+03 -0.26959586605E+03  0.11392206781E+04  0.15039291908E+04  0.65864270000E+03 0. -1.
    8880022    1    1    2    0    0 -0.67637794182E+03  0.26959586605E+03 -0.89977033100E+03  0.11675390155E+04  0.15294330000E+03 0.  0.
<mgrwt>
<rscale>  0 0.91605393E+03</rscale>
<asrwt>0</asrwt>
<pdfrwt beam="1">  1        2 0.22391681E+00 0.98182445E+03</pdfrwt>
<pdfrwt beam="2">  1       -2 0.18707830E+00 0.98182445E+03</pdfrwt>
<totfact> 0.21712265E+00</totfact>
</mgrwt>
</event>
<event>
 4    1  0.6502538E-008  0.1000402E+04  0.7818608E-02  0.9381032E-01
          2   -1    0    0  501    0  0.00000000000E+00  0.00000000000E+00  0.20762917951E+04  0.20762917951E+04  0.25500000000E-02 0. -1.
         -2   -1    0    0    0  501 -0.00000000000E+00 -0.00000000000E+00 -0.77444451168E+03  0.77444451169E+03  0.25500000000E-02 0.  1.
    8880023    1    1    2    0    0 -0.30495511721E+03 -0.68847392020E+03  0.17096670960E+04  0.19808497540E+04  0.65864270000E+03 0. -1.
    8880022    1    1    2    0    0  0.30495511721E+03  0.68847392020E+03 -0.40781981257E+03  0.86988655286E+03  0.15294330000E+03 0.  0.
<mgrwt>
<rscale>  0 0.93653257E+03</rscale>
<asrwt>0</asrwt>
<pdfrwt beam="1">  1        2 0.31942950E+00 0.10004020E+04</pdfrwt>
<pdfrwt beam="2">  1       -2 0.11914531E+00 0.10004020E+04</pdfrwt>
<totfact> 0.32746753E+00</totfact>
</mgrwt>
</event>
<event>
 4    1  0.6502538E-008  0.6958635E+03  0.7818608E-02  0.1001481E+00
         -2   -1    0    0    0  501 -0.00000000000E+00  0.00000000000E+00  0.69728733375E+03  0.69728733375E+03  0.25500000000E-02 0.  1.
          2   -1    0    0  501    0  0.00000000000E+00 -0.00000000000E+00 -0.11090995851E+04  0.11090995851E+04  0.25500000000E-02 0. -1.
    8880023    1    1    2    0    0  0.93505512938E+02 -0.20413863178E+03 -0.96521115719E+03  0.11898985865E+04  0.65864270000E+03 0. -1.
    8880022    1    1    2    0    0 -0.93505512938E+02  0.20413863178E+03  0.55339890584E+03  0.61648833236E+03  0.15294330000E+03 0.  0.
<mgrwt>
<rscale>  0 0.55005439E+03</rscale>
<asrwt>0</asrwt>
<pdfrwt beam="1">  1        2 0.17063071E+00 0.69586354E+03</pdfrwt>
<pdfrwt beam="2">  1       -2 0.10727497E+00 0.69586354E+03</pdfrwt>
<totfact> 0.15384273E+01</totfact>
</mgrwt>
</event>
<event>
 4    1  0.6502538E-008  0.7627378E+03  0.7818608E-02  0.9798071E-01
          2   -1    0    0  501    0  0.00000000000E+00  0.00000000000E+00  0.16052976193E+04  0.16052976193E+04  0.25500000000E-02 0. -1.
         -2   -1    0    0    0  501 -0.00000000000E+00 -0.00000000000E+00 -0.15778007812E+04  0.15778007812E+04  0.25500000000E-02 0.  1.
    8880023    1    1    2    0    0  0.37257161119E+03 -0.95651121779E+02  0.14842025977E+04  0.16687199585E+04  0.65864270000E+03 0. -1.
    8880022    1    1    2    0    0 -0.37257161119E+03  0.95651121779E+02 -0.14567057596E+04  0.15143784420E+04  0.15294330000E+03 0.  0.
<mgrwt>
<rscale>  0 0.65466194E+03</rscale>
<asrwt>0</asrwt>
<pdfrwt beam="1">  1        2 0.24696886E+00 0.76273780E+03</pdfrwt>
<pdfrwt beam="2">  1       -2 0.24273858E+00 0.76273780E+03</pdfrwt>
<totfact> 0.82074734E-01</totfact>
</mgrwt>
</event>
<event>
 4    1  0.6502538E-008  0.7987932E+03  0.7818608E-02  0.9713412E-01
          2   -1    0    0  501    0  0.00000000000E+00  0.00000000000E+00  0.37624947414E+04  0.37624947414E+04  0.25500000000E-02 0. -1.
         -2   -1    0    0    0  501 -0.00000000000E+00 -0.00000000000E+00 -0.66455071535E+03  0.66455071536E+03  0.25500000000E-02 0.  1.
    8880023    1    1    2    0    0 -0.39730086965E+03 -0.21543527404E+03  0.36274064162E+04  0.37143166065E+04  0.65864270000E+03 0. -1.
    8880022    1    1    2    0    0  0.39730086965E+03  0.21543527404E+03 -0.52946239021E+03  0.71272885026E+03  0.15294330000E+03 0.  0.
<mgrwt>
<rscale>  0 0.70223859E+03</rscale>
<asrwt>0</asrwt>
<pdfrwt beam="1">  1        2 0.57884533E+00 0.79879318E+03</pdfrwt>
<pdfrwt beam="2">  1       -2 0.10223857E+00 0.79879318E+03</pdfrwt>
<totfact> 0.44705534E-01</totfact>
</mgrwt>
</event>
<event>
 4    1  0.6502538E-008  0.7659340E+03  0.7818608E-02  0.9789980E-01
          2   -1    0    0  501    0  0.00000000000E+00  0.00000000000E+00  0.24196404546E+04  0.24196404546E+04  0.25500000000E-02 0. -1.
         -2   -1    0    0    0  501 -0.00000000000E+00 -0.00000000000E+00 -0.49114687177E+03  0.49114687178E+03  0.25500000000E-02 0.  1.
    8880023    1    1    2    0    0  0.11534093660E+03 -0.37355217623E+03  0.22533515109E+04  0.23799680666E+04  0.65864270000E+03 0.  0.
    8880022    1    1    2    0    0 -0.11534093660E+03  0.37355217623E+03 -0.32485792813E+03  0.53081925974E+03  0.15294330000E+03 0.  0.
<mgrwt>
<rscale>  0 0.65903046E+03</rscale>
<asrwt>0</asrwt>
<pdfrwt beam="1">  1        2 0.37225238E+00 0.76593405E+03</pdfrwt>
<pdfrwt beam="2">  1       -2 0.75561057E-01 0.76593405E+03</pdfrwt>
<totfact> 0.63535088E+00</totfact>
</mgrwt>
</event>
<event>
 4    1  0.6502538E-008  0.8505679E+03  0.7818608E-02  0.9610567E-01
         -2   -1    0    0    0  501 -0.00000000000E+00  0.00000000000E+00  0.11385474310E+04  0.11385474310E+04  0.25500000000E-02 0.  1.
          2   -1    0    0  501    0  0.00000000000E+00 -0.00000000000E+00 -0.13687951419E+04  0.13687951419E+04  0.25500000000E-02 0. -1.
    8880023    1    1    2    0    0  0.42186381110E+03  0.33419522437E+03 -0.11502444164E+04  0.14305690990E+04  0.65864270000E+03 0. -1.
    8880022    1    1    2    0    0 -0.42186381110E+03 -0.33419522437E+03  0.91999670548E+03  0.10767734740E+04  0.15294330000E+03 0.  0.
<mgrwt>
<rscale>  0 0.76600739E+03</rscale>
<asrwt>0</asrwt>
<pdfrwt beam="1">  1        2 0.21058387E+00 0.85056789E+03</pdfrwt>
<pdfrwt beam="2">  1       -2 0.17516114E+00 0.85056789E+03</pdfrwt>
<totfact> 0.29882312E+00</totfact>
</mgrwt>
</event>
<event>
 4    1  0.6502538E-008  0.8042358E+03  0.7818608E-02  0.9701711E-01
         -2   -1    0    0    0  501 -0.00000000000E+00  0.00000000000E+00  0.42738746912E+03  0.42738746913E+03  0.25500000000E-02 0.  1.
          2   -1    0    0  501    0  0.00000000000E+00 -0.00000000000E+00 -0.17968157341E+04  0.17968157341E+04  0.25500000000E-02 0. -1.
    8880023    1    1    2    0    0  0.14357445999E+03  0.43860166745E+03 -0.15162464378E+04  0.17163328682E+04  0.65864270000E+03 0. -1.
    8880022    1    1    2    0    0 -0.14357445999E+03 -0.43860166745E+03  0.14681817282E+03  0.50787033497E+03  0.15294330000E+03 0.  0.
<mgrwt>
<rscale>  0 0.70915006E+03</rscale>
<asrwt>0</asrwt>
<pdfrwt beam="1">  1        2 0.27643319E+00 0.80423582E+03</pdfrwt>
<pdfrwt beam="2">  1       -2 0.65751919E-01 0.80423582E+03</pdfrwt>
<totfact> 0.18870197E+01</totfact>
</mgrwt>
</event>
<event>
 4    1  0.6502538E-008  0.9718314E+03  0.7818608E-02  0.9419376E-01
          2   -1    0    0  501    0  0.00000000000E+00  0.00000000000E+00  0.30239062312E+04  0.30239062312E+04  0.25500000000E-02 0. -1.
         -2   -1    0    0    0  501 -0.00000000000E+00 -0.00000000000E+00 -0.49325305587E+03  0.49325305588E+03  0.25500000000E-02 0.  1.
    8880023    1    1    2    0    0 -0.66368793149E+03 -0.26488563109E+03  0.26071488192E+04  0.27823876868E+04  0.65864270000E+03 0.  0.
    8880022    1    1    2    0    0  0.66368793149E+03  0.26488563109E+03 -0.76495643909E+02  0.73477160024E+03  0.15294330000E+03 0.  0.
<mgrwt>
<rscale>  0 0.90498147E+03</rscale>
<asrwt>0</asrwt>
<pdfrwt beam="1">  1        2 0.46521634E+00 0.97183140E+03</pdfrwt>
<pdfrwt beam="2">  1       -2 0.75885086E-01 0.97183140E+03</pdfrwt>
<totfact> 0.26862684E+00</totfact>
</mgrwt>
</event>
<event>
 4    1  0.6502538E-008  0.7286700E+03  0.7818608E-02  0.9894272E-01
         -2   -1    0    0    0  501 -0.00000000000E+00  0.00000000000E+00  0.27560167148E+03  0.27560167149E+03  0.25500000000E-02 0.  1.
          2   -1    0    0  501    0  0.00000000000E+00 -0.00000000000E+00 -0.23616829358E+04  0.23616829358E+04  0.25500000000E-02 0. -1.
    8880023    1    1    2    0    0  0.45251911519E+02  0.30838624282E+03 -0.21623431774E+04  0.22818168273E+04  0.65864270000E+03 0. -1.
    8880022    1    1    2    0    0 -0.45251911519E+02 -0.30838624282E+03  0.76261913020E+02  0.35546778005E+03  0.15294330000E+03 0.  0.
<mgrwt>
<rscale>  0 0.60539696E+03</rscale>
<asrwt>0</asrwt>
<pdfrwt beam="1">  1        2 0.36333582E+00 0.72867003E+03</pdfrwt>
<pdfrwt beam="2">  1       -2 0.42400259E-01 0.72867003E+03</pdfrwt>
<totfact> 0.23037826E+01</totfact>
</mgrwt>
</event>
<event>
 4    1  0.6502538E-008  0.8547595E+03  0.7818608E-02  0.9602954E-01
         -2   -1    0    0    0  501 -0.00000000000E+00  0.00000000000E+00  0.58208504894E+03  0.58208504895E+03  0.25500000000E-02 0.  1.
          2   -1    0    0  501    0  0.00000000000E+00 -0.00000000000E+00 -0.92040504196E+03  0.92040504196E+03  0.25500000000E-02 0. -1.
    8880023    1    1    2    0    0  0.47442158065E+03  0.26782030976E+03 -0.37932642565E+03  0.93514827592E+03  0.65864270000E+03 0. -1.
    8880022    1    1    2    0    0 -0.47442158065E+03 -0.26782030976E+03  0.41006432630E+02  0.56734181499E+03  0.15294330000E+03 0.  0.
<mgrwt>
<rscale>  0 0.77100962E+03</rscale>
<asrwt>0</asrwt>
<pdfrwt beam="1">  1        2 0.14160078E+00 0.85475948E+03</pdfrwt>
<pdfrwt beam="2">  1       -2 0.89551546E-01 0.85475948E+03</pdfrwt>
<totfact> 0.30552860E+01</totfact>
</mgrwt>
</event>
<event>
 4    1  0.6502538E-008  0.1080614E+04  0.7818608E-02  0.9282953E-01
         -2   -1    0    0    0  501 -0.00000000000E+00  0.00000000000E+00  0.51493586568E+03  0.51493586568E+03  0.25500000000E-02 0.  1.
          2   -1    0    0  501    0  0.00000000000E+00 -0.00000000000E+00 -0.32413053605E+04  0.32413053605E+04  0.25500000000E-02 0. -1.
    8880023    1    1    2    0    0  0.85052744434E+03 -0.10256234257E+03 -0.26743896690E+04  0.28844559757E+04  0.65864270000E+03 0.  0.
    8880022    1    1    2    0    0 -0.85052744434E+03  0.10256234257E+03 -0.51979825820E+02  0.87178525051E+03  0.15294330000E+03 0.  0.
<mgrwt>
<rscale>  0 0.10236746E+04</rscale>
<asrwt>0</asrwt>
<pdfrwt beam="1">  1        2 0.49866235E+00 0.10806138E+04</pdfrwt>
<pdfrwt beam="2">  1       -2 0.79220905E-01 0.10806138E+04</pdfrwt>
<totfact> 0.17471890E+00</totfact>
</mgrwt>
</event>
<event>
 4    1  0.6502538E-008  0.6612986E+03  0.7818608E-02  0.1022864E+00
         -2   -1    0    0    0  501 -0.00000000000E+00  0.00000000000E+00  0.32970549810E+03  0.32970549811E+03  0.25500000000E-02 0.  1.
          2   -1    0    0  501    0  0.00000000000E+00 -0.00000000000E+00 -0.32853525477E+04  0.32853525477E+04  0.25500000000E-02 0. -1.
    8880023    1    1    2    0    0  0.59094244696E+02  0.36799788613E+01 -0.32291410120E+04  0.32961595158E+04  0.65864270000E+03 0. -1.
    8880022    1    1    2    0    0 -0.59094244696E+02 -0.36799788613E+01  0.27349396236E+03  0.31889853004E+03  0.15294330000E+03 0.  0.
<mgrwt>
<rscale>  0 0.46667212E+03</rscale>
<asrwt>0</asrwt>
<pdfrwt beam="1">  1        2 0.50543883E+00 0.66129863E+03</pdfrwt>
<pdfrwt beam="2">  1       -2 0.50723925E-01 0.66129863E+03</pdfrwt>
<totfact> 0.45936788E+00</totfact>
</mgrwt>
</event>
<event>
 4    1  0.6502538E-008  0.8352708E+03  0.7818608E-02  0.9639163E-01
         -2   -1    0    0    0  501 -0.00000000000E+00  0.00000000000E+00  0.24037933361E+04  0.24037933361E+04  0.25500000000E-02 0.  1.
          2   -1    0    0  501    0  0.00000000000E+00 -0.00000000000E+00 -0.10715515348E+04  0.10715515348E+04  0.25500000000E-02 0. -1.
    8880023    1    1    2    0    0  0.41180241482E+03 -0.30706002337E+03 -0.87163170463E+03  0.12072361499E+04  0.65864270000E+03 0. -1.
    8880022    1    1    2    0    0 -0.41180241482E+03  0.30706002337E+03  0.22038735060E+04  0.22681087210E+04  0.15294330000E+03 0.  0.
<mgrwt>
<rscale>  0 0.74757475E+03</rscale>
<asrwt>0</asrwt>
<pdfrwt beam="1">  1        2 0.16485408E+00 0.83527079E+03</pdfrwt>
<pdfrwt beam="2">  1       -2 0.36981436E+00 0.83527079E+03</pdfrwt>
<totfact> 0.27607882E-01</totfact>
</mgrwt>
</event>
<event>
 4    1  0.6502538E-008  0.1056374E+04  0.7818608E-02  0.9311258E-01
         -2   -1    0    0    0  501 -0.00000000000E+00  0.00000000000E+00  0.51454118462E+03  0.51454118463E+03  0.25500000000E-02 0.  1.
          2   -1    0    0  501    0  0.00000000000E+00 -0.00000000000E+00 -0.24463026526E+04  0.24463026526E+04  0.25500000000E-02 0. -1.
    8880023    1    1    2    0    0  0.82424934795E+03 -0.52229406186E+02 -0.18323341893E+04  0.21150351501E+04  0.65864270000E+03 0.  0.
    8880022    1    1    2    0    0 -0.82424934795E+03  0.52229406186E+02 -0.99427278633E+02  0.84580868713E+03  0.15294330000E+03 0.  0.
<mgrwt>
<rscale>  0 0.99752956E+03</rscale>
<asrwt>0</asrwt>
<pdfrwt beam="1">  1        2 0.37635425E+00 0.10563736E+04</pdfrwt>
<pdfrwt beam="2">  1       -2 0.79160183E-01 0.10563736E+04</pdfrwt>
<totfact> 0.53039176E+00</totfact>
</mgrwt>
</event>
<event>
 4    1  0.6502538E-008  0.9431416E+03  0.7818608E-02  0.9460051E-01
         -2   -1    0    0    0  501 -0.00000000000E+00  0.00000000000E+00  0.61260480888E+03  0.61260480888E+03  0.25500000000E-02 0.  1.
          2   -1    0    0  501    0  0.00000000000E+00 -0.00000000000E+00 -0.20598785532E+04  0.20598785533E+04  0.25500000000E-02 0. -1.
    8880023    1    1    2    0    0 -0.38921642981E+03  0.55155824441E+03 -0.16930094254E+04  0.19379878862E+04  0.65864270000E+03 0. -1.
    8880022    1    1    2    0    0  0.38921642981E+03 -0.55155824441E+03  0.24573568105E+03  0.73449547593E+03  0.15294330000E+03 0.  0.
<mgrwt>
<rscale>  0 0.87294259E+03</rscale>
<asrwt>0</asrwt>
<pdfrwt beam="1">  1        2 0.31690439E+00 0.94314163E+03</pdfrwt>
<pdfrwt beam="2">  1       -2 0.94246895E-01 0.94314163E+03</pdfrwt>
<totfact> 0.59269729E+00</totfact>
</mgrwt>
</event>
<event>
 4    1  0.6502538E-008  0.8517480E+03  0.7818608E-02  0.9608414E-01
         -2   -1    0    0    0  501 -0.00000000000E+00  0.00000000000E+00  0.11349628776E+04  0.11349628776E+04  0.25500000000E-02 0.  1.
          2   -1    0    0  501    0  0.00000000000E+00 -0.00000000000E+00 -0.89654475348E+03  0.89654475349E+03  0.25500000000E-02 0. -1.
    8880023    1    1    2    0    0 -0.48176253991E+03  0.24406838713E+03 -0.58620693678E+03  0.10339793525E+04  0.65864270000E+03 0. -1.
    8880022    1    1    2    0    0  0.48176253991E+03 -0.24406838713E+03  0.82462506087E+03  0.99752827853E+03  0.15294330000E+03 0.  0.
<mgrwt>
<rscale>  0 0.76741778E+03</rscale>
<asrwt>0</asrwt>
<pdfrwt beam="1">  1        2 0.13792996E+00 0.85174804E+03</pdfrwt>
<pdfrwt beam="2">  1       -2 0.17460967E+00 0.85174804E+03</pdfrwt>
<totfact> 0.58695081E+00</totfact>
</mgrwt>
</event>
<event>
 4    1  0.6502538E-008  0.7843775E+03  0.7818608E-02  0.9745653E-01
         -2   -1    0    0    0  501 -0.00000000000E+00  0.00000000000E+00  0.56592590002E+03  0.56592590003E+03  0.25500000000E-02 0.  1.
          2   -1    0    0  501    0  0.00000000000E+00 -0.00000000000E+00 -0.11304298602E+04  0.11304298602E+04  0.25500000000E-02 0. -1.
    8880023    1    1    2    0    0 -0.23444700246E+03 -0.35562962056E+03 -0.85364903334E+03  0.11592949160E+04  0.65864270000E+03 0. -1.
    8880022    1    1    2    0    0  0.23444700246E+03  0.35562962056E+03  0.28914507317E+03  0.53706084417E+03  0.15294330000E+03 0.  0.
<mgrwt>
<rscale>  0 0.68362493E+03</rscale>
<asrwt>0</asrwt>
<pdfrwt beam="1">  1        2 0.17391229E+00 0.78437748E+03</pdfrwt>
<pdfrwt beam="2">  1       -2 0.87065523E-01 0.78437748E+03</pdfrwt>
<totfact> 0.24142861E+01</totfact>
</mgrwt>
</event>
<event>
 4    1  0.6502538E-008  0.1852142E+04  0.7818608E-02  0.8694229E-01
          2   -1    0    0  501    0  0.00000000000E+00  0.00000000000E+00  0.20901687816E+04  0.20901687816E+04  0.25500000000E-02 0. -1.
         -2   -1    0    0    0  501 -0.00000000000E+00 -0.00000000000E+00 -0.16603618833E+04  0.16603618833E+04  0.25500000000E-02 0.  1.
    8880023    1    1    2    0    0  0.47781732305E+03  0.16638245161E+04  0.72280611923E+03  0.19881851792E+04  0.65864270000E+03 0.  1.
    8880022    1    1    2    0    0 -0.47781732305E+03 -0.16638245161E+04 -0.29299922095E+03  0.17623454857E+04  0.15294330000E+03 0.  0.
<mgrwt>
<rscale>  0 0.18228750E+04</rscale>
<asrwt>0</asrwt>
<pdfrwt beam="1">  1        2 0.32156443E+00 0.18521424E+04</pdfrwt>
<pdfrwt beam="2">  1       -2 0.25544029E+00 0.18521424E+04</pdfrwt>
<totfact> 0.32027246E-01</totfact>
</mgrwt>
</event>
<event>
 4    1  0.6502538E-008  0.9573473E+03  0.7818608E-02  0.9439621E-01
          2   -1    0    0  501    0  0.00000000000E+00  0.00000000000E+00  0.19131119365E+04  0.19131119365E+04  0.25500000000E-02 0. -1.
         -2   -1    0    0    0  501 -0.00000000000E+00 -0.00000000000E+00 -0.83477639888E+03  0.83477639888E+03  0.25500000000E-02 0.  1.
    8880023    1    1    2    0    0  0.49224447031E+03 -0.49030512562E+03  0.16008098425E+04  0.18652362029E+04  0.65864270000E+03 0. -1.
    8880022    1    1    2    0    0 -0.49224447031E+03  0.49030512562E+03 -0.52247430481E+03  0.88265213247E+03  0.15294330000E+03 0.  0.
<mgrwt>
<rscale>  0 0.88885557E+03</rscale>
<asrwt>0</asrwt>
<pdfrwt beam="1">  1        2 0.29432491E+00 0.95734735E+03</pdfrwt>
<pdfrwt beam="2">  1       -2 0.12842714E+00 0.95734735E+03</pdfrwt>
<totfact> 0.33544353E+00</totfact>
</mgrwt>
</event>
<event>
 4    1  0.6502538E-008  0.7563830E+03  0.7818608E-02  0.9814563E-01
         -2   -1    0    0    0  501 -0.00000000000E+00  0.00000000000E+00  0.26222160094E+03  0.26222160095E+03  0.25500000000E-02 0.  1.
          2   -1    0    0  501    0  0.00000000000E+00 -0.00000000000E+00 -0.16683532919E+04  0.16683532919E+04  0.25500000000E-02 0. -1.
    8880023    1    1    2    0    0 -0.36941337797E+03  0.42880421498E+02 -0.13169215346E+04  0.15186828204E+04  0.65864270000E+03 0.  0.
    8880022    1    1    2    0    0  0.36941337797E+03 -0.42880421498E+02 -0.89210156405E+02  0.41189207251E+03  0.15294330000E+03 0.  0.
<mgrwt>
<rscale>  0 0.64586823E+03</rscale>
<asrwt>0</asrwt>
<pdfrwt beam="1">  1        2 0.25666973E+00 0.75638296E+03</pdfrwt>
<pdfrwt beam="2">  1       -2 0.40341786E-01 0.75638296E+03</pdfrwt>
<totfact> 0.60746186E+01</totfact>
</mgrwt>
</event>
<event>
 4    1  0.6502538E-008  0.8950594E+03  0.7818608E-02  0.9534010E-01
          2   -1    0    0  501    0  0.00000000000E+00  0.00000000000E+00  0.21605141893E+04  0.21605141893E+04  0.25500000000E-02 0. -1.
         -2   -1    0    0    0  501 -0.00000000000E+00 -0.00000000000E+00 -0.73534123655E+03  0.73534123656E+03  0.25500000000E-02 0.  1.
    8880023    1    1    2    0    0 -0.51488573399E+03 -0.31970886468E+03  0.19070199900E+04  0.21066220653E+04  0.65864270000E+03 0.  0.
    8880022    1    1    2    0    0  0.51488573399E+03  0.31970886468E+03 -0.48184703725E+03  0.78923336063E+03  0.15294330000E+03 0.  0.
<mgrwt>
<rscale>  0 0.81822186E+03</rscale>
<asrwt>0</asrwt>
<pdfrwt beam="1">  1        2 0.33238679E+00 0.89505937E+03</pdfrwt>
<pdfrwt beam="2">  1       -2 0.11312942E+00 0.89505937E+03</pdfrwt>
<totfact> 0.33902817E+00</totfact>
</mgrwt>
</event>
<event>
 4    1  0.6502538E-008  0.1546979E+04  0.7818608E-02  0.8877156E-01
          2   -1    0    0  501    0  0.00000000000E+00  0.00000000000E+00  0.38870628948E+04  0.38870628948E+04  0.25500000000E-02 0. -1.
         -2   -1    0    0    0  501 -0.00000000000E+00 -0.00000000000E+00 -0.91785738309E+03  0.91785738309E+03  0.25500000000E-02 0.  1.
    8880023    1    1    2    0    0 -0.11166488003E+04  0.84405437658E+03  0.30229668871E+04  0.33958020173E+04  0.65864270000E+03 0. -1.
    8880022    1    1    2    0    0  0.11166488003E+04 -0.84405437658E+03 -0.53761375435E+02  0.14091182606E+04  0.15294330000E+03 0.  0.
<mgrwt>
<rscale>  0 0.15110227E+04</rscale>
<asrwt>0</asrwt>
<pdfrwt beam="1">  1        2 0.59800967E+00 0.15469785E+04</pdfrwt>
<pdfrwt beam="2">  1       -2 0.14120883E+00 0.15469785E+04</pdfrwt>
<totfact> 0.14103406E-01</totfact>
</mgrwt>
</event>
<event>
 4    1  0.6502538E-008  0.8050292E+03  0.7818608E-02  0.9700026E-01
          2   -1    0    0  501    0  0.00000000000E+00  0.00000000000E+00  0.81410700841E+03  0.81410700841E+03  0.25500000000E-02 0. -1.
         -2   -1    0    0    0  501 -0.00000000000E+00 -0.00000000000E+00 -0.12767149191E+04  0.12767149191E+04  0.25500000000E-02 0.  1.
    8880023    1    1    2    0    0  0.41665552196E+03  0.20164327723E+03  0.54453347945E+03  0.97189955846E+03  0.65864270000E+03 0. -1.
    8880022    1    1    2    0    0 -0.41665552196E+03 -0.20164327723E+03 -0.10071413901E+04  0.11189223690E+04  0.15294330000E+03 0.  0.
<mgrwt>
<rscale>  0 0.71015272E+03</rscale>
<asrwt>0</asrwt>
<pdfrwt beam="1">  1        2 0.12524723E+00 0.80502922E+03</pdfrwt>
<pdfrwt beam="2">  1       -2 0.19641768E+00 0.80502922E+03</pdfrwt>
<totfact> 0.47933300E+00</totfact>
</mgrwt>
</event>
<event>
 4    1  0.6502538E-008  0.9594394E+03  0.7818608E-02  0.9436661E-01
          2   -1    0    0  501    0  0.00000000000E+00  0.00000000000E+00  0.39946509128E+04  0.39946509128E+04  0.25500000000E-02 0. -1.
         -2   -1    0    0    0  501 -0.00000000000E+00 -0.00000000000E+00 -0.54650844609E+03  0.54650844610E+03  0.25500000000E-02 0.  1.
    8880023    1    1    2    0    0  0.22038909485E+03 -0.66192323213E+03  0.36699516220E+04  0.37932926109E+04  0.65864270000E+03 0. -1.
    8880022    1    1    2    0    0 -0.22038909485E+03  0.66192323213E+03 -0.22180915525E+03  0.74786674797E+03  0.15294330000E+03 0. -1.
<mgrwt>
<rscale>  0 0.89119069E+03</rscale>
<asrwt>0</asrwt>
<pdfrwt beam="1">  1        2 0.61456169E+00 0.95943938E+03</pdfrwt>
<pdfrwt beam="2">  1       -2 0.84078221E-01 0.95943938E+03</pdfrwt>
<totfact> 0.45280546E-01</totfact>
</mgrwt>
</event>
<event>
 4    1  0.6502538E-008  0.7071272E+03  0.7818608E-02  0.9968827E-01
         -2   -1    0    0    0  501 -0.00000000000E+00  0.00000000000E+00  0.12191270291E+04  0.12191270291E+04  0.25500000000E-02 0.  1.
          2   -1    0    0  501    0  0.00000000000E+00 -0.00000000000E+00 -0.47193544113E+03  0.47193544114E+03  0.25500000000E-02 0. -1.
    8880023    1    1    2    0    0 -0.25712704598E+03 -0.10218466782E+02 -0.16913951921E+03  0.72707435525E+03  0.65864270000E+03 0. -1.
    8880022    1    1    2    0    0  0.25712704598E+03  0.10218466782E+02  0.91633110715E+03  0.96398811496E+03  0.15294330000E+03 0.  0.
<mgrwt>
<rscale>  0 0.57038484E+03</rscale>
<asrwt>0</asrwt>
<pdfrwt beam="1">  1        2 0.72605454E-01 0.70712725E+03</pdfrwt>
<pdfrwt beam="2">  1       -2 0.18755800E+00 0.70712725E+03</pdfrwt>
<totfact> 0.10832816E+01</totfact>
</mgrwt>
</event>
<event>
 4    1  0.6502538E-008  0.1053099E+04  0.7818608E-02  0.9315165E-01
          2   -1    0    0  501    0  0.00000000000E+00  0.00000000000E+00  0.32182427529E+04  0.32182427529E+04  0.25500000000E-02 0. -1.
         -2   -1    0    0    0  501 -0.00000000000E+00 -0.00000000000E+00 -0.83870835512E+03  0.83870835512E+03  0.25500000000E-02 0.  1.
    8880023    1    1    2    0    0 -0.34539775627E+03  0.74559204428E+03  0.28911524151E+04  0.30769757231E+04  0.65864270000E+03 0.  0.
    8880022    1    1    2    0    0  0.34539775627E+03 -0.74559204428E+03 -0.51161801732E+03  0.97997538499E+03  0.15294330000E+03 0.  0.
<mgrwt>
<rscale>  0 0.99398619E+03</rscale>
<asrwt>0</asrwt>
<pdfrwt beam="1">  1        2 0.49511426E+00 0.10530989E+04</pdfrwt>
<pdfrwt beam="2">  1       -2 0.12903206E+00 0.10530989E+04</pdfrwt>
<totfact> 0.56608389E-01</totfact>
</mgrwt>
</event>
<event>
 4    1  0.6502538E-008  0.7545011E+03  0.7818608E-02  0.9819557E-01
          2   -1    0    0  501    0  0.00000000000E+00  0.00000000000E+00  0.14203730866E+03  0.14203730868E+03  0.25500000000E-02 0. -1.
         -2   -1    0    0    0  501 -0.00000000000E+00 -0.00000000000E+00 -0.27840495540E+04  0.27840495540E+04  0.25500000000E-02 0.  1.
    8880023    1    1    2    0    0 -0.36346611461E+03  0.57914553364E+02 -0.11034581418E+04  0.13367467183E+04  0.65864270000E+03 0.  0.
    8880022    1    1    2    0    0  0.36346611461E+03 -0.57914553364E+02 -0.15385541035E+04  0.15893401444E+04  0.15294330000E+03 0.  0.
<mgrwt>
<rscale>  0 0.64323470E+03</rscale>
<asrwt>0</asrwt>
<pdfrwt beam="1">  1        2 0.21851896E-01 0.75450111E+03</pdfrwt>
<pdfrwt beam="2">  1       -2 0.42831527E+00 0.75450111E+03</pdfrwt>
<totfact> 0.13152869E+00</totfact>
</mgrwt>
</event>
<event>
 4    1  0.6502538E-008  0.1480928E+04  0.7818608E-02  0.8923222E-01
          2   -1    0    0  501    0  0.00000000000E+00  0.00000000000E+00  0.26322787148E+04  0.26322787148E+04  0.25500000000E-02 0. -1.
         -2   -1    0    0    0  501 -0.00000000000E+00 -0.00000000000E+00 -0.16459502894E+04  0.16459502894E+04  0.25500000000E-02 0.  1.
    8880023    1    1    2    0    0 -0.58578142086E+03  0.11900405192E+04  0.20792787310E+04  0.25527527412E+04  0.65864270000E+03 0.  0.
    8880022    1    1    2    0    0  0.58578142086E+03 -0.11900405192E+04 -0.10929503056E+04  0.17254762629E+04  0.15294330000E+03 0.  0.
<mgrwt>
<rscale>  0 0.14430654E+04</rscale>
<asrwt>0</asrwt>
<pdfrwt beam="1">  1        2 0.40496595E+00 0.14809276E+04</pdfrwt>
<pdfrwt beam="2">  1       -2 0.25322312E+00 0.14809276E+04</pdfrwt>
<totfact> 0.16821692E-01</totfact>
</mgrwt>
</event>
<event>
 4    1  0.6502538E-008  0.1281594E+04  0.7818608E-02  0.9081620E-01
          2   -1    0    0  501    0  0.00000000000E+00  0.00000000000E+00  0.12291782869E+04  0.12291782869E+04  0.25500000000E-02 0. -1.
         -2   -1    0    0    0  501 -0.00000000000E+00 -0.00000000000E+00 -0.14483582479E+04  0.14483582479E+04  0.25500000000E-02 0.  1.
    8880023    1    1    2    0    0  0.87822494417E+03 -0.66135766381E+03  0.47678607347E+03  0.13674092943E+04  0.65864270000E+03 0.  0.
    8880022    1    1    2    0    0 -0.87822494417E+03  0.66135766381E+03 -0.69596603448E+03  0.13101272405E+04  0.15294330000E+03 0.  0.
<mgrwt>
<rscale>  0 0.12363517E+04</rscale>
<asrwt>0</asrwt>
<pdfrwt beam="1">  1        2 0.18910435E+00 0.12815940E+04</pdfrwt>
<pdfrwt beam="2">  1       -2 0.22282434E+00 0.12815940E+04</pdfrwt>
<totfact> 0.16624799E+00</totfact>
</mgrwt>
</event>
<event>
 4    1  0.6502538E-008  0.9146937E+03  0.7818608E-02  0.9502844E-01
          2   -1    0    0  501    0  0.00000000000E+00  0.00000000000E+00  0.13270601219E+04  0.13270601219E+04  0.25500000000E-02 0. -1.
         -2   -1    0    0    0  501 -0.00000000000E+00 -0.00000000000E+00 -0.60955067978E+03  0.60955067979E+03  0.25500000000E-02 0.  1.
    8880023    1    1    2    0    0 -0.75899672774E+02  0.63015357058E+03  0.87412762366E+03  0.12652128641E+04  0.65864270000E+03 0. -1.
    8880022    1    1    2    0    0  0.75899672774E+02 -0.63015357058E+03 -0.15661818149E+03  0.67139793761E+03  0.15294330000E+03 0.  0.
<mgrwt>
<rscale>  0 0.84074498E+03</rscale>
<asrwt>0</asrwt>
<pdfrwt beam="1">  1        2 0.20416310E+00 0.91469366E+03</pdfrwt>
<pdfrwt beam="2">  1       -2 0.93777028E-01 0.91469366E+03</pdfrwt>
<totfact> 0.15362099E+01</totfact>
</mgrwt>
</event>
<event>
 4    1  0.6502538E-008  0.6609598E+03  0.7818608E-02  0.1023194E+00
         -2   -1    0    0    0  501 -0.00000000000E+00  0.00000000000E+00  0.86475476625E+02  0.86475476662E+02  0.25500000000E-02 0.  1.
          2   -1    0    0  501    0  0.00000000000E+00 -0.00000000000E+00 -0.29267345428E+04  0.29267345428E+04  0.25500000000E-02 0. -1.
    8880023    1    1    2    0    0 -0.50968623165E+02  0.21442910699E+02 -0.27477086553E+04  0.28260875180E+04  0.65864270000E+03 0. -1.
    8880022    1    1    2    0    0  0.50968623165E+02 -0.21442910699E+02 -0.92550410859E+02  0.18712250140E+03  0.15294330000E+03 0. -1.
<mgrwt>
<rscale>  0 0.46551421E+03</rscale>
<asrwt>0</asrwt>
<pdfrwt beam="1">  1        2 0.45026678E+00 0.66095976E+03</pdfrwt>
<pdfrwt beam="2">  1       -2 0.13303922E-01 0.66095976E+03</pdfrwt>
<totfact> 0.88344141E+01</totfact>
</mgrwt>
</event>
<event>
 4    1  0.6502538E-008  0.7535951E+03  0.7818608E-02  0.9821981E-01
          2   -1    0    0  501    0  0.00000000000E+00  0.00000000000E+00  0.32270167887E+04  0.32270167887E+04  0.25500000000E-02 0. -1.
         -2   -1    0    0    0  501 -0.00000000000E+00 -0.00000000000E+00 -0.38390081393E+03  0.38390081394E+03  0.25500000000E-02 0.  1.
    8880023    1    1    2    0    0 -0.20327234728E+03  0.30459095100E+03  0.30649788830E+04  0.31562637808E+04  0.65864270000E+03 0. -1.
    8880022    1    1    2    0    0  0.20327234728E+03 -0.30459095100E+03 -0.22186290826E+03  0.45465382180E+03  0.15294330000E+03 0.  0.
<mgrwt>
<rscale>  0 0.64196167E+03</rscale>
<asrwt>0</asrwt>
<pdfrwt beam="1">  1        2 0.49646413E+00 0.75359505E+03</pdfrwt>
<pdfrwt beam="2">  1       -2 0.59061663E-01 0.75359505E+03</pdfrwt>
<totfact> 0.35812585E+00</totfact>
</mgrwt>
</event>
<event>
 4    1  0.6502538E-008  0.9144379E+03  0.7818608E-02  0.9503241E-01
          2   -1    0    0  501    0  0.00000000000E+00  0.00000000000E+00  0.24882446213E+04  0.24882446213E+04  0.25500000000E-02 0. -1.
         -2   -1    0    0    0  501 -0.00000000000E+00 -0.00000000000E+00 -0.41157928461E+03  0.41157928462E+03  0.25500000000E-02 0.  1.
    8880023    1    1    2    0    0 -0.12034517238E+03 -0.62281899374E+03  0.20523542955E+04  0.22468544279E+04  0.65864270000E+03 0.  0.
    8880022    1    1    2    0    0  0.12034517238E+03  0.62281899374E+03  0.24311041148E+02  0.65296947802E+03  0.15294330000E+03 0.  0.
<mgrwt>
<rscale>  0 0.84045328E+03</rscale>
<asrwt>0</asrwt>
<pdfrwt beam="1">  1        2 0.38280685E+00 0.91443790E+03</pdfrwt>
<pdfrwt beam="2">  1       -2 0.63319892E-01 0.91443790E+03</pdfrwt>
<totfact> 0.83519655E+00</totfact>
</mgrwt>
</event>
<event>
 4    1  0.6502538E-008  0.6991996E+03  0.7818608E-02  0.1000054E+00
         -2   -1    0    0    0  501 -0.00000000000E+00  0.00000000000E+00  0.11339019153E+04  0.11339019153E+04  0.25500000000E-02 0.  1.
          2   -1    0    0  501    0  0.00000000000E+00 -0.00000000000E+00 -0.17072148122E+04  0.17072148122E+04  0.25500000000E-02 0. -1.
    8880023    1    1    2    0    0  0.23417061369E+03  0.15297638253E+02 -0.16163627158E+04  0.17611100276E+04  0.65864270000E+03 0. -1.
    8880022    1    1    2    0    0 -0.23417061369E+03 -0.15297638253E+02  0.10430498189E+04  0.10800066999E+04  0.15294330000E+03 0.  0.
<mgrwt>
<rscale>  0 0.55626661E+03</rscale>
<asrwt>0</asrwt>
<pdfrwt beam="1">  1        2 0.26264843E+00 0.69919961E+03</pdfrwt>
<pdfrwt beam="2">  1       -2 0.17444645E+00 0.69919961E+03</pdfrwt>
<totfact> 0.20091877E+00</totfact>
</mgrwt>
</event>
<event>
 4    1  0.6502538E-008  0.9042692E+03  0.7818608E-02  0.9519213E-01
          2   -1    0    0  501    0  0.00000000000E+00  0.00000000000E+00  0.15553030661E+04  0.15553030661E+04  0.25500000000E-02 0. -1.
         -2   -1    0    0    0  501 -0.00000000000E+00 -0.00000000000E+00 -0.40351357340E+03  0.40351357340E+03  0.25500000000E-02 0.  1.
    8880023    1    1    2    0    0  0.54526790821E+03 -0.29423725666E+03  0.89074689437E+03  0.12693040971E+04  0.65864270000E+03 0. -1.
    8880022    1    1    2    0    0 -0.54526790821E+03  0.29423725666E+03  0.26104259834E+03  0.68951254237E+03  0.15294330000E+03 0.  0.
<mgrwt>
<rscale>  0 0.82882058E+03</rscale>
<asrwt>0</asrwt>
<pdfrwt beam="1">  1        2 0.23927739E+00 0.90426924E+03</pdfrwt>
<pdfrwt beam="2">  1       -2 0.62079012E-01 0.90426924E+03</pdfrwt>
<totfact> 0.28680987E+01</totfact>
</mgrwt>
</event>
<event>
 4    1  0.6502538E-008  0.8033114E+03  0.7818608E-02  0.9703681E-01
         -2   -1    0    0    0  501 -0.00000000000E+00  0.00000000000E+00  0.85029364604E+03  0.85029364604E+03  0.25500000000E-02 0.  1.
          2   -1    0    0  501    0  0.00000000000E+00 -0.00000000000E+00 -0.13554929138E+04  0.13554929138E+04  0.25500000000E-02 0. -1.
    8880023    1    1    2    0    0  0.45269963785E+03 -0.81006165125E+02 -0.11477547167E+04  0.14009461292E+04  0.65864270000E+03 0.  0.
    8880022    1    1    2    0    0 -0.45269963785E+03  0.81006165125E+02  0.64255544892E+03  0.80484043068E+03  0.15294330000E+03 0.  0.
<mgrwt>
<rscale>  0 0.70798026E+03</rscale>
<asrwt>0</asrwt>
<pdfrwt beam="1">  1        2 0.20853737E+00 0.80331138E+03</pdfrwt>
<pdfrwt beam="2">  1       -2 0.13081441E+00 0.80331138E+03</pdfrwt>
<totfact> 0.66631125E+00</totfact>
</mgrwt>
</event>
<event>
 4    1  0.6502538E-008  0.6784266E+03  0.7818608E-02  0.1010228E+00
          2   -1    0    0  501    0  0.00000000000E+00  0.00000000000E+00  0.81908686867E+03  0.81908686868E+03  0.25500000000E-02 0. -1.
         -2   -1    0    0    0  501 -0.00000000000E+00 -0.00000000000E+00 -0.74029131444E+03  0.74029131445E+03  0.25500000000E-02 0.  1.
    8880023    1    1    2    0    0 -0.15976132715E+03 -0.30475880409E+02  0.65402435633E+03  0.94234310412E+03  0.65864270000E+03 0. -1.
    8880022    1    1    2    0    0  0.15976132715E+03  0.30475880409E+02 -0.57522880210E+03  0.61703507901E+03  0.15294330000E+03 0.  0.
<mgrwt>
<rscale>  0 0.51384116E+03</rscale>
<asrwt>0</asrwt>
<pdfrwt beam="1">  1        2 0.12601336E+00 0.67842661E+03</pdfrwt>
<pdfrwt beam="2">  1       -2 0.11389097E+00 0.67842661E+03</pdfrwt>
<totfact> 0.20598056E+01</totfact>
</mgrwt>
</event>
<event>
 4    1  0.6502538E-008  0.1059573E+04  0.7818608E-02  0.9307461E-01
          2   -1    0    0  501    0  0.00000000000E+00  0.00000000000E+00  0.16542259002E+04  0.16542259002E+04  0.25500000000E-02 0. -1.
         -2   -1    0    0    0  501 -0.00000000000E+00 -0.00000000000E+00 -0.12064658753E+04  0.12064658753E+04  0.25500000000E-02 0.  1.
    8880023    1    1    2    0    0 -0.81863214812E+03  0.13684594417E+03  0.12893199672E+04  0.16688443877E+04  0.65864270000E+03 0.  0.
    8880022    1    1    2    0    0  0.81863214812E+03 -0.13684594417E+03 -0.84155994226E+03  0.11918473878E+04  0.15294330000E+03 0.  0.
<mgrwt>
<rscale>  0 0.10009892E+04</rscale>
<asrwt>0</asrwt>
<pdfrwt beam="1">  1        2 0.25449629E+00 0.10595733E+04</pdfrwt>
<pdfrwt beam="2">  1       -2 0.18561014E+00 0.10595733E+04</pdfrwt>
<totfact> 0.17025970E+00</totfact>
</mgrwt>
</event>
<event>
 4    1  0.6502538E-008  0.7243441E+03  0.7818608E-02  0.9908152E-01
         -2   -1    0    0    0  501 -0.00000000000E+00  0.00000000000E+00  0.24487462867E+03  0.24487462868E+03  0.25500000000E-02 0.  1.
          2   -1    0    0  501    0  0.00000000000E+00 -0.00000000000E+00 -0.20472126232E+04  0.20472126233E+04  0.25500000000E-02 0. -1.
    8880023    1    1    2    0    0  0.26184827423E+03 -0.14933048951E+03 -0.18146192546E+04  0.19538468106E+04  0.65864270000E+03 0. -1.
    8880022    1    1    2    0    0 -0.26184827423E+03  0.14933048951E+03  0.12281259998E+02  0.33824044137E+03  0.15294330000E+03 0.  0.
<mgrwt>
<rscale>  0 0.59867820E+03</rscale>
<asrwt>0</asrwt>
<pdfrwt beam="1">  1        2 0.31495578E+00 0.72434406E+03</pdfrwt>
<pdfrwt beam="2">  1       -2 0.37673021E-01 0.72434406E+03</pdfrwt>
<totfact> 0.43263818E+01</totfact>
</mgrwt>
</event>
<event>
 4    1  0.6502538E-008  0.1662537E+04  0.7818608E-02  0.8802648E-01
          2   -1    0    0  501    0  0.00000000000E+00  0.00000000000E+00  0.21677359424E+04  0.21677359424E+04  0.25500000000E-02 0. -1.
         -2   -1    0    0    0  501 -0.00000000000E+00 -0.00000000000E+00 -0.23351369778E+04  0.23351369778E+04  0.25500000000E-02 0.  1.
    8880023    1    1    2    0    0  0.10913540551E+04  0.10673164317E+04  0.14984868534E+04  0.22381892447E+04  0.65864270000E+03 0.  0.
    8880022    1    1    2    0    0 -0.10913540551E+04 -0.10673164317E+04 -0.16658878888E+04  0.22646836755E+04  0.15294330000E+03 0.  0.
<mgrwt>
<rscale>  0 0.16294657E+04</rscale>
<asrwt>0</asrwt>
<pdfrwt beam="1">  1        2 0.33349784E+00 0.16625367E+04</pdfrwt>
<pdfrwt beam="2">  1       -2 0.35925184E+00 0.16625367E+04</pdfrwt>
<totfact> 0.67338533E-02</totfact>
</mgrwt>
</event>
<event>
 4    1  0.6502538E-008  0.1454077E+04  0.7818608E-02  0.8942763E-01
          2   -1    0    0  501    0  0.00000000000E+00  0.00000000000E+00  0.17279858536E+04  0.17279858536E+04  0.25500000000E-02 0. -1.
         -2   -1    0    0    0  501 -0.00000000000E+00 -0.00000000000E+00 -0.17874609318E+04  0.17874609318E+04  0.25500000000E-02 0.  1.
    8880023    1    1    2    0    0 -0.12237759774E+04 -0.42767212424E+03  0.10570808044E+04  0.17977099660E+04  0.65864270000E+03 0. -1.
    8880022    1    1    2    0    0  0.12237759774E+04  0.42767212424E+03 -0.11165558827E+04  0.17177368194E+04  0.15294330000E+03 0.  0.
<mgrwt>
<rscale>  0 0.14153762E+04</rscale>
<asrwt>0</asrwt>
<pdfrwt beam="1">  1        2 0.26584398E+00 0.14540775E+04</pdfrwt>
<pdfrwt beam="2">  1       -2 0.27499399E+00 0.14540775E+04</pdfrwt>
<totfact> 0.40333139E-01</totfact>
</mgrwt>
</event>
<event>
 4    1  0.6502538E-008  0.1345126E+04  0.7818608E-02  0.9027539E-01
          2   -1    0    0  501    0  0.00000000000E+00  0.00000000000E+00  0.32447199264E+04  0.32447199264E+04  0.25500000000E-02 0. -1.
         -2   -1    0    0    0  501 -0.00000000000E+00 -0.00000000000E+00 -0.10991702710E+04  0.10991702710E+04  0.25500000000E-02 0.  1.
    8880023    1    1    2    0    0 -0.11399198844E+04  0.27592721707E+03  0.27159227719E+04  0.30307754587E+04  0.65864270000E+03 0. -1.
    8880022    1    1    2    0    0  0.11399198844E+04 -0.27592721707E+03 -0.57037311648E+03  0.13131147387E+04  0.15294330000E+03 0.  0.
<mgrwt>
<rscale>  0 0.13025585E+04</rscale>
<asrwt>0</asrwt>
<pdfrwt beam="1">  1        2 0.49918767E+00 0.13451258E+04</pdfrwt>
<pdfrwt beam="2">  1       -2 0.16910312E+00 0.13451258E+04</pdfrwt>
<totfact> 0.25355337E-01</totfact>
</mgrwt>
</event>
<event>
 4    1  0.6502538E-008  0.6927015E+03  0.7818608E-02  0.1002894E+00
          2   -1    0    0  501    0  0.00000000000E+00  0.00000000000E+00  0.27845609375E+03  0.27845609376E+03  0.25500000000E-02 0. -1.
         -2   -1    0    0    0  501 -0.00000000000E+00 -0.00000000000E+00 -0.12012304496E+04  0.12012304496E+04  0.25500000000E-02 0.  1.
    8880023    1    1    2    0    0 -0.14385217215E+01 -0.21453007297E+03 -0.21630732242E+03  0.72568883521E+03  0.65864270000E+03 0. -1.
    8880022    1    1    2    0    0  0.14385217215E+01  0.21453007297E+03 -0.70646703343E+03  0.75399770815E+03  0.15294330000E+03 0.  0.
<mgrwt>
<rscale>  0 0.54399229E+03</rscale>
<asrwt>0</asrwt>
<pdfrwt beam="1">  1        2 0.42839400E-01 0.69270154E+03</pdfrwt>
<pdfrwt beam="2">  1       -2 0.18480468E+00 0.69270154E+03</pdfrwt>
<totfact> 0.20451160E+01</totfact>
</mgrwt>
</event>
<event>
 4    1  0.6502538E-008  0.1041631E+04  0.7818608E-02  0.9329010E-01
          2   -1    0    0  501    0  0.00000000000E+00  0.00000000000E+00  0.20196269548E+04  0.20196269548E+04  0.25500000000E-02 0. -1.
         -2   -1    0    0    0  501 -0.00000000000E+00 -0.00000000000E+00 -0.46608754009E+03  0.46608754010E+03  0.25500000000E-02 0.  1.
    8880023    1    1    2    0    0 -0.21283100191E+03  0.77838821390E+03  0.12068846709E+04  0.15942289867E+04  0.65864270000E+03 0.  0.
    8880022    1    1    2    0    0  0.21283100191E+03 -0.77838821390E+03  0.34665474382E+03  0.89148550820E+03  0.15294330000E+03 0.  0.
<mgrwt>
<rscale>  0 0.98155446E+03</rscale>
<asrwt>0</asrwt>
<pdfrwt beam="1">  1        2 0.31071184E+00 0.10416312E+04</pdfrwt>
<pdfrwt beam="2">  1       -2 0.71705776E-01 0.10416312E+04</pdfrwt>
<totfact> 0.11472003E+01</totfact>
</mgrwt>
</event>
<event>
 4    1  0.6502538E-008  0.1210689E+04  0.7818608E-02  0.9146801E-01
         -2   -1    0    0    0  501 -0.00000000000E+00  0.00000000000E+00  0.10760328292E+04  0.10760328292E+04  0.25500000000E-02 0.  1.
          2   -1    0    0  501    0  0.00000000000E+00 -0.00000000000E+00 -0.12066630590E+04  0.12066630590E+04  0.25500000000E-02 0. -1.
    8880023    1    1    2    0    0  0.58919434434E+03 -0.82753113193E+03  0.14425481010E+03  0.12192528065E+04  0.65864270000E+03 0.  0.
    8880022    1    1    2    0    0 -0.58919434434E+03  0.82753113193E+03 -0.27488503994E+03  0.10634430816E+04  0.15294330000E+03 0.  0.
<mgrwt>
<rscale>  0 0.11619809E+04</rscale>
<asrwt>0</asrwt>
<pdfrwt beam="1">  1        2 0.18564047E+00 0.12106890E+04</pdfrwt>
<pdfrwt beam="2">  1       -2 0.16554351E+00 0.12106890E+04</pdfrwt>
<totfact> 0.41812366E+00</totfact>
</mgrwt>
</event>
<event>
 4    1  0.6502538E-008  0.1022636E+04  0.7818608E-02  0.9352525E-01
          2   -1    0    0  501    0  0.00000000000E+00  0.00000000000E+00  0.13313618686E+04  0.13313618686E+04  0.25500000000E-02 0. -1.
         -2   -1    0    0    0  501 -0.00000000000E+00 -0.00000000000E+00 -0.77454388175E+03  0.77454388175E+03  0.25500000000E-02 0.  1.
    8880023    1    1    2    0    0  0.37822057443E+03 -0.68477914331E+03  0.77079253592E+03  0.12805876064E+04  0.65864270000E+03 0.  0.
    8880022    1    1    2    0    0 -0.37822057443E+03  0.68477914331E+03 -0.21397454907E+03  0.82531814393E+03  0.15294330000E+03 0.  0.
<mgrwt>
<rscale>  0 0.96087871E+03</rscale>
<asrwt>0</asrwt>
<pdfrwt beam="1">  1        2 0.20482490E+00 0.10226356E+04</pdfrwt>
<pdfrwt beam="2">  1       -2 0.11916060E+00 0.10226356E+04</pdfrwt>
<totfact> 0.84875264E+00</totfact>
</mgrwt>
</event>
<event>
 4    1  0.6502538E-008  0.1068671E+04  0.7818608E-02  0.9296766E-01
          2   -1    0    0  501    0  0.00000000000E+00  0.00000000000E+00  0.21980064979E+04  0.21980064979E+04  0.25500000000E-02 0. -1.
         -2   -1    0    0    0  501 -0.00000000000E+00 -0.00000000000E+00 -0.48073514858E+03  0.48073514859E+03  0.25500000000E-02 0.  1.
    8880023    1    1    2    0    0  0.53876729865E+03  0.64651180710E+03  0.47262962177E+03  0.11685190133E+04  0.65864270000E+03 0.  1.
    8880022    1    1    2    0    0 -0.53876729865E+03 -0.64651180710E+03  0.12446417276E+04  0.15102226332E+04  0.15294330000E+03 0.  0.
<mgrwt>
<rscale>  0 0.10108115E+04</rscale>
<asrwt>0</asrwt>
<pdfrwt beam="1">  1        2 0.33815484E+00 0.10686711E+04</pdfrwt>
<pdfrwt beam="2">  1       -2 0.73959256E-01 0.10686711E+04</pdfrwt>
<totfact> 0.85067879E+00</totfact>
</mgrwt>
</event>
<event>
 4    1  0.6502538E-008  0.7740424E+03  0.7818608E-02  0.9770022E-01
         -2   -1    0    0    0  501 -0.00000000000E+00  0.00000000000E+00  0.45872346359E+03  0.45872346360E+03  0.25500000000E-02 0.  1.
          2   -1    0    0  501    0  0.00000000000E+00 -0.00000000000E+00 -0.11499604493E+04  0.11499604493E+04  0.25500000000E-02 0. -1.
    8880023    1    1    2    0    0  0.82588029689E+01 -0.40652572365E+03 -0.84678650884E+03  0.11472527924E+04  0.65864270000E+03 0. -1.
    8880022    1    1    2    0    0 -0.82588029689E+01  0.40652572365E+03  0.15554952314E+03  0.46143112051E+03  0.15294330000E+03 0.  0.
<mgrwt>
<rscale>  0 0.66996430E+03</rscale>
<asrwt>0</asrwt>
<pdfrwt beam="1">  1        2 0.17691699E+00 0.77404236E+03</pdfrwt>
<pdfrwt beam="2">  1       -2 0.70572841E-01 0.77404236E+03</pdfrwt>
<totfact> 0.37643514E+01</totfact>
</mgrwt>
</event>
<event>
 4    1  0.2074567E-007  0.1637447E+04  0.7818608E-02  0.8818222E-01
          2   -1    0    0  501    0  0.00000000000E+00  0.00000000000E+00  0.31545276619E+04  0.31545276619E+04  0.25500000000E-02 0. -1.
         -2   -1    0    0    0  501 -0.00000000000E+00 -0.00000000000E+00 -0.26485100060E+04  0.26485100060E+04  0.25500000000E-02 0.  1.
    8880023    1    1    2    0    0 -0.29012818408E+03  0.14707981671E+04  0.26902663233E+04  0.31494070407E+04  0.65864270000E+03 0.  0.
    8880022    1    1    2    0    0  0.29012818408E+03 -0.14707981671E+04 -0.21842486674E+04  0.26536306272E+04  0.15294330000E+03 0.  0.
<mgrwt>
<rscale>  0 0.16037921E+04</rscale>
<asrwt>0</asrwt>
<pdfrwt beam="1">  1        2 0.48531195E+00 0.16374467E+04</pdfrwt>
<pdfrwt beam="2">  1       -2 0.40746308E+00 0.16374467E+04</pdfrwt>
<totfact> 0.85041761E-03</totfact>
</mgrwt>
</event>
<event>
 4    1  0.6502538E-008  0.7463357E+03  0.7818608E-02  0.9841862E-01
         -2   -1    0    0    0  501 -0.00000000000E+00  0.00000000000E+00  0.66101615725E+03  0.66101615725E+03  0.25500000000E-02 0.  1.
          2   -1    0    0  501    0  0.00000000000E+00 -0.00000000000E+00 -0.23169181291E+04  0.23169181291E+04  0.25500000000E-02 0. -1.
    8880023    1    1    2    0    0  0.29287841047E+03 -0.19346564118E+03 -0.21940297770E+04  0.23174951103E+04  0.65864270000E+03 0.  0.
    8880022    1    1    2    0    0 -0.29287841047E+03  0.19346564118E+03  0.53812780512E+03  0.66043917608E+03  0.15294330000E+03 0.  0.
<mgrwt>
<rscale>  0 0.63163588E+03</rscale>
<asrwt>0</asrwt>
<pdfrwt beam="1">  1        2 0.35644894E+00 0.74633566E+03</pdfrwt>
<pdfrwt beam="2">  1       -2 0.10169479E+00 0.74633566E+03</pdfrwt>
<totfact> 0.36790646E+00</totfact>
</mgrwt>
</event>
<event>
 4    1  0.6502538E-008  0.9138476E+03  0.7818608E-02  0.9504158E-01
          2   -1    0    0  501    0  0.00000000000E+00  0.00000000000E+00  0.17466467593E+04  0.17466467593E+04  0.25500000000E-02 0. -1.
         -2   -1    0    0    0  501 -0.00000000000E+00 -0.00000000000E+00 -0.46643676944E+03  0.46643676945E+03  0.25500000000E-02 0.  1.
    8880023    1    1    2    0    0  0.19891791693E+03 -0.60144738701E+03  0.12658354726E+04  0.15612357116E+04  0.65864270000E+03 0. -1.
    8880022    1    1    2    0    0 -0.19891791693E+03  0.60144738701E+03  0.14374517233E+02  0.65184781719E+03  0.15294330000E+03 0.  0.
<mgrwt>
<rscale>  0 0.83977993E+03</rscale>
<asrwt>0</asrwt>
<pdfrwt beam="1">  1        2 0.26871488E+00 0.91384764E+03</pdfrwt>
<pdfrwt beam="2">  1       -2 0.71759503E-01 0.91384764E+03</pdfrwt>
<totfact> 0.16407467E+01</totfact>
</mgrwt>
</event>
<event>
 4    1  0.6502538E-008  0.6614549E+03  0.7818608E-02  0.1022713E+00
          2   -1    0    0  501    0  0.00000000000E+00  0.00000000000E+00  0.27873688580E+04  0.27873688580E+04  0.25500000000E-02 0. -1.
         -2   -1    0    0    0  501 -0.00000000000E+00 -0.00000000000E+00 -0.12524776107E+03  0.12524776110E+03  0.25500000000E-02 0.  1.
    8880023    1    1    2    0    0 -0.31233580899E+02 -0.52314810830E+02  0.26671100411E+04  0.27479080322E+04  0.65864270000E+03 0. -1.
    8880022    1    1    2    0    0  0.31233580899E+02  0.52314810830E+02 -0.49889441721E+01  0.16470858686E+03  0.15294330000E+03 0.  0.
<mgrwt>
<rscale>  0 0.46720169E+03</rscale>
<asrwt>0</asrwt>
<pdfrwt beam="1">  1        2 0.42882597E+00 0.66145490E+03</pdfrwt>
<pdfrwt beam="2">  1       -2 0.19268887E-01 0.66145490E+03</pdfrwt>
<totfact> 0.56934073E+01</totfact>
</mgrwt>
</event>
<event>
 4    1  0.6502538E-008  0.8686456E+03  0.7818608E-02  0.9578366E-01
         -2   -1    0    0    0  501 -0.00000000000E+00  0.00000000000E+00  0.88364499457E+03  0.88364499457E+03  0.25500000000E-02 0.  1.
          2   -1    0    0  501    0  0.00000000000E+00 -0.00000000000E+00 -0.88876278883E+03  0.88876278883E+03  0.25500000000E-02 0. -1.
    8880023    1    1    2    0    0  0.56057818543E+03 -0.80542200256E+02 -0.50231497719E+03  0.10034268736E+04  0.65864270000E+03 0.  0.
    8880022    1    1    2    0    0 -0.56057818543E+03  0.80542200256E+02  0.49719718292E+03  0.76898090986E+03  0.15294330000E+03 0.  0.
<mgrwt>
<rscale>  0 0.78744774E+03</rscale>
<asrwt>0</asrwt>
<pdfrwt beam="1">  1        2 0.13673274E+00 0.86864559E+03</pdfrwt>
<pdfrwt beam="2">  1       -2 0.13594538E+00 0.86864559E+03</pdfrwt>
<totfact> 0.11608206E+01</totfact>
</mgrwt>
</event>
<event>
 4    1  0.6502538E-008  0.8011960E+03  0.7818608E-02  0.9708216E-01
          2   -1    0    0  501    0  0.00000000000E+00  0.00000000000E+00  0.81080808796E+03  0.81080808796E+03  0.25500000000E-02 0. -1.
         -2   -1    0    0    0  501 -0.00000000000E+00 -0.00000000000E+00 -0.14742901721E+04  0.14742901721E+04  0.25500000000E-02 0.  1.
    8880023    1    1    2    0    0 -0.27123783574E+03  0.36679003981E+03  0.55527555623E+03  0.97480564548E+03  0.65864270000E+03 0.  0.
    8880022    1    1    2    0    0  0.27123783574E+03 -0.36679003981E+03 -0.12187576403E+04  0.13102926146E+04  0.15294330000E+03 0.  0.
<mgrwt>
<rscale>  0 0.70529721E+03</rscale>
<asrwt>0</asrwt>
<pdfrwt beam="1">  1        2 0.12473971E+00 0.80119605E+03</pdfrwt>
<pdfrwt beam="2">  1       -2 0.22681387E+00 0.80119605E+03</pdfrwt>
<totfact> 0.30876458E+00</totfact>
</mgrwt>
</event>
<event>
 4    1  0.7378216E-008  0.8104414E+03  0.7818608E-02  0.9688658E-01
         -2   -1    0    0    0  501 -0.00000000000E+00  0.00000000000E+00  0.14192785440E+04  0.14192785440E+04  0.25500000000E-02 0.  1.
          2   -1    0    0  501    0  0.00000000000E+00 -0.00000000000E+00 -0.19788988495E+04  0.19788988495E+04  0.25500000000E-02 0. -1.
    8880023    1    1    2    0    0 -0.41782204443E+03  0.22006782234E+03 -0.18477742206E+04  0.20176929608E+04  0.65864270000E+03 0. -1.
    8880022    1    1    2    0    0  0.41782204443E+03 -0.22006782234E+03  0.12881539151E+04  0.13804844328E+04  0.15294330000E+03 0.  0.
<mgrwt>
<rscale>  0 0.71696111E+03</rscale>
<asrwt>0</asrwt>
<pdfrwt beam="1">  1        2 0.30444598E+00 0.81044143E+03</pdfrwt>
<pdfrwt beam="2">  1       -2 0.21835054E+00 0.81044143E+03</pdfrwt>
<totfact> 0.71836965E-01</totfact>
</mgrwt>
</event>
<event>
 4    1  0.6502538E-008  0.9539856E+03  0.7818608E-02  0.9444403E-01
         -2   -1    0    0    0  501 -0.00000000000E+00  0.00000000000E+00  0.29220023906E+03  0.29220023907E+03  0.25500000000E-02 0.  1.
          2   -1    0    0  501    0  0.00000000000E+00 -0.00000000000E+00 -0.39132410623E+04  0.39132410623E+04  0.25500000000E-02 0. -1.
    8880023    1    1    2    0    0  0.54968809266E+03  0.41727851357E+03 -0.32888263552E+04  0.34243929912E+04  0.65864270000E+03 0. -1.
    8880022    1    1    2    0    0 -0.54968809266E+03 -0.41727851357E+03 -0.33221446806E+03  0.78104831022E+03  0.15294330000E+03 0.  0.
<mgrwt>
<rscale>  0 0.88509886E+03</rscale>
<asrwt>0</asrwt>
<pdfrwt beam="1">  1        2 0.60203705E+00 0.95398562E+03</pdfrwt>
<pdfrwt beam="2">  1       -2 0.44953886E-01 0.95398562E+03</pdfrwt>
<totfact> 0.19966157E+00</totfact>
</mgrwt>
</event>
<event>
 4    1  0.6502538E-008  0.7819636E+03  0.7818608E-02  0.9751245E-01
         -2   -1    0    0    0  501 -0.00000000000E+00  0.00000000000E+00  0.22505346914E+03  0.22505346915E+03  0.25500000000E-02 0.  1.
          2   -1    0    0  501    0  0.00000000000E+00 -0.00000000000E+00 -0.22339474444E+04  0.22339474444E+04  0.25500000000E-02 0. -1.
    8880023    1    1    2    0    0  0.39612900284E+03 -0.14400907918E+03 -0.18036716545E+04  0.19658836296E+04  0.65864270000E+03 0. -1.
    8880022    1    1    2    0    0 -0.39612900284E+03  0.14400907918E+03 -0.20522232083E+03  0.49311728398E+03  0.15294330000E+03 0.  0.
<mgrwt>
<rscale>  0 0.68045981E+03</rscale>
<asrwt>0</asrwt>
<pdfrwt beam="1">  1        2 0.34368421E+00 0.78196356E+03</pdfrwt>
<pdfrwt beam="2">  1       -2 0.34623612E-01 0.78196356E+03</pdfrwt>
<totfact> 0.39863329E+01</totfact>
</mgrwt>
</event>
<event>
 4    1  0.6502538E-008  0.8783578E+03  0.7818608E-02  0.9561708E-01
         -2   -1    0    0    0  501 -0.00000000000E+00  0.00000000000E+00  0.54050369081E+03  0.54050369081E+03  0.25500000000E-02 0.  1.
          2   -1    0    0  501    0  0.00000000000E+00 -0.00000000000E+00 -0.16659611851E+04  0.16659611851E+04  0.25500000000E-02 0. -1.
    8880023    1    1    2    0    0 -0.42349786806E+03 -0.39793428499E+03 -0.13105680768E+04  0.15776885085E+04  0.65864270000E+03 0.  0.
    8880022    1    1    2    0    0  0.42349786806E+03  0.39793428499E+03  0.18511058259E+03  0.62877636742E+03  0.15294330000E+03 0.  0.
<mgrwt>
<rscale>  0 0.79883316E+03</rscale>
<asrwt>0</asrwt>
<pdfrwt beam="1">  1        2 0.25630172E+00 0.87835775E+03</pdfrwt>
<pdfrwt beam="2">  1       -2 0.83154415E-01 0.87835775E+03</pdfrwt>
<totfact> 0.13121913E+01</totfact>
</mgrwt>
</event>
<event>
 4    1  0.6502538E-008  0.1455561E+04  0.7818608E-02  0.8941670E-01
          2   -1    0    0  501    0  0.00000000000E+00  0.00000000000E+00  0.30658525905E+04  0.30658525905E+04  0.25500000000E-02 0. -1.
         -2   -1    0    0    0  501 -0.00000000000E+00 -0.00000000000E+00 -0.85820305137E+03  0.85820305138E+03  0.25500000000E-02 0.  1.
    8880023    1    1    2    0    0 -0.12781772778E+04 -0.22607831565E+03  0.21744262314E+04  0.26166368109E+04  0.65864270000E+03 0.  0.
    8880022    1    1    2    0    0  0.12781772778E+04  0.22607831565E+03  0.33223307796E+02  0.13074188310E+04  0.15294330000E+03 0.  0.
<mgrwt>
<rscale>  0 0.14169075E+04</rscale>
<asrwt>0</asrwt>
<pdfrwt beam="1">  1        2 0.47166964E+00 0.14555613E+04</pdfrwt>
<pdfrwt beam="2">  1       -2 0.13203124E+00 0.14555613E+04</pdfrwt>
<totfact> 0.63153693E-01</totfact>
</mgrwt>
</event>
<event>
 4    1  0.6502538E-008  0.7697472E+03  0.7818608E-02  0.9780497E-01
         -2   -1    0    0    0  501 -0.00000000000E+00  0.00000000000E+00  0.77534296242E+03  0.77534296242E+03  0.25500000000E-02 0.  1.
          2   -1    0    0  501    0  0.00000000000E+00 -0.00000000000E+00 -0.15149030404E+04  0.15149030404E+04  0.25500000000E-02 0. -1.
    8880023    1    1    2    0    0  0.14640839250E+03 -0.37049302620E+03 -0.13449099323E+04  0.15496107356E+04  0.65864270000E+03 0.  0.
    8880022    1    1    2    0    0 -0.14640839250E+03  0.37049302620E+03  0.60534985430E+03  0.74063526717E+03  0.15294330000E+03 0.  0.
<mgrwt>
<rscale>  0 0.66419787E+03</rscale>
<asrwt>0</asrwt>
<pdfrwt beam="1">  1        2 0.23306200E+00 0.76974717E+03</pdfrwt>
<pdfrwt beam="2">  1       -2 0.11928353E+00 0.76974717E+03</pdfrwt>
<totfact> 0.68611152E+00</totfact>
</mgrwt>
</event>
<event>
 4    1  0.6502538E-008  0.7889636E+03  0.7818608E-02  0.9735188E-01
          2   -1    0    0  501    0  0.00000000000E+00  0.00000000000E+00  0.63591544286E+03  0.63591544286E+03  0.25500000000E-02 0. -1.
         -2   -1    0    0    0  501 -0.00000000000E+00 -0.00000000000E+00 -0.71694963226E+03  0.71694963226E+03  0.25500000000E-02 0.  1.
    8880023    1    1    2    0    0  0.17295252247E+03 -0.39842288671E+03  0.19931950920E+03  0.81375170949E+03  0.65864270000E+03 0.  1.
    8880022    1    1    2    0    0 -0.17295252247E+03  0.39842288671E+03 -0.28035369860E+03  0.53911336564E+03  0.15294330000E+03 0.  0.
<mgrwt>
<rscale>  0 0.68959839E+03</rscale>
<asrwt>0</asrwt>
<pdfrwt beam="1">  1        2 0.97833145E-01 0.78896361E+03</pdfrwt>
<pdfrwt beam="2">  1       -2 0.11029994E+00 0.78896361E+03</pdfrwt>
<totfact> 0.30448088E+01</totfact>
</mgrwt>
</event>
<event>
 4    1  0.6502538E-008  0.1085999E+04  0.7818608E-02  0.9276807E-01
          2   -1    0    0  501    0  0.00000000000E+00  0.00000000000E+00  0.11142617389E+04  0.11142617389E+04  0.25500000000E-02 0. -1.
         -2   -1    0    0    0  501 -0.00000000000E+00 -0.00000000000E+00 -0.13468419864E+04  0.13468419864E+04  0.25500000000E-02 0.  1.
    8880023    1    1    2    0    0 -0.50666031385E+03 -0.69919803726E+03  0.60949896651E+03  0.12453440349E+04  0.65864270000E+03 0. -1.
    8880022    1    1    2    0    0  0.50666031385E+03  0.69919803726E+03 -0.84207921405E+03  0.12157596904E+04  0.15294330000E+03 0.  0.
<mgrwt>
<rscale>  0 0.10294634E+04</rscale>
<asrwt>0</asrwt>
<pdfrwt beam="1">  1        2 0.17142488E+00 0.10859985E+04</pdfrwt>
<pdfrwt beam="2">  1       -2 0.20720646E+00 0.10859985E+04</pdfrwt>
<totfact> 0.25051354E+00</totfact>
</mgrwt>
</event>
<event>
 4    1  0.6502538E-008  0.8330336E+03  0.7818608E-02  0.9643458E-01
          2   -1    0    0  501    0  0.00000000000E+00  0.00000000000E+00  0.19217931071E+04  0.19217931071E+04  0.25500000000E-02 0. -1.
         -2   -1    0    0    0  501 -0.00000000000E+00 -0.00000000000E+00 -0.32577791528E+03  0.32577791529E+03  0.25500000000E-02 0.  1.
    8880023    1    1    2    0    0  0.26137751563E+03  0.43796876375E+03  0.14864256535E+04  0.17039384593E+04  0.65864270000E+03 0.  0.
    8880022    1    1    2    0    0 -0.26137751563E+03 -0.43796876375E+03  0.10958953838E+03  0.54363256307E+03  0.15294330000E+03 0.  0.
<mgrwt>
<rscale>  0 0.74485393E+03</rscale>
<asrwt>0</asrwt>
<pdfrwt beam="1">  1        2 0.29566048E+00 0.83303364E+03</pdfrwt>
<pdfrwt beam="2">  1       -2 0.50119679E-01 0.83303364E+03</pdfrwt>
<totfact> 0.28387021E+01</totfact>
</mgrwt>
</event>
<event>
 4    1  0.6502538E-008  0.7635944E+03  0.7818608E-02  0.9795889E-01
          2   -1    0    0  501    0  0.00000000000E+00  0.00000000000E+00  0.20637054039E+04  0.20637054039E+04  0.25500000000E-02 0. -1.
         -2   -1    0    0    0  501 -0.00000000000E+00 -0.00000000000E+00 -0.56457804347E+03  0.56457804348E+03  0.25500000000E-02 0.  1.
    8880023    1    1    2    0    0  0.26113348630E+03 -0.28473751224E+03  0.19019793260E+04  0.20495369505E+04  0.65864270000E+03 0. -1.
    8880022    1    1    2    0    0 -0.26113348630E+03  0.28473751224E+03 -0.40285196556E+03  0.57874649693E+03  0.15294330000E+03 0.  0.
<mgrwt>
<rscale>  0 0.65583609E+03</rscale>
<asrwt>0</asrwt>
<pdfrwt beam="1">  1        2 0.31749313E+00 0.76359437E+03</pdfrwt>
<pdfrwt beam="2">  1       -2 0.86858162E-01 0.76359437E+03</pdfrwt>
<totfact> 0.73084260E+00</totfact>
</mgrwt>
</event>
<event>
 4    1  0.6502538E-008  0.1390472E+04  0.7818608E-02  0.8991122E-01
          2   -1    0    0  501    0  0.00000000000E+00  0.00000000000E+00  0.21939027149E+04  0.21939027149E+04  0.25500000000E-02 0. -1.
         -2   -1    0    0    0  501 -0.00000000000E+00 -0.00000000000E+00 -0.14246730386E+04  0.14246730386E+04  0.25500000000E-02 0.  1.
    8880023    1    1    2    0    0  0.59389470122E+03  0.10709302492E+04  0.16084607912E+04  0.21261605860E+04  0.65864270000E+03 0.  0.
    8880022    1    1    2    0    0 -0.59389470122E+03 -0.10709302492E+04 -0.83923111488E+03  0.14924151674E+04  0.15294330000E+03 0.  0.
<mgrwt>
<rscale>  0 0.13496122E+04</rscale>
<asrwt>0</asrwt>
<pdfrwt beam="1">  1        2 0.33752349E+00 0.13904721E+04</pdfrwt>
<pdfrwt beam="2">  1       -2 0.21918047E+00 0.13904721E+04</pdfrwt>
<totfact> 0.49447813E-01</totfact>
</mgrwt>
</event>
<event>
 4    1  0.6502538E-008  0.2133250E+04  0.7818608E-02  0.8557642E-01
          2   -1    0    0  501    0  0.00000000000E+00  0.00000000000E+00  0.18364883885E+04  0.18364883885E+04  0.25500000000E-02 0. -1.
         -2   -1    0    0    0  501 -0.00000000000E+00 -0.00000000000E+00 -0.26061535129E+04  0.26061535129E+04  0.25500000000E-02 0.  1.
    8880023    1    1    2    0    0 -0.17694688447E+04  0.99293772100E+03 -0.10687496658E+04  0.23859969330E+04  0.65864270000E+03 0.  0.
    8880022    1    1    2    0    0  0.17694688447E+04 -0.99293772100E+03  0.29908454138E+03  0.20566449684E+04  0.15294330000E+03 0.  0.
<mgrwt>
<rscale>  0 0.21081950E+04</rscale>
<asrwt>0</asrwt>
<pdfrwt beam="1">  1        2 0.28253667E+00 0.21332500E+04</pdfrwt>
<pdfrwt beam="2">  1       -2 0.40094669E+00 0.21332500E+04</pdfrwt>
<totfact> 0.52855325E-02</totfact>
</mgrwt>
</event>
<event>
 4    1  0.6502538E-008  0.8363552E+03  0.7818608E-02  0.9637091E-01
          2   -1    0    0  501    0  0.00000000000E+00  0.00000000000E+00  0.15730008525E+04  0.15730008525E+04  0.25500000000E-02 0. -1.
         -2   -1    0    0    0  501 -0.00000000000E+00 -0.00000000000E+00 -0.57744024821E+03  0.57744024821E+03  0.25500000000E-02 0.  1.
    8880023    1    1    2    0    0 -0.47690299421E+03 -0.19555905176E+03  0.12900351485E+04  0.15374266484E+04  0.65864270000E+03 0. -1.
    8880022    1    1    2    0    0  0.47690299421E+03  0.19555905176E+03 -0.29447454416E+03  0.61301445235E+03  0.15294330000E+03 0.  0.
<mgrwt>
<rscale>  0 0.74889119E+03</rscale>
<asrwt>0</asrwt>
<pdfrwt beam="1">  1        2 0.24200013E+00 0.83635520E+03</pdfrwt>
<pdfrwt beam="2">  1       -2 0.88836962E-01 0.83635520E+03</pdfrwt>
<totfact> 0.12760203E+01</totfact>
</mgrwt>
</event>
<event>
 4    1  0.6502538E-008  0.6821606E+03  0.7818608E-02  0.1008127E+00
          2   -1    0    0  501    0  0.00000000000E+00  0.00000000000E+00  0.21244064461E+04  0.21244064461E+04  0.25500000000E-02 0. -1.
         -2   -1    0    0    0  501 -0.00000000000E+00 -0.00000000000E+00 -0.55945733809E+03  0.55945733809E+03  0.25500000000E-02 0.  1.
    8880023    1    1    2    0    0 -0.39617499524E+02  0.17309925577E+03  0.20416883041E+04  0.21526342550E+04  0.65864270000E+03 0. -1.
    8880022    1    1    2    0    0  0.39617499524E+02 -0.17309925577E+03 -0.47673919605E+03  0.53122952919E+03  0.15294330000E+03 0.  0.
<mgrwt>
<rscale>  0 0.52225884E+03</rscale>
<asrwt>0</asrwt>
<pdfrwt beam="1">  1        2 0.32683176E+00 0.68216062E+03</pdfrwt>
<pdfrwt beam="2">  1       -2 0.86070359E-01 0.68216062E+03</pdfrwt>
<totfact> 0.70077725E+00</totfact>
</mgrwt>
</event>
<event>
 4    1  0.6502538E-008  0.1357322E+04  0.7818608E-02  0.9017575E-01
          2   -1    0    0  501    0  0.00000000000E+00  0.00000000000E+00  0.27284908922E+04  0.27284908922E+04  0.25500000000E-02 0. -1.
         -2   -1    0    0    0  501 -0.00000000000E+00 -0.00000000000E+00 -0.83848661054E+03  0.83848661054E+03  0.25500000000E-02 0.  1.
    8880023    1    1    2    0    0  0.11202733019E+04 -0.39179131955E+03  0.19418890780E+04  0.23692311213E+04  0.65864270000E+03 0.  0.
    8880022    1    1    2    0    0 -0.11202733019E+04  0.39179131955E+03 -0.51884796354E+02  0.11977463814E+04  0.15294330000E+03 0.  0.
<mgrwt>
<rscale>  0 0.13152291E+04</rscale>
<asrwt>0</asrwt>
<pdfrwt beam="1">  1        2 0.41976783E+00 0.13573220E+04</pdfrwt>
<pdfrwt beam="2">  1       -2 0.12899794E+00 0.13573220E+04</pdfrwt>
<totfact> 0.10902091E+00</totfact>
</mgrwt>
</event>
<event>
 4    1  0.6502538E-008  0.9079843E+03  0.7818608E-02  0.9513334E-01
         -2   -1    0    0    0  501 -0.00000000000E+00  0.00000000000E+00  0.26022563001E+04  0.26022563001E+04  0.25500000000E-02 0.  1.
          2   -1    0    0  501    0  0.00000000000E+00 -0.00000000000E+00 -0.66965859046E+03  0.66965859047E+03  0.25500000000E-02 0. -1.
    8880023    1    1    2    0    0 -0.12949474082E+03  0.61143804526E+03 -0.29385371820E+03  0.95435087104E+03  0.65864270000E+03 0. -1.
    8880022    1    1    2    0    0  0.12949474082E+03 -0.61143804526E+03  0.22264514278E+04  0.23175640195E+04  0.15294330000E+03 0.  0.
<mgrwt>
<rscale>  0 0.83307873E+03</rscale>
<asrwt>0</asrwt>
<pdfrwt beam="1">  1        2 0.10302440E+00 0.90798435E+03</pdfrwt>
<pdfrwt beam="2">  1       -2 0.40034712E+00 0.90798435E+03</pdfrwt>
<totfact> 0.33073293E-01</totfact>
</mgrwt>
</event>
<event>
 4    1  0.6502538E-008  0.7998082E+03  0.7818608E-02  0.9711211E-01
         -2   -1    0    0    0  501 -0.00000000000E+00  0.00000000000E+00  0.12367944457E+04  0.12367944457E+04  0.25500000000E-02 0.  1.
          2   -1    0    0  501    0  0.00000000000E+00 -0.00000000000E+00 -0.61087517459E+03  0.61087517460E+03  0.25500000000E-02 0. -1.
    8880023    1    1    2    0    0 -0.31451440697E+03  0.32705293543E+03 -0.25968318019E+03  0.84090932633E+03  0.65864270000E+03 0.  0.
    8880022    1    1    2    0    0  0.31451440697E+03 -0.32705293543E+03  0.88560245132E+03  0.10067602940E+04  0.15294330000E+03 0.  0.
<mgrwt>
<rscale>  0 0.70353203E+03</rscale>
<asrwt>0</asrwt>
<pdfrwt beam="1">  1        2 0.93980797E-01 0.79980819E+03</pdfrwt>
<pdfrwt beam="2">  1       -2 0.19027607E+00 0.79980819E+03</pdfrwt>
<totfact> 0.75877636E+00</totfact>
</mgrwt>
</event>
<event>
 4    1  0.6502538E-008  0.7518675E+03  0.7818608E-02  0.9826636E-01
         -2   -1    0    0    0  501 -0.00000000000E+00  0.00000000000E+00  0.41717119015E+03  0.41717119016E+03  0.25500000000E-02 0.  1.
          2   -1    0    0  501    0  0.00000000000E+00 -0.00000000000E+00 -0.11573838147E+04  0.11573838147E+04  0.25500000000E-02 0. -1.
    8880023    1    1    2    0    0 -0.10844510963E+03  0.34602632353E+03 -0.87950162380E+03  0.11570772969E+04  0.65864270000E+03 0.  0.
    8880022    1    1    2    0    0  0.10844510963E+03 -0.34602632353E+03  0.13928899923E+03  0.41747770803E+03  0.15294330000E+03 0.  0.
<mgrwt>
<rscale>  0 0.63952509E+03</rscale>
<asrwt>0</asrwt>
<pdfrwt beam="1">  1        2 0.17805905E+00 0.75186752E+03</pdfrwt>
<pdfrwt beam="2">  1       -2 0.64180184E-01 0.75186752E+03</pdfrwt>
<totfact> 0.45857871E+01</totfact>
</mgrwt>
</event>
<event>
 4    1  0.6502538E-008  0.9032762E+03  0.7818608E-02  0.9520793E-01
          2   -1    0    0  501    0  0.00000000000E+00  0.00000000000E+00  0.14186720772E+04  0.14186720772E+04  0.25500000000E-02 0. -1.
         -2   -1    0    0    0  501 -0.00000000000E+00 -0.00000000000E+00 -0.19803091068E+04  0.19803091068E+04  0.25500000000E-02 0.  1.
    8880023    1    1    2    0    0  0.59617210594E+03 -0.16332955634E+03  0.12136779739E+04  0.15129184229E+04  0.65864270000E+03 0. -1.
    8880022    1    1    2    0    0 -0.59617210594E+03  0.16332955634E+03 -0.17753150035E+04  0.18860627610E+04  0.15294330000E+03 0.  0.
<mgrwt>
<rscale>  0 0.82768078E+03</rscale>
<asrwt>0</asrwt>
<pdfrwt beam="1">  1        2 0.21825724E+00 0.90327622E+03</pdfrwt>
<pdfrwt beam="2">  1       -2 0.30466294E+00 0.90327622E+03</pdfrwt>
<totfact> 0.42959315E-01</totfact>
</mgrwt>
</event>
<event>
 4    1  0.6502538E-008  0.1265788E+04  0.7818608E-02  0.9095682E-01
         -2   -1    0    0    0  501 -0.00000000000E+00  0.00000000000E+00  0.16546553179E+04  0.16546553179E+04  0.25500000000E-02 0.  1.
          2   -1    0    0  501    0  0.00000000000E+00 -0.00000000000E+00 -0.18436790235E+04  0.18436790235E+04  0.25500000000E-02 0. -1.
    8880023    1    1    2    0    0 -0.53031609374E+03  0.94189945588E+03 -0.13868553476E+04  0.18776548420E+04  0.65864270000E+03 0. -1.
    8880022    1    1    2    0    0  0.53031609374E+03 -0.94189945588E+03  0.11978316420E+04  0.16206794994E+04  0.15294330000E+03 0.  0.
<mgrwt>
<rscale>  0 0.12198215E+04</rscale>
<asrwt>0</asrwt>
<pdfrwt beam="1">  1        2 0.28364293E+00 0.12657883E+04</pdfrwt>
<pdfrwt beam="2">  1       -2 0.25456236E+00 0.12657883E+04</pdfrwt>
<totfact> 0.47392275E-01</totfact>
</mgrwt>
</event>
<event>
 4    1  0.6502538E-008  0.8456084E+03  0.7818608E-02  0.9619694E-01
         -2   -1    0    0    0  501 -0.00000000000E+00  0.00000000000E+00  0.10868961827E+04  0.10868961827E+04  0.25500000000E-02 0.  1.
          2   -1    0    0  501    0  0.00000000000E+00 -0.00000000000E+00 -0.96004734707E+03  0.96004734707E+03  0.25500000000E-02 0. -1.
    8880023    1    1    2    0    0 -0.53029077837E+03 -0.59271576010E+01 -0.66913037354E+03  0.10783269930E+04  0.65864270000E+03 0. -1.
    8880022    1    1    2    0    0  0.53029077837E+03  0.59271576010E+01  0.79597920914E+03  0.96861653673E+03  0.15294330000E+03 0.  0.
<mgrwt>
<rscale>  0 0.76006280E+03</rscale>
<asrwt>0</asrwt>
<pdfrwt beam="1">  1        2 0.14769959E+00 0.84560845E+03</pdfrwt>
<pdfrwt beam="2">  1       -2 0.16721480E+00 0.84560845E+03</pdfrwt>
<totfact> 0.60118143E+00</totfact>
</mgrwt>
</event>
<event>
 4    1  0.6813646E-008  0.7021722E+03  0.7818608E-02  0.9988307E-01
          2   -1    0    0  501    0  0.00000000000E+00  0.00000000000E+00  0.25594162211E+04  0.25594162211E+04  0.25500000000E-02 0. -1.
         -2   -1    0    0    0  501 -0.00000000000E+00 -0.00000000000E+00 -0.60759303879E+03  0.60759303879E+03  0.25500000000E-02 0.  1.
    8880023    1    1    2    0    0 -0.24331134613E+03 -0.59292157226E+01  0.24735791790E+04  0.25713108967E+04  0.65864270000E+03 0. -1.
    8880022    1    1    2    0    0  0.24331134613E+03  0.59292157226E+01 -0.52175599668E+03  0.59569836313E+03  0.15294330000E+03 0.  0.
<mgrwt>
<rscale>  0 0.56165950E+03</rscale>
<asrwt>0</asrwt>
<pdfrwt beam="1">  1        2 0.39375634E+00 0.70217218E+03</pdfrwt>
<pdfrwt beam="2">  1       -2 0.93475852E-01 0.70217218E+03</pdfrwt>
<totfact> 0.33042176E+00</totfact>
</mgrwt>
</event>
<event>
 4    1  0.6502538E-008  0.8498598E+03  0.7818608E-02  0.9611862E-01
          2   -1    0    0  501    0  0.00000000000E+00  0.00000000000E+00  0.96469192078E+03  0.96469192078E+03  0.25500000000E-02 0. -1.
         -2   -1    0    0    0  501 -0.00000000000E+00 -0.00000000000E+00 -0.71966301405E+03  0.71966301406E+03  0.25500000000E-02 0.  1.
    8880023    1    1    2    0    0 -0.41988839410E+03  0.33488093508E+03  0.58393095213E+03  0.10311338746E+04  0.65864270000E+03 0. -1.
    8880022    1    1    2    0    0  0.41988839410E+03 -0.33488093508E+03 -0.33890204541E+03  0.65322106027E+03  0.15294330000E+03 0.  0.
<mgrwt>
<rscale>  0 0.76516042E+03</rscale>
<asrwt>0</asrwt>
<pdfrwt beam="1">  1        2 0.14841414E+00 0.84985982E+03</pdfrwt>
<pdfrwt beam="2">  1       -2 0.11071739E+00 0.84985982E+03</pdfrwt>
<totfact> 0.17279781E+01</totfact>
</mgrwt>
</event>
<event>
 4    1  0.6502538E-008  0.7351195E+03  0.7818608E-02  0.9874399E-01
         -2   -1    0    0    0  501 -0.00000000000E+00  0.00000000000E+00  0.67501277176E+03  0.67501277176E+03  0.25500000000E-02 0.  1.
          2   -1    0    0  501    0  0.00000000000E+00 -0.00000000000E+00 -0.11440385928E+04  0.11440385928E+04  0.25500000000E-02 0. -1.
    8880023    1    1    2    0    0 -0.55482038217E+02  0.32173304866E+03 -0.96049402644E+03  0.12095244488E+04  0.65864270000E+03 0.  0.
    8880022    1    1    2    0    0  0.55482038217E+02 -0.32173304866E+03  0.49146820537E+03  0.60952691579E+03  0.15294330000E+03 0.  1.
<mgrwt>
<rscale>  0 0.61518235E+03</rscale>
<asrwt>0</asrwt>
<pdfrwt beam="1">  1        2 0.17600594E+00 0.73511946E+03</pdfrwt>
<pdfrwt beam="2">  1       -2 0.10384812E+00 0.73511946E+03</pdfrwt>
<totfact> 0.15766606E+01</totfact>
</mgrwt>
</event>
<event>
 4    1  0.6502538E-008  0.2226087E+04  0.7818608E-02  0.8517530E-01
         -2   -1    0    0    0  501 -0.00000000000E+00  0.00000000000E+00  0.22260334509E+04  0.22260334509E+04  0.25500000000E-02 0.  1.
          2   -1    0    0  501    0  0.00000000000E+00 -0.00000000000E+00 -0.30076333935E+04  0.30076333935E+04  0.25500000000E-02 0. -1.
    8880023    1    1    2    0    0 -0.19470841180E+04 -0.85470244418E+03 -0.18077503689E+04  0.28676513793E+04  0.65864270000E+03 0.  0.
    8880022    1    1    2    0    0  0.19470841180E+04  0.85470244418E+03  0.10261504262E+04  0.23660154651E+04  0.15294330000E+03 0.  0.
<mgrwt>
<rscale>  0 0.22021599E+04</rscale>
<asrwt>0</asrwt>
<pdfrwt beam="1">  1        2 0.46271283E+00 0.22260869E+04</pdfrwt>
<pdfrwt beam="2">  1       -2 0.34246669E+00 0.22260869E+04</pdfrwt>
<totfact> 0.25740080E-02</totfact>
</mgrwt>
</event>
<event>
 4    1  0.6502538E-008  0.9686063E+03  0.7818608E-02  0.9423834E-01
          2   -1    0    0  501    0  0.00000000000E+00  0.00000000000E+00  0.13602164737E+04  0.13602164737E+04  0.25500000000E-02 0. -1.
         -2   -1    0    0    0  501 -0.00000000000E+00 -0.00000000000E+00 -0.80805111395E+03  0.80805111396E+03  0.25500000000E-02 0.  1.
    8880023    1    1    2    0    0  0.69250961262E+03 -0.15753825199E+03  0.93570767058E+03  0.13467542149E+04  0.65864270000E+03 0. -1.
    8880022    1    1    2    0    0 -0.69250961262E+03  0.15753825199E+03 -0.38354231080E+03  0.82151337275E+03  0.15294330000E+03 0.  0.
<mgrwt>
<rscale>  0 0.90139889E+03</rscale>
<asrwt>0</asrwt>
<pdfrwt beam="1">  1        2 0.20926407E+00 0.96860625E+03</pdfrwt>
<pdfrwt beam="2">  1       -2 0.12431556E+00 0.96860625E+03</pdfrwt>
<totfact> 0.73870594E+00</totfact>
</mgrwt>
</event>
<event>
 4    1  0.6502538E-008  0.1136394E+04  0.7818608E-02  0.9221578E-01
         -2   -1    0    0    0  501 -0.00000000000E+00  0.00000000000E+00  0.14524443685E+04  0.14524443685E+04  0.25500000000E-02 0.  1.
          2   -1    0    0  501    0  0.00000000000E+00 -0.00000000000E+00 -0.20653462695E+04  0.20653462695E+04  0.25500000000E-02 0. -1.
    8880023    1    1    2    0    0 -0.76812670510E+01  0.92602508611E+03 -0.17230428066E+04  0.20640417102E+04  0.65864270000E+03 0.  0.
    8880022    1    1    2    0    0  0.76812670510E+01 -0.92602508611E+03  0.11101409055E+04  0.14537489278E+04  0.15294330000E+03 0.  0.
<mgrwt>
<rscale>  0 0.10833457E+04</rscale>
<asrwt>0</asrwt>
<pdfrwt beam="1">  1        2 0.31774558E+00 0.11363942E+04</pdfrwt>
<pdfrwt beam="2">  1       -2 0.22345298E+00 0.11363942E+04</pdfrwt>
<totfact> 0.56633499E-01</totfact>
</mgrwt>
</event>
<event>
 4    1  0.6502538E-008  0.2367821E+04  0.7818608E-02  0.8460222E-01
         -2   -1    0    0    0  501 -0.00000000000E+00  0.00000000000E+00  0.20651939074E+04  0.20651939074E+04  0.25500000000E-02 0.  1.
          2   -1    0    0  501    0  0.00000000000E+00 -0.00000000000E+00 -0.27652324796E+04  0.27652324796E+04  0.25500000000E-02 0. -1.
    8880023    1    1    2    0    0  0.22738259595E+04 -0.49808669597E+02 -0.92012989807E+03  0.25403178213E+04  0.65864270000E+03 0.  0.
    8880022    1    1    2    0    0 -0.22738259595E+04  0.49808669597E+02  0.22009132589E+03  0.22901085657E+04  0.15294330000E+03 0.  0.
<mgrwt>
<rscale>  0 0.23454270E+04</rscale>
<asrwt>0</asrwt>
<pdfrwt beam="1">  1        2 0.42542038E+00 0.23678209E+04</pdfrwt>
<pdfrwt beam="2">  1       -2 0.31772214E+00 0.23678209E+04</pdfrwt>
<totfact> 0.51245088E-02</totfact>
</mgrwt>
</event>
<event>
 4    1  0.6502538E-008  0.7040396E+03  0.7818608E-02  0.9980839E-01
          2   -1    0    0  501    0  0.00000000000E+00  0.00000000000E+00  0.21267007488E+04  0.21267007488E+04  0.25500000000E-02 0. -1.
         -2   -1    0    0    0  501 -0.00000000000E+00 -0.00000000000E+00 -0.13268962121E+03  0.13268962124E+03  0.25500000000E-02 0.  1.
    8880023    1    1    2    0    0  0.16718466744E+03  0.18414890395E+03  0.17218894372E+04  0.18602620708E+04  0.65864270000E+03 0.  0.
    8880022    1    1    2    0    0 -0.16718466744E+03 -0.18414890395E+03  0.27212169037E+03  0.39912829922E+03  0.15294330000E+03 0.  0.
<mgrwt>
<rscale>  0 0.56498463E+03</rscale>
<asrwt>0</asrwt>
<pdfrwt beam="1">  1        2 0.32718473E+00 0.70403959E+03</pdfrwt>
<pdfrwt beam="2">  1       -2 0.20413788E-01 0.70403959E+03</pdfrwt>
<totfact> 0.12075739E+02</totfact>
</mgrwt>
</event>
<event>
 4    1  0.6502538E-008  0.1158584E+04  0.7818608E-02  0.9198472E-01
          2   -1    0    0  501    0  0.00000000000E+00  0.00000000000E+00  0.66052286973E+03  0.66052286973E+03  0.25500000000E-02 0. -1.
         -2   -1    0    0    0  501 -0.00000000000E+00 -0.00000000000E+00 -0.17977806633E+04  0.17977806633E+04  0.25500000000E-02 0.  1.
    8880023    1    1    2    0    0  0.67008663266E+02 -0.95079745217E+03 -0.34323870303E+03  0.12083579642E+04  0.65864270000E+03 0. -1.
    8880022    1    1    2    0    0 -0.67008663266E+02  0.95079745217E+03 -0.79401909054E+03  0.12499455689E+04  0.15294330000E+03 0.  0.
<mgrwt>
<rscale>  0 0.11069209E+04</rscale>
<asrwt>0</asrwt>
<pdfrwt beam="1">  1        2 0.10161890E+00 0.11585837E+04</pdfrwt>
<pdfrwt beam="2">  1       -2 0.27658164E+00 0.11585837E+04</pdfrwt>
<totfact> 0.19179297E+00</totfact>
</mgrwt>
</event>
<event>
 4    1  0.6502538E-008  0.1187535E+04  0.7818608E-02  0.9169336E-01
         -2   -1    0    0    0  501 -0.00000000000E+00  0.00000000000E+00  0.70954620716E+03  0.70954620717E+03  0.25500000000E-02 0.  1.
          2   -1    0    0  501    0  0.00000000000E+00 -0.00000000000E+00 -0.29225921769E+04  0.29225921769E+04  0.25500000000E-02 0. -1.
    8880023    1    1    2    0    0 -0.97618009740E+03 -0.15329972524E+03 -0.23401110828E+04  0.26241872026E+04  0.65864270000E+03 0. -1.
    8880022    1    1    2    0    0  0.97618009740E+03  0.15329972524E+03  0.12706511301E+03  0.10079511815E+04  0.15294330000E+03 0.  0.
<mgrwt>
<rscale>  0 0.11375617E+04</rscale>
<asrwt>0</asrwt>
<pdfrwt beam="1">  1        2 0.44962956E+00 0.11875347E+04</pdfrwt>
<pdfrwt beam="2">  1       -2 0.10916096E+00 0.11875347E+04</pdfrwt>
<totfact> 0.12887517E+00</totfact>
</mgrwt>
</event>
<event>
 4    1  0.8571607E-008  0.2236925E+04  0.7818608E-02  0.8512986E-01
         -2   -1    0    0    0  501 -0.00000000000E+00  0.00000000000E+00  0.24135125020E+04  0.24135125020E+04  0.25500000000E-02 0.  1.
          2   -1    0    0  501    0  0.00000000000E+00 -0.00000000000E+00 -0.32080405053E+04  0.32080405053E+04  0.25500000000E-02 0. -1.
    8880023    1    1    2    0    0 -0.14726793535E+04 -0.15495932158E+04 -0.21361423125E+04  0.30930466854E+04  0.65864270000E+03 0.  0.
    8880022    1    1    2    0    0  0.14726793535E+04  0.15495932158E+04  0.13416143092E+04  0.25285063219E+04  0.15294330000E+03 0.  0.
<mgrwt>
<rscale>  0 0.22131230E+04</rscale>
<asrwt>0</asrwt>
<pdfrwt beam="1">  1        2 0.49354469E+00 0.22369251E+04</pdfrwt>
<pdfrwt beam="2">  1       -2 0.37130962E+00 0.22369251E+04</pdfrwt>
<totfact> 0.12513149E-02</totfact>
</mgrwt>
</event>
<event>
 4    1  0.6502538E-008  0.7219323E+03  0.7818608E-02  0.9916101E-01
          2   -1    0    0  501    0  0.00000000000E+00  0.00000000000E+00  0.22176446891E+04  0.22176446891E+04  0.25500000000E-02 0. -1.
         -2   -1    0    0    0  501 -0.00000000000E+00 -0.00000000000E+00 -0.17546389608E+03  0.17546389610E+03  0.25500000000E-02 0.  1.
    8880023    1    1    2    0    0  0.12927455465E+03 -0.26582737010E+03  0.18975150062E+04  0.20302092272E+04  0.65864270000E+03 0. -1.
    8880022    1    1    2    0    0 -0.12927455465E+03  0.26582737010E+03  0.14466578689E+03  0.36289935807E+03  0.15294330000E+03 0.  0.
<mgrwt>
<rscale>  0 0.59487271E+03</rscale>
<asrwt>0</asrwt>
<pdfrwt beam="1">  1        2 0.34117613E+00 0.72193234E+03</pdfrwt>
<pdfrwt beam="2">  1       -2 0.26994444E-01 0.72193234E+03</pdfrwt>
<totfact> 0.65184182E+01</totfact>
</mgrwt>
</event>
<event>
 4    1  0.6502538E-008  0.9451695E+03  0.7818608E-02  0.9457098E-01
         -2   -1    0    0    0  501 -0.00000000000E+00  0.00000000000E+00  0.52598913350E+03  0.52598913351E+03  0.25500000000E-02 0.  1.
          2   -1    0    0  501    0  0.00000000000E+00 -0.00000000000E+00 -0.18247718516E+04  0.18247718516E+04  0.25500000000E-02 0. -1.
    8880023    1    1    2    0    0  0.47366940502E+03 -0.48494593793E+03 -0.13566413367E+04  0.16534271047E+04  0.65864270000E+03 0.  0.
    8880022    1    1    2    0    0 -0.47366940502E+03  0.48494593793E+03  0.57858618596E+02  0.69733388038E+03  0.15294330000E+03 0.  0.
<mgrwt>
<rscale>  0 0.87522047E+03</rscale>
<asrwt>0</asrwt>
<pdfrwt beam="1">  1        2 0.28073413E+00 0.94516955E+03</pdfrwt>
<pdfrwt beam="2">  1       -2 0.80921406E-01 0.94516955E+03</pdfrwt>
<totfact> 0.11328559E+01</totfact>
</mgrwt>
</event>
<event>
 4    1  0.6502538E-008  0.1655639E+04  0.7818608E-02  0.8806898E-01
          2   -1    0    0  501    0  0.00000000000E+00  0.00000000000E+00  0.45019238566E+04  0.45019238566E+04  0.25500000000E-02 0. -1.
         -2   -1    0    0    0  501 -0.00000000000E+00 -0.00000000000E+00 -0.86769056254E+03  0.86769056254E+03  0.25500000000E-02 0.  1.
    8880023    1    1    2    0    0  0.10696942430E+04 -0.10784633089E+04  0.34565912438E+04  0.38326442720E+04  0.65864270000E+03 0.  0.
    8880022    1    1    2    0    0 -0.10696942430E+04  0.10784633089E+04  0.17764205023E+03  0.15369701472E+04  0.15294330000E+03 0.  0.
<mgrwt>
<rscale>  0 0.16224093E+04</rscale>
<asrwt>0</asrwt>
<pdfrwt beam="1">  1        2 0.69260366E+00 0.16556386E+04</pdfrwt>
<pdfrwt beam="2">  1       -2 0.13349086E+00 0.16556386E+04</pdfrwt>
<totfact> 0.47389451E-02</totfact>
</mgrwt>
</event>
<event>
 4    1  0.6502538E-008  0.6865951E+03  0.7818608E-02  0.1005815E+00
         -2   -1    0    0    0  501 -0.00000000000E+00  0.00000000000E+00  0.59805237821E+03  0.59805237822E+03  0.25500000000E-02 0.  1.
          2   -1    0    0  501    0  0.00000000000E+00 -0.00000000000E+00 -0.30613638185E+04  0.30613638185E+04  0.25500000000E-02 0. -1.
    8880023    1    1    2    0    0  0.17076979938E+02 -0.19316038359E+03 -0.29952528287E+04  0.30729387028E+04  0.65864270000E+03 0. -1.
    8880022    1    1    2    0    0 -0.17076979938E+02  0.19316038359E+03  0.53194138847E+03  0.58647749387E+03  0.15294330000E+03 0.  0.
<mgrwt>
<rscale>  0 0.53172439E+03</rscale>
<asrwt>0</asrwt>
<pdfrwt beam="1">  1        2 0.47097904E+00 0.68659505E+03</pdfrwt>
<pdfrwt beam="2">  1       -2 0.92008060E-01 0.68659505E+03</pdfrwt>
<totfact> 0.17359110E+00</totfact>
</mgrwt>
</event>
<event>
 4    1  0.6502538E-008  0.9493339E+03  0.7818608E-02  0.9451073E-01
         -2   -1    0    0    0  501 -0.00000000000E+00  0.00000000000E+00  0.40316743874E+03  0.40316743875E+03  0.25500000000E-02 0.  1.
          2   -1    0    0  501    0  0.00000000000E+00 -0.00000000000E+00 -0.22665621910E+04  0.22665621910E+04  0.25500000000E-02 0. -1.
    8880023    1    1    2    0    0 -0.45678276686E+03 -0.50869850736E+03 -0.17049814361E+04  0.19514601127E+04  0.65864270000E+03 0. -1.
    8880022    1    1    2    0    0  0.45678276686E+03  0.50869850736E+03 -0.15841331617E+03  0.71826951713E+03  0.15294330000E+03 0.  0.
<mgrwt>
<rscale>  0 0.87989150E+03</rscale>
<asrwt>0</asrwt>
<pdfrwt beam="1">  1        2 0.34870187E+00 0.94933391E+03</pdfrwt>
<pdfrwt beam="2">  1       -2 0.62025761E-01 0.94933391E+03</pdfrwt>
<totfact> 0.11585378E+01</totfact>
</mgrwt>
</event>
<event>
 4    1  0.6502538E-008  0.1070822E+04  0.7818608E-02  0.9294259E-01
         -2   -1    0    0    0  501 -0.00000000000E+00  0.00000000000E+00  0.84928184423E+03  0.84928184424E+03  0.25500000000E-02 0.  1.
          2   -1    0    0  501    0  0.00000000000E+00 -0.00000000000E+00 -0.11309583665E+04  0.11309583665E+04  0.25500000000E-02 0. -1.
    8880023    1    1    2    0    0 -0.33942019187E+03  0.77307397393E+03 -0.33090448817E+03  0.11207842890E+04  0.65864270000E+03 0.  0.
    8880022    1    1    2    0    0  0.33942019187E+03 -0.77307397393E+03  0.49227965926E+02  0.85945592176E+03  0.15294330000E+03 0.  0.
<mgrwt>
<rscale>  0 0.10131306E+04</rscale>
<asrwt>0</asrwt>
<pdfrwt beam="1">  1        2 0.17399360E+00 0.10708219E+04</pdfrwt>
<pdfrwt beam="2">  1       -2 0.13065874E+00 0.10708219E+04</pdfrwt>
<totfact> 0.88124992E+00</totfact>
</mgrwt>
</event>
<event>
 4    1  0.6502538E-008  0.8277882E+03  0.7818608E-02  0.9653651E-01
         -2   -1    0    0    0  501 -0.00000000000E+00  0.00000000000E+00  0.76908492519E+03  0.76908492519E+03  0.25500000000E-02 0.  1.
          2   -1    0    0  501    0  0.00000000000E+00 -0.00000000000E+00 -0.11237350191E+04  0.11237350191E+04  0.25500000000E-02 0. -1.
    8880023    1    1    2    0    0 -0.48779082414E+03  0.11611690525E+03 -0.83933565058E+03  0.11788628268E+04  0.65864270000E+03 0.  0.
    8880022    1    1    2    0    0  0.48779082414E+03 -0.11611690525E+03  0.48468555666E+03  0.71395711751E+03  0.15294330000E+03 0.  0.
<mgrwt>
<rscale>  0 0.73844711E+03</rscale>
<asrwt>0</asrwt>
<pdfrwt beam="1">  1        2 0.17288231E+00 0.82778816E+03</pdfrwt>
<pdfrwt beam="2">  1       -2 0.11832076E+00 0.82778816E+03</pdfrwt>
<totfact> 0.11695371E+01</totfact>
</mgrwt>
</event>
<event>
 4    1  0.6502538E-008  0.7333899E+03  0.7818608E-02  0.9879638E-01
          2   -1    0    0  501    0  0.00000000000E+00  0.00000000000E+00  0.66929365567E+03  0.66929365568E+03  0.25500000000E-02 0. -1.
         -2   -1    0    0    0  501 -0.00000000000E+00 -0.00000000000E+00 -0.84168803413E+03  0.84168803414E+03  0.25500000000E-02 0.  1.
    8880023    1    1    2    0    0  0.28765678771E+03  0.14595919475E+03 -0.60455206270E+03  0.95044406297E+03  0.65864270000E+03 0.  1.
    8880022    1    1    2    0    0 -0.28765678771E+03 -0.14595919475E+03  0.43215768424E+03  0.56053762685E+03  0.15294330000E+03 0. -1.
<mgrwt>
<rscale>  0 0.61258355E+03</rscale>
<asrwt>0</asrwt>
<pdfrwt beam="1">  1        2 0.10296825E+00 0.73338988E+03</pdfrwt>
<pdfrwt beam="2">  1       -2 0.12949047E+00 0.73338988E+03</pdfrwt>
<totfact> 0.19310704E+01</totfact>
</mgrwt>
</event>
<event>
 4    1  0.6502538E-008  0.1322139E+04  0.7818608E-02  0.9046673E-01
          2   -1    0    0  501    0  0.00000000000E+00  0.00000000000E+00  0.17320967059E+04  0.17320967059E+04  0.25500000000E-02 0. -1.
         -2   -1    0    0    0  501 -0.00000000000E+00 -0.00000000000E+00 -0.19147920076E+04  0.19147920076E+04  0.25500000000E-02 0.  1.
    8880023    1    1    2    0    0  0.89698131183E+03  0.71390969509E+03  0.12405197274E+04  0.18129925336E+04  0.65864270000E+03 0.  0.
    8880022    1    1    2    0    0 -0.89698131183E+03 -0.71390969509E+03 -0.14232150291E+04  0.18338961799E+04  0.15294330000E+03 0.  0.
<mgrwt>
<rscale>  0 0.12786454E+04</rscale>
<asrwt>0</asrwt>
<pdfrwt beam="1">  1        2 0.26647641E+00 0.13221395E+04</pdfrwt>
<pdfrwt beam="2">  1       -2 0.29458339E+00 0.13221395E+04</pdfrwt>
<totfact> 0.30972893E-01</totfact>
</mgrwt>
</event>
<event>
 4    1  0.6502538E-008  0.1019922E+04  0.7818608E-02  0.9355946E-01
          2   -1    0    0  501    0  0.00000000000E+00  0.00000000000E+00  0.26401059678E+04  0.26401059678E+04  0.25500000000E-02 0. -1.
         -2   -1    0    0    0  501 -0.00000000000E+00 -0.00000000000E+00 -0.42028721202E+03  0.42028721202E+03  0.25500000000E-02 0.  1.
    8880023    1    1    2    0    0  0.49978474255E+03 -0.59719805374E+03  0.19867688403E+04  0.22332691139E+04  0.65864270000E+03 0.  0.
    8880022    1    1    2    0    0 -0.49978474255E+03  0.59719805374E+03  0.23304991553E+03  0.82712406591E+03  0.15294330000E+03 0.  0.
<mgrwt>
<rscale>  0 0.95791591E+03</rscale>
<asrwt>0</asrwt>
<pdfrwt beam="1">  1        2 0.40617014E+00 0.10199218E+04</pdfrwt>
<pdfrwt beam="2">  1       -2 0.64659572E-01 0.10199218E+04</pdfrwt>
<totfact> 0.64373161E+00</totfact>
</mgrwt>
</event>
<event>
 4    1  0.6502538E-008  0.6994123E+03  0.7818608E-02  0.9999648E-01
         -2   -1    0    0    0  501 -0.00000000000E+00  0.00000000000E+00  0.33128314092E+03  0.33128314093E+03  0.25500000000E-02 0.  1.
          2   -1    0    0  501    0  0.00000000000E+00 -0.00000000000E+00 -0.13673813526E+04  0.13673813526E+04  0.25500000000E-02 0. -1.
    8880023    1    1    2    0    0 -0.22182834842E+03  0.78483138773E+02 -0.11887150500E+04  0.13792103160E+04  0.65864270000E+03 0. -1.
    8880022    1    1    2    0    0  0.22182834842E+03 -0.78483138773E+02  0.15261683831E+03  0.31945417760E+03  0.15294330000E+03 0.  0.
<mgrwt>
<rscale>  0 0.55665683E+03</rscale>
<asrwt>0</asrwt>
<pdfrwt beam="1">  1        2 0.21036636E+00 0.69941234E+03</pdfrwt>
<pdfrwt beam="2">  1       -2 0.50966638E-01 0.69941234E+03</pdfrwt>
<totfact> 0.56335250E+01</totfact>
</mgrwt>
</event>
<event>
 4    1  0.6502538E-008  0.1556782E+04  0.7818608E-02  0.8870547E-01
         -2   -1    0    0    0  501 -0.00000000000E+00  0.00000000000E+00  0.92410082294E+03  0.92410082294E+03  0.25500000000E-02 0.  1.
          2   -1    0    0  501    0  0.00000000000E+00 -0.00000000000E+00 -0.25937726218E+04  0.25937726218E+04  0.25500000000E-02 0. -1.
    8880023    1    1    2    0    0  0.14011755691E+04 -0.16268709767E+03 -0.13565068014E+04  0.20648682707E+04  0.65864270000E+03 0.  0.
    8880022    1    1    2    0    0 -0.14011755691E+04  0.16268709767E+03 -0.31316499753E+03  0.14530051740E+04  0.15294330000E+03 0.  0.
<mgrwt>
<rscale>  0 0.15210918E+04</rscale>
<asrwt>0</asrwt>
<pdfrwt beam="1">  1        2 0.39904194E+00 0.15567820E+04</pdfrwt>
<pdfrwt beam="2">  1       -2 0.14216936E+00 0.15567820E+04</pdfrwt>
<totfact> 0.99647478E-01</totfact>
</mgrwt>
</event>
<event>
 4    1  0.6502538E-008  0.7435111E+03  0.7818608E-02  0.9849835E-01
          2   -1    0    0  501    0  0.00000000000E+00  0.00000000000E+00  0.20734592873E+04  0.20734592873E+04  0.25500000000E-02 0. -1.
         -2   -1    0    0    0  501 -0.00000000000E+00 -0.00000000000E+00 -0.19364523197E+03  0.19364523198E+03  0.25500000000E-02 0.  1.
    8880023    1    1    2    0    0  0.32282823273E+03  0.12157473085E+03  0.16865064309E+04  0.18431257773E+04  0.65864270000E+03 0.  0.
    8880022    1    1    2    0    0 -0.32282823273E+03 -0.12157473085E+03  0.19330762444E+03  0.42397874205E+03  0.15294330000E+03 0.  0.
<mgrwt>
<rscale>  0 0.62755322E+03</rscale>
<asrwt>0</asrwt>
<pdfrwt beam="1">  1        2 0.31899375E+00 0.74351106E+03</pdfrwt>
<pdfrwt beam="2">  1       -2 0.29791573E-01 0.74351106E+03</pdfrwt>
<totfact> 0.65077366E+01</totfact>
</mgrwt>
</event>
<event>
 4    1  0.6502538E-008  0.7747300E+03  0.7818608E-02  0.9768365E-01
          2   -1    0    0  501    0  0.00000000000E+00  0.00000000000E+00  0.29711777268E+03  0.29711777269E+03  0.25500000000E-02 0. -1.
         -2   -1    0    0    0  501 -0.00000000000E+00 -0.00000000000E+00 -0.13648355477E+04  0.13648355477E+04  0.25500000000E-02 0.  1.
    8880023    1    1    2    0    0 -0.93784356154E+01  0.40780922508E+03 -0.41969733017E+03  0.88110860530E+03  0.65864270000E+03 0.  0.
    8880022    1    1    2    0    0  0.93784356154E+01 -0.40780922508E+03 -0.64802044483E+03  0.78084471507E+03  0.15294330000E+03 0.  0.
<mgrwt>
<rscale>  0 0.67088233E+03</rscale>
<asrwt>0</asrwt>
<pdfrwt beam="1">  1        2 0.45710428E-01 0.77472997E+03</pdfrwt>
<pdfrwt beam="2">  1       -2 0.20997470E+00 0.77472997E+03</pdfrwt>
<totfact> 0.12926009E+01</totfact>
</mgrwt>
</event>
<event>
 4    1  0.6502538E-008  0.7821505E+03  0.7818608E-02  0.9750809E-01
         -2   -1    0    0    0  501 -0.00000000000E+00  0.00000000000E+00  0.62770860602E+03  0.62770860603E+03  0.25500000000E-02 0.  1.
          2   -1    0    0  501    0  0.00000000000E+00 -0.00000000000E+00 -0.16684138464E+04  0.16684138464E+04  0.25500000000E-02 0. -1.
    8880023    1    1    2    0    0  0.35217005915E+03 -0.23221863650E+03 -0.14763384743E+04  0.16707288058E+04  0.65864270000E+03 0.  0.
    8880022    1    1    2    0    0 -0.35217005915E+03  0.23221863650E+03  0.43563323391E+03  0.62539364660E+03  0.15294330000E+03 0.  0.
<mgrwt>
<rscale>  0 0.68070550E+03</rscale>
<asrwt>0</asrwt>
<pdfrwt beam="1">  1        2 0.25667905E+00 0.78215053E+03</pdfrwt>
<pdfrwt beam="2">  1       -2 0.96570556E-01 0.78215053E+03</pdfrwt>
<totfact> 0.93737966E+00</totfact>
</mgrwt>
</event>
<event>
 4    1  0.6502538E-008  0.6772300E+03  0.7818608E-02  0.1010936E+00
         -2   -1    0    0    0  501 -0.00000000000E+00  0.00000000000E+00  0.66141935733E+03  0.66141935733E+03  0.25500000000E-02 0.  1.
          2   -1    0    0  501    0  0.00000000000E+00 -0.00000000000E+00 -0.11763844221E+04  0.11763844221E+04  0.25500000000E-02 0. -1.
    8880023    1    1    2    0    0  0.93577661797E+02 -0.12678123994E+03 -0.10556606927E+04  0.12542168735E+04  0.65864270000E+03 0. -1.
    8880022    1    1    2    0    0 -0.93577661797E+02  0.12678123994E+03  0.54069562794E+03  0.58358690585E+03  0.15294330000E+03 0.  0.
<mgrwt>
<rscale>  0 0.51104330E+03</rscale>
<asrwt>0</asrwt>
<pdfrwt beam="1">  1        2 0.18098222E+00 0.67723000E+03</pdfrwt>
<pdfrwt beam="2">  1       -2 0.10175682E+00 0.67723000E+03</pdfrwt>
<totfact> 0.15943269E+01</totfact>
</mgrwt>
</event>
<event>
 4    1  0.6502538E-008  0.8860755E+03  0.7818608E-02  0.9548765E-01
          2   -1    0    0  501    0  0.00000000000E+00  0.00000000000E+00  0.19642004359E+04  0.19642004359E+04  0.25500000000E-02 0. -1.
         -2   -1    0    0    0  501 -0.00000000000E+00 -0.00000000000E+00 -0.38565218655E+03  0.38565218656E+03  0.25500000000E-02 0.  1.
    8880023    1    1    2    0    0  0.50944369427E+03  0.30296329919E+03  0.14868959457E+04  0.17308926592E+04  0.65864270000E+03 0. -1.
    8880022    1    1    2    0    0 -0.50944369427E+03 -0.30296329919E+03  0.91652303686E+02  0.61895996322E+03  0.15294330000E+03 0.  0.
<mgrwt>
<rscale>  0 0.80782103E+03</rscale>
<asrwt>0</asrwt>
<pdfrwt beam="1">  1        2 0.30218468E+00 0.88607553E+03</pdfrwt>
<pdfrwt beam="2">  1       -2 0.59331106E-01 0.88607553E+03</pdfrwt>
<totfact> 0.18841974E+01</totfact>
</mgrwt>
</event>
<event>
 4    1  0.6502538E-008  0.6652011E+03  0.7818608E-02  0.1019365E+00
          2   -1    0    0  501    0  0.00000000000E+00  0.00000000000E+00  0.16480241990E+04  0.16480241990E+04  0.25500000000E-02 0. -1.
         -2   -1    0    0    0  501 -0.00000000000E+00 -0.00000000000E+00 -0.49999361091E+03  0.49999361092E+03  0.25500000000E-02 0.  1.
    8880023    1    1    2    0    0  0.23476081859E+02  0.90172810016E+02  0.15615782679E+04  0.16973565197E+04  0.65864270000E+03 0. -1.
    8880022    1    1    2    0    0 -0.23476081859E+02 -0.90172810016E+02 -0.41354767974E+03  0.45066129024E+03  0.15294330000E+03 0.  0.
<mgrwt>
<rscale>  0 0.47916347E+03</rscale>
<asrwt>0</asrwt>
<pdfrwt beam="1">  1        2 0.25354219E+00 0.66520107E+03</pdfrwt>
<pdfrwt beam="2">  1       -2 0.76922093E-01 0.66520107E+03</pdfrwt>
<totfact> 0.16444666E+01</totfact>
</mgrwt>
</event>
<event>
 4    1  0.6502538E-008  0.6613805E+03  0.7818608E-02  0.1022785E+00
         -2   -1    0    0    0  501 -0.00000000000E+00  0.00000000000E+00  0.53636550621E+03  0.53636550621E+03  0.25500000000E-02 0.  1.
          2   -1    0    0  501    0  0.00000000000E+00 -0.00000000000E+00 -0.78659573846E+03  0.78659573847E+03  0.25500000000E-02 0. -1.
    8880023    1    1    2    0    0  0.36566064143E+02  0.47717342500E+02 -0.62735238324E+03  0.91158940365E+03  0.65864270000E+03 0. -1.
    8880022    1    1    2    0    0 -0.36566064143E+02 -0.47717342500E+02  0.37712215098E+03  0.41137184104E+03  0.15294330000E+03 0.  0.
<mgrwt>
<rscale>  0 0.46695007E+03</rscale>
<asrwt>0</asrwt>
<pdfrwt beam="1">  1        2 0.12101473E+00 0.66138055E+03</pdfrwt>
<pdfrwt beam="2">  1       -2 0.82517770E-01 0.66138055E+03</pdfrwt>
<totfact> 0.46372422E+01</totfact>
</mgrwt>
</event>
<event>
 4    1  0.6502538E-008  0.7990267E+03  0.7818608E-02  0.9712904E-01
         -2   -1    0    0    0  501 -0.00000000000E+00  0.00000000000E+00  0.95430308989E+03  0.95430308989E+03  0.25500000000E-02 0.  1.
          2   -1    0    0  501    0  0.00000000000E+00 -0.00000000000E+00 -0.12997787473E+04  0.12997787473E+04  0.25500000000E-02 0. -1.
    8880023    1    1    2    0    0 -0.91421002742E+02 -0.44303012386E+03 -0.11009505016E+04  0.13603439652E+04  0.65864270000E+03 0.  0.
    8880022    1    1    2    0    0  0.91421002742E+02  0.44303012386E+03  0.75547484427E+03  0.89373787193E+03  0.15294330000E+03 0.  0.
<mgrwt>
<rscale>  0 0.70253638E+03</rscale>
<asrwt>0</asrwt>
<pdfrwt beam="1">  1        2 0.19996596E+00 0.79902672E+03</pdfrwt>
<pdfrwt beam="2">  1       -2 0.14681586E+00 0.79902672E+03</pdfrwt>
<totfact> 0.53268026E+00</totfact>
</mgrwt>
</event>
<event>
 4    1  0.6502538E-008  0.6701438E+03  0.7818608E-02  0.1015560E+00
         -2   -1    0    0    0  501 -0.00000000000E+00  0.00000000000E+00  0.12288850700E+03  0.12288850703E+03  0.25500000000E-02 0.  1.
          2   -1    0    0  501    0  0.00000000000E+00 -0.00000000000E+00 -0.16496970604E+04  0.16496970604E+04  0.25500000000E-02 0. -1.
    8880023    1    1    2    0    0 -0.12308073918E+03 -0.11561999054E+02 -0.13541081640E+04  0.15108612359E+04  0.65864270000E+03 0.  0.
    8880022    1    1    2    0    0  0.12308073918E+03  0.11561999054E+02 -0.17270038936E+03  0.26172433146E+03  0.15294330000E+03 0.  0.
<mgrwt>
<rscale>  0 0.49323477E+03</rscale>
<asrwt>0</asrwt>
<pdfrwt beam="1">  1        2 0.25379953E+00 0.67014383E+03</pdfrwt>
<pdfrwt beam="2">  1       -2 0.18905925E-01 0.67014383E+03</pdfrwt>
<totfact> 0.25191618E+02</totfact>
</mgrwt>
</event>
<event>
 4    1  0.6502538E-008  0.7225189E+03  0.7818608E-02  0.9914153E-01
         -2   -1    0    0    0  501 -0.00000000000E+00  0.00000000000E+00  0.10839504747E+04  0.10839504747E+04  0.25500000000E-02 0.  1.
          2   -1    0    0  501    0  0.00000000000E+00 -0.00000000000E+00 -0.18618480068E+04  0.18618480068E+04  0.25500000000E-02 0. -1.
    8880023    1    1    2    0    0 -0.24188998535E+03 -0.17237353745E+03 -0.17631479324E+04  0.19054459423E+04  0.65864270000E+03 0. -1.
    8880022    1    1    2    0    0  0.24188998535E+03  0.17237353745E+03  0.98525040027E+03  0.10403525391E+04  0.15294330000E+03 0.  0.
<mgrwt>
<rscale>  0 0.59580243E+03</rscale>
<asrwt>0</asrwt>
<pdfrwt beam="1">  1        2 0.28643815E+00 0.72251893E+03</pdfrwt>
<pdfrwt beam="2">  1       -2 0.16676161E+00 0.72251893E+03</pdfrwt>
<totfact> 0.18666069E+00</totfact>
</mgrwt>
</event>
<event>
 4    1  0.6502538E-008  0.8470328E+03  0.7818608E-02  0.9617059E-01
         -2   -1    0    0    0  501 -0.00000000000E+00  0.00000000000E+00  0.59802699595E+03  0.59802699595E+03  0.25500000000E-02 0.  1.
          2   -1    0    0  501    0  0.00000000000E+00 -0.00000000000E+00 -0.83399793196E+03  0.83399793196E+03  0.25500000000E-02 0. -1.
    8880023    1    1    2    0    0 -0.24122484304E+03 -0.47483152248E+03 -0.23067881446E+03  0.87788229356E+03  0.65864270000E+03 0.  0.
    8880022    1    1    2    0    0  0.24122484304E+03  0.47483152248E+03 -0.52921215527E+01  0.55414263435E+03  0.15294330000E+03 0.  0.
<mgrwt>
<rscale>  0 0.76177308E+03</rscale>
<asrwt>0</asrwt>
<pdfrwt beam="1">  1        2 0.12830737E+00 0.84703282E+03</pdfrwt>
<pdfrwt beam="2">  1       -2 0.92004153E-01 0.84703282E+03</pdfrwt>
<totfact> 0.32913486E+01</totfact>
</mgrwt>
</event>
<event>
 4    1  0.6502538E-008  0.1545700E+04  0.7818608E-02  0.8878022E-01
          2   -1    0    0  501    0  0.00000000000E+00  0.00000000000E+00  0.23463065216E+04  0.23463065216E+04  0.25500000000E-02 0. -1.
         -2   -1    0    0    0  501 -0.00000000000E+00 -0.00000000000E+00 -0.15552937913E+04  0.15552937913E+04  0.25500000000E-02 0.  1.
    8880023    1    1    2    0    0  0.12269860298E+04 -0.67073335279E+03  0.16439761134E+04  0.22565118248E+04  0.65864270000E+03 0.  0.
    8880022    1    1    2    0    0 -0.12269860298E+04  0.67073335279E+03 -0.85296338309E+03  0.16450884882E+04  0.15294330000E+03 0.  0.
<mgrwt>
<rscale>  0 0.15097091E+04</rscale>
<asrwt>0</asrwt>
<pdfrwt beam="1">  1        2 0.36097023E+00 0.15456999E+04</pdfrwt>
<pdfrwt beam="2">  1       -2 0.23927597E+00 0.15456999E+04</pdfrwt>
<totfact> 0.29784891E-01</totfact>
</mgrwt>
</event>
<event>
 4    1  0.6502538E-008  0.1506050E+04  0.7818608E-02  0.8905375E-01
         -2   -1    0    0    0  501 -0.00000000000E+00  0.00000000000E+00  0.14754853737E+04  0.14754853737E+04  0.25500000000E-02 0.  1.
          2   -1    0    0  501    0  0.00000000000E+00 -0.00000000000E+00 -0.17541864140E+04  0.17541864140E+04  0.25500000000E-02 0. -1.
    8880023    1    1    2    0    0  0.88363029508E+03  0.10264376919E+04  0.58542504728E+03  0.16158309089E+04  0.65864270000E+03 0.  0.
    8880022    1    1    2    0    0 -0.88363029508E+03 -0.10264376919E+04 -0.86412608765E+03  0.16138408788E+04  0.15294330000E+03 0.  0.
<mgrwt>
<rscale>  0 0.14689382E+04</rscale>
<asrwt>0</asrwt>
<pdfrwt beam="1">  1        2 0.26987483E+00 0.15060501E+04</pdfrwt>
<pdfrwt beam="2">  1       -2 0.22699775E+00 0.15060501E+04</pdfrwt>
<totfact> 0.76664528E-01</totfact>
</mgrwt>
</event>
<event>
 4    1  0.6502538E-008  0.8293287E+03  0.7818608E-02  0.9650640E-01
         -2   -1    0    0    0  501 -0.00000000000E+00  0.00000000000E+00  0.18551012656E+04  0.18551012656E+04  0.25500000000E-02 0.  1.
          2   -1    0    0  501    0  0.00000000000E+00 -0.00000000000E+00 -0.59123208498E+03  0.59123208498E+03  0.25500000000E-02 0. -1.
    8880023    1    1    2    0    0  0.23548822198E+03 -0.44555716909E+03 -0.23141665470E+03  0.86101089886E+03  0.65864270000E+03 0.  0.
    8880022    1    1    2    0    0 -0.23548822198E+03  0.44555716909E+03  0.14952858353E+04  0.15853224517E+04  0.15294330000E+03 0.  0.
<mgrwt>
<rscale>  0 0.74033278E+03</rscale>
<asrwt>0</asrwt>
<pdfrwt beam="1">  1        2 0.90958783E-01 0.82932870E+03</pdfrwt>
<pdfrwt beam="2">  1       -2 0.28540019E+00 0.82932870E+03</pdfrwt>
<totfact> 0.20224812E+00</totfact>
</mgrwt>
</event>
<event>
 4    1  0.6502538E-008  0.1297534E+04  0.7818608E-02  0.9067693E-01
         -2   -1    0    0    0  501 -0.00000000000E+00  0.00000000000E+00  0.81283862041E+03  0.81283862042E+03  0.25500000000E-02 0.  1.
          2   -1    0    0  501    0  0.00000000000E+00 -0.00000000000E+00 -0.26597307536E+04  0.26597307536E+04  0.25500000000E-02 0. -1.
    8880023    1    1    2    0    0  0.10874581616E+04  0.25926491308E+03 -0.19470461116E+04  0.23397825359E+04  0.65864270000E+03 0.  0.
    8880022    1    1    2    0    0 -0.10874581616E+04 -0.25926491308E+03  0.10015397838E+03  0.11327868382E+04  0.15294330000E+03 0.  0.
<mgrwt>
<rscale>  0 0.12529969E+04</rscale>
<asrwt>0</asrwt>
<pdfrwt beam="1">  1        2 0.40918934E+00 0.12975337E+04</pdfrwt>
<pdfrwt beam="2">  1       -2 0.12505210E+00 0.12975337E+04</pdfrwt>
<totfact> 0.13043959E+00</totfact>
</mgrwt>
</event>
<event>
 4    1  0.6502538E-008  0.7552274E+03  0.7818608E-02  0.9817624E-01
         -2   -1    0    0    0  501 -0.00000000000E+00  0.00000000000E+00  0.13538250562E+04  0.13538250562E+04  0.25500000000E-02 0.  1.
          2   -1    0    0  501    0  0.00000000000E+00 -0.00000000000E+00 -0.86196869042E+03  0.86196869042E+03  0.25500000000E-02 0. -1.
    8880023    1    1    2    0    0  0.32063563520E+03 -0.18371446148E+03 -0.65594194365E+03  0.10003140775E+04  0.65864270000E+03 0. -1.
    8880022    1    1    2    0    0 -0.32063563520E+03  0.18371446148E+03  0.11477983094E+04  0.12154796691E+04  0.15294330000E+03 0.  0.
<mgrwt>
<rscale>  0 0.64425276E+03</rscale>
<asrwt>0</asrwt>
<pdfrwt beam="1">  1        2 0.13261057E+00 0.75522740E+03</pdfrwt>
<pdfrwt beam="2">  1       -2 0.20828078E+00 0.75522740E+03</pdfrwt>
<totfact> 0.37421538E+00</totfact>
</mgrwt>
</event>
<event>
 4    1  0.6502538E-008  0.8419525E+03  0.7818608E-02  0.9626510E-01
         -2   -1    0    0    0  501 -0.00000000000E+00  0.00000000000E+00  0.36882050550E+03  0.36882050551E+03  0.25500000000E-02 0.  1.
          2   -1    0    0  501    0  0.00000000000E+00 -0.00000000000E+00 -0.19363885227E+04  0.19363885227E+04  0.25500000000E-02 0. -1.
    8880023    1    1    2    0    0  0.27100489039E+03  0.44903242315E+03 -0.15436878599E+04  0.17583674766E+04  0.65864270000E+03 0. -1.
    8880022    1    1    2    0    0 -0.27100489039E+03 -0.44903242315E+03 -0.23880157298E+02  0.54684155163E+03  0.15294330000E+03 0.  0.
<mgrwt>
<rscale>  0 0.75566175E+03</rscale>
<asrwt>0</asrwt>
<pdfrwt beam="1">  1        2 0.29790592E+00 0.84195248E+03</pdfrwt>
<pdfrwt beam="2">  1       -2 0.56741617E-01 0.84195248E+03</pdfrwt>
<totfact> 0.21545316E+01</totfact>
</mgrwt>
</event>
<event>
 4    1  0.6502538E-008  0.8241304E+03  0.7818608E-02  0.9660863E-01
         -2   -1    0    0    0  501 -0.00000000000E+00  0.00000000000E+00  0.29030747704E+03  0.29030747705E+03  0.25500000000E-02 0.  1.
          2   -1    0    0  501    0  0.00000000000E+00 -0.00000000000E+00 -0.21210036288E+04  0.21210036288E+04  0.25500000000E-02 0. -1.
    8880023    1    1    2    0    0  0.79340235793E+02 -0.48896396821E+03 -0.16802696887E+04  0.18714959439E+04  0.65864270000E+03 0. -1.
    8880022    1    1    2    0    0 -0.79340235793E+02  0.48896396821E+03 -0.15042646308E+03  0.53981516192E+03  0.15294330000E+03 0.  0.
<mgrwt>
<rscale>  0 0.73395595E+03</rscale>
<asrwt>0</asrwt>
<pdfrwt beam="1">  1        2 0.32630824E+00 0.82413035E+03</pdfrwt>
<pdfrwt beam="2">  1       -2 0.44662690E-01 0.82413035E+03</pdfrwt>
<totfact> 0.27882940E+01</totfact>
</mgrwt>
</event>
<event>
 4    1  0.6502538E-008  0.7225480E+03  0.7818608E-02  0.9914057E-01
         -2   -1    0    0    0  501 -0.00000000000E+00  0.00000000000E+00  0.26418096531E+03  0.26418096532E+03  0.25500000000E-02 0.  1.
          2   -1    0    0  501    0  0.00000000000E+00 -0.00000000000E+00 -0.16397826336E+04  0.16397826336E+04  0.25500000000E-02 0. -1.
    8880023    1    1    2    0    0  0.15420032971E+03 -0.25394430817E+03 -0.13931237412E+04  0.15693531846E+04  0.65864270000E+03 0.  0.
    8880022    1    1    2    0    0 -0.15420032971E+03  0.25394430817E+03  0.17522072918E+02  0.33461041435E+03  0.15294330000E+03 0.  0.
<mgrwt>
<rscale>  0 0.59584848E+03</rscale>
<asrwt>0</asrwt>
<pdfrwt beam="1">  1        2 0.25227424E+00 0.72254803E+03</pdfrwt>
<pdfrwt beam="2">  1       -2 0.40643227E-01 0.72254803E+03</pdfrwt>
<totfact> 0.62292307E+01</totfact>
</mgrwt>
</event>
<event>
 4    1  0.6502538E-008  0.7806877E+03  0.7818608E-02  0.9754224E-01
         -2   -1    0    0    0  501 -0.00000000000E+00  0.00000000000E+00  0.27536008979E+03  0.27536008980E+03  0.25500000000E-02 0.  1.
          2   -1    0    0  501    0  0.00000000000E+00 -0.00000000000E+00 -0.27716698668E+04  0.27716698668E+04  0.25500000000E-02 0. -1.
    8880023    1    1    2    0    0 -0.15184057880E+03  0.39065019095E+03 -0.24806543526E+04  0.26005998071E+04  0.65864270000E+03 0. -1.
    8880022    1    1    2    0    0  0.15184057880E+03 -0.39065019095E+03 -0.15655424349E+02  0.44643014950E+03  0.15294330000E+03 0.  0.
<mgrwt>
<rscale>  0 0.67878087E+03</rscale>
<asrwt>0</asrwt>
<pdfrwt beam="1">  1        2 0.42641073E+00 0.78068773E+03</pdfrwt>
<pdfrwt beam="2">  1       -2 0.42363093E-01 0.78068773E+03</pdfrwt>
<totfact> 0.13336235E+01</totfact>
</mgrwt>
</event>
<event>
 4    1  0.6502538E-008  0.8818267E+03  0.7818608E-02  0.9555859E-01
         -2   -1    0    0    0  501 -0.00000000000E+00  0.00000000000E+00  0.54596009791E+03  0.54596009791E+03  0.25500000000E-02 0.  1.
          2   -1    0    0  501    0  0.00000000000E+00 -0.00000000000E+00 -0.15448714525E+04  0.15448714525E+04  0.25500000000E-02 0. -1.
    8880023    1    1    2    0    0 -0.39371296921E+03  0.43450922285E+03 -0.11663189824E+04  0.14621622146E+04  0.65864270000E+03 0.  0.
    8880022    1    1    2    0    0  0.39371296921E+03 -0.43450922285E+03  0.16740762783E+03  0.62866933578E+03  0.15294330000E+03 0.  0.
<mgrwt>
<rscale>  0 0.80287928E+03</rscale>
<asrwt>0</asrwt>
<pdfrwt beam="1">  1        2 0.23767253E+00 0.88182673E+03</pdfrwt>
<pdfrwt beam="2">  1       -2 0.83993862E-01 0.88182673E+03</pdfrwt>
<totfact> 0.14962081E+01</totfact>
</mgrwt>
</event>
<event>
 4    1  0.6502538E-008  0.9279941E+03  0.7818608E-02  0.9482509E-01
         -2   -1    0    0    0  501 -0.00000000000E+00  0.00000000000E+00  0.50246119132E+03  0.50246119133E+03  0.25500000000E-02 0.  1.
          2   -1    0    0  501    0  0.00000000000E+00 -0.00000000000E+00 -0.15346901754E+04  0.15346901754E+04  0.25500000000E-02 0. -1.
    8880023    1    1    2    0    0  0.62033749891E+03 -0.20626244471E+03 -0.10010897220E+04  0.13650471224E+04  0.65864270000E+03 0.  0.
    8880022    1    1    2    0    0 -0.62033749891E+03  0.20626244471E+03 -0.31139262155E+02  0.67210424438E+03  0.15294330000E+03 0.  0.
<mgrwt>
<rscale>  0 0.85585740E+03</rscale>
<asrwt>0</asrwt>
<pdfrwt beam="1">  1        2 0.23610618E+00 0.92799408E+03</pdfrwt>
<pdfrwt beam="2">  1       -2 0.77301722E-01 0.92799408E+03</pdfrwt>
<totfact> 0.18197248E+01</totfact>
</mgrwt>
</event>
<event>
 4    1  0.6502538E-008  0.6595958E+03  0.7818608E-02  0.1024574E+00
         -2   -1    0    0    0  501 -0.00000000000E+00  0.00000000000E+00  0.86949896216E+03  0.86949896217E+03  0.25500000000E-02 0.  1.
          2   -1    0    0  501    0  0.00000000000E+00 -0.00000000000E+00 -0.27320733161E+04  0.27320733161E+04  0.25500000000E-02 0. -1.
    8880023    1    1    2    0    0  0.21032295543E+02  0.28531414730E+02 -0.26847258784E+04  0.27645650015E+04  0.65864270000E+03 0. -1.
    8880022    1    1    2    0    0 -0.21032295543E+02 -0.28531414730E+02  0.82215152449E+03  0.83700727674E+03  0.15294330000E+03 0.  0.
<mgrwt>
<rscale>  0 0.46071381E+03</rscale>
<asrwt>0</asrwt>
<pdfrwt beam="1">  1        2 0.42031897E+00 0.65959579E+03</pdfrwt>
<pdfrwt beam="2">  1       -2 0.13376907E+00 0.65959579E+03</pdfrwt>
<totfact> 0.11099009E+00</totfact>
</mgrwt>
</event>
<event>
 4    1  0.6502538E-008  0.9264581E+03  0.7818608E-02  0.9484827E-01
         -2   -1    0    0    0  501 -0.00000000000E+00  0.00000000000E+00  0.32829378898E+03  0.32829378899E+03  0.25500000000E-02 0.  1.
          2   -1    0    0  501    0  0.00000000000E+00 -0.00000000000E+00 -0.26775510358E+04  0.26775510358E+04  0.25500000000E-02 0. -1.
    8880023    1    1    2    0    0 -0.63702887863E+03 -0.13677941867E+03 -0.20935809996E+04  0.22894117169E+04  0.65864270000E+03 0. -1.
    8880022    1    1    2    0    0  0.63702887863E+03  0.13677941867E+03 -0.25567624722E+03  0.71643310783E+03  0.15294330000E+03 0.  0.
<mgrwt>
<rscale>  0 0.85411766E+03</rscale>
<asrwt>0</asrwt>
<pdfrwt beam="1">  1        2 0.41193092E+00 0.92645810E+03</pdfrwt>
<pdfrwt beam="2">  1       -2 0.50506738E-01 0.92645810E+03</pdfrwt>
<totfact> 0.10410857E+01</totfact>
</mgrwt>
</event>
<event>
 4    1  0.6502538E-008  0.7416786E+03  0.7818608E-02  0.9855084E-01
         -2   -1    0    0    0  501 -0.00000000000E+00  0.00000000000E+00  0.11013679218E+03  0.11013679221E+03  0.25500000000E-02 0.  1.
          2   -1    0    0  501    0  0.00000000000E+00 -0.00000000000E+00 -0.40931239316E+04  0.40931239316E+04  0.25500000000E-02 0. -1.
    8880023    1    1    2    0    0 -0.16717718313E+03 -0.29720158108E+03 -0.35702157247E+04  0.36464403900E+04  0.65864270000E+03 0. -1.
    8880022    1    1    2    0    0  0.16717718313E+03  0.29720158108E+03 -0.41277141469E+03  0.55682033382E+03  0.15294330000E+03 0.  0.
<mgrwt>
<rscale>  0 0.62488369E+03</rscale>
<asrwt>0</asrwt>
<pdfrwt beam="1">  1        2 0.62971126E+00 0.74167863E+03</pdfrwt>
<pdfrwt beam="2">  1       -2 0.16944125E-01 0.74167863E+03</pdfrwt>
<totfact> 0.90479978E+00</totfact>
</mgrwt>
</event>
<event>
 4    1  0.6502538E-008  0.7030474E+03  0.7818608E-02  0.9984787E-01
         -2   -1    0    0    0  501 -0.00000000000E+00  0.00000000000E+00  0.57305103676E+03  0.57305103676E+03  0.25500000000E-02 0.  1.
          2   -1    0    0  501    0  0.00000000000E+00 -0.00000000000E+00 -0.15144494050E+04  0.15144494050E+04  0.25500000000E-02 0. -1.
    8880023    1    1    2    0    0  0.24500788797E+03 -0.20895413981E+02 -0.13876147990E+04  0.15555547307E+04  0.65864270000E+03 0. -1.
    8880022    1    1    2    0    0 -0.24500788797E+03  0.20895413981E+02  0.44621643073E+03  0.53194571110E+03  0.15294330000E+03 0.  0.
<mgrwt>
<rscale>  0 0.56322377E+03</rscale>
<asrwt>0</asrwt>
<pdfrwt beam="1">  1        2 0.23299221E+00 0.70304743E+03</pdfrwt>
<pdfrwt beam="2">  1       -2 0.88161699E-01 0.70304743E+03</pdfrwt>
<totfact> 0.14235244E+01</totfact>
</mgrwt>
</event>
<event>
 4    1  0.6502538E-008  0.7335485E+03  0.7818608E-02  0.9879155E-01
          2   -1    0    0  501    0  0.00000000000E+00  0.00000000000E+00  0.42372206528E+03  0.42372206529E+03  0.25500000000E-02 0. -1.
         -2   -1    0    0    0  501 -0.00000000000E+00 -0.00000000000E+00 -0.11820047503E+04  0.11820047503E+04  0.25500000000E-02 0.  1.
    8880023    1    1    2    0    0  0.22540804470E+03 -0.23124536410E+03  0.36355837783E+02  0.73444888061E+03  0.65864270000E+03 0. -1.
    8880022    1    1    2    0    0 -0.22540804470E+03  0.23124536410E+03 -0.79463852276E+03  0.87127793494E+03  0.15294330000E+03 0.  0.
<mgrwt>
<rscale>  0 0.61282264E+03</rscale>
<asrwt>0</asrwt>
<pdfrwt beam="1">  1        2 0.65188010E-01 0.73354851E+03</pdfrwt>
<pdfrwt beam="2">  1       -2 0.18184688E+00 0.73354851E+03</pdfrwt>
<totfact> 0.13350828E+01</totfact>
</mgrwt>
</event>
<event>
 4    1  0.6502538E-008  0.7163334E+03  0.7818608E-02  0.9935194E-01
         -2   -1    0    0    0  501 -0.00000000000E+00  0.00000000000E+00  0.41292555408E+03  0.41292555409E+03  0.25500000000E-02 0.  1.
          2   -1    0    0  501    0  0.00000000000E+00 -0.00000000000E+00 -0.10097815262E+04  0.10097815262E+04  0.25500000000E-02 0. -1.
    8880023    1    1    2    0    0  0.22170760691E+03 -0.17369240176E+03 -0.77556097999E+03  0.10557596096E+04  0.65864270000E+03 0. -1.
    8880022    1    1    2    0    0 -0.22170760691E+03  0.17369240176E+03  0.17870500784E+03  0.36694747068E+03  0.15294330000E+03 0.  0.
<mgrwt>
<rscale>  0 0.58585563E+03</rscale>
<asrwt>0</asrwt>
<pdfrwt beam="1">  1        2 0.15535100E+00 0.71633339E+03</pdfrwt>
<pdfrwt beam="2">  1       -2 0.63527008E-01 0.71633339E+03</pdfrwt>
<totfact> 0.57973185E+01</totfact>
</mgrwt>
</event>
<event>
 4    1  0.6502538E-008  0.8069013E+03  0.7818608E-02  0.9696068E-01
          2   -1    0    0  501    0  0.00000000000E+00  0.00000000000E+00  0.74255957476E+03  0.74255957476E+03  0.25500000000E-02 0. -1.
         -2   -1    0    0    0  501 -0.00000000000E+00 -0.00000000000E+00 -0.15617755738E+04  0.15617755738E+04  0.25500000000E-02 0.  1.
    8880023    1    1    2    0    0  0.54745642373E+01 -0.46610033845E+03  0.46381925800E+03  0.93070833601E+03  0.65864270000E+03 0.  0.
    8880022    1    1    2    0    0 -0.54745642373E+01  0.46610033845E+03 -0.12830352570E+04  0.13736268125E+04  0.15294330000E+03 0.  0.
<mgrwt>
<rscale>  0 0.71251386E+03</rscale>
<asrwt>0</asrwt>
<pdfrwt beam="1">  1        2 0.11423993E+00 0.80690130E+03</pdfrwt>
<pdfrwt beam="2">  1       -2 0.24027317E+00 0.80690130E+03</pdfrwt>
<totfact> 0.28609842E+00</totfact>
</mgrwt>
</event>
<event>
 4    1  0.6502538E-008  0.1202233E+04  0.7818608E-02  0.9154955E-01
          2   -1    0    0  501    0  0.00000000000E+00  0.00000000000E+00  0.14930978468E+04  0.14930978468E+04  0.25500000000E-02 0. -1.
         -2   -1    0    0    0  501 -0.00000000000E+00 -0.00000000000E+00 -0.20815255332E+04  0.20815255332E+04  0.25500000000E-02 0.  1.
    8880023    1    1    2    0    0 -0.11052133188E+03 -0.99966952407E+03  0.10828927386E+04  0.16180299787E+04  0.65864270000E+03 0.  0.
    8880022    1    1    2    0    0  0.11052133188E+03  0.99966952407E+03 -0.16713204250E+04  0.19565934014E+04  0.15294330000E+03 0.  0.
<mgrwt>
<rscale>  0 0.11530714E+04</rscale>
<asrwt>0</asrwt>
<pdfrwt beam="1">  1        2 0.22970736E+00 0.12022331E+04</pdfrwt>
<pdfrwt beam="2">  1       -2 0.32023470E+00 0.12022331E+04</pdfrwt>
<totfact> 0.29869690E-01</totfact>
</mgrwt>
</event>
<event>
 4    1  0.6502538E-008  0.1425889E+04  0.7818608E-02  0.8963823E-01
          2   -1    0    0  501    0  0.00000000000E+00  0.00000000000E+00  0.13456593842E+04  0.13456593842E+04  0.25500000000E-02 0. -1.
         -2   -1    0    0    0  501 -0.00000000000E+00 -0.00000000000E+00 -0.15778829016E+04  0.15778829016E+04  0.25500000000E-02 0.  1.
    8880023    1    1    2    0    0  0.41383757168E+03  0.11950256867E+04  0.42801277626E+03  0.14887421101E+04  0.65864270000E+03 0.  0.
    8880022    1    1    2    0    0 -0.41383757168E+03 -0.11950256867E+04 -0.66023629363E+03  0.14348001756E+04  0.15294330000E+03 0.  0.
<mgrwt>
<rscale>  0 0.13862619E+04</rscale>
<asrwt>0</asrwt>
<pdfrwt beam="1">  1        2 0.20702452E+00 0.14258885E+04</pdfrwt>
<pdfrwt beam="2">  1       -2 0.24275122E+00 0.14258885E+04</pdfrwt>
<totfact> 0.10510148E+00</totfact>
</mgrwt>
</event>
<event>
 4    1  0.6502538E-008  0.1438475E+04  0.7818608E-02  0.8954349E-01
         -2   -1    0    0    0  501 -0.00000000000E+00  0.00000000000E+00  0.88714516519E+03  0.88714516520E+03  0.25500000000E-02 0.  1.
          2   -1    0    0  501    0  0.00000000000E+00 -0.00000000000E+00 -0.24076530174E+04  0.24076530174E+04  0.25500000000E-02 0. -1.
    8880023    1    1    2    0    0 -0.12337254218E+04 -0.33663128745E+03 -0.13898907042E+04  0.20002513382E+04  0.65864270000E+03 0.  0.
    8880022    1    1    2    0    0  0.12337254218E+04  0.33663128745E+03 -0.13061714804E+03  0.12945468444E+04  0.15294330000E+03 0.  0.
<mgrwt>
<rscale>  0 0.13992670E+04</rscale>
<asrwt>0</asrwt>
<pdfrwt beam="1">  1        2 0.37040815E+00 0.14384746E+04</pdfrwt>
<pdfrwt beam="2">  1       -2 0.13648387E+00 0.14384746E+04</pdfrwt>
<totfact> 0.14379289E+00</totfact>
</mgrwt>
</event>
<event>
 4    1  0.6502538E-008  0.1481938E+04  0.7818608E-02  0.8922497E-01
         -2   -1    0    0    0  501 -0.00000000000E+00  0.00000000000E+00  0.10634997473E+04  0.10634997473E+04  0.25500000000E-02 0.  1.
          2   -1    0    0  501    0  0.00000000000E+00 -0.00000000000E+00 -0.31394491184E+04  0.31394491184E+04  0.25500000000E-02 0. -1.
    8880023    1    1    2    0    0  0.12984224804E+04 -0.27645650043E+03 -0.24066547154E+04  0.28263273448E+04  0.65864270000E+03 0.  0.
    8880022    1    1    2    0    0 -0.12984224804E+04  0.27645650043E+03  0.33070534430E+03  0.13766215209E+04  0.15294330000E+03 0.  0.
<mgrwt>
<rscale>  0 0.14441063E+04</rscale>
<asrwt>0</asrwt>
<pdfrwt beam="1">  1        2 0.48299217E+00 0.14819377E+04</pdfrwt>
<pdfrwt beam="2">  1       -2 0.16361535E+00 0.14819377E+04</pdfrwt>
<totfact> 0.31931942E-01</totfact>
</mgrwt>
</event>
<event>
 4    1  0.6502538E-008  0.1243673E+04  0.7818608E-02  0.9115796E-01
          2   -1    0    0  501    0  0.00000000000E+00  0.00000000000E+00  0.18847654660E+04  0.18847654660E+04  0.25500000000E-02 0. -1.
         -2   -1    0    0    0  501 -0.00000000000E+00 -0.00000000000E+00 -0.10361621904E+04  0.10361621904E+04  0.25500000000E-02 0.  1.
    8880023    1    1    2    0    0  0.87682606615E+03 -0.58658979784E+03  0.12673627690E+04  0.17756492153E+04  0.65864270000E+03 0.  0.
    8880022    1    1    2    0    0 -0.87682606615E+03  0.58658979784E+03 -0.41875949344E+03  0.11452784411E+04  0.15294330000E+03 0.  1.
<mgrwt>
<rscale>  0 0.11966478E+04</rscale>
<asrwt>0</asrwt>
<pdfrwt beam="1">  1        2 0.28996392E+00 0.12436727E+04</pdfrwt>
<pdfrwt beam="2">  1       -2 0.15940957E+00 0.12436727E+04</pdfrwt>
<totfact> 0.19059316E+00</totfact>
</mgrwt>
</event>
<event>
 4    1  0.6502538E-008  0.7620633E+03  0.7818608E-02  0.9799795E-01
         -2   -1    0    0    0  501 -0.00000000000E+00  0.00000000000E+00  0.38807510428E+03  0.38807510429E+03  0.25500000000E-02 0.  1.
          2   -1    0    0  501    0  0.00000000000E+00 -0.00000000000E+00 -0.11944518424E+04  0.11944518424E+04  0.25500000000E-02 0. -1.
    8880023    1    1    2    0    0  0.34151461804E+03  0.17406329047E+03 -0.10572323631E+03  0.76936199047E+03  0.65864270000E+03 0.  0.
    8880022    1    1    2    0    0 -0.34151461804E+03 -0.17406329047E+03 -0.70065350183E+03  0.81316495624E+03  0.15294330000E+03 0. -1.
<mgrwt>
<rscale>  0 0.65373555E+03</rscale>
<asrwt>0</asrwt>
<pdfrwt beam="1">  1        2 0.18376182E+00 0.76206330E+03</pdfrwt>
<pdfrwt beam="2">  1       -2 0.59703863E-01 0.76206330E+03</pdfrwt>
<totfact> 0.50775142E+01</totfact>
</mgrwt>
</event>
<event>
 4    1  0.6502538E-008  0.1294264E+04  0.7818608E-02  0.9070530E-01
          2   -1    0    0  501    0  0.00000000000E+00  0.00000000000E+00  0.59090133299E+03  0.59090133300E+03  0.25500000000E-02 0. -1.
         -2   -1    0    0    0  501 -0.00000000000E+00 -0.00000000000E+00 -0.27843535762E+04  0.27843535762E+04  0.25500000000E-02 0.  1.
    8880023    1    1    2    0    0 -0.18478662557E+03 -0.10987091648E+04 -0.60418217939E+03  0.14283396788E+04  0.65864270000E+03 0.  0.
    8880022    1    1    2    0    0  0.18478662557E+03  0.10987091648E+04 -0.15892700638E+04  0.19469152304E+04  0.15294330000E+03 0.  0.
<mgrwt>
<rscale>  0 0.12495840E+04</rscale>
<asrwt>0</asrwt>
<pdfrwt beam="1">  1        2 0.90907899E-01 0.12942635E+04</pdfrwt>
<pdfrwt beam="2">  1       -2 0.42836208E+00 0.12942635E+04</pdfrwt>
<totfact> 0.23923900E-01</totfact>
</mgrwt>
</event>
<event>
 4    1  0.6502538E-008  0.8572804E+03  0.7818608E-02  0.9598419E-01
          2   -1    0    0  501    0  0.00000000000E+00  0.00000000000E+00  0.11266756075E+04  0.11266756075E+04  0.25500000000E-02 0. -1.
         -2   -1    0    0    0  501 -0.00000000000E+00 -0.00000000000E+00 -0.46112567739E+03  0.46112567740E+03  0.25500000000E-02 0.  1.
    8880023    1    1    2    0    0 -0.24161251700E+03  0.49268946987E+03  0.50908984796E+03  0.99704673995E+03  0.65864270000E+03 0.  0.
    8880022    1    1    2    0    0  0.24161251700E+03 -0.49268946987E+03  0.15646008218E+03  0.59075454498E+03  0.15294330000E+03 0.  0.
<mgrwt>
<rscale>  0 0.77400878E+03</rscale>
<asrwt>0</asrwt>
<pdfrwt beam="1">  1        2 0.17333471E+00 0.85728043E+03</pdfrwt>
<pdfrwt beam="2">  1       -2 0.70942413E-01 0.85728043E+03</pdfrwt>
<totfact> 0.38157305E+01</totfact>
</mgrwt>
</event>
<event>
 4    1  0.6502538E-008  0.7982239E+03  0.7818608E-02  0.9714650E-01
         -2   -1    0    0    0  501 -0.00000000000E+00  0.00000000000E+00  0.69360637556E+03  0.69360637557E+03  0.25500000000E-02 0.  1.
          2   -1    0    0  501    0  0.00000000000E+00 -0.00000000000E+00 -0.10366101439E+04  0.10366101439E+04  0.25500000000E-02 0. -1.
    8880023    1    1    2    0    0 -0.33614801100E+03  0.30059227681E+03 -0.75636069448E+03  0.10996558137E+04  0.65864270000E+03 0. -1.
    8880022    1    1    2    0    0  0.33614801100E+03 -0.30059227681E+03  0.41335692618E+03  0.63056070573E+03  0.15294330000E+03 0.  0.
<mgrwt>
<rscale>  0 0.70151224E+03</rscale>
<asrwt>0</asrwt>
<pdfrwt beam="1">  1        2 0.15947848E+00 0.79822391E+03</pdfrwt>
<pdfrwt beam="2">  1       -2 0.10670867E+00 0.79822391E+03</pdfrwt>
<totfact> 0.17078603E+01</totfact>
</mgrwt>
</event>
<event>
 4    1  0.6502538E-008  0.9189909E+03  0.7818608E-02  0.9496208E-01
          2   -1    0    0  501    0  0.00000000000E+00  0.00000000000E+00  0.15194605220E+04  0.15194605220E+04  0.25500000000E-02 0. -1.
         -2   -1    0    0    0  501 -0.00000000000E+00 -0.00000000000E+00 -0.89058190771E+03  0.89058190772E+03  0.25500000000E-02 0.  1.
    8880023    1    1    2    0    0  0.34923919960E+03 -0.53736950739E+03  0.12182677548E+04  0.15260145919E+04  0.65864270000E+03 0. -1.
    8880022    1    1    2    0    0 -0.34923919960E+03  0.53736950739E+03 -0.58938914054E+03  0.88402783780E+03  0.15294330000E+03 0.  0.
<mgrwt>
<rscale>  0 0.84563963E+03</rscale>
<asrwt>0</asrwt>
<pdfrwt beam="1">  1        2 0.23376316E+00 0.91899087E+03</pdfrwt>
<pdfrwt beam="2">  1       -2 0.13701260E+00 0.91899087E+03</pdfrwt>
<totfact> 0.47138945E+00</totfact>
</mgrwt>
</event>
<event>
 4    1  0.6502538E-008  0.9697275E+03  0.7818608E-02  0.9422281E-01
         -2   -1    0    0    0  501 -0.00000000000E+00  0.00000000000E+00  0.50722834617E+03  0.50722834618E+03  0.25500000000E-02 0.  1.
          2   -1    0    0  501    0  0.00000000000E+00 -0.00000000000E+00 -0.34836163181E+04  0.34836163181E+04  0.25500000000E-02 0. -1.
    8880023    1    1    2    0    0  0.49177108400E+03  0.51451186280E+03 -0.31038352814E+04  0.32517941073E+04  0.65864270000E+03 0. -1.
    8880022    1    1    2    0    0 -0.49177108400E+03 -0.51451186280E+03  0.12744730949E+03  0.73905055695E+03  0.15294330000E+03 0.  0.
<mgrwt>
<rscale>  0 0.90264494E+03</rscale>
<asrwt>0</asrwt>
<pdfrwt beam="1">  1        2 0.53594096E+00 0.96972752E+03</pdfrwt>
<pdfrwt beam="2">  1       -2 0.78035132E-01 0.96972752E+03</pdfrwt>
<totfact> 0.12692922E+00</totfact>
</mgrwt>
</event>
<event>
 4    1  0.6502538E-008  0.8177832E+03  0.7818608E-02  0.9673587E-01
         -2   -1    0    0    0  501 -0.00000000000E+00  0.00000000000E+00  0.60876655621E+03  0.60876655622E+03  0.25500000000E-02 0.  1.
          2   -1    0    0  501    0  0.00000000000E+00 -0.00000000000E+00 -0.20986714780E+04  0.20986714780E+04  0.25500000000E-02 0. -1.
    8880023    1    1    2    0    0 -0.39954633458E+03  0.27444834145E+03 -0.18908080032E+04  0.20600787065E+04  0.65864270000E+03 0. -1.
    8880022    1    1    2    0    0  0.39954633458E+03 -0.27444834145E+03  0.40090308138E+03  0.64735932779E+03  0.15294330000E+03 0.  0.
<mgrwt>
<rscale>  0 0.72611410E+03</rscale>
<asrwt>0</asrwt>
<pdfrwt beam="1">  1        2 0.32287253E+00 0.81778321E+03</pdfrwt>
<pdfrwt beam="2">  1       -2 0.93656394E-01 0.81778321E+03</pdfrwt>
<totfact> 0.58266632E+00</totfact>
</mgrwt>
</event>
<event>
 4    1  0.6502538E-008  0.8715938E+03  0.7818608E-02  0.9573264E-01
          2   -1    0    0  501    0  0.00000000000E+00  0.00000000000E+00  0.13365797272E+04  0.13365797272E+04  0.25500000000E-02 0. -1.
         -2   -1    0    0    0  501 -0.00000000000E+00 -0.00000000000E+00 -0.13492483951E+04  0.13492483951E+04  0.25500000000E-02 0.  1.
    8880023    1    1    2    0    0  0.56197362687E+03  0.10025554020E+03  0.11134736858E+04  0.14140365575E+04  0.65864270000E+03 0. -1.
    8880022    1    1    2    0    0 -0.56197362687E+03 -0.10025554020E+03 -0.11261423537E+04  0.12717915649E+04  0.15294330000E+03 0.  0.
<mgrwt>
<rscale>  0 0.79091309E+03</rscale>
<asrwt>0</asrwt>
<pdfrwt beam="1">  1        2 0.20562765E+00 0.87159379E+03</pdfrwt>
<pdfrwt beam="2">  1       -2 0.20757668E+00 0.87159379E+03</pdfrwt>
<totfact> 0.18886746E+00</totfact>
</mgrwt>
</event>
<event>
 4    1  0.6502538E-008  0.6949823E+03  0.7818608E-02  0.1001869E+00
          2   -1    0    0  501    0  0.00000000000E+00  0.00000000000E+00  0.21774492092E+04  0.21774492092E+04  0.25500000000E-02 0. -1.
         -2   -1    0    0    0  501 -0.00000000000E+00 -0.00000000000E+00 -0.29786821689E+03  0.29786821690E+03  0.25500000000E-02 0.  1.
    8880023    1    1    2    0    0 -0.19276382009E+03 -0.10969154725E+03  0.20445299827E+04  0.21594219556E+04  0.65864270000E+03 0. -1.
    8880022    1    1    2    0    0  0.19276382009E+03  0.10969154725E+03 -0.16494899035E+03  0.31589547054E+03  0.15294330000E+03 0.  0.
<mgrwt>
<rscale>  0 0.54838269E+03</rscale>
<asrwt>0</asrwt>
<pdfrwt beam="1">  1        2 0.33499219E+00 0.69498225E+03</pdfrwt>
<pdfrwt beam="2">  1       -2 0.45825879E-01 0.69498225E+03</pdfrwt>
<totfact> 0.25097648E+01</totfact>
</mgrwt>
</event>
<event>
 4    1  0.6502538E-008  0.9493620E+03  0.7818608E-02  0.9451033E-01
         -2   -1    0    0    0  501 -0.00000000000E+00  0.00000000000E+00  0.11204744848E+04  0.11204744848E+04  0.25500000000E-02 0.  1.
          2   -1    0    0  501    0  0.00000000000E+00 -0.00000000000E+00 -0.22468745266E+04  0.22468745266E+04  0.25500000000E-02 0. -1.
    8880023    1    1    2    0    0 -0.64020214265E+03  0.24004001697E+03 -0.20199208609E+04  0.22318979555E+04  0.65864270000E+03 0.  0.
    8880022    1    1    2    0    0  0.64020214265E+03 -0.24004001697E+03  0.89352081906E+03  0.11354510559E+04  0.15294330000E+03 0.  0.
<mgrwt>
<rscale>  0 0.87992297E+03</rscale>
<asrwt>0</asrwt>
<pdfrwt beam="1">  1        2 0.34567300E+00 0.94936200E+03</pdfrwt>
<pdfrwt beam="2">  1       -2 0.17238069E+00 0.94936200E+03</pdfrwt>
<totfact> 0.10053590E+00</totfact>
</mgrwt>
</event>
<event>
 4    1  0.6502538E-008  0.6662083E+03  0.7818608E-02  0.1018541E+00
          2   -1    0    0  501    0  0.00000000000E+00  0.00000000000E+00  0.15822832499E+03  0.15822832501E+03  0.25500000000E-02 0. -1.
         -2   -1    0    0    0  501 -0.00000000000E+00 -0.00000000000E+00 -0.16379050001E+04  0.16379050001E+04  0.25500000000E-02 0.  1.
    8880023    1    1    2    0    0  0.77210593866E+02 -0.63732359461E+02 -0.59647303287E+03  0.89421114657E+03  0.65864270000E+03 0. -1.
    8880022    1    1    2    0    0 -0.77210593866E+02  0.63732359461E+02 -0.88320364226E+03  0.90192217855E+03  0.15294330000E+03 0.  0.
<mgrwt>
<rscale>  0 0.48216992E+03</rscale>
<asrwt>0</asrwt>
<pdfrwt beam="1">  1        2 0.24342820E-01 0.66620830E+03</pdfrwt>
<pdfrwt beam="2">  1       -2 0.25198537E+00 0.66620830E+03</pdfrwt>
<totfact> 0.14616223E+01</totfact>
</mgrwt>
</event>
<event>
 4    1  0.6502538E-008  0.6818726E+03  0.7818608E-02  0.1008284E+00
         -2   -1    0    0    0  501 -0.00000000000E+00  0.00000000000E+00  0.15235825771E+03  0.15235825773E+03  0.25500000000E-02 0.  1.
          2   -1    0    0  501    0  0.00000000000E+00 -0.00000000000E+00 -0.32367742342E+04  0.32367742342E+04  0.25500000000E-02 0. -1.
    8880023    1    1    2    0    0 -0.64057630186E+02 -0.16442820785E+03 -0.30810362830E+04  0.31555878690E+04  0.65864270000E+03 0. -1.
    8880022    1    1    2    0    0  0.64057630186E+02  0.16442820785E+03 -0.33796934002E+01  0.23354462286E+03  0.15294330000E+03 0.  0.
<mgrwt>
<rscale>  0 0.52162515E+03</rscale>
<asrwt>0</asrwt>
<pdfrwt beam="1">  1        2 0.49796522E+00 0.68187258E+03</pdfrwt>
<pdfrwt beam="2">  1       -2 0.23439734E-01 0.68187258E+03</pdfrwt>
<totfact> 0.21326159E+01</totfact>
</mgrwt>
</event>
<event>
 4    1  0.6502538E-008  0.7196149E+03  0.7818608E-02  0.9923891E-01
          2   -1    0    0  501    0  0.00000000000E+00  0.00000000000E+00  0.45345697616E+03  0.45345697617E+03  0.25500000000E-02 0. -1.
         -2   -1    0    0    0  501 -0.00000000000E+00 -0.00000000000E+00 -0.73852800669E+03  0.73852800670E+03  0.25500000000E-02 0.  1.
    8880023    1    1    2    0    0  0.27637912742E+03  0.87464167161E+02  0.52431452456E+02  0.72152246402E+03  0.65864270000E+03 0.  0.
    8880022    1    1    2    0    0 -0.27637912742E+03 -0.87464167161E+02 -0.33750248298E+03  0.47046251885E+03  0.15294330000E+03 0. -1.
<mgrwt>
<rscale>  0 0.59117263E+03</rscale>
<asrwt>0</asrwt>
<pdfrwt beam="1">  1        2 0.69762612E-01 0.71961490E+03</pdfrwt>
<pdfrwt beam="2">  1       -2 0.11361969E+00 0.71961490E+03</pdfrwt>
<totfact> 0.42444739E+01</totfact>
</mgrwt>
</event>
<event>
 4    1  0.6502538E-008  0.1064274E+04  0.7818608E-02  0.9301915E-01
         -2   -1    0    0    0  501 -0.00000000000E+00  0.00000000000E+00  0.12451698245E+04  0.12451698245E+04  0.25500000000E-02 0.  1.
          2   -1    0    0  501    0  0.00000000000E+00 -0.00000000000E+00 -0.11992150761E+04  0.11992150761E+04  0.25500000000E-02 0. -1.
    8880023    1    1    2    0    0  0.69175287135E+03  0.46941219957E+03 -0.73241701312E+03  0.12919422338E+04  0.65864270000E+03 0. -1.
    8880022    1    1    2    0    0 -0.69175287135E+03 -0.46941219957E+03  0.77837176146E+03  0.11524426668E+04  0.15294330000E+03 0.  0.
<mgrwt>
<rscale>  0 0.10060673E+04</rscale>
<asrwt>0</asrwt>
<pdfrwt beam="1">  1        2 0.18449463E+00 0.10642744E+04</pdfrwt>
<pdfrwt beam="2">  1       -2 0.19156459E+00 0.10642744E+04</pdfrwt>
<totfact> 0.28249380E+00</totfact>
</mgrwt>
</event>
<event>
 4    1  0.6502538E-008  0.7665898E+03  0.7818608E-02  0.9788337E-01
          2   -1    0    0  501    0  0.00000000000E+00  0.00000000000E+00  0.71155667264E+03  0.71155667264E+03  0.25500000000E-02 0. -1.
         -2   -1    0    0    0  501 -0.00000000000E+00 -0.00000000000E+00 -0.67945255317E+03  0.67945255318E+03  0.25500000000E-02 0.  1.
    8880023    1    1    2    0    0 -0.19771396233E+03 -0.33876074203E+03  0.36997152053E+03  0.85119843956E+03  0.65864270000E+03 0. -1.
    8880022    1    1    2    0    0  0.19771396233E+03  0.33876074203E+03 -0.33786740106E+03  0.53981078626E+03  0.15294330000E+03 0.  0.
<mgrwt>
<rscale>  0 0.65992241E+03</rscale>
<asrwt>0</asrwt>
<pdfrwt beam="1">  1        2 0.10947026E+00 0.76658976E+03</pdfrwt>
<pdfrwt beam="2">  1       -2 0.10453116E+00 0.76658976E+03</pdfrwt>
<totfact> 0.30176243E+01</totfact>
</mgrwt>
</event>
<event>
 4    1  0.6502538E-008  0.6603571E+03  0.7818608E-02  0.1023794E+00
          2   -1    0    0  501    0  0.00000000000E+00  0.00000000000E+00  0.59913758192E+03  0.59913758192E+03  0.25500000000E-02 0. -1.
         -2   -1    0    0    0  501 -0.00000000000E+00 -0.00000000000E+00 -0.37167098140E+03  0.37167098141E+03  0.25500000000E-02 0.  1.
    8880023    1    1    2    0    0 -0.43945670727E+02  0.18166416761E+02  0.36952873263E+03  0.75671852837E+03  0.65864270000E+03 0. -1.
    8880022    1    1    2    0    0  0.43945670727E+02 -0.18166416761E+02 -0.14206213212E+03  0.21409003496E+03  0.15294330000E+03 0.  0.
<mgrwt>
<rscale>  0 0.46342148E+03</rscale>
<asrwt>0</asrwt>
<pdfrwt beam="1">  1        2 0.92175012E-01 0.66035706E+03</pdfrwt>
<pdfrwt beam="2">  1       -2 0.57180152E-01 0.66035706E+03</pdfrwt>
<totfact> 0.14460984E+02</totfact>
</mgrwt>
</event>
<event>
 4    1  0.6502538E-008  0.9745187E+03  0.7818608E-02  0.9415681E-01
         -2   -1    0    0    0  501 -0.00000000000E+00  0.00000000000E+00  0.45128775060E+03  0.45128775060E+03  0.25500000000E-02 0.  1.
          2   -1    0    0  501    0  0.00000000000E+00 -0.00000000000E+00 -0.26513225733E+04  0.26513225733E+04  0.25500000000E-02 0. -1.
    8880023    1    1    2    0    0  0.63852948693E+03  0.32887182328E+03 -0.21570893318E+04  0.23670067962E+04  0.65864270000E+03 0.  0.
    8880022    1    1    2    0    0 -0.63852948693E+03 -0.32887182328E+03 -0.42945490992E+02  0.73560352775E+03  0.15294330000E+03 0.  0.
<mgrwt>
<rscale>  0 0.90796321E+03</rscale>
<asrwt>0</asrwt>
<pdfrwt beam="1">  1        2 0.40789577E+00 0.97451875E+03</pdfrwt>
<pdfrwt beam="2">  1       -2 0.69428886E-01 0.97451875E+03</pdfrwt>
<totfact> 0.54665270E+00</totfact>
</mgrwt>
</event>
<event>
 4    1  0.6502538E-008  0.1741819E+04  0.7818608E-02  0.8755422E-01
         -2   -1    0    0    0  501 -0.00000000000E+00  0.00000000000E+00  0.14550947272E+04  0.14550947272E+04  0.25500000000E-02 0.  1.
          2   -1    0    0  501    0  0.00000000000E+00 -0.00000000000E+00 -0.21252965198E+04  0.21252965198E+04  0.25500000000E-02 0. -1.
    8880023    1    1    2    0    0 -0.11251887143E+04 -0.11550207693E+04 -0.87242279236E+03  0.19480899248E+04  0.65864270000E+03 0.  0.
    8880022    1    1    2    0    0  0.11251887143E+04  0.11550207693E+04  0.20222099979E+03  0.16323013221E+04  0.15294330000E+03 0.  0.
<mgrwt>
<rscale>  0 0.17104590E+04</rscale>
<asrwt>0</asrwt>
<pdfrwt beam="1">  1        2 0.32696870E+00 0.17418188E+04</pdfrwt>
<pdfrwt beam="2">  1       -2 0.22386073E+00 0.17418188E+04</pdfrwt>
<totfact> 0.48664123E-01</totfact>
</mgrwt>
</event>
<event>
 4    1  0.6502538E-008  0.1389936E+04  0.7818608E-02  0.8991542E-01
          2   -1    0    0  501    0  0.00000000000E+00  0.00000000000E+00  0.17465942341E+04  0.17465942341E+04  0.25500000000E-02 0. -1.
         -2   -1    0    0    0  501 -0.00000000000E+00 -0.00000000000E+00 -0.20248609676E+04  0.20248609676E+04  0.25500000000E-02 0.  1.
    8880023    1    1    2    0    0 -0.65619916301E+03  0.10332058344E+04  0.12069403339E+04  0.18408223200E+04  0.65864270000E+03 0. -1.
    8880022    1    1    2    0    0  0.65619916301E+03 -0.10332058344E+04 -0.14852070674E+04  0.19306328817E+04  0.15294330000E+03 0.  0.
<mgrwt>
<rscale>  0 0.13490567E+04</rscale>
<asrwt>0</asrwt>
<pdfrwt beam="1">  1        2 0.26870680E+00 0.13899359E+04</pdfrwt>
<pdfrwt beam="2">  1       -2 0.31151707E+00 0.13899359E+04</pdfrwt>
<totfact> 0.23754310E-01</totfact>
</mgrwt>
</event>
<event>
 4    1  0.6502538E-008  0.7918670E+03  0.7818608E-02  0.9728665E-01
          2   -1    0    0  501    0  0.00000000000E+00  0.00000000000E+00  0.31774744229E+03  0.31774744230E+03  0.25500000000E-02 0. -1.
         -2   -1    0    0    0  501 -0.00000000000E+00 -0.00000000000E+00 -0.26982710519E+04  0.26982710519E+04  0.25500000000E-02 0.  1.
    8880023    1    1    2    0    0 -0.42646476880E+03  0.10663483007E+03 -0.24286182791E+03  0.82827245501E+03  0.65864270000E+03 0.  0.
    8880022    1    1    2    0    0  0.42646476880E+03 -0.10663483007E+03 -0.21376617817E+04  0.21877460392E+04  0.15294330000E+03 0.  0.
<mgrwt>
<rscale>  0 0.69335433E+03</rscale>
<asrwt>0</asrwt>
<pdfrwt beam="1">  1        2 0.48884224E-01 0.79186703E+03</pdfrwt>
<pdfrwt beam="2">  1       -2 0.41511861E+00 0.79186703E+03</pdfrwt>
<totfact> 0.64213050E-01</totfact>
</mgrwt>
</event>
<event>
 4    1  0.6502538E-008  0.7071673E+03  0.7818608E-02  0.9968674E-01
          2   -1    0    0  501    0  0.00000000000E+00  0.00000000000E+00  0.57473997886E+03  0.57473997886E+03  0.25500000000E-02 0. -1.
         -2   -1    0    0    0  501 -0.00000000000E+00 -0.00000000000E+00 -0.68600738829E+03  0.68600738829E+03  0.25500000000E-02 0.  1.
    8880023    1    1    2    0    0 -0.11404380046E+03 -0.23080154433E+03  0.28638651790E+03  0.76295660767E+03  0.65864270000E+03 0. -1.
    8880022    1    1    2    0    0  0.11404380046E+03  0.23080154433E+03 -0.39765392734E+03  0.49779075948E+03  0.15294330000E+03 0.  0.
<mgrwt>
<rscale>  0 0.57045408E+03</rscale>
<asrwt>0</asrwt>
<pdfrwt beam="1">  1        2 0.88421535E-01 0.70716727E+03</pdfrwt>
<pdfrwt beam="2">  1       -2 0.10553960E+00 0.70716727E+03</pdfrwt>
<totfact> 0.38525165E+01</totfact>
</mgrwt>
</event>
<event>
 4    1  0.6502538E-008  0.1426915E+04  0.7818608E-02  0.8963047E-01
         -2   -1    0    0    0  501 -0.00000000000E+00  0.00000000000E+00  0.12661095620E+04  0.12661095620E+04  0.25500000000E-02 0.  1.
          2   -1    0    0  501    0  0.00000000000E+00 -0.00000000000E+00 -0.42763207713E+04  0.42763207713E+04  0.25500000000E-02 0. -1.
    8880023    1    1    2    0    0  0.10244815242E+04 -0.74344668234E+03  0.72147142202E+03  0.15989392052E+04  0.65864270000E+03 0.  0.
    8880022    1    1    2    0    0 -0.10244815242E+04  0.74344668234E+03 -0.37316826314E+04  0.39434911281E+04  0.15294330000E+03 0.  0.
<mgrwt>
<rscale>  0 0.13873226E+04</rscale>
<asrwt>0</asrwt>
<pdfrwt beam="1">  1        2 0.65789549E+00 0.14269147E+04</pdfrwt>
<pdfrwt beam="2">  1       -2 0.19478609E+00 0.14269147E+04</pdfrwt>
<totfact> 0.27909887E-02</totfact>
</mgrwt>
</event>
<event>
 4    1  0.6502538E-008  0.1036014E+04  0.7818608E-02  0.9335886E-01
         -2   -1    0    0    0  501 -0.00000000000E+00  0.00000000000E+00  0.96589410950E+03  0.96589410950E+03  0.25500000000E-02 0.  1.
          2   -1    0    0  501    0  0.00000000000E+00 -0.00000000000E+00 -0.26594669645E+04  0.26594669645E+04  0.25500000000E-02 0. -1.
    8880023    1    1    2    0    0  0.69609538347E+03  0.39365712857E+03 -0.23572989142E+04  0.25749141918E+04  0.65864270000E+03 0. -1.
    8880022    1    1    2    0    0 -0.69609538347E+03 -0.39365712857E+03  0.66372605919E+03  0.10504468823E+04  0.15294330000E+03 0.  0.
<mgrwt>
<rscale>  0 0.97545161E+03</rscale>
<asrwt>0</asrwt>
<pdfrwt beam="1">  1        2 0.40914876E+00 0.10360140E+04</pdfrwt>
<pdfrwt beam="2">  1       -2 0.14859909E+00 0.10360140E+04</pdfrwt>
<totfact> 0.86496726E-01</totfact>
</mgrwt>
</event>
<event>
 4    1  0.6502538E-008  0.6831486E+03  0.7818608E-02  0.1007596E+00
         -2   -1    0    0    0  501 -0.00000000000E+00  0.00000000000E+00  0.89104939333E+02  0.89104939369E+02  0.25500000000E-02 0.  1.
          2   -1    0    0  501    0  0.00000000000E+00 -0.00000000000E+00 -0.23794412052E+04  0.23794412052E+04  0.25500000000E-02 0. -1.
    8880023    1    1    2    0    0 -0.13899113343E+03 -0.11646161637E+03 -0.17364566952E+04  0.18660047973E+04  0.65864270000E+03 0. -1.
    8880022    1    1    2    0    0  0.13899113343E+03  0.11646161637E+03 -0.55387957069E+03  0.60254134721E+03  0.15294330000E+03 0. -1.
<mgrwt>
<rscale>  0 0.52441413E+03</rscale>
<asrwt>0</asrwt>
<pdfrwt beam="1">  1        2 0.36606783E+00 0.68314863E+03</pdfrwt>
<pdfrwt beam="2">  1       -2 0.13708454E-01 0.68314863E+03</pdfrwt>
<totfact> 0.17347347E+02</totfact>
</mgrwt>
</event>
<event>
 4    1  0.6502538E-008  0.1130161E+04  0.7818608E-02  0.9228196E-01
          2   -1    0    0  501    0  0.00000000000E+00  0.00000000000E+00  0.22713362681E+04  0.22713362681E+04  0.25500000000E-02 0. -1.
         -2   -1    0    0    0  501 -0.00000000000E+00 -0.00000000000E+00 -0.47188531096E+03  0.47188531097E+03  0.25500000000E-02 0.  1.
    8880023    1    1    2    0    0  0.28389474542E+03  0.87341722553E+03  0.85619689025E+03  0.14178636033E+04  0.65864270000E+03 0.  0.
    8880022    1    1    2    0    0 -0.28389474542E+03 -0.87341722553E+03  0.94325406692E+03  0.13253579758E+04  0.15294330000E+03 0.  0.
<mgrwt>
<rscale>  0 0.10767081E+04</rscale>
<asrwt>0</asrwt>
<pdfrwt beam="1">  1        2 0.34943635E+00 0.11301611E+04</pdfrwt>
<pdfrwt beam="2">  1       -2 0.72597740E-01 0.11301611E+04</pdfrwt>
<totfact> 0.80127724E+00</totfact>
</mgrwt>
</event>
<event>
 4    1  0.6502538E-008  0.1181659E+04  0.7818608E-02  0.9175160E-01
         -2   -1    0    0    0  501 -0.00000000000E+00  0.00000000000E+00  0.11304774771E+04  0.11304774771E+04  0.25500000000E-02 0.  1.
          2   -1    0    0  501    0  0.00000000000E+00 -0.00000000000E+00 -0.14913188582E+04  0.14913188582E+04  0.25500000000E-02 0. -1.
    8880023    1    1    2    0    0  0.56701127241E+03  0.80062911025E+03 -0.90604187045E+03  0.14890368808E+04  0.65864270000E+03 0.  0.
    8880022    1    1    2    0    0 -0.56701127241E+03 -0.80062911025E+03  0.54520048932E+03  0.11327594545E+04  0.15294330000E+03 0.  0.
<mgrwt>
<rscale>  0 0.11313536E+04</rscale>
<asrwt>0</asrwt>
<pdfrwt beam="1">  1        2 0.22943367E+00 0.11816594E+04</pdfrwt>
<pdfrwt beam="2">  1       -2 0.17391961E+00 0.11816594E+04</pdfrwt>
<totfact> 0.24963035E+00</totfact>
</mgrwt>
</event>
<event>
 4    1  0.6502538E-008  0.1075051E+04  0.7818608E-02  0.9289356E-01
          2   -1    0    0  501    0  0.00000000000E+00  0.00000000000E+00  0.20050278024E+04  0.20050278024E+04  0.25500000000E-02 0. -1.
         -2   -1    0    0    0  501 -0.00000000000E+00 -0.00000000000E+00 -0.47317983659E+03  0.47317983660E+03  0.25500000000E-02 0.  1.
    8880023    1    1    2    0    0 -0.47436229741E+02 -0.84833556997E+03  0.72600504208E+03  0.12972343514E+04  0.65864270000E+03 0.  0.
    8880022    1    1    2    0    0  0.47436229741E+02  0.84833556997E+03  0.80584292371E+03  0.11809732875E+04  0.15294330000E+03 0.  0.
<mgrwt>
<rscale>  0 0.10176868E+04</rscale>
<asrwt>0</asrwt>
<pdfrwt beam="1">  1        2 0.30846582E+00 0.10750505E+04</pdfrwt>
<pdfrwt beam="2">  1       -2 0.72796897E-01 0.10750505E+04</pdfrwt>
<totfact> 0.11264522E+01</totfact>
</mgrwt>
</event>
<event>
 4    1  0.6502538E-008  0.6771081E+03  0.7818608E-02  0.1011009E+00
         -2   -1    0    0    0  501 -0.00000000000E+00  0.00000000000E+00  0.48023957379E+03  0.48023957379E+03  0.25500000000E-02 0.  1.
          2   -1    0    0  501    0  0.00000000000E+00 -0.00000000000E+00 -0.43873922653E+03  0.43873922653E+03  0.25500000000E-02 0. -1.
    8880023    1    1    2    0    0 -0.12274769691E+03 -0.97970362732E+02 -0.55251812549E+02  0.67935863734E+03  0.65864270000E+03 0.  0.
    8880022    1    1    2    0    0  0.12274769691E+03  0.97970362732E+02  0.96752159811E+02  0.23962016299E+03  0.15294330000E+03 0.  0.
<mgrwt>
<rscale>  0 0.51075534E+03</rscale>
<asrwt>0</asrwt>
<pdfrwt beam="1">  1        2 0.67498343E-01 0.67710811E+03</pdfrwt>
<pdfrwt beam="2">  1       -2 0.73883011E-01 0.67710811E+03</pdfrwt>
<totfact> 0.11985780E+02</totfact>
</mgrwt>
</event>
<event>
 4    1  0.6502538E-008  0.9678916E+03  0.7818608E-02  0.9424826E-01
          2   -1    0    0  501    0  0.00000000000E+00  0.00000000000E+00  0.27368772124E+04  0.27368772124E+04  0.25500000000E-02 0. -1.
         -2   -1    0    0    0  501 -0.00000000000E+00 -0.00000000000E+00 -0.31996727366E+03  0.31996727367E+03  0.25500000000E-02 0.  1.
    8880023    1    1    2    0    0  0.23803980628E+03  0.66808763111E+03  0.19954083201E+04  0.22177620707E+04  0.65864270000E+03 0.  0.
    8880022    1    1    2    0    0 -0.23803980628E+03 -0.66808763111E+03  0.42150161866E+03  0.83908241536E+03  0.15294330000E+03 0.  0.
<mgrwt>
<rscale>  0 0.90060447E+03</rscale>
<asrwt>0</asrwt>
<pdfrwt beam="1">  1        2 0.42105804E+00 0.96789165E+03</pdfrwt>
<pdfrwt beam="2">  1       -2 0.49225733E-01 0.96789165E+03</pdfrwt>
<totfact> 0.10070482E+01</totfact>
</mgrwt>
</event>
<event>
 4    1  0.6502538E-008  0.1472223E+04  0.7818608E-02  0.8929504E-01
          2   -1    0    0  501    0  0.00000000000E+00  0.00000000000E+00  0.99800054165E+03  0.99800054165E+03  0.25500000000E-02 0. -1.
         -2   -1    0    0    0  501 -0.00000000000E+00 -0.00000000000E+00 -0.22611616834E+04  0.22611616835E+04  0.25500000000E-02 0.  1.
    8880023    1    1    2    0    0  0.52133384065E+03  0.12090658131E+04 -0.67050413717E+02  0.14737486482E+04  0.65864270000E+03 0.  0.
    8880022    1    1    2    0    0 -0.52133384065E+03 -0.12090658131E+04 -0.11961107281E+04  0.17854135769E+04  0.15294330000E+03 0.  0.
<mgrwt>
<rscale>  0 0.14340927E+04</rscale>
<asrwt>0</asrwt>
<pdfrwt beam="1">  1        2 0.15353855E+00 0.14722226E+04</pdfrwt>
<pdfrwt beam="2">  1       -2 0.34787103E+00 0.14722226E+04</pdfrwt>
<totfact> 0.38592740E-01</totfact>
</mgrwt>
</event>
<event>
 4    1  0.6502538E-008  0.9009513E+03  0.7818608E-02  0.9524506E-01
         -2   -1    0    0    0  501 -0.00000000000E+00  0.00000000000E+00  0.17334782209E+04  0.17334782209E+04  0.25500000000E-02 0.  1.
          2   -1    0    0  501    0  0.00000000000E+00 -0.00000000000E+00 -0.11856089627E+04  0.11856089627E+04  0.25500000000E-02 0. -1.
    8880023    1    1    2    0    0  0.15817515372E+03 -0.59404014481E+03 -0.93995962414E+03  0.13020128164E+04  0.65864270000E+03 0. -1.
    8880022    1    1    2    0    0 -0.15817515372E+03  0.59404014481E+03  0.14878288824E+04  0.16170743672E+04  0.15294330000E+03 0.  0.
<mgrwt>
<rscale>  0 0.82500945E+03</rscale>
<asrwt>0</asrwt>
<pdfrwt beam="1">  1        2 0.18240138E+00 0.90095132E+03</pdfrwt>
<pdfrwt beam="2">  1       -2 0.26668896E+00 0.90095132E+03</pdfrwt>
<totfact> 0.99469263E-01</totfact>
</mgrwt>
</event>
<event>
 4    1  0.6502538E-008  0.7513689E+03  0.7818608E-02  0.9827988E-01
          2   -1    0    0  501    0  0.00000000000E+00  0.00000000000E+00  0.84095850774E+03  0.84095850775E+03  0.25500000000E-02 0. -1.
         -2   -1    0    0    0  501 -0.00000000000E+00 -0.00000000000E+00 -0.15220739903E+04  0.15220739903E+04  0.25500000000E-02 0.  1.
    8880023    1    1    2    0    0  0.11975106627E+02 -0.36138852744E+03  0.63864442411E+03  0.98611458648E+03  0.65864270000E+03 0.  0.
    8880022    1    1    2    0    0 -0.11975106627E+02  0.36138852744E+03 -0.13197599067E+04  0.13769179116E+04  0.15294330000E+03 0.  0.
<mgrwt>
<rscale>  0 0.63881954E+03</rscale>
<asrwt>0</asrwt>
<pdfrwt beam="1">  1        2 0.12937823E+00 0.75136894E+03</pdfrwt>
<pdfrwt beam="2">  1       -2 0.23416523E+00 0.75136894E+03</pdfrwt>
<totfact> 0.26671400E+00</totfact>
</mgrwt>
</event>
<event>
 4    1  0.6502538E-008  0.8788180E+03  0.7818608E-02  0.9560929E-01
          2   -1    0    0  501    0  0.00000000000E+00  0.00000000000E+00  0.25631620919E+04  0.25631620919E+04  0.25500000000E-02 0. -1.
         -2   -1    0    0    0  501 -0.00000000000E+00 -0.00000000000E+00 -0.37715880862E+03  0.37715880863E+03  0.25500000000E-02 0.  1.
    8880023    1    1    2    0    0 -0.36721529812E+03 -0.45129131186E+03  0.21670189963E+04  0.23384380385E+04  0.65864270000E+03 0. -1.
    8880022    1    1    2    0    0  0.36721529812E+03  0.45129131186E+03  0.18984286899E+02  0.60188286194E+03  0.15294330000E+03 0.  0.
<mgrwt>
<rscale>  0 0.79937061E+03</rscale>
<asrwt>0</asrwt>
<pdfrwt beam="1">  1        2 0.39433264E+00 0.87881803E+03</pdfrwt>
<pdfrwt beam="2">  1       -2 0.58024430E-01 0.87881803E+03</pdfrwt>
<totfact> 0.91533354E+00</totfact>
</mgrwt>
</event>
<event>
 4    1  0.6502538E-008  0.9616258E+03  0.7818608E-02  0.9433581E-01
         -2   -1    0    0    0  501 -0.00000000000E+00  0.00000000000E+00  0.76760918430E+03  0.76760918431E+03  0.25500000000E-02 0.  1.
          2   -1    0    0  501    0  0.00000000000E+00 -0.00000000000E+00 -0.96605666242E+03  0.96605666242E+03  0.25500000000E-02 0. -1.
    8880023    1    1    2    0    0  0.67882980886E+03 -0.17350504112E+03 -0.30456969091E+03  0.10087055128E+04  0.65864270000E+03 0.  0.
    8880022    1    1    2    0    0 -0.67882980886E+03  0.17350504112E+03  0.10612221279E+03  0.72496033392E+03  0.15294330000E+03 0.  0.
<mgrwt>
<rscale>  0 0.89362893E+03</rscale>
<asrwt>0</asrwt>
<pdfrwt beam="1">  1        2 0.14862410E+00 0.96162577E+03</pdfrwt>
<pdfrwt beam="2">  1       -2 0.11809372E+00 0.96162577E+03</pdfrwt>
<totfact> 0.14581721E+01</totfact>
</mgrwt>
</event>
<event>
 4    1  0.6502538E-008  0.6622915E+03  0.7818608E-02  0.1021923E+00
          2   -1    0    0  501    0  0.00000000000E+00  0.00000000000E+00  0.45064534917E+03  0.45064534918E+03  0.25500000000E-02 0. -1.
         -2   -1    0    0    0  501 -0.00000000000E+00 -0.00000000000E+00 -0.28429440188E+04  0.28429440188E+04  0.25500000000E-02 0.  1.
    8880023    1    1    2    0    0 -0.66178044121E+02 -0.20982459421E+02  0.20312172053E+03  0.69273980450E+03  0.65864270000E+03 0. -1.
    8880022    1    1    2    0    0  0.66178044121E+02  0.20982459421E+02 -0.25954203902E+04  0.26008495635E+04  0.15294330000E+03 0.  0.
<mgrwt>
<rscale>  0 0.46999155E+03</rscale>
<asrwt>0</asrwt>
<pdfrwt beam="1">  1        2 0.69330056E-01 0.66229148E+03</pdfrwt>
<pdfrwt beam="2">  1       -2 0.43737599E+00 0.66229148E+03</pdfrwt>
<totfact> 0.31747854E-01</totfact>
</mgrwt>
</event>
<event>
 4    1  0.6502538E-008  0.8421753E+03  0.7818608E-02  0.9626092E-01
          2   -1    0    0  501    0  0.00000000000E+00  0.00000000000E+00  0.20929508930E+04  0.20929508930E+04  0.25500000000E-02 0. -1.
         -2   -1    0    0    0  501 -0.00000000000E+00 -0.00000000000E+00 -0.35085949053E+03  0.35085949054E+03  0.25500000000E-02 0.  1.
    8880023    1    1    2    0    0  0.52374563477E+03  0.33757558555E+02  0.16979907414E+04  0.18953711581E+04  0.65864270000E+03 0.  0.
    8880022    1    1    2    0    0 -0.52374563477E+03 -0.33757558555E+02  0.44100661043E+02  0.54843922545E+03  0.15294330000E+03 0.  0.
<mgrwt>
<rscale>  0 0.75593047E+03</rscale>
<asrwt>0</asrwt>
<pdfrwt beam="1">  1        2 0.32199244E+00 0.84217532E+03</pdfrwt>
<pdfrwt beam="2">  1       -2 0.53978383E-01 0.84217532E+03</pdfrwt>
<totfact> 0.19617024E+01</totfact>
</mgrwt>
</event>
<event>
 4    1  0.6502538E-008  0.9683733E+03  0.7818608E-02  0.9424158E-01
          2   -1    0    0  501    0  0.00000000000E+00  0.00000000000E+00  0.24306824492E+04  0.24306824492E+04  0.25500000000E-02 0. -1.
         -2   -1    0    0    0  501 -0.00000000000E+00 -0.00000000000E+00 -0.43728503983E+03  0.43728503983E+03  0.25500000000E-02 0.  1.
    8880023    1    1    2    0    0  0.29789237906E+03 -0.64435756912E+03  0.19042632250E+04  0.21363438821E+04  0.65864270000E+03 0. -1.
    8880022    1    1    2    0    0 -0.29789237906E+03  0.64435756912E+03  0.89134184416E+02  0.73162360694E+03  0.15294330000E+03 0.  0.
<mgrwt>
<rscale>  0 0.90113989E+03</rscale>
<asrwt>0</asrwt>
<pdfrwt beam="1">  1        2 0.37395115E+00 0.96837325E+03</pdfrwt>
<pdfrwt beam="2">  1       -2 0.67274622E-01 0.96837325E+03</pdfrwt>
<totfact> 0.78458492E+00</totfact>
</mgrwt>
</event>
<event>
 4    1  0.6502538E-008  0.7316378E+03  0.7818608E-02  0.9885011E-01
          2   -1    0    0  501    0  0.00000000000E+00  0.00000000000E+00  0.56628100540E+03  0.56628100541E+03  0.25500000000E-02 0. -1.
         -2   -1    0    0    0  501 -0.00000000000E+00 -0.00000000000E+00 -0.96175525371E+03  0.96175525371E+03  0.25500000000E-02 0.  1.
    8880023    1    1    2    0    0 -0.20415036806E+02  0.31791011838E+03  0.26566920010E+03  0.77837905113E+03  0.65864270000E+03 0.  0.
    8880022    1    1    2    0    0  0.20415036806E+02 -0.31791011838E+03 -0.66114344841E+03  0.74965720799E+03  0.15294330000E+03 0.  0.
<mgrwt>
<rscale>  0 0.60993231E+03</rscale>
<asrwt>0</asrwt>
<pdfrwt beam="1">  1        2 0.87120155E-01 0.73163777E+03</pdfrwt>
<pdfrwt beam="2">  1       -2 0.14796235E+00 0.73163777E+03</pdfrwt>
<totfact> 0.16779537E+01</totfact>
</mgrwt>
</event>
<event>
 4    1  0.6502538E-008  0.6949782E+03  0.7818608E-02  0.1001871E+00
          2   -1    0    0  501    0  0.00000000000E+00  0.00000000000E+00  0.12877577782E+04  0.12877577782E+04  0.25500000000E-02 0. -1.
         -2   -1    0    0    0  501 -0.00000000000E+00 -0.00000000000E+00 -0.39196801957E+03  0.39196801958E+03  0.25500000000E-02 0.  1.
    8880023    1    1    2    0    0 -0.20532586553E+03 -0.83819671419E+02  0.11274371522E+04  0.13244278715E+04  0.65864270000E+03 0.  0.
    8880022    1    1    2    0    0  0.20532586553E+03  0.83819671419E+02 -0.23164739365E+03  0.35529792621E+03  0.15294330000E+03 0.  0.
<mgrwt>
<rscale>  0 0.54837491E+03</rscale>
<asrwt>0</asrwt>
<pdfrwt beam="1">  1        2 0.19811658E+00 0.69497817E+03</pdfrwt>
<pdfrwt beam="2">  1       -2 0.60302772E-01 0.69497817E+03</pdfrwt>
<totfact> 0.44141791E+01</totfact>
</mgrwt>
</event>
<event>
 4    1  0.6502538E-008  0.1278800E+04  0.7818608E-02  0.9084087E-01
         -2   -1    0    0    0  501 -0.00000000000E+00  0.00000000000E+00  0.18238841800E+04  0.18238841800E+04  0.25500000000E-02 0.  1.
          2   -1    0    0  501    0  0.00000000000E+00 -0.00000000000E+00 -0.11890315924E+04  0.11890315924E+04  0.25500000000E-02 0. -1.
    8880023    1    1    2    0    0 -0.79532601867E+03 -0.75430480296E+03 -0.54955854054E+03  0.13918850554E+04  0.65864270000E+03 0.  0.
    8880022    1    1    2    0    0  0.79532601867E+03  0.75430480296E+03  0.11844111282E+04  0.16210307170E+04  0.15294330000E+03 0.  0.
<mgrwt>
<rscale>  0 0.12334315E+04</rscale>
<asrwt>0</asrwt>
<pdfrwt beam="1">  1        2 0.18292794E+00 0.12788000E+04</pdfrwt>
<pdfrwt beam="2">  1       -2 0.28059756E+00 0.12788000E+04</pdfrwt>
<totfact> 0.77580250E-01</totfact>
</mgrwt>
</event>
<event>
 4    1  0.6502538E-008  0.7165384E+03  0.7818608E-02  0.9934478E-01
         -2   -1    0    0    0  501 -0.00000000000E+00  0.00000000000E+00  0.10010714379E+04  0.10010714379E+04  0.25500000000E-02 0.  1.
          2   -1    0    0  501    0  0.00000000000E+00 -0.00000000000E+00 -0.34007301063E+03  0.34007301064E+03  0.25500000000E-02 0. -1.
    8880023    1    1    2    0    0  0.27369616552E+03 -0.68611532629E+02  0.14131276671E+03  0.73034008361E+03  0.65864270000E+03 0.  0.
    8880022    1    1    2    0    0 -0.27369616552E+03  0.68611532629E+02  0.51968566060E+03  0.61080436498E+03  0.15294330000E+03 0.  0.
<mgrwt>
<rscale>  0 0.58619067E+03</rscale>
<asrwt>0</asrwt>
<pdfrwt beam="1">  1        2 0.52318924E-01 0.71653844E+03</pdfrwt>
<pdfrwt beam="2">  1       -2 0.15401099E+00 0.71653844E+03</pdfrwt>
<totfact> 0.27056591E+01</totfact>
</mgrwt>
</event>
<event>
 4    1  0.6502538E-008  0.6773811E+03  0.7818608E-02  0.1010846E+00
          2   -1    0    0  501    0  0.00000000000E+00  0.00000000000E+00  0.26234944883E+04  0.26234944883E+04  0.25500000000E-02 0. -1.
         -2   -1    0    0    0  501 -0.00000000000E+00 -0.00000000000E+00 -0.78191314561E+02  0.78191314603E+02  0.25500000000E-02 0.  1.
    8880023    1    1    2    0    0  0.15718456554E+03 -0.18110552532E+02  0.20675816435E+04  0.21757157532E+04  0.65864270000E+03 0. -1.
    8880022    1    1    2    0    0 -0.15718456554E+03  0.18110552532E+02  0.47772153022E+03  0.52597004972E+03  0.15294330000E+03 0.  1.
<mgrwt>
<rscale>  0 0.51139956E+03</rscale>
<asrwt>0</asrwt>
<pdfrwt beam="1">  1        2 0.40361448E+00 0.67738112E+03</pdfrwt>
<pdfrwt beam="2">  1       -2 0.12029435E-01 0.67738112E+03</pdfrwt>
<totfact> 0.15696822E+02</totfact>
</mgrwt>
</event>
<event>
 4    1  0.6502538E-008  0.1063505E+04  0.7818608E-02  0.9302820E-01
          2   -1    0    0  501    0  0.00000000000E+00  0.00000000000E+00  0.28485039170E+04  0.28485039170E+04  0.25500000000E-02 0. -1.
         -2   -1    0    0    0  501 -0.00000000000E+00 -0.00000000000E+00 -0.41758449954E+03  0.41758449954E+03  0.25500000000E-02 0.  1.
    8880023    1    1    2    0    0 -0.63393325390E+03  0.54347082343E+03  0.21019459560E+04  0.23556780159E+04  0.65864270000E+03 0. -1.
    8880022    1    1    2    0    0  0.63393325390E+03 -0.54347082343E+03  0.32897346151E+03  0.91041040070E+03  0.15294330000E+03 0.  0.
<mgrwt>
<rscale>  0 0.10052361E+04</rscale>
<asrwt>0</asrwt>
<pdfrwt beam="1">  1        2 0.43823136E+00 0.10635046E+04</pdfrwt>
<pdfrwt beam="2">  1       -2 0.64243771E-01 0.10635046E+04</pdfrwt>
<totfact> 0.48860136E+00</totfact>
</mgrwt>
</event>
<event>
 4    1  0.6502538E-008  0.7907628E+03  0.7818608E-02  0.9731137E-01
         -2   -1    0    0    0  501 -0.00000000000E+00  0.00000000000E+00  0.64561087605E+03  0.64561087606E+03  0.25500000000E-02 0.  1.
          2   -1    0    0  501    0  0.00000000000E+00 -0.00000000000E+00 -0.70386378880E+03  0.70386378881E+03  0.25500000000E-02 0. -1.
    8880023    1    1    2    0    0  0.84144812156E+02 -0.42943598322E+03  0.20429736916E+03  0.81672714808E+03  0.65864270000E+03 0.  1.
    8880022    1    1    2    0    0 -0.84144812156E+02  0.42943598322E+03 -0.26255028192E+03  0.53274751679E+03  0.15294330000E+03 0. -1.
<mgrwt>
<rscale>  0 0.69192817E+03</rscale>
<asrwt>0</asrwt>
<pdfrwt beam="1">  1        2 0.10828674E+00 0.79076281E+03</pdfrwt>
<pdfrwt beam="2">  1       -2 0.99324750E-01 0.79076281E+03</pdfrwt>
<totfact> 0.34492727E+01</totfact>
</mgrwt>
</event>
<event>
 4    1  0.6502538E-008  0.8930883E+03  0.7818608E-02  0.9537219E-01
          2   -1    0    0  501    0  0.00000000000E+00  0.00000000000E+00  0.29191619722E+04  0.29191619722E+04  0.25500000000E-02 0. -1.
         -2   -1    0    0    0  501 -0.00000000000E+00 -0.00000000000E+00 -0.24307916025E+03  0.24307916026E+03  0.25500000000E-02 0.  1.
    8880023    1    1    2    0    0  0.60003120515E+03  0.61310726608E+02  0.22135317195E+04  0.23869079018E+04  0.65864270000E+03 0.  0.
    8880022    1    1    2    0    0 -0.60003120515E+03 -0.61310726608E+02  0.46255109241E+03  0.77533323059E+03  0.15294330000E+03 0.  0.
<mgrwt>
<rscale>  0 0.81594529E+03</rscale>
<asrwt>0</asrwt>
<pdfrwt beam="1">  1        2 0.44910184E+00 0.89308827E+03</pdfrwt>
<pdfrwt beam="2">  1       -2 0.37396794E-01 0.89308827E+03</pdfrwt>
<totfact> 0.13652901E+01</totfact>
</mgrwt>
</event>
<event>
 4    1  0.6502538E-008  0.9537448E+03  0.7818608E-02  0.9444746E-01
          2   -1    0    0  501    0  0.00000000000E+00  0.00000000000E+00  0.28701811899E+04  0.28701811899E+04  0.25500000000E-02 0. -1.
         -2   -1    0    0    0  501 -0.00000000000E+00 -0.00000000000E+00 -0.35799661716E+03  0.35799661717E+03  0.25500000000E-02 0.  1.
    8880023    1    1    2    0    0 -0.50369966223E+03  0.47128088888E+03  0.23008652297E+04  0.24907047270E+04  0.65864270000E+03 0. -1.
    8880022    1    1    2    0    0  0.50369966223E+03 -0.47128088888E+03  0.21131934303E+03  0.73747307999E+03  0.15294330000E+03 0.  0.
<mgrwt>
<rscale>  0 0.88482959E+03</rscale>
<asrwt>0</asrwt>
<pdfrwt beam="1">  1        2 0.44156636E+00 0.95374485E+03</pdfrwt>
<pdfrwt beam="2">  1       -2 0.55076400E-01 0.95374485E+03</pdfrwt>
<totfact> 0.66683663E+00</totfact>
</mgrwt>
</event>
<event>
 4    1  0.6502538E-008  0.7172431E+03  0.7818608E-02  0.9932027E-01
         -2   -1    0    0    0  501 -0.00000000000E+00  0.00000000000E+00  0.38343491060E+03  0.38343491061E+03  0.25500000000E-02 0.  1.
          2   -1    0    0  501    0  0.00000000000E+00 -0.00000000000E+00 -0.28405905261E+04  0.28405905261E+04  0.25500000000E-02 0. -1.
    8880023    1    1    2    0    0 -0.28394157005E+03 -0.21544891154E+01 -0.27168606149E+04  0.28099411496E+04  0.65864270000E+03 0. -1.
    8880022    1    1    2    0    0  0.28394157005E+03  0.21544891154E+01  0.25970499947E+03  0.41408428707E+03  0.15294330000E+03 0.  0.
<mgrwt>
<rscale>  0 0.58733912E+03</rscale>
<asrwt>0</asrwt>
<pdfrwt beam="1">  1        2 0.43701391E+00 0.71724310E+03</pdfrwt>
<pdfrwt beam="2">  1       -2 0.58989988E-01 0.71724310E+03</pdfrwt>
<totfact> 0.62559683E+00</totfact>
</mgrwt>
</event>
<event>
 4    1  0.6502538E-008  0.1177210E+04  0.7818608E-02  0.9179600E-01
         -2   -1    0    0    0  501 -0.00000000000E+00  0.00000000000E+00  0.10181793922E+04  0.10181793922E+04  0.25500000000E-02 0.  1.
          2   -1    0    0  501    0  0.00000000000E+00 -0.00000000000E+00 -0.35686101179E+04  0.35686101179E+04  0.25500000000E-02 0. -1.
    8880023    1    1    2    0    0  0.80199860783E+03 -0.55570877954E+03 -0.31966571935E+04  0.34065292357E+04  0.65864270000E+03 0.  0.
    8880022    1    1    2    0    0 -0.80199860783E+03  0.55570877954E+03  0.64622646786E+03  0.11802602744E+04  0.15294330000E+03 0.  0.
<mgrwt>
<rscale>  0 0.11266492E+04</rscale>
<asrwt>0</asrwt>
<pdfrwt beam="1">  1        2 0.54901694E+00 0.11772104E+04</pdfrwt>
<pdfrwt beam="2">  1       -2 0.15664298E+00 0.11772104E+04</pdfrwt>
<totfact> 0.19393977E-01</totfact>
</mgrwt>
</event>
<event>
 4    1  0.6502538E-008  0.1232041E+04  0.7818608E-02  0.9126589E-01
          2   -1    0    0  501    0  0.00000000000E+00  0.00000000000E+00  0.43068968488E+04  0.43068968488E+04  0.25500000000E-02 0. -1.
         -2   -1    0    0    0  501 -0.00000000000E+00 -0.00000000000E+00 -0.46784768550E+03  0.46784768551E+03  0.25500000000E-02 0.  1.
    8880023    1    1    2    0    0  0.46493978417E+03  0.93163565780E+03  0.34319001084E+04  0.36463492101E+04  0.65864270000E+03 0.  0.
    8880022    1    1    2    0    0 -0.46493978417E+03 -0.93163565780E+03  0.40714905494E+03  0.11283953242E+04  0.15294330000E+03 0.  0.
<mgrwt>
<rscale>  0 0.11844372E+04</rscale>
<asrwt>0</asrwt>
<pdfrwt beam="1">  1        2 0.66259952E+00 0.12320407E+04</pdfrwt>
<pdfrwt beam="2">  1       -2 0.71976567E-01 0.12320407E+04</pdfrwt>
<totfact> 0.33415598E-01</totfact>
</mgrwt>
</event>
<event>
 4    1  0.6502538E-008  0.6685947E+03  0.7818608E-02  0.1016691E+00
         -2   -1    0    0    0  501 -0.00000000000E+00  0.00000000000E+00  0.17668250458E+03  0.17668250460E+03  0.25500000000E-02 0.  1.
          2   -1    0    0  501    0  0.00000000000E+00 -0.00000000000E+00 -0.25253393866E+04  0.25253393866E+04  0.25500000000E-02 0. -1.
    8880023    1    1    2    0    0  0.11417320249E+03 -0.13158519984E+02 -0.24100725979E+04  0.25010935209E+04  0.65864270000E+03 0. -1.
    8880022    1    1    2    0    0 -0.11417320249E+03  0.13158519984E+02  0.61415715897E+02  0.20092837029E+03  0.15294330000E+03 0.  0.
<mgrwt>
<rscale>  0 0.48899882E+03</rscale>
<asrwt>0</asrwt>
<pdfrwt beam="1">  1        2 0.38851373E+00 0.66859470E+03</pdfrwt>
<pdfrwt beam="2">  1       -2 0.27181925E-01 0.66859470E+03</pdfrwt>
<totfact> 0.43666484E+01</totfact>
</mgrwt>
</event>
<event>
 4    1  0.6502538E-008  0.7863511E+03  0.7818608E-02  0.9741124E-01
         -2   -1    0    0    0  501 -0.00000000000E+00  0.00000000000E+00  0.55689139465E+03  0.55689139466E+03  0.25500000000E-02 0.  1.
          2   -1    0    0  501    0  0.00000000000E+00 -0.00000000000E+00 -0.12425018138E+04  0.12425018138E+04  0.25500000000E-02 0. -1.
    8880023    1    1    2    0    0  0.17986652547E+03  0.39011005578E+03 -0.98010965957E+03  0.12565679344E+04  0.65864270000E+03 0.  0.
    8880022    1    1    2    0    0 -0.17986652547E+03 -0.39011005578E+03  0.29449924040E+03  0.54282527412E+03  0.15294330000E+03 0.  0.
<mgrwt>
<rscale>  0 0.68620183E+03</rscale>
<asrwt>0</asrwt>
<pdfrwt beam="1">  1        2 0.19115413E+00 0.78635108E+03</pdfrwt>
<pdfrwt beam="2">  1       -2 0.85675599E-01 0.78635108E+03</pdfrwt>
<totfact> 0.21475705E+01</totfact>
</mgrwt>
</event>
<event>
 4    1  0.6502538E-008  0.1105325E+04  0.7818608E-02  0.9255150E-01
          2   -1    0    0  501    0  0.00000000000E+00  0.00000000000E+00  0.11704487408E+04  0.11704487408E+04  0.25500000000E-02 0. -1.
         -2   -1    0    0    0  501 -0.00000000000E+00 -0.00000000000E+00 -0.12564146934E+04  0.12564146934E+04  0.25500000000E-02 0.  1.
    8880023    1    1    2    0    0  0.61754922420E+03 -0.63762598089E+03  0.63355644699E+03  0.12740242987E+04  0.65864270000E+03 0.  0.
    8880022    1    1    2    0    0 -0.61754922420E+03  0.63762598089E+03 -0.71952239957E+03  0.11528391355E+04  0.15294330000E+03 0.  0.
<mgrwt>
<rscale>  0 0.10501879E+04</rscale>
<asrwt>0</asrwt>
<pdfrwt beam="1">  1        2 0.18006904E+00 0.11053254E+04</pdfrwt>
<pdfrwt beam="2">  1       -2 0.19329457E+00 0.11053254E+04</pdfrwt>
<totfact> 0.28502438E+00</totfact>
</mgrwt>
</event>
<event>
 4    1  0.6502538E-008  0.8137051E+03  0.7818608E-02  0.9681910E-01
         -2   -1    0    0    0  501 -0.00000000000E+00  0.00000000000E+00  0.10441674415E+04  0.10441674415E+04  0.25500000000E-02 0.  1.
          2   -1    0    0  501    0  0.00000000000E+00 -0.00000000000E+00 -0.47258541486E+03  0.47258541487E+03  0.25500000000E-02 0. -1.
    8880023    1    1    2    0    0 -0.24455991512E+03  0.41048300714E+03  0.85470783405E+02  0.81818171106E+03  0.65864270000E+03 0.  0.
    8880022    1    1    2    0    0  0.24455991512E+03 -0.41048300714E+03  0.48611124322E+03  0.69857114529E+03  0.15294330000E+03 0.  0.
<mgrwt>
<rscale>  0 0.72104133E+03</rscale>
<asrwt>0</asrwt>
<pdfrwt beam="1">  1        2 0.72705449E-01 0.81370514E+03</pdfrwt>
<pdfrwt beam="2">  1       -2 0.16064114E+00 0.81370514E+03</pdfrwt>
<totfact> 0.16522521E+01</totfact>
</mgrwt>
</event>
<event>
 4    1  0.6502538E-008  0.1130069E+04  0.7818608E-02  0.9228294E-01
         -2   -1    0    0    0  501 -0.00000000000E+00  0.00000000000E+00  0.87408730383E+03  0.87408730383E+03  0.25500000000E-02 0.  1.
          2   -1    0    0  501    0  0.00000000000E+00 -0.00000000000E+00 -0.17039256141E+04  0.17039256141E+04  0.25500000000E-02 0. -1.
    8880023    1    1    2    0    0 -0.17816411944E+03 -0.90083450165E+03 -0.11317488715E+04  0.15993470440E+04  0.65864270000E+03 0.  0.
    8880022    1    1    2    0    0  0.17816411944E+03  0.90083450165E+03  0.30191056120E+03  0.97866587393E+03  0.15294330000E+03 0.  0.
<mgrwt>
<rscale>  0 0.10766097E+04</rscale>
<asrwt>0</asrwt>
<pdfrwt beam="1">  1        2 0.26214240E+00 0.11300688E+04</pdfrwt>
<pdfrwt beam="2">  1       -2 0.13447497E+00 0.11300688E+04</pdfrwt>
<totfact> 0.38122915E+00</totfact>
</mgrwt>
</event>
<event>
 4    1  0.6502538E-008  0.1554935E+04  0.7818608E-02  0.8871788E-01
         -2   -1    0    0    0  501 -0.00000000000E+00  0.00000000000E+00  0.17284281141E+04  0.17284281142E+04  0.25500000000E-02 0.  1.
          2   -1    0    0  501    0  0.00000000000E+00 -0.00000000000E+00 -0.27879086145E+04  0.27879086145E+04  0.25500000000E-02 0. -1.
    8880023    1    1    2    0    0 -0.11127729147E+04  0.86356851421E+03 -0.22023947749E+04  0.26959909290E+04  0.65864270000E+03 0. -1.
    8880022    1    1    2    0    0  0.11127729147E+04 -0.86356851421E+03  0.11429142745E+04  0.18203457997E+04  0.15294330000E+03 0.  0.
<mgrwt>
<rscale>  0 0.15191955E+04</rscale>
<asrwt>0</asrwt>
<pdfrwt beam="1">  1        2 0.42890902E+00 0.15549355E+04</pdfrwt>
<pdfrwt beam="2">  1       -2 0.26591202E+00 0.15549355E+04</pdfrwt>
<totfact> 0.11257120E-01</totfact>
</mgrwt>
</event>
<event>
 4    1  0.6502538E-008  0.8985206E+03  0.7818608E-02  0.9528411E-01
          2   -1    0    0  501    0  0.00000000000E+00  0.00000000000E+00  0.11958700246E+04  0.11958700246E+04  0.25500000000E-02 0. -1.
         -2   -1    0    0    0  501 -0.00000000000E+00 -0.00000000000E+00 -0.69567181958E+03  0.69567181959E+03  0.25500000000E-02 0.  1.
    8880023    1    1    2    0    0  0.14119784375E+03  0.59463629160E+03  0.79151957214E+03  0.11974316639E+04  0.65864270000E+03 0.  0.
    8880022    1    1    2    0    0 -0.14119784375E+03 -0.59463629160E+03 -0.29132136716E+03  0.69411018026E+03  0.15294330000E+03 0.  0.
<mgrwt>
<rscale>  0 0.82221241E+03</rscale>
<asrwt>0</asrwt>
<pdfrwt beam="1">  1        2 0.18398000E+00 0.89852065E+03</pdfrwt>
<pdfrwt beam="2">  1       -2 0.10702643E+00 0.89852065E+03</pdfrwt>
<totfact> 0.13414400E+01</totfact>
</mgrwt>
</event>
<event>
 4    1  0.6502538E-008  0.6699480E+03  0.7818608E-02  0.1015700E+00
          2   -1    0    0  501    0  0.00000000000E+00  0.00000000000E+00  0.25872326151E+04  0.25872326151E+04  0.25500000000E-02 0. -1.
         -2   -1    0    0    0  501 -0.00000000000E+00 -0.00000000000E+00 -0.28877448601E+03  0.28877448602E+03  0.25500000000E-02 0.  1.
    8880023    1    1    2    0    0 -0.15120773496E+02  0.12162004574E+03  0.25039572406E+04  0.25920324347E+04  0.65864270000E+03 0. -1.
    8880022    1    1    2    0    0  0.15120773496E+02 -0.12162004574E+03 -0.20549911154E+03  0.28397466643E+03  0.15294330000E+03 0.  0.
<mgrwt>
<rscale>  0 0.49270706E+03</rscale>
<asrwt>0</asrwt>
<pdfrwt beam="1">  1        2 0.39803581E+00 0.66994797E+03</pdfrwt>
<pdfrwt beam="2">  1       -2 0.44426841E-01 0.66994797E+03</pdfrwt>
<totfact> 0.15822913E+01</totfact>
</mgrwt>
</event>
<event>
 4    1  0.6502538E-008  0.7344178E+03  0.7818608E-02  0.9876517E-01
         -2   -1    0    0    0  501 -0.00000000000E+00  0.00000000000E+00  0.70546430384E+03  0.70546430384E+03  0.25500000000E-02 0.  1.
          2   -1    0    0  501    0  0.00000000000E+00 -0.00000000000E+00 -0.12852289165E+04  0.12852289165E+04  0.25500000000E-02 0. -1.
    8880023    1    1    2    0    0 -0.32199262581E+03  0.43358721636E+02 -0.11216060503E+04  0.13406601240E+04  0.65864270000E+03 0.  0.
    8880022    1    1    2    0    0  0.32199262581E+03 -0.43358721636E+02  0.54184143761E+03  0.65003309634E+03  0.15294330000E+03 0.  0.
<mgrwt>
<rscale>  0 0.61413014E+03</rscale>
<asrwt>0</asrwt>
<pdfrwt beam="1">  1        2 0.19772753E+00 0.73441775E+03</pdfrwt>
<pdfrwt beam="2">  1       -2 0.10853297E+00 0.73441775E+03</pdfrwt>
<totfact> 0.11708025E+01</totfact>
</mgrwt>
</event>
<event>
 4    1  0.6502538E-008  0.8799187E+03  0.7818608E-02  0.9559069E-01
         -2   -1    0    0    0  501 -0.00000000000E+00  0.00000000000E+00  0.10831986325E+04  0.10831986325E+04  0.25500000000E-02 0.  1.
          2   -1    0    0  501    0  0.00000000000E+00 -0.00000000000E+00 -0.70771606577E+03  0.70771606578E+03  0.25500000000E-02 0. -1.
    8880023    1    1    2    0    0 -0.27709348892E+03 -0.51348415742E+03 -0.25723358894E+03  0.91674756998E+03  0.65864270000E+03 0. -1.
    8880022    1    1    2    0    0  0.27709348892E+03  0.51348415742E+03  0.63271615564E+03  0.87416712827E+03  0.15294330000E+03 0.  0.
<mgrwt>
<rscale>  0 0.80065514E+03</rscale>
<asrwt>0</asrwt>
<pdfrwt beam="1">  1        2 0.10887940E+00 0.87991874E+03</pdfrwt>
<pdfrwt beam="2">  1       -2 0.16664594E+00 0.87991874E+03</pdfrwt>
<totfact> 0.91303387E+00</totfact>
</mgrwt>
</event>
<event>
 4    1  0.6502538E-008  0.1092136E+04  0.7818608E-02  0.9269863E-01
         -2   -1    0    0    0  501 -0.00000000000E+00  0.00000000000E+00  0.12746831794E+04  0.12746831794E+04  0.25500000000E-02 0.  1.
          2   -1    0    0  501    0  0.00000000000E+00 -0.00000000000E+00 -0.21876786953E+04  0.21876786953E+04  0.25500000000E-02 0. -1.
    8880023    1    1    2    0    0 -0.65998177615E+02 -0.86867407167E+03 -0.18660234114E+04  0.21621295013E+04  0.65864270000E+03 0.  0.
    8880022    1    1    2    0    0  0.65998177615E+02  0.86867407167E+03  0.95302789550E+03  0.13002323734E+04  0.15294330000E+03 0.  0.
<mgrwt>
<rscale>  0 0.10360532E+04</rscale>
<asrwt>0</asrwt>
<pdfrwt beam="1">  1        2 0.33656595E+00 0.10921358E+04</pdfrwt>
<pdfrwt beam="2">  1       -2 0.19610511E+00 0.10921358E+04</pdfrwt>
<totfact> 0.73094794E-01</totfact>
</mgrwt>
</event>
<event>
 4    1  0.6502538E-008  0.8104690E+03  0.7818608E-02  0.9688601E-01
          2   -1    0    0  501    0  0.00000000000E+00  0.00000000000E+00  0.18793762067E+04  0.18793762067E+04  0.25500000000E-02 0. -1.
         -2   -1    0    0    0  501 -0.00000000000E+00 -0.00000000000E+00 -0.71079548041E+03  0.71079548042E+03  0.25500000000E-02 0.  1.
    8880023    1    1    2    0    0  0.20333630675E+03 -0.42626761663E+03  0.16875005402E+04  0.18720357940E+04  0.65864270000E+03 0. -1.
    8880022    1    1    2    0    0 -0.20333630675E+03  0.42626761663E+03 -0.51891981394E+03  0.71813589309E+03  0.15294330000E+03 0.  0.
<mgrwt>
<rscale>  0 0.71699561E+03</rscale>
<asrwt>0</asrwt>
<pdfrwt beam="1">  1        2 0.28913480E+00 0.81046896E+03</pdfrwt>
<pdfrwt beam="2">  1       -2 0.10935315E+00 0.81046896E+03</pdfrwt>
<totfact> 0.53187551E+00</totfact>
</mgrwt>
</event>
<event>
 4    1  0.6502538E-008  0.1056513E+04  0.7818608E-02  0.9311093E-01
         -2   -1    0    0    0  501 -0.00000000000E+00  0.00000000000E+00  0.64812360974E+03  0.64812360974E+03  0.25500000000E-02 0.  1.
          2   -1    0    0  501    0  0.00000000000E+00 -0.00000000000E+00 -0.37774336193E+04  0.37774336193E+04  0.25500000000E-02 0. -1.
    8880023    1    1    2    0    0 -0.58860719943E+03  0.57961252251E+03 -0.33860779297E+04  0.35470752831E+04  0.65864270000E+03 0. -1.
    8880022    1    1    2    0    0  0.58860719943E+03 -0.57961252251E+03  0.25676792019E+03  0.87848194593E+03  0.15294330000E+03 0.  0.
<mgrwt>
<rscale>  0 0.99768017E+03</rscale>
<asrwt>0</asrwt>
<pdfrwt beam="1">  1        2 0.58114362E+00 0.10565128E+04</pdfrwt>
<pdfrwt beam="2">  1       -2 0.99711327E-01 0.10565128E+04</pdfrwt>
<totfact> 0.43840775E-01</totfact>
</mgrwt>
</event>
<event>
 4    1  0.6502538E-008  0.8666091E+03  0.7818608E-02  0.9581914E-01
          2   -1    0    0  501    0  0.00000000000E+00  0.00000000000E+00  0.10840951074E+04  0.10840951074E+04  0.25500000000E-02 0. -1.
         -2   -1    0    0    0  501 -0.00000000000E+00 -0.00000000000E+00 -0.74629408789E+03  0.74629408789E+03  0.25500000000E-02 0.  1.
    8880023    1    1    2    0    0 -0.54235488110E+03 -0.15182983545E+03 -0.34447399625E+03  0.93256295034E+03  0.65864270000E+03 0.  1.
    8880022    1    1    2    0    0  0.54235488110E+03  0.15182983545E+03  0.68227501577E+03  0.89782624496E+03  0.15294330000E+03 0.  0.
<mgrwt>
<rscale>  0 0.78504917E+03</rscale>
<asrwt>0</asrwt>
<pdfrwt beam="1">  1        2 0.16678386E+00 0.86660909E+03</pdfrwt>
<pdfrwt beam="2">  1       -2 0.11481447E+00 0.86660909E+03</pdfrwt>
<totfact> 0.13262238E+01</totfact>
</mgrwt>
</event>
<event>
 4    1  0.6502538E-008  0.7071336E+03  0.7818608E-02  0.9968803E-01
         -2   -1    0    0    0  501 -0.00000000000E+00  0.00000000000E+00  0.49173167441E+03  0.49173167442E+03  0.25500000000E-02 0.  1.
          2   -1    0    0  501    0  0.00000000000E+00 -0.00000000000E+00 -0.84650859530E+03  0.84650859530E+03  0.25500000000E-02 0. -1.
    8880023    1    1    2    0    0 -0.15873766390E+03  0.20255870100E+03 -0.61836566327E+03  0.93936892277E+03  0.65864270000E+03 0.  0.
    8880022    1    1    2    0    0  0.15873766390E+03 -0.20255870100E+03  0.26358874238E+03  0.39887134695E+03  0.15294330000E+03 0.  0.
<mgrwt>
<rscale>  0 0.57039577E+03</rscale>
<asrwt>0</asrwt>
<pdfrwt beam="1">  1        2 0.13023209E+00 0.70713357E+03</pdfrwt>
<pdfrwt beam="2">  1       -2 0.75651027E-01 0.70713357E+03</pdfrwt>
<totfact> 0.50879116E+01</totfact>
</mgrwt>
</event>
<event>
 4    1  0.6502538E-008  0.9604946E+03  0.7818608E-02  0.9435173E-01
         -2   -1    0    0    0  501 -0.00000000000E+00  0.00000000000E+00  0.24558413445E+04  0.24558413445E+04  0.25500000000E-02 0.  1.
          2   -1    0    0  501    0  0.00000000000E+00 -0.00000000000E+00 -0.59817701273E+03  0.59817701274E+03  0.25500000000E-02 0. -1.
    8880023    1    1    2    0    0 -0.66834210696E+03 -0.20508168846E+03 -0.10379616075E+03  0.96608670425E+03  0.65864270000E+03 0.  0.
    8880022    1    1    2    0    0  0.66834210696E+03  0.20508168846E+03  0.19614604925E+04  0.20879316530E+04  0.15294330000E+03 0.  0.
<mgrwt>
<rscale>  0 0.89236774E+03</rscale>
<asrwt>0</asrwt>
<pdfrwt beam="1">  1        2 0.92027231E-01 0.96049460E+03</pdfrwt>
<pdfrwt beam="2">  1       -2 0.37782175E+00 0.96049460E+03</pdfrwt>
<totfact> 0.52668738E-01</totfact>
</mgrwt>
</event>
<event>
 4    1  0.6502538E-008  0.8143714E+03  0.7818608E-02  0.9680542E-01
         -2   -1    0    0    0  501 -0.00000000000E+00  0.00000000000E+00  0.46392163240E+03  0.46392163241E+03  0.25500000000E-02 0.  1.
          2   -1    0    0  501    0  0.00000000000E+00 -0.00000000000E+00 -0.10285260476E+04  0.10285260476E+04  0.25500000000E-02 0. -1.
    8880023    1    1    2    0    0 -0.31339650985E+03 -0.36217844144E+03 -0.56235409925E+03  0.98966809337E+03  0.65864270000E+03 0.  0.
    8880022    1    1    2    0    0  0.31339650985E+03  0.36217844144E+03 -0.22503159760E+01  0.50277958667E+03  0.15294330000E+03 0.  0.
<mgrwt>
<rscale>  0 0.72187203E+03</rscale>
<asrwt>0</asrwt>
<pdfrwt beam="1">  1        2 0.15823478E+00 0.81437142E+03</pdfrwt>
<pdfrwt beam="2">  1       -2 0.71372559E-01 0.81437142E+03</pdfrwt>
<totfact> 0.43471699E+01</totfact>
</mgrwt>
</event>
<event>
 4    1  0.6502538E-008  0.6837530E+03  0.7818608E-02  0.1007276E+00
         -2   -1    0    0    0  501 -0.00000000000E+00  0.00000000000E+00  0.20484836105E+03  0.20484836107E+03  0.25500000000E-02 0.  1.
          2   -1    0    0  501    0  0.00000000000E+00 -0.00000000000E+00 -0.15711503413E+04  0.15711503413E+04  0.25500000000E-02 0. -1.
    8880023    1    1    2    0    0 -0.15328159601E+03  0.10105774186E+03 -0.13763487214E+04  0.15368324320E+04  0.65864270000E+03 0. -1.
    8880022    1    1    2    0    0  0.15328159601E+03 -0.10105774186E+03  0.10046741143E+02  0.23916627038E+03  0.15294330000E+03 0.  0.
<mgrwt>
<rscale>  0 0.52571882E+03</rscale>
<asrwt>0</asrwt>
<pdfrwt beam="1">  1        2 0.24171543E+00 0.68375297E+03</pdfrwt>
<pdfrwt beam="2">  1       -2 0.31515134E-01 0.68375297E+03</pdfrwt>
<totfact> 0.11090846E+02</totfact>
</mgrwt>
</event>
<event>
 4    1  0.6502538E-008  0.6957714E+03  0.7818608E-02  0.1001522E+00
         -2   -1    0    0    0  501 -0.00000000000E+00  0.00000000000E+00  0.59110969908E+03  0.59110969908E+03  0.25500000000E-02 0.  1.
          2   -1    0    0  501    0  0.00000000000E+00 -0.00000000000E+00 -0.17907093322E+04  0.17907093322E+04  0.25500000000E-02 0. -1.
    8880023    1    1    2    0    0 -0.21417223343E+03  0.66467180648E+02 -0.16864908264E+04  0.18243763716E+04  0.65864270000E+03 0.  0.
    8880022    1    1    2    0    0  0.21417223343E+03 -0.66467180648E+02  0.48689119327E+03  0.55744265963E+03  0.15294330000E+03 0.  0.
<mgrwt>
<rscale>  0 0.54988023E+03</rscale>
<asrwt>0</asrwt>
<pdfrwt beam="1">  1        2 0.27549374E+00 0.69577140E+03</pdfrwt>
<pdfrwt beam="2">  1       -2 0.90939954E-01 0.69577140E+03</pdfrwt>
<totfact> 0.93618681E+00</totfact>
</mgrwt>
</event>
<event>
 4    1  0.6502538E-008  0.1009641E+04  0.7818608E-02  0.9369051E-01
         -2   -1    0    0    0  501 -0.00000000000E+00  0.00000000000E+00  0.10708940026E+04  0.10708940026E+04  0.25500000000E-02 0.  1.
          2   -1    0    0  501    0  0.00000000000E+00 -0.00000000000E+00 -0.14370790236E+04  0.14370790236E+04  0.25500000000E-02 0. -1.
    8880023    1    1    2    0    0  0.20692326374E+03 -0.73671451629E+03 -0.10599212635E+04  0.14638335994E+04  0.65864270000E+03 0.  0.
    8880022    1    1    2    0    0 -0.20692326374E+03  0.73671451629E+03  0.69373624245E+03  0.10441394268E+04  0.15294330000E+03 0.  0.
<mgrwt>
<rscale>  0 0.94667019E+03</rscale>
<asrwt>0</asrwt>
<pdfrwt beam="1">  1        2 0.22108908E+00 0.10096414E+04</pdfrwt>
<pdfrwt beam="2">  1       -2 0.16475292E+00 0.10096414E+04</pdfrwt>
<totfact> 0.31751982E+00</totfact>
</mgrwt>
</event>
<event>
 4    1  0.1045351E-007  0.2244238E+04  0.7818608E-02  0.8509936E-01
         -2   -1    0    0    0  501 -0.00000000000E+00  0.00000000000E+00  0.28777531609E+04  0.28777531609E+04  0.25500000000E-02 0.  1.
          2   -1    0    0  501    0  0.00000000000E+00 -0.00000000000E+00 -0.26878408762E+04  0.26878408762E+04  0.25500000000E-02 0. -1.
    8880023    1    1    2    0    0 -0.67361437025E+03 -0.20369184094E+04 -0.16091569582E+04  0.27615193732E+04  0.65864270000E+03 0.  1.
    8880022    1    1    2    0    0  0.67361437025E+03  0.20369184094E+04  0.17990692430E+04  0.28040746639E+04  0.15294330000E+03 0.  0.
<mgrwt>
<rscale>  0 0.22205191E+04</rscale>
<asrwt>0</asrwt>
<pdfrwt beam="1">  1        2 0.41351398E+00 0.22442378E+04</pdfrwt>
<pdfrwt beam="2">  1       -2 0.44273125E+00 0.22442378E+04</pdfrwt>
<totfact> 0.89473461E-03</totfact>
</mgrwt>
</event>
<event>
 4    1  0.6502538E-008  0.7044620E+03  0.7818608E-02  0.9979171E-01
         -2   -1    0    0    0  501 -0.00000000000E+00  0.00000000000E+00  0.56880960000E+03  0.56880960001E+03  0.25500000000E-02 0.  1.
          2   -1    0    0  501    0  0.00000000000E+00 -0.00000000000E+00 -0.34575468615E+04  0.34575468615E+04  0.25500000000E-02 0. -1.
    8880023    1    1    2    0    0  0.19588137120E+03  0.15519970486E+03 -0.33809367776E+04  0.34535489225E+04  0.65864270000E+03 0. -1.
    8880022    1    1    2    0    0 -0.19588137120E+03 -0.15519970486E+03  0.49219951613E+03  0.57280753894E+03  0.15294330000E+03 0.  0.
<mgrwt>
<rscale>  0 0.56573039E+03</rscale>
<asrwt>0</asrwt>
<pdfrwt beam="1">  1        2 0.53193027E+00 0.70446197E+03</pdfrwt>
<pdfrwt beam="2">  1       -2 0.87509171E-01 0.70446197E+03</pdfrwt>
<totfact> 0.10778546E+00</totfact>
</mgrwt>
</event>
<event>
 4    1  0.6502538E-008  0.7836797E+03  0.7818608E-02  0.9747263E-01
          2   -1    0    0  501    0  0.00000000000E+00  0.00000000000E+00  0.92248178325E+03  0.92248178326E+03  0.25500000000E-02 0. -1.
         -2   -1    0    0    0  501 -0.00000000000E+00 -0.00000000000E+00 -0.17692427764E+04  0.17692427764E+04  0.25500000000E-02 0.  1.
    8880023    1    1    2    0    0  0.32314524375E+02 -0.42343771311E+03  0.71818335481E+03  0.10629869532E+04  0.65864270000E+03 0. -1.
    8880022    1    1    2    0    0 -0.32314524375E+02  0.42343771311E+03 -0.15649443480E+04  0.16287376064E+04  0.15294330000E+03 0.  0.
<mgrwt>
<rscale>  0 0.68271158E+03</rscale>
<asrwt>0</asrwt>
<pdfrwt beam="1">  1        2 0.14192028E+00 0.78367974E+03</pdfrwt>
<pdfrwt beam="2">  1       -2 0.27219119E+00 0.78367974E+03</pdfrwt>
<totfact> 0.13739024E+00</totfact>
</mgrwt>
</event>
<event>
 4    1  0.6502538E-008  0.6932018E+03  0.7818608E-02  0.1002666E+00
         -2   -1    0    0    0  501 -0.00000000000E+00  0.00000000000E+00  0.51315641465E+03  0.51315641466E+03  0.25500000000E-02 0.  1.
          2   -1    0    0  501    0  0.00000000000E+00 -0.00000000000E+00 -0.25707629637E+04  0.25707629637E+04  0.25500000000E-02 0. -1.
    8880023    1    1    2    0    0 -0.16321721995E+03  0.14169911964E+03 -0.24857041456E+04  0.25805530042E+04  0.65864270000E+03 0. -1.
    8880022    1    1    2    0    0  0.16321721995E+03 -0.14169911964E+03  0.42809759662E+03  0.50336637417E+03  0.15294330000E+03 0.  0.
<mgrwt>
<rscale>  0 0.54496344E+03</rscale>
<asrwt>0</asrwt>
<pdfrwt beam="1">  1        2 0.39550199E+00 0.69320178E+03</pdfrwt>
<pdfrwt beam="2">  1       -2 0.78947142E-01 0.69320178E+03</pdfrwt>
<totfact> 0.47946887E+00</totfact>
</mgrwt>
</event>
<event>
 4    1  0.6502538E-008  0.2068936E+04  0.7818608E-02  0.8586762E-01
          2   -1    0    0  501    0  0.00000000000E+00  0.00000000000E+00  0.27042291930E+04  0.27042291930E+04  0.25500000000E-02 0. -1.
         -2   -1    0    0    0  501 -0.00000000000E+00 -0.00000000000E+00 -0.17644233149E+04  0.17644233149E+04  0.25500000000E-02 0.  1.
    8880023    1    1    2    0    0 -0.86141557171E+03  0.17620017779E+04 -0.37476714496E+03  0.21026049728E+04  0.65864270000E+03 0.  0.
    8880022    1    1    2    0    0  0.86141557171E+03 -0.17620017779E+04  0.13145730231E+04  0.23660475351E+04  0.15294330000E+03 0.  0.
<mgrwt>
<rscale>  0 0.20430327E+04</rscale>
<asrwt>0</asrwt>
<pdfrwt beam="1">  1        2 0.41603526E+00 0.20689363E+04</pdfrwt>
<pdfrwt beam="2">  1       -2 0.27144974E+00 0.20689363E+04</pdfrwt>
<totfact> 0.11052018E-01</totfact>
</mgrwt>
</event>
<event>
 4    1  0.6502538E-008  0.7776030E+03  0.7818608E-02  0.9761498E-01
         -2   -1    0    0    0  501 -0.00000000000E+00  0.00000000000E+00  0.13843158569E+04  0.13843158569E+04  0.25500000000E-02 0.  1.
          2   -1    0    0  501    0  0.00000000000E+00 -0.00000000000E+00 -0.34267734990E+04  0.34267734990E+04  0.25500000000E-02 0. -1.
    8880023    1    1    2    0    0  0.41298870649E+03  0.17220155328E+02 -0.33459409454E+04  0.34351109475E+04  0.65864270000E+03 0. -1.
    8880022    1    1    2    0    0 -0.41298870649E+03 -0.17220155328E+02  0.13034833033E+04  0.13759784084E+04  0.15294330000E+03 0.  0.
<mgrwt>
<rscale>  0 0.67470351E+03</rscale>
<asrwt>0</asrwt>
<pdfrwt beam="1">  1        2 0.52719592E+00 0.77760299E+03</pdfrwt>
<pdfrwt beam="2">  1       -2 0.21297167E+00 0.77760299E+03</pdfrwt>
<totfact> 0.10891428E-01</totfact>
</mgrwt>
</event>
<event>
 4    1  0.6502538E-008  0.7357578E+03  0.7818608E-02  0.9872481E-01
         -2   -1    0    0    0  501 -0.00000000000E+00  0.00000000000E+00  0.17880517573E+04  0.17880517573E+04  0.25500000000E-02 0.  1.
          2   -1    0    0  501    0  0.00000000000E+00 -0.00000000000E+00 -0.26082296966E+03  0.26082296967E+03  0.25500000000E-02 0. -1.
    8880023    1    1    2    0    0 -0.14707261928E+02 -0.32758671340E+03  0.34521334274E+03  0.81271878077E+03  0.65864270000E+03 0.  0.
    8880022    1    1    2    0    0  0.14707261928E+02  0.32758671340E+03  0.11820154449E+04  0.12361559462E+04  0.15294330000E+03 0.  0.
<mgrwt>
<rscale>  0 0.61613706E+03</rscale>
<asrwt>0</asrwt>
<pdfrwt beam="1">  1        2 0.40126612E-01 0.73575782E+03</pdfrwt>
<pdfrwt beam="2">  1       -2 0.27508487E+00 0.73575782E+03</pdfrwt>
<totfact> 0.59912826E+00</totfact>
</mgrwt>
</event>
<event>
 4    1  0.6502538E-008  0.7276508E+03  0.7818608E-02  0.9897500E-01
          2   -1    0    0  501    0  0.00000000000E+00  0.00000000000E+00  0.13698466071E+04  0.13698466071E+04  0.25500000000E-02 0. -1.
         -2   -1    0    0    0  501 -0.00000000000E+00 -0.00000000000E+00 -0.42597551238E+03  0.42597551239E+03  0.25500000000E-02 0.  1.
    8880023    1    1    2    0    0 -0.28687586586E+03 -0.11561907653E+03  0.11739000081E+04  0.13811288747E+04  0.65864270000E+03 0. -1.
    8880022    1    1    2    0    0  0.28687586586E+03  0.11561907653E+03 -0.23002891337E+03  0.41469324479E+03  0.15294330000E+03 0.  0.
<mgrwt>
<rscale>  0 0.60382588E+03</rscale>
<asrwt>0</asrwt>
<pdfrwt beam="1">  1        2 0.21074563E+00 0.72765084E+03</pdfrwt>
<pdfrwt beam="2">  1       -2 0.65534694E-01 0.72765084E+03</pdfrwt>
<totfact> 0.33060663E+01</totfact>
</mgrwt>
</event>
<event>
 4    1  0.6502538E-008  0.9274282E+03  0.7818608E-02  0.9483362E-01
         -2   -1    0    0    0  501 -0.00000000000E+00  0.00000000000E+00  0.61564637581E+03  0.61564637581E+03  0.25500000000E-02 0.  1.
          2   -1    0    0  501    0  0.00000000000E+00 -0.00000000000E+00 -0.13038848688E+04  0.13038848688E+04  0.25500000000E-02 0. -1.
    8880023    1    1    2    0    0  0.42134400559E+03  0.49878060089E+03 -0.81784111634E+03  0.12365222023E+04  0.65864270000E+03 0.  0.
    8880022    1    1    2    0    0 -0.42134400559E+03 -0.49878060089E+03  0.12960262339E+03  0.68300904230E+03  0.15294330000E+03 0.  0.
<mgrwt>
<rscale>  0 0.85521661E+03</rscale>
<asrwt>0</asrwt>
<pdfrwt beam="1">  1        2 0.20059767E+00 0.92742820E+03</pdfrwt>
<pdfrwt beam="2">  1       -2 0.94714827E-01 0.92742820E+03</pdfrwt>
<totfact> 0.15460137E+01</totfact>
</mgrwt>
</event>
<event>
 4    1  0.6502538E-008  0.1240693E+04  0.7818608E-02  0.9118546E-01
         -2   -1    0    0    0  501 -0.00000000000E+00  0.00000000000E+00  0.33598392485E+04  0.33598392485E+04  0.25500000000E-02 0.  1.
          2   -1    0    0  501    0  0.00000000000E+00 -0.00000000000E+00 -0.50467841603E+03  0.50467841604E+03  0.25500000000E-02 0. -1.
    8880023    1    1    2    0    0 -0.87725792189E+03  0.57959191571E+03  0.61411929680E+03  0.13843630186E+04  0.65864270000E+03 0.  0.
    8880022    1    1    2    0    0  0.87725792189E+03 -0.57959191571E+03  0.22410415357E+04  0.24801546460E+04  0.15294330000E+03 0.  0.
<mgrwt>
<rscale>  0 0.11935211E+04</rscale>
<asrwt>0</asrwt>
<pdfrwt beam="1">  1        2 0.77642833E-01 0.12406927E+04</pdfrwt>
<pdfrwt beam="2">  1       -2 0.51689835E+00 0.12406927E+04</pdfrwt>
<totfact> 0.77468844E-02</totfact>
</mgrwt>
</event>
<event>
 4    1  0.6502538E-008  0.6894590E+03  0.7818608E-02  0.1004411E+00
          2   -1    0    0  501    0  0.00000000000E+00  0.00000000000E+00  0.78316376840E+03  0.78316376840E+03  0.25500000000E-02 0. -1.
         -2   -1    0    0    0  501 -0.00000000000E+00 -0.00000000000E+00 -0.41940968355E+03  0.41940968356E+03  0.25500000000E-02 0.  1.
    8880023    1    1    2    0    0  0.16689230179E+03 -0.11700598231E+03  0.55408665513E+03  0.88451436842E+03  0.65864270000E+03 0. -1.
    8880022    1    1    2    0    0 -0.16689230179E+03  0.11700598231E+03 -0.19033257028E+03  0.31805908353E+03  0.15294330000E+03 0.  0.
<mgrwt>
<rscale>  0 0.53757770E+03</rscale>
<asrwt>0</asrwt>
<pdfrwt beam="1">  1        2 0.12048673E+00 0.68945895E+03</pdfrwt>
<pdfrwt beam="2">  1       -2 0.64524567E-01 0.68945895E+03</pdfrwt>
<totfact> 0.79941321E+01</totfact>
</mgrwt>
</event>
<event>
 4    1  0.6502538E-008  0.1032064E+04  0.7818608E-02  0.9340760E-01
          2   -1    0    0  501    0  0.00000000000E+00  0.00000000000E+00  0.31136450617E+04  0.31136450617E+04  0.25500000000E-02 0. -1.
         -2   -1    0    0    0  501 -0.00000000000E+00 -0.00000000000E+00 -0.12887763197E+04  0.12887763197E+04  0.25500000000E-02 0.  1.
    8880023    1    1    2    0    0  0.75888923299E+03  0.23544321710E+03  0.28877215309E+04  0.30666092387E+04  0.65864270000E+03 0.  0.
    8880022    1    1    2    0    0 -0.75888923299E+03 -0.23544321710E+03 -0.10628527890E+04  0.13358121426E+04  0.15294330000E+03 0.  0.
<mgrwt>
<rscale>  0 0.97115487E+03</rscale>
<asrwt>0</asrwt>
<pdfrwt beam="1">  1        2 0.47902231E+00 0.10320642E+04</pdfrwt>
<pdfrwt beam="2">  1       -2 0.19827328E+00 0.10320642E+04</pdfrwt>
<totfact> 0.20419686E-01</totfact>
</mgrwt>
</event>
<event>
 4    1  0.6502538E-008  0.8821870E+03  0.7818608E-02  0.9555254E-01
         -2   -1    0    0    0  501 -0.00000000000E+00  0.00000000000E+00  0.32392187530E+03  0.32392187531E+03  0.25500000000E-02 0.  1.
          2   -1    0    0  501    0  0.00000000000E+00 -0.00000000000E+00 -0.31696540156E+04  0.31696540156E+04  0.25500000000E-02 0. -1.
    8880023    1    1    2    0    0 -0.54029266592E+03  0.22918887325E+03 -0.39086476416E+03  0.96489853073E+03  0.65864270000E+03 0.  0.
    8880022    1    1    2    0    0  0.54029266592E+03 -0.22918887325E+03 -0.24548673762E+04  0.25286773602E+04  0.15294330000E+03 0.  0.
<mgrwt>
<rscale>  0 0.80329891E+03</rscale>
<asrwt>0</asrwt>
<pdfrwt beam="1">  1        2 0.48763906E+00 0.88218700E+03</pdfrwt>
<pdfrwt beam="2">  1       -2 0.49834137E-01 0.88218700E+03</pdfrwt>
<totfact> 0.54101252E+00</totfact>
</mgrwt>
</event>
<event>
 4    1  0.6502538E-008  0.8548107E+03  0.7818608E-02  0.9602862E-01
         -2   -1    0    0    0  501 -0.00000000000E+00  0.00000000000E+00  0.38242412746E+03  0.38242412746E+03  0.25500000000E-02 0.  1.
          2   -1    0    0  501    0  0.00000000000E+00 -0.00000000000E+00 -0.17579830509E+04  0.17579830509E+04  0.25500000000E-02 0. -1.
    8880023    1    1    2    0    0  0.17318170412E+03 -0.51662289600E+03 -0.13188407657E+04  0.15716368190E+04  0.65864270000E+03 0.  0.
    8880022    1    1    2    0    0 -0.17318170412E+03  0.51662289600E+03 -0.56718157811E+02  0.56877035942E+03  0.15294330000E+03 0.  0.
<mgrwt>
<rscale>  0 0.77107062E+03</rscale>
<asrwt>0</asrwt>
<pdfrwt beam="1">  1        2 0.27045893E+00 0.85481070E+03</pdfrwt>
<pdfrwt beam="2">  1       -2 0.58834482E-01 0.85481070E+03</pdfrwt>
<totfact> 0.24965680E+01</totfact>
</mgrwt>
</event>
<event>
 4    1  0.6502538E-008  0.6776426E+03  0.7818608E-02  0.1010690E+00
          2   -1    0    0  501    0  0.00000000000E+00  0.00000000000E+00  0.12805494101E+04  0.12805494101E+04  0.25500000000E-02 0. -1.
         -2   -1    0    0    0  501 -0.00000000000E+00 -0.00000000000E+00 -0.87738813722E+03  0.87738813722E+03  0.25500000000E-02 0.  1.
    8880023    1    1    2    0    0 -0.88946966181E+02 -0.13220317648E+03  0.11742989490E+04  0.13557940369E+04  0.65864270000E+03 0. -1.
    8880022    1    1    2    0    0  0.88946966181E+02  0.13220317648E+03 -0.77113767614E+03  0.80214351038E+03  0.15294330000E+03 0.  0.
<mgrwt>
<rscale>  0 0.51201388E+03</rscale>
<asrwt>0</asrwt>
<pdfrwt beam="1">  1        2 0.19700760E+00 0.67764257E+03</pdfrwt>
<pdfrwt beam="2">  1       -2 0.13498279E+00 0.67764257E+03</pdfrwt>
<totfact> 0.69144031E+00</totfact>
</mgrwt>
</event>
<event>
 4    1  0.6502538E-008  0.7707080E+03  0.7818608E-02  0.9778135E-01
          2   -1    0    0  501    0  0.00000000000E+00  0.00000000000E+00  0.15739042768E+04  0.15739042768E+04  0.25500000000E-02 0. -1.
         -2   -1    0    0    0  501 -0.00000000000E+00 -0.00000000000E+00 -0.89562155749E+03  0.89562155749E+03  0.25500000000E-02 0.  1.
    8880023    1    1    2    0    0 -0.29317407993E+03  0.27245106088E+03  0.14184423516E+04  0.16143015619E+04  0.65864270000E+03 0. -1.
    8880022    1    1    2    0    0  0.29317407993E+03 -0.27245106088E+03 -0.74015963231E+03  0.85522427236E+03  0.15294330000E+03 0.  0.
<mgrwt>
<rscale>  0 0.66549269E+03</rscale>
<asrwt>0</asrwt>
<pdfrwt beam="1">  1        2 0.24213912E+00 0.77070800E+03</pdfrwt>
<pdfrwt beam="2">  1       -2 0.13778793E+00 0.77070800E+03</pdfrwt>
<totfact> 0.44212124E+00</totfact>
</mgrwt>
</event>
<event>
 4    1  0.6502538E-008  0.7312628E+03  0.7818608E-02  0.9886170E-01
         -2   -1    0    0    0  501 -0.00000000000E+00  0.00000000000E+00  0.84979132938E+03  0.84979132938E+03  0.25500000000E-02 0.  1.
          2   -1    0    0  501    0  0.00000000000E+00 -0.00000000000E+00 -0.89959833887E+03  0.89959833887E+03  0.25500000000E-02 0. -1.
    8880023    1    1    2    0    0 -0.23246282471E+03 -0.21655518067E+03 -0.69837288399E+03  0.10111725879E+04  0.65864270000E+03 0. -1.
    8880022    1    1    2    0    0  0.23246282471E+03  0.21655518067E+03  0.64856587450E+03  0.73821708036E+03  0.15294330000E+03 0.  0.
<mgrwt>
<rscale>  0 0.60936247E+03</rscale>
<asrwt>0</asrwt>
<pdfrwt beam="1">  1        2 0.13839974E+00 0.73126282E+03</pdfrwt>
<pdfrwt beam="2">  1       -2 0.13073713E+00 0.73126282E+03</pdfrwt>
<totfact> 0.12790391E+01</totfact>
</mgrwt>
</event>
<event>
 4    1  0.6502538E-008  0.7089370E+03  0.7818608E-02  0.9961970E-01
          2   -1    0    0  501    0  0.00000000000E+00  0.00000000000E+00  0.15111201169E+04  0.15111201170E+04  0.25500000000E-02 0. -1.
         -2   -1    0    0    0  501 -0.00000000000E+00 -0.00000000000E+00 -0.29191139076E+03  0.29191139077E+03  0.25500000000E-02 0.  1.
    8880023    1    1    2    0    0 -0.23642080528E+03 -0.11351920770E+03  0.13070893525E+04  0.14869681198E+04  0.65864270000E+03 0. -1.
    8880022    1    1    2    0    0  0.23642080528E+03  0.11351920770E+03 -0.87880626297E+02  0.31606338792E+03  0.15294330000E+03 0.  0.
<mgrwt>
<rscale>  0 0.57349709E+03</rscale>
<asrwt>0</asrwt>
<pdfrwt beam="1">  1        2 0.23248002E+00 0.70893696E+03</pdfrwt>
<pdfrwt beam="2">  1       -2 0.44909445E-01 0.70893696E+03</pdfrwt>
<totfact> 0.60327956E+01</totfact>
</mgrwt>
</event>
<event>
 4    1  0.6502538E-008  0.7212839E+03  0.7818608E-02  0.9918265E-01
         -2   -1    0    0    0  501 -0.00000000000E+00  0.00000000000E+00  0.26089320667E+03  0.26089320668E+03  0.25500000000E-02 0.  1.
          2   -1    0    0  501    0  0.00000000000E+00 -0.00000000000E+00 -0.11915176413E+04  0.11915176413E+04  0.25500000000E-02 0. -1.
    8880023    1    1    2    0    0  0.14030780139E+03  0.25836801237E+03 -0.84330596525E+03  0.11096916086E+04  0.65864270000E+03 0. -1.
    8880022    1    1    2    0    0 -0.14030780139E+03 -0.25836801237E+03 -0.87318469419E+02  0.34271923941E+03  0.15294330000E+03 0.  1.
<mgrwt>
<rscale>  0 0.59384183E+03</rscale>
<asrwt>0</asrwt>
<pdfrwt beam="1">  1        2 0.18331040E+00 0.72128394E+03</pdfrwt>
<pdfrwt beam="2">  1       -2 0.40137417E-01 0.72128394E+03</pdfrwt>
<totfact> 0.11445713E+02</totfact>
</mgrwt>
</event>
<event>
 4    1  0.6502538E-008  0.1279887E+04  0.7818608E-02  0.9083126E-01
          2   -1    0    0  501    0  0.00000000000E+00  0.00000000000E+00  0.16752027821E+04  0.16752027821E+04  0.25500000000E-02 0. -1.
         -2   -1    0    0    0  501 -0.00000000000E+00 -0.00000000000E+00 -0.97179343476E+03  0.97179343476E+03  0.25500000000E-02 0.  1.
    8880023    1    1    2    0    0 -0.88946526336E+03  0.64276953131E+03  0.83951900381E+03  0.15306545950E+04  0.65864270000E+03 0.  0.
    8880022    1    1    2    0    0  0.88946526336E+03 -0.64276953131E+03 -0.13610965650E+03  0.11163416219E+04  0.15294330000E+03 0.  0.
<mgrwt>
<rscale>  0 0.12345679E+04</rscale>
<asrwt>0</asrwt>
<pdfrwt beam="1">  1        2 0.25772350E+00 0.12798872E+04</pdfrwt>
<pdfrwt beam="2">  1       -2 0.14950668E+00 0.12798872E+04</pdfrwt>
<totfact> 0.29513266E+00</totfact>
</mgrwt>
</event>
<event>
 4    1  0.6502538E-008  0.8445763E+03  0.7818608E-02  0.9621611E-01
         -2   -1    0    0    0  501 -0.00000000000E+00  0.00000000000E+00  0.44796902554E+03  0.44796902555E+03  0.25500000000E-02 0.  1.
          2   -1    0    0  501    0  0.00000000000E+00 -0.00000000000E+00 -0.15191440041E+04  0.15191440041E+04  0.25500000000E-02 0. -1.
    8880023    1    1    2    0    0  0.19595728110E+03 -0.49101900577E+03 -0.11331581921E+04  0.14132786755E+04  0.65864270000E+03 0.  0.
    8880022    1    1    2    0    0 -0.19595728110E+03  0.49101900577E+03  0.61983213548E+02  0.55383435414E+03  0.15294330000E+03 0.  0.
<mgrwt>
<rscale>  0 0.75882195E+03</rscale>
<asrwt>0</asrwt>
<pdfrwt beam="1">  1        2 0.23371446E+00 0.84457630E+03</pdfrwt>
<pdfrwt beam="2">  1       -2 0.68918313E-01 0.84457630E+03</pdfrwt>
<totfact> 0.24127227E+01</totfact>
</mgrwt>
</event>
<event>
 4    1  0.6502538E-008  0.6951650E+03  0.7818608E-02  0.1001788E+00
         -2   -1    0    0    0  501 -0.00000000000E+00  0.00000000000E+00  0.47654249133E+03  0.47654249134E+03  0.25500000000E-02 0.  1.
          2   -1    0    0  501    0  0.00000000000E+00 -0.00000000000E+00 -0.54630247174E+03  0.54630247175E+03  0.25500000000E-02 0. -1.
    8880023    1    1    2    0    0 -0.44406566731E+02  0.21788108534E+03 -0.19974421950E+03  0.72329252036E+03  0.65864270000E+03 0. -1.
    8880022    1    1    2    0    0  0.44406566731E+02 -0.21788108534E+03  0.12998423909E+03  0.29955244273E+03  0.15294330000E+03 0. -1.
<mgrwt>
<rscale>  0 0.54873036E+03</rscale>
<asrwt>0</asrwt>
<pdfrwt beam="1">  1        2 0.84046534E-01 0.69516496E+03</pdfrwt>
<pdfrwt beam="2">  1       -2 0.73314229E-01 0.69516496E+03</pdfrwt>
<totfact> 0.94542325E+01</totfact>
</mgrwt>
</event>
<event>
 4    1  0.6502538E-008  0.7709266E+03  0.7818608E-02  0.9777599E-01
          2   -1    0    0  501    0  0.00000000000E+00  0.00000000000E+00  0.47950690779E+04  0.47950690779E+04  0.25500000000E-02 0. -1.
         -2   -1    0    0    0  501 -0.00000000000E+00 -0.00000000000E+00 -0.31648157877E+03  0.31648157878E+03  0.25500000000E-02 0.  1.
    8880023    1    1    2    0    0  0.30119942456E+03 -0.26419020993E+03  0.46013453720E+04  0.46654803610E+04  0.65864270000E+03 0. -1.
    8880022    1    1    2    0    0 -0.30119942456E+03  0.26419020993E+03 -0.12275787281E+03  0.44607029573E+03  0.15294330000E+03 0.  0.
<mgrwt>
<rscale>  0 0.66578682E+03</rscale>
<asrwt>0</asrwt>
<pdfrwt beam="1">  1        2 0.73770290E+00 0.77092656E+03</pdfrwt>
<pdfrwt beam="2">  1       -2 0.48689476E-01 0.77092656E+03</pdfrwt>
<totfact> 0.27869215E-01</totfact>
</mgrwt>
</event>
<event>
 4    1  0.6502538E-008  0.8507462E+03  0.7818608E-02  0.9610241E-01
          2   -1    0    0  501    0  0.00000000000E+00  0.00000000000E+00  0.41561378492E+04  0.41561378492E+04  0.25500000000E-02 0. -1.
         -2   -1    0    0    0  501 -0.00000000000E+00 -0.00000000000E+00 -0.29217055827E+03  0.29217055828E+03  0.25500000000E-02 0.  1.
    8880023    1    1    2    0    0 -0.48734312112E+03 -0.22903197283E+03  0.37892354894E+04  0.38835646979E+04  0.65864270000E+03 0.  0.
    8880022    1    1    2    0    0  0.48734312112E+03  0.22903197283E+03  0.74731801467E+02  0.56474370953E+03  0.15294330000E+03 0.  0.
<mgrwt>
<rscale>  0 0.76622064E+03</rscale>
<asrwt>0</asrwt>
<pdfrwt beam="1">  1        2 0.63940577E+00 0.85074624E+03</pdfrwt>
<pdfrwt beam="2">  1       -2 0.44949320E-01 0.85074624E+03</pdfrwt>
<totfact> 0.13016067E+00</totfact>
</mgrwt>
</event>
<event>
 4    1  0.6502538E-008  0.6899839E+03  0.7818608E-02  0.1004160E+00
          2   -1    0    0  501    0  0.00000000000E+00  0.00000000000E+00  0.13423828128E+04  0.13423828128E+04  0.25500000000E-02 0. -1.
         -2   -1    0    0    0  501 -0.00000000000E+00 -0.00000000000E+00 -0.19258578939E+03  0.19258578940E+03  0.25500000000E-02 0.  1.
    8880023    1    1    2    0    0 -0.17742483793E+03  0.10386518848E+03  0.10573457384E+04  0.12625600054E+04  0.65864270000E+03 0.  0.
    8880022    1    1    2    0    0  0.17742483793E+03 -0.10386518848E+03  0.92451285015E+02  0.27240859680E+03  0.15294330000E+03 0.  0.
<mgrwt>
<rscale>  0 0.53863077E+03</rscale>
<asrwt>0</asrwt>
<pdfrwt beam="1">  1        2 0.20652044E+00 0.68998388E+03</pdfrwt>
<pdfrwt beam="2">  1       -2 0.29628583E-01 0.68998388E+03</pdfrwt>
<totfact> 0.16690623E+02</totfact>
</mgrwt>
</event>
<event>
 4    1  0.6502538E-008  0.8046483E+03  0.7818608E-02  0.9700834E-01
          2   -1    0    0  501    0  0.00000000000E+00  0.00000000000E+00  0.16204784235E+04  0.16204784235E+04  0.25500000000E-02 0. -1.
         -2   -1    0    0    0  501 -0.00000000000E+00 -0.00000000000E+00 -0.88411958429E+03  0.88411958430E+03  0.25500000000E-02 0.  1.
    8880023    1    1    2    0    0 -0.10044986708E+03 -0.45117462537E+03  0.14396321263E+04  0.16492421241E+04  0.65864270000E+03 0. -1.
    8880022    1    1    2    0    0  0.10044986708E+03  0.45117462537E+03 -0.70327328714E+03  0.85535588371E+03  0.15294330000E+03 0.  0.
<mgrwt>
<rscale>  0 0.70967151E+03</rscale>
<asrwt>0</asrwt>
<pdfrwt beam="1">  1        2 0.24930437E+00 0.80464832E+03</pdfrwt>
<pdfrwt beam="2">  1       -2 0.13601840E+00 0.80464832E+03</pdfrwt>
<totfact> 0.42862052E+00</totfact>
</mgrwt>
</event>
<event>
 4    1  0.6502538E-008  0.9732067E+03  0.7818608E-02  0.9417483E-01
         -2   -1    0    0    0  501 -0.00000000000E+00  0.00000000000E+00  0.71945376102E+03  0.71945376103E+03  0.25500000000E-02 0.  1.
          2   -1    0    0  501    0  0.00000000000E+00 -0.00000000000E+00 -0.13614310132E+04  0.13614310132E+04  0.25500000000E-02 0. -1.
    8880023    1    1    2    0    0 -0.67485940438E+03 -0.24059482567E+03 -0.87847707026E+03  0.13110504396E+04  0.65864270000E+03 0.  0.
    8880022    1    1    2    0    0  0.67485940438E+03  0.24059482567E+03  0.23649981811E+03  0.76983433464E+03  0.15294330000E+03 0.  0.
<mgrwt>
<rscale>  0 0.90650783E+03</rscale>
<asrwt>0</asrwt>
<pdfrwt beam="1">  1        2 0.20945092E+00 0.97320671E+03</pdfrwt>
<pdfrwt beam="2">  1       -2 0.11068519E+00 0.97320671E+03</pdfrwt>
<totfact> 0.98217807E+00</totfact>
</mgrwt>
</event>
<event>
 4    1  0.6502538E-008  0.1068965E+04  0.7818608E-02  0.9296423E-01
         -2   -1    0    0    0  501 -0.00000000000E+00  0.00000000000E+00  0.64058502922E+03  0.64058502922E+03  0.25500000000E-02 0.  1.
          2   -1    0    0  501    0  0.00000000000E+00 -0.00000000000E+00 -0.18009536836E+04  0.18009536836E+04  0.25500000000E-02 0. -1.
    8880023    1    1    2    0    0  0.16000415543E+03 -0.82660432636E+03 -0.11712787161E+04  0.15857427531E+04  0.65864270000E+03 0. -1.
    8880022    1    1    2    0    0 -0.16000415543E+03  0.82660432636E+03  0.10910061724E+02  0.85579595966E+03  0.15294330000E+03 0.  1.
<mgrwt>
<rscale>  0 0.10111285E+04</rscale>
<asrwt>0</asrwt>
<pdfrwt beam="1">  1        2 0.27706980E+00 0.10689650E+04</pdfrwt>
<pdfrwt beam="2">  1       -2 0.98551544E-01 0.10689650E+04</pdfrwt>
<totfact> 0.73010197E+00</totfact>
</mgrwt>
</event>
<event>
 4    1  0.6502538E-008  0.1071409E+04  0.7818608E-02  0.9293576E-01
          2   -1    0    0  501    0  0.00000000000E+00  0.00000000000E+00  0.12259764439E+04  0.12259764439E+04  0.25500000000E-02 0. -1.
         -2   -1    0    0    0  501 -0.00000000000E+00 -0.00000000000E+00 -0.11051980463E+04  0.11051980463E+04  0.25500000000E-02 0.  1.
    8880023    1    1    2    0    0  0.35499609395E+03  0.76686757794E+03  0.71391370727E+03  0.12874746974E+04  0.65864270000E+03 0. -1.
    8880022    1    1    2    0    0 -0.35499609395E+03 -0.76686757794E+03 -0.59313530963E+03  0.10436997927E+04  0.15294330000E+03 0.  0.
<mgrwt>
<rscale>  0 0.10137640E+04</rscale>
<asrwt>0</asrwt>
<pdfrwt beam="1">  1        2 0.18861176E+00 0.10714095E+04</pdfrwt>
<pdfrwt beam="2">  1       -2 0.17003047E+00 0.10714095E+04</pdfrwt>
<totfact> 0.38304153E+00</totfact>
</mgrwt>
</event>
<event>
 4    1  0.6502538E-008  0.1306278E+04  0.7818608E-02  0.9060157E-01
          2   -1    0    0  501    0  0.00000000000E+00  0.00000000000E+00  0.17087902884E+04  0.17087902884E+04  0.25500000000E-02 0. -1.
         -2   -1    0    0    0  501 -0.00000000000E+00 -0.00000000000E+00 -0.13208889041E+04  0.13208889041E+04  0.25500000000E-02 0.  1.
    8880023    1    1    2    0    0  0.24948401801E+03  0.11001408883E+04  0.10821476705E+04  0.16962918489E+04  0.65864270000E+03 0.  0.
    8880022    1    1    2    0    0 -0.24948401801E+03 -0.11001408883E+04 -0.69424628621E+03  0.13333873437E+04  0.15294330000E+03 0.  0.
<mgrwt>
<rscale>  0 0.12621181E+04</rscale>
<asrwt>0</asrwt>
<pdfrwt beam="1">  1        2 0.26289081E+00 0.13062781E+04</pdfrwt>
<pdfrwt beam="2">  1       -2 0.20321368E+00 0.13062781E+04</pdfrwt>
<totfact> 0.11780051E+00</totfact>
</mgrwt>
</event>
<event>
 4    1  0.6502538E-008  0.1252200E+04  0.7818608E-02  0.9107979E-01
         -2   -1    0    0    0  501 -0.00000000000E+00  0.00000000000E+00  0.51276224416E+03  0.51276224416E+03  0.25500000000E-02 0.  1.
          2   -1    0    0  501    0  0.00000000000E+00 -0.00000000000E+00 -0.27759844035E+04  0.27759844035E+04  0.25500000000E-02 0. -1.
    8880023    1    1    2    0    0 -0.65681416290E+03 -0.83832485065E+03 -0.15726471332E+04  0.20102792373E+04  0.65864270000E+03 0. -1.
    8880022    1    1    2    0    0  0.65681416290E+03  0.83832485065E+03 -0.69057502613E+03  0.12784674104E+04  0.15294330000E+03 0.  0.
<mgrwt>
<rscale>  0 0.12055890E+04</rscale>
<asrwt>0</asrwt>
<pdfrwt beam="1">  1        2 0.42707451E+00 0.12521995E+04</pdfrwt>
<pdfrwt beam="2">  1       -2 0.78886501E-01 0.12521995E+04</pdfrwt>
<totfact> 0.33567629E+00</totfact>
</mgrwt>
</event>
<event>
 4    1  0.6502538E-008  0.6852875E+03  0.7818608E-02  0.1006478E+00
          2   -1    0    0  501    0  0.00000000000E+00  0.00000000000E+00  0.37991755767E+04  0.37991755767E+04  0.25500000000E-02 0. -1.
         -2   -1    0    0    0  501 -0.00000000000E+00 -0.00000000000E+00 -0.69405474403E+02  0.69405474450E+02  0.25500000000E-02 0.  1.
    8880023    1    1    2    0    0  0.14391404954E+03  0.12287197399E+03  0.33363456499E+04  0.34059978387E+04  0.65864270000E+03 0.  0.
    8880022    1    1    2    0    0 -0.14391404954E+03 -0.12287197399E+03  0.39342445245E+03  0.46258321246E+03  0.15294330000E+03 0.  0.
<mgrwt>
<rscale>  0 0.52898727E+03</rscale>
<asrwt>0</asrwt>
<pdfrwt beam="1">  1        2 0.58448851E+00 0.68528752E+03</pdfrwt>
<pdfrwt beam="2">  1       -2 0.10677766E-01 0.68528752E+03</pdfrwt>
<totfact> 0.33453630E+01</totfact>
</mgrwt>
</event>
<event>
 4    1  0.6502538E-008  0.1427721E+04  0.7818608E-02  0.8962437E-01
         -2   -1    0    0    0  501 -0.00000000000E+00  0.00000000000E+00  0.12728019110E+04  0.12728019110E+04  0.25500000000E-02 0.  1.
          2   -1    0    0  501    0  0.00000000000E+00 -0.00000000000E+00 -0.21212264523E+04  0.21212264523E+04  0.25500000000E-02 0. -1.
    8880023    1    1    2    0    0 -0.76815845769E+03  0.10072283553E+04 -0.14039998664E+04  0.20023991128E+04  0.65864270000E+03 0.  0.
    8880022    1    1    2    0    0  0.76815845769E+03 -0.10072283553E+04  0.55557532505E+03  0.13916292505E+04  0.15294330000E+03 0.  0.
<mgrwt>
<rscale>  0 0.13881557E+04</rscale>
<asrwt>0</asrwt>
<pdfrwt beam="1">  1        2 0.32634253E+00 0.14277208E+04</pdfrwt>
<pdfrwt beam="2">  1       -2 0.19581568E+00 0.14277208E+04</pdfrwt>
<totfact> 0.76712525E-01</totfact>
</mgrwt>
</event>
<event>
 4    1  0.8799333E-008  0.1305063E+04  0.7818608E-02  0.9061200E-01
         -2   -1    0    0    0  501 -0.00000000000E+00  0.00000000000E+00  0.17312925566E+04  0.17312925566E+04  0.25500000000E-02 0.  1.
          2   -1    0    0  501    0  0.00000000000E+00 -0.00000000000E+00 -0.18435147196E+04  0.18435147196E+04  0.25500000000E-02 0. -1.
    8880023    1    1    2    0    0 -0.11170464398E+04  0.14692004300E+03 -0.13612401503E+04  0.18857792026E+04  0.65864270000E+03 0. -1.
    8880022    1    1    2    0    0  0.11170464398E+04 -0.14692004300E+03  0.12490179873E+04  0.16890280736E+04  0.15294330000E+03 0.  0.
<mgrwt>
<rscale>  0 0.12608507E+04</rscale>
<asrwt>0</asrwt>
<pdfrwt beam="1">  1        2 0.28361765E+00 0.13050626E+04</pdfrwt>
<pdfrwt beam="2">  1       -2 0.26635270E+00 0.13050626E+04</pdfrwt>
<totfact> 0.39969366E-01</totfact>
</mgrwt>
</event>
<event>
 4    1  0.6502538E-008  0.8428131E+03  0.7818608E-02  0.9624899E-01
         -2   -1    0    0    0  501 -0.00000000000E+00  0.00000000000E+00  0.17824960699E+04  0.17824960699E+04  0.25500000000E-02 0.  1.
          2   -1    0    0  501    0  0.00000000000E+00 -0.00000000000E+00 -0.42980648695E+03  0.42980648695E+03  0.25500000000E-02 0. -1.
    8880023    1    1    2    0    0  0.17324785385E+03  0.49649663703E+03  0.10451216358E+03  0.84926834867E+03  0.65864270000E+03 0. -1.
    8880022    1    1    2    0    0 -0.17324785385E+03 -0.49649663703E+03  0.12481774194E+04  0.13630342082E+04  0.15294330000E+03 0.  0.
<mgrwt>
<rscale>  0 0.75669925E+03</rscale>
<asrwt>0</asrwt>
<pdfrwt beam="1">  1        2 0.66124075E-01 0.84281311E+03</pdfrwt>
<pdfrwt beam="2">  1       -2 0.27423016E+00 0.84281311E+03</pdfrwt>
<totfact> 0.34206938E+00</totfact>
</mgrwt>
</event>
<event>
 4    1  0.6502538E-008  0.6591271E+03  0.7818608E-02  0.1025069E+00
          2   -1    0    0  501    0  0.00000000000E+00  0.00000000000E+00  0.90384585547E+03  0.90384585548E+03  0.25500000000E-02 0. -1.
         -2   -1    0    0    0  501 -0.00000000000E+00 -0.00000000000E+00 -0.20660509614E+03  0.20660509616E+03  0.25500000000E-02 0.  1.
    8880023    1    1    2    0    0 -0.24871386046E+02  0.44425084326E+01  0.69152440869E+03  0.95532954304E+03  0.65864270000E+03 0.  0.
    8880022    1    1    2    0    0  0.24871386046E+02 -0.44425084326E+01  0.57163506373E+01  0.15512140860E+03  0.15294330000E+03 0.  0.
<mgrwt>
<rscale>  0 0.45900883E+03</rscale>
<asrwt>0</asrwt>
<pdfrwt beam="1">  1        2 0.13905321E+00 0.65912710E+03</pdfrwt>
<pdfrwt beam="2">  1       -2 0.31785400E-01 0.65912710E+03</pdfrwt>
<totfact> 0.27155246E+02</totfact>
</mgrwt>
</event>
<event>
 4    1  0.2134271E-007  0.7980257E+03  0.7818608E-02  0.9715081E-01
         -2   -1    0    0    0  501 -0.00000000000E+00  0.00000000000E+00  0.24140155880E+04  0.24140155880E+04  0.25500000000E-02 0.  1.
          2   -1    0    0  501    0  0.00000000000E+00 -0.00000000000E+00 -0.25810745629E+04  0.25810745629E+04  0.25500000000E-02 0. -1.
    8880023    1    1    2    0    0  0.44551998416E+03 -0.67429866864E+02 -0.24947398161E+04  0.26192693255E+04  0.65864270000E+03 0. -1.
    8880022    1    1    2    0    0 -0.44551998416E+03  0.67429866864E+02  0.23276808412E+04  0.23758208255E+04  0.15294330000E+03 0.  0.
<mgrwt>
<rscale>  0 0.70125920E+03</rscale>
<asrwt>0</asrwt>
<pdfrwt beam="1">  1        2 0.39708840E+00 0.79802572E+03</pdfrwt>
<pdfrwt beam="2">  1       -2 0.37138701E+00 0.79802572E+03</pdfrwt>
<totfact> 0.38569676E-02</totfact>
</mgrwt>
</event>
<event>
 4    1  0.6502538E-008  0.7537138E+03  0.7818608E-02  0.9821662E-01
          2   -1    0    0  501    0  0.00000000000E+00  0.00000000000E+00  0.22962742936E+04  0.22962742936E+04  0.25500000000E-02 0. -1.
         -2   -1    0    0    0  501 -0.00000000000E+00 -0.00000000000E+00 -0.21562366173E+03  0.21562366175E+03  0.25500000000E-02 0.  1.
    8880023    1    1    2    0    0 -0.12967950436E+03  0.34272079853E+03  0.19552548564E+04  0.20954966188E+04  0.65864270000E+03 0.  0.
    8880022    1    1    2    0    0  0.12967950436E+03 -0.34272079853E+03  0.12539577551E+03  0.41640133661E+03  0.15294330000E+03 0.  0.
<mgrwt>
<rscale>  0 0.64212874E+03</rscale>
<asrwt>0</asrwt>
<pdfrwt beam="1">  1        2 0.35327298E+00 0.75371382E+03</pdfrwt>
<pdfrwt beam="2">  1       -2 0.33172870E-01 0.75371382E+03</pdfrwt>
<totfact> 0.40069733E+01</totfact>
</mgrwt>
</event>
<event>
 4    1  0.6502538E-008  0.1058626E+04  0.7818608E-02  0.9308583E-01
         -2   -1    0    0    0  501 -0.00000000000E+00  0.00000000000E+00  0.11039390916E+04  0.11039390916E+04  0.25500000000E-02 0.  1.
          2   -1    0    0  501    0  0.00000000000E+00 -0.00000000000E+00 -0.10558583751E+04  0.10558583751E+04  0.25500000000E-02 0. -1.
    8880023    1    1    2    0    0 -0.63463216079E+03  0.53302907293E+03 -0.48304371036E+03  0.11636233946E+04  0.65864270000E+03 0.  0.
    8880022    1    1    2    0    0  0.63463216079E+03 -0.53302907293E+03  0.53112442687E+03  0.99617407210E+03  0.15294330000E+03 0.  0.
<mgrwt>
<rscale>  0 0.99996478E+03</rscale>
<asrwt>0</asrwt>
<pdfrwt beam="1">  1        2 0.16243975E+00 0.10586256E+04</pdfrwt>
<pdfrwt beam="2">  1       -2 0.16983678E+00 0.10586256E+04</pdfrwt>
<totfact> 0.48874820E+00</totfact>
</mgrwt>
</event>
<event>
 4    1  0.6502538E-008  0.1549944E+04  0.7818608E-02  0.8875151E-01
         -2   -1    0    0    0  501 -0.00000000000E+00  0.00000000000E+00  0.18070202034E+04  0.18070202034E+04  0.25500000000E-02 0.  1.
          2   -1    0    0  501    0  0.00000000000E+00 -0.00000000000E+00 -0.18258067517E+04  0.18258067517E+04  0.25500000000E-02 0. -1.
    8880023    1    1    2    0    0 -0.94422280666E+03  0.10377660599E+04  0.10416823484E+04  0.18674655083E+04  0.65864270000E+03 0.  1.
    8880022    1    1    2    0    0  0.94422280666E+03 -0.10377660599E+04 -0.10604688967E+04  0.17653614467E+04  0.15294330000E+03 0.  0.
<mgrwt>
<rscale>  0 0.15140686E+04</rscale>
<asrwt>0</asrwt>
<pdfrwt beam="1">  1        2 0.28089334E+00 0.15499436E+04</pdfrwt>
<pdfrwt beam="2">  1       -2 0.27800311E+00 0.15499436E+04</pdfrwt>
<totfact> 0.33740203E-01</totfact>
</mgrwt>
</event>
<event>
 4    1  0.6502538E-008  0.9831990E+03  0.7818608E-02  0.9403876E-01
         -2   -1    0    0    0  501 -0.00000000000E+00  0.00000000000E+00  0.78859435632E+03  0.78859435633E+03  0.25500000000E-02 0.  1.
          2   -1    0    0  501    0  0.00000000000E+00 -0.00000000000E+00 -0.13871741141E+04  0.13871741141E+04  0.25500000000E-02 0. -1.
    8880023    1    1    2    0    0  0.54015438442E+02 -0.72797830717E+03 -0.93570449091E+03  0.13572852257E+04  0.65864270000E+03 0. -1.
    8880022    1    1    2    0    0 -0.54015438442E+02  0.72797830717E+03  0.33712473309E+03  0.81848324478E+03  0.15294330000E+03 0.  0.
<mgrwt>
<rscale>  0 0.91757373E+03</rscale>
<asrwt>0</asrwt>
<pdfrwt beam="1">  1        2 0.21341140E+00 0.98319901E+03</pdfrwt>
<pdfrwt beam="2">  1       -2 0.12132221E+00 0.98319901E+03</pdfrwt>
<totfact> 0.75667278E+00</totfact>
</mgrwt>
</event>
<event>
 4    1  0.6502538E-008  0.1610824E+04  0.7818608E-02  0.8835100E-01
          2   -1    0    0  501    0  0.00000000000E+00  0.00000000000E+00  0.14042753555E+04  0.14042753555E+04  0.25500000000E-02 0. -1.
         -2   -1    0    0    0  501 -0.00000000000E+00 -0.00000000000E+00 -0.21332422866E+04  0.21332422866E+04  0.25500000000E-02 0.  1.
    8880023    1    1    2    0    0 -0.14678137534E+04  0.80424315972E+02  0.42094408041E+03  0.16649172383E+04  0.65864270000E+03 0.  0.
    8880022    1    1    2    0    0  0.14678137534E+04 -0.80424315972E+02 -0.11499110115E+04  0.18726004039E+04  0.15294330000E+03 0.  0.
<mgrwt>
<rscale>  0 0.15765259E+04</rscale>
<asrwt>0</asrwt>
<pdfrwt beam="1">  1        2 0.21604236E+00 0.16108245E+04</pdfrwt>
<pdfrwt beam="2">  1       -2 0.32819112E+00 0.16108245E+04</pdfrwt>
<totfact> 0.28558032E-01</totfact>
</mgrwt>
</event>
<event>
 4    1  0.6502538E-008  0.7381690E+03  0.7818608E-02  0.9865313E-01
          2   -1    0    0  501    0  0.00000000000E+00  0.00000000000E+00  0.24089224872E+04  0.24089224872E+04  0.25500000000E-02 0. -1.
         -2   -1    0    0    0  501 -0.00000000000E+00 -0.00000000000E+00 -0.80855881767E+03  0.80855881767E+03  0.25500000000E-02 0.  1.
    8880023    1    1    2    0    0  0.32260935912E+03  0.83704402363E+02  0.23065331952E+04  0.24217738979E+04  0.65864270000E+03 0. -1.
    8880022    1    1    2    0    0 -0.32260935912E+03 -0.83704402363E+02 -0.70616952567E+03  0.79570740701E+03  0.15294330000E+03 0.  0.
<mgrwt>
<rscale>  0 0.61972210E+03</rscale>
<asrwt>0</asrwt>
<pdfrwt beam="1">  1        2 0.37060345E+00 0.73816897E+03</pdfrwt>
<pdfrwt beam="2">  1       -2 0.12439367E+00 0.73816897E+03</pdfrwt>
<totfact> 0.20034331E+00</totfact>
</mgrwt>
</event>
<event>
 4    1  0.6502538E-008  0.1060750E+04  0.7818608E-02  0.9306069E-01
          2   -1    0    0  501    0  0.00000000000E+00  0.00000000000E+00  0.24309266262E+04  0.24309266262E+04  0.25500000000E-02 0. -1.
         -2   -1    0    0    0  501 -0.00000000000E+00 -0.00000000000E+00 -0.50485932176E+03  0.50485932177E+03  0.25500000000E-02 0.  1.
    8880023    1    1    2    0    0  0.21755694231E+03 -0.80252675877E+03  0.17882434806E+04  0.20791837759E+04  0.65864270000E+03 0.  0.
    8880022    1    1    2    0    0 -0.21755694231E+03  0.80252675877E+03  0.13782382376E+03  0.85660217202E+03  0.15294330000E+03 0.  0.
<mgrwt>
<rscale>  0 0.10022607E+04</rscale>
<asrwt>0</asrwt>
<pdfrwt beam="1">  1        2 0.37398872E+00 0.10607499E+04</pdfrwt>
<pdfrwt beam="2">  1       -2 0.77670663E-01 0.10607499E+04</pdfrwt>
<totfact> 0.56451346E+00</totfact>
</mgrwt>
</event>
<event>
 4    1  0.6502538E-008  0.9058923E+03  0.7818608E-02  0.9516638E-01
         -2   -1    0    0    0  501 -0.00000000000E+00  0.00000000000E+00  0.99234661039E+03  0.99234661039E+03  0.25500000000E-02 0.  1.
          2   -1    0    0  501    0  0.00000000000E+00 -0.00000000000E+00 -0.12924498487E+04  0.12924498487E+04  0.25500000000E-02 0. -1.
    8880023    1    1    2    0    0  0.31580651162E+03  0.53581425662E+03 -0.99102534524E+03  0.13426734940E+04  0.65864270000E+03 0.  0.
    8880022    1    1    2    0    0 -0.31580651162E+03 -0.53581425662E+03  0.69092210696E+03  0.94212296505E+03  0.15294330000E+03 0.  0.
<mgrwt>
<rscale>  0 0.83068208E+03</rscale>
<asrwt>0</asrwt>
<pdfrwt beam="1">  1        2 0.19883844E+00 0.90589231E+03</pdfrwt>
<pdfrwt beam="2">  1       -2 0.15266871E+00 0.90589231E+03</pdfrwt>
<totfact> 0.47849489E+00</totfact>
</mgrwt>
</event>
<event>
 4    1  0.6502538E-008  0.7128089E+03  0.7818608E-02  0.9947714E-01
          2   -1    0    0  501    0  0.00000000000E+00  0.00000000000E+00  0.10031727386E+04  0.10031727386E+04  0.25500000000E-02 0. -1.
         -2   -1    0    0    0  501 -0.00000000000E+00 -0.00000000000E+00 -0.21306950254E+04  0.21306950254E+04  0.25500000000E-02 0.  1.
    8880023    1    1    2    0    0  0.26844749243E+03  0.47141448335E+02  0.86279776779E+03  0.11191588657E+04  0.65864270000E+03 0.  0.
    8880022    1    1    2    0    0 -0.26844749243E+03 -0.47141448335E+02 -0.19903200546E+04  0.20147088983E+04  0.15294330000E+03 0.  0.
<mgrwt>
<rscale>  0 0.58003535E+03</rscale>
<asrwt>0</asrwt>
<pdfrwt beam="1">  1        2 0.15433427E+00 0.71280894E+03</pdfrwt>
<pdfrwt beam="2">  1       -2 0.32779923E+00 0.71280894E+03</pdfrwt>
<totfact> 0.57032782E-01</totfact>
</mgrwt>
</event>
<event>
 4    1  0.6502538E-008  0.7494072E+03  0.7818608E-02  0.9833346E-01
          2   -1    0    0  501    0  0.00000000000E+00  0.00000000000E+00  0.11877842791E+04  0.11877842791E+04  0.25500000000E-02 0. -1.
         -2   -1    0    0    0  501 -0.00000000000E+00 -0.00000000000E+00 -0.66975270805E+03  0.66975270806E+03  0.25500000000E-02 0.  1.
    8880023    1    1    2    0    0 -0.18968094147E+03 -0.30302154087E+03  0.99278169446E+03  0.12438756421E+04  0.65864270000E+03 0. -1.
    8880022    1    1    2    0    0  0.18968094147E+03  0.30302154087E+03 -0.47475012341E+03  0.61366134511E+03  0.15294330000E+03 0.  0.
<mgrwt>
<rscale>  0 0.63603306E+03</rscale>
<asrwt>0</asrwt>
<pdfrwt beam="1">  1        2 0.18273604E+00 0.74940718E+03</pdfrwt>
<pdfrwt beam="2">  1       -2 0.10303888E+00 0.74940718E+03</pdfrwt>
<totfact> 0.15100329E+01</totfact>
</mgrwt>
</event>
<event>
 4    1  0.6502538E-008  0.1475955E+04  0.7818608E-02  0.8926804E-01
         -2   -1    0    0    0  501 -0.00000000000E+00  0.00000000000E+00  0.14394183235E+04  0.14394183235E+04  0.25500000000E-02 0.  1.
          2   -1    0    0  501    0  0.00000000000E+00 -0.00000000000E+00 -0.25484284695E+04  0.25484284696E+04  0.25500000000E-02 0. -1.
    8880023    1    1    2    0    0  0.13190999782E+03  0.13142418100E+04  0.78652845138E+03  0.16724440181E+04  0.65864270000E+03 0.  0.
    8880022    1    1    2    0    0 -0.13190999782E+03 -0.13142418100E+04 -0.18955385975E+04  0.23154027749E+04  0.15294330000E+03 0.  0.
<mgrwt>
<rscale>  0 0.14379400E+04</rscale>
<asrwt>0</asrwt>
<pdfrwt beam="1">  1        2 0.39206592E+00 0.14759546E+04</pdfrwt>
<pdfrwt beam="2">  1       -2 0.22144897E+00 0.14759546E+04</pdfrwt>
<totfact> 0.29719626E-01</totfact>
</mgrwt>
</event>
<event>
 4    1  0.6502538E-008  0.8699235E+03  0.7818608E-02  0.9576149E-01
         -2   -1    0    0    0  501 -0.00000000000E+00  0.00000000000E+00  0.52672120173E+03  0.52672120174E+03  0.25500000000E-02 0.  1.
          2   -1    0    0  501    0  0.00000000000E+00 -0.00000000000E+00 -0.20714556710E+04  0.20714556710E+04  0.25500000000E-02 0. -1.
    8880023    1    1    2    0    0  0.42947635623E+03 -0.37216495778E+03 -0.17666465283E+04  0.19692147822E+04  0.65864270000E+03 0.  0.
    8880022    1    1    2    0    0 -0.42947635623E+03  0.37216495778E+03  0.22191205902E+03  0.62896209052E+03  0.15294330000E+03 0.  0.
<mgrwt>
<rscale>  0 0.78895083E+03</rscale>
<asrwt>0</asrwt>
<pdfrwt beam="1">  1        2 0.31868548E+00 0.86992350E+03</pdfrwt>
<pdfrwt beam="2">  1       -2 0.81034032E-01 0.86992350E+03</pdfrwt>
<totfact> 0.83444887E+00</totfact>
</mgrwt>
</event>
<event>
 4    1  0.6502538E-008  0.2116439E+04  0.7818608E-02  0.8565144E-01
         -2   -1    0    0    0  501 -0.00000000000E+00  0.00000000000E+00  0.15516855063E+04  0.15516855063E+04  0.25500000000E-02 0.  1.
          2   -1    0    0  501    0  0.00000000000E+00 -0.00000000000E+00 -0.29324106275E+04  0.29324106275E+04  0.25500000000E-02 0. -1.
    8880023    1    1    2    0    0 -0.20701542306E+03 -0.20006617872E+04 -0.12605002399E+04  0.24633664025E+04  0.65864270000E+03 0.  0.
    8880022    1    1    2    0    0  0.20701542306E+03  0.20006617872E+04 -0.12022488127E+03  0.20207297313E+04  0.15294330000E+03 0.  0.
<mgrwt>
<rscale>  0 0.20911676E+04</rscale>
<asrwt>0</asrwt>
<pdfrwt beam="1">  1        2 0.45114010E+00 0.21164388E+04</pdfrwt>
<pdfrwt beam="2">  1       -2 0.23872085E+00 0.21164388E+04</pdfrwt>
<totfact> 0.12732885E-01</totfact>
</mgrwt>
</event>
<event>
 4    1  0.6502538E-008  0.1660107E+04  0.7818608E-02  0.8804142E-01
         -2   -1    0    0    0  501 -0.00000000000E+00  0.00000000000E+00  0.27595934641E+04  0.27595934641E+04  0.25500000000E-02 0.  1.
          2   -1    0    0  501    0  0.00000000000E+00 -0.00000000000E+00 -0.15348643122E+04  0.15348643122E+04  0.25500000000E-02 0. -1.
    8880023    1    1    2    0    0  0.99779197249E+03  0.11517622559E+04 -0.72806006209E+03  0.18127401289E+04  0.65864270000E+03 0.  0.
    8880022    1    1    2    0    0 -0.99779197249E+03 -0.11517622559E+04  0.19527892139E+04  0.24817176474E+04  0.15294330000E+03 0.  0.
<mgrwt>
<rscale>  0 0.16269805E+04</rscale>
<asrwt>0</asrwt>
<pdfrwt beam="1">  1        2 0.23613297E+00 0.16601070E+04</pdfrwt>
<pdfrwt beam="2">  1       -2 0.42455284E+00 0.16601070E+04</pdfrwt>
<totfact> 0.57333647E-02</totfact>
</mgrwt>
</event>
<event>
 4    1  0.6502538E-008  0.9547933E+03  0.7818608E-02  0.9443251E-01
          2   -1    0    0  501    0  0.00000000000E+00  0.00000000000E+00  0.44984080567E+04  0.44984080567E+04  0.25500000000E-02 0. -1.
         -2   -1    0    0    0  501 -0.00000000000E+00 -0.00000000000E+00 -0.15422414620E+03  0.15422414622E+03  0.25500000000E-02 0.  1.
    8880023    1    1    2    0    0 -0.15705914175E+03 -0.67316604984E+03  0.23532164771E+04  0.25395389541E+04  0.65864270000E+03 0.  0.
    8880022    1    1    2    0    0  0.15705914175E+03  0.67316604984E+03  0.19909674334E+04  0.21130932489E+04  0.15294330000E+03 0.  0.
<mgrwt>
<rscale>  0 0.88600198E+03</rscale>
<asrwt>0</asrwt>
<pdfrwt beam="1">  1        2 0.69206282E+00 0.95479333E+03</pdfrwt>
<pdfrwt beam="2">  1       -2 0.23726790E-01 0.95479333E+03</pdfrwt>
<totfact> 0.21108043E+00</totfact>
</mgrwt>
</event>
<event>
 4    1  0.6502538E-008  0.6784565E+03  0.7818608E-02  0.1010211E+00
          2   -1    0    0  501    0  0.00000000000E+00  0.00000000000E+00  0.29742956254E+04  0.29742956254E+04  0.25500000000E-02 0. -1.
         -2   -1    0    0    0  501 -0.00000000000E+00 -0.00000000000E+00 -0.24856511343E+03  0.24856511344E+03  0.25500000000E-02 0.  1.
    8880023    1    1    2    0    0 -0.11958202005E+03  0.11042282365E+03  0.28751667876E+04  0.29541305527E+04  0.65864270000E+03 0. -1.
    8880022    1    1    2    0    0  0.11958202005E+03 -0.11042282365E+03 -0.14943627559E+03  0.26873018620E+03  0.15294330000E+03 0.  0.
<mgrwt>
<rscale>  0 0.51391046E+03</rscale>
<asrwt>0</asrwt>
<pdfrwt beam="1">  1        2 0.45758393E+00 0.67845653E+03</pdfrwt>
<pdfrwt beam="2">  1       -2 0.38240788E-01 0.67845653E+03</pdfrwt>
<totfact> 0.12546174E+01</totfact>
</mgrwt>
</event>
<event>
 4    1  0.8643616E-008  0.1082182E+04  0.7818608E-02  0.9281158E-01
          2   -1    0    0  501    0  0.00000000000E+00  0.00000000000E+00  0.23782180640E+04  0.23782180640E+04  0.25500000000E-02 0. -1.
         -2   -1    0    0    0  501 -0.00000000000E+00 -0.00000000000E+00 -0.15568042794E+04  0.15568042794E+04  0.25500000000E-02 0.  1.
    8880023    1    1    2    0    0  0.20513682794E+03  0.83380262363E+03  0.21144711290E+04  0.23753118311E+04  0.65864270000E+03 0.  0.
    8880022    1    1    2    0    0 -0.20513682794E+03 -0.83380262363E+03 -0.12930573444E+04  0.15597105123E+04  0.15294330000E+03 0.  0.
<mgrwt>
<rscale>  0 0.10253613E+04</rscale>
<asrwt>0</asrwt>
<pdfrwt beam="1">  1        2 0.36587970E+00 0.10821821E+04</pdfrwt>
<pdfrwt beam="2">  1       -2 0.23950835E+00 0.10821821E+04</pdfrwt>
<totfact> 0.30327054E-01</totfact>
</mgrwt>
</event>
<event>
 4    1  0.6502538E-008  0.7158797E+03  0.7818608E-02  0.9936783E-01
          2   -1    0    0  501    0  0.00000000000E+00  0.00000000000E+00  0.69943437655E+03  0.69943437656E+03  0.25500000000E-02 0. -1.
         -2   -1    0    0    0  501 -0.00000000000E+00 -0.00000000000E+00 -0.88736944832E+03  0.88736944832E+03  0.25500000000E-02 0.  1.
    8880023    1    1    2    0    0 -0.27059676354E+03 -0.73830093669E+02  0.46932813263E+03  0.85600969242E+03  0.65864270000E+03 0. -1.
    8880022    1    1    2    0    0  0.27059676354E+03  0.73830093669E+02 -0.65726320440E+03  0.73079413246E+03  0.15294330000E+03 0.  0.
<mgrwt>
<rscale>  0 0.58511294E+03</rscale>
<asrwt>0</asrwt>
<pdfrwt beam="1">  1        2 0.10760529E+00 0.71587967E+03</pdfrwt>
<pdfrwt beam="2">  1       -2 0.13651838E+00 0.71587967E+03</pdfrwt>
<totfact> 0.16005534E+01</totfact>
</mgrwt>
</event>
<event>
 4    1  0.6502538E-008  0.2491457E+04  0.7818608E-02  0.8413663E-01
          2   -1    0    0  501    0  0.00000000000E+00  0.00000000000E+00  0.36626351244E+04  0.36626351244E+04  0.25500000000E-02 0. -1.
         -2   -1    0    0    0  501 -0.00000000000E+00 -0.00000000000E+00 -0.19697275673E+04  0.19697275674E+04  0.25500000000E-02 0.  1.
    8880023    1    1    2    0    0  0.20413366007E+04 -0.12674752801E+04  0.20135851437E+04  0.32034175564E+04  0.65864270000E+03 0.  0.
    8880022    1    1    2    0    0 -0.20413366007E+04  0.12674752801E+04 -0.32067758667E+03  0.24289451354E+04  0.15294330000E+03 0.  0.
<mgrwt>
<rscale>  0 0.24702444E+04</rscale>
<asrwt>0</asrwt>
<pdfrwt beam="1">  1        2 0.56348233E+00 0.24914572E+04</pdfrwt>
<pdfrwt beam="2">  1       -2 0.30303501E+00 0.24914572E+04</pdfrwt>
<totfact> 0.15909361E-02</totfact>
</mgrwt>
</event>
<event>
 4    1  0.6502538E-008  0.1197996E+04  0.7818608E-02  0.9159073E-01
          2   -1    0    0  501    0  0.00000000000E+00  0.00000000000E+00  0.22960965218E+04  0.22960965218E+04  0.25500000000E-02 0. -1.
         -2   -1    0    0    0  501 -0.00000000000E+00 -0.00000000000E+00 -0.55325501789E+03  0.55325501790E+03  0.25500000000E-02 0.  1.
    8880023    1    1    2    0    0 -0.81788352419E+03  0.57658499619E+03  0.66305941282E+03  0.13692485925E+04  0.65864270000E+03 0.  0.
    8880022    1    1    2    0    0  0.81788352419E+03 -0.57658499619E+03  0.10797820911E+04  0.14801029472E+04  0.15294330000E+03 0.  0.
<mgrwt>
<rscale>  0 0.11486033E+04</rscale>
<asrwt>0</asrwt>
<pdfrwt beam="1">  1        2 0.35324562E+00 0.11979958E+04</pdfrwt>
<pdfrwt beam="2">  1       -2 0.85116156E-01 0.11979958E+04</pdfrwt>
<totfact> 0.53835006E+00</totfact>
</mgrwt>
</event>
<event>
 4    1  0.6502538E-008  0.9943681E+03  0.7818608E-02  0.9388963E-01
          2   -1    0    0  501    0  0.00000000000E+00  0.00000000000E+00  0.21001088510E+04  0.21001088510E+04  0.25500000000E-02 0. -1.
         -2   -1    0    0    0  501 -0.00000000000E+00 -0.00000000000E+00 -0.13797880737E+04  0.13797880737E+04  0.25500000000E-02 0.  1.
    8880023    1    1    2    0    0  0.73772587310E+03  0.10352863712E+03  0.18603882937E+04  0.21094578574E+04  0.65864270000E+03 0.  0.
    8880022    1    1    2    0    0 -0.73772587310E+03 -0.10352863712E+03 -0.11400675163E+04  0.13704390673E+04  0.15294330000E+03 0.  0.
<mgrwt>
<rscale>  0 0.92989551E+03</rscale>
<asrwt>0</asrwt>
<pdfrwt beam="1">  1        2 0.32309367E+00 0.99436807E+03</pdfrwt>
<pdfrwt beam="2">  1       -2 0.21227509E+00 0.99436807E+03</pdfrwt>
<totfact> 0.65158674E-01</totfact>
</mgrwt>
</event>
<event>
 4    1  0.6502538E-008  0.6787220E+03  0.7818608E-02  0.1010056E+00
         -2   -1    0    0    0  501 -0.00000000000E+00  0.00000000000E+00  0.16361573056E+04  0.16361573056E+04  0.25500000000E-02 0.  1.
          2   -1    0    0  501    0  0.00000000000E+00 -0.00000000000E+00 -0.87278743183E+03  0.87278743183E+03  0.25500000000E-02 0. -1.
    8880023    1    1    2    0    0 -0.11113029917E+03 -0.12043021233E+03 -0.73120196328E+03  0.99765720406E+03  0.65864270000E+03 0. -1.
    8880022    1    1    2    0    0  0.11113029917E+03  0.12043021233E+03  0.14945718370E+04  0.15112875333E+04  0.15294330000E+03 0.  0.
<mgrwt>
<rscale>  0 0.51452395E+03</rscale>
<asrwt>0</asrwt>
<pdfrwt beam="1">  1        2 0.13427499E+00 0.67872202E+03</pdfrwt>
<pdfrwt beam="2">  1       -2 0.25171650E+00 0.67872202E+03</pdfrwt>
<totfact> 0.20070333E+00</totfact>
</mgrwt>
</event>
<event>
 4    1  0.6502538E-008  0.7482451E+03  0.7818608E-02  0.9836549E-01
          2   -1    0    0  501    0  0.00000000000E+00  0.00000000000E+00  0.70805153858E+03  0.70805153858E+03  0.25500000000E-02 0. -1.
         -2   -1    0    0    0  501 -0.00000000000E+00 -0.00000000000E+00 -0.12077499312E+04  0.12077499312E+04  0.25500000000E-02 0.  1.
    8880023    1    1    2    0    0  0.32761481643E+03  0.13685397010E+03  0.46194922638E+03  0.87935645281E+03  0.65864270000E+03 0. -1.
    8880022    1    1    2    0    0 -0.32761481643E+03 -0.13685397010E+03 -0.96164761905E+03  0.10364450170E+04  0.15294330000E+03 0.  0.
<mgrwt>
<rscale>  0 0.63437442E+03</rscale>
<asrwt>0</asrwt>
<pdfrwt beam="1">  1        2 0.10893101E+00 0.74824507E+03</pdfrwt>
<pdfrwt beam="2">  1       -2 0.18580768E+00 0.74824507E+03</pdfrwt>
<totfact> 0.68092205E+00</totfact>
</mgrwt>
</event>
<event>
 4    1  0.6502538E-008  0.1240969E+04  0.7818608E-02  0.9118291E-01
         -2   -1    0    0    0  501 -0.00000000000E+00  0.00000000000E+00  0.95016726848E+03  0.95016726848E+03  0.25500000000E-02 0.  1.
          2   -1    0    0  501    0  0.00000000000E+00 -0.00000000000E+00 -0.18748076346E+04  0.18748076346E+04  0.25500000000E-02 0. -1.
    8880023    1    1    2    0    0  0.25064845903E+03  0.10214547358E+04 -0.12008396926E+04  0.17268528023E+04  0.65864270000E+03 0.  0.
    8880022    1    1    2    0    0 -0.25064845903E+03 -0.10214547358E+04  0.27619932647E+03  0.10981221008E+04  0.15294330000E+03 0.  0.
<mgrwt>
<rscale>  0 0.11938113E+04</rscale>
<asrwt>0</asrwt>
<pdfrwt beam="1">  1        2 0.28843194E+00 0.12409692E+04</pdfrwt>
<pdfrwt beam="2">  1       -2 0.14617958E+00 0.12409692E+04</pdfrwt>
<totfact> 0.24369375E+00</totfact>
</mgrwt>
</event>
<event>
 4    1  0.6502538E-008  0.1134371E+04  0.7818608E-02  0.9223720E-01
         -2   -1    0    0    0  501 -0.00000000000E+00  0.00000000000E+00  0.76236630085E+03  0.76236630085E+03  0.25500000000E-02 0.  1.
          2   -1    0    0  501    0  0.00000000000E+00 -0.00000000000E+00 -0.30007083561E+04  0.30007083561E+04  0.25500000000E-02 0. -1.
    8880023    1    1    2    0    0 -0.25682803119E+03 -0.88714490881E+03 -0.25381331302E+04  0.27800929336E+04  0.65864270000E+03 0.  0.
    8880022    1    1    2    0    0  0.25682803119E+03  0.88714490881E+03  0.29979107490E+03  0.98298172335E+03  0.15294330000E+03 0.  0.
<mgrwt>
<rscale>  0 0.10811917E+04</rscale>
<asrwt>0</asrwt>
<pdfrwt beam="1">  1        2 0.46164743E+00 0.11343707E+04</pdfrwt>
<pdfrwt beam="2">  1       -2 0.11728712E+00 0.11343707E+04</pdfrwt>
<totfact> 0.97479612E-01</totfact>
</mgrwt>
</event>
<event>
 4    1  0.6502538E-008  0.1915721E+04  0.7818608E-02  0.8661088E-01
          2   -1    0    0  501    0  0.00000000000E+00  0.00000000000E+00  0.28790021420E+04  0.28790021420E+04  0.25500000000E-02 0. -1.
         -2   -1    0    0    0  501 -0.00000000000E+00 -0.00000000000E+00 -0.13798352757E+04  0.13798352757E+04  0.25500000000E-02 0.  1.
    8880023    1    1    2    0    0 -0.78203011024E+03 -0.16200637683E+04  0.15322353929E+04  0.24531068489E+04  0.65864270000E+03 0.  0.
    8880022    1    1    2    0    0  0.78203011024E+03  0.16200637683E+04 -0.33068526686E+02  0.18057305688E+04  0.15294330000E+03 0.  0.
<mgrwt>
<rscale>  0 0.18875318E+04</rscale>
<asrwt>0</asrwt>
<pdfrwt beam="1">  1        2 0.44292340E+00 0.19157213E+04</pdfrwt>
<pdfrwt beam="2">  1       -2 0.21228235E+00 0.19157213E+04</pdfrwt>
<totfact> 0.20609227E-01</totfact>
</mgrwt>
</event>
<event>
 4    1  0.6502538E-008  0.1338789E+04  0.7818608E-02  0.9032767E-01
          2   -1    0    0  501    0  0.00000000000E+00  0.00000000000E+00  0.32605696442E+04  0.32605696442E+04  0.25500000000E-02 0. -1.
         -2   -1    0    0    0  501 -0.00000000000E+00 -0.00000000000E+00 -0.74004613254E+03  0.74004613255E+03  0.25500000000E-02 0.  1.
    8880023    1    1    2    0    0 -0.11277663398E+04 -0.29442990709E+03  0.24871504436E+04  0.28245837609E+04  0.65864270000E+03 0.  0.
    8880022    1    1    2    0    0  0.11277663398E+04  0.29442990709E+03  0.33373068053E+02  0.11760320158E+04  0.15294330000E+03 0.  0.
<mgrwt>
<rscale>  0 0.12959706E+04</rscale>
<asrwt>0</asrwt>
<pdfrwt beam="1">  1        2 0.50162609E+00 0.13387890E+04</pdfrwt>
<pdfrwt beam="2">  1       -2 0.11385325E+00 0.13387890E+04</pdfrwt>
<totfact> 0.69707834E-01</totfact>
</mgrwt>
</event>
<event>
 4    1  0.6502538E-008  0.6671807E+03  0.7818608E-02  0.1017770E+00
          2   -1    0    0  501    0  0.00000000000E+00  0.00000000000E+00  0.67518189984E+03  0.67518189984E+03  0.25500000000E-02 0. -1.
         -2   -1    0    0    0  501 -0.00000000000E+00 -0.00000000000E+00 -0.46791507551E+03  0.46791507552E+03  0.25500000000E-02 0.  1.
    8880023    1    1    2    0    0  0.10330528683E+03  0.25453666632E+02  0.47351501397E+03  0.81813601935E+03  0.65864270000E+03 0.  0.
    8880022    1    1    2    0    0 -0.10330528683E+03 -0.25453666632E+02 -0.26624818964E+03  0.32496095602E+03  0.15294330000E+03 0.  0.
<mgrwt>
<rscale>  0 0.48500008E+03</rscale>
<asrwt>0</asrwt>
<pdfrwt beam="1">  1        2 0.10387414E+00 0.66718069E+03</pdfrwt>
<pdfrwt beam="2">  1       -2 0.71986935E-01 0.66718069E+03</pdfrwt>
<totfact> 0.76326383E+01</totfact>
</mgrwt>
</event>
<event>
 4    1  0.6502538E-008  0.1503003E+04  0.7818608E-02  0.8907518E-01
          2   -1    0    0  501    0  0.00000000000E+00  0.00000000000E+00  0.16084069277E+04  0.16084069277E+04  0.25500000000E-02 0. -1.
         -2   -1    0    0    0  501 -0.00000000000E+00 -0.00000000000E+00 -0.14287050427E+04  0.14287050427E+04  0.25500000000E-02 0.  1.
    8880023    1    1    2    0    0  0.57680496436E+03  0.12216808608E+04  0.59344789773E+03  0.16159203898E+04  0.65864270000E+03 0.  0.
    8880022    1    1    2    0    0 -0.57680496436E+03 -0.12216808608E+04 -0.41374601280E+03  0.14211915806E+04  0.15294330000E+03 0.  0.
<mgrwt>
<rscale>  0 0.14658019E+04</rscale>
<asrwt>0</asrwt>
<pdfrwt beam="1">  1        2 0.24744722E+00 0.15030031E+04</pdfrwt>
<pdfrwt beam="2">  1       -2 0.21980078E+00 0.15030031E+04</pdfrwt>
<totfact> 0.10279083E+00</totfact>
</mgrwt>
</event>
<event>
 4    1  0.6502538E-008  0.7892221E+03  0.7818608E-02  0.9734604E-01
         -2   -1    0    0    0  501 -0.00000000000E+00  0.00000000000E+00  0.31524653132E+03  0.31524653133E+03  0.25500000000E-02 0.  1.
          2   -1    0    0  501    0  0.00000000000E+00 -0.00000000000E+00 -0.25960500237E+04  0.25960500238E+04  0.25500000000E-02 0. -1.
    8880023    1    1    2    0    0 -0.43270525420E+03  0.42749807231E+02 -0.23181943290E+04  0.24488561690E+04  0.65864270000E+03 0.  0.
    8880022    1    1    2    0    0  0.43270525420E+03 -0.42749807231E+02  0.37390836564E+02  0.46244038611E+03  0.15294330000E+03 0.  0.
<mgrwt>
<rscale>  0 0.68993363E+03</rscale>
<asrwt>0</asrwt>
<pdfrwt beam="1">  1        2 0.39939230E+00 0.78922214E+03</pdfrwt>
<pdfrwt beam="2">  1       -2 0.48499468E-01 0.78922214E+03</pdfrwt>
<totfact> 0.12858889E+01</totfact>
</mgrwt>
</event>
<event>
 4    1  0.6502538E-008  0.9563194E+03  0.7818608E-02  0.9441080E-01
          2   -1    0    0  501    0  0.00000000000E+00  0.00000000000E+00  0.13514010616E+04  0.13514010616E+04  0.25500000000E-02 0. -1.
         -2   -1    0    0    0  501 -0.00000000000E+00 -0.00000000000E+00 -0.82951444029E+03  0.82951444029E+03  0.25500000000E-02 0.  1.
    8880023    1    1    2    0    0 -0.69272545897E+03  0.29461838476E+02  0.95313570957E+03  0.13501905231E+04  0.65864270000E+03 0. -1.
    8880022    1    1    2    0    0  0.69272545897E+03 -0.29461838476E+02 -0.43124908822E+03  0.83072497888E+03  0.15294330000E+03 0.  0.
<mgrwt>
<rscale>  0 0.88770741E+03</rscale>
<asrwt>0</asrwt>
<pdfrwt beam="1">  1        2 0.20790785E+00 0.95631939E+03</pdfrwt>
<pdfrwt beam="2">  1       -2 0.12761761E+00 0.95631939E+03</pdfrwt>
<totfact> 0.70047654E+00</totfact>
</mgrwt>
</event>
<event>
 4    1  0.6502538E-008  0.7221419E+03  0.7818608E-02  0.9915404E-01
         -2   -1    0    0    0  501 -0.00000000000E+00  0.00000000000E+00  0.39772212341E+03  0.39772212342E+03  0.25500000000E-02 0.  1.
          2   -1    0    0  501    0  0.00000000000E+00 -0.00000000000E+00 -0.23203279168E+04  0.23203279168E+04  0.25500000000E-02 0. -1.
    8880023    1    1    2    0    0  0.24969429013E+03 -0.15915855617E+03 -0.21802939627E+04  0.22967739668E+04  0.65864270000E+03 0.  0.
    8880022    1    1    2    0    0 -0.24969429013E+03  0.15915855617E+03  0.25768816923E+03  0.42127607350E+03  0.15294330000E+03 0.  0.
<mgrwt>
<rscale>  0 0.59520512E+03</rscale>
<asrwt>0</asrwt>
<pdfrwt beam="1">  1        2 0.35697352E+00 0.72214188E+03</pdfrwt>
<pdfrwt beam="2">  1       -2 0.61188020E-01 0.72214188E+03</pdfrwt>
<totfact> 0.11493709E+01</totfact>
</mgrwt>
</event>
<event>
 4    1  0.6502538E-008  0.7237316E+03  0.7818608E-02  0.9910156E-01
         -2   -1    0    0    0  501 -0.00000000000E+00  0.00000000000E+00  0.39265524575E+03  0.39265524576E+03  0.25500000000E-02 0.  1.
          2   -1    0    0  501    0  0.00000000000E+00 -0.00000000000E+00 -0.16064923119E+04  0.16064923120E+04  0.25500000000E-02 0. -1.
    8880023    1    1    2    0    0  0.14386998184E+03  0.26320842316E+03 -0.14274237676E+04  0.16004143415E+04  0.65864270000E+03 0. -1.
    8880022    1    1    2    0    0 -0.14386998184E+03 -0.26320842316E+03  0.21358670143E+03  0.39873321625E+03  0.15294330000E+03 0.  0.
<mgrwt>
<rscale>  0 0.59771603E+03</rscale>
<asrwt>0</asrwt>
<pdfrwt beam="1">  1        2 0.24715266E+00 0.72373162E+03</pdfrwt>
<pdfrwt beam="2">  1       -2 0.60408500E-01 0.72373162E+03</pdfrwt>
<totfact> 0.29035836E+01</totfact>
</mgrwt>
</event>
<event>
 4    1  0.6502538E-008  0.1008679E+04  0.7818608E-02  0.9370289E-01
         -2   -1    0    0    0  501 -0.00000000000E+00  0.00000000000E+00  0.59763562773E+03  0.59763562774E+03  0.25500000000E-02 0.  1.
          2   -1    0    0  501    0  0.00000000000E+00 -0.00000000000E+00 -0.17239119894E+04  0.17239119894E+04  0.25500000000E-02 0. -1.
    8880023    1    1    2    0    0 -0.73231406674E+03  0.21757780206E+03 -0.11655965310E+04  0.15414439567E+04  0.65864270000E+03 0.  0.
    8880022    1    1    2    0    0  0.73231406674E+03 -0.21757780206E+03  0.39320169347E+02  0.78010366044E+03  0.15294330000E+03 0.  0.
<mgrwt>
<rscale>  0 0.94561610E+03</rscale>
<asrwt>0</asrwt>
<pdfrwt beam="1">  1        2 0.26521723E+00 0.10086794E+04</pdfrwt>
<pdfrwt beam="2">  1       -2 0.91943944E-01 0.10086794E+04</pdfrwt>
<totfact> 0.95379752E+00</totfact>
</mgrwt>
</event>
<event>
 4    1  0.6502538E-008  0.9938450E+03  0.7818608E-02  0.9389655E-01
         -2   -1    0    0    0  501 -0.00000000000E+00  0.00000000000E+00  0.68264268747E+03  0.68264268748E+03  0.25500000000E-02 0.  1.
          2   -1    0    0  501    0  0.00000000000E+00 -0.00000000000E+00 -0.15628803873E+04  0.15628803873E+04  0.25500000000E-02 0. -1.
    8880023    1    1    2    0    0  0.74357328494E+03  0.31882677731E+02  0.10718093389E+03  0.99960777011E+03  0.65864270000E+03 0.  1.
    8880022    1    1    2    0    0 -0.74357328494E+03 -0.31882677731E+02 -0.98741863374E+03  0.12459153047E+04  0.15294330000E+03 0.  0.
<mgrwt>
<rscale>  0 0.92931956E+03</rscale>
<asrwt>0</asrwt>
<pdfrwt beam="1">  1        2 0.24044314E+00 0.99384503E+03</pdfrwt>
<pdfrwt beam="2">  1       -2 0.10502195E+00 0.99384503E+03</pdfrwt>
<totfact> 0.85630149E+00</totfact>
</mgrwt>
</event>
<event>
 4    1  0.6502538E-008  0.1050805E+04  0.7818608E-02  0.9317914E-01
         -2   -1    0    0    0  501 -0.00000000000E+00  0.00000000000E+00  0.15356328159E+04  0.15356328159E+04  0.25500000000E-02 0.  1.
          2   -1    0    0  501    0  0.00000000000E+00 -0.00000000000E+00 -0.98036556051E+03  0.98036556052E+03  0.25500000000E-02 0. -1.
    8880023    1    1    2    0    0  0.48185708293E+03 -0.66196330267E+03 -0.50650276662E+03  0.11665062886E+04  0.65864270000E+03 0.  0.
    8880022    1    1    2    0    0 -0.48185708293E+03  0.66196330267E+03  0.10617700220E+04  0.13494920878E+04  0.15294330000E+03 0.  0.
<mgrwt>
<rscale>  0 0.99150270E+03</rscale>
<asrwt>0</asrwt>
<pdfrwt beam="1">  1        2 0.15082547E+00 0.10508053E+04</pdfrwt>
<pdfrwt beam="2">  1       -2 0.23625120E+00 0.10508053E+04</pdfrwt>
<totfact> 0.20052554E+00</totfact>
</mgrwt>
</event>
<event>
 4    1  0.6502538E-008  0.8558629E+03  0.7818608E-02  0.9600965E-01
         -2   -1    0    0    0  501 -0.00000000000E+00  0.00000000000E+00  0.44795256534E+03  0.44795256535E+03  0.25500000000E-02 0.  1.
          2   -1    0    0  501    0  0.00000000000E+00 -0.00000000000E+00 -0.15513971335E+04  0.15513971335E+04  0.25500000000E-02 0. -1.
    8880023    1    1    2    0    0  0.43106156136E+03  0.33597179741E+03 -0.11458999469E+04  0.14302405437E+04  0.65864270000E+03 0.  0.
    8880022    1    1    2    0    0 -0.43106156136E+03 -0.33597179741E+03  0.42455378672E+02  0.56910915519E+03  0.15294330000E+03 0.  0.
<mgrwt>
<rscale>  0 0.77232322E+03</rscale>
<asrwt>0</asrwt>
<pdfrwt beam="1">  1        2 0.23867648E+00 0.85586291E+03</pdfrwt>
<pdfrwt beam="2">  1       -2 0.68915780E-01 0.85586291E+03</pdfrwt>
<totfact> 0.23123634E+01</totfact>
</mgrwt>
</event>
<event>
 4    1  0.6502538E-008  0.1300609E+04  0.7818608E-02  0.9065034E-01
          2   -1    0    0  501    0  0.00000000000E+00  0.00000000000E+00  0.41903873269E+04  0.41903873269E+04  0.25500000000E-02 0. -1.
         -2   -1    0    0    0  501 -0.00000000000E+00 -0.00000000000E+00 -0.70567565530E+03  0.70567565531E+03  0.25500000000E-02 0.  1.
    8880023    1    1    2    0    0 -0.50638490792E+03 -0.10006734418E+04  0.35313210925E+04  0.37632182871E+04  0.65864270000E+03 0.  0.
    8880022    1    1    2    0    0  0.50638490792E+03  0.10006734418E+04 -0.46609420885E+02  0.11328446951E+04  0.15294330000E+03 0.  0.
<mgrwt>
<rscale>  0 0.12562053E+04</rscale>
<asrwt>0</asrwt>
<pdfrwt beam="1">  1        2 0.64467497E+00 0.13006088E+04</pdfrwt>
<pdfrwt beam="2">  1       -2 0.10856549E+00 0.13006088E+04</pdfrwt>
<totfact> 0.16094582E-01</totfact>
</mgrwt>
</event>
<event>
 4    1  0.6502538E-008  0.7470438E+03  0.7818608E-02  0.9839884E-01
          2   -1    0    0  501    0  0.00000000000E+00  0.00000000000E+00  0.17441985280E+04  0.17441985280E+04  0.25500000000E-02 0. -1.
         -2   -1    0    0    0  501 -0.00000000000E+00 -0.00000000000E+00 -0.93155397723E+03  0.93155397723E+03  0.25500000000E-02 0.  1.
    8880023    1    1    2    0    0 -0.33637078628E+03 -0.10544637110E+03  0.16187120117E+04  0.17827795787E+04  0.65864270000E+03 0. -1.
    8880022    1    1    2    0    0  0.33637078628E+03  0.10544637110E+03 -0.80606746091E+03  0.89297292658E+03  0.15294330000E+03 0.  0.
<mgrwt>
<rscale>  0 0.63265348E+03</rscale>
<asrwt>0</asrwt>
<pdfrwt beam="1">  1        2 0.26833824E+00 0.74704381E+03</pdfrwt>
<pdfrwt beam="2">  1       -2 0.14331600E+00 0.74704381E+03</pdfrwt>
<totfact> 0.32308067E+00</totfact>
</mgrwt>
</event>
<event>
 4    1  0.6502538E-008  0.1711500E+04  0.7818608E-02  0.8773138E-01
         -2   -1    0    0    0  501 -0.00000000000E+00  0.00000000000E+00  0.93684155595E+03  0.93684155595E+03  0.25500000000E-02 0.  1.
          2   -1    0    0  501    0  0.00000000000E+00 -0.00000000000E+00 -0.31014324356E+04  0.31014324356E+04  0.25500000000E-02 0. -1.
    8880023    1    1    2    0    0  0.42012096034E+03  0.15228006252E+04 -0.16302131751E+04  0.23636473019E+04  0.65864270000E+03 0.  0.
    8880022    1    1    2    0    0 -0.42012096034E+03 -0.15228006252E+04 -0.53437770460E+03  0.16746266896E+04  0.15294330000E+03 0.  0.
<mgrwt>
<rscale>  0 0.16795088E+04</rscale>
<asrwt>0</asrwt>
<pdfrwt beam="1">  1        2 0.47714345E+00 0.17115004E+04</pdfrwt>
<pdfrwt beam="2">  1       -2 0.14412947E+00 0.17115004E+04</pdfrwt>
<totfact> 0.46405115E-01</totfact>
</mgrwt>
</event>
<event>
 4    1  0.6502538E-008  0.1401498E+04  0.7818608E-02  0.8982519E-01
         -2   -1    0    0    0  501 -0.00000000000E+00  0.00000000000E+00  0.16388897323E+04  0.16388897323E+04  0.25500000000E-02 0.  1.
          2   -1    0    0  501    0  0.00000000000E+00 -0.00000000000E+00 -0.13236793471E+04  0.13236793471E+04  0.25500000000E-02 0. -1.
    8880023    1    1    2    0    0  0.12362072751E+04 -0.46675504363E+02 -0.48300214377E+03  0.14823927641E+04  0.65864270000E+03 0.  0.
    8880022    1    1    2    0    0 -0.12362072751E+04  0.46675504363E+02  0.79821252897E+03  0.14801763153E+04  0.15294330000E+03 0.  0.
<mgrwt>
<rscale>  0 0.13610311E+04</rscale>
<asrwt>0</asrwt>
<pdfrwt beam="1">  1        2 0.20364298E+00 0.14014982E+04</pdfrwt>
<pdfrwt beam="2">  1       -2 0.25213688E+00 0.14014982E+04</pdfrwt>
<totfact> 0.94989221E-01</totfact>
</mgrwt>
</event>
<event>
 4    1  0.6502538E-008  0.8753297E+03  0.7818608E-02  0.9566856E-01
         -2   -1    0    0    0  501 -0.00000000000E+00  0.00000000000E+00  0.12190877732E+04  0.12190877732E+04  0.25500000000E-02 0.  1.
          2   -1    0    0  501    0  0.00000000000E+00 -0.00000000000E+00 -0.10176950116E+04  0.10176950116E+04  0.25500000000E-02 0. -1.
    8880023    1    1    2    0    0 -0.37532961825E+03 -0.43762949880E+03 -0.72390831556E+03  0.11358896760E+04  0.65864270000E+03 0.  0.
    8880022    1    1    2    0    0  0.37532961825E+03  0.43762949880E+03  0.92530107718E+03  0.11008931088E+04  0.15294330000E+03 0.  0.
<mgrwt>
<rscale>  0 0.79529268E+03</rscale>
<asrwt>0</asrwt>
<pdfrwt beam="1">  1        2 0.15656846E+00 0.87532971E+03</pdfrwt>
<pdfrwt beam="2">  1       -2 0.18755196E+00 0.87532971E+03</pdfrwt>
<totfact> 0.39735052E+00</totfact>
</mgrwt>
</event>
<event>
 4    1  0.6502538E-008  0.1473487E+04  0.7818608E-02  0.8928588E-01
         -2   -1    0    0    0  501 -0.00000000000E+00  0.00000000000E+00  0.11346247591E+04  0.11346247591E+04  0.25500000000E-02 0.  1.
          2   -1    0    0  501    0  0.00000000000E+00 -0.00000000000E+00 -0.40237220190E+04  0.40237220190E+04  0.25500000000E-02 0. -1.
    8880023    1    1    2    0    0  0.84868020535E+03 -0.10085115813E+04 -0.34240523999E+04  0.37276398356E+04  0.65864270000E+03 0. -1.
    8880022    1    1    2    0    0 -0.84868020535E+03  0.10085115813E+04  0.53495514002E+03  0.14307069425E+04  0.15294330000E+03 0.  0.
<mgrwt>
<rscale>  0 0.14353962E+04</rscale>
<asrwt>0</asrwt>
<pdfrwt beam="1">  1        2 0.61903415E+00 0.14734870E+04</pdfrwt>
<pdfrwt beam="2">  1       -2 0.17455766E+00 0.14734870E+04</pdfrwt>
<totfact> 0.62317364E-02</totfact>
</mgrwt>
</event>
<event>
 4    1  0.6502538E-008  0.8543189E+03  0.7818608E-02  0.9603750E-01
          2   -1    0    0  501    0  0.00000000000E+00  0.00000000000E+00  0.29249785099E+04  0.29249785099E+04  0.25500000000E-02 0. -1.
         -2   -1    0    0    0  501 -0.00000000000E+00 -0.00000000000E+00 -0.94614429367E+03  0.94614429367E+03  0.25500000000E-02 0.  1.
    8880023    1    1    2    0    0 -0.40368848613E+03 -0.36480976854E+03  0.27700349551E+04  0.28987849902E+04  0.65864270000E+03 0. -1.
    8880022    1    1    2    0    0  0.40368848613E+03  0.36480976854E+03 -0.79120073885E+03  0.97233781332E+03  0.15294330000E+03 0.  0.
<mgrwt>
<rscale>  0 0.77048475E+03</rscale>
<asrwt>0</asrwt>
<pdfrwt beam="1">  1        2 0.44999669E+00 0.85431889E+03</pdfrwt>
<pdfrwt beam="2">  1       -2 0.14556066E+00 0.85431889E+03</pdfrwt>
<totfact> 0.65588099E-01</totfact>
</mgrwt>
</event>
<event>
 4    1  0.6502538E-008  0.6625950E+03  0.7818608E-02  0.1021642E+00
          2   -1    0    0  501    0  0.00000000000E+00  0.00000000000E+00  0.70872903149E+03  0.70872903149E+03  0.25500000000E-02 0. -1.
         -2   -1    0    0    0  501 -0.00000000000E+00 -0.00000000000E+00 -0.54405944376E+03  0.54405944377E+03  0.25500000000E-02 0.  1.
    8880023    1    1    2    0    0  0.71286470143E+02  0.11839188034E+02  0.53111491226E+03  0.84918501134E+03  0.65864270000E+03 0. -1.
    8880022    1    1    2    0    0 -0.71286470143E+02 -0.11839188034E+02 -0.36644532454E+03  0.40360346392E+03  0.15294330000E+03 0.  0.
<mgrwt>
<rscale>  0 0.47098561E+03</rscale>
<asrwt>0</asrwt>
<pdfrwt beam="1">  1        2 0.10903524E+00 0.66259500E+03</pdfrwt>
<pdfrwt beam="2">  1       -2 0.83701453E-01 0.66259500E+03</pdfrwt>
<totfact> 0.51338451E+01</totfact>
</mgrwt>
</event>
<event>
 4    1  0.6502538E-008  0.1142652E+04  0.7818608E-02  0.9214991E-01
          2   -1    0    0  501    0  0.00000000000E+00  0.00000000000E+00  0.30513076799E+04  0.30513076799E+04  0.25500000000E-02 0. -1.
         -2   -1    0    0    0  501 -0.00000000000E+00 -0.00000000000E+00 -0.10828481580E+04  0.10828481580E+04  0.25500000000E-02 0.  1.
    8880023    1    1    2    0    0 -0.12407475708E+03 -0.92544483686E+03  0.27041297292E+04  0.29356380039E+04  0.65864270000E+03 0. -1.
    8880022    1    1    2    0    0  0.12407475708E+03  0.92544483686E+03 -0.73567020736E+03  0.11985178340E+04  0.15294330000E+03 0.  0.
<mgrwt>
<rscale>  0 0.10900025E+04</rscale>
<asrwt>0</asrwt>
<pdfrwt beam="1">  1        2 0.46943196E+00 0.11426517E+04</pdfrwt>
<pdfrwt beam="2">  1       -2 0.16659202E+00 0.11426517E+04</pdfrwt>
<totfact> 0.36201375E-01</totfact>
</mgrwt>
</event>
<event>
 4    1  0.6502538E-008  0.1180796E+04  0.7818608E-02  0.9176019E-01
          2   -1    0    0  501    0  0.00000000000E+00  0.00000000000E+00  0.32326602203E+04  0.32326602203E+04  0.25500000000E-02 0. -1.
         -2   -1    0    0    0  501 -0.00000000000E+00 -0.00000000000E+00 -0.42278725758E+03  0.42278725759E+03  0.25500000000E-02 0.  1.
    8880023    1    1    2    0    0 -0.72430843472E+03  0.66018742103E+03  0.21835052875E+04  0.24823327107E+04  0.65864270000E+03 0. -1.
    8880022    1    1    2    0    0  0.72430843472E+03 -0.66018742103E+03  0.62636767514E+03  0.11731147672E+04  0.15294330000E+03 0.  0.
<mgrwt>
<rscale>  0 0.11304414E+04</rscale>
<asrwt>0</asrwt>
<pdfrwt beam="1">  1        2 0.49733234E+00 0.11807965E+04</pdfrwt>
<pdfrwt beam="2">  1       -2 0.65044193E-01 0.11807965E+04</pdfrwt>
<totfact> 0.26978539E+00</totfact>
</mgrwt>
</event>
<event>
 4    1  0.6502538E-008  0.1437000E+04  0.7818608E-02  0.8955454E-01
         -2   -1    0    0    0  501 -0.00000000000E+00  0.00000000000E+00  0.13702007189E+04  0.13702007190E+04  0.25500000000E-02 0.  1.
          2   -1    0    0  501    0  0.00000000000E+00 -0.00000000000E+00 -0.35298880696E+04  0.35298880696E+04  0.25500000000E-02 0. -1.
    8880023    1    1    2    0    0  0.11882539688E+04 -0.46819914389E+03 -0.30255861860E+04  0.33494984561E+04  0.65864270000E+03 0.  0.
    8880022    1    1    2    0    0 -0.11882539688E+04  0.46819914389E+03  0.86589883533E+03  0.15505903324E+04  0.15294330000E+03 0.  0.
<mgrwt>
<rscale>  0 0.13977435E+04</rscale>
<asrwt>0</asrwt>
<pdfrwt beam="1">  1        2 0.54305970E+00 0.14369997E+04</pdfrwt>
<pdfrwt beam="2">  1       -2 0.21080011E+00 0.14369997E+04</pdfrwt>
<totfact> 0.83816483E-02</totfact>
</mgrwt>
</event>
<event>
 4    1  0.6502538E-008  0.8036847E+03  0.7818608E-02  0.9702885E-01
          2   -1    0    0  501    0  0.00000000000E+00  0.00000000000E+00  0.24088935598E+04  0.24088935598E+04  0.25500000000E-02 0. -1.
         -2   -1    0    0    0  501 -0.00000000000E+00 -0.00000000000E+00 -0.26233535378E+03  0.26233535379E+03  0.25500000000E-02 0.  1.
    8880023    1    1    2    0    0 -0.45793020098E+03 -0.48977834746E+02  0.20136122969E+04  0.21680737039E+04  0.65864270000E+03 0.  0.
    8880022    1    1    2    0    0  0.45793020098E+03  0.48977834746E+02  0.13294590919E+03  0.50315520970E+03  0.15294330000E+03 0.  0.
<mgrwt>
<rscale>  0 0.70845287E+03</rscale>
<asrwt>0</asrwt>
<pdfrwt beam="1">  1        2 0.37059900E+00 0.80368470E+03</pdfrwt>
<pdfrwt beam="2">  1       -2 0.40359287E-01 0.80368470E+03</pdfrwt>
<totfact> 0.23626922E+01</totfact>
</mgrwt>
</event>
<event>
 4    1  0.6502538E-008  0.9155251E+03  0.7818608E-02  0.9501555E-01
          2   -1    0    0  501    0  0.00000000000E+00  0.00000000000E+00  0.31293738097E+04  0.31293738097E+04  0.25500000000E-02 0. -1.
         -2   -1    0    0    0  501 -0.00000000000E+00 -0.00000000000E+00 -0.23374684133E+03  0.23374684135E+03  0.25500000000E-02 0.  1.
    8880023    1    1    2    0    0  0.58127190437E+03 -0.25787382920E+03  0.23115174362E+04  0.24862218329E+04  0.65864270000E+03 0. -1.
    8880022    1    1    2    0    0 -0.58127190437E+03  0.25787382920E+03  0.58410953223E+03  0.87689881814E+03  0.15294330000E+03 0.  0.
<mgrwt>
<rscale>  0 0.84169290E+03</rscale>
<asrwt>0</asrwt>
<pdfrwt beam="1">  1        2 0.48144209E+00 0.91552507E+03</pdfrwt>
<pdfrwt beam="2">  1       -2 0.35961055E-01 0.91552507E+03</pdfrwt>
<totfact> 0.10880624E+01</totfact>
</mgrwt>
</event>
<event>
 4    1  0.6502538E-008  0.8244738E+03  0.7818608E-02  0.9660182E-01
         -2   -1    0    0    0  501 -0.00000000000E+00  0.00000000000E+00  0.26864645857E+03  0.26864645858E+03  0.25500000000E-02 0.  1.
          2   -1    0    0  501    0  0.00000000000E+00 -0.00000000000E+00 -0.37200500203E+04  0.37200500203E+04  0.25500000000E-02 0. -1.
    8880023    1    1    2    0    0 -0.20820160865E+03  0.45010997492E+03 -0.33625678719E+04  0.34621698108E+04  0.65864270000E+03 0.  0.
    8880022    1    1    2    0    0  0.20820160865E+03 -0.45010997492E+03 -0.88835689786E+02  0.52652666804E+03  0.15294330000E+03 0.  0.
<mgrwt>
<rscale>  0 0.73437853E+03</rscale>
<asrwt>0</asrwt>
<pdfrwt beam="1">  1        2 0.57231535E+00 0.82447384E+03</pdfrwt>
<pdfrwt beam="2">  1       -2 0.41330227E-01 0.82447384E+03</pdfrwt>
<totfact> 0.33711093E+00</totfact>
</mgrwt>
</event>
<event>
 4    1  0.6502538E-008  0.8600264E+03  0.7818608E-02  0.9593516E-01
         -2   -1    0    0    0  501 -0.00000000000E+00  0.00000000000E+00  0.76712353706E+03  0.76712353706E+03  0.25500000000E-02 0.  1.
          2   -1    0    0  501    0  0.00000000000E+00 -0.00000000000E+00 -0.16994850749E+04  0.16994850749E+04  0.25500000000E-02 0. -1.
    8880023    1    1    2    0    0 -0.33572236732E+03  0.43946077128E+03 -0.14552018876E+04  0.16903425739E+04  0.65864270000E+03 0. -1.
    8880022    1    1    2    0    0  0.33572236732E+03 -0.43946077128E+03  0.52284034975E+03  0.77626603800E+03  0.15294330000E+03 0.  0.
<mgrwt>
<rscale>  0 0.77726797E+03</rscale>
<asrwt>0</asrwt>
<pdfrwt beam="1">  1        2 0.26145924E+00 0.86002644E+03</pdfrwt>
<pdfrwt beam="2">  1       -2 0.11801901E+00 0.86002644E+03</pdfrwt>
<totfact> 0.55013399E+00</totfact>
</mgrwt>
</event>
<event>
 4    1  0.6502538E-008  0.6876431E+03  0.7818608E-02  0.1005293E+00
         -2   -1    0    0    0  501 -0.00000000000E+00  0.00000000000E+00  0.49527632147E+03  0.49527632148E+03  0.25500000000E-02 0.  1.
          2   -1    0    0  501    0  0.00000000000E+00 -0.00000000000E+00 -0.57971581114E+03  0.57971581115E+03  0.25500000000E-02 0. -1.
    8880023    1    1    2    0    0 -0.77629756591E+02  0.18170439162E+03 -0.29498551853E+03  0.74824429663E+03  0.65864270000E+03 0. -1.
    8880022    1    1    2    0    0  0.77629756591E+02 -0.18170439162E+03  0.21054602886E+03  0.32674783599E+03  0.15294330000E+03 0.  1.
<mgrwt>
<rscale>  0 0.53388833E+03</rscale>
<asrwt>0</asrwt>
<pdfrwt beam="1">  1        2 0.89187048E-01 0.68764313E+03</pdfrwt>
<pdfrwt beam="2">  1       -2 0.76196357E-01 0.68764313E+03</pdfrwt>
<totfact> 0.80947266E+01</totfact>
</mgrwt>
</event>
<event>
 4    1  0.6502538E-008  0.1126443E+04  0.7818608E-02  0.9232171E-01
          2   -1    0    0  501    0  0.00000000000E+00  0.00000000000E+00  0.16029991986E+04  0.16029991986E+04  0.25500000000E-02 0. -1.
         -2   -1    0    0    0  501 -0.00000000000E+00 -0.00000000000E+00 -0.13679561463E+04  0.13679561463E+04  0.25500000000E-02 0.  1.
    8880023    1    1    2    0    0 -0.66347172108E+03 -0.62838570209E+03  0.11912486734E+04  0.16394959357E+04  0.65864270000E+03 0.  0.
    8880022    1    1    2    0    0  0.66347172108E+03  0.62838570209E+03 -0.95620562112E+03  0.13314594091E+04  0.15294330000E+03 0.  0.
<mgrwt>
<rscale>  0 0.10727452E+04</rscale>
<asrwt>0</asrwt>
<pdfrwt beam="1">  1        2 0.24661526E+00 0.11264429E+04</pdfrwt>
<pdfrwt beam="2">  1       -2 0.21045479E+00 0.11264429E+04</pdfrwt>
<totfact> 0.12365985E+00</totfact>
</mgrwt>
</event>
<event>
 4    1  0.6502538E-008  0.7810297E+03  0.7818608E-02  0.9753424E-01
          2   -1    0    0  501    0  0.00000000000E+00  0.00000000000E+00  0.11356118097E+04  0.11356118097E+04  0.25500000000E-02 0. -1.
         -2   -1    0    0    0  501 -0.00000000000E+00 -0.00000000000E+00 -0.17960780341E+04  0.17960780341E+04  0.25500000000E-02 0.  1.
    8880023    1    1    2    0    0  0.41125656779E+03  0.84055183319E+02  0.96757348552E+03  0.12434652768E+04  0.65864270000E+03 0. -1.
    8880022    1    1    2    0    0 -0.41125656779E+03 -0.84055183319E+02 -0.16280397100E+04  0.16882245670E+04  0.15294330000E+03 0.  0.
<mgrwt>
<rscale>  0 0.67923135E+03</rscale>
<asrwt>0</asrwt>
<pdfrwt beam="1">  1        2 0.17470951E+00 0.78102973E+03</pdfrwt>
<pdfrwt beam="2">  1       -2 0.27631970E+00 0.78102973E+03</pdfrwt>
<totfact> 0.95200572E-01</totfact>
</mgrwt>
</event>
<event>
 4    1  0.6502538E-008  0.7249089E+03  0.7818608E-02  0.9906313E-01
          2   -1    0    0  501    0  0.00000000000E+00  0.00000000000E+00  0.28706092706E+04  0.28706092706E+04  0.25500000000E-02 0. -1.
         -2   -1    0    0    0  501 -0.00000000000E+00 -0.00000000000E+00 -0.22465157611E+03  0.22465157612E+03  0.25500000000E-02 0.  1.
    8880023    1    1    2    0    0 -0.29609514464E+03 -0.63327065095E+02  0.26587417580E+04  0.27557940042E+04  0.65864270000E+03 0. -1.
    8880022    1    1    2    0    0  0.29609514464E+03  0.63327065095E+02 -0.12784063500E+02  0.33946684249E+03  0.15294330000E+03 0.  0.
<mgrwt>
<rscale>  0 0.59956304E+03</rscale>
<asrwt>0</asrwt>
<pdfrwt beam="1">  1        2 0.44163219E+00 0.72490886E+03</pdfrwt>
<pdfrwt beam="2">  1       -2 0.34561781E-01 0.72490886E+03</pdfrwt>
<totfact> 0.17432927E+01</totfact>
</mgrwt>
</event>
<event>
 4    1  0.6502538E-008  0.7693126E+03  0.7818608E-02  0.9781568E-01
         -2   -1    0    0    0  501 -0.00000000000E+00  0.00000000000E+00  0.47165265364E+03  0.47165265365E+03  0.25500000000E-02 0.  1.
          2   -1    0    0  501    0  0.00000000000E+00 -0.00000000000E+00 -0.79409783532E+03  0.79409783533E+03  0.25500000000E-02 0. -1.
    8880023    1    1    2    0    0 -0.11764528580E+03  0.37972525628E+03 -0.33625434127E+03  0.83958851339E+03  0.65864270000E+03 0.  0.
    8880022    1    1    2    0    0  0.11764528580E+03 -0.37972525628E+03  0.13809159588E+02  0.42616197558E+03  0.15294330000E+03 0. -1.
<mgrwt>
<rscale>  0 0.66361131E+03</rscale>
<asrwt>0</asrwt>
<pdfrwt beam="1">  1        2 0.12216890E+00 0.76931261E+03</pdfrwt>
<pdfrwt beam="2">  1       -2 0.72561947E-01 0.76931261E+03</pdfrwt>
<totfact> 0.60472271E+01</totfact>
</mgrwt>
</event>
<event>
 4    1  0.6502538E-008  0.1031582E+04  0.7818608E-02  0.9341358E-01
          2   -1    0    0  501    0  0.00000000000E+00  0.00000000000E+00  0.13564706197E+04  0.13564706197E+04  0.25500000000E-02 0. -1.
         -2   -1    0    0    0  501 -0.00000000000E+00 -0.00000000000E+00 -0.72162386059E+03  0.72162386059E+03  0.25500000000E-02 0.  1.
    8880023    1    1    2    0    0 -0.79328144866E+03 -0.32476989511E+02  0.73032106757E+03  0.12639340488E+04  0.65864270000E+03 0. -1.
    8880022    1    1    2    0    0  0.79328144866E+03  0.32476989511E+02 -0.95474308483E+02  0.81416043150E+03  0.15294330000E+03 0.  0.
<mgrwt>
<rscale>  0 0.97062942E+03</rscale>
<asrwt>0</asrwt>
<pdfrwt beam="1">  1        2 0.20868778E+00 0.10315815E+04</pdfrwt>
<pdfrwt beam="2">  1       -2 0.11101906E+00 0.10315815E+04</pdfrwt>
<totfact> 0.97585505E+00</totfact>
</mgrwt>
</event>
<event>
 4    1  0.6502538E-008  0.6648044E+03  0.7818608E-02  0.1019698E+00
         -2   -1    0    0    0  501 -0.00000000000E+00  0.00000000000E+00  0.12166281645E+04  0.12166281645E+04  0.25500000000E-02 0.  1.
          2   -1    0    0  501    0  0.00000000000E+00 -0.00000000000E+00 -0.36992143254E+04  0.36992143254E+04  0.25500000000E-02 0. -1.
    8880023    1    1    2    0    0  0.54583852551E+02 -0.71939804536E+02 -0.36626459396E+04  0.37224911306E+04  0.65864270000E+03 0. -1.
    8880022    1    1    2    0    0 -0.54583852551E+02  0.71939804536E+02  0.11800597786E+04  0.11933513593E+04  0.15294330000E+03 0.  0.
<mgrwt>
<rscale>  0 0.47795734E+03</rscale>
<asrwt>0</asrwt>
<pdfrwt beam="1">  1        2 0.56910989E+00 0.66480444E+03</pdfrwt>
<pdfrwt beam="2">  1       -2 0.18717357E+00 0.66480444E+03</pdfrwt>
<totfact> 0.10740167E-01</totfact>
</mgrwt>
</event>
<event>
 4    1  0.6502538E-008  0.9315385E+03  0.7818608E-02  0.9477189E-01
         -2   -1    0    0    0  501 -0.00000000000E+00  0.00000000000E+00  0.60872243120E+03  0.60872243120E+03  0.25500000000E-02 0.  1.
          2   -1    0    0  501    0  0.00000000000E+00 -0.00000000000E+00 -0.34318150775E+04  0.34318150775E+04  0.25500000000E-02 0. -1.
    8880023    1    1    2    0    0  0.50592571454E+03  0.42189203042E+03 -0.31532537922E+04  0.32879740568E+04  0.65864270000E+03 0. -1.
    8880022    1    1    2    0    0 -0.50592571454E+03 -0.42189203042E+03  0.33016114585E+03  0.75256345194E+03  0.15294330000E+03 0.  0.
<mgrwt>
<rscale>  0 0.85986670E+03</rscale>
<asrwt>0</asrwt>
<pdfrwt beam="1">  1        2 0.52797154E+00 0.93153847E+03</pdfrwt>
<pdfrwt beam="2">  1       -2 0.93649607E-01 0.93153847E+03</pdfrwt>
<totfact> 0.91291988E-01</totfact>
</mgrwt>
</event>
<event>
 4    1  0.6502538E-008  0.7763083E+03  0.7818608E-02  0.9764581E-01
         -2   -1    0    0    0  501 -0.00000000000E+00  0.00000000000E+00  0.80996021564E+03  0.80996021564E+03  0.25500000000E-02 0.  1.
          2   -1    0    0  501    0  0.00000000000E+00 -0.00000000000E+00 -0.10717788242E+04  0.10717788242E+04  0.25500000000E-02 0. -1.
    8880023    1    1    2    0    0 -0.26486602779E+03 -0.31415029418E+03 -0.84803073635E+03  0.11497002897E+04  0.65864270000E+03 0. -1.
    8880022    1    1    2    0    0  0.26486602779E+03  0.31415029418E+03  0.58621212777E+03  0.73203875019E+03  0.15294330000E+03 0.  0.
<mgrwt>
<rscale>  0 0.67298448E+03</rscale>
<asrwt>0</asrwt>
<pdfrwt beam="1">  1        2 0.16488905E+00 0.77630833E+03</pdfrwt>
<pdfrwt beam="2">  1       -2 0.12460926E+00 0.77630833E+03</pdfrwt>
<totfact> 0.11125942E+01</totfact>
</mgrwt>
</event>
<event>
 4    1  0.6502538E-008  0.7545404E+03  0.7818608E-02  0.9819452E-01
         -2   -1    0    0    0  501 -0.00000000000E+00  0.00000000000E+00  0.29719652916E+03  0.29719652918E+03  0.25500000000E-02 0.  1.
          2   -1    0    0  501    0  0.00000000000E+00 -0.00000000000E+00 -0.14743838863E+04  0.14743838863E+04  0.25500000000E-02 0. -1.
    8880023    1    1    2    0    0  0.52566886618E+02  0.36435933791E+03 -0.11455081479E+04  0.13716851417E+04  0.65864270000E+03 0. -1.
    8880022    1    1    2    0    0 -0.52566886618E+02 -0.36435933791E+03 -0.31679209213E+02  0.39989527379E+03  0.15294330000E+03 0.  0.
<mgrwt>
<rscale>  0 0.64328983E+03</rscale>
<asrwt>0</asrwt>
<pdfrwt beam="1">  1        2 0.22682829E+00 0.75454040E+03</pdfrwt>
<pdfrwt beam="2">  1       -2 0.45722544E-01 0.75454040E+03</pdfrwt>
<totfact> 0.60728404E+01</totfact>
</mgrwt>
</event>
<event>
 4    1  0.6502538E-008  0.1540955E+04  0.7818608E-02  0.8881245E-01
         -2   -1    0    0    0  501 -0.00000000000E+00  0.00000000000E+00  0.17673751309E+04  0.17673751309E+04  0.25500000000E-02 0.  1.
          2   -1    0    0  501    0  0.00000000000E+00 -0.00000000000E+00 -0.16698498981E+04  0.16698498981E+04  0.25500000000E-02 0. -1.
    8880023    1    1    2    0    0  0.11107827337E+04 -0.84076899487E+03 -0.83617589814E+03  0.17532059557E+04  0.65864270000E+03 0. -1.
    8880022    1    1    2    0    0 -0.11107827337E+04  0.84076899487E+03  0.93370113095E+03  0.16840190733E+04  0.15294330000E+03 0.  1.
<mgrwt>
<rscale>  0 0.15048335E+04</rscale>
<asrwt>0</asrwt>
<pdfrwt beam="1">  1        2 0.25689998E+00 0.15409546E+04</pdfrwt>
<pdfrwt beam="2">  1       -2 0.27190387E+00 0.15409546E+04</pdfrwt>
<totfact> 0.44975561E-01</totfact>
</mgrwt>
</event>
<event>
 4    1  0.6502538E-008  0.8328164E+03  0.7818608E-02  0.9643877E-01
         -2   -1    0    0    0  501 -0.00000000000E+00  0.00000000000E+00  0.72589833053E+03  0.72589833053E+03  0.25500000000E-02 0.  1.
          2   -1    0    0  501    0  0.00000000000E+00 -0.00000000000E+00 -0.23407130655E+04  0.23407130655E+04  0.25500000000E-02 0. -1.
    8880023    1    1    2    0    0  0.45395461202E+03  0.23172847368E+03 -0.21537966250E+04  0.23092039718E+04  0.65864270000E+03 0.  0.
    8880022    1    1    2    0    0 -0.45395461202E+03 -0.23172847368E+03  0.53898189010E+03  0.75740742415E+03  0.15294330000E+03 0.  0.
<mgrwt>
<rscale>  0 0.74458930E+03</rscale>
<asrwt>0</asrwt>
<pdfrwt beam="1">  1        2 0.36010970E+00 0.83281636E+03</pdfrwt>
<pdfrwt beam="2">  1       -2 0.11167667E+00 0.83281636E+03</pdfrwt>
<totfact> 0.28053644E+00</totfact>
</mgrwt>
</event>
<event>
 4    1  0.6502538E-008  0.7738974E+03  0.7818608E-02  0.9770372E-01
          2   -1    0    0  501    0  0.00000000000E+00  0.00000000000E+00  0.43275782356E+04  0.43275782356E+04  0.25500000000E-02 0. -1.
         -2   -1    0    0    0  501 -0.00000000000E+00 -0.00000000000E+00 -0.11345064223E+03  0.11345064226E+03  0.25500000000E-02 0.  1.
    8880023    1    1    2    0    0  0.40535175927E+03 -0.28230602703E+02  0.36392399805E+04  0.37206161933E+04  0.65864270000E+03 0. -1.
    8880022    1    1    2    0    0 -0.40535175927E+03  0.28230602703E+02  0.57488761289E+03  0.72041268461E+03  0.15294330000E+03 0.  0.
<mgrwt>
<rscale>  0 0.66977061E+03</rscale>
<asrwt>0</asrwt>
<pdfrwt beam="1">  1        2 0.66578145E+00 0.77389742E+03</pdfrwt>
<pdfrwt beam="2">  1       -2 0.17453940E-01 0.77389742E+03</pdfrwt>
<totfact> 0.53998979E+00</totfact>
</mgrwt>
</event>
<event>
 4    1  0.6502538E-008  0.6781879E+03  0.7818608E-02  0.1010368E+00
         -2   -1    0    0    0  501 -0.00000000000E+00  0.00000000000E+00  0.34900578980E+03  0.34900578981E+03  0.25500000000E-02 0.  1.
          2   -1    0    0  501    0  0.00000000000E+00 -0.00000000000E+00 -0.13915448932E+04  0.13915448932E+04  0.25500000000E-02 0. -1.
    8880023    1    1    2    0    0 -0.96661443268E+02 -0.12955744917E+03 -0.12590410115E+04  0.14300779846E+04  0.65864270000E+03 0. -1.
    8880022    1    1    2    0    0  0.96661443268E+02  0.12955744917E+03  0.21650190806E+03  0.31047269841E+03  0.15294330000E+03 0.  0.
<mgrwt>
<rscale>  0 0.51328708E+03</rscale>
<asrwt>0</asrwt>
<pdfrwt beam="1">  1        2 0.21408383E+00 0.67818786E+03</pdfrwt>
<pdfrwt beam="2">  1       -2 0.53693199E-01 0.67818786E+03</pdfrwt>
<totfact> 0.49167955E+01</totfact>
</mgrwt>
</event>
<event>
 4    1  0.6502538E-008  0.1753746E+04  0.7818608E-02  0.8748563E-01
          2   -1    0    0  501    0  0.00000000000E+00  0.00000000000E+00  0.51147072695E+04  0.51147072695E+04  0.25500000000E-02 0. -1.
         -2   -1    0    0    0  501 -0.00000000000E+00 -0.00000000000E+00 -0.10007762789E+04  0.10007762789E+04  0.25500000000E-02 0.  1.
    8880023    1    1    2    0    0 -0.13610147551E+04 -0.88851233203E+03  0.41256183742E+04  0.44828955490E+04  0.65864270000E+03 0.  0.
    8880022    1    1    2    0    0  0.13610147551E+04  0.88851233203E+03 -0.11687383487E+02  0.16325879994E+04  0.15294330000E+03 0.  0.
<mgrwt>
<rscale>  0 0.17226277E+04</rscale>
<asrwt>0</asrwt>
<pdfrwt beam="1">  1        2 0.78687803E+00 0.17537461E+04</pdfrwt>
<pdfrwt beam="2">  1       -2 0.15396558E+00 0.17537461E+04</pdfrwt>
<totfact> 0.64396865E-03</totfact>
</mgrwt>
</event>
<event>
 4    1  0.6502538E-008  0.1449153E+04  0.7818608E-02  0.8946401E-01
         -2   -1    0    0    0  501 -0.00000000000E+00  0.00000000000E+00  0.12219795802E+04  0.12219795803E+04  0.25500000000E-02 0.  1.
          2   -1    0    0  501    0  0.00000000000E+00 -0.00000000000E+00 -0.29762610613E+04  0.29762610613E+04  0.25500000000E-02 0. -1.
    8880023    1    1    2    0    0  0.43484918825E+03 -0.12153768644E+04 -0.23558926157E+04  0.27659130431E+04  0.65864270000E+03 0.  0.
    8880022    1    1    2    0    0 -0.43484918825E+03  0.12153768644E+04  0.60161113462E+03  0.14323275985E+04  0.15294330000E+03 0.  0.
<mgrwt>
<rscale>  0 0.14102937E+04</rscale>
<asrwt>0</asrwt>
<pdfrwt beam="1">  1        2 0.45788631E+00 0.14491532E+04</pdfrwt>
<pdfrwt beam="2">  1       -2 0.18799686E+00 0.14491532E+04</pdfrwt>
<totfact> 0.27346971E-01</totfact>
</mgrwt>
</event>
<event>
 4    1  0.6502538E-008  0.1376089E+04  0.7818608E-02  0.9002488E-01
          2   -1    0    0  501    0  0.00000000000E+00  0.00000000000E+00  0.19690112073E+04  0.19690112073E+04  0.25500000000E-02 0. -1.
         -2   -1    0    0    0  501 -0.00000000000E+00 -0.00000000000E+00 -0.11062396605E+04  0.11062396605E+04  0.25500000000E-02 0.  1.
    8880023    1    1    2    0    0 -0.42848056663E+02  0.12074662498E+04  0.11844256213E+04  0.18156224715E+04  0.65864270000E+03 0.  0.
    8880022    1    1    2    0    0  0.42848056663E+02 -0.12074662498E+04 -0.32165407445E+03  0.12596283964E+04  0.15294330000E+03 0.  0.
<mgrwt>
<rscale>  0 0.13347039E+04</rscale>
<asrwt>0</asrwt>
<pdfrwt beam="1">  1        2 0.30292480E+00 0.13760890E+04</pdfrwt>
<pdfrwt beam="2">  1       -2 0.17019072E+00 0.13760890E+04</pdfrwt>
<totfact> 0.14083956E+00</totfact>
</mgrwt>
</event>
<event>
 4    1  0.6502538E-008  0.1315359E+04  0.7818608E-02  0.9052408E-01
         -2   -1    0    0    0  501 -0.00000000000E+00  0.00000000000E+00  0.20174707735E+04  0.20174707735E+04  0.25500000000E-02 0.  1.
          2   -1    0    0  501    0  0.00000000000E+00 -0.00000000000E+00 -0.78627220918E+03  0.78627220918E+03  0.25500000000E-02 0. -1.
    8880023    1    1    2    0    0 -0.83972214252E+03 -0.76891265706E+03  0.36525924098E+03  0.13651316677E+04  0.65864270000E+03 0.  0.
    8880022    1    1    2    0    0  0.83972214252E+03  0.76891265706E+03  0.86593932333E+03  0.14386113150E+04  0.15294330000E+03 0.  0.
<mgrwt>
<rscale>  0 0.12715833E+04</rscale>
<asrwt>0</asrwt>
<pdfrwt beam="1">  1        2 0.12096495E+00 0.13153593E+04</pdfrwt>
<pdfrwt beam="2">  1       -2 0.31038012E+00 0.13153593E+04</pdfrwt>
<totfact> 0.93819592E-01</totfact>
</mgrwt>
</event>
<event>
 4    1  0.6502538E-008  0.8542803E+03  0.7818608E-02  0.9603820E-01
         -2   -1    0    0    0  501 -0.00000000000E+00  0.00000000000E+00  0.70683876638E+03  0.70683876638E+03  0.25500000000E-02 0.  1.
          2   -1    0    0  501    0  0.00000000000E+00 -0.00000000000E+00 -0.34580138568E+04  0.34580138568E+04  0.25500000000E-02 0. -1.
    8880023    1    1    2    0    0 -0.54384726519E+03  0.14656795135E+02 -0.32808823433E+04  0.33902778391E+04  0.65864270000E+03 0. -1.
    8880022    1    1    2    0    0  0.54384726519E+03 -0.14656795135E+02  0.52970725282E+03  0.77457478413E+03  0.15294330000E+03 0.  0.
<mgrwt>
<rscale>  0 0.77043879E+03</rscale>
<asrwt>0</asrwt>
<pdfrwt beam="1">  1        2 0.53200212E+00 0.85428033E+03</pdfrwt>
<pdfrwt beam="2">  1       -2 0.10874443E+00 0.85428033E+03</pdfrwt>
<totfact> 0.62353537E-01</totfact>
</mgrwt>
</event>
<event>
 4    1  0.6502538E-008  0.7951976E+03  0.7818608E-02  0.9721278E-01
          2   -1    0    0  501    0  0.00000000000E+00  0.00000000000E+00  0.27166474877E+04  0.27166474877E+04  0.25500000000E-02 0. -1.
         -2   -1    0    0    0  501 -0.00000000000E+00 -0.00000000000E+00 -0.64595846152E+03  0.64595846152E+03  0.25500000000E-02 0.  1.
    8880023    1    1    2    0    0  0.33123867711E+03 -0.29801007748E+03  0.25616236401E+04  0.26822108320E+04  0.65864270000E+03 0. -1.
    8880022    1    1    2    0    0 -0.33123867711E+03  0.29801007748E+03 -0.49093461388E+03  0.68039511727E+03  0.15294330000E+03 0.  0.
<mgrwt>
<rscale>  0 0.69763946E+03</rscale>
<asrwt>0</asrwt>
<pdfrwt beam="1">  1        2 0.41794577E+00 0.79519763E+03</pdfrwt>
<pdfrwt beam="2">  1       -2 0.99378225E-01 0.79519763E+03</pdfrwt>
<totfact> 0.22807876E+00</totfact>
</mgrwt>
</event>
<event>
 4    1  0.6502538E-008  0.8392710E+03  0.7818608E-02  0.9631556E-01
         -2   -1    0    0    0  501 -0.00000000000E+00  0.00000000000E+00  0.18339873608E+04  0.18339873608E+04  0.25500000000E-02 0.  1.
          2   -1    0    0  501    0  0.00000000000E+00 -0.00000000000E+00 -0.14425783070E+04  0.14425783070E+04  0.25500000000E-02 0. -1.
    8880023    1    1    2    0    0 -0.48401639921E+03 -0.19050923418E+03 -0.12737346441E+04  0.15253772625E+04  0.65864270000E+03 0. -1.
    8880022    1    1    2    0    0  0.48401639921E+03  0.19050923418E+03  0.16651436980E+04  0.17511884053E+04  0.15294330000E+03 0.  0.
<mgrwt>
<rscale>  0 0.75242324E+03</rscale>
<asrwt>0</asrwt>
<pdfrwt beam="1">  1        2 0.22193512E+00 0.83927102E+03</pdfrwt>
<pdfrwt beam="2">  1       -2 0.28215190E+00 0.83927102E+03</pdfrwt>
<totfact> 0.57604041E-01</totfact>
</mgrwt>
</event>
<event>
 4    1  0.6502538E-008  0.7801982E+03  0.7818608E-02  0.9755372E-01
         -2   -1    0    0    0  501 -0.00000000000E+00  0.00000000000E+00  0.15981644327E+03  0.15981644329E+03  0.25500000000E-02 0.  1.
          2   -1    0    0  501    0  0.00000000000E+00 -0.00000000000E+00 -0.26785938011E+04  0.26785938011E+04  0.25500000000E-02 0. -1.
    8880023    1    1    2    0    0 -0.27599489372E+03 -0.31420671984E+03 -0.20422577637E+04  0.21862127124E+04  0.65864270000E+03 0.  0.
    8880022    1    1    2    0    0  0.27599489372E+03  0.31420671984E+03 -0.47651959415E+03  0.65219753202E+03  0.15294330000E+03 0.  0.
<mgrwt>
<rscale>  0 0.67813554E+03</rscale>
<asrwt>0</asrwt>
<pdfrwt beam="1">  1        2 0.41209132E+00 0.78019821E+03</pdfrwt>
<pdfrwt beam="2">  1       -2 0.24587147E-01 0.78019821E+03</pdfrwt>
<totfact> 0.42090876E+01</totfact>
</mgrwt>
</event>
<event>
 4    1  0.6502538E-008  0.1132305E+04  0.7818608E-02  0.9225913E-01
         -2   -1    0    0    0  501 -0.00000000000E+00  0.00000000000E+00  0.11386661348E+04  0.11386661348E+04  0.25500000000E-02 0.  1.
          2   -1    0    0  501    0  0.00000000000E+00 -0.00000000000E+00 -0.96946043275E+03  0.96946043275E+03  0.25500000000E-02 0. -1.
    8880023    1    1    2    0    0  0.20698192131E+03 -0.89747563213E+03 -0.99263842990E+02  0.11366475016E+04  0.65864270000E+03 0.  0.
    8880022    1    1    2    0    0 -0.20698192131E+03  0.89747563213E+03  0.26846954502E+03  0.97147906597E+03  0.15294330000E+03 0.  0.
<mgrwt>
<rscale>  0 0.10789918E+04</rscale>
<asrwt>0</asrwt>
<pdfrwt beam="1">  1        2 0.14914776E+00 0.11323048E+04</pdfrwt>
<pdfrwt beam="2">  1       -2 0.17517941E+00 0.11323048E+04</pdfrwt>
<totfact> 0.50567505E+00</totfact>
</mgrwt>
</event>
<event>
 4    1  0.6502538E-008  0.8842060E+03  0.7818608E-02  0.9551877E-01
         -2   -1    0    0    0  501 -0.00000000000E+00  0.00000000000E+00  0.29734402309E+03  0.29734402310E+03  0.25500000000E-02 0.  1.
          2   -1    0    0  501    0  0.00000000000E+00 -0.00000000000E+00 -0.19525017247E+04  0.19525017247E+04  0.25500000000E-02 0. -1.
    8880023    1    1    2    0    0  0.58605489936E+03 -0.67450817033E+02 -0.75442217401E+03  0.11623136327E+04  0.65864270000E+03 0.  1.
    8880022    1    1    2    0    0 -0.58605489936E+03  0.67450817033E+02 -0.90073552764E+03  0.10875321152E+04  0.15294330000E+03 0.  0.
<mgrwt>
<rscale>  0 0.80564840E+03</rscale>
<asrwt>0</asrwt>
<pdfrwt beam="1">  1        2 0.30038487E+00 0.88420595E+03</pdfrwt>
<pdfrwt beam="2">  1       -2 0.45745236E-01 0.88420595E+03</pdfrwt>
<totfact> 0.32661479E+01</totfact>
</mgrwt>
</event>
<event>
 4    1  0.6502538E-008  0.7571031E+03  0.7818608E-02  0.9812666E-01
         -2   -1    0    0    0  501 -0.00000000000E+00  0.00000000000E+00  0.17611114896E+04  0.17611114896E+04  0.25500000000E-02 0.  1.
          2   -1    0    0  501    0  0.00000000000E+00 -0.00000000000E+00 -0.67796013410E+03  0.67796013411E+03  0.25500000000E-02 0. -1.
    8880023    1    1    2    0    0  0.11033200293E+02  0.37319326990E+03 -0.43161611728E+03  0.87149161050E+03  0.65864270000E+03 0.  0.
    8880022    1    1    2    0    0 -0.11033200293E+02 -0.37319326990E+03  0.15147674728E+04  0.15675800132E+04  0.15294330000E+03 0.  1.
<mgrwt>
<rscale>  0 0.64687239E+03</rscale>
<asrwt>0</asrwt>
<pdfrwt beam="1">  1        2 0.10430156E+00 0.75710313E+03</pdfrwt>
<pdfrwt beam="2">  1       -2 0.27094023E+00 0.75710313E+03</pdfrwt>
<totfact> 0.21107460E+00</totfact>
</mgrwt>
</event>
<event>
 4    1  0.6502538E-008  0.1215501E+04  0.7818608E-02  0.9142200E-01
          2   -1    0    0  501    0  0.00000000000E+00  0.00000000000E+00  0.13335827677E+04  0.13335827677E+04  0.25500000000E-02 0. -1.
         -2   -1    0    0    0  501 -0.00000000000E+00 -0.00000000000E+00 -0.19750049563E+04  0.19750049563E+04  0.25500000000E-02 0.  1.
    8880023    1    1    2    0    0 -0.41528549510E+03  0.93336499721E+03  0.85798168189E+03  0.14878088026E+04  0.65864270000E+03 0. -1.
    8880022    1    1    2    0    0  0.41528549510E+03 -0.93336499721E+03 -0.14994038705E+04  0.18207789213E+04  0.15294330000E+03 0.  0.
<mgrwt>
<rscale>  0 0.11670467E+04</rscale>
<asrwt>0</asrwt>
<pdfrwt beam="1">  1        2 0.20516658E+00 0.12155009E+04</pdfrwt>
<pdfrwt beam="2">  1       -2 0.30384692E+00 0.12155009E+04</pdfrwt>
<totfact> 0.46357308E-01</totfact>
</mgrwt>
</event>
<event>
 4    1  0.6502538E-008  0.8293534E+03  0.7818608E-02  0.9650592E-01
         -2   -1    0    0    0  501 -0.00000000000E+00  0.00000000000E+00  0.16425220590E+03  0.16425220592E+03  0.25500000000E-02 0.  1.
          2   -1    0    0  501    0  0.00000000000E+00 -0.00000000000E+00 -0.31118935897E+04  0.31118935897E+04  0.25500000000E-02 0. -1.
    8880023    1    1    2    0    0 -0.40929055858E+03 -0.29410567561E+03 -0.22774458856E+04  0.24237547066E+04  0.65864270000E+03 0.  0.
    8880022    1    1    2    0    0  0.40929055858E+03  0.29410567561E+03 -0.67019549818E+03  0.85239108898E+03  0.15294330000E+03 0.  0.
<mgrwt>
<rscale>  0 0.74036302E+03</rscale>
<asrwt>0</asrwt>
<pdfrwt beam="1">  1        2 0.47875282E+00 0.82935343E+03</pdfrwt>
<pdfrwt beam="2">  1       -2 0.25269572E-01 0.82935343E+03</pdfrwt>
<totfact> 0.21808960E+01</totfact>
</mgrwt>
</event>
<event>
 4    1  0.6502538E-008  0.6928852E+03  0.7818608E-02  0.1002810E+00
          2   -1    0    0  501    0  0.00000000000E+00  0.00000000000E+00  0.10525696800E+04  0.10525696800E+04  0.25500000000E-02 0. -1.
         -2   -1    0    0    0  501 -0.00000000000E+00 -0.00000000000E+00 -0.21838170649E+03  0.21838170650E+03  0.25500000000E-02 0.  1.
    8880023    1    1    2    0    0 -0.15682503409E+03 -0.14726045820E+03  0.56622202726E+03  0.89481692222E+03  0.65864270000E+03 0.  0.
    8880022    1    1    2    0    0  0.15682503409E+03  0.14726045820E+03  0.26796594629E+03  0.37613446433E+03  0.15294330000E+03 0.  1.
<mgrwt>
<rscale>  0 0.54434944E+03</rscale>
<asrwt>0</asrwt>
<pdfrwt beam="1">  1        2 0.16193380E+00 0.69288523E+03</pdfrwt>
<pdfrwt beam="2">  1       -2 0.33597186E-01 0.69288523E+03</pdfrwt>
<totfact> 0.19589278E+02</totfact>
</mgrwt>
</event>
<event>
 4    1  0.6502538E-008  0.8459283E+03  0.7818608E-02  0.9619102E-01
         -2   -1    0    0    0  501 -0.00000000000E+00  0.00000000000E+00  0.12351316119E+04  0.12351316119E+04  0.25500000000E-02 0.  1.
          2   -1    0    0  501    0  0.00000000000E+00 -0.00000000000E+00 -0.12733267387E+04  0.12733267387E+04  0.25500000000E-02 0. -1.
    8880023    1    1    2    0    0 -0.52323932726E+03 -0.89471368548E+02 -0.10544046539E+04  0.13518002441E+04  0.65864270000E+03 0. -1.
    8880022    1    1    2    0    0  0.52323932726E+03  0.89471368548E+02  0.10162095271E+04  0.11566581065E+04  0.15294330000E+03 0.  0.
<mgrwt>
<rscale>  0 0.76044709E+03</rscale>
<asrwt>0</asrwt>
<pdfrwt beam="1">  1        2 0.19589642E+00 0.84592832E+03</pdfrwt>
<pdfrwt beam="2">  1       -2 0.19002025E+00 0.84592832E+03</pdfrwt>
<totfact> 0.26872150E+00</totfact>
</mgrwt>
</event>
<event>
 4    1  0.6502538E-008  0.1021888E+04  0.7818608E-02  0.9353465E-01
         -2   -1    0    0    0  501 -0.00000000000E+00  0.00000000000E+00  0.60417108143E+03  0.60417108143E+03  0.25500000000E-02 0.  1.
          2   -1    0    0  501    0  0.00000000000E+00 -0.00000000000E+00 -0.22367924217E+04  0.22367924217E+04  0.25500000000E-02 0. -1.
    8880023    1    1    2    0    0  0.68746254173E+00 -0.78130958116E+03 -0.17595543628E+04  0.20347694946E+04  0.65864270000E+03 0.  0.
    8880022    1    1    2    0    0 -0.68746254173E+00  0.78130958116E+03  0.12693302251E+03  0.80619400856E+03  0.15294330000E+03 0.  0.
<mgrwt>
<rscale>  0 0.96006292E+03</rscale>
<asrwt>0</asrwt>
<pdfrwt beam="1">  1        2 0.34412191E+00 0.10218881E+04</pdfrwt>
<pdfrwt beam="2">  1       -2 0.92949398E-01 0.10218881E+04</pdfrwt>
<totfact> 0.48364501E+00</totfact>
</mgrwt>
</event>
<event>
 4    1  0.6502538E-008  0.9496304E+03  0.7818608E-02  0.9450646E-01
         -2   -1    0    0    0  501 -0.00000000000E+00  0.00000000000E+00  0.15207158785E+04  0.15207158785E+04  0.25500000000E-02 0.  1.
          2   -1    0    0  501    0  0.00000000000E+00 -0.00000000000E+00 -0.70846979639E+03  0.70846979640E+03  0.25500000000E-02 0. -1.
    8880023    1    1    2    0    0  0.54550521458E+03  0.41280956354E+03 -0.22628512011E+03  0.97621864187E+03  0.65864270000E+03 0.  0.
    8880022    1    1    2    0    0 -0.54550521458E+03 -0.41280956354E+03  0.10385312022E+04  0.12529670331E+04  0.15294330000E+03 0.  0.
<mgrwt>
<rscale>  0 0.88022371E+03</rscale>
<asrwt>0</asrwt>
<pdfrwt beam="1">  1        2 0.10899535E+00 0.94963039E+03</pdfrwt>
<pdfrwt beam="2">  1       -2 0.23395629E+00 0.94963039E+03</pdfrwt>
<totfact> 0.32648035E+00</totfact>
</mgrwt>
</event>
<event>
 4    1  0.6502538E-008  0.6592699E+03  0.7818608E-02  0.1024917E+00
         -2   -1    0    0    0  501 -0.00000000000E+00  0.00000000000E+00  0.22518889755E+03  0.22518889757E+03  0.25500000000E-02 0.  1.
          2   -1    0    0  501    0  0.00000000000E+00 -0.00000000000E+00 -0.12102902998E+04  0.12102902998E+04  0.25500000000E-02 0. -1.
    8880023    1    1    2    0    0  0.13498445867E+02 -0.25383896590E+02 -0.10710574399E+04  0.12576966232E+04  0.65864270000E+03 0. -1.
    8880022    1    1    2    0    0 -0.13498445867E+02  0.25383896590E+02  0.85956037645E+02  0.17778257414E+03  0.15294330000E+03 0.  0.
<mgrwt>
<rscale>  0 0.45953136E+03</rscale>
<asrwt>0</asrwt>
<pdfrwt beam="1">  1        2 0.18619850E+00 0.65926987E+03</pdfrwt>
<pdfrwt beam="2">  1       -2 0.34644446E-01 0.65926987E+03</pdfrwt>
<totfact> 0.14883065E+02</totfact>
</mgrwt>
</event>
<event>
 4    1  0.6502538E-008  0.8218449E+03  0.7818608E-02  0.9665413E-01
         -2   -1    0    0    0  501 -0.00000000000E+00  0.00000000000E+00  0.10202029631E+04  0.10202029631E+04  0.25500000000E-02 0.  1.
          2   -1    0    0  501    0  0.00000000000E+00 -0.00000000000E+00 -0.62875128388E+03  0.62875128389E+03  0.25500000000E-02 0. -1.
    8880023    1    1    2    0    0 -0.36571683641E+03  0.32843584440E+03 -0.21889579341E+03  0.85049660961E+03  0.65864270000E+03 0. -1.
    8880022    1    1    2    0    0  0.36571683641E+03 -0.32843584440E+03  0.61034747261E+03  0.79845763736E+03  0.15294330000E+03 0.  0.
<mgrwt>
<rscale>  0 0.73113961E+03</rscale>
<asrwt>0</asrwt>
<pdfrwt beam="1">  1        2 0.96730967E-01 0.82184495E+03</pdfrwt>
<pdfrwt beam="2">  1       -2 0.15695430E+00 0.82184495E+03</pdfrwt>
<totfact> 0.12532715E+01</totfact>
</mgrwt>
</event>
<event>
 4    1  0.6502538E-008  0.1559842E+04  0.7818608E-02  0.8868496E-01
          2   -1    0    0  501    0  0.00000000000E+00  0.00000000000E+00  0.32268618344E+04  0.32268618344E+04  0.25500000000E-02 0. -1.
         -2   -1    0    0    0  501 -0.00000000000E+00 -0.00000000000E+00 -0.72192067251E+03  0.72192067252E+03  0.25500000000E-02 0.  1.
    8880023    1    1    2    0    0 -0.13912030837E+04  0.25268769046E+03  0.88615503428E+03  0.17939838461E+04  0.65864270000E+03 0.  0.
    8880022    1    1    2    0    0  0.13912030837E+04 -0.25268769046E+03  0.16187861276E+04  0.21547986609E+04  0.15294330000E+03 0.  0.
<mgrwt>
<rscale>  0 0.15242339E+04</rscale>
<asrwt>0</asrwt>
<pdfrwt beam="1">  1        2 0.49644028E+00 0.15598421E+04</pdfrwt>
<pdfrwt beam="2">  1       -2 0.11106472E+00 0.15598421E+04</pdfrwt>
<totfact> 0.75951017E-01</totfact>
</mgrwt>
</event>
<event>
 4    1  0.6502538E-008  0.7957655E+03  0.7818608E-02  0.9720028E-01
         -2   -1    0    0    0  501 -0.00000000000E+00  0.00000000000E+00  0.88218858490E+03  0.88218858490E+03  0.25500000000E-02 0.  1.
          2   -1    0    0  501    0  0.00000000000E+00 -0.00000000000E+00 -0.14721757917E+04  0.14721757917E+04  0.25500000000E-02 0. -1.
    8880023    1    1    2    0    0 -0.41535425007E+03  0.16405317817E+03 -0.12866448403E+04  0.15128442583E+04  0.65864270000E+03 0. -1.
    8880022    1    1    2    0    0  0.41535425007E+03 -0.16405317817E+03  0.69665763350E+03  0.84152011838E+03  0.15294330000E+03 0.  0.
<mgrwt>
<rscale>  0 0.69836772E+03</rscale>
<asrwt>0</asrwt>
<pdfrwt beam="1">  1        2 0.22648858E+00 0.79576555E+03</pdfrwt>
<pdfrwt beam="2">  1       -2 0.13572132E+00 0.79576555E+03</pdfrwt>
<totfact> 0.52170290E+00</totfact>
</mgrwt>
</event>
<event>
 4    1  0.6502538E-008  0.9250116E+03  0.7818608E-02  0.9487017E-01
          2   -1    0    0  501    0  0.00000000000E+00  0.00000000000E+00  0.21948876644E+04  0.21948876644E+04  0.25500000000E-02 0. -1.
         -2   -1    0    0    0  501 -0.00000000000E+00 -0.00000000000E+00 -0.34236948203E+03  0.34236948204E+03  0.25500000000E-02 0.  1.
    8880023    1    1    2    0    0 -0.11376534513E+03  0.63944797797E+03  0.15490892990E+04  0.18042516823E+04  0.65864270000E+03 0.  0.
    8880022    1    1    2    0    0  0.11376534513E+03 -0.63944797797E+03  0.30342888335E+03  0.73300546420E+03  0.15294330000E+03 0.  0.
<mgrwt>
<rscale>  0 0.85247801E+03</rscale>
<asrwt>0</asrwt>
<pdfrwt beam="1">  1        2 0.33767503E+00 0.92501161E+03</pdfrwt>
<pdfrwt beam="2">  1       -2 0.52672228E-01 0.92501161E+03</pdfrwt>
<totfact> 0.17946961E+01</totfact>
</mgrwt>
</event>
<event>
 4    1  0.6502538E-008  0.7105712E+03  0.7818608E-02  0.9955886E-01
          2   -1    0    0  501    0  0.00000000000E+00  0.00000000000E+00  0.26662079272E+04  0.26662079272E+04  0.25500000000E-02 0. -1.
         -2   -1    0    0    0  501 -0.00000000000E+00 -0.00000000000E+00 -0.89617149011E+03  0.89617149012E+03  0.25500000000E-02 0.  1.
    8880023    1    1    2    0    0  0.72732472821E+02  0.25653701863E+03  0.25905178402E+04  0.26862044117E+04  0.65864270000E+03 0. -1.
    8880022    1    1    2    0    0 -0.72732472821E+02 -0.25653701863E+03 -0.82048140316E+03  0.87617500562E+03  0.15294330000E+03 0.  0.
<mgrwt>
<rscale>  0 0.57627611E+03</rscale>
<asrwt>0</asrwt>
<pdfrwt beam="1">  1        2 0.41018584E+00 0.71057122E+03</pdfrwt>
<pdfrwt beam="2">  1       -2 0.13787254E+00 0.71057122E+03</pdfrwt>
<totfact> 0.11083181E+00</totfact>
</mgrwt>
</event>
<event>
 4    1  0.6502538E-008  0.1118925E+04  0.7818608E-02  0.9240272E-01
          2   -1    0    0  501    0  0.00000000000E+00  0.00000000000E+00  0.20303507397E+04  0.20303507397E+04  0.25500000000E-02 0. -1.
         -2   -1    0    0    0  501 -0.00000000000E+00 -0.00000000000E+00 -0.13844883703E+04  0.13844883703E+04  0.25500000000E-02 0.  1.
    8880023    1    1    2    0    0 -0.85252306116E+03 -0.30230472339E+03  0.16888036953E+04  0.20258459574E+04  0.65864270000E+03 0. -1.
    8880022    1    1    2    0    0  0.85252306116E+03  0.30230472339E+03 -0.10429413259E+04  0.13889931526E+04  0.15294330000E+03 0.  0.
<mgrwt>
<rscale>  0 0.10647250E+04</rscale>
<asrwt>0</asrwt>
<pdfrwt beam="1">  1        2 0.31236165E+00 0.11189253E+04</pdfrwt>
<pdfrwt beam="2">  1       -2 0.21299821E+00 0.11189253E+04</pdfrwt>
<totfact> 0.69150479E-01</totfact>
</mgrwt>
</event>
<event>
 4    1  0.6502538E-008  0.7158858E+03  0.7818608E-02  0.9936761E-01
         -2   -1    0    0    0  501 -0.00000000000E+00  0.00000000000E+00  0.24933505034E+03  0.24933505036E+03  0.25500000000E-02 0.  1.
          2   -1    0    0  501    0  0.00000000000E+00 -0.00000000000E+00 -0.21380277722E+04  0.21380277722E+04  0.25500000000E-02 0. -1.
    8880023    1    1    2    0    0  0.70335785387E+02  0.27154207106E+03 -0.19362489747E+04  0.20643528084E+04  0.65864270000E+03 0. -1.
    8880022    1    1    2    0    0 -0.70335785387E+02 -0.27154207106E+03  0.47556252865E+02  0.32301001419E+03  0.15294330000E+03 0.  0.
<mgrwt>
<rscale>  0 0.58512293E+03</rscale>
<asrwt>0</asrwt>
<pdfrwt beam="1">  1        2 0.32892734E+00 0.71588576E+03</pdfrwt>
<pdfrwt beam="2">  1       -2 0.38359240E-01 0.71588576E+03</pdfrwt>
<totfact> 0.37306766E+01</totfact>
</mgrwt>
</event>
<event>
 4    1  0.6502538E-008  0.8480317E+03  0.7818608E-02  0.9615218E-01
         -2   -1    0    0    0  501 -0.00000000000E+00  0.00000000000E+00  0.60616726582E+03  0.60616726583E+03  0.25500000000E-02 0.  1.
          2   -1    0    0  501    0  0.00000000000E+00 -0.00000000000E+00 -0.15899533902E+04  0.15899533902E+04  0.25500000000E-02 0. -1.
    8880023    1    1    2    0    0 -0.13263319696E+03  0.51745136124E+03 -0.13034875317E+04  0.15550683032E+04  0.65864270000E+03 0. -1.
    8880022    1    1    2    0    0  0.13263319696E+03 -0.51745136124E+03  0.31970140731E+03  0.64105235280E+03  0.15294330000E+03 0.  0.
<mgrwt>
<rscale>  0 0.76297096E+03</rscale>
<asrwt>0</asrwt>
<pdfrwt beam="1">  1        2 0.24460821E+00 0.84803165E+03</pdfrwt>
<pdfrwt beam="2">  1       -2 0.93256503E-01 0.84803165E+03</pdfrwt>
<totfact> 0.11142591E+01</totfact>
</mgrwt>
</event>
<event>
 4    1  0.6502538E-008  0.6995932E+03  0.7818608E-02  0.9998893E-01
          2   -1    0    0  501    0  0.00000000000E+00  0.00000000000E+00  0.89612999531E+03  0.89612999531E+03  0.25500000000E-02 0. -1.
         -2   -1    0    0    0  501 -0.00000000000E+00 -0.00000000000E+00 -0.29839939152E+03  0.29839939153E+03  0.25500000000E-02 0.  1.
    8880023    1    1    2    0    0 -0.20163787652E+03 -0.12232175696E+03  0.58699655990E+03  0.91323360269E+03  0.65864270000E+03 0.  0.
    8880022    1    1    2    0    0  0.20163787652E+03  0.12232175696E+03  0.10734043884E+02  0.28129578416E+03  0.15294330000E+03 0.  0.
<mgrwt>
<rscale>  0 0.55698806E+03</rscale>
<asrwt>0</asrwt>
<pdfrwt beam="1">  1        2 0.13786615E+00 0.69959320E+03</pdfrwt>
<pdfrwt beam="2">  1       -2 0.45907599E-01 0.69959320E+03</pdfrwt>
<totfact> 0.13472508E+02</totfact>
</mgrwt>
</event>
<event>
 4    1  0.6502538E-008  0.9513864E+03  0.7818608E-02  0.9448122E-01
         -2   -1    0    0    0  501 -0.00000000000E+00  0.00000000000E+00  0.46427616014E+03  0.46427616015E+03  0.25500000000E-02 0.  1.
          2   -1    0    0  501    0  0.00000000000E+00 -0.00000000000E+00 -0.24137876029E+04  0.24137876029E+04  0.25500000000E-02 0. -1.
    8880023    1    1    2    0    0 -0.62922285206E+03 -0.27459868012E+03 -0.19555259610E+04  0.21746764870E+04  0.65864270000E+03 0.  0.
    8880022    1    1    2    0    0  0.62922285206E+03  0.27459868012E+03  0.60145182446E+01  0.70338727606E+03  0.15294330000E+03 0.  0.
<mgrwt>
<rscale>  0 0.88219045E+03</rscale>
<asrwt>0</asrwt>
<pdfrwt beam="1">  1        2 0.37135193E+00 0.95138638E+03</pdfrwt>
<pdfrwt beam="2">  1       -2 0.71427103E-01 0.95138638E+03</pdfrwt>
<totfact> 0.70519606E+00</totfact>
</mgrwt>
</event>
<event>
 4    1  0.6502538E-008  0.7648838E+03  0.7818608E-02  0.9792624E-01
         -2   -1    0    0    0  501 -0.00000000000E+00  0.00000000000E+00  0.83070084380E+03  0.83070084380E+03  0.25500000000E-02 0.  1.
          2   -1    0    0  501    0  0.00000000000E+00 -0.00000000000E+00 -0.17756513457E+04  0.17756513457E+04  0.25500000000E-02 0. -1.
    8880023    1    1    2    0    0 -0.18847123337E+03  0.34016992072E+03 -0.16319121398E+04  0.18022720158E+04  0.65864270000E+03 0.  0.
    8880022    1    1    2    0    0  0.18847123337E+03 -0.34016992072E+03  0.68696163789E+03  0.80408017368E+03  0.15294330000E+03 0.  0.
<mgrwt>
<rscale>  0 0.65759881E+03</rscale>
<asrwt>0</asrwt>
<pdfrwt beam="1">  1        2 0.27317713E+00 0.76488377E+03</pdfrwt>
<pdfrwt beam="2">  1       -2 0.12780013E+00 0.76488377E+03</pdfrwt>
<totfact> 0.41528440E+00</totfact>
</mgrwt>
</event>
<event>
 4    1  0.6502538E-008  0.6626977E+03  0.7818608E-02  0.1021548E+00
         -2   -1    0    0    0  501 -0.00000000000E+00  0.00000000000E+00  0.13542604813E+04  0.13542604813E+04  0.25500000000E-02 0.  1.
          2   -1    0    0  501    0  0.00000000000E+00 -0.00000000000E+00 -0.76048889069E+03  0.76048889069E+03  0.25500000000E-02 0. -1.
    8880023    1    1    2    0    0  0.72280318032E+02 -0.11560565097E+02 -0.60903463613E+03  0.90005082374E+03  0.65864270000E+03 0. -1.
    8880022    1    1    2    0    0 -0.72280318032E+02  0.11560565097E+02  0.12028062268E+04  0.12146985483E+04  0.15294330000E+03 0.  0.
<mgrwt>
<rscale>  0 0.47132000E+03</rscale>
<asrwt>0</asrwt>
<pdfrwt beam="1">  1        2 0.11699829E+00 0.66269774E+03</pdfrwt>
<pdfrwt beam="2">  1       -2 0.20834776E+00 0.66269774E+03</pdfrwt>
<totfact> 0.44767143E+00</totfact>
</mgrwt>
</event>
<event>
 4    1  0.6502538E-008  0.8649479E+03  0.7818608E-02  0.9584822E-01
          2   -1    0    0  501    0  0.00000000000E+00  0.00000000000E+00  0.10754543239E+04  0.10754543239E+04  0.25500000000E-02 0. -1.
         -2   -1    0    0    0  501 -0.00000000000E+00 -0.00000000000E+00 -0.54198836268E+03  0.54198836268E+03  0.25500000000E-02 0.  1.
    8880023    1    1    2    0    0 -0.46966690870E+03  0.30616592904E+03  0.56883575060E+03  0.10352337411E+04  0.65864270000E+03 0. -1.
    8880022    1    1    2    0    0  0.46966690870E+03 -0.30616592904E+03 -0.35369789377E+02  0.58220894552E+03  0.15294330000E+03 0.  0.
<mgrwt>
<rscale>  0 0.78308956E+03</rscale>
<asrwt>0</asrwt>
<pdfrwt beam="1">  1        2 0.16545451E+00 0.86494785E+03</pdfrwt>
<pdfrwt beam="2">  1       -2 0.83382826E-01 0.86494785E+03</pdfrwt>
<totfact> 0.28578878E+01</totfact>
</mgrwt>
</event>
<event>
 4    1  0.6502538E-008  0.6952013E+03  0.7818608E-02  0.1001772E+00
          2   -1    0    0  501    0  0.00000000000E+00  0.00000000000E+00  0.10911265699E+04  0.10911265699E+04  0.25500000000E-02 0. -1.
         -2   -1    0    0    0  501 -0.00000000000E+00 -0.00000000000E+00 -0.10847657271E+04  0.10847657271E+04  0.25500000000E-02 0.  1.
    8880023    1    1    2    0    0  0.21305590546E+03  0.64045797102E+02  0.95971102539E+03  0.11850528011E+04  0.65864270000E+03 0. -1.
    8880022    1    1    2    0    0 -0.21305590546E+03 -0.64045797102E+02 -0.95335018252E+03  0.99083949584E+03  0.15294330000E+03 0.  0.
<mgrwt>
<rscale>  0 0.54879950E+03</rscale>
<asrwt>0</asrwt>
<pdfrwt beam="1">  1        2 0.16786563E+00 0.69520133E+03</pdfrwt>
<pdfrwt beam="2">  1       -2 0.16688704E+00 0.69520133E+03</pdfrwt>
<totfact> 0.50950052E+00</totfact>
</mgrwt>
</event>
<event>
 4    1  0.6502538E-008  0.6972428E+03  0.7818608E-02  0.1000884E+00
         -2   -1    0    0    0  501 -0.00000000000E+00  0.00000000000E+00  0.31001157176E+03  0.31001157177E+03  0.25500000000E-02 0.  1.
          2   -1    0    0  501    0  0.00000000000E+00 -0.00000000000E+00 -0.17591875686E+04  0.17591875686E+04  0.25500000000E-02 0. -1.
    8880023    1    1    2    0    0 -0.95695728220E+01  0.22857312860E+03 -0.16071585103E+04  0.17518863934E+04  0.65864270000E+03 0. -1.
    8880022    1    1    2    0    0  0.95695728220E+01 -0.22857312860E+03  0.15798251344E+03  0.31731274700E+03  0.15294330000E+03 0.  0.
<mgrwt>
<rscale>  0 0.55264433E+03</rscale>
<asrwt>0</asrwt>
<pdfrwt beam="1">  1        2 0.27064424E+00 0.69724275E+03</pdfrwt>
<pdfrwt beam="2">  1       -2 0.47694089E-01 0.69724275E+03</pdfrwt>
<totfact> 0.39140597E+01</totfact>
</mgrwt>
</event>
<event>
 4    1  0.6502538E-008  0.8709496E+03  0.7818608E-02  0.9574375E-01
         -2   -1    0    0    0  501 -0.00000000000E+00  0.00000000000E+00  0.98220966440E+03  0.98220966441E+03  0.25500000000E-02 0.  1.
          2   -1    0    0  501    0  0.00000000000E+00 -0.00000000000E+00 -0.23020674941E+04  0.23020674941E+04  0.25500000000E-02 0. -1.
    8880023    1    1    2    0    0 -0.22012555972E+03 -0.52563081376E+03 -0.21189482589E+04  0.22909593939E+04  0.65864270000E+03 0. -1.
    8880022    1    1    2    0    0  0.22012555972E+03  0.52563081376E+03  0.79909042920E+03  0.99331776460E+03  0.15294330000E+03 0.  0.
<mgrwt>
<rscale>  0 0.79015662E+03</rscale>
<asrwt>0</asrwt>
<pdfrwt beam="1">  1        2 0.35416423E+00 0.87094961E+03</pdfrwt>
<pdfrwt beam="2">  1       -2 0.15110918E+00 0.87094961E+03</pdfrwt>
<totfact> 0.13590460E+00</totfact>
</mgrwt>
</event>
<event>
 4    1  0.6502538E-008  0.9820908E+03  0.7818608E-02  0.9405373E-01
          2   -1    0    0  501    0  0.00000000000E+00  0.00000000000E+00  0.11304538159E+04  0.11304538159E+04  0.25500000000E-02 0. -1.
         -2   -1    0    0    0  501 -0.00000000000E+00 -0.00000000000E+00 -0.14504036938E+04  0.14504036938E+04  0.25500000000E-02 0.  1.
    8880023    1    1    2    0    0 -0.71406548702E+03  0.14423112873E+03  0.77900453854E+03  0.12535351673E+04  0.65864270000E+03 0.  0.
    8880022    1    1    2    0    0  0.71406548702E+03 -0.14423112873E+03 -0.10989544165E+04  0.13273223424E+04  0.15294330000E+03 0.  0.
<mgrwt>
<rscale>  0 0.91634848E+03</rscale>
<asrwt>0</asrwt>
<pdfrwt beam="1">  1        2 0.17391597E+00 0.98209080E+03</pdfrwt>
<pdfrwt beam="2">  1       -2 0.22313903E+00 0.98209080E+03</pdfrwt>
<totfact> 0.19626409E+00</totfact>
</mgrwt>
</event>
<event>
 4    1  0.6502538E-008  0.7343710E+03  0.7818608E-02  0.9876658E-01
          2   -1    0    0  501    0  0.00000000000E+00  0.00000000000E+00  0.53582844998E+03  0.53582844998E+03  0.25500000000E-02 0. -1.
         -2   -1    0    0    0  501 -0.00000000000E+00 -0.00000000000E+00 -0.98367039836E+03  0.98367039836E+03  0.25500000000E-02 0.  1.
    8880023    1    1    2    0    0  0.26845776823E+03  0.18281424734E+03 -0.75043901396E+03  0.10499807342E+04  0.65864270000E+03 0.  1.
    8880022    1    1    2    0    0 -0.26845776823E+03 -0.18281424734E+03  0.30259706558E+03  0.46951811410E+03  0.15294330000E+03 0.  0.
<mgrwt>
<rscale>  0 0.61406000E+03</rscale>
<asrwt>0</asrwt>
<pdfrwt beam="1">  1        2 0.82435146E-01 0.73437104E+03</pdfrwt>
<pdfrwt beam="2">  1       -2 0.15133391E+00 0.73437104E+03</pdfrwt>
<totfact> 0.16874204E+01</totfact>
</mgrwt>
</event>
<event>
 4    1  0.6502538E-008  0.1068199E+04  0.7818608E-02  0.9297317E-01
          2   -1    0    0  501    0  0.00000000000E+00  0.00000000000E+00  0.12822829218E+04  0.12822829218E+04  0.25500000000E-02 0. -1.
         -2   -1    0    0    0  501 -0.00000000000E+00 -0.00000000000E+00 -0.16108901789E+04  0.16108901789E+04  0.25500000000E-02 0.  1.
    8880023    1    1    2    0    0  0.13552327504E+03  0.82998334920E+03  0.89977818627E+03  0.13966566897E+04  0.65864270000E+03 0.  0.
    8880022    1    1    2    0    0 -0.13552327504E+03 -0.82998334920E+03 -0.12283854434E+04  0.14965164110E+04  0.15294330000E+03 0.  0.
<mgrwt>
<rscale>  0 0.10103023E+04</rscale>
<asrwt>0</asrwt>
<pdfrwt beam="1">  1        2 0.19727430E+00 0.10681990E+04</pdfrwt>
<pdfrwt beam="2">  1       -2 0.24782926E+00 0.10681990E+04</pdfrwt>
<totfact> 0.11083231E+00</totfact>
</mgrwt>
</event>
<event>
 4    1  0.6502538E-008  0.8804066E+03  0.7818608E-02  0.9558247E-01
         -2   -1    0    0    0  501 -0.00000000000E+00  0.00000000000E+00  0.92500279286E+03  0.92500279286E+03  0.25500000000E-02 0.  1.
          2   -1    0    0  501    0  0.00000000000E+00 -0.00000000000E+00 -0.73387278626E+03  0.73387278626E+03  0.25500000000E-02 0. -1.
    8880023    1    1    2    0    0 -0.90608640883E+02  0.57714446004E+03 -0.24511078118E+03  0.91389012188E+03  0.65864270000E+03 0. -1.
    8880022    1    1    2    0    0  0.90608640883E+02 -0.57714446004E+03  0.43624078778E+03  0.74498545724E+03  0.15294330000E+03 0.  1.
<mgrwt>
<rscale>  0 0.80122419E+03</rscale>
<asrwt>0</asrwt>
<pdfrwt beam="1">  1        2 0.11290350E+00 0.88040664E+03</pdfrwt>
<pdfrwt beam="2">  1       -2 0.14230812E+00 0.88040664E+03</pdfrwt>
<totfact> 0.13307168E+01</totfact>
</mgrwt>
</event>
<event>
 4    1  0.6502538E-008  0.7026564E+03  0.7818608E-02  0.9986355E-01
          2   -1    0    0  501    0  0.00000000000E+00  0.00000000000E+00  0.17416075719E+04  0.17416075719E+04  0.25500000000E-02 0. -1.
         -2   -1    0    0    0  501 -0.00000000000E+00 -0.00000000000E+00 -0.30290560719E+03  0.30290560720E+03  0.25500000000E-02 0.  1.
    8880023    1    1    2    0    0  0.54017279703E+01  0.24471733380E+03  0.15755137468E+04  0.17250998593E+04  0.65864270000E+03 0. -1.
    8880022    1    1    2    0    0 -0.54017279703E+01 -0.24471733380E+03 -0.13681178206E+03  0.31941331978E+03  0.15294330000E+03 0.  0.
<mgrwt>
<rscale>  0 0.56252611E+03</rscale>
<asrwt>0</asrwt>
<pdfrwt beam="1">  1        2 0.26793962E+00 0.70265636E+03</pdfrwt>
<pdfrwt beam="2">  1       -2 0.46600863E-01 0.70265636E+03</pdfrwt>
<totfact> 0.41893882E+01</totfact>
</mgrwt>
</event>
<event>
 4    1  0.6502538E-008  0.9978255E+03  0.7818608E-02  0.9384408E-01
         -2   -1    0    0    0  501 -0.00000000000E+00  0.00000000000E+00  0.26288844266E+04  0.26288844266E+04  0.25500000000E-02 0.  1.
          2   -1    0    0  501    0  0.00000000000E+00 -0.00000000000E+00 -0.44677379787E+03  0.44677379788E+03  0.25500000000E-02 0. -1.
    8880023    1    1    2    0    0 -0.14993706249E+03  0.73441432690E+03  0.29677174654E+03  0.10410231516E+04  0.65864270000E+03 0. -1.
    8880022    1    1    2    0    0  0.14993706249E+03 -0.73441432690E+03  0.18853388822E+04  0.20346350729E+04  0.15294330000E+03 0.  0.
<mgrwt>
<rscale>  0 0.93370017E+03</rscale>
<asrwt>0</asrwt>
<pdfrwt beam="1">  1        2 0.68734432E-01 0.99782550E+03</pdfrwt>
<pdfrwt beam="2">  1       -2 0.40444375E+00 0.99782550E+03</pdfrwt>
<totfact> 0.49719660E-01</totfact>
</mgrwt>
</event>
<event>
 4    1  0.6502538E-008  0.9093341E+03  0.7818608E-02  0.9511210E-01
          2   -1    0    0  501    0  0.00000000000E+00  0.00000000000E+00  0.34704984575E+04  0.34704984575E+04  0.25500000000E-02 0. -1.
         -2   -1    0    0    0  501 -0.00000000000E+00 -0.00000000000E+00 -0.64930028148E+03  0.64930028149E+03  0.25500000000E-02 0.  1.
    8880023    1    1    2    0    0 -0.27188327366E+03  0.56494051861E+03  0.32302056386E+04  0.33557587783E+04  0.65864270000E+03 0. -1.
    8880022    1    1    2    0    0  0.27188327366E+03 -0.56494051861E+03 -0.40900746260E+03  0.76403996070E+03  0.15294330000E+03 0.  0.
<mgrwt>
<rscale>  0 0.83462342E+03</rscale>
<asrwt>0</asrwt>
<pdfrwt beam="1">  1        2 0.53392283E+00 0.90933410E+03</pdfrwt>
<pdfrwt beam="2">  1       -2 0.99892353E-01 0.90933410E+03</pdfrwt>
<totfact> 0.74143693E-01</totfact>
</mgrwt>
</event>
<event>
 4    1  0.6502538E-008  0.7122172E+03  0.7818608E-02  0.9949858E-01
         -2   -1    0    0    0  501 -0.00000000000E+00  0.00000000000E+00  0.24987192976E+03  0.24987192977E+03  0.25500000000E-02 0.  1.
          2   -1    0    0  501    0  0.00000000000E+00 -0.00000000000E+00 -0.28870623015E+04  0.28870623015E+04  0.25500000000E-02 0. -1.
    8880023    1    1    2    0    0  0.83218919107E+02  0.25791027878E+03 -0.27226231042E+04  0.28142369968E+04  0.65864270000E+03 0.  0.
    8880022    1    1    2    0    0 -0.83218919107E+02 -0.25791027878E+03  0.85432732390E+02  0.32269723453E+03  0.15294330000E+03 0.  0.
<mgrwt>
<rscale>  0 0.57904623E+03</rscale>
<asrwt>0</asrwt>
<pdfrwt beam="1">  1        2 0.44416341E+00 0.71221718E+03</pdfrwt>
<pdfrwt beam="2">  1       -2 0.38441837E-01 0.71221718E+03</pdfrwt>
<totfact> 0.13929405E+01</totfact>
</mgrwt>
</event>
<event>
 4    1  0.6502538E-008  0.8426260E+03  0.7818608E-02  0.9625248E-01
         -2   -1    0    0    0  501 -0.00000000000E+00  0.00000000000E+00  0.87363043286E+03  0.87363043286E+03  0.25500000000E-02 0.  1.
          2   -1    0    0  501    0  0.00000000000E+00 -0.00000000000E+00 -0.16527776330E+04  0.16527776330E+04  0.25500000000E-02 0. -1.
    8880023    1    1    2    0    0 -0.85198551856E+02 -0.51860351238E+03 -0.14399359522E+04  0.16683627150E+04  0.65864270000E+03 0. -1.
    8880022    1    1    2    0    0  0.85198551856E+02  0.51860351238E+03  0.66078875202E+03  0.85804535084E+03  0.15294330000E+03 0.  0.
<mgrwt>
<rscale>  0 0.75647379E+03</rscale>
<asrwt>0</asrwt>
<pdfrwt beam="1">  1        2 0.25427348E+00 0.84262602E+03</pdfrwt>
<pdfrwt beam="2">  1       -2 0.13440468E+00 0.84262602E+03</pdfrwt>
<totfact> 0.42183871E+00</totfact>
</mgrwt>
</event>
<event>
 4    1  0.6502538E-008  0.1241610E+04  0.7818608E-02  0.9117698E-01
          2   -1    0    0  501    0  0.00000000000E+00  0.00000000000E+00  0.37740655526E+04  0.37740655527E+04  0.25500000000E-02 0. -1.
         -2   -1    0    0    0  501 -0.00000000000E+00 -0.00000000000E+00 -0.52732833290E+03  0.52732833290E+03  0.25500000000E-02 0.  1.
    8880023    1    1    2    0    0 -0.68840615110E+03  0.79616790223E+03  0.29447217996E+04  0.31957758121E+04  0.65864270000E+03 0. -1.
    8880022    1    1    2    0    0  0.68840615110E+03 -0.79616790223E+03  0.30201542011E+03  0.11056180735E+04  0.15294330000E+03 0.  0.
<mgrwt>
<rscale>  0 0.11944842E+04</rscale>
<asrwt>0</asrwt>
<pdfrwt beam="1">  1        2 0.58062549E+00 0.12416105E+04</pdfrwt>
<pdfrwt beam="2">  1       -2 0.81127432E-01 0.12416105E+04</pdfrwt>
<totfact> 0.69085205E-01</totfact>
</mgrwt>
</event>
<event>
 4    1  0.6502538E-008  0.6833252E+03  0.7818608E-02  0.1007502E+00
          2   -1    0    0  501    0  0.00000000000E+00  0.00000000000E+00  0.47984009579E+04  0.47984009579E+04  0.25500000000E-02 0. -1.
         -2   -1    0    0    0  501 -0.00000000000E+00 -0.00000000000E+00 -0.24203171515E+03  0.24203171517E+03  0.25500000000E-02 0.  1.
    8880023    1    1    2    0    0  0.15933666801E+03 -0.87948245863E+02  0.47087410841E+04  0.47580642988E+04  0.65864270000E+03 0. -1.
    8880022    1    1    2    0    0 -0.15933666801E+03  0.87948245863E+02 -0.15237184139E+03  0.28236837427E+03  0.15294330000E+03 0.  0.
<mgrwt>
<rscale>  0 0.52479629E+03</rscale>
<asrwt>0</asrwt>
<pdfrwt beam="1">  1        2 0.73821545E+00 0.68332516E+03</pdfrwt>
<pdfrwt beam="2">  1       -2 0.37235652E-01 0.68332516E+03</pdfrwt>
<totfact> 0.48170910E-01</totfact>
</mgrwt>
</event>
<event>
 4    1  0.6502538E-008  0.6975322E+03  0.7818608E-02  0.1000760E+00
         -2   -1    0    0    0  501 -0.00000000000E+00  0.00000000000E+00  0.70258558121E+02  0.70258558167E+02  0.25500000000E-02 0.  1.
          2   -1    0    0  501    0  0.00000000000E+00 -0.00000000000E+00 -0.37745718224E+04  0.37745718224E+04  0.25500000000E-02 0. -1.
    8880023    1    1    2    0    0  0.79920232552E+02 -0.21529915181E+03 -0.31416558393E+04  0.32181598138E+04  0.65864270000E+03 0. -1.
    8880022    1    1    2    0    0 -0.79920232552E+02  0.21529915181E+03 -0.56265742496E+03  0.62667056674E+03  0.15294330000E+03 0.  0.
<mgrwt>
<rscale>  0 0.55318392E+03</rscale>
<asrwt>0</asrwt>
<pdfrwt beam="1">  1        2 0.58070320E+00 0.69753220E+03</pdfrwt>
<pdfrwt beam="2">  1       -2 0.10809012E-01 0.69753220E+03</pdfrwt>
<totfact> 0.34109778E+01</totfact>
</mgrwt>
</event>
<event>
 4    1  0.6502538E-008  0.6974507E+03  0.7818608E-02  0.1000795E+00
          2   -1    0    0  501    0  0.00000000000E+00  0.00000000000E+00  0.13859357959E+04  0.13859357959E+04  0.25500000000E-02 0. -1.
         -2   -1    0    0    0  501 -0.00000000000E+00 -0.00000000000E+00 -0.32096804227E+03  0.32096804228E+03  0.25500000000E-02 0.  1.
    8880023    1    1    2    0    0 -0.15058233783E+03 -0.17306717333E+03  0.12090633362E+04  0.13958050165E+04  0.65864270000E+03 0. -1.
    8880022    1    1    2    0    0  0.15058233783E+03  0.17306717333E+03 -0.14409558252E+03  0.31109882171E+03  0.15294330000E+03 0.  0.
<mgrwt>
<rscale>  0 0.55303213E+03</rscale>
<asrwt>0</asrwt>
<pdfrwt beam="1">  1        2 0.21322089E+00 0.69745071E+03</pdfrwt>
<pdfrwt beam="2">  1       -2 0.49379698E-01 0.69745071E+03</pdfrwt>
<totfact> 0.58656397E+01</totfact>
</mgrwt>
</event>
<event>
 4    1  0.6502538E-008  0.7143282E+03  0.7818608E-02  0.9942266E-01
         -2   -1    0    0    0  501 -0.00000000000E+00  0.00000000000E+00  0.26865074700E+03  0.26865074701E+03  0.25500000000E-02 0.  1.
          2   -1    0    0  501    0  0.00000000000E+00 -0.00000000000E+00 -0.17075792976E+04  0.17075792976E+04  0.25500000000E-02 0. -1.
    8880023    1    1    2    0    0 -0.22547166517E+01  0.27649509982E+03 -0.14935274394E+04  0.16555630591E+04  0.65864270000E+03 0. -1.
    8880022    1    1    2    0    0  0.22547166517E+01 -0.27649509982E+03  0.54598888788E+02  0.32066698558E+03  0.15294330000E+03 0.  0.
<mgrwt>
<rscale>  0 0.58255891E+03</rscale>
<asrwt>0</asrwt>
<pdfrwt beam="1">  1        2 0.26270450E+00 0.71432824E+03</pdfrwt>
<pdfrwt beam="2">  1       -2 0.41330885E-01 0.71432824E+03</pdfrwt>
<totfact> 0.55392947E+01</totfact>
</mgrwt>
</event>
<event>
 4    1  0.6502538E-008  0.7207574E+03  0.7818608E-02  0.9920032E-01
          2   -1    0    0  501    0  0.00000000000E+00  0.00000000000E+00  0.13247922130E+04  0.13247922130E+04  0.25500000000E-02 0. -1.
         -2   -1    0    0    0  501 -0.00000000000E+00 -0.00000000000E+00 -0.25792843982E+03  0.25792843984E+03  0.25500000000E-02 0.  1.
    8880023    1    1    2    0    0  0.22831061206E+03 -0.18318099905E+03  0.10202877368E+04  0.12491910527E+04  0.65864270000E+03 0. -1.
    8880022    1    1    2    0    0 -0.22831061206E+03  0.18318099905E+03  0.46576036361E+02  0.33352960014E+03  0.15294330000E+03 0. -1.
<mgrwt>
<rscale>  0 0.59300222E+03</rscale>
<asrwt>0</asrwt>
<pdfrwt beam="1">  1        2 0.20381418E+00 0.72075739E+03</pdfrwt>
<pdfrwt beam="2">  1       -2 0.39681299E-01 0.72075739E+03</pdfrwt>
<totfact> 0.97893920E+01</totfact>
</mgrwt>
</event>
<event>
 4    1  0.6502538E-008  0.1154666E+04  0.7818608E-02  0.9202502E-01
          2   -1    0    0  501    0  0.00000000000E+00  0.00000000000E+00  0.22352420553E+04  0.22352420553E+04  0.25500000000E-02 0. -1.
         -2   -1    0    0    0  501 -0.00000000000E+00 -0.00000000000E+00 -0.54063014219E+03  0.54063014220E+03  0.25500000000E-02 0.  1.
    8880023    1    1    2    0    0  0.79622685528E+03 -0.51523300855E+03  0.12961383577E+04  0.17358649448E+04  0.65864270000E+03 0. -1.
    8880022    1    1    2    0    0 -0.79622685528E+03  0.51523300855E+03  0.39847355539E+03  0.10400072526E+04  0.15294330000E+03 0.  0.
<mgrwt>
<rscale>  0 0.11027640E+04</rscale>
<asrwt>0</asrwt>
<pdfrwt beam="1">  1        2 0.34388339E+00 0.11546655E+04</pdfrwt>
<pdfrwt beam="2">  1       -2 0.83173869E-01 0.11546655E+04</pdfrwt>
<totfact> 0.61680932E+00</totfact>
</mgrwt>
</event>
<event>
 4    1  0.6502538E-008  0.6605880E+03  0.7818608E-02  0.1023562E+00
          2   -1    0    0  501    0  0.00000000000E+00  0.00000000000E+00  0.15397722754E+04  0.15397722754E+04  0.25500000000E-02 0. -1.
         -2   -1    0    0    0  501 -0.00000000000E+00 -0.00000000000E+00 -0.45478527432E+03  0.45478527433E+03  0.25500000000E-02 0.  1.
    8880023    1    1    2    0    0  0.35778050590E+02 -0.35863463153E+02  0.14511961148E+04  0.15944737774E+04  0.65864270000E+03 0. -1.
    8880022    1    1    2    0    0 -0.35778050590E+02  0.35863463153E+02 -0.36620911373E+03  0.40008377234E+03  0.15294330000E+03 0.  0.
<mgrwt>
<rscale>  0 0.46422840E+03</rscale>
<asrwt>0</asrwt>
<pdfrwt beam="1">  1        2 0.23688804E+00 0.66058797E+03</pdfrwt>
<pdfrwt beam="2">  1       -2 0.69966965E-01 0.66058797E+03</pdfrwt>
<totfact> 0.23248085E+01</totfact>
</mgrwt>
</event>
<event>
 4    1  0.6502538E-008  0.8936085E+03  0.7818608E-02  0.9536371E-01
          2   -1    0    0  501    0  0.00000000000E+00  0.00000000000E+00  0.14763818246E+04  0.14763818246E+04  0.25500000000E-02 0. -1.
         -2   -1    0    0    0  501 -0.00000000000E+00 -0.00000000000E+00 -0.11082838076E+04  0.11082838076E+04  0.25500000000E-02 0.  1.
    8880023    1    1    2    0    0 -0.53799446631E+03  0.27438627907E+03  0.12305208090E+04  0.15207621587E+04  0.65864270000E+03 0. -1.
    8880022    1    1    2    0    0  0.53799446631E+03 -0.27438627907E+03 -0.86242279187E+03  0.10639034735E+04  0.15294330000E+03 0.  0.
<mgrwt>
<rscale>  0 0.81654639E+03</rscale>
<asrwt>0</asrwt>
<pdfrwt beam="1">  1        2 0.22713566E+00 0.89360846E+03</pdfrwt>
<pdfrwt beam="2">  1       -2 0.17050520E+00 0.89360846E+03</pdfrwt>
<totfact> 0.27839960E+00</totfact>
</mgrwt>
</event>
<event>
 4    1  0.6502538E-008  0.8116700E+03  0.7818608E-02  0.9686109E-01
          2   -1    0    0  501    0  0.00000000000E+00  0.00000000000E+00  0.57765891708E+03  0.57765891708E+03  0.25500000000E-02 0. -1.
         -2   -1    0    0    0  501 -0.00000000000E+00 -0.00000000000E+00 -0.10225232967E+04  0.10225232967E+04  0.25500000000E-02 0.  1.
    8880023    1    1    2    0    0  0.44202690584E+03  0.17207632316E+03  0.14864682134E+03  0.82516915250E+03  0.65864270000E+03 0. -1.
    8880022    1    1    2    0    0 -0.44202690584E+03 -0.17207632316E+03 -0.59351120095E+03  0.77501306128E+03  0.15294330000E+03 0.  0.
<mgrwt>
<rscale>  0 0.71849928E+03</rscale>
<asrwt>0</asrwt>
<pdfrwt beam="1">  1        2 0.88870602E-01 0.81167004E+03</pdfrwt>
<pdfrwt beam="2">  1       -2 0.15731128E+00 0.81167004E+03</pdfrwt>
<totfact> 0.13816781E+01</totfact>
</mgrwt>
</event>
<event>
 4    1  0.6502538E-008  0.6642917E+03  0.7818608E-02  0.1020135E+00
          2   -1    0    0  501    0  0.00000000000E+00  0.00000000000E+00  0.12948778831E+04  0.12948778831E+04  0.25500000000E-02 0. -1.
         -2   -1    0    0    0  501 -0.00000000000E+00 -0.00000000000E+00 -0.44930630022E+03  0.44930630022E+03  0.25500000000E-02 0.  1.
    8880023    1    1    2    0    0  0.75661250196E+02 -0.41817341424E+02  0.11869814471E+04  0.13602236864E+04  0.65864270000E+03 0. -1.
    8880022    1    1    2    0    0 -0.75661250196E+02  0.41817341424E+02 -0.34140986424E+03  0.38396049698E+03  0.15294330000E+03 0.  0.
<mgrwt>
<rscale>  0 0.47637874E+03</rscale>
<asrwt>0</asrwt>
<pdfrwt beam="1">  1        2 0.19921198E+00 0.66429174E+03</pdfrwt>
<pdfrwt beam="2">  1       -2 0.69124047E-01 0.66429174E+03</pdfrwt>
<totfact> 0.32753665E+01</totfact>
</mgrwt>
</event>
<event>
 4    1  0.7265052E-008  0.1042199E+04  0.7818608E-02  0.9328319E-01
         -2   -1    0    0    0  501 -0.00000000000E+00  0.00000000000E+00  0.16093858350E+04  0.16093858350E+04  0.25500000000E-02 0.  1.
          2   -1    0    0  501    0  0.00000000000E+00 -0.00000000000E+00 -0.29536619241E+04  0.29536619241E+04  0.25500000000E-02 0. -1.
    8880023    1    1    2    0    0  0.80760866871E+03 -0.11681833500E+02 -0.27465201937E+04  0.29376098461E+04  0.65864270000E+03 0. -1.
    8880022    1    1    2    0    0 -0.80760866871E+03  0.11681833500E+02  0.14022441047E+04  0.16254379130E+04  0.15294330000E+03 0.  0.
<mgrwt>
<rscale>  0 0.98217074E+03</rscale>
<asrwt>0</asrwt>
<pdfrwt beam="1">  1        2 0.45440953E+00 0.10421988E+04</pdfrwt>
<pdfrwt beam="2">  1       -2 0.24759782E+00 0.10421988E+04</pdfrwt>
<totfact> 0.12525897E-01</totfact>
</mgrwt>
</event>
<event>
 4    1  0.6502538E-008  0.8994945E+03  0.7818608E-02  0.9526844E-01
         -2   -1    0    0    0  501 -0.00000000000E+00  0.00000000000E+00  0.42114269471E+03  0.42114269471E+03  0.25500000000E-02 0.  1.
          2   -1    0    0  501    0  0.00000000000E+00 -0.00000000000E+00 -0.40269193468E+04  0.40269193468E+04  0.25500000000E-02 0. -1.
    8880023    1    1    2    0    0 -0.29097139093E+03  0.53908792315E+03 -0.37016943014E+04  0.38094134780E+04  0.65864270000E+03 0. -1.
    8880022    1    1    2    0    0  0.29097139093E+03 -0.53908792315E+03  0.95917649281E+02  0.63864856352E+03  0.15294330000E+03 0.  0.
<mgrwt>
<rscale>  0 0.82333356E+03</rscale>
<asrwt>0</asrwt>
<pdfrwt beam="1">  1        2 0.61952603E+00 0.89949449E+03</pdfrwt>
<pdfrwt beam="2">  1       -2 0.64791186E-01 0.89949449E+03</pdfrwt>
<totfact> 0.76976612E-01</totfact>
</mgrwt>
</event>
<event>
 4    1  0.6502538E-008  0.7047362E+03  0.7818608E-02  0.9978093E-01
          2   -1    0    0  501    0  0.00000000000E+00  0.00000000000E+00  0.20049892872E+04  0.20049892872E+04  0.25500000000E-02 0. -1.
         -2   -1    0    0    0  501 -0.00000000000E+00 -0.00000000000E+00 -0.39039025166E+03  0.39039025167E+03  0.25500000000E-02 0.  1.
    8880023    1    1    2    0    0 -0.37255850623E+02 -0.24790104737E+03  0.18748930430E+04  0.20029670633E+04  0.65864270000E+03 0. -1.
    8880022    1    1    2    0    0  0.37255850623E+02  0.24790104737E+03 -0.26029400743E+03  0.39241247561E+03  0.15294330000E+03 0.  0.
<mgrwt>
<rscale>  0 0.56621338E+03</rscale>
<asrwt>0</asrwt>
<pdfrwt beam="1">  1        2 0.30845989E+00 0.70473622E+03</pdfrwt>
<pdfrwt beam="2">  1       -2 0.60060038E-01 0.70473622E+03</pdfrwt>
<totfact> 0.17865563E+01</totfact>
</mgrwt>
</event>
<event>
 4    1  0.6502538E-008  0.7015840E+03  0.7818608E-02  0.9990693E-01
          2   -1    0    0  501    0  0.00000000000E+00  0.00000000000E+00  0.18325815423E+04  0.18325815423E+04  0.25500000000E-02 0. -1.
         -2   -1    0    0    0  501 -0.00000000000E+00 -0.00000000000E+00 -0.30512514176E+03  0.30512514177E+03  0.25500000000E-02 0.  1.
    8880023    1    1    2    0    0 -0.75787905452E+02  0.22949084639E+03  0.16749172868E+04  0.18159206974E+04  0.65864270000E+03 0. -1.
    8880022    1    1    2    0    0  0.75787905452E+02 -0.22949084639E+03 -0.14746088633E+03  0.32178598665E+03  0.15294330000E+03 0.  0.
<mgrwt>
<rscale>  0 0.56060234E+03</rscale>
<asrwt>0</asrwt>
<pdfrwt beam="1">  1        2 0.28193561E+00 0.70158397E+03</pdfrwt>
<pdfrwt beam="2">  1       -2 0.46942331E-01 0.70158397E+03</pdfrwt>
<totfact> 0.36840129E+01</totfact>
</mgrwt>
</event>
<event>
 4    1  0.6502538E-008  0.6637388E+03  0.7818608E-02  0.1020616E+00
         -2   -1    0    0    0  501 -0.00000000000E+00  0.00000000000E+00  0.19801370907E+03  0.19801370908E+03  0.25500000000E-02 0.  1.
          2   -1    0    0  501    0  0.00000000000E+00 -0.00000000000E+00 -0.14556571367E+04  0.14556571367E+04  0.25500000000E-02 0. -1.
    8880023    1    1    2    0    0  0.37511057565E+02  0.73019705724E+02 -0.13132054232E+04  0.14714134860E+04  0.65864270000E+03 0.  0.
    8880022    1    1    2    0    0 -0.37511057565E+02 -0.73019705724E+02  0.55561995531E+02  0.18225735987E+03  0.15294330000E+03 0.  0.
<mgrwt>
<rscale>  0 0.47465043E+03</rscale>
<asrwt>0</asrwt>
<pdfrwt beam="1">  1        2 0.22394725E+00 0.66373878E+03</pdfrwt>
<pdfrwt beam="2">  1       -2 0.30463648E-01 0.66373878E+03</pdfrwt>
<totfact> 0.13716754E+02</totfact>
</mgrwt>
</event>
<event>
 4    1  0.6502538E-008  0.7067592E+03  0.7818608E-02  0.9970238E-01
         -2   -1    0    0    0  501 -0.00000000000E+00  0.00000000000E+00  0.87037781416E+03  0.87037781416E+03  0.25500000000E-02 0.  1.
          2   -1    0    0  501    0  0.00000000000E+00 -0.00000000000E+00 -0.90522972197E+03  0.90522972197E+03  0.25500000000E-02 0. -1.
    8880023    1    1    2    0    0 -0.66495866427E+01  0.25623068581E+03 -0.73183979960E+03  0.10173977000E+04  0.65864270000E+03 0. -1.
    8880022    1    1    2    0    0  0.66495866427E+01 -0.25623068581E+03  0.69698789178E+03  0.75820983617E+03  0.15294330000E+03 0.  0.
<mgrwt>
<rscale>  0 0.56974727E+03</rscale>
<asrwt>0</asrwt>
<pdfrwt beam="1">  1        2 0.13926611E+00 0.70675921E+03</pdfrwt>
<pdfrwt beam="2">  1       -2 0.13390428E+00 0.70675921E+03</pdfrwt>
<totfact> 0.11966409E+01</totfact>
</mgrwt>
</event>
<event>
 4    1  0.6502538E-008  0.8926265E+03  0.7818608E-02  0.9537974E-01
          2   -1    0    0  501    0  0.00000000000E+00  0.00000000000E+00  0.10113641292E+04  0.10113641292E+04  0.25500000000E-02 0. -1.
         -2   -1    0    0    0  501 -0.00000000000E+00 -0.00000000000E+00 -0.10312812588E+04  0.10312812588E+04  0.25500000000E-02 0.  1.
    8880023    1    1    2    0    0 -0.59686276245E+03 -0.82016448033E+02  0.66844799441E+03  0.11151702930E+04  0.65864270000E+03 0.  0.
    8880022    1    1    2    0    0  0.59686276245E+03  0.82016448033E+02 -0.68836512394E+03  0.92747509499E+03  0.15294330000E+03 0.  0.
<mgrwt>
<rscale>  0 0.81541152E+03</rscale>
<asrwt>0</asrwt>
<pdfrwt beam="1">  1        2 0.15559448E+00 0.89262650E+03</pdfrwt>
<pdfrwt beam="2">  1       -2 0.15865866E+00 0.89262650E+03</pdfrwt>
<totfact> 0.63972343E+00</totfact>
</mgrwt>
</event>
<event>
 4    1  0.6502538E-008  0.1545997E+04  0.7818608E-02  0.8877821E-01
          2   -1    0    0  501    0  0.00000000000E+00  0.00000000000E+00  0.30138475151E+04  0.30138475151E+04  0.25500000000E-02 0. -1.
         -2   -1    0    0    0  501 -0.00000000000E+00 -0.00000000000E+00 -0.18179609241E+04  0.18179609241E+04  0.25500000000E-02 0.  1.
    8880023    1    1    2    0    0  0.86076469113E+03 -0.11024432585E+04  0.24829514785E+04  0.29249196985E+04  0.65864270000E+03 0. -1.
    8880022    1    1    2    0    0 -0.86076469113E+03  0.11024432585E+04 -0.12870648875E+04  0.19068887407E+04  0.15294330000E+03 0.  0.
<mgrwt>
<rscale>  0 0.15100145E+04</rscale>
<asrwt>0</asrwt>
<pdfrwt beam="1">  1        2 0.46366884E+00 0.15459972E+04</pdfrwt>
<pdfrwt beam="2">  1       -2 0.27968630E+00 0.15459972E+04</pdfrwt>
<totfact> 0.67485266E-02</totfact>
</mgrwt>
</event>
<event>
 4    1  0.6502538E-008  0.1312560E+04  0.7818608E-02  0.9054789E-01
         -2   -1    0    0    0  501 -0.00000000000E+00  0.00000000000E+00  0.22896517622E+04  0.22896517622E+04  0.25500000000E-02 0.  1.
          2   -1    0    0  501    0  0.00000000000E+00 -0.00000000000E+00 -0.84062697823E+03  0.84062697823E+03  0.25500000000E-02 0. -1.
    8880023    1    1    2    0    0 -0.94788814379E+03  0.62490955106E+03  0.38472996375E+02  0.13131238547E+04  0.65864270000E+03 0.  0.
    8880022    1    1    2    0    0  0.94788814379E+03 -0.62490955106E+03  0.14105517876E+04  0.18171548857E+04  0.15294330000E+03 0.  0.
<mgrwt>
<rscale>  0 0.12686666E+04</rscale>
<asrwt>0</asrwt>
<pdfrwt beam="1">  1        2 0.12932723E+00 0.13125601E+04</pdfrwt>
<pdfrwt beam="2">  1       -2 0.35225411E+00 0.13125601E+04</pdfrwt>
<totfact> 0.47145916E-01</totfact>
</mgrwt>
</event>
<event>
 4    1  0.6502538E-008  0.6863146E+03  0.7818608E-02  0.1005956E+00
          2   -1    0    0  501    0  0.00000000000E+00  0.00000000000E+00  0.31026838355E+04  0.31026838355E+04  0.25500000000E-02 0. -1.
         -2   -1    0    0    0  501 -0.00000000000E+00 -0.00000000000E+00 -0.16762196229E+03  0.16762196231E+03  0.25500000000E-02 0.  1.
    8880023    1    1    2    0    0  0.19164446670E+03  0.22135656626E+02  0.29450023230E+04  0.30239157524E+04  0.65864270000E+03 0. -1.
    8880022    1    1    2    0    0 -0.19164446670E+03 -0.22135656626E+02 -0.99404498086E+01  0.24639004539E+03  0.15294330000E+03 0.  0.
<mgrwt>
<rscale>  0 0.53114098E+03</rscale>
<asrwt>0</asrwt>
<pdfrwt beam="1">  1        2 0.47733593E+00 0.68631465E+03</pdfrwt>
<pdfrwt beam="2">  1       -2 0.25787997E-01 0.68631465E+03</pdfrwt>
<totfact> 0.21809032E+01</totfact>
</mgrwt>
</event>
<event>
 4    1  0.6502538E-008  0.1941598E+04  0.7818608E-02  0.8648006E-01
         -2   -1    0    0    0  501 -0.00000000000E+00  0.00000000000E+00  0.14752947849E+04  0.14752947849E+04  0.25500000000E-02 0.  1.
          2   -1    0    0  501    0  0.00000000000E+00 -0.00000000000E+00 -0.31823832517E+04  0.31823832517E+04  0.25500000000E-02 0. -1.
    8880023    1    1    2    0    0  0.13571510851E+04  0.12223472520E+04 -0.20160309235E+04  0.27989610149E+04  0.65864270000E+03 0.  0.
    8880022    1    1    2    0    0 -0.13571510851E+04 -0.12223472520E+04  0.30894245663E+03  0.18587170217E+04  0.15294330000E+03 0.  0.
<mgrwt>
<rscale>  0 0.19138236E+04</rscale>
<asrwt>0</asrwt>
<pdfrwt beam="1">  1        2 0.48959742E+00 0.19415978E+04</pdfrwt>
<pdfrwt beam="2">  1       -2 0.22696843E+00 0.19415978E+04</pdfrwt>
<totfact> 0.10650635E-01</totfact>
</mgrwt>
</event>
<event>
 4    1  0.6502538E-008  0.1071646E+04  0.7818608E-02  0.9293302E-01
         -2   -1    0    0    0  501 -0.00000000000E+00  0.00000000000E+00  0.57683256397E+03  0.57683256397E+03  0.25500000000E-02 0.  1.
          2   -1    0    0  501    0  0.00000000000E+00 -0.00000000000E+00 -0.23923831770E+04  0.23923831770E+04  0.25500000000E-02 0. -1.
    8880023    1    1    2    0    0 -0.83028588925E+03 -0.15886906832E+03 -0.18177645309E+04  0.21101403116E+04  0.65864270000E+03 0.  0.
    8880022    1    1    2    0    0  0.83028588925E+03  0.15886906832E+03  0.22139179101E+01  0.85907542929E+03  0.15294330000E+03 0.  0.
<mgrwt>
<rscale>  0 0.10140184E+04</rscale>
<asrwt>0</asrwt>
<pdfrwt beam="1">  1        2 0.36805895E+00 0.10716456E+04</pdfrwt>
<pdfrwt beam="2">  1       -2 0.88743473E-01 0.10716456E+04</pdfrwt>
<totfact> 0.43766330E+00</totfact>
</mgrwt>
</event>
<event>
 4    1  0.8102969E-008  0.1857712E+04  0.7818608E-02  0.8691266E-01
          2   -1    0    0  501    0  0.00000000000E+00  0.00000000000E+00  0.28459303905E+04  0.28459303905E+04  0.25500000000E-02 0. -1.
         -2   -1    0    0    0  501 -0.00000000000E+00 -0.00000000000E+00 -0.22932659573E+04  0.22932659573E+04  0.25500000000E-02 0.  1.
    8880023    1    1    2    0    0 -0.15450850738E+04  0.79372346036E+03  0.21029290373E+04  0.28059589375E+04  0.65864270000E+03 0. -1.
    8880022    1    1    2    0    0  0.15450850738E+04 -0.79372346036E+03 -0.15502646042E+04  0.23332374103E+04  0.15294330000E+03 0.  0.
<mgrwt>
<rscale>  0 0.18285428E+04</rscale>
<asrwt>0</asrwt>
<pdfrwt beam="1">  1        2 0.43783545E+00 0.18577123E+04</pdfrwt>
<pdfrwt beam="2">  1       -2 0.35281015E+00 0.18577123E+04</pdfrwt>
<totfact> 0.29049813E-02</totfact>
</mgrwt>
</event>
<event>
 4    1  0.6502538E-008  0.1361947E+04  0.7818608E-02  0.9013830E-01
         -2   -1    0    0    0  501 -0.00000000000E+00  0.00000000000E+00  0.79767943290E+03  0.79767943291E+03  0.25500000000E-02 0.  1.
          2   -1    0    0  501    0  0.00000000000E+00 -0.00000000000E+00 -0.43813321386E+04  0.43813321386E+04  0.25500000000E-02 0. -1.
    8880023    1    1    2    0    0 -0.70617612899E+03 -0.96041837109E+03 -0.37275456210E+04  0.39685633088E+04  0.65864270000E+03 0.  0.
    8880022    1    1    2    0    0  0.70617612899E+03  0.96041837109E+03  0.14389291532E+03  0.12104482627E+04  0.15294330000E+03 0.  0.
<mgrwt>
<rscale>  0 0.13200305E+04</rscale>
<asrwt>0</asrwt>
<pdfrwt beam="1">  1        2 0.67405108E+00 0.13619465E+04</pdfrwt>
<pdfrwt beam="2">  1       -2 0.12271992E+00 0.13619465E+04</pdfrwt>
<totfact> 0.79761590E-02</totfact>
</mgrwt>
</event>
<event>
 4    1  0.6502538E-008  0.1333430E+04  0.7818608E-02  0.9037216E-01
         -2   -1    0    0    0  501 -0.00000000000E+00  0.00000000000E+00  0.50680014768E+03  0.50680014768E+03  0.25500000000E-02 0.  1.
          2   -1    0    0  501    0  0.00000000000E+00 -0.00000000000E+00 -0.35372947731E+04  0.35372947731E+04  0.25500000000E-02 0. -1.
    8880023    1    1    2    0    0 -0.10979968579E+04  0.37232685087E+03 -0.23195184076E+04  0.26754813088E+04  0.65864270000E+03 0.  0.
    8880022    1    1    2    0    0  0.10979968579E+04 -0.37232685087E+03 -0.71097621780E+03  0.13686136121E+04  0.15294330000E+03 0.  0.
<mgrwt>
<rscale>  0 0.12903963E+04</rscale>
<asrwt>0</asrwt>
<pdfrwt beam="1">  1        2 0.54419918E+00 0.13334296E+04</pdfrwt>
<pdfrwt beam="2">  1       -2 0.77969256E-01 0.13334296E+04</pdfrwt>
<totfact> 0.11059224E+00</totfact>
</mgrwt>
</event>
<event>
 4    1  0.6502538E-008  0.9543205E+03  0.7818608E-02  0.9443925E-01
          2   -1    0    0  501    0  0.00000000000E+00  0.00000000000E+00  0.56041819797E+03  0.56041819798E+03  0.25500000000E-02 0. -1.
         -2   -1    0    0    0  501 -0.00000000000E+00 -0.00000000000E+00 -0.21557127443E+04  0.21557127443E+04  0.25500000000E-02 0.  1.
    8880023    1    1    2    0    0  0.68280445473E+03  0.10341933477E+03  0.18106094891E+02  0.95449228344E+03  0.65864270000E+03 0.  0.
    8880022    1    1    2    0    0 -0.68280445473E+03 -0.10341933477E+03 -0.16134006412E+04  0.17616386588E+04  0.15294330000E+03 0.  0.
<mgrwt>
<rscale>  0 0.88547337E+03</rscale>
<asrwt>0</asrwt>
<pdfrwt beam="1">  1        2 0.86218186E-01 0.95432054E+03</pdfrwt>
<pdfrwt beam="2">  1       -2 0.33164811E+00 0.95432054E+03</pdfrwt>
<totfact> 0.11105721E+00</totfact>
</mgrwt>
</event>
<event>
 4    1  0.6502538E-008  0.8546948E+03  0.7818608E-02  0.9603071E-01
          2   -1    0    0  501    0  0.00000000000E+00  0.00000000000E+00  0.16691229270E+04  0.16691229270E+04  0.25500000000E-02 0. -1.
         -2   -1    0    0    0  501 -0.00000000000E+00 -0.00000000000E+00 -0.31106967350E+03  0.31106967351E+03  0.25500000000E-02 0.  1.
    8880023    1    1    2    0    0 -0.43816160485E+03  0.32358521636E+03  0.97692670838E+03  0.12980327361E+04  0.65864270000E+03 0.  0.
    8880022    1    1    2    0    0  0.43816160485E+03 -0.32358521636E+03  0.38112654516E+03  0.68215986444E+03  0.15294330000E+03 0.  0.
<mgrwt>
<rscale>  0 0.77093258E+03</rscale>
<asrwt>0</asrwt>
<pdfrwt beam="1">  1        2 0.25678814E+00 0.85469479E+03</pdfrwt>
<pdfrwt beam="2">  1       -2 0.47856873E-01 0.85469479E+03</pdfrwt>
<totfact> 0.42786825E+01</totfact>
</mgrwt>
</event>
<event>
 4    1  0.6502538E-008  0.7527028E+03  0.7818608E-02  0.9824379E-01
         -2   -1    0    0    0  501 -0.00000000000E+00  0.00000000000E+00  0.70806521016E+03  0.70806521017E+03  0.25500000000E-02 0.  1.
          2   -1    0    0  501    0  0.00000000000E+00 -0.00000000000E+00 -0.19536872986E+04  0.19536872986E+04  0.25500000000E-02 0. -1.
    8880023    1    1    2    0    0  0.25334004561E+03 -0.26185901417E+03 -0.18171780978E+04  0.19669005484E+04  0.65864270000E+03 0.  0.
    8880022    1    1    2    0    0 -0.25334004561E+03  0.26185901417E+03  0.57155600933E+03  0.69485196037E+03  0.15294330000E+03 0.  0.
<mgrwt>
<rscale>  0 0.64070478E+03</rscale>
<asrwt>0</asrwt>
<pdfrwt beam="1">  1        2 0.30056727E+00 0.75270282E+03</pdfrwt>
<pdfrwt beam="2">  1       -2 0.10893311E+00 0.75270282E+03</pdfrwt>
<totfact> 0.49339296E+00</totfact>
</mgrwt>
</event>
<event>
 4    1  0.6502538E-008  0.1463384E+04  0.7818608E-02  0.8935934E-01
          2   -1    0    0  501    0  0.00000000000E+00  0.00000000000E+00  0.38236987411E+04  0.38236987411E+04  0.25500000000E-02 0. -1.
         -2   -1    0    0    0  501 -0.00000000000E+00 -0.00000000000E+00 -0.10180196391E+04  0.10180196391E+04  0.25500000000E-02 0.  1.
    8880023    1    1    2    0    0 -0.10539393838E+04 -0.77259014435E+03  0.31572074515E+04  0.34798639132E+04  0.65864270000E+03 0.  0.
    8880022    1    1    2    0    0  0.10539393838E+04  0.77259014435E+03 -0.35152834949E+03  0.13618544670E+04  0.15294330000E+03 0.  0.
<mgrwt>
<rscale>  0 0.14249785E+04</rscale>
<asrwt>0</asrwt>
<pdfrwt beam="1">  1        2 0.58826134E+00 0.14633844E+04</pdfrwt>
<pdfrwt beam="2">  1       -2 0.15661841E+00 0.14633844E+04</pdfrwt>
<totfact> 0.12096533E-01</totfact>
</mgrwt>
</event>
<event>
 4    1  0.6502538E-008  0.1016377E+04  0.7818608E-02  0.9360438E-01
         -2   -1    0    0    0  501 -0.00000000000E+00  0.00000000000E+00  0.28755955982E+03  0.28755955983E+03  0.25500000000E-02 0.  1.
          2   -1    0    0  501    0  0.00000000000E+00 -0.00000000000E+00 -0.40231473407E+04  0.40231473407E+04  0.25500000000E-02 0. -1.
    8880023    1    1    2    0    0  0.60395248254E+03 -0.48420490446E+03 -0.31987699450E+04  0.33563599863E+04  0.65864270000E+03 0. -1.
    8880022    1    1    2    0    0 -0.60395248254E+03  0.48420490446E+03 -0.53681783587E+03  0.95434691418E+03  0.15294330000E+03 0.  0.
<mgrwt>
<rscale>  0 0.95404272E+03</rscale>
<asrwt>0</asrwt>
<pdfrwt beam="1">  1        2 0.61894570E+00 0.10163775E+04</pdfrwt>
<pdfrwt beam="2">  1       -2 0.44239935E-01 0.10163775E+04</pdfrwt>
<totfact> 0.16710519E+00</totfact>
</mgrwt>
</event>
<event>
 4    1  0.6502538E-008  0.1857232E+04  0.7818608E-02  0.8691521E-01
         -2   -1    0    0    0  501 -0.00000000000E+00  0.00000000000E+00  0.12142344024E+04  0.12142344024E+04  0.25500000000E-02 0.  1.
          2   -1    0    0  501    0  0.00000000000E+00 -0.00000000000E+00 -0.48382387906E+04  0.48382387906E+04  0.25500000000E-02 0. -1.
    8880023    1    1    2    0    0 -0.11240325481E+04  0.13236508233E+04 -0.38694082276E+04  0.42920427432E+04  0.65864270000E+03 0.  0.
    8880022    1    1    2    0    0  0.11240325481E+04 -0.13236508233E+04  0.24540383942E+03  0.17604304498E+04  0.15294330000E+03 0.  0.
<mgrwt>
<rscale>  0 0.18280541E+04</rscale>
<asrwt>0</asrwt>
<pdfrwt beam="1">  1        2 0.74434442E+00 0.18572320E+04</pdfrwt>
<pdfrwt beam="2">  1       -2 0.18680530E+00 0.18572320E+04</pdfrwt>
<totfact> 0.80947746E-03</totfact>
</mgrwt>
</event>
<event>
 4    1  0.6502538E-008  0.6856235E+03  0.7818608E-02  0.1006306E+00
         -2   -1    0    0    0  501 -0.00000000000E+00  0.00000000000E+00  0.19182434489E+04  0.19182434490E+04  0.25500000000E-02 0.  1.
          2   -1    0    0  501    0  0.00000000000E+00 -0.00000000000E+00 -0.45250252085E+03  0.45250252085E+03  0.25500000000E-02 0. -1.
    8880023    1    1    2    0    0 -0.58894352098E+02  0.18110996713E+03 -0.17848638132E+03  0.70847509447E+03  0.65864270000E+03 0. -1.
    8880022    1    1    2    0    0  0.58894352098E+02 -0.18110996713E+03  0.16442273094E+04  0.16622708753E+04  0.15294330000E+03 0.  0.
<mgrwt>
<rscale>  0 0.52969467E+03</rscale>
<asrwt>0</asrwt>
<pdfrwt beam="1">  1        2 0.69615774E-01 0.68562349E+03</pdfrwt>
<pdfrwt beam="2">  1       -2 0.29511437E+00 0.68562349E+03</pdfrwt>
<totfact> 0.24717852E+00</totfact>
</mgrwt>
</event>
<event>
 4    1  0.6502538E-008  0.1344812E+04  0.7818608E-02  0.9027796E-01
         -2   -1    0    0    0  501 -0.00000000000E+00  0.00000000000E+00  0.16012283339E+04  0.16012283339E+04  0.25500000000E-02 0.  1.
          2   -1    0    0  501    0  0.00000000000E+00 -0.00000000000E+00 -0.11429441428E+04  0.11429441428E+04  0.25500000000E-02 0. -1.
    8880023    1    1    2    0    0 -0.82707313842E+03  0.83105973935E+03  0.73109812577E+03  0.15306942681E+04  0.65864270000E+03 0.  0.
    8880022    1    1    2    0    0  0.82707313842E+03 -0.83105973935E+03 -0.27281393472E+03  0.12134782086E+04  0.15294330000E+03 0.  0.
<mgrwt>
<rscale>  0 0.13022328E+04</rscale>
<asrwt>0</asrwt>
<pdfrwt beam="1">  1        2 0.17583756E+00 0.13448124E+04</pdfrwt>
<pdfrwt beam="2">  1       -2 0.24634282E+00 0.13448124E+04</pdfrwt>
<totfact> 0.13302247E+00</totfact>
</mgrwt>
</event>
<event>
 4    1  0.6502538E-008  0.1133825E+04  0.7818608E-02  0.9224298E-01
          2   -1    0    0  501    0  0.00000000000E+00  0.00000000000E+00  0.12438832691E+04  0.12438832691E+04  0.25500000000E-02 0. -1.
         -2   -1    0    0    0  501 -0.00000000000E+00 -0.00000000000E+00 -0.97183707114E+03  0.97183707115E+03  0.25500000000E-02 0.  1.
    8880023    1    1    2    0    0  0.80938167969E+03 -0.44345348322E+03  0.52081124060E+03  0.12477196199E+04  0.65864270000E+03 0.  0.
    8880022    1    1    2    0    0 -0.80938167969E+03  0.44345348322E+03 -0.24876504264E+03  0.96800072038E+03  0.15294330000E+03 0.  0.
<mgrwt>
<rscale>  0 0.10806110E+04</rscale>
<asrwt>0</asrwt>
<pdfrwt beam="1">  1        2 0.19136666E+00 0.11338253E+04</pdfrwt>
<pdfrwt beam="2">  1       -2 0.14951339E+00 0.11338253E+04</pdfrwt>
<totfact> 0.52747720E+00</totfact>
</mgrwt>
</event>
<event>
 4    1  0.6502538E-008  0.7264691E+03  0.7818608E-02  0.9901275E-01
         -2   -1    0    0    0  501 -0.00000000000E+00  0.00000000000E+00  0.15189847397E+03  0.15189847399E+03  0.25500000000E-02 0.  1.
          2   -1    0    0  501    0  0.00000000000E+00 -0.00000000000E+00 -0.34012351944E+04  0.34012351944E+04  0.25500000000E-02 0. -1.
    8880023    1    1    2    0    0  0.13284485282E+03  0.27622344482E+03 -0.30919721495E+04  0.31761689385E+04  0.65864270000E+03 0. -1.
    8880022    1    1    2    0    0 -0.13284485282E+03 -0.27622344482E+03 -0.15736457095E+03  0.37696472990E+03  0.15294330000E+03 0.  0.
<mgrwt>
<rscale>  0 0.60199525E+03</rscale>
<asrwt>0</asrwt>
<pdfrwt beam="1">  1        2 0.52326689E+00 0.72646910E+03</pdfrwt>
<pdfrwt beam="2">  1       -2 0.23368999E-01 0.72646910E+03</pdfrwt>
<totfact> 0.16608776E+01</totfact>
</mgrwt>
</event>
<event>
 4    1  0.6502538E-008  0.8587377E+03  0.7818608E-02  0.9595813E-01
          2   -1    0    0  501    0  0.00000000000E+00  0.00000000000E+00  0.18620419634E+04  0.18620419634E+04  0.25500000000E-02 0. -1.
         -2   -1    0    0    0  501 -0.00000000000E+00 -0.00000000000E+00 -0.57119382874E+03  0.57119382875E+03  0.25500000000E-02 0.  1.
    8880023    1    1    2    0    0  0.13550069299E+03  0.53409718537E+03  0.15755935827E+04  0.17944151096E+04  0.65864270000E+03 0. -1.
    8880022    1    1    2    0    0 -0.13550069299E+03 -0.53409718537E+03 -0.28474544811E+03  0.63882068255E+03  0.15294330000E+03 0.  0.
<mgrwt>
<rscale>  0 0.77573939E+03</rscale>
<asrwt>0</asrwt>
<pdfrwt beam="1">  1        2 0.28646799E+00 0.85873771E+03</pdfrwt>
<pdfrwt beam="2">  1       -2 0.87875974E-01 0.85873771E+03</pdfrwt>
<totfact> 0.90493075E+00</totfact>
</mgrwt>
</event>
<event>
 4    1  0.6502538E-008  0.7950444E+03  0.7818608E-02  0.9721615E-01
          2   -1    0    0  501    0  0.00000000000E+00  0.00000000000E+00  0.25988411292E+04  0.25988411292E+04  0.25500000000E-02 0. -1.
         -2   -1    0    0    0  501 -0.00000000000E+00 -0.00000000000E+00 -0.28500246850E+03  0.28500246851E+03  0.25500000000E-02 0.  1.
    8880023    1    1    2    0    0 -0.19732002576E+03 -0.39918691687E+03  0.22767335507E+04  0.24115578480E+04  0.65864270000E+03 0. -1.
    8880022    1    1    2    0    0  0.19732002576E+03  0.39918691687E+03  0.37105110004E+02  0.47228574970E+03  0.15294330000E+03 0.  0.
<mgrwt>
<rscale>  0 0.69744285E+03</rscale>
<asrwt>0</asrwt>
<pdfrwt beam="1">  1        2 0.39982172E+00 0.79504440E+03</pdfrwt>
<pdfrwt beam="2">  1       -2 0.43846533E-01 0.79504440E+03</pdfrwt>
<totfact> 0.15668960E+01</totfact>
</mgrwt>
</event>
<event>
 4    1  0.6502538E-008  0.8272314E+03  0.7818608E-02  0.9654743E-01
         -2   -1    0    0    0  501 -0.00000000000E+00  0.00000000000E+00  0.21725248390E+03  0.21725248392E+03  0.25500000000E-02 0.  1.
          2   -1    0    0  501    0  0.00000000000E+00 -0.00000000000E+00 -0.34828104283E+04  0.34828104283E+04  0.25500000000E-02 0. -1.
    8880023    1    1    2    0    0  0.35415681529E+03  0.35365880939E+03 -0.30024007692E+04  0.31142771535E+04  0.65864270000E+03 0. -1.
    8880022    1    1    2    0    0 -0.35415681529E+03 -0.35365880939E+03 -0.26315717513E+03  0.58578575871E+03  0.15294330000E+03 0.  0.
<mgrwt>
<rscale>  0 0.73776480E+03</rscale>
<asrwt>0</asrwt>
<pdfrwt beam="1">  1        2 0.53581695E+00 0.82723141E+03</pdfrwt>
<pdfrwt beam="2">  1       -2 0.33423462E-01 0.82723141E+03</pdfrwt>
<totfact> 0.74472819E+00</totfact>
</mgrwt>
</event>
<event>
 4    1  0.6502538E-008  0.6844206E+03  0.7818608E-02  0.1006926E+00
         -2   -1    0    0    0  501 -0.00000000000E+00  0.00000000000E+00  0.12310590599E+03  0.12310590601E+03  0.25500000000E-02 0.  1.
          2   -1    0    0  501    0  0.00000000000E+00 -0.00000000000E+00 -0.17706473033E+04  0.17706473033E+04  0.25500000000E-02 0. -1.
    8880023    1    1    2    0    0  0.91618645883E+02 -0.16194867775E+03 -0.13235752855E+04  0.14900614394E+04  0.65864270000E+03 0.  0.
    8880022    1    1    2    0    0 -0.91618645883E+02  0.16194867775E+03 -0.32396611185E+03  0.40369176997E+03  0.15294330000E+03 0. -1.
<mgrwt>
<rscale>  0 0.52714850E+03</rscale>
<asrwt>0</asrwt>
<pdfrwt beam="1">  1        2 0.27240726E+00 0.68442060E+03</pdfrwt>
<pdfrwt beam="2">  1       -2 0.18939371E-01 0.68442060E+03</pdfrwt>
<totfact> 0.21549371E+02</totfact>
</mgrwt>
</event>
<event>
 4    1  0.6502538E-008  0.1582081E+04  0.7818608E-02  0.8853750E-01
          2   -1    0    0  501    0  0.00000000000E+00  0.00000000000E+00  0.18759444822E+04  0.18759444822E+04  0.25500000000E-02 0. -1.
         -2   -1    0    0    0  501 -0.00000000000E+00 -0.00000000000E+00 -0.13796593296E+04  0.13796593296E+04  0.25500000000E-02 0.  1.
    8880023    1    1    2    0    0  0.10339038861E+04  0.10001059759E+04  0.80704028016E+03  0.17760330596E+04  0.65864270000E+03 0.  0.
    8880022    1    1    2    0    0 -0.10339038861E+04 -0.10001059759E+04 -0.31075512747E+03  0.14795707522E+04  0.15294330000E+03 0.  0.
<mgrwt>
<rscale>  0 0.15470567E+04</rscale>
<asrwt>0</asrwt>
<pdfrwt beam="1">  1        2 0.28860684E+00 0.15820807E+04</pdfrwt>
<pdfrwt beam="2">  1       -2 0.21225528E+00 0.15820807E+04</pdfrwt>
<totfact> 0.80799933E-01</totfact>
</mgrwt>
</event>
<event>
 4    1  0.6502538E-008  0.1212153E+04  0.7818608E-02  0.9145398E-01
          2   -1    0    0  501    0  0.00000000000E+00  0.00000000000E+00  0.18333854271E+04  0.18333854271E+04  0.25500000000E-02 0. -1.
         -2   -1    0    0    0  501 -0.00000000000E+00 -0.00000000000E+00 -0.15505680467E+04  0.15505680467E+04  0.25500000000E-02 0.  1.
    8880023    1    1    2    0    0  0.28138405010E+03  0.97792003317E+03 -0.11158334047E+04  0.16475433130E+04  0.65864270000E+03 0.  0.
    8880022    1    1    2    0    0 -0.28138405010E+03 -0.97792003317E+03  0.13986507851E+04  0.17364101608E+04  0.15294330000E+03 0.  0.
<mgrwt>
<rscale>  0 0.11635224E+04</rscale>
<asrwt>0</asrwt>
<pdfrwt beam="1">  1        2 0.28205929E+00 0.12121530E+04</pdfrwt>
<pdfrwt beam="2">  1       -2 0.23854893E+00 0.12121530E+04</pdfrwt>
<totfact> 0.60654874E-01</totfact>
</mgrwt>
</event>
<event>
 4    1  0.6502538E-008  0.9229188E+03  0.7818608E-02  0.9490198E-01
         -2   -1    0    0    0  501 -0.00000000000E+00  0.00000000000E+00  0.65790940762E+03  0.65790940763E+03  0.25500000000E-02 0.  1.
          2   -1    0    0  501    0  0.00000000000E+00 -0.00000000000E+00 -0.16949013993E+04  0.16949013993E+04  0.25500000000E-02 0. -1.
    8880023    1    1    2    0    0 -0.45468664305E+03 -0.45959644990E+03 -0.13363968911E+04  0.16241107404E+04  0.65864270000E+03 0.  0.
    8880022    1    1    2    0    0  0.45468664305E+03  0.45959644990E+03  0.29940489947E+03  0.72870006653E+03  0.15294330000E+03 0.  0.
<mgrwt>
<rscale>  0 0.85010347E+03</rscale>
<asrwt>0</asrwt>
<pdfrwt beam="1">  1        2 0.26075406E+00 0.92291876E+03</pdfrwt>
<pdfrwt beam="2">  1       -2 0.10121683E+00 0.92291876E+03</pdfrwt>
<totfact> 0.79672725E+00</totfact>
</mgrwt>
</event>
<event>
 4    1  0.6502538E-008  0.8468811E+03  0.7818608E-02  0.9617339E-01
         -2   -1    0    0    0  501 -0.00000000000E+00  0.00000000000E+00  0.26122913165E+04  0.26122913165E+04  0.25500000000E-02 0.  1.
          2   -1    0    0  501    0  0.00000000000E+00 -0.00000000000E+00 -0.62578963922E+03  0.62578963922E+03  0.25500000000E-02 0. -1.
    8880023    1    1    2    0    0 -0.48857307051E+03  0.21140878229E+03 -0.29000658146E+03  0.89515995331E+03  0.65864270000E+03 0.  0.
    8880022    1    1    2    0    0  0.48857307051E+03 -0.21140878229E+03  0.22765082587E+04  0.23429210024E+04  0.15294330000E+03 0.  0.
<mgrwt>
<rscale>  0 0.76159096E+03</rscale>
<asrwt>0</asrwt>
<pdfrwt beam="1">  1        2 0.96275330E-01 0.84688106E+03</pdfrwt>
<pdfrwt beam="2">  1       -2 0.40189097E+00 0.84688106E+03</pdfrwt>
<totfact> 0.35526163E-01</totfact>
</mgrwt>
</event>
<event>
 4    1  0.6502538E-008  0.6875534E+03  0.7818608E-02  0.1005338E+00
         -2   -1    0    0    0  501 -0.00000000000E+00  0.00000000000E+00  0.22597015608E+04  0.22597015608E+04  0.25500000000E-02 0.  1.
          2   -1    0    0  501    0  0.00000000000E+00 -0.00000000000E+00 -0.25724390513E+03  0.25724390515E+03  0.25500000000E-02 0. -1.
    8880023    1    1    2    0    0 -0.33515084985E+02  0.19441250628E+03  0.22704629750E+03  0.72407162007E+03  0.65864270000E+03 0. -1.
    8880022    1    1    2    0    0  0.33515084985E+02 -0.19441250628E+03  0.17754113582E+04  0.17928738459E+04  0.15294330000E+03 0.  0.
<mgrwt>
<rscale>  0 0.53370410E+03</rscale>
<asrwt>0</asrwt>
<pdfrwt beam="1">  1        2 0.39575988E-01 0.68755341E+03</pdfrwt>
<pdfrwt beam="2">  1       -2 0.34764637E+00 0.68755341E+03</pdfrwt>
<totfact> 0.22272652E+00</totfact>
</mgrwt>
</event>
<event>
 4    1  0.6502538E-008  0.9349326E+03  0.7818608E-02  0.9472132E-01
          2   -1    0    0  501    0  0.00000000000E+00  0.00000000000E+00  0.21215329423E+04  0.21215329423E+04  0.25500000000E-02 0. -1.
         -2   -1    0    0    0  501 -0.00000000000E+00 -0.00000000000E+00 -0.86591124017E+03  0.86591124017E+03  0.25500000000E-02 0.  1.
    8880023    1    1    2    0    0 -0.10127145926E+03  0.65576889666E+03  0.18569293720E+04  0.20790107390E+04  0.65864270000E+03 0. -1.
    8880022    1    1    2    0    0  0.10127145926E+03 -0.65576889666E+03 -0.60130766985E+03  0.90843344342E+03  0.15294330000E+03 0.  0.
<mgrwt>
<rscale>  0 0.86369930E+03</rscale>
<asrwt>0</asrwt>
<pdfrwt beam="1">  1        2 0.32638968E+00 0.93493260E+03</pdfrwt>
<pdfrwt beam="2">  1       -2 0.13321711E+00 0.93493260E+03</pdfrwt>
<totfact> 0.23540330E+00</totfact>
</mgrwt>
</event>
<event>
 4    1  0.6502538E-008  0.6699652E+03  0.7818608E-02  0.1015688E+00
         -2   -1    0    0    0  501 -0.00000000000E+00  0.00000000000E+00  0.86320593642E+03  0.86320593642E+03  0.25500000000E-02 0.  1.
          2   -1    0    0  501    0  0.00000000000E+00 -0.00000000000E+00 -0.80007364459E+03  0.80007364459E+03  0.25500000000E-02 0. -1.
    8880023    1    1    2    0    0  0.73469949266E+02  0.98210630721E+02 -0.64410788401E+03  0.92936985853E+03  0.65864270000E+03 0. -1.
    8880022    1    1    2    0    0 -0.73469949266E+02 -0.98210630721E+02  0.70724017584E+03  0.73390972249E+03  0.15294330000E+03 0.  0.
<mgrwt>
<rscale>  0 0.49275357E+03</rscale>
<asrwt>0</asrwt>
<pdfrwt beam="1">  1        2 0.12308825E+00 0.66996520E+03</pdfrwt>
<pdfrwt beam="2">  1       -2 0.13280091E+00 0.66996520E+03</pdfrwt>
<totfact> 0.14512550E+01</totfact>
</mgrwt>
</event>
<event>
 4    1  0.6502538E-008  0.8666715E+03  0.7818608E-02  0.9581804E-01
          2   -1    0    0  501    0  0.00000000000E+00  0.00000000000E+00  0.40747439345E+04  0.40747439345E+04  0.25500000000E-02 0. -1.
         -2   -1    0    0    0  501 -0.00000000000E+00 -0.00000000000E+00 -0.19935193539E+03  0.19935193541E+03  0.25500000000E-02 0.  1.
    8880023    1    1    2    0    0  0.25374217722E+03  0.50291577239E+03  0.34356917745E+04  0.35433173076E+04  0.65864270000E+03 0. -1.
    8880022    1    1    2    0    0 -0.25374217722E+03 -0.50291577239E+03  0.43970022463E+03  0.73077856234E+03  0.15294330000E+03 0.  0.
<mgrwt>
<rscale>  0 0.78512279E+03</rscale>
<asrwt>0</asrwt>
<pdfrwt beam="1">  1        2 0.62688368E+00 0.86667155E+03</pdfrwt>
<pdfrwt beam="2">  1       -2 0.30669528E-01 0.86667155E+03</pdfrwt>
<totfact> 0.31647489E+00</totfact>
</mgrwt>
</event>
<event>
 4    1  0.6502538E-008  0.7136107E+03  0.7818608E-02  0.9944829E-01
         -2   -1    0    0    0  501 -0.00000000000E+00  0.00000000000E+00  0.87149867770E+03  0.87149867770E+03  0.25500000000E-02 0.  1.
          2   -1    0    0  501    0  0.00000000000E+00 -0.00000000000E+00 -0.19557346861E+04  0.19557346861E+04  0.25500000000E-02 0. -1.
    8880023    1    1    2    0    0 -0.85012212951E+02 -0.26115704014E+03 -0.18589255526E+04  0.19911917267E+04  0.65864270000E+03 0. -1.
    8880022    1    1    2    0    0  0.85012212951E+02  0.26115704014E+03  0.77468954425E+03  0.83604163709E+03  0.15294330000E+03 0.  0.
<mgrwt>
<rscale>  0 0.58136996E+03</rscale>
<asrwt>0</asrwt>
<pdfrwt beam="1">  1        2 0.30088226E+00 0.71361074E+03</pdfrwt>
<pdfrwt beam="2">  1       -2 0.13407672E+00 0.71361074E+03</pdfrwt>
<totfact> 0.29600201E+00</totfact>
</mgrwt>
</event>
<event>
 4    1  0.6502538E-008  0.6666560E+03  0.7818608E-02  0.1018183E+00
         -2   -1    0    0    0  501 -0.00000000000E+00  0.00000000000E+00  0.86072483323E+03  0.86072483324E+03  0.25500000000E-02 0.  1.
          2   -1    0    0  501    0  0.00000000000E+00 -0.00000000000E+00 -0.17217299672E+04  0.17217299673E+04  0.25500000000E-02 0. -1.
    8880023    1    1    2    0    0 -0.89735037860E+02 -0.50672469667E+02 -0.16461095614E+04  0.17759805659E+04  0.65864270000E+03 0. -1.
    8880022    1    1    2    0    0  0.89735037860E+02  0.50672469667E+02  0.78510442734E+03  0.80647423459E+03  0.15294330000E+03 0.  0.
<mgrwt>
<rscale>  0 0.48348161E+03</rscale>
<asrwt>0</asrwt>
<pdfrwt beam="1">  1        2 0.26488153E+00 0.66665605E+03</pdfrwt>
<pdfrwt beam="2">  1       -2 0.13241921E+00 0.66665605E+03</pdfrwt>
<totfact> 0.41309968E+00</totfact>
</mgrwt>
</event>
<event>
 4    1  0.6502538E-008  0.7265480E+03  0.7818608E-02  0.9901022E-01
          2   -1    0    0  501    0  0.00000000000E+00  0.00000000000E+00  0.32840602792E+04  0.32840602792E+04  0.25500000000E-02 0. -1.
         -2   -1    0    0    0  501 -0.00000000000E+00 -0.00000000000E+00 -0.12774039426E+03  0.12774039429E+03  0.25500000000E-02 0.  1.
    8880023    1    1    2    0    0  0.31057055832E+02 -0.30511835523E+03  0.28838749063E+04  0.29739883041E+04  0.65864270000E+03 0. -1.
    8880022    1    1    2    0    0 -0.31057055832E+02  0.30511835523E+03  0.27244497867E+03  0.43781236943E+03  0.15294330000E+03 0.  0.
<mgrwt>
<rscale>  0 0.60211774E+03</rscale>
<asrwt>0</asrwt>
<pdfrwt beam="1">  1        2 0.50524002E+00 0.72654797E+03</pdfrwt>
<pdfrwt beam="2">  1       -2 0.19652369E-01 0.72654797E+03</pdfrwt>
<totfact> 0.26918361E+01</totfact>
</mgrwt>
</event>
<event>
 4    1  0.6502538E-008  0.8793150E+03  0.7818608E-02  0.9560088E-01
         -2   -1    0    0    0  501 -0.00000000000E+00  0.00000000000E+00  0.93245142880E+03  0.93245142880E+03  0.25500000000E-02 0.  1.
          2   -1    0    0  501    0  0.00000000000E+00 -0.00000000000E+00 -0.73626764547E+03  0.73626764547E+03  0.25500000000E-02 0. -1.
    8880023    1    1    2    0    0  0.10561067754E+03 -0.57291450311E+03 -0.25570318420E+03  0.91573957420E+03  0.65864270000E+03 0.  0.
    8880022    1    1    2    0    0 -0.10561067754E+03  0.57291450311E+03  0.45188696753E+03  0.75297950007E+03  0.15294330000E+03 0.  0.
<mgrwt>
<rscale>  0 0.79995069E+03</rscale>
<asrwt>0</asrwt>
<pdfrwt beam="1">  1        2 0.11327195E+00 0.87931499E+03</pdfrwt>
<pdfrwt beam="2">  1       -2 0.14345407E+00 0.87931499E+03</pdfrwt>
<totfact> 0.12977560E+01</totfact>
</mgrwt>
</event>
<event>
 4    1  0.6502538E-008  0.1318068E+04  0.7818608E-02  0.9050112E-01
          2   -1    0    0  501    0  0.00000000000E+00  0.00000000000E+00  0.47966891207E+04  0.47966891207E+04  0.25500000000E-02 0. -1.
         -2   -1    0    0    0  501 -0.00000000000E+00 -0.00000000000E+00 -0.48508506712E+03  0.48508506713E+03  0.25500000000E-02 0.  1.
    8880023    1    1    2    0    0 -0.54377328943E+03  0.10038947638E+04  0.37986362553E+04  0.40208135611E+04  0.65864270000E+03 0.  0.
    8880022    1    1    2    0    0  0.54377328943E+03 -0.10038947638E+04  0.51296779828E+03  0.12609606267E+04  0.15294330000E+03 0.  0.
<mgrwt>
<rscale>  0 0.12744055E+04</rscale>
<asrwt>0</asrwt>
<pdfrwt beam="1">  1        2 0.73795220E+00 0.13180684E+04</pdfrwt>
<pdfrwt beam="2">  1       -2 0.74628469E-01 0.13180684E+04</pdfrwt>
<totfact> 0.99243476E-02</totfact>
</mgrwt>
</event>
<event>
 4    1  0.6502538E-008  0.6701386E+03  0.7818608E-02  0.1015564E+00
          2   -1    0    0  501    0  0.00000000000E+00  0.00000000000E+00  0.11702314447E+04  0.11702314447E+04  0.25500000000E-02 0. -1.
         -2   -1    0    0    0  501 -0.00000000000E+00 -0.00000000000E+00 -0.20529025884E+03  0.20529025886E+03  0.25500000000E-02 0.  1.
    8880023    1    1    2    0    0  0.10842736147E+03  0.59321582597E+02  0.96981167978E+03  0.11788216334E+04  0.65864270000E+03 0. -1.
    8880022    1    1    2    0    0 -0.10842736147E+03 -0.59321582597E+02 -0.48704939175E+01  0.19670007016E+03  0.15294330000E+03 0.  0.
<mgrwt>
<rscale>  0 0.49322072E+03</rscale>
<asrwt>0</asrwt>
<pdfrwt beam="1">  1        2 0.18003560E+00 0.67013860E+03</pdfrwt>
<pdfrwt beam="2">  1       -2 0.31583118E-01 0.67013860E+03</pdfrwt>
<totfact> 0.18691556E+02</totfact>
</mgrwt>
</event>
<event>
 4    1  0.6502538E-008  0.6819247E+03  0.7818608E-02  0.1008255E+00
          2   -1    0    0  501    0  0.00000000000E+00  0.00000000000E+00  0.14417863450E+04  0.14417863450E+04  0.25500000000E-02 0. -1.
         -2   -1    0    0    0  501 -0.00000000000E+00 -0.00000000000E+00 -0.22964876960E+03  0.22964876962E+03  0.25500000000E-02 0.  1.
    8880023    1    1    2    0    0  0.93623402638E+02 -0.14981904644E+03  0.12601982446E+04  0.14328715609E+04  0.65864270000E+03 0. -1.
    8880022    1    1    2    0    0 -0.93623402638E+02  0.14981904644E+03 -0.48060669214E+02  0.23856355367E+03  0.15294330000E+03 0.  0.
<mgrwt>
<rscale>  0 0.52173998E+03</rscale>
<asrwt>0</asrwt>
<pdfrwt beam="1">  1        2 0.22181328E+00 0.68192470E+03</pdfrwt>
<pdfrwt beam="2">  1       -2 0.35330581E-01 0.68192470E+03</pdfrwt>
<totfact> 0.10548949E+02</totfact>
</mgrwt>
</event>
<event>
 4    1  0.6502538E-008  0.7220462E+03  0.7818608E-02  0.9915722E-01
         -2   -1    0    0    0  501 -0.00000000000E+00  0.00000000000E+00  0.41646037241E+03  0.41646037241E+03  0.25500000000E-02 0.  1.
          2   -1    0    0  501    0  0.00000000000E+00 -0.00000000000E+00 -0.22341724515E+04  0.22341724515E+04  0.25500000000E-02 0. -1.
    8880023    1    1    2    0    0  0.14067313675E+03 -0.26029131082E+03 -0.20958280612E+04  0.22167196409E+04  0.65864270000E+03 0. -1.
    8880022    1    1    2    0    0 -0.14067313675E+03  0.26029131082E+03  0.27811598211E+03  0.43391318303E+03  0.15294330000E+03 0.  0.
<mgrwt>
<rscale>  0 0.59505337E+03</rscale>
<asrwt>0</asrwt>
<pdfrwt beam="1">  1        2 0.34371883E+00 0.72204619E+03</pdfrwt>
<pdfrwt beam="2">  1       -2 0.64070828E-01 0.72204619E+03</pdfrwt>
<totfact> 0.11630521E+01</totfact>
</mgrwt>
</event>
<event>
 4    1  0.6502538E-008  0.8921647E+03  0.7818608E-02  0.9538729E-01
          2   -1    0    0  501    0  0.00000000000E+00  0.00000000000E+00  0.12186155519E+04  0.12186155519E+04  0.25500000000E-02 0. -1.
         -2   -1    0    0    0  501 -0.00000000000E+00 -0.00000000000E+00 -0.14581269911E+04  0.14581269911E+04  0.25500000000E-02 0.  1.
    8880023    1    1    2    0    0 -0.32863425751E+03  0.50413004506E+03  0.96954708192E+03  0.13175656826E+04  0.65864270000E+03 0.  0.
    8880022    1    1    2    0    0  0.32863425751E+03 -0.50413004506E+03 -0.12090585212E+04  0.13591768605E+04  0.15294330000E+03 0.  0.
<mgrwt>
<rscale>  0 0.81487752E+03</rscale>
<asrwt>0</asrwt>
<pdfrwt beam="1">  1        2 0.18747932E+00 0.89216466E+03</pdfrwt>
<pdfrwt beam="2">  1       -2 0.22432723E+00 0.89216466E+03</pdfrwt>
<totfact> 0.17284796E+00</totfact>
</mgrwt>
</event>
<event>
 4    1  0.6502538E-008  0.1468733E+04  0.7818608E-02  0.8932036E-01
          2   -1    0    0  501    0  0.00000000000E+00  0.00000000000E+00  0.25404720527E+04  0.25404720527E+04  0.25500000000E-02 0. -1.
         -2   -1    0    0    0  501 -0.00000000000E+00 -0.00000000000E+00 -0.12421985574E+04  0.12421985574E+04  0.25500000000E-02 0.  1.
    8880023    1    1    2    0    0 -0.10601424935E+04  0.77425140391E+03  0.18399958486E+04  0.23543071746E+04  0.65864270000E+03 0.  0.
    8880022    1    1    2    0    0  0.10601424935E+04 -0.77425140391E+03 -0.54172235332E+03  0.14283634356E+04  0.15294330000E+03 0.  0.
<mgrwt>
<rscale>  0 0.14304950E+04</rscale>
<asrwt>0</asrwt>
<pdfrwt beam="1">  1        2 0.39084185E+00 0.14687333E+04</pdfrwt>
<pdfrwt beam="2">  1       -2 0.19110747E+00 0.14687333E+04</pdfrwt>
<totfact> 0.47420808E-01</totfact>
</mgrwt>
</event>
<event>
 4    1  0.6502538E-008  0.7248818E+03  0.7818608E-02  0.9906401E-01
          2   -1    0    0  501    0  0.00000000000E+00  0.00000000000E+00  0.22417019198E+04  0.22417019198E+04  0.25500000000E-02 0. -1.
         -2   -1    0    0    0  501 -0.00000000000E+00 -0.00000000000E+00 -0.62283918448E+03  0.62283918448E+03  0.25500000000E-02 0.  1.
    8880023    1    1    2    0    0  0.30237298966E+03  0.14629449191E+02  0.21306424337E+04  0.22505756669E+04  0.65864270000E+03 0. -1.
    8880022    1    1    2    0    0 -0.30237298966E+03 -0.14629449191E+02 -0.51177969839E+03  0.61396543743E+03  0.15294330000E+03 0.  0.
<mgrwt>
<rscale>  0 0.59952073E+03</rscale>
<asrwt>0</asrwt>
<pdfrwt beam="1">  1        2 0.34487722E+00 0.72488182E+03</pdfrwt>
<pdfrwt beam="2">  1       -2 0.95821412E-01 0.72488182E+03</pdfrwt>
<totfact> 0.46782300E+00</totfact>
</mgrwt>
</event>
<event>
 4    1  0.6502538E-008  0.8144474E+03  0.7818608E-02  0.9680386E-01
         -2   -1    0    0    0  501 -0.00000000000E+00  0.00000000000E+00  0.39928352475E+03  0.39928352476E+03  0.25500000000E-02 0.  1.
          2   -1    0    0  501    0  0.00000000000E+00 -0.00000000000E+00 -0.39484813961E+04  0.39484813961E+04  0.25500000000E-02 0. -1.
    8880023    1    1    2    0    0  0.73749358251E+02  0.47336610032E+03 -0.37265493769E+04  0.38145110955E+04  0.65864270000E+03 0. -1.
    8880022    1    1    2    0    0 -0.73749358251E+02 -0.47336610032E+03  0.17735150554E+03  0.53325382540E+03  0.15294330000E+03 0.  0.
<mgrwt>
<rscale>  0 0.72196677E+03</rscale>
<asrwt>0</asrwt>
<pdfrwt beam="1">  1        2 0.60745865E+00 0.81444744E+03</pdfrwt>
<pdfrwt beam="2">  1       -2 0.61428237E-01 0.81444744E+03</pdfrwt>
<totfact> 0.10134175E+00</totfact>
</mgrwt>
</event>
<event>
 4    1  0.6502538E-008  0.1650482E+04  0.7818608E-02  0.8810091E-01
         -2   -1    0    0    0  501 -0.00000000000E+00  0.00000000000E+00  0.17523206566E+04  0.17523206566E+04  0.25500000000E-02 0.  1.
          2   -1    0    0  501    0  0.00000000000E+00 -0.00000000000E+00 -0.25706412609E+04  0.25706412609E+04  0.25500000000E-02 0. -1.
    8880023    1    1    2    0    0 -0.15133397466E+04 -0.90630668422E+01  0.10174621000E+04  0.19388962476E+04  0.65864270000E+03 0.  1.
    8880022    1    1    2    0    0  0.15133397466E+04  0.90630668422E+01 -0.18357827043E+04  0.23840656698E+04  0.15294330000E+03 0.  0.
<mgrwt>
<rscale>  0 0.16171329E+04</rscale>
<asrwt>0</asrwt>
<pdfrwt beam="1">  1        2 0.39548327E+00 0.16504816E+04</pdfrwt>
<pdfrwt beam="2">  1       -2 0.26958779E+00 0.16504816E+04</pdfrwt>
<totfact> 0.14217388E-01</totfact>
</mgrwt>
</event>
<event>
 4    1  0.6502538E-008  0.7438570E+03  0.7818608E-02  0.9848851E-01
          2   -1    0    0  501    0  0.00000000000E+00  0.00000000000E+00  0.13864867641E+04  0.13864867641E+04  0.25500000000E-02 0. -1.
         -2   -1    0    0    0  501 -0.00000000000E+00 -0.00000000000E+00 -0.13211609753E+04  0.13211609753E+04  0.25500000000E-02 0.  1.
    8880023    1    1    2    0    0  0.66199383563E+02 -0.33930916357E+03  0.12552598320E+04  0.14591094952E+04  0.65864270000E+03 0. -1.
    8880022    1    1    2    0    0 -0.66199383563E+02  0.33930916357E+03 -0.11899340432E+04  0.12485382441E+04  0.15294330000E+03 0.  0.
<mgrwt>
<rscale>  0 0.62805536E+03</rscale>
<asrwt>0</asrwt>
<pdfrwt beam="1">  1        2 0.21330566E+00 0.74385702E+03</pdfrwt>
<pdfrwt beam="2">  1       -2 0.20325553E+00 0.74385702E+03</pdfrwt>
<totfact> 0.19248346E+00</totfact>
</mgrwt>
</event>
<event>
 4    1  0.6502538E-008  0.7225072E+03  0.7818608E-02  0.9914192E-01
         -2   -1    0    0    0  501 -0.00000000000E+00  0.00000000000E+00  0.21189920748E+04  0.21189920748E+04  0.25500000000E-02 0.  1.
          2   -1    0    0  501    0  0.00000000000E+00 -0.00000000000E+00 -0.14176219115E+03  0.14176219118E+03  0.25500000000E-02 0. -1.
    8880023    1    1    2    0    0  0.16105531077E+03 -0.24953477563E+03  0.16078141540E+04  0.17626919690E+04  0.65864270000E+03 0.  0.
    8880022    1    1    2    0    0 -0.16105531077E+03  0.24953477563E+03  0.36941572961E+03  0.49806229698E+03  0.15294330000E+03 0.  0.
<mgrwt>
<rscale>  0 0.59578383E+03</rscale>
<asrwt>0</asrwt>
<pdfrwt beam="1">  1        2 0.21809569E-01 0.72250718E+03</pdfrwt>
<pdfrwt beam="2">  1       -2 0.32599877E+00 0.72250718E+03</pdfrwt>
<totfact> 0.59187642E+00</totfact>
</mgrwt>
</event>
<event>
 4    1  0.6502538E-008  0.1199581E+04  0.7818608E-02  0.9157530E-01
         -2   -1    0    0    0  501 -0.00000000000E+00  0.00000000000E+00  0.47413688726E+03  0.47413688727E+03  0.25500000000E-02 0.  1.
          2   -1    0    0  501    0  0.00000000000E+00 -0.00000000000E+00 -0.27668784018E+04  0.27668784018E+04  0.25500000000E-02 0. -1.
    8880023    1    1    2    0    0  0.28482088623E+02 -0.10021839758E+04 -0.16512274876E+04  0.20409670190E+04  0.65864270000E+03 0.  0.
    8880022    1    1    2    0    0 -0.28482088623E+02  0.10021839758E+04 -0.64151402695E+03  0.12000482701E+04  0.15294330000E+03 0.  0.
<mgrwt>
<rscale>  0 0.11502750E+04</rscale>
<asrwt>0</asrwt>
<pdfrwt beam="1">  1        2 0.42567359E+00 0.11995808E+04</pdfrwt>
<pdfrwt beam="2">  1       -2 0.72944138E-01 0.11995808E+04</pdfrwt>
<totfact> 0.40745943E+00</totfact>
</mgrwt>
</event>
<event>
 4    1  0.6502538E-008  0.6660817E+03  0.7818608E-02  0.1018643E+00
         -2   -1    0    0    0  501 -0.00000000000E+00  0.00000000000E+00  0.60565802392E+03  0.60565802392E+03  0.25500000000E-02 0.  1.
          2   -1    0    0  501    0  0.00000000000E+00 -0.00000000000E+00 -0.73674935647E+03  0.73674935647E+03  0.25500000000E-02 0. -1.
    8880023    1    1    2    0    0 -0.81398967866E+02  0.56822541355E+02 -0.56392203096E+03  0.87273871029E+03  0.65864270000E+03 0. -1.
    8880022    1    1    2    0    0  0.81398967866E+02 -0.56822541355E+02  0.43283069841E+03  0.46966867010E+03  0.15294330000E+03 0.  0.
<mgrwt>
<rscale>  0 0.48179628E+03</rscale>
<asrwt>0</asrwt>
<pdfrwt beam="1">  1        2 0.11334605E+00 0.66608168E+03</pdfrwt>
<pdfrwt beam="2">  1       -2 0.93178158E-01 0.66608168E+03</pdfrwt>
<totfact> 0.38200970E+01</totfact>
</mgrwt>
</event>
<event>
 4    1  0.6502538E-008  0.1330407E+04  0.7818608E-02  0.9039737E-01
          2   -1    0    0  501    0  0.00000000000E+00  0.00000000000E+00  0.13715770576E+04  0.13715770576E+04  0.25500000000E-02 0. -1.
         -2   -1    0    0    0  501 -0.00000000000E+00 -0.00000000000E+00 -0.16392468212E+04  0.16392468212E+04  0.25500000000E-02 0.  1.
    8880023    1    1    2    0    0  0.34914040724E+03  0.11019407243E+04  0.69297139470E+03  0.15000639800E+04  0.65864270000E+03 0. -1.
    8880022    1    1    2    0    0 -0.34914040724E+03 -0.11019407243E+04 -0.96064115834E+03  0.15107598988E+04  0.15294330000E+03 0.  0.
<mgrwt>
<rscale>  0 0.12872513E+04</rscale>
<asrwt>0</asrwt>
<pdfrwt beam="1">  1        2 0.21101186E+00 0.13304069E+04</pdfrwt>
<pdfrwt beam="2">  1       -2 0.25219182E+00 0.13304069E+04</pdfrwt>
<totfact> 0.89663321E-01</totfact>
</mgrwt>
</event>
<event>
 4    1  0.6502538E-008  0.7774700E+03  0.7818608E-02  0.9761814E-01
          2   -1    0    0  501    0  0.00000000000E+00  0.00000000000E+00  0.28162853679E+04  0.28162853680E+04  0.25500000000E-02 0. -1.
         -2   -1    0    0    0  501 -0.00000000000E+00 -0.00000000000E+00 -0.29307599184E+03  0.29307599186E+03  0.25500000000E-02 0.  1.
    8880023    1    1    2    0    0 -0.30310478675E+03  0.28067225666E+03  0.25521167243E+04  0.26679129311E+04  0.65864270000E+03 0. -1.
    8880022    1    1    2    0    0  0.30310478675E+03 -0.28067225666E+03 -0.28907348167E+02  0.44144842870E+03  0.15294330000E+03 0.  0.
<mgrwt>
<rscale>  0 0.67452717E+03</rscale>
<asrwt>0</asrwt>
<pdfrwt beam="1">  1        2 0.43327466E+00 0.77747002E+03</pdfrwt>
<pdfrwt beam="2">  1       -2 0.45088616E-01 0.77747002E+03</pdfrwt>
<totfact> 0.11095816E+01</totfact>
</mgrwt>
</event>
<event>
 4    1  0.6502538E-008  0.6648255E+03  0.7818608E-02  0.1019680E+00
          2   -1    0    0  501    0  0.00000000000E+00  0.00000000000E+00  0.12175401879E+04  0.12175401879E+04  0.25500000000E-02 0. -1.
         -2   -1    0    0    0  501 -0.00000000000E+00 -0.00000000000E+00 -0.10630709521E+04  0.10630709521E+04  0.25500000000E-02 0.  1.
    8880023    1    1    2    0    0 -0.52077057864E+02 -0.73964317667E+02  0.11180518481E+04  0.13007816426E+04  0.65864270000E+03 0. -1.
    8880022    1    1    2    0    0  0.52077057864E+02  0.73964317667E+02 -0.96358261235E+03  0.97982949745E+03  0.15294330000E+03 0.  0.
<mgrwt>
<rscale>  0 0.47802172E+03</rscale>
<asrwt>0</asrwt>
<pdfrwt beam="1">  1        2 0.18731387E+00 0.66482550E+03</pdfrwt>
<pdfrwt beam="2">  1       -2 0.16354938E+00 0.66482550E+03</pdfrwt>
<totfact> 0.45452408E+00</totfact>
</mgrwt>
</event>
<event>
 4    1  0.6502538E-008  0.1129582E+04  0.7818608E-02  0.9228813E-01
          2   -1    0    0  501    0  0.00000000000E+00  0.00000000000E+00  0.35612801197E+04  0.35612801197E+04  0.25500000000E-02 0. -1.
         -2   -1    0    0    0  501 -0.00000000000E+00 -0.00000000000E+00 -0.55577558091E+03  0.55577558092E+03  0.25500000000E-02 0.  1.
    8880023    1    1    2    0    0 -0.74284043349E+03  0.53882647030E+03  0.29794044590E+04  0.31863469697E+04  0.65864270000E+03 0.  0.
    8880022    1    1    2    0    0  0.74284043349E+03 -0.53882647030E+03  0.26100079843E+02  0.93070873098E+03  0.15294330000E+03 0.  0.
<mgrwt>
<rscale>  0 0.10760913E+04</rscale>
<asrwt>0</asrwt>
<pdfrwt beam="1">  1        2 0.54788925E+00 0.11295823E+04</pdfrwt>
<pdfrwt beam="2">  1       -2 0.85503936E-01 0.11295823E+04</pdfrwt>
<totfact> 0.88768180E-01</totfact>
</mgrwt>
</event>
<event>
 4    1  0.6502538E-008  0.1148558E+04  0.7818608E-02  0.9208826E-01
         -2   -1    0    0    0  501 -0.00000000000E+00  0.00000000000E+00  0.44497968406E+03  0.44497968407E+03  0.25500000000E-02 0.  1.
          2   -1    0    0  501    0  0.00000000000E+00 -0.00000000000E+00 -0.25531155936E+04  0.25531155936E+04  0.25500000000E-02 0. -1.
    8880023    1    1    2    0    0 -0.52214831738E+03  0.78277418421E+03 -0.90014509778E+03  0.14592620368E+04  0.65864270000E+03 0.  0.
    8880022    1    1    2    0    0  0.52214831738E+03 -0.78277418421E+03 -0.12079908118E+04  0.15388332409E+04  0.15294330000E+03 0.  0.
<mgrwt>
<rscale>  0 0.10962790E+04</rscale>
<asrwt>0</asrwt>
<pdfrwt beam="1">  1        2 0.39278700E+00 0.11485576E+04</pdfrwt>
<pdfrwt beam="2">  1       -2 0.68458415E-01 0.11485576E+04</pdfrwt>
<totfact> 0.62903926E+00</totfact>
</mgrwt>
</event>
<event>
 4    1  0.6502538E-008  0.7491893E+03  0.7818608E-02  0.9833945E-01
         -2   -1    0    0    0  501 -0.00000000000E+00  0.00000000000E+00  0.23013875174E+03  0.23013875176E+03  0.25500000000E-02 0.  1.
          2   -1    0    0  501    0  0.00000000000E+00 -0.00000000000E+00 -0.23438540209E+04  0.23438540209E+04  0.25500000000E-02 0. -1.
    8880023    1    1    2    0    0  0.35064160886E+03  0.67266810435E+02 -0.20471272477E+04  0.21799115891E+04  0.65864270000E+03 0.  0.
    8880022    1    1    2    0    0 -0.35064160886E+03 -0.67266810435E+02 -0.66588021477E+02  0.39408118360E+03  0.15294330000E+03 0.  0.
<mgrwt>
<rscale>  0 0.63572251E+03</rscale>
<asrwt>0</asrwt>
<pdfrwt beam="1">  1        2 0.36059291E+00 0.74918927E+03</pdfrwt>
<pdfrwt beam="2">  1       -2 0.35405963E-01 0.74918927E+03</pdfrwt>
<totfact> 0.33335686E+01</totfact>
</mgrwt>
</event>
<event>
 4    1  0.6502538E-008  0.9786494E+03  0.7818608E-02  0.9410040E-01
         -2   -1    0    0    0  501 -0.00000000000E+00  0.00000000000E+00  0.38443656243E+03  0.38443656243E+03  0.25500000000E-02 0.  1.
          2   -1    0    0  501    0  0.00000000000E+00 -0.00000000000E+00 -0.21218091324E+04  0.21218091324E+04  0.25500000000E-02 0. -1.
    8880023    1    1    2    0    0  0.44911723186E+03  0.56766032437E+03 -0.59529700089E+03  0.11454838529E+04  0.65864270000E+03 0.  0.
    8880022    1    1    2    0    0 -0.44911723186E+03 -0.56766032437E+03 -0.11420755690E+04  0.13607618418E+04  0.15294330000E+03 0.  0.
<mgrwt>
<rscale>  0 0.91254047E+03</rscale>
<asrwt>0</asrwt>
<pdfrwt beam="1">  1        2 0.32643217E+00 0.97864945E+03</pdfrwt>
<pdfrwt beam="2">  1       -2 0.59144088E-01 0.97864945E+03</pdfrwt>
<totfact> 0.15371096E+01</totfact>
</mgrwt>
</event>
<event>
 4    1  0.6502538E-008  0.1305222E+04  0.7818608E-02  0.9061063E-01
         -2   -1    0    0    0  501 -0.00000000000E+00  0.00000000000E+00  0.12405732518E+04  0.12405732518E+04  0.25500000000E-02 0.  1.
          2   -1    0    0  501    0  0.00000000000E+00 -0.00000000000E+00 -0.21820308058E+04  0.21820308058E+04  0.25500000000E-02 0. -1.
    8880023    1    1    2    0    0  0.42636203292E+03 -0.10430774706E+04 -0.16338707907E+04  0.20912051931E+04  0.65864270000E+03 0.  0.
    8880022    1    1    2    0    0 -0.42636203292E+03  0.10430774706E+04  0.69241323670E+03  0.13313988644E+04  0.15294330000E+03 0.  0.
<mgrwt>
<rscale>  0 0.12610173E+04</rscale>
<asrwt>0</asrwt>
<pdfrwt beam="1">  1        2 0.33569705E+00 0.13052224E+04</pdfrwt>
<pdfrwt beam="2">  1       -2 0.19085742E+00 0.13052224E+04</pdfrwt>
<totfact> 0.77624255E-01</totfact>
</mgrwt>
</event>
<event>
 4    1  0.6502538E-008  0.7171344E+03  0.7818608E-02  0.9932404E-01
          2   -1    0    0  501    0  0.00000000000E+00  0.00000000000E+00  0.19065231083E+04  0.19065231083E+04  0.25500000000E-02 0. -1.
         -2   -1    0    0    0  501 -0.00000000000E+00 -0.00000000000E+00 -0.16225732428E+03  0.16225732430E+03  0.25500000000E-02 0.  1.
    8880023    1    1    2    0    0 -0.40746942849E+02 -0.28073339941E+03  0.15058730647E+04  0.16679135014E+04  0.65864270000E+03 0.  0.
    8880022    1    1    2    0    0  0.40746942849E+02  0.28073339941E+03  0.23839271933E+03  0.40086693121E+03  0.15294330000E+03 0. -1.
<mgrwt>
<rscale>  0 0.58716227E+03</rscale>
<asrwt>0</asrwt>
<pdfrwt beam="1">  1        2 0.29331125E+00 0.71713441E+03</pdfrwt>
<pdfrwt beam="2">  1       -2 0.24962665E-01 0.71713441E+03</pdfrwt>
<totfact> 0.11120093E+02</totfact>
</mgrwt>
</event>
<event>
 4    1  0.6502538E-008  0.9021730E+03  0.7818608E-02  0.9522552E-01
          2   -1    0    0  501    0  0.00000000000E+00  0.00000000000E+00  0.20404968711E+04  0.20404968711E+04  0.25500000000E-02 0. -1.
         -2   -1    0    0    0  501 -0.00000000000E+00 -0.00000000000E+00 -0.45212743797E+03  0.45212743797E+03  0.25500000000E-02 0.  1.
    8880023    1    1    2    0    0 -0.54310846696E+03 -0.29178595003E+03  0.16225423418E+04  0.18564912347E+04  0.65864270000E+03 0.  0.
    8880022    1    1    2    0    0  0.54310846696E+03  0.29178595003E+03 -0.34172908684E+02  0.63613307430E+03  0.15294330000E+03 0.  0.
<mgrwt>
<rscale>  0 0.82641361E+03</rscale>
<asrwt>0</asrwt>
<pdfrwt beam="1">  1        2 0.31392260E+00 0.90217296E+03</pdfrwt>
<pdfrwt beam="2">  1       -2 0.69558066E-01 0.90217296E+03</pdfrwt>
<totfact> 0.12134878E+01</totfact>
</mgrwt>
</event>
<event>
 4    1  0.6502538E-008  0.8087335E+03  0.7818608E-02  0.9692221E-01
          2   -1    0    0  501    0  0.00000000000E+00  0.00000000000E+00  0.13396963982E+04  0.13396963983E+04  0.25500000000E-02 0. -1.
         -2   -1    0    0    0  501 -0.00000000000E+00 -0.00000000000E+00 -0.55065401905E+03  0.55065401906E+03  0.25500000000E-02 0.  1.
    8880023    1    1    2    0    0 -0.12518913079E+03 -0.45229120520E+03  0.10552793917E+04  0.13295354277E+04  0.65864270000E+03 0. -1.
    8880022    1    1    2    0    0  0.12518913079E+03  0.45229120520E+03 -0.26623701246E+03  0.56081498962E+03  0.15294330000E+03 0.  0.
<mgrwt>
<rscale>  0 0.71481837E+03</rscale>
<asrwt>0</asrwt>
<pdfrwt beam="1">  1        2 0.20610714E+00 0.80873349E+03</pdfrwt>
<pdfrwt beam="2">  1       -2 0.84716004E-01 0.80873349E+03</pdfrwt>
<totfact> 0.19308815E+01</totfact>
</mgrwt>
</event>
<event>
 4    1  0.6502538E-008  0.8819130E+03  0.7818608E-02  0.9555714E-01
          2   -1    0    0  501    0  0.00000000000E+00  0.00000000000E+00  0.94687502105E+03  0.94687502105E+03  0.25500000000E-02 0. -1.
         -2   -1    0    0    0  501 -0.00000000000E+00 -0.00000000000E+00 -0.13488213538E+04  0.13488213538E+04  0.25500000000E-02 0.  1.
    8880023    1    1    2    0    0 -0.57370945775E+03  0.12172843935E+03  0.64043033518E+03  0.10899181508E+04  0.65864270000E+03 0. -1.
    8880022    1    1    2    0    0  0.57370945775E+03 -0.12172843935E+03 -0.10423766679E+04  0.12057782241E+04  0.15294330000E+03 0.  0.
<mgrwt>
<rscale>  0 0.80297979E+03</rscale>
<asrwt>0</asrwt>
<pdfrwt beam="1">  1        2 0.14567308E+00 0.88191301E+03</pdfrwt>
<pdfrwt beam="2">  1       -2 0.20751098E+00 0.88191301E+03</pdfrwt>
<totfact> 0.32625893E+00</totfact>
</mgrwt>
</event>
<event>
 4    1  0.7256423E-008  0.9130270E+03  0.7818608E-02  0.9505435E-01
          2   -1    0    0  501    0  0.00000000000E+00  0.00000000000E+00  0.25366071640E+04  0.25366071640E+04  0.25500000000E-02 0. -1.
         -2   -1    0    0    0  501 -0.00000000000E+00 -0.00000000000E+00 -0.14721689020E+04  0.14721689020E+04  0.25500000000E-02 0.  1.
    8880023    1    1    2    0    0  0.13718518966E+03  0.61724244503E+03  0.23756478358E+04  0.25450581247E+04  0.65864270000E+03 0. -1.
    8880022    1    1    2    0    0 -0.13718518966E+03 -0.61724244503E+03 -0.13112095738E+04  0.14637179413E+04  0.15294330000E+03 0.  0.
<mgrwt>
<rscale>  0 0.83884335E+03</rscale>
<asrwt>0</asrwt>
<pdfrwt beam="1">  1        2 0.39024725E+00 0.91302695E+03</pdfrwt>
<pdfrwt beam="2">  1       -2 0.22648752E+00 0.91302695E+03</pdfrwt>
<totfact> 0.30602541E-01</totfact>
</mgrwt>
</event>
<event>
 4    1  0.6502538E-008  0.8748041E+03  0.7818608E-02  0.9567754E-01
         -2   -1    0    0    0  501 -0.00000000000E+00  0.00000000000E+00  0.37715435746E+03  0.37715435747E+03  0.25500000000E-02 0.  1.
          2   -1    0    0  501    0  0.00000000000E+00 -0.00000000000E+00 -0.23723741592E+04  0.23723741592E+04  0.25500000000E-02 0. -1.
    8880023    1    1    2    0    0  0.48330954995E+03 -0.31286411991E+03 -0.25656138411E+03  0.91165016792E+03  0.65864270000E+03 0.  1.
    8880022    1    1    2    0    0 -0.48330954995E+03  0.31286411991E+03 -0.17386584176E+04  0.18378783487E+04  0.15294330000E+03 0.  0.
<mgrwt>
<rscale>  0 0.79467733E+03</rscale>
<asrwt>0</asrwt>
<pdfrwt beam="1">  1        2 0.36498063E+00 0.87480414E+03</pdfrwt>
<pdfrwt beam="2">  1       -2 0.58023749E-01 0.87480414E+03</pdfrwt>
<totfact> 0.11752938E+01</totfact>
</mgrwt>
</event>
<event>
 4    1  0.6502538E-008  0.8958108E+03  0.7818608E-02  0.9532790E-01
         -2   -1    0    0    0  501 -0.00000000000E+00  0.00000000000E+00  0.24288173382E+04  0.24288173382E+04  0.25500000000E-02 0.  1.
          2   -1    0    0  501    0  0.00000000000E+00 -0.00000000000E+00 -0.50478865657E+03  0.50478865658E+03  0.25500000000E-02 0. -1.
    8880023    1    1    2    0    0  0.56495747984E+03  0.22246317727E+03 -0.15052374452E+02  0.89593727432E+03  0.65864270000E+03 0.  0.
    8880022    1    1    2    0    0 -0.56495747984E+03 -0.22246317727E+03  0.19390810561E+04  0.20376687204E+04  0.15294330000E+03 0.  0.
<mgrwt>
<rscale>  0 0.81908898E+03</rscale>
<asrwt>0</asrwt>
<pdfrwt beam="1">  1        2 0.77659793E-01 0.89581082E+03</pdfrwt>
<pdfrwt beam="2">  1       -2 0.37366421E+00 0.89581082E+03</pdfrwt>
<totfact> 0.69206112E-01</totfact>
</mgrwt>
</event>
<event>
 4    1  0.6502538E-008  0.1643237E+04  0.7818608E-02  0.8814599E-01
         -2   -1    0    0    0  501 -0.00000000000E+00  0.00000000000E+00  0.30683685429E+04  0.30683685429E+04  0.25500000000E-02 0.  1.
          2   -1    0    0  501    0  0.00000000000E+00 -0.00000000000E+00 -0.11235692704E+04  0.11235692704E+04  0.25500000000E-02 0. -1.
    8880023    1    1    2    0    0 -0.29864269529E+03  0.14755441167E+04 -0.10212865094E+03  0.16464077160E+04  0.65864270000E+03 0.  0.
    8880022    1    1    2    0    0  0.29864269529E+03 -0.14755441167E+04  0.20469279235E+04  0.25455300974E+04  0.15294330000E+03 0.  0.
<mgrwt>
<rscale>  0 0.16097191E+04</rscale>
<asrwt>0</asrwt>
<pdfrwt beam="1">  1        2 0.17285681E+00 0.16432371E+04</pdfrwt>
<pdfrwt beam="2">  1       -2 0.47205669E+00 0.16432371E+04</pdfrwt>
<totfact> 0.48611171E-02</totfact>
</mgrwt>
</event>
<event>
 4    1  0.6502538E-008  0.6998642E+03  0.7818608E-02  0.9997765E-01
         -2   -1    0    0    0  501 -0.00000000000E+00  0.00000000000E+00  0.42759190654E+03  0.42759190655E+03  0.25500000000E-02 0.  1.
          2   -1    0    0  501    0  0.00000000000E+00 -0.00000000000E+00 -0.72714828090E+03  0.72714828090E+03  0.25500000000E-02 0. -1.
    8880023    1    1    2    0    0 -0.69598153882E+02 -0.22617655734E+03 -0.45322044432E+03  0.83379776656E+03  0.65864270000E+03 0. -1.
    8880022    1    1    2    0    0  0.69598153882E+02  0.22617655734E+03  0.15366406997E+03  0.32094242089E+03  0.15294330000E+03 0.  0.
<mgrwt>
<rscale>  0 0.55748351E+03</rscale>
<asrwt>0</asrwt>
<pdfrwt beam="1">  1        2 0.11186897E+00 0.69986423E+03</pdfrwt>
<pdfrwt beam="2">  1       -2 0.65783371E-01 0.69986423E+03</pdfrwt>
<totfact> 0.84352249E+01</totfact>
</mgrwt>
</event>
<event>
 4    1  0.6502538E-008  0.6880199E+03  0.7818608E-02  0.1005108E+00
          2   -1    0    0  501    0  0.00000000000E+00  0.00000000000E+00  0.13484008622E+04  0.13484008622E+04  0.25500000000E-02 0. -1.
         -2   -1    0    0    0  501 -0.00000000000E+00 -0.00000000000E+00 -0.35419026083E+03  0.35419026084E+03  0.25500000000E-02 0.  1.
    8880023    1    1    2    0    0 -0.16538240991E+03 -0.11049839218E+03  0.11965568250E+04  0.13802607282E+04  0.65864270000E+03 0. -1.
    8880022    1    1    2    0    0  0.16538240991E+03  0.11049839218E+03 -0.20234622363E+03  0.32233039481E+03  0.15294330000E+03 0.  0.
<mgrwt>
<rscale>  0 0.53466004E+03</rscale>
<asrwt>0</asrwt>
<pdfrwt beam="1">  1        2 0.20744629E+00 0.68801994E+03</pdfrwt>
<pdfrwt beam="2">  1       -2 0.54490809E-01 0.68801994E+03</pdfrwt>
<totfact> 0.50399688E+01</totfact>
</mgrwt>
</event>
<event>
 4    1  0.6502538E-008  0.1192699E+04  0.7818608E-02  0.9164252E-01
         -2   -1    0    0    0  501 -0.00000000000E+00  0.00000000000E+00  0.82498440203E+03  0.82498440204E+03  0.25500000000E-02 0.  1.
          2   -1    0    0  501    0  0.00000000000E+00 -0.00000000000E+00 -0.23063492812E+04  0.23063492812E+04  0.25500000000E-02 0. -1.
    8880023    1    1    2    0    0  0.17135725788E+03 -0.97946781532E+03 -0.17240894625E+04  0.20964291527E+04  0.65864270000E+03 0.  0.
    8880022    1    1    2    0    0 -0.17135725788E+03  0.97946781532E+03  0.24272458334E+03  0.10349045306E+04  0.15294330000E+03 0.  0.
<mgrwt>
<rscale>  0 0.11430144E+04</rscale>
<asrwt>0</asrwt>
<pdfrwt beam="1">  1        2 0.35482296E+00 0.11926989E+04</pdfrwt>
<pdfrwt beam="2">  1       -2 0.12692068E+00 0.11926989E+04</pdfrwt>
<totfact> 0.20305315E+00</totfact>
</mgrwt>
</event>
<event>
 4    1  0.6502538E-008  0.1033154E+04  0.7818608E-02  0.9339412E-01
          2   -1    0    0  501    0  0.00000000000E+00  0.00000000000E+00  0.69790873049E+03  0.69790873050E+03  0.25500000000E-02 0. -1.
         -2   -1    0    0    0  501 -0.00000000000E+00 -0.00000000000E+00 -0.18755923980E+04  0.18755923980E+04  0.25500000000E-02 0.  1.
    8880023    1    1    2    0    0  0.50808797894E+03 -0.61273531281E+03 -0.13934937966E+04  0.17347141336E+04  0.65864270000E+03 0.  0.
    8880022    1    1    2    0    0 -0.50808797894E+03  0.61273531281E+03  0.21581012912E+03  0.83878699486E+03  0.15294330000E+03 0.  0.
<mgrwt>
<rscale>  0 0.97234136E+03</rscale>
<asrwt>0</asrwt>
<pdfrwt beam="1">  1        2 0.10737057E+00 0.10331545E+04</pdfrwt>
<pdfrwt beam="2">  1       -2 0.28855267E+00 0.10331545E+04</pdfrwt>
<totfact> 0.15349504E+00</totfact>
</mgrwt>
</event>
<event>
 4    1  0.6502538E-008  0.8824256E+03  0.7818608E-02  0.9554854E-01
         -2   -1    0    0    0  501 -0.00000000000E+00  0.00000000000E+00  0.82010685373E+03  0.82010685374E+03  0.25500000000E-02 0.  1.
          2   -1    0    0  501    0  0.00000000000E+00 -0.00000000000E+00 -0.12872625204E+04  0.12872625204E+04  0.25500000000E-02 0. -1.
    8880023    1    1    2    0    0  0.20905714088E+03 -0.54878036034E+03 -0.97574926386E+03  0.13155841304E+04  0.65864270000E+03 0.  0.
    8880022    1    1    2    0    0 -0.20905714088E+03  0.54878036034E+03  0.50859359719E+03  0.79178524371E+03  0.15294330000E+03 0.  0.
<mgrwt>
<rscale>  0 0.80357677E+03</rscale>
<asrwt>0</asrwt>
<pdfrwt beam="1">  1        2 0.19804039E+00 0.88242562E+03</pdfrwt>
<pdfrwt beam="2">  1       -2 0.12617028E+00 0.88242562E+03</pdfrwt>
<totfact> 0.79159707E+00</totfact>
</mgrwt>
</event>
<event>
 4    1  0.6502538E-008  0.1637728E+04  0.7818608E-02  0.8818046E-01
          2   -1    0    0  501    0  0.00000000000E+00  0.00000000000E+00  0.16608820185E+04  0.16608820185E+04  0.25500000000E-02 0. -1.
         -2   -1    0    0    0  501 -0.00000000000E+00 -0.00000000000E+00 -0.18177060606E+04  0.18177060606E+04  0.25500000000E-02 0.  1.
    8880023    1    1    2    0    0 -0.14592176139E+04  0.34500052503E+03  0.65828166197E+03  0.17650740380E+04  0.65864270000E+03 0.  0.
    8880022    1    1    2    0    0  0.14592176139E+04 -0.34500052503E+03 -0.81510570405E+03  0.17135140410E+04  0.15294330000E+03 0.  0.
<mgrwt>
<rscale>  0 0.16040796E+04</rscale>
<asrwt>0</asrwt>
<pdfrwt beam="1">  1        2 0.25552031E+00 0.16377276E+04</pdfrwt>
<pdfrwt beam="2">  1       -2 0.27964709E+00 0.16377276E+04</pdfrwt>
<totfact> 0.40416017E-01</totfact>
</mgrwt>
</event>
<event>
 4    1  0.6502538E-008  0.2031830E+04  0.7818608E-02  0.8604096E-01
          2   -1    0    0  501    0  0.00000000000E+00  0.00000000000E+00  0.34782515321E+04  0.34782515321E+04  0.25500000000E-02 0. -1.
         -2   -1    0    0    0  501 -0.00000000000E+00 -0.00000000000E+00 -0.12964058847E+04  0.12964058847E+04  0.25500000000E-02 0.  1.
    8880023    1    1    2    0    0  0.14344461414E+04 -0.12794093804E+04  0.19781498538E+04  0.28357382012E+04  0.65864270000E+03 0. -1.
    8880022    1    1    2    0    0 -0.14344461414E+04  0.12794093804E+04  0.20369579363E+03  0.19389192156E+04  0.15294330000E+03 0.  0.
<mgrwt>
<rscale>  0 0.20054093E+04</rscale>
<asrwt>0</asrwt>
<pdfrwt beam="1">  1        2 0.53511560E+00 0.20318303E+04</pdfrwt>
<pdfrwt beam="2">  1       -2 0.19944706E+00 0.20318303E+04</pdfrwt>
<totfact> 0.10064434E-01</totfact>
</mgrwt>
</event>
<event>
 4    1  0.6502538E-008  0.7147422E+03  0.7818608E-02  0.9940795E-01
         -2   -1    0    0    0  501 -0.00000000000E+00  0.00000000000E+00  0.61687320649E+03  0.61687320649E+03  0.25500000000E-02 0.  1.
          2   -1    0    0  501    0  0.00000000000E+00 -0.00000000000E+00 -0.15533390506E+04  0.15533390506E+04  0.25500000000E-02 0. -1.
    8880023    1    1    2    0    0 -0.11804945321E+02 -0.27732095572E+03 -0.14213524813E+04  0.15909429128E+04  0.65864270000E+03 0. -1.
    8880022    1    1    2    0    0  0.11804945321E+02  0.27732095572E+03  0.48488663726E+03  0.57926934429E+03  0.15294330000E+03 0.  0.
<mgrwt>
<rscale>  0 0.58324269E+03</rscale>
<asrwt>0</asrwt>
<pdfrwt beam="1">  1        2 0.23897524E+00 0.71474224E+03</pdfrwt>
<pdfrwt beam="2">  1       -2 0.94903570E-01 0.71474224E+03</pdfrwt>
<totfact> 0.11403739E+01</totfact>
</mgrwt>
</event>
<event>
 4    1  0.6502538E-008  0.8914842E+03  0.7818608E-02  0.9539843E-01
          2   -1    0    0  501    0  0.00000000000E+00  0.00000000000E+00  0.29066505003E+04  0.29066505003E+04  0.25500000000E-02 0. -1.
         -2   -1    0    0    0  501 -0.00000000000E+00 -0.00000000000E+00 -0.79046761866E+03  0.79046761867E+03  0.25500000000E-02 0.  1.
    8880023    1    1    2    0    0 -0.55311198096E+03 -0.23452308027E+03  0.27013338828E+04  0.28446351069E+04  0.65864270000E+03 0.  0.
    8880022    1    1    2    0    0  0.55311198096E+03  0.23452308027E+03 -0.58515100118E+03  0.85248301207E+03  0.15294330000E+03 0.  0.
<mgrwt>
<rscale>  0 0.81409046E+03</rscale>
<asrwt>0</asrwt>
<pdfrwt beam="1">  1        2 0.44717701E+00 0.89148424E+03</pdfrwt>
<pdfrwt beam="2">  1       -2 0.12161040E+00 0.89148424E+03</pdfrwt>
<totfact> 0.10579444E+00</totfact>
</mgrwt>
</event>
<event>
 4    1  0.6502538E-008  0.7700460E+03  0.7818608E-02  0.9779761E-01
         -2   -1    0    0    0  501 -0.00000000000E+00  0.00000000000E+00  0.16908914567E+04  0.16908914567E+04  0.25500000000E-02 0.  1.
          2   -1    0    0  501    0  0.00000000000E+00 -0.00000000000E+00 -0.68944351864E+03  0.68944351865E+03  0.25500000000E-02 0. -1.
    8880023    1    1    2    0    0 -0.10067323753E+03 -0.38603825141E+03 -0.43311812097E+03  0.88349428141E+03  0.65864270000E+03 0.  0.
    8880022    1    1    2    0    0  0.10067323753E+03  0.38603825141E+03  0.14345660591E+04  0.14968406940E+04  0.15294330000E+03 0.  1.
<mgrwt>
<rscale>  0 0.66460088E+03</rscale>
<asrwt>0</asrwt>
<pdfrwt beam="1">  1        2 0.10606823E+00 0.77004600E+03</pdfrwt>
<pdfrwt beam="2">  1       -2 0.26013715E+00 0.77004600E+03</pdfrwt>
<totfact> 0.23955138E+00</totfact>
</mgrwt>
</event>
<event>
 4    1  0.6502538E-008  0.1313515E+04  0.7818608E-02  0.9053976E-01
         -2   -1    0    0    0  501 -0.00000000000E+00  0.00000000000E+00  0.91622448745E+03  0.91622448745E+03  0.25500000000E-02 0.  1.
          2   -1    0    0  501    0  0.00000000000E+00 -0.00000000000E+00 -0.31291505807E+04  0.31291505807E+04  0.25500000000E-02 0. -1.
    8880023    1    1    2    0    0  0.49532875375E+03  0.10228203551E+04 -0.25343254166E+04  0.28544925252E+04  0.65864270000E+03 0.  0.
    8880022    1    1    2    0    0 -0.49532875375E+03 -0.10228203551E+04  0.32139932327E+03  0.11908825430E+04  0.15294330000E+03 0.  0.
<mgrwt>
<rscale>  0 0.12696619E+04</rscale>
<asrwt>0</asrwt>
<pdfrwt beam="1">  1        2 0.48140778E+00 0.13135152E+04</pdfrwt>
<pdfrwt beam="2">  1       -2 0.14095761E+00 0.13135152E+04</pdfrwt>
<totfact> 0.49457638E-01</totfact>
</mgrwt>
</event>
<event>
 4    1  0.6502538E-008  0.8135354E+03  0.7818608E-02  0.9682259E-01
          2   -1    0    0  501    0  0.00000000000E+00  0.00000000000E+00  0.10087077579E+04  0.10087077579E+04  0.25500000000E-02 0. -1.
         -2   -1    0    0    0  501 -0.00000000000E+00 -0.00000000000E+00 -0.93677078035E+03  0.93677078035E+03  0.25500000000E-02 0.  1.
    8880023    1    1    2    0    0 -0.41931894884E+03 -0.22847589022E+03  0.74706750546E+03  0.11045133214E+04  0.65864270000E+03 0. -1.
    8880022    1    1    2    0    0  0.41931894884E+03  0.22847589022E+03 -0.67513052787E+03  0.84096521684E+03  0.15294330000E+03 0.  0.
<mgrwt>
<rscale>  0 0.72082956E+03</rscale>
<asrwt>0</asrwt>
<pdfrwt beam="1">  1        2 0.15518581E+00 0.81353538E+03</pdfrwt>
<pdfrwt beam="2">  1       -2 0.14411858E+00 0.81353538E+03</pdfrwt>
<totfact> 0.83666629E+00</totfact>
</mgrwt>
</event>
<event>
 4    1  0.6502538E-008  0.7735065E+03  0.7818608E-02  0.9771317E-01
          2   -1    0    0  501    0  0.00000000000E+00  0.00000000000E+00  0.12663688586E+04  0.12663688586E+04  0.25500000000E-02 0. -1.
         -2   -1    0    0    0  501 -0.00000000000E+00 -0.00000000000E+00 -0.46751927595E+03  0.46751927596E+03  0.25500000000E-02 0.  1.
    8880023    1    1    2    0    0 -0.40514815534E+03  0.18895938849E+02  0.99317766239E+03  0.12588543044E+04  0.65864270000E+03 0. -1.
    8880022    1    1    2    0    0  0.40514815534E+03 -0.18895938849E+02 -0.19432807972E+03  0.47503383023E+03  0.15294330000E+03 0.  0.
<mgrwt>
<rscale>  0 0.66924789E+03</rscale>
<asrwt>0</asrwt>
<pdfrwt beam="1">  1        2 0.19482598E+00 0.77350649E+03</pdfrwt>
<pdfrwt beam="2">  1       -2 0.71926043E-01 0.77350649E+03</pdfrwt>
<totfact> 0.30816712E+01</totfact>
</mgrwt>
</event>
<event>
 4    1  0.6502538E-008  0.7768434E+03  0.7818608E-02  0.9763305E-01
          2   -1    0    0  501    0  0.00000000000E+00  0.00000000000E+00  0.33085828817E+04  0.33085828817E+04  0.25500000000E-02 0. -1.
         -2   -1    0    0    0  501 -0.00000000000E+00 -0.00000000000E+00 -0.74197378732E+03  0.74197378732E+03  0.25500000000E-02 0.  1.
    8880023    1    1    2    0    0 -0.43335207340E+02  0.40963100787E+03  0.31925967467E+04  0.32857510095E+04  0.65864270000E+03 0.  0.
    8880022    1    1    2    0    0  0.43335207340E+02 -0.40963100787E+03 -0.62598765240E+03  0.76480565949E+03  0.15294330000E+03 0.  0.
<mgrwt>
<rscale>  0 0.67369554E+03</rscale>
<asrwt>0</asrwt>
<pdfrwt beam="1">  1        2 0.50901274E+00 0.77684343E+03</pdfrwt>
<pdfrwt beam="2">  1       -2 0.11414982E+00 0.77684343E+03</pdfrwt>
<totfact> 0.70877221E-01</totfact>
</mgrwt>
</event>
<event>
 4    1  0.6502538E-008  0.8188703E+03  0.7818608E-02  0.9671388E-01
          2   -1    0    0  501    0  0.00000000000E+00  0.00000000000E+00  0.18855334387E+04  0.18855334387E+04  0.25500000000E-02 0. -1.
         -2   -1    0    0    0  501 -0.00000000000E+00 -0.00000000000E+00 -0.24590737308E+03  0.24590737309E+03  0.25500000000E-02 0.  1.
    8880023    1    1    2    0    0  0.42407569499E+03 -0.23853341531E+03  0.12282088890E+04  0.14761590926E+04  0.65864270000E+03 0.  0.
    8880022    1    1    2    0    0 -0.42407569499E+03  0.23853341531E+03  0.41141717660E+03  0.65528171920E+03  0.15294330000E+03 0.  0.
<mgrwt>
<rscale>  0 0.72746174E+03</rscale>
<asrwt>0</asrwt>
<pdfrwt beam="1">  1        2 0.29008206E+00 0.81887031E+03</pdfrwt>
<pdfrwt beam="2">  1       -2 0.37831904E-01 0.81887031E+03</pdfrwt>
<totfact> 0.52011817E+01</totfact>
</mgrwt>
</event>
<event>
 4    1  0.6502538E-008  0.1087710E+04  0.7818608E-02  0.9274864E-01
          2   -1    0    0  501    0  0.00000000000E+00  0.00000000000E+00  0.18529068922E+04  0.18529068922E+04  0.25500000000E-02 0. -1.
         -2   -1    0    0    0  501 -0.00000000000E+00 -0.00000000000E+00 -0.10065813782E+04  0.10065813782E+04  0.25500000000E-02 0.  1.
    8880023    1    1    2    0    0 -0.46425012508E+02 -0.86437738198E+03  0.14356653991E+04  0.18011798591E+04  0.65864270000E+03 0.  0.
    8880022    1    1    2    0    0  0.46425012508E+02  0.86437738198E+03 -0.58933988515E+03  0.10583084113E+04  0.15294330000E+03 0.  0.
<mgrwt>
<rscale>  0 0.10313022E+04</rscale>
<asrwt>0</asrwt>
<pdfrwt beam="1">  1        2 0.28506259E+00 0.10877103E+04</pdfrwt>
<pdfrwt beam="2">  1       -2 0.15485868E+00 0.10877103E+04</pdfrwt>
<totfact> 0.21857100E+00</totfact>
</mgrwt>
</event>
<event>
 4    1  0.7393848E-008  0.1258403E+04  0.7818608E-02  0.9102341E-01
          2   -1    0    0  501    0  0.00000000000E+00  0.00000000000E+00  0.19928505780E+04  0.19928505780E+04  0.25500000000E-02 0. -1.
         -2   -1    0    0    0  501 -0.00000000000E+00 -0.00000000000E+00 -0.28161445617E+04  0.28161445617E+04  0.25500000000E-02 0.  1.
    8880023    1    1    2    0    0  0.98942907650E+03 -0.41327648032E+03  0.16697392935E+04  0.20908387937E+04  0.65864270000E+03 0.  0.
    8880022    1    1    2    0    0 -0.98942907650E+03  0.41327648032E+03 -0.24930332773E+04  0.27181563460E+04  0.15294330000E+03 0.  0.
<mgrwt>
<rscale>  0 0.12120886E+04</rscale>
<asrwt>0</asrwt>
<pdfrwt beam="1">  1        2 0.30659240E+00 0.12584028E+04</pdfrwt>
<pdfrwt beam="2">  1       -2 0.43325301E+00 0.12584028E+04</pdfrwt>
<totfact> 0.29445210E-02</totfact>
</mgrwt>
</event>
<event>
 4    1  0.6502538E-008  0.1167206E+04  0.7818608E-02  0.9189679E-01
         -2   -1    0    0    0  501 -0.00000000000E+00  0.00000000000E+00  0.15874881215E+04  0.15874881215E+04  0.25500000000E-02 0.  1.
          2   -1    0    0  501    0  0.00000000000E+00 -0.00000000000E+00 -0.11568514125E+04  0.11568514125E+04  0.25500000000E-02 0. -1.
    8880023    1    1    2    0    0  0.96360015574E+03  0.58880211409E+01 -0.61071732242E+03  0.13173252382E+04  0.65864270000E+03 0. -1.
    8880022    1    1    2    0    0 -0.96360015574E+03 -0.58880211409E+01  0.10413540314E+04  0.14270142959E+04  0.15294330000E+03 0.  0.
<mgrwt>
<rscale>  0 0.11160600E+04</rscale>
<asrwt>0</asrwt>
<pdfrwt beam="1">  1        2 0.17797714E+00 0.11672061E+04</pdfrwt>
<pdfrwt beam="2">  1       -2 0.24422894E+00 0.11672061E+04</pdfrwt>
<totfact> 0.13690906E+00</totfact>
</mgrwt>
</event>
<event>
 4    1  0.6502538E-008  0.1184585E+04  0.7818608E-02  0.9172254E-01
         -2   -1    0    0    0  501 -0.00000000000E+00  0.00000000000E+00  0.62685927091E+03  0.62685927092E+03  0.25500000000E-02 0.  1.
          2   -1    0    0  501    0  0.00000000000E+00 -0.00000000000E+00 -0.24159497056E+04  0.24159497056E+04  0.25500000000E-02 0. -1.
    8880023    1    1    2    0    0 -0.74242679892E+03  0.64671080783E+03 -0.16581765575E+04  0.20378400631E+04  0.65864270000E+03 0. -1.
    8880022    1    1    2    0    0  0.74242679892E+03 -0.64671080783E+03 -0.13091387723E+03  0.10049689134E+04  0.15294330000E+03 0.  0.
<mgrwt>
<rscale>  0 0.11344460E+04</rscale>
<asrwt>0</asrwt>
<pdfrwt beam="1">  1        2 0.37168457E+00 0.11845854E+04</pdfrwt>
<pdfrwt beam="2">  1       -2 0.96439889E-01 0.11845854E+04</pdfrwt>
<totfact> 0.34484407E+00</totfact>
</mgrwt>
</event>
<event>
 4    1  0.6502538E-008  0.7597974E+03  0.7818608E-02  0.9805632E-01
         -2   -1    0    0    0  501 -0.00000000000E+00  0.00000000000E+00  0.28155782799E+03  0.28155782801E+03  0.25500000000E-02 0.  1.
          2   -1    0    0  501    0  0.00000000000E+00 -0.00000000000E+00 -0.38103461733E+04  0.38103461733E+04  0.25500000000E-02 0. -1.
    8880023    1    1    2    0    0  0.37413300989E+03 -0.59214414911E+02 -0.35982022239E+04  0.36775469143E+04  0.65864270000E+03 0.  0.
    8880022    1    1    2    0    0 -0.37413300989E+03  0.59214414911E+02  0.69413878623E+02  0.41435708705E+03  0.15294330000E+03 0.  0.
<mgrwt>
<rscale>  0 0.65061155E+03</rscale>
<asrwt>0</asrwt>
<pdfrwt beam="1">  1        2 0.58620707E+00 0.75979738E+03</pdfrwt>
<pdfrwt beam="2">  1       -2 0.43316592E-01 0.75979738E+03</pdfrwt>
<totfact> 0.26741622E+00</totfact>
</mgrwt>
</event>
<event>
 4    1  0.6502538E-008  0.8240866E+03  0.7818608E-02  0.9660949E-01
          2   -1    0    0  501    0  0.00000000000E+00  0.00000000000E+00  0.35000402047E+03  0.35000402048E+03  0.25500000000E-02 0. -1.
         -2   -1    0    0    0  501 -0.00000000000E+00 -0.00000000000E+00 -0.15790782313E+04  0.15790782313E+04  0.25500000000E-02 0.  1.
    8880023    1    1    2    0    0  0.32432561727E+03 -0.37432791233E+03 -0.32283395857E+03  0.88506523095E+03  0.65864270000E+03 0. -1.
    8880022    1    1    2    0    0 -0.32432561727E+03  0.37432791233E+03 -0.90624025223E+03  0.10440170208E+04  0.15294330000E+03 0.  0.
<mgrwt>
<rscale>  0 0.73390208E+03</rscale>
<asrwt>0</asrwt>
<pdfrwt beam="1">  1        2 0.53846773E-01 0.82408658E+03</pdfrwt>
<pdfrwt beam="2">  1       -2 0.24293511E+00 0.82408658E+03</pdfrwt>
<totfact> 0.66825387E+00</totfact>
</mgrwt>
</event>
<event>
 4    1  0.6502538E-008  0.1031097E+04  0.7818608E-02  0.9341958E-01
         -2   -1    0    0    0  501 -0.00000000000E+00  0.00000000000E+00  0.13217196587E+04  0.13217196587E+04  0.25500000000E-02 0.  1.
          2   -1    0    0  501    0  0.00000000000E+00 -0.00000000000E+00 -0.15073591909E+04  0.15073591909E+04  0.25500000000E-02 0. -1.
    8880023    1    1    2    0    0  0.40968229073E+03 -0.67934611072E+03 -0.11674444309E+04  0.15575902616E+04  0.65864270000E+03 0. -1.
    8880022    1    1    2    0    0 -0.40968229073E+03  0.67934611072E+03  0.98180489867E+03  0.12714885881E+04  0.15294330000E+03 0.  0.
<mgrwt>
<rscale>  0 0.97010189E+03</rscale>
<asrwt>0</asrwt>
<pdfrwt beam="1">  1        2 0.23190141E+00 0.10310970E+04</pdfrwt>
<pdfrwt beam="2">  1       -2 0.20334149E+00 0.10310970E+04</pdfrwt>
<totfact> 0.15737858E+00</totfact>
</mgrwt>
</event>
<event>
 4    1  0.6502538E-008  0.2121349E+04  0.7818608E-02  0.8562945E-01
          2   -1    0    0  501    0  0.00000000000E+00  0.00000000000E+00  0.21493618783E+04  0.21493618783E+04  0.25500000000E-02 0. -1.
         -2   -1    0    0    0  501 -0.00000000000E+00 -0.00000000000E+00 -0.30968128162E+04  0.30968128162E+04  0.25500000000E-02 0.  1.
    8880023    1    1    2    0    0  0.17267743922E+04  0.10414235497E+04 -0.20438790134E+04  0.29457706019E+04  0.65864270000E+03 0.  0.
    8880022    1    1    2    0    0 -0.17267743922E+04 -0.10414235497E+04  0.10964280755E+04  0.23004040926E+04  0.15294330000E+03 0.  0.
<mgrwt>
<rscale>  0 0.20961417E+04</rscale>
<asrwt>0</asrwt>
<pdfrwt beam="1">  1        2 0.33067106E+00 0.21213493E+04</pdfrwt>
<pdfrwt beam="2">  1       -2 0.47643274E+00 0.21213493E+04</pdfrwt>
<totfact> 0.11132686E-02</totfact>
</mgrwt>
</event>
<event>
 4    1  0.6502538E-008  0.1139192E+04  0.7818608E-02  0.9218626E-01
          2   -1    0    0  501    0  0.00000000000E+00  0.00000000000E+00  0.20279208253E+04  0.20279208253E+04  0.25500000000E-02 0. -1.
         -2   -1    0    0    0  501 -0.00000000000E+00 -0.00000000000E+00 -0.99324471796E+03  0.99324471797E+03  0.25500000000E-02 0.  1.
    8880023    1    1    2    0    0  0.89986994989E+03 -0.23277039131E+03  0.15684160017E+04  0.19384754170E+04  0.65864270000E+03 0.  0.
    8880022    1    1    2    0    0 -0.89986994989E+03  0.23277039131E+03 -0.53373989431E+03  0.10826901263E+04  0.15294330000E+03 0.  0.
<mgrwt>
<rscale>  0 0.10863228E+04</rscale>
<asrwt>0</asrwt>
<pdfrwt beam="1">  1        2 0.31198781E+00 0.11391919E+04</pdfrwt>
<pdfrwt beam="2">  1       -2 0.15280688E+00 0.11391919E+04</pdfrwt>
<totfact> 0.18021749E+00</totfact>
</mgrwt>
</event>
<event>
 4    1  0.6502538E-008  0.7451711E+03  0.7818608E-02  0.9845132E-01
          2   -1    0    0  501    0  0.00000000000E+00  0.00000000000E+00  0.12948514477E+04  0.12948514477E+04  0.25500000000E-02 0. -1.
         -2   -1    0    0    0  501 -0.00000000000E+00 -0.00000000000E+00 -0.80750773405E+03  0.80750773405E+03  0.25500000000E-02 0.  1.
    8880023    1    1    2    0    0 -0.34532058026E+03  0.47153088062E+02  0.11311045537E+04  0.13545026521E+04  0.65864270000E+03 0. -1.
    8880022    1    1    2    0    0  0.34532058026E+03 -0.47153088062E+02 -0.64376084001E+03  0.74785652970E+03  0.15294330000E+03 0.  0.
<mgrwt>
<rscale>  0 0.62995723E+03</rscale>
<asrwt>0</asrwt>
<pdfrwt beam="1">  1        2 0.19920791E+00 0.74517107E+03</pdfrwt>
<pdfrwt beam="2">  1       -2 0.12423196E+00 0.74517107E+03</pdfrwt>
<totfact> 0.82855527E+00</totfact>
</mgrwt>
</event>
<event>
 4    1  0.6502538E-008  0.7938064E+03  0.7818608E-02  0.9724351E-01
          2   -1    0    0  501    0  0.00000000000E+00  0.00000000000E+00  0.94379305841E+03  0.94379305841E+03  0.25500000000E-02 0. -1.
         -2   -1    0    0    0  501 -0.00000000000E+00 -0.00000000000E+00 -0.54128257314E+03  0.54128257315E+03  0.25500000000E-02 0.  1.
    8880023    1    1    2    0    0  0.28225683336E+03 -0.34153994819E+03  0.58078576340E+03  0.98358566756E+03  0.65864270000E+03 0. -1.
    8880022    1    1    2    0    0 -0.28225683336E+03  0.34153994819E+03 -0.17827527814E+03  0.50148996401E+03  0.15294330000E+03 0.  0.
<mgrwt>
<rscale>  0 0.69585254E+03</rscale>
<asrwt>0</asrwt>
<pdfrwt beam="1">  1        2 0.14519893E+00 0.79380644E+03</pdfrwt>
<pdfrwt beam="2">  1       -2 0.83274242E-01 0.79380644E+03</pdfrwt>
<totfact> 0.34995665E+01</totfact>
</mgrwt>
</event>
<event>
 4    1  0.6502538E-008  0.6650366E+03  0.7818608E-02  0.1019503E+00
          2   -1    0    0  501    0  0.00000000000E+00  0.00000000000E+00  0.34259107902E+04  0.34259107902E+04  0.25500000000E-02 0. -1.
         -2   -1    0    0    0  501 -0.00000000000E+00 -0.00000000000E+00 -0.53880216905E+03  0.53880216905E+03  0.25500000000E-02 0.  1.
    8880023    1    1    2    0    0 -0.19289317666E+02 -0.89952101895E+02  0.33777608764E+04  0.34426068905E+04  0.65864270000E+03 0. -1.
    8880022    1    1    2    0    0  0.19289317666E+02  0.89952101895E+02 -0.49065225524E+03  0.52210606872E+03  0.15294330000E+03 0.  0.
<mgrwt>
<rscale>  0 0.47866486E+03</rscale>
<asrwt>0</asrwt>
<pdfrwt beam="1">  1        2 0.52706320E+00 0.66503659E+03</pdfrwt>
<pdfrwt beam="2">  1       -2 0.82892642E-01 0.66503659E+03</pdfrwt>
<totfact> 0.12935407E+00</totfact>
</mgrwt>
</event>
<event>
 4    1  0.6502538E-008  0.7955791E+03  0.7818608E-02  0.9720438E-01
         -2   -1    0    0    0  501 -0.00000000000E+00  0.00000000000E+00  0.17099623490E+04  0.17099623490E+04  0.25500000000E-02 0.  1.
          2   -1    0    0  501    0  0.00000000000E+00 -0.00000000000E+00 -0.12490312331E+04  0.12490312331E+04  0.25500000000E-02 0. -1.
    8880023    1    1    2    0    0  0.43737098527E+03 -0.88558335096E+02 -0.10834489536E+04  0.13441755089E+04  0.65864270000E+03 0. -1.
    8880022    1    1    2    0    0 -0.43737098527E+03  0.88558335096E+02  0.15443800695E+04  0.16148180732E+04  0.15294330000E+03 0.  0.
<mgrwt>
<rscale>  0 0.69812876E+03</rscale>
<asrwt>0</asrwt>
<pdfrwt beam="1">  1        2 0.19215865E+00 0.79557914E+03</pdfrwt>
<pdfrwt beam="2">  1       -2 0.26307113E+00 0.79557914E+03</pdfrwt>
<totfact> 0.97660695E-01</totfact>
</mgrwt>
</event>
<event>
 4    1  0.6502538E-008  0.9214389E+03  0.7818608E-02  0.9492456E-01
          2   -1    0    0  501    0  0.00000000000E+00  0.00000000000E+00  0.62583097897E+03  0.62583097897E+03  0.25500000000E-02 0. -1.
         -2   -1    0    0    0  501 -0.00000000000E+00 -0.00000000000E+00 -0.13072543230E+04  0.13072543230E+04  0.25500000000E-02 0.  1.
    8880023    1    1    2    0    0  0.62907351778E+03 -0.13966401132E+03  0.78837835731E+02  0.92480545924E+03  0.65864270000E+03 0.  0.
    8880022    1    1    2    0    0 -0.62907351778E+03  0.13966401132E+03 -0.76026117979E+03  0.10082798428E+04  0.15294330000E+03 0.  0.
<mgrwt>
<rscale>  0 0.84842286E+03</rscale>
<asrwt>0</asrwt>
<pdfrwt beam="1">  1        2 0.96281689E-01 0.92143895E+03</pdfrwt>
<pdfrwt beam="2">  1       -2 0.20111605E+00 0.92143895E+03</pdfrwt>
<totfact> 0.61709133E+00</totfact>
</mgrwt>
</event>
<event>
 4    1  0.6502538E-008  0.8439099E+03  0.7818608E-02  0.9622851E-01
         -2   -1    0    0    0  501 -0.00000000000E+00  0.00000000000E+00  0.10773214443E+04  0.10773214443E+04  0.25500000000E-02 0.  1.
          2   -1    0    0  501    0  0.00000000000E+00 -0.00000000000E+00 -0.93354577464E+03  0.93354577465E+03  0.25500000000E-02 0. -1.
    8880023    1    1    2    0    0  0.35436907448E+03 -0.39089153111E+03 -0.63620716285E+03  0.10568554255E+04  0.65864270000E+03 0.  0.
    8880022    1    1    2    0    0 -0.35436907448E+03  0.39089153111E+03  0.77998283247E+03  0.95401179343E+03  0.15294330000E+03 0.  0.
<mgrwt>
<rscale>  0 0.75802006E+03</rscale>
<asrwt>0</asrwt>
<pdfrwt beam="1">  1        2 0.14362243E+00 0.84390985E+03</pdfrwt>
<pdfrwt beam="2">  1       -2 0.16574176E+00 0.84390985E+03</pdfrwt>
<totfact> 0.64138378E+00</totfact>
</mgrwt>
</event>
<event>
 4    1  0.6812937E-008  0.6757431E+03  0.7818608E-02  0.1011842E+00
          2   -1    0    0  501    0  0.00000000000E+00  0.00000000000E+00  0.28761778474E+04  0.28761778474E+04  0.25500000000E-02 0. -1.
         -2   -1    0    0    0  501 -0.00000000000E+00 -0.00000000000E+00 -0.17995735554E+04  0.17995735554E+04  0.25500000000E-02 0.  1.
    8880023    1    1    2    0    0  0.10384923971E+03  0.10969905323E+03  0.28298317370E+04  0.29093945097E+04  0.65864270000E+03 0. -1.
    8880022    1    1    2    0    0 -0.10384923971E+03 -0.10969905323E+03 -0.17532274450E+04  0.17663568931E+04  0.15294330000E+03 0.  0.
<mgrwt>
<rscale>  0 0.50749112E+03</rscale>
<asrwt>0</asrwt>
<pdfrwt beam="1">  1        2 0.44248890E+00 0.67574311E+03</pdfrwt>
<pdfrwt beam="2">  1       -2 0.27685747E+00 0.67574311E+03</pdfrwt>
<totfact> 0.10182890E-01</totfact>
</mgrwt>
</event>
<event>
 4    1  0.6502538E-008  0.1164052E+04  0.7818608E-02  0.9192883E-01
         -2   -1    0    0    0  501 -0.00000000000E+00  0.00000000000E+00  0.11646793332E+04  0.11646793332E+04  0.25500000000E-02 0.  1.
          2   -1    0    0  501    0  0.00000000000E+00 -0.00000000000E+00 -0.15187450918E+04  0.15187450918E+04  0.25500000000E-02 0. -1.
    8880023    1    1    2    0    0  0.17799419025E+02  0.95963052752E+03 -0.98484059294E+03  0.15247717103E+04  0.65864270000E+03 0.  1.
    8880022    1    1    2    0    0 -0.17799419025E+02 -0.95963052752E+03  0.63077483441E+03  0.11586527148E+04  0.15294330000E+03 0.  0.
<mgrwt>
<rscale>  0 0.11127185E+04</rscale>
<asrwt>0</asrwt>
<pdfrwt beam="1">  1        2 0.23365309E+00 0.11640523E+04</pdfrwt>
<pdfrwt beam="2">  1       -2 0.17918144E+00 0.11640523E+04</pdfrwt>
<totfact> 0.22169531E+00</totfact>
</mgrwt>
</event>
<event>
 4    1  0.6502538E-008  0.9940227E+03  0.7818608E-02  0.9389420E-01
         -2   -1    0    0    0  501 -0.00000000000E+00  0.00000000000E+00  0.44851479553E+03  0.44851479553E+03  0.25500000000E-02 0.  1.
          2   -1    0    0  501    0  0.00000000000E+00 -0.00000000000E+00 -0.18774369274E+04  0.18774369274E+04  0.25500000000E-02 0. -1.
    8880023    1    1    2    0    0  0.44181606542E+03  0.59922406343E+03 -0.11408502697E+04  0.15131491856E+04  0.65864270000E+03 0.  0.
    8880022    1    1    2    0    0 -0.44181606542E+03 -0.59922406343E+03 -0.28807186219E+03  0.81280253730E+03  0.15294330000E+03 0.  0.
<mgrwt>
<rscale>  0 0.92951522E+03</rscale>
<asrwt>0</asrwt>
<pdfrwt beam="1">  1        2 0.28883645E+00 0.99402270E+03</pdfrwt>
<pdfrwt beam="2">  1       -2 0.69002277E-01 0.99402270E+03</pdfrwt>
<totfact> 0.15023151E+01</totfact>
</mgrwt>
</event>
<event>
 4    1  0.6502538E-008  0.7566862E+03  0.7818608E-02  0.9813763E-01
          2   -1    0    0  501    0  0.00000000000E+00  0.00000000000E+00  0.18397298851E+04  0.18397298851E+04  0.25500000000E-02 0. -1.
         -2   -1    0    0    0  501 -0.00000000000E+00 -0.00000000000E+00 -0.21055006141E+03  0.21055006142E+03  0.25500000000E-02 0.  1.
    8880023    1    1    2    0    0  0.37212228460E+03  0.16995162339E+02  0.13880935325E+04  0.15809420266E+04  0.65864270000E+03 0. -1.
    8880022    1    1    2    0    0 -0.37212228460E+03 -0.16995162339E+02  0.24108629111E+03  0.46933791985E+03  0.15294330000E+03 0. -1.
<mgrwt>
<rscale>  0 0.64629132E+03</rscale>
<asrwt>0</asrwt>
<pdfrwt beam="1">  1        2 0.28303535E+00 0.75668622E+03</pdfrwt>
<pdfrwt beam="2">  1       -2 0.32392319E-01 0.75668622E+03</pdfrwt>
<totfact> 0.74551990E+01</totfact>
</mgrwt>
</event>
<event>
 4    1  0.6502538E-008  0.1247389E+04  0.7818608E-02  0.9112379E-01
          2   -1    0    0  501    0  0.00000000000E+00  0.00000000000E+00  0.16475010643E+04  0.16475010643E+04  0.25500000000E-02 0. -1.
         -2   -1    0    0    0  501 -0.00000000000E+00 -0.00000000000E+00 -0.11721231284E+04  0.11721231284E+04  0.25500000000E-02 0.  1.
    8880023    1    1    2    0    0 -0.10499361490E+04 -0.14072323971E+03  0.10267800540E+04  0.16156288041E+04  0.65864270000E+03 0.  0.
    8880022    1    1    2    0    0  0.10499361490E+04  0.14072323971E+03 -0.55140211807E+03  0.12039953887E+04  0.15294330000E+03 0.  0.
<mgrwt>
<rscale>  0 0.12005456E+04</rscale>
<asrwt>0</asrwt>
<pdfrwt beam="1">  1        2 0.25346170E+00 0.12473889E+04</pdfrwt>
<pdfrwt beam="2">  1       -2 0.18032664E+00 0.12473889E+04</pdfrwt>
<totfact> 0.18270723E+00</totfact>
</mgrwt>
</event>
<event>
 4    1  0.6502538E-008  0.8025963E+03  0.7818608E-02  0.9705210E-01
         -2   -1    0    0    0  501 -0.00000000000E+00  0.00000000000E+00  0.54472285851E+03  0.54472285851E+03  0.25500000000E-02 0.  1.
          2   -1    0    0  501    0  0.00000000000E+00 -0.00000000000E+00 -0.21721085822E+04  0.21721085822E+04  0.25500000000E-02 0. -1.
    8880023    1    1    2    0    0 -0.25230177758E+03 -0.38300706165E+03 -0.19680393301E+04  0.21254033987E+04  0.65864270000E+03 0.  0.
    8880022    1    1    2    0    0  0.25230177758E+03  0.38300706165E+03  0.34065360642E+03  0.59142804197E+03  0.15294330000E+03 0.  0.
<mgrwt>
<rscale>  0 0.70707424E+03</rscale>
<asrwt>0</asrwt>
<pdfrwt beam="1">  1        2 0.33417055E+00 0.80259629E+03</pdfrwt>
<pdfrwt beam="2">  1       -2 0.83803517E-01 0.80259629E+03</pdfrwt>
<totfact> 0.68726353E+00</totfact>
</mgrwt>
</event>
<event>
 4    1  0.6502538E-008  0.9137013E+03  0.7818608E-02  0.9504385E-01
          2   -1    0    0  501    0  0.00000000000E+00  0.00000000000E+00  0.12305429545E+04  0.12305429545E+04  0.25500000000E-02 0. -1.
         -2   -1    0    0    0  501 -0.00000000000E+00 -0.00000000000E+00 -0.22986075237E+04  0.22986075237E+04  0.25500000000E-02 0.  1.
    8880023    1    1    2    0    0  0.60300933130E+03  0.19344139601E+03  0.10037399550E+04  0.13573297060E+04  0.65864270000E+03 0. -1.
    8880022    1    1    2    0    0 -0.60300933130E+03 -0.19344139601E+03 -0.20718045242E+04  0.21718207723E+04  0.15294330000E+03 0.  0.
<mgrwt>
<rscale>  0 0.83961294E+03</rscale>
<asrwt>0</asrwt>
<pdfrwt beam="1">  1        2 0.18931430E+00 0.91370128E+03</pdfrwt>
<pdfrwt beam="2">  1       -2 0.35363193E+00 0.91370128E+03</pdfrwt>
<totfact> 0.27549018E-01</totfact>
</mgrwt>
</event>
<event>
 4    1  0.6502538E-008  0.1125308E+04  0.7818608E-02  0.9233389E-01
          2   -1    0    0  501    0  0.00000000000E+00  0.00000000000E+00  0.17470763190E+04  0.17470763190E+04  0.25500000000E-02 0. -1.
         -2   -1    0    0    0  501 -0.00000000000E+00 -0.00000000000E+00 -0.86307957018E+03  0.86307957018E+03  0.25500000000E-02 0.  1.
    8880023    1    1    2    0    0  0.59991053763E+03  0.68746967741E+03 -0.24383529919E+03  0.11514221945E+04  0.65864270000E+03 0.  1.
    8880022    1    1    2    0    0 -0.59991053763E+03 -0.68746967741E+03  0.11278320480E+04  0.14587336947E+04  0.15294330000E+03 0.  0.
<mgrwt>
<rscale>  0 0.10715348E+04</rscale>
<asrwt>0</asrwt>
<pdfrwt beam="1">  1        2 0.26878097E+00 0.11253077E+04</pdfrwt>
<pdfrwt beam="2">  1       -2 0.13278147E+00 0.11253077E+04</pdfrwt>
<totfact> 0.37290874E+00</totfact>
</mgrwt>
</event>
<event>
 4    1  0.6502538E-008  0.8169091E+03  0.7818608E-02  0.9675361E-01
          2   -1    0    0  501    0  0.00000000000E+00  0.00000000000E+00  0.18165336336E+04  0.18165336336E+04  0.25500000000E-02 0. -1.
         -2   -1    0    0    0  501 -0.00000000000E+00 -0.00000000000E+00 -0.80533305963E+03  0.80533305964E+03  0.25500000000E-02 0.  1.
    8880023    1    1    2    0    0 -0.29337942159E+03  0.38400362104E+03  0.16292323665E+04  0.18225637372E+04  0.65864270000E+03 0. -1.
    8880022    1    1    2    0    0  0.29337942159E+03 -0.38400362104E+03 -0.61803179249E+03  0.79930295604E+03  0.15294330000E+03 0.  0.
<mgrwt>
<rscale>  0 0.72502911E+03</rscale>
<asrwt>0</asrwt>
<pdfrwt beam="1">  1        2 0.27946671E+00 0.81690910E+03</pdfrwt>
<pdfrwt beam="2">  1       -2 0.12389739E+00 0.81690910E+03</pdfrwt>
<totfact> 0.42303348E+00</totfact>
</mgrwt>
</event>
<event>
 4    1  0.6502538E-008  0.1355673E+04  0.7818608E-02  0.9018915E-01
         -2   -1    0    0    0  501 -0.00000000000E+00  0.00000000000E+00  0.12265126211E+04  0.12265126211E+04  0.25500000000E-02 0.  1.
          2   -1    0    0  501    0  0.00000000000E+00 -0.00000000000E+00 -0.21633295085E+04  0.21633295085E+04  0.25500000000E-02 0. -1.
    8880023    1    1    2    0    0  0.42060711858E+03 -0.11077579580E+04 -0.15398074274E+04  0.20515494538E+04  0.65864270000E+03 0.  0.
    8880022    1    1    2    0    0 -0.42060711858E+03  0.11077579580E+04  0.60299053994E+03  0.13382926758E+04  0.15294330000E+03 0.  0.
<mgrwt>
<rscale>  0 0.13135163E+04</rscale>
<asrwt>0</asrwt>
<pdfrwt beam="1">  1        2 0.33281993E+00 0.13556726E+04</pdfrwt>
<pdfrwt beam="2">  1       -2 0.18869425E+00 0.13556726E+04</pdfrwt>
<totfact> 0.81761140E-01</totfact>
</mgrwt>
</event>
<event>
 4    1  0.6502538E-008  0.1257806E+04  0.7818608E-02  0.9102881E-01
          2   -1    0    0  501    0  0.00000000000E+00  0.00000000000E+00  0.17388919062E+04  0.17388919062E+04  0.25500000000E-02 0. -1.
         -2   -1    0    0    0  501 -0.00000000000E+00 -0.00000000000E+00 -0.12569874264E+04  0.12569874264E+04  0.25500000000E-02 0.  1.
    8880023    1    1    2    0    0  0.61661304516E+03  0.87638750132E+03  0.11662258021E+04  0.17152724354E+04  0.65864270000E+03 0.  0.
    8880022    1    1    2    0    0 -0.61661304516E+03 -0.87638750132E+03 -0.68432132228E+03  0.12806068972E+04  0.15294330000E+03 0.  0.
<mgrwt>
<rscale>  0 0.12114639E+04</rscale>
<asrwt>0</asrwt>
<pdfrwt beam="1">  1        2 0.26752183E+00 0.12578064E+04</pdfrwt>
<pdfrwt beam="2">  1       -2 0.19338268E+00 0.12578064E+04</pdfrwt>
<totfact> 0.13232763E+00</totfact>
</mgrwt>
</event>
<event>
 4    1  0.6502538E-008  0.7229194E+03  0.7818608E-02  0.9912829E-01
         -2   -1    0    0    0  501 -0.00000000000E+00  0.00000000000E+00  0.15668182142E+04  0.15668182142E+04  0.25500000000E-02 0.  1.
          2   -1    0    0  501    0  0.00000000000E+00 -0.00000000000E+00 -0.95284467215E+03  0.95284467215E+03  0.25500000000E-02 0. -1.
    8880023    1    1    2    0    0  0.17080275141E+03 -0.24418988874E+03 -0.79317899140E+03  0.10731940180E+04  0.65864270000E+03 0. -1.
    8880022    1    1    2    0    0 -0.17080275141E+03  0.24418988874E+03  0.14071525335E+04  0.14464688684E+04  0.15294330000E+03 0.  0.
<mgrwt>
<rscale>  0 0.59643565E+03</rscale>
<asrwt>0</asrwt>
<pdfrwt beam="1">  1        2 0.14659149E+00 0.72291942E+03</pdfrwt>
<pdfrwt beam="2">  1       -2 0.24104895E+00 0.72291942E+03</pdfrwt>
<totfact> 0.20438956E+00</totfact>
</mgrwt>
</event>
<event>
 4    1  0.6502538E-008  0.6924987E+03  0.7818608E-02  0.1002987E+00
         -2   -1    0    0    0  501 -0.00000000000E+00  0.00000000000E+00  0.53868824767E+03  0.53868824767E+03  0.25500000000E-02 0.  1.
          2   -1    0    0  501    0  0.00000000000E+00 -0.00000000000E+00 -0.80348183572E+03  0.80348183572E+03  0.25500000000E-02 0. -1.
    8880023    1    1    2    0    0  0.20306006191E+03 -0.67162404602E+02  0.27234558179E+03  0.74412801286E+03  0.65864270000E+03 0.  1.
    8880022    1    1    2    0    0 -0.20306006191E+03  0.67162404602E+02 -0.53713916985E+03  0.59804207054E+03  0.15294330000E+03 0.  0.
<mgrwt>
<rscale>  0 0.54359706E+03</rscale>
<asrwt>0</asrwt>
<pdfrwt beam="1">  1        2 0.12361259E+00 0.69249865E+03</pdfrwt>
<pdfrwt beam="2">  1       -2 0.82875115E-01 0.69249865E+03</pdfrwt>
<totfact> 0.44529671E+01</totfact>
</mgrwt>
</event>
<event>
 4    1  0.6502538E-008  0.7767955E+03  0.7818608E-02  0.9763419E-01
         -2   -1    0    0    0  501 -0.00000000000E+00  0.00000000000E+00  0.29465025406E+03  0.29465025407E+03  0.25500000000E-02 0.  1.
          2   -1    0    0  501    0  0.00000000000E+00 -0.00000000000E+00 -0.16730556758E+04  0.16730556758E+04  0.25500000000E-02 0. -1.
    8880023    1    1    2    0    0 -0.65956336408E+01 -0.41177356357E+03 -0.13101538236E+04  0.15231264615E+04  0.65864270000E+03 0.  0.
    8880022    1    1    2    0    0  0.65956336408E+01  0.41177356357E+03 -0.68251598174E+02  0.44457946838E+03  0.15294330000E+03 0.  0.
<mgrwt>
<rscale>  0 0.67363182E+03</rscale>
<asrwt>0</asrwt>
<pdfrwt beam="1">  1        2 0.25739318E+00 0.77679545E+03</pdfrwt>
<pdfrwt beam="2">  1       -2 0.45330809E-01 0.77679545E+03</pdfrwt>
<totfact> 0.47859231E+01</totfact>
</mgrwt>
</event>
<event>
 4    1  0.6502538E-008  0.9828396E+03  0.7818608E-02  0.9404361E-01
          2   -1    0    0  501    0  0.00000000000E+00  0.00000000000E+00  0.19705089946E+04  0.19705089946E+04  0.25500000000E-02 0. -1.
         -2   -1    0    0    0  501 -0.00000000000E+00 -0.00000000000E+00 -0.73284562593E+03  0.73284562593E+03  0.25500000000E-02 0.  1.
    8880023    1    1    2    0    0  0.50969649039E+03 -0.52189360372E+03  0.15975441738E+04  0.18756654924E+04  0.65864270000E+03 0. -1.
    8880022    1    1    2    0    0 -0.50969649039E+03  0.52189360372E+03 -0.35988080512E+03  0.82768912813E+03  0.15294330000E+03 0.  0.
<mgrwt>
<rscale>  0 0.91717640E+03</rscale>
<asrwt>0</asrwt>
<pdfrwt beam="1">  1        2 0.30315523E+00 0.98283959E+03</pdfrwt>
<pdfrwt beam="2">  1       -2 0.11274548E+00 0.98283959E+03</pdfrwt>
<totfact> 0.42993163E+00</totfact>
</mgrwt>
</event>
<event>
 4    1  0.6502538E-008  0.9278256E+03  0.7818608E-02  0.9482763E-01
          2   -1    0    0  501    0  0.00000000000E+00  0.00000000000E+00  0.23401472615E+04  0.23401472615E+04  0.25500000000E-02 0. -1.
         -2   -1    0    0    0  501 -0.00000000000E+00 -0.00000000000E+00 -0.78767292658E+03  0.78767292659E+03  0.25500000000E-02 0.  1.
    8880023    1    1    2    0    0 -0.47991358263E+03 -0.44354598469E+03  0.20777851069E+04  0.22755331780E+04  0.65864270000E+03 0.  0.
    8880022    1    1    2    0    0  0.47991358263E+03  0.44354598469E+03 -0.52531077203E+03  0.85228701008E+03  0.15294330000E+03 0.  0.
<mgrwt>
<rscale>  0 0.85566660E+03</rscale>
<asrwt>0</asrwt>
<pdfrwt beam="1">  1        2 0.36002265E+00 0.92782557E+03</pdfrwt>
<pdfrwt beam="2">  1       -2 0.12118045E+00 0.92782557E+03</pdfrwt>
<totfact> 0.22620446E+00</totfact>
</mgrwt>
</event>
<event>
 4    1  0.6502538E-008  0.6596767E+03  0.7818608E-02  0.1024490E+00
         -2   -1    0    0    0  501 -0.00000000000E+00  0.00000000000E+00  0.63087907760E+03  0.63087907760E+03  0.25500000000E-02 0.  1.
          2   -1    0    0  501    0  0.00000000000E+00 -0.00000000000E+00 -0.94973618070E+03  0.94973618071E+03  0.25500000000E-02 0. -1.
    8880023    1    1    2    0    0 -0.16677415284E+02 -0.32939314784E+02 -0.82169652488E+03  0.10537355076E+04  0.65864270000E+03 0. -1.
    8880022    1    1    2    0    0  0.16677415284E+02  0.32939314784E+02  0.50283942177E+03  0.52687975074E+03  0.15294330000E+03 0.  0.
<mgrwt>
<rscale>  0 0.46100513E+03</rscale>
<asrwt>0</asrwt>
<pdfrwt beam="1">  1        2 0.14611326E+00 0.65967669E+03</pdfrwt>
<pdfrwt beam="2">  1       -2 0.97058319E-01 0.65967669E+03</pdfrwt>
<totfact> 0.24686679E+01</totfact>
</mgrwt>
</event>
<event>
 4    1  0.6502538E-008  0.1003467E+04  0.7818608E-02  0.9377036E-01
          2   -1    0    0  501    0  0.00000000000E+00  0.00000000000E+00  0.39464060426E+04  0.39464060426E+04  0.25500000000E-02 0. -1.
         -2   -1    0    0    0  501 -0.00000000000E+00 -0.00000000000E+00 -0.72132514685E+03  0.72132514686E+03  0.25500000000E-02 0.  1.
    8880023    1    1    2    0    0  0.64249176001E+03  0.40042504427E+03  0.36505407237E+04  0.37859468643E+04  0.65864270000E+03 0. -1.
    8880022    1    1    2    0    0 -0.64249176001E+03 -0.40042504427E+03 -0.42545982799E+03  0.88178432511E+03  0.15294330000E+03 0.  0.
<mgrwt>
<rscale>  0 0.93989890E+03</rscale>
<asrwt>0</asrwt>
<pdfrwt beam="1">  1        2 0.60713939E+00 0.10034670E+04</pdfrwt>
<pdfrwt beam="2">  1       -2 0.11097310E+00 0.10034670E+04</pdfrwt>
<totfact> 0.25448372E-01</totfact>
</mgrwt>
</event>
<event>
 4    1  0.6502538E-008  0.9148566E+03  0.7818608E-02  0.9502591E-01
         -2   -1    0    0    0  501 -0.00000000000E+00  0.00000000000E+00  0.30515377439E+03  0.30515377440E+03  0.25500000000E-02 0.  1.
          2   -1    0    0  501    0  0.00000000000E+00 -0.00000000000E+00 -0.41660378042E+04  0.41660378042E+04  0.25500000000E-02 0. -1.
    8880023    1    1    2    0    0  0.41390082361E+03 -0.48149615883E+03 -0.36821120469E+04  0.37940627004E+04  0.65864270000E+03 0.  0.
    8880022    1    1    2    0    0 -0.41390082361E+03  0.48149615883E+03 -0.17877198292E+03  0.67712887817E+03  0.15294330000E+03 0.  0.
<mgrwt>
<rscale>  0 0.84093082E+03</rscale>
<asrwt>0</asrwt>
<pdfrwt beam="1">  1        2 0.64092885E+00 0.91485663E+03</pdfrwt>
<pdfrwt beam="2">  1       -2 0.46946738E-01 0.91485663E+03</pdfrwt>
<totfact> 0.11547032E+00</totfact>
</mgrwt>
</event>
<event>
 4    1  0.6502538E-008  0.7197576E+03  0.7818608E-02  0.9923407E-01
          2   -1    0    0  501    0  0.00000000000E+00  0.00000000000E+00  0.12285777471E+04  0.12285777471E+04  0.25500000000E-02 0. -1.
         -2   -1    0    0    0  501 -0.00000000000E+00 -0.00000000000E+00 -0.67360996570E+03  0.67360996571E+03  0.25500000000E-02 0.  1.
    8880023    1    1    2    0    0 -0.13376537820E+03 -0.25758045067E+03  0.10711862768E+04  0.12905390776E+04  0.65864270000E+03 0. -1.
    8880022    1    1    2    0    0  0.13376537820E+03  0.25758045067E+03 -0.51621849538E+03  0.61164863522E+03  0.15294330000E+03 0.  0.
<mgrwt>
<rscale>  0 0.59140182E+03</rscale>
<asrwt>0</asrwt>
<pdfrwt beam="1">  1        2 0.18901196E+00 0.71975765E+03</pdfrwt>
<pdfrwt beam="2">  1       -2 0.10363230E+00 0.71975765E+03</pdfrwt>
<totfact> 0.14141603E+01</totfact>
</mgrwt>
</event>
<event>
 4    1  0.6502538E-008  0.6775542E+03  0.7818608E-02  0.1010742E+00
          2   -1    0    0  501    0  0.00000000000E+00  0.00000000000E+00  0.21412475859E+04  0.21412475859E+04  0.25500000000E-02 0. -1.
         -2   -1    0    0    0  501 -0.00000000000E+00 -0.00000000000E+00 -0.27508014282E+03  0.27508014284E+03  0.25500000000E-02 0.  1.
    8880023    1    1    2    0    0 -0.11753100256E+03  0.10703252191E+03  0.20309458886E+04  0.21409859659E+04  0.65864270000E+03 0. -1.
    8880022    1    1    2    0    0  0.11753100256E+03 -0.10703252191E+03 -0.16477844547E+03  0.27534176293E+03  0.15294330000E+03 0.  0.
<mgrwt>
<rscale>  0 0.51180654E+03</rscale>
<asrwt>0</asrwt>
<pdfrwt beam="1">  1        2 0.32942271E+00 0.67755421E+03</pdfrwt>
<pdfrwt beam="2">  1       -2 0.42320022E-01 0.67755421E+03</pdfrwt>
<totfact> 0.30843639E+01</totfact>
</mgrwt>
</event>
<event>
 4    1  0.6502538E-008  0.8567442E+03  0.7818608E-02  0.9599381E-01
         -2   -1    0    0    0  501 -0.00000000000E+00  0.00000000000E+00  0.10024538165E+04  0.10024538165E+04  0.25500000000E-02 0.  1.
          2   -1    0    0  501    0  0.00000000000E+00 -0.00000000000E+00 -0.14265177010E+04  0.14265177010E+04  0.25500000000E-02 0. -1.
    8880023    1    1    2    0    0  0.53624901149E+03  0.11241609480E+03 -0.11953068485E+04  0.14706355936E+04  0.65864270000E+03 0. -1.
    8880022    1    1    2    0    0 -0.53624901149E+03 -0.11241609480E+03  0.77124296397E+03  0.95833592398E+03  0.15294330000E+03 0.  0.
<mgrwt>
<rscale>  0 0.77337139E+03</rscale>
<asrwt>0</asrwt>
<pdfrwt beam="1">  1        2 0.21946426E+00 0.85674418E+03</pdfrwt>
<pdfrwt beam="2">  1       -2 0.15422367E+00 0.85674418E+03</pdfrwt>
<totfact> 0.39265910E+00</totfact>
</mgrwt>
</event>
<event>
 4    1  0.6502538E-008  0.9044496E+03  0.7818608E-02  0.9518926E-01
         -2   -1    0    0    0  501 -0.00000000000E+00  0.00000000000E+00  0.51161182471E+03  0.51161182472E+03  0.25500000000E-02 0.  1.
          2   -1    0    0  501    0  0.00000000000E+00 -0.00000000000E+00 -0.15181136369E+04  0.15181136369E+04  0.25500000000E-02 0. -1.
    8880023    1    1    2    0    0  0.26682484874E+03 -0.55948498934E+03 -0.10547824868E+04  0.13894586190E+04  0.65864270000E+03 0.  1.
    8880022    1    1    2    0    0 -0.26682484874E+03  0.55948498934E+03  0.48280674603E+02  0.64026684262E+03  0.15294330000E+03 0. -1.
<mgrwt>
<rscale>  0 0.82902758E+03</rscale>
<asrwt>0</asrwt>
<pdfrwt beam="1">  1        2 0.23355594E+00 0.90444964E+03</pdfrwt>
<pdfrwt beam="2">  1       -2 0.78709512E-01 0.90444964E+03</pdfrwt>
<totfact> 0.17894890E+01</totfact>
</mgrwt>
</event>
<event>
 4    1  0.1001196E-007  0.1334999E+04  0.7818608E-02  0.9035910E-01
          2   -1    0    0  501    0  0.00000000000E+00  0.00000000000E+00  0.26038750775E+04  0.26038750775E+04  0.25500000000E-02 0. -1.
         -2   -1    0    0    0  501 -0.00000000000E+00 -0.00000000000E+00 -0.16309098289E+04  0.16309098289E+04  0.25500000000E-02 0.  1.
    8880023    1    1    2    0    0 -0.11596626971E+04 -0.59956926234E+02  0.21778402932E+04  0.25544492465E+04  0.65864270000E+03 0. -1.
    8880022    1    1    2    0    0  0.11596626971E+04  0.59956926234E+02 -0.12048750446E+04  0.16803356600E+04  0.15294330000E+03 0.  0.
<mgrwt>
<rscale>  0 0.12920289E+04</rscale>
<asrwt>0</asrwt>
<pdfrwt beam="1">  1        2 0.40059616E+00 0.13349991E+04</pdfrwt>
<pdfrwt beam="2">  1       -2 0.25090921E+00 0.13349991E+04</pdfrwt>
<totfact> 0.18419652E-01</totfact>
</mgrwt>
</event>
<event>
 4    1  0.6502538E-008  0.6658310E+03  0.7818608E-02  0.1018846E+00
          2   -1    0    0  501    0  0.00000000000E+00  0.00000000000E+00  0.27722332739E+04  0.27722332739E+04  0.25500000000E-02 0. -1.
         -2   -1    0    0    0  501 -0.00000000000E+00 -0.00000000000E+00 -0.59329724756E+03  0.59329724757E+03  0.25500000000E-02 0.  1.
    8880023    1    1    2    0    0 -0.86275577690E+02 -0.45576124584E+02  0.27171617615E+04  0.27975523057E+04  0.65864270000E+03 0. -1.
    8880022    1    1    2    0    0  0.86275577690E+02  0.45576124584E+02 -0.53822573526E+03  0.56797821573E+03  0.15294330000E+03 0.  0.
<mgrwt>
<rscale>  0 0.48105284E+03</rscale>
<asrwt>0</asrwt>
<pdfrwt beam="1">  1        2 0.42649743E+00 0.66583096E+03</pdfrwt>
<pdfrwt beam="2">  1       -2 0.91276500E-01 0.66583096E+03</pdfrwt>
<totfact> 0.26514496E+00</totfact>
</mgrwt>
</event>
<event>
 4    1  0.6502538E-008  0.1034399E+04  0.7818608E-02  0.9337875E-01
         -2   -1    0    0    0  501 -0.00000000000E+00  0.00000000000E+00  0.35297148008E+03  0.35297148009E+03  0.25500000000E-02 0.  1.
          2   -1    0    0  501    0  0.00000000000E+00 -0.00000000000E+00 -0.40164991713E+04  0.40164991713E+04  0.25500000000E-02 0. -1.
    8880023    1    1    2    0    0 -0.22534553168E+03  0.76510870297E+03 -0.59079991003E+03  0.11912290611E+04  0.65864270000E+03 0.  0.
    8880022    1    1    2    0    0  0.22534553168E+03 -0.76510870297E+03 -0.30727277812E+04  0.31782415903E+04  0.15294330000E+03 0.  0.
<mgrwt>
<rscale>  0 0.97369577E+03</rscale>
<asrwt>0</asrwt>
<pdfrwt beam="1">  1        2 0.61792292E+00 0.10343994E+04</pdfrwt>
<pdfrwt beam="2">  1       -2 0.54303307E-01 0.10343994E+04</pdfrwt>
<totfact> 0.11106612E+00</totfact>
</mgrwt>
</event>
<event>
 4    1  0.6502538E-008  0.8297316E+03  0.7818608E-02  0.9649855E-01
          2   -1    0    0  501    0  0.00000000000E+00  0.00000000000E+00  0.34345298651E+04  0.34345298651E+04  0.25500000000E-02 0. -1.
         -2   -1    0    0    0  501 -0.00000000000E+00 -0.00000000000E+00 -0.71293760225E+03  0.71293760225E+03  0.25500000000E-02 0.  1.
    8880023    1    1    2    0    0  0.64031354549E+02  0.50054399597E+03  0.32777162218E+04  0.33811060532E+04  0.65864270000E+03 0. -1.
    8880022    1    1    2    0    0 -0.64031354549E+02 -0.50054399597E+03 -0.55612395898E+03  0.76636141410E+03  0.15294330000E+03 0.  0.
<mgrwt>
<rscale>  0 0.74082536E+03</rscale>
<asrwt>0</asrwt>
<pdfrwt beam="1">  1        2 0.52838922E+00 0.82973159E+03</pdfrwt>
<pdfrwt beam="2">  1       -2 0.10968271E+00 0.82973159E+03</pdfrwt>
<totfact> 0.63682559E-01</totfact>
</mgrwt>
</event>
<event>
 4    1  0.6502538E-008  0.7913304E+03  0.7818608E-02  0.9729865E-01
          2   -1    0    0  501    0  0.00000000000E+00  0.00000000000E+00  0.13241335893E+04  0.13241335893E+04  0.25500000000E-02 0. -1.
         -2   -1    0    0    0  501 -0.00000000000E+00 -0.00000000000E+00 -0.65153749271E+03  0.65153749271E+03  0.25500000000E-02 0.  1.
    8880023    1    1    2    0    0  0.13227230067E+03 -0.41820772697E+03  0.10928401695E+04  0.13492603555E+04  0.65864270000E+03 0. -1.
    8880022    1    1    2    0    0 -0.13227230067E+03  0.41820772697E+03 -0.42024407296E+03  0.62641072652E+03  0.15294330000E+03 0.  0.
<mgrwt>
<rscale>  0 0.69266165E+03</rscale>
<asrwt>0</asrwt>
<pdfrwt beam="1">  1        2 0.20371286E+00 0.79133044E+03</pdfrwt>
<pdfrwt beam="2">  1       -2 0.10023654E+00 0.79133044E+03</pdfrwt>
<totfact> 0.13360456E+01</totfact>
</mgrwt>
</event>
<event>
 4    1  0.6502538E-008  0.8937703E+03  0.7818608E-02  0.9536107E-01
         -2   -1    0    0    0  501 -0.00000000000E+00  0.00000000000E+00  0.86092696154E+03  0.86092696154E+03  0.25500000000E-02 0.  1.
          2   -1    0    0  501    0  0.00000000000E+00 -0.00000000000E+00 -0.97598314810E+03  0.97598314811E+03  0.25500000000E-02 0. -1.
    8880023    1    1    2    0    0 -0.35138202188E+03 -0.49147304142E+03 -0.57463552853E+03  0.10625588326E+04  0.65864270000E+03 0.  0.
    8880022    1    1    2    0    0  0.35138202188E+03  0.49147304142E+03  0.45957934197E+03  0.77435127709E+03  0.15294330000E+03 0.  0.
<mgrwt>
<rscale>  0 0.81673331E+03</rscale>
<asrwt>0</asrwt>
<pdfrwt beam="1">  1        2 0.15015125E+00 0.89377026E+03</pdfrwt>
<pdfrwt beam="2">  1       -2 0.13245030E+00 0.89377026E+03</pdfrwt>
<totfact> 0.10830905E+01</totfact>
</mgrwt>
</event>
<event>
 4    1  0.6502538E-008  0.1047104E+04  0.7818608E-02  0.9322370E-01
         -2   -1    0    0    0  501 -0.00000000000E+00  0.00000000000E+00  0.14806899523E+04  0.14806899523E+04  0.25500000000E-02 0.  1.
          2   -1    0    0  501    0  0.00000000000E+00 -0.00000000000E+00 -0.79331237592E+03  0.79331237592E+03  0.25500000000E-02 0. -1.
    8880023    1    1    2    0    0 -0.79117821090E+03  0.19145358666E+03 -0.19356151521E+03  0.10648444505E+04  0.65864270000E+03 0.  0.
    8880022    1    1    2    0    0  0.79117821090E+03 -0.19145358666E+03  0.88093909157E+03  0.12091578778E+04  0.15294330000E+03 0.  0.
<mgrwt>
<rscale>  0 0.98749232E+03</rscale>
<asrwt>0</asrwt>
<pdfrwt beam="1">  1        2 0.12204806E+00 0.10471044E+04</pdfrwt>
<pdfrwt beam="2">  1       -2 0.22779846E+00 0.10471044E+04</pdfrwt>
<totfact> 0.30438696E+00</totfact>
</mgrwt>
</event>
<event>
 4    1  0.6502538E-008  0.9048287E+03  0.7818608E-02  0.9518324E-01
          2   -1    0    0  501    0  0.00000000000E+00  0.00000000000E+00  0.39627811367E+04  0.39627811367E+04  0.25500000000E-02 0. -1.
         -2   -1    0    0    0  501 -0.00000000000E+00 -0.00000000000E+00 -0.30010876155E+03  0.30010876156E+03  0.25500000000E-02 0.  1.
    8880023    1    1    2    0    0  0.59383591920E+03  0.17962082402E+03  0.34837418419E+04  0.35993294051E+04  0.65864270000E+03 0.  0.
    8880022    1    1    2    0    0 -0.59383591920E+03 -0.17962082402E+03  0.17893053330E+03  0.66356049319E+03  0.15294330000E+03 0.  0.
<mgrwt>
<rscale>  0 0.82946242E+03</rscale>
<asrwt>0</asrwt>
<pdfrwt beam="1">  1        2 0.60965866E+00 0.90482868E+03</pdfrwt>
<pdfrwt beam="2">  1       -2 0.46170577E-01 0.90482868E+03</pdfrwt>
<totfact> 0.17479893E+00</totfact>
</mgrwt>
</event>
<event>
 4    1  0.6502538E-008  0.9362927E+03  0.7818608E-02  0.9470116E-01
          2   -1    0    0  501    0  0.00000000000E+00  0.00000000000E+00  0.20032654370E+04  0.20032654370E+04  0.25500000000E-02 0. -1.
         -2   -1    0    0    0  501 -0.00000000000E+00 -0.00000000000E+00 -0.49312075782E+03  0.49312075783E+03  0.25500000000E-02 0.  1.
    8880023    1    1    2    0    0 -0.16176388315E+02  0.66526088760E+03  0.15517216506E+04  0.18123145453E+04  0.65864270000E+03 0. -1.
    8880022    1    1    2    0    0  0.16176388315E+02 -0.66526088760E+03 -0.41576971374E+02  0.68407164951E+03  0.15294330000E+03 0.  0.
<mgrwt>
<rscale>  0 0.86523325E+03</rscale>
<asrwt>0</asrwt>
<pdfrwt beam="1">  1        2 0.30819468E+00 0.93629265E+03</pdfrwt>
<pdfrwt beam="2">  1       -2 0.75864733E-01 0.93629265E+03</pdfrwt>
<totfact> 0.10459759E+01</totfact>
</mgrwt>
</event>
<event>
 4    1  0.6502538E-008  0.1000805E+04  0.7818608E-02  0.9380505E-01
          2   -1    0    0  501    0  0.00000000000E+00  0.00000000000E+00  0.27365760480E+04  0.27365760480E+04  0.25500000000E-02 0. -1.
         -2   -1    0    0    0  501 -0.00000000000E+00 -0.00000000000E+00 -0.61627756102E+03  0.61627756103E+03  0.25500000000E-02 0.  1.
    8880023    1    1    2    0    0 -0.16105589223E+03  0.73611243845E+03  0.23468046755E+04  0.25512943605E+04  0.65864270000E+03 0.  0.
    8880022    1    1    2    0    0  0.16105589223E+03 -0.73611243845E+03 -0.22650618856E+03  0.80155924855E+03  0.15294330000E+03 0.  0.
<mgrwt>
<rscale>  0 0.93697542E+03</rscale>
<asrwt>0</asrwt>
<pdfrwt beam="1">  1        2 0.42101171E+00 0.10008050E+04</pdfrwt>
<pdfrwt beam="2">  1       -2 0.94811931E-01 0.10008050E+04</pdfrwt>
<totfact> 0.23968461E+00</totfact>
</mgrwt>
</event>
<event>
 4    1  0.6502538E-008  0.1084747E+04  0.7818608E-02  0.9278231E-01
          2   -1    0    0  501    0  0.00000000000E+00  0.00000000000E+00  0.18237377761E+04  0.18237377761E+04  0.25500000000E-02 0. -1.
         -2   -1    0    0    0  501 -0.00000000000E+00 -0.00000000000E+00 -0.74971457699E+03  0.74971457700E+03  0.25500000000E-02 0.  1.
    8880023    1    1    2    0    0 -0.66372823563E+03  0.54984650040E+03  0.12763261333E+04  0.16750178953E+04  0.65864270000E+03 0.  0.
    8880022    1    1    2    0    0  0.66372823563E+03 -0.54984650040E+03 -0.20230293419E+03  0.89843445780E+03  0.15294330000E+03 0.  0.
<mgrwt>
<rscale>  0 0.10281188E+04</rscale>
<asrwt>0</asrwt>
<pdfrwt beam="1">  1        2 0.28057504E+00 0.10847472E+04</pdfrwt>
<pdfrwt beam="2">  1       -2 0.11534071E+00 0.10847472E+04</pdfrwt>
<totfact> 0.48399685E+00</totfact>
</mgrwt>
</event>
<event>
 4    1  0.1002733E-007  0.9079250E+03  0.7818608E-02  0.9513427E-01
          2   -1    0    0  501    0  0.00000000000E+00  0.00000000000E+00  0.24373567842E+04  0.24373567842E+04  0.25500000000E-02 0. -1.
         -2   -1    0    0    0  501 -0.00000000000E+00 -0.00000000000E+00 -0.14325932890E+04  0.14325932890E+04  0.25500000000E-02 0.  1.
    8880023    1    1    2    0    0 -0.61636360996E+03 -0.10302191103E+03  0.22731317238E+04  0.24477450141E+04  0.65864270000E+03 0. -1.
    8880022    1    1    2    0    0  0.61636360996E+03  0.10302191103E+03 -0.12683682286E+04  0.14222050591E+04  0.15294330000E+03 0.  0.
<mgrwt>
<rscale>  0 0.83301079E+03</rscale>
<asrwt>0</asrwt>
<pdfrwt beam="1">  1        2 0.37497796E+00 0.90792501E+03</pdfrwt>
<pdfrwt beam="2">  1       -2 0.22039897E+00 0.90792501E+03</pdfrwt>
<totfact> 0.38087934E-01</totfact>
</mgrwt>
</event>
<event>
 4    1  0.6502538E-008  0.9874577E+03  0.7818608E-02  0.9398154E-01
         -2   -1    0    0    0  501 -0.00000000000E+00  0.00000000000E+00  0.12217463112E+04  0.12217463112E+04  0.25500000000E-02 0.  1.
          2   -1    0    0  501    0  0.00000000000E+00 -0.00000000000E+00 -0.14123906750E+04  0.14123906750E+04  0.25500000000E-02 0. -1.
    8880023    1    1    2    0    0 -0.50256752961E+03 -0.53729730268E+03 -0.10842933412E+04  0.14665485908E+04  0.65864270000E+03 0.  0.
    8880022    1    1    2    0    0  0.50256752961E+03  0.53729730268E+03  0.89364897741E+03  0.11675883954E+04  0.15294330000E+03 0.  0.
<mgrwt>
<rscale>  0 0.92227767E+03</rscale>
<asrwt>0</asrwt>
<pdfrwt beam="1">  1        2 0.21729087E+00 0.98745771E+03</pdfrwt>
<pdfrwt beam="2">  1       -2 0.18796097E+00 0.98745771E+03</pdfrwt>
<totfact> 0.22639945E+00</totfact>
</mgrwt>
</event>
<event>
 4    1  0.6502538E-008  0.7371535E+03  0.7818608E-02  0.9868318E-01
          2   -1    0    0  501    0  0.00000000000E+00  0.00000000000E+00  0.71185922060E+03  0.71185922060E+03  0.25500000000E-02 0. -1.
         -2   -1    0    0    0  501 -0.00000000000E+00 -0.00000000000E+00 -0.16108143030E+04  0.16108143030E+04  0.25500000000E-02 0.  1.
    8880023    1    1    2    0    0  0.29490132847E+03 -0.15039366234E+03  0.49098216153E+03  0.88569675194E+03  0.65864270000E+03 0. -1.
    8880022    1    1    2    0    0 -0.29490132847E+03  0.15039366234E+03 -0.13899372439E+04  0.14369767716E+04  0.15294330000E+03 0.  0.
<mgrwt>
<rscale>  0 0.61821620E+03</rscale>
<asrwt>0</asrwt>
<pdfrwt beam="1">  1        2 0.10951680E+00 0.73715348E+03</pdfrwt>
<pdfrwt beam="2">  1       -2 0.24781758E+00 0.73715348E+03</pdfrwt>
<totfact> 0.27444406E+00</totfact>
</mgrwt>
</event>
<event>
 4    1  0.6502538E-008  0.2133716E+04  0.7818608E-02  0.8557435E-01
          2   -1    0    0  501    0  0.00000000000E+00  0.00000000000E+00  0.44150894590E+04  0.44150894590E+04  0.25500000000E-02 0. -1.
         -2   -1    0    0    0  501 -0.00000000000E+00 -0.00000000000E+00 -0.16643692812E+04  0.16643692812E+04  0.25500000000E-02 0.  1.
    8880023    1    1    2    0    0  0.79484165427E+03  0.18673940645E+04  0.33375195390E+04  0.39612852368E+04  0.65864270000E+03 0.  0.
    8880022    1    1    2    0    0 -0.79484165427E+03 -0.18673940645E+04 -0.58679936128E+03  0.21181735035E+04  0.15294330000E+03 0.  0.
<mgrwt>
<rscale>  0 0.21086670E+04</rscale>
<asrwt>0</asrwt>
<pdfrwt beam="1">  1        2 0.67924455E+00 0.21337160E+04</pdfrwt>
<pdfrwt beam="2">  1       -2 0.25605681E+00 0.21337160E+04</pdfrwt>
<totfact> 0.76940326E-03</totfact>
</mgrwt>
</event>
<event>
 4    1  0.6502538E-008  0.1013612E+04  0.7818608E-02  0.9363962E-01
         -2   -1    0    0    0  501 -0.00000000000E+00  0.00000000000E+00  0.93448072428E+03  0.93448072429E+03  0.25500000000E-02 0.  1.
          2   -1    0    0  501    0  0.00000000000E+00 -0.00000000000E+00 -0.21730771419E+04  0.21730771419E+04  0.25500000000E-02 0. -1.
    8880023    1    1    2    0    0 -0.46652943647E+03 -0.61314669289E+03 -0.18518000713E+04  0.21110595189E+04  0.65864270000E+03 0. -1.
    8880022    1    1    2    0    0  0.46652943647E+03  0.61314669289E+03  0.61320365371E+03  0.99649834724E+03  0.15294330000E+03 0.  0.
<mgrwt>
<rscale>  0 0.95101751E+03</rscale>
<asrwt>0</asrwt>
<pdfrwt beam="1">  1        2 0.33431956E+00 0.10136118E+04</pdfrwt>
<pdfrwt beam="2">  1       -2 0.14376627E+00 0.10136118E+04</pdfrwt>
<totfact> 0.17890270E+00</totfact>
</mgrwt>
</event>
<event>
 4    1  0.6502538E-008  0.9284316E+03  0.7818608E-02  0.9481850E-01
          2   -1    0    0  501    0  0.00000000000E+00  0.00000000000E+00  0.12913684463E+04  0.12913684463E+04  0.25500000000E-02 0. -1.
         -2   -1    0    0    0  501 -0.00000000000E+00 -0.00000000000E+00 -0.52708685313E+03  0.52708685314E+03  0.25500000000E-02 0.  1.
    8880023    1    1    2    0    0 -0.88276934818E+01  0.65429131585E+03  0.65837157721E+03  0.11381732707E+04  0.65864270000E+03 0. -1.
    8880022    1    1    2    0    0  0.88276934818E+01 -0.65429131585E+03  0.10591001599E+03  0.68028202878E+03  0.15294330000E+03 0.  0.
<mgrwt>
<rscale>  0 0.85635272E+03</rscale>
<asrwt>0</asrwt>
<pdfrwt beam="1">  1        2 0.19867207E+00 0.92843161E+03</pdfrwt>
<pdfrwt beam="2">  1       -2 0.81090285E-01 0.92843161E+03</pdfrwt>
<totfact> 0.22472279E+01</totfact>
</mgrwt>
</event>
<event>
 4    1  0.6502538E-008  0.1150757E+04  0.7818608E-02  0.9206543E-01
         -2   -1    0    0    0  501 -0.00000000000E+00  0.00000000000E+00  0.80345530215E+03  0.80345530215E+03  0.25500000000E-02 0.  1.
          2   -1    0    0  501    0  0.00000000000E+00 -0.00000000000E+00 -0.19488694434E+04  0.19488694434E+04  0.25500000000E-02 0. -1.
    8880023    1    1    2    0    0 -0.92014002308E+03 -0.20922013295E+03 -0.13508564486E+04  0.17745574313E+04  0.65864270000E+03 0.  1.
    8880022    1    1    2    0    0  0.92014002308E+03  0.20922013295E+03  0.20544230734E+03  0.97776731423E+03  0.15294330000E+03 0.  0.
<mgrwt>
<rscale>  0 0.10986146E+04</rscale>
<asrwt>0</asrwt>
<pdfrwt beam="1">  1        2 0.29982607E+00 0.11507567E+04</pdfrwt>
<pdfrwt beam="2">  1       -2 0.12360851E+00 0.11507567E+04</pdfrwt>
<totfact> 0.34499922E+00</totfact>
</mgrwt>
</event>
<event>
 4    1  0.6502538E-008  0.1059066E+04  0.7818608E-02  0.9308061E-01
         -2   -1    0    0    0  501 -0.00000000000E+00  0.00000000000E+00  0.27968682573E+03  0.27968682574E+03  0.25500000000E-02 0.  1.
          2   -1    0    0  501    0  0.00000000000E+00 -0.00000000000E+00 -0.39046048347E+04  0.39046048347E+04  0.25500000000E-02 0. -1.
    8880023    1    1    2    0    0  0.17634041269E+03  0.81037980938E+03 -0.28445320536E+04  0.30352898028E+04  0.65864270000E+03 0.  0.
    8880022    1    1    2    0    0 -0.17634041269E+03 -0.81037980938E+03 -0.78038595541E+03  0.11490018577E+04  0.15294330000E+03 0.  0.
<mgrwt>
<rscale>  0 0.10004412E+04</rscale>
<asrwt>0</asrwt>
<pdfrwt beam="1">  1        2 0.60070840E+00 0.10590664E+04</pdfrwt>
<pdfrwt beam="2">  1       -2 0.43028745E-01 0.10590664E+04</pdfrwt>
<totfact> 0.21727972E+00</totfact>
</mgrwt>
</event>
<event>
 4    1  0.6502538E-008  0.8858307E+03  0.7818608E-02  0.9549172E-01
         -2   -1    0    0    0  501 -0.00000000000E+00  0.00000000000E+00  0.76804832766E+03  0.76804832766E+03  0.25500000000E-02 0.  1.
          2   -1    0    0  501    0  0.00000000000E+00 -0.00000000000E+00 -0.21357054183E+04  0.21357054183E+04  0.25500000000E-02 0. -1.
    8880023    1    1    2    0    0  0.59210137757E+03 -0.17373998761E+02 -0.18977170161E+04  0.20942841203E+04  0.65864270000E+03 0. -1.
    8880022    1    1    2    0    0 -0.59210137757E+03  0.17373998761E+02  0.53005992550E+03  0.80946962561E+03  0.15294330000E+03 0.  0.
<mgrwt>
<rscale>  0 0.80753673E+03</rscale>
<asrwt>0</asrwt>
<pdfrwt beam="1">  1        2 0.32857006E+00 0.88583074E+03</pdfrwt>
<pdfrwt beam="2">  1       -2 0.11816128E+00 0.88583074E+03</pdfrwt>
<totfact> 0.31492838E+00</totfact>
</mgrwt>
</event>
<event>
 4    1  0.6502538E-008  0.8366047E+03  0.7818608E-02  0.9636616E-01
          2   -1    0    0  501    0  0.00000000000E+00  0.00000000000E+00  0.20490419630E+04  0.20490419630E+04  0.25500000000E-02 0. -1.
         -2   -1    0    0    0  501 -0.00000000000E+00 -0.00000000000E+00 -0.50910309258E+03  0.50910309259E+03  0.25500000000E-02 0.  1.
    8880023    1    1    2    0    0  0.51565142251E+03 -0.14169550138E+02  0.17816566608E+04  0.19683007466E+04  0.65864270000E+03 0.  0.
    8880022    1    1    2    0    0 -0.51565142251E+03  0.14169550138E+02 -0.24171779039E+03  0.58984430902E+03  0.15294330000E+03 0.  0.
<mgrwt>
<rscale>  0 0.74919382E+03</rscale>
<asrwt>0</asrwt>
<pdfrwt beam="1">  1        2 0.31523723E+00 0.83660467E+03</pdfrwt>
<pdfrwt beam="2">  1       -2 0.78323552E-01 0.83660467E+03</pdfrwt>
<totfact> 0.93100114E+00</totfact>
</mgrwt>
</event>
<event>
 4    1  0.6502538E-008  0.7245368E+03  0.7818608E-02  0.9907524E-01
          2   -1    0    0  501    0  0.00000000000E+00  0.00000000000E+00  0.12998976540E+04  0.12998976540E+04  0.25500000000E-02 0. -1.
         -2   -1    0    0    0  501 -0.00000000000E+00 -0.00000000000E+00 -0.66668941709E+03  0.66668941709E+03  0.25500000000E-02 0.  1.
    8880023    1    1    2    0    0  0.21708229187E+03  0.20980617960E+03  0.11438301368E+04  0.13539944397E+04  0.65864270000E+03 0.  0.
    8880022    1    1    2    0    0 -0.21708229187E+03 -0.20980617960E+03 -0.51062189990E+03  0.61259263146E+03  0.15294330000E+03 0.  0.
<mgrwt>
<rscale>  0 0.59898040E+03</rscale>
<asrwt>0</asrwt>
<pdfrwt beam="1">  1        2 0.19998425E+00 0.72453679E+03</pdfrwt>
<pdfrwt beam="2">  1       -2 0.10256760E+00 0.72453679E+03</pdfrwt>
<totfact> 0.13167978E+01</totfact>
</mgrwt>
</event>
<event>
 4    1  0.6502538E-008  0.1519452E+04  0.7818608E-02  0.8896021E-01
         -2   -1    0    0    0  501 -0.00000000000E+00  0.00000000000E+00  0.25342813715E+04  0.25342813715E+04  0.25500000000E-02 0.  1.
          2   -1    0    0  501    0  0.00000000000E+00 -0.00000000000E+00 -0.11497961624E+04  0.11497961624E+04  0.25500000000E-02 0. -1.
    8880023    1    1    2    0    0  0.11151609408E+04  0.79457011123E+03 -0.25696148892E+03  0.15410272543E+04  0.65864270000E+03 0. -1.
    8880022    1    1    2    0    0 -0.11151609408E+04 -0.79457011123E+03  0.16414466980E+04  0.21430502796E+04  0.15294330000E+03 0.  0.
<mgrwt>
<rscale>  0 0.14827278E+04</rscale>
<asrwt>0</asrwt>
<pdfrwt beam="1">  1        2 0.17689172E+00 0.15194525E+04</pdfrwt>
<pdfrwt beam="2">  1       -2 0.38988944E+00 0.15194525E+04</pdfrwt>
<totfact> 0.16581149E-01</totfact>
</mgrwt>
</event>
<event>
 4    1  0.6502538E-008  0.7143622E+03  0.7818608E-02  0.9942145E-01
          2   -1    0    0  501    0  0.00000000000E+00  0.00000000000E+00  0.14040558690E+04  0.14040558690E+04  0.25500000000E-02 0. -1.
         -2   -1    0    0    0  501 -0.00000000000E+00 -0.00000000000E+00 -0.36195648978E+03  0.36195648979E+03  0.25500000000E-02 0.  1.
    8880023    1    1    2    0    0  0.52981463322E+02  0.27147038948E+03  0.12122385899E+04  0.14070663854E+04  0.65864270000E+03 0. -1.
    8880022    1    1    2    0    0 -0.52981463322E+02 -0.27147038948E+03 -0.17013921064E+03  0.35894597342E+03  0.15294330000E+03 0.  0.
<mgrwt>
<rscale>  0 0.58261513E+03</rscale>
<asrwt>0</asrwt>
<pdfrwt beam="1">  1        2 0.21600860E+00 0.71436224E+03</pdfrwt>
<pdfrwt beam="2">  1       -2 0.55685613E-01 0.71436224E+03</pdfrwt>
<totfact> 0.44680490E+01</totfact>
</mgrwt>
</event>
<event>
 4    1  0.6502538E-008  0.1078865E+04  0.7818608E-02  0.9284961E-01
         -2   -1    0    0    0  501 -0.00000000000E+00  0.00000000000E+00  0.67417234436E+03  0.67417234437E+03  0.25500000000E-02 0.  1.
          2   -1    0    0  501    0  0.00000000000E+00 -0.00000000000E+00 -0.21805457746E+04  0.21805457746E+04  0.25500000000E-02 0. -1.
    8880023    1    1    2    0    0  0.83519595498E+03  0.18051681128E+03 -0.16534391917E+04  0.19742872054E+04  0.65864270000E+03 0.  0.
    8880022    1    1    2    0    0 -0.83519595498E+03 -0.18051681128E+03  0.14706576148E+03  0.88043091358E+03  0.15294330000E+03 0.  0.
<mgrwt>
<rscale>  0 0.10217927E+04</rscale>
<asrwt>0</asrwt>
<pdfrwt beam="1">  1        2 0.33546858E+00 0.10788646E+04</pdfrwt>
<pdfrwt beam="2">  1       -2 0.10371882E+00 0.10788646E+04</pdfrwt>
<totfact> 0.39812896E+00</totfact>
</mgrwt>
</event>
<event>
 4    1  0.6502538E-008  0.1365783E+04  0.7818608E-02  0.9010737E-01
         -2   -1    0    0    0  501 -0.00000000000E+00  0.00000000000E+00  0.67892282970E+03  0.67892282970E+03  0.25500000000E-02 0.  1.
          2   -1    0    0  501    0  0.00000000000E+00 -0.00000000000E+00 -0.33491969814E+04  0.33491969814E+04  0.25500000000E-02 0. -1.
    8880023    1    1    2    0    0  0.70177109947E+03  0.96905577539E+03 -0.24456505407E+04  0.28011727090E+04  0.65864270000E+03 0.  0.
    8880022    1    1    2    0    0 -0.70177109947E+03 -0.96905577539E+03 -0.22462361101E+03  0.12269471022E+04  0.15294330000E+03 0.  0.
<mgrwt>
<rscale>  0 0.13240120E+04</rscale>
<asrwt>0</asrwt>
<pdfrwt beam="1">  1        2 0.51526106E+00 0.13657826E+04</pdfrwt>
<pdfrwt beam="2">  1       -2 0.10444967E+00 0.13657826E+04</pdfrwt>
<totfact> 0.74899044E-01</totfact>
</mgrwt>
</event>
<event>
 4    1  0.6502538E-008  0.1100838E+04  0.7818608E-02  0.9260124E-01
         -2   -1    0    0    0  501 -0.00000000000E+00  0.00000000000E+00  0.15902718195E+04  0.15902718195E+04  0.25500000000E-02 0.  1.
          2   -1    0    0  501    0  0.00000000000E+00 -0.00000000000E+00 -0.86240622467E+03  0.86240622467E+03  0.25500000000E-02 0. -1.
    8880023    1    1    2    0    0  0.69841439904E+03 -0.53874966959E+03 -0.24796090448E+03  0.11284186704E+04  0.65864270000E+03 0.  0.
    8880022    1    1    2    0    0 -0.69841439904E+03  0.53874966959E+03  0.97582649933E+03  0.13242593738E+04  0.15294330000E+03 0.  0.
<mgrwt>
<rscale>  0 0.10453830E+04</rscale>
<asrwt>0</asrwt>
<pdfrwt beam="1">  1        2 0.13267788E+00 0.11008379E+04</pdfrwt>
<pdfrwt beam="2">  1       -2 0.24465720E+00 0.11008379E+04</pdfrwt>
<totfact> 0.21253831E+00</totfact>
</mgrwt>
</event>
<event>
 4    1  0.6502538E-008  0.7392224E+03  0.7818608E-02  0.9862218E-01
          2   -1    0    0  501    0  0.00000000000E+00  0.00000000000E+00  0.31270383015E+04  0.31270383015E+04  0.25500000000E-02 0. -1.
         -2   -1    0    0    0  501 -0.00000000000E+00 -0.00000000000E+00 -0.55236948623E+03  0.55236948624E+03  0.25500000000E-02 0.  1.
    8880023    1    1    2    0    0  0.25578744409E+03  0.21728408785E+03  0.30154138788E+04  0.31047013798E+04  0.65864270000E+03 0. -1.
    8880022    1    1    2    0    0 -0.25578744409E+03 -0.21728408785E+03 -0.44074506345E+03  0.57470640796E+03  0.15294330000E+03 0.  0.
<mgrwt>
<rscale>  0 0.62127830E+03</rscale>
<asrwt>0</asrwt>
<pdfrwt beam="1">  1        2 0.48108282E+00 0.73922243E+03</pdfrwt>
<pdfrwt beam="2">  1       -2 0.84979921E-01 0.73922243E+03</pdfrwt>
<totfact> 0.18736836E+00</totfact>
</mgrwt>
</event>
<event>
 4    1  0.6502538E-008  0.7019603E+03  0.7818608E-02  0.9989164E-01
          2   -1    0    0  501    0  0.00000000000E+00  0.00000000000E+00  0.17321799090E+04  0.17321799090E+04  0.25500000000E-02 0. -1.
         -2   -1    0    0    0  501 -0.00000000000E+00 -0.00000000000E+00 -0.28870164575E+03  0.28870164577E+03  0.25500000000E-02 0.  1.
    8880023    1    1    2    0    0  0.21431495687E+03 -0.11404913992E+03  0.15604155903E+04  0.17110362731E+04  0.65864270000E+03 0.  0.
    8880022    1    1    2    0    0 -0.21431495687E+03  0.11404913992E+03 -0.11693732712E+03  0.30984528163E+03  0.15294330000E+03 0.  0.
<mgrwt>
<rscale>  0 0.56127931E+03</rscale>
<asrwt>0</asrwt>
<pdfrwt beam="1">  1        2 0.26648921E+00 0.70196034E+03</pdfrwt>
<pdfrwt beam="2">  1       -2 0.44415638E-01 0.70196034E+03</pdfrwt>
<totfact> 0.46662136E+01</totfact>
</mgrwt>
</event>
<event>
 4    1  0.7114538E-008  0.1138642E+04  0.7818608E-02  0.9219205E-01
          2   -1    0    0  501    0  0.00000000000E+00  0.00000000000E+00  0.15706988303E+04  0.15706988303E+04  0.25500000000E-02 0. -1.
         -2   -1    0    0    0  501 -0.00000000000E+00 -0.00000000000E+00 -0.23829205057E+04  0.23829205057E+04  0.25500000000E-02 0.  1.
    8880023    1    1    2    0    0 -0.46012927493E+03 -0.80683179867E+03  0.12474869984E+04  0.16890028177E+04  0.65864270000E+03 0.  0.
    8880022    1    1    2    0    0  0.46012927493E+03  0.80683179867E+03 -0.20597086737E+04  0.22646165182E+04  0.15294330000E+03 0.  0.
<mgrwt>
<rscale>  0 0.10857383E+04</rscale>
<asrwt>0</asrwt>
<pdfrwt beam="1">  1        2 0.24164597E+00 0.11386425E+04</pdfrwt>
<pdfrwt beam="2">  1       -2 0.36660316E+00 0.11386425E+04</pdfrwt>
<totfact> 0.14011264E-01</totfact>
</mgrwt>
</event>
<event>
 4    1  0.6502538E-008  0.7071173E+03  0.7818608E-02  0.9968866E-01
         -2   -1    0    0    0  501 -0.00000000000E+00  0.00000000000E+00  0.25017202601E+03  0.25017202602E+03  0.25500000000E-02 0.  1.
          2   -1    0    0  501    0  0.00000000000E+00 -0.00000000000E+00 -0.10487383096E+04  0.10487383096E+04  0.25500000000E-02 0. -1.
    8880023    1    1    2    0    0 -0.13019025080E+03  0.22193492514E+03 -0.66659012592E+03  0.97178043541E+03  0.65864270000E+03 0.  0.
    8880022    1    1    2    0    0  0.13019025080E+03 -0.22193492514E+03 -0.13197615764E+03  0.32712990020E+03  0.15294330000E+03 0. -1.
<mgrwt>
<rscale>  0 0.57036756E+03</rscale>
<asrwt>0</asrwt>
<pdfrwt beam="1">  1        2 0.16134435E+00 0.70711726E+03</pdfrwt>
<pdfrwt beam="2">  1       -2 0.38488004E-01 0.70711726E+03</pdfrwt>
<totfact> 0.15176207E+02</totfact>
</mgrwt>
</event>
<event>
 4    1  0.6502538E-008  0.6613231E+03  0.7818608E-02  0.1022840E+00
          2   -1    0    0  501    0  0.00000000000E+00  0.00000000000E+00  0.10071631715E+04  0.10071631715E+04  0.25500000000E-02 0. -1.
         -2   -1    0    0    0  501 -0.00000000000E+00 -0.00000000000E+00 -0.35591740889E+03  0.35591740890E+03  0.25500000000E-02 0.  1.
    8880023    1    1    2    0    0 -0.40655771041E+02 -0.43417932392E+02  0.86799231196E+03  0.10912189828E+04  0.65864270000E+03 0. -1.
    8880022    1    1    2    0    0  0.40655771041E+02  0.43417932392E+02 -0.21674654935E+03  0.27186159758E+03  0.15294330000E+03 0.  0.
<mgrwt>
<rscale>  0 0.46675515E+03</rscale>
<asrwt>0</asrwt>
<pdfrwt beam="1">  1        2 0.15494818E+00 0.66132308E+03</pdfrwt>
<pdfrwt beam="2">  1       -2 0.54756525E-01 0.66132308E+03</pdfrwt>
<totfact> 0.79917578E+01</totfact>
</mgrwt>
</event>
<event>
 4    1  0.6502538E-008  0.7640813E+03  0.7818608E-02  0.9794654E-01
         -2   -1    0    0    0  501 -0.00000000000E+00  0.00000000000E+00  0.51063579718E+03  0.51063579718E+03  0.25500000000E-02 0.  1.
          2   -1    0    0  501    0  0.00000000000E+00 -0.00000000000E+00 -0.83146082340E+03  0.83146082341E+03  0.25500000000E-02 0. -1.
    8880023    1    1    2    0    0  0.10047263192E+03  0.37405251444E+03  0.74768700796E+02  0.76773081103E+03  0.65864270000E+03 0.  1.
    8880022    1    1    2    0    0 -0.10047263192E+03 -0.37405251444E+03 -0.39559372702E+03  0.57436580956E+03  0.15294330000E+03 0.  0.
<mgrwt>
<rscale>  0 0.65650244E+03</rscale>
<asrwt>0</asrwt>
<pdfrwt beam="1">  1        2 0.12791705E+00 0.76408130E+03</pdfrwt>
<pdfrwt beam="2">  1       -2 0.78559353E-01 0.76408130E+03</pdfrwt>
<totfact> 0.47697225E+01</totfact>
</mgrwt>
</event>
<event>
 4    1  0.6502538E-008  0.7438761E+03  0.7818608E-02  0.9848797E-01
         -2   -1    0    0    0  501 -0.00000000000E+00  0.00000000000E+00  0.58389108908E+03  0.58389108909E+03  0.25500000000E-02 0.  1.
          2   -1    0    0  501    0  0.00000000000E+00 -0.00000000000E+00 -0.19339013688E+04  0.19339013688E+04  0.25500000000E-02 0. -1.
    8880023    1    1    2    0    0  0.23933892881E+03 -0.24951606897E+03 -0.17895664327E+04  0.19380143485E+04  0.65864270000E+03 0. -1.
    8880022    1    1    2    0    0 -0.23933892881E+03  0.24951606897E+03  0.43955615300E+03  0.57977810942E+03  0.15294330000E+03 0.  0.
<mgrwt>
<rscale>  0 0.62808297E+03</rscale>
<asrwt>0</asrwt>
<pdfrwt beam="1">  1        2 0.29752328E+00 0.74387606E+03</pdfrwt>
<pdfrwt beam="2">  1       -2 0.89829400E-01 0.74387606E+03</pdfrwt>
<totfact> 0.79884267E+00</totfact>
</mgrwt>
</event>
<event>
 4    1  0.6502538E-008  0.8151021E+03  0.7818608E-02  0.9679046E-01
         -2   -1    0    0    0  501 -0.00000000000E+00  0.00000000000E+00  0.19689905760E+04  0.19689905760E+04  0.25500000000E-02 0.  1.
          2   -1    0    0  501    0  0.00000000000E+00 -0.00000000000E+00 -0.75687743084E+03  0.75687743085E+03  0.25500000000E-02 0. -1.
    8880023    1    1    2    0    0  0.20403866474E+03  0.43468312644E+03 -0.48977558360E+03  0.95093192484E+03  0.65864270000E+03 0.  0.
    8880022    1    1    2    0    0 -0.20403866474E+03 -0.43468312644E+03  0.17018887288E+04  0.17749360820E+04  0.15294330000E+03 0.  0.
<mgrwt>
<rscale>  0 0.72278214E+03</rscale>
<asrwt>0</asrwt>
<pdfrwt beam="1">  1        2 0.11644268E+00 0.81510208E+03</pdfrwt>
<pdfrwt beam="2">  1       -2 0.30292162E+00 0.81510208E+03</pdfrwt>
<totfact> 0.11674088E+00</totfact>
</mgrwt>
</event>
<event>
 4    1  0.6502538E-008  0.7823036E+03  0.7818608E-02  0.9750453E-01
          2   -1    0    0  501    0  0.00000000000E+00  0.00000000000E+00  0.19816112159E+04  0.19816112159E+04  0.25500000000E-02 0. -1.
         -2   -1    0    0    0  501 -0.00000000000E+00 -0.00000000000E+00 -0.11736945915E+04  0.11736945915E+04  0.25500000000E-02 0.  1.
    8880023    1    1    2    0    0 -0.26673178732E+03  0.32717417113E+03  0.18565272926E+04  0.20146197108E+04  0.65864270000E+03 0. -1.
    8880022    1    1    2    0    0  0.26673178732E+03 -0.32717417113E+03 -0.10486106682E+04  0.11406860967E+04  0.15294330000E+03 0.  0.
<mgrwt>
<rscale>  0 0.68090663E+03</rscale>
<asrwt>0</asrwt>
<pdfrwt beam="1">  1        2 0.30486326E+00 0.78230364E+03</pdfrwt>
<pdfrwt beam="2">  1       -2 0.18056840E+00 0.78230364E+03</pdfrwt>
<totfact> 0.12711510E+00</totfact>
</mgrwt>
</event>
<event>
 4    1  0.6502538E-008  0.7226077E+03  0.7818608E-02  0.9913859E-01
         -2   -1    0    0    0  501 -0.00000000000E+00  0.00000000000E+00  0.42301933314E+03  0.42301933315E+03  0.25500000000E-02 0.  1.
          2   -1    0    0  501    0  0.00000000000E+00 -0.00000000000E+00 -0.81190816277E+03  0.81190816277E+03  0.25500000000E-02 0. -1.
    8880023    1    1    2    0    0  0.29639484430E+03  0.22400074637E+02 -0.50441537853E+03  0.88124726805E+03  0.65864270000E+03 0. -1.
    8880022    1    1    2    0    0 -0.29639484430E+03 -0.22400074637E+02  0.11552654891E+03  0.35368022787E+03  0.15294330000E+03 0.  0.
<mgrwt>
<rscale>  0 0.59594287E+03</rscale>
<asrwt>0</asrwt>
<pdfrwt beam="1">  1        2 0.12490895E+00 0.72260769E+03</pdfrwt>
<pdfrwt beam="2">  1       -2 0.65079898E-01 0.72260769E+03</pdfrwt>
<totfact> 0.74649542E+01</totfact>
</mgrwt>
</event>
<event>
 4    1  0.6502538E-008  0.6978471E+03  0.7818608E-02  0.1000625E+00
         -2   -1    0    0    0  501 -0.00000000000E+00  0.00000000000E+00  0.69760400381E+03  0.69760400382E+03  0.25500000000E-02 0.  1.
          2   -1    0    0  501    0  0.00000000000E+00 -0.00000000000E+00 -0.21299881945E+04  0.21299881945E+04  0.25500000000E-02 0. -1.
    8880023    1    1    2    0    0  0.22414095420E+03  0.54232955262E+02 -0.20420865547E+04  0.21580333834E+04  0.65864270000E+03 0. -1.
    8880022    1    1    2    0    0 -0.22414095420E+03 -0.54232955262E+02  0.60970236406E+03  0.66955881485E+03  0.15294330000E+03 0.  0.
<mgrwt>
<rscale>  0 0.55376944E+03</rscale>
<asrwt>0</asrwt>
<pdfrwt beam="1">  1        2 0.32769049E+00 0.69784711E+03</pdfrwt>
<pdfrwt beam="2">  1       -2 0.10732369E+00 0.69784711E+03</pdfrwt>
<totfact> 0.41367989E+00</totfact>
</mgrwt>
</event>
<event>
 4    1  0.6502538E-008  0.2115311E+04  0.7818608E-02  0.8565650E-01
         -2   -1    0    0    0  501 -0.00000000000E+00  0.00000000000E+00  0.24510858292E+04  0.24510858292E+04  0.25500000000E-02 0.  1.
          2   -1    0    0  501    0  0.00000000000E+00 -0.00000000000E+00 -0.18547620730E+04  0.18547620730E+04  0.25500000000E-02 0. -1.
    8880023    1    1    2    0    0  0.19291575116E+04  0.56487494152E+03  0.83839141649E+03  0.22753994765E+04  0.65864270000E+03 0.  0.
    8880022    1    1    2    0    0 -0.19291575116E+04 -0.56487494152E+03 -0.24206766026E+03  0.20304484256E+04  0.15294330000E+03 0.  0.
<mgrwt>
<rscale>  0 0.20900256E+04</rscale>
<asrwt>0</asrwt>
<pdfrwt beam="1">  1        2 0.28534801E+00 0.21153115E+04</pdfrwt>
<pdfrwt beam="2">  1       -2 0.37709013E+00 0.21153115E+04</pdfrwt>
<totfact> 0.73994041E-02</totfact>
</mgrwt>
</event>
<event>
 4    1  0.6502538E-008  0.7739209E+03  0.7818608E-02  0.9770315E-01
         -2   -1    0    0    0  501 -0.00000000000E+00  0.00000000000E+00  0.72414977432E+03  0.72414977432E+03  0.25500000000E-02 0.  1.
          2   -1    0    0  501    0  0.00000000000E+00 -0.00000000000E+00 -0.17499325709E+04  0.17499325709E+04  0.25500000000E-02 0. -1.
    8880023    1    1    2    0    0 -0.31668891207E+03 -0.25465968863E+03 -0.15863219151E+04  0.17650413164E+04  0.65864270000E+03 0. -1.
    8880022    1    1    2    0    0  0.31668891207E+03  0.25465968863E+03  0.56053911856E+03  0.70904102878E+03  0.15294330000E+03 0.  0.
<mgrwt>
<rscale>  0 0.66980205E+03</rscale>
<asrwt>0</asrwt>
<pdfrwt beam="1">  1        2 0.26922039E+00 0.77392095E+03</pdfrwt>
<pdfrwt beam="2">  1       -2 0.11140766E+00 0.77392095E+03</pdfrwt>
<totfact> 0.60156044E+00</totfact>
</mgrwt>
</event>
<event>
 4    1  0.6502538E-008  0.1833967E+04  0.7818608E-02  0.8703976E-01
          2   -1    0    0  501    0  0.00000000000E+00  0.00000000000E+00  0.56014204708E+04  0.56014204708E+04  0.25500000000E-02 0. -1.
         -2   -1    0    0    0  501 -0.00000000000E+00 -0.00000000000E+00 -0.93602558689E+03  0.93602558689E+03  0.25500000000E-02 0.  1.
    8880023    1    1    2    0    0  0.27443991380E+03  0.16894700275E+04  0.44405491536E+04  0.48043639779E+04  0.65864270000E+03 0.  0.
    8880022    1    1    2    0    0 -0.27443991380E+03 -0.16894700275E+04  0.22484573030E+03  0.17330820798E+04  0.15294330000E+03 0.  0.
<mgrwt>
<rscale>  0 0.18043757E+04</rscale>
<asrwt>0</asrwt>
<pdfrwt beam="1">  1        2 0.86175699E+00 0.18339674E+04</pdfrwt>
<pdfrwt beam="2">  1       -2 0.14400394E+00 0.18339674E+04</pdfrwt>
<totfact> 0.12124482E-03</totfact>
</mgrwt>
</event>
<event>
 4    1  0.6502538E-008  0.7086101E+03  0.7818608E-02  0.9963199E-01
         -2   -1    0    0    0  501 -0.00000000000E+00  0.00000000000E+00  0.10994965869E+04  0.10994965869E+04  0.25500000000E-02 0.  1.
          2   -1    0    0  501    0  0.00000000000E+00 -0.00000000000E+00 -0.95005504246E+03  0.95005504246E+03  0.25500000000E-02 0. -1.
    8880023    1    1    2    0    0  0.11342366038E+03  0.23548476638E+03 -0.79074659089E+03  0.10617948857E+04  0.65864270000E+03 0.  0.
    8880022    1    1    2    0    0 -0.11342366038E+03 -0.23548476638E+03  0.94018813533E+03  0.98775674372E+03  0.15294330000E+03 0.  1.
<mgrwt>
<rscale>  0 0.57293765E+03</rscale>
<asrwt>0</asrwt>
<pdfrwt beam="1">  1        2 0.14616231E+00 0.70861005E+03</pdfrwt>
<pdfrwt beam="2">  1       -2 0.16915332E+00 0.70861005E+03</pdfrwt>
<totfact> 0.60149408E+00</totfact>
</mgrwt>
</event>
<event>
 4    1  0.6502538E-008  0.9521942E+03  0.7818608E-02  0.9446964E-01
         -2   -1    0    0    0  501 -0.00000000000E+00  0.00000000000E+00  0.45195434836E+03  0.45195434837E+03  0.25500000000E-02 0.  1.
          2   -1    0    0  501    0  0.00000000000E+00 -0.00000000000E+00 -0.46475815113E+04  0.46475815113E+04  0.25500000000E-02 0. -1.
    8880023    1    1    2    0    0  0.59037033880E+03 -0.35259948642E+03 -0.42849218770E+04  0.43894452079E+04  0.65864270000E+03 0. -1.
    8880022    1    1    2    0    0 -0.59037033880E+03  0.35259948642E+03  0.89294714069E+02  0.71009065177E+03  0.15294330000E+03 0.  0.
<mgrwt>
<rscale>  0 0.88309469E+03</rscale>
<asrwt>0</asrwt>
<pdfrwt beam="1">  1        2 0.71501251E+00 0.95219417E+03</pdfrwt>
<pdfrwt beam="2">  1       -2 0.69531442E-01 0.95219417E+03</pdfrwt>
<totfact> 0.18015548E-01</totfact>
</mgrwt>
</event>
<event>
 4    1  0.6502538E-008  0.6909438E+03  0.7818608E-02  0.1003707E+00
         -2   -1    0    0    0  501 -0.00000000000E+00  0.00000000000E+00  0.28746805476E+03  0.28746805477E+03  0.25500000000E-02 0.  1.
          2   -1    0    0  501    0  0.00000000000E+00 -0.00000000000E+00 -0.20921184746E+04  0.20921184746E+04  0.25500000000E-02 0. -1.
    8880023    1    1    2    0    0  0.70660294769E+02  0.19646953947E+03 -0.19596618797E+04  0.20779023188E+04  0.65864270000E+03 0. -1.
    8880022    1    1    2    0    0 -0.70660294769E+02 -0.19646953947E+03  0.15501145991E+03  0.30168421058E+03  0.15294330000E+03 0.  0.
<mgrwt>
<rscale>  0 0.54054156E+03</rscale>
<asrwt>0</asrwt>
<pdfrwt beam="1">  1        2 0.32186437E+00 0.69094382E+03</pdfrwt>
<pdfrwt beam="2">  1       -2 0.44225856E-01 0.69094382E+03</pdfrwt>
<totfact> 0.30016740E+01</totfact>
</mgrwt>
</event>
<event>
 4    1  0.6502538E-008  0.6950814E+03  0.7818608E-02  0.1001825E+00
          2   -1    0    0  501    0  0.00000000000E+00  0.00000000000E+00  0.12673701834E+04  0.12673701834E+04  0.25500000000E-02 0. -1.
         -2   -1    0    0    0  501 -0.00000000000E+00 -0.00000000000E+00 -0.31050060901E+03  0.31050060902E+03  0.25500000000E-02 0.  1.
    8880023    1    1    2    0    0  0.74882880177E+01 -0.22197267667E+03  0.10776695008E+04  0.12823843818E+04  0.65864270000E+03 0. -1.
    8880022    1    1    2    0    0 -0.74882880177E+01  0.22197267667E+03 -0.12079992634E+03  0.29548641062E+03  0.15294330000E+03 0.  0.
<mgrwt>
<rscale>  0 0.54857143E+03</rscale>
<asrwt>0</asrwt>
<pdfrwt beam="1">  1        2 0.19498002E+00 0.69508140E+03</pdfrwt>
<pdfrwt beam="2">  1       -2 0.47769326E-01 0.69508140E+03</pdfrwt>
<totfact> 0.73342804E+01</totfact>
</mgrwt>
</event>
<event>
 4    1  0.6502538E-008  0.7160269E+03  0.7818608E-02  0.9936266E-01
         -2   -1    0    0    0  501 -0.00000000000E+00  0.00000000000E+00  0.50480072200E+03  0.50480072200E+03  0.25500000000E-02 0.  1.
          2   -1    0    0  501    0  0.00000000000E+00 -0.00000000000E+00 -0.15758695544E+04  0.15758695544E+04  0.25500000000E-02 0. -1.
    8880023    1    1    2    0    0 -0.26982601815E+03  0.77962951676E+02 -0.14304178603E+04  0.15996217563E+04  0.65864270000E+03 0. -1.
    8880022    1    1    2    0    0  0.26982601815E+03 -0.77962951676E+02  0.35934902785E+03  0.48104852015E+03  0.15294330000E+03 0.  0.
<mgrwt>
<rscale>  0 0.58535414E+03</rscale>
<asrwt>0</asrwt>
<pdfrwt beam="1">  1        2 0.24244147E+00 0.71602689E+03</pdfrwt>
<pdfrwt beam="2">  1       -2 0.77661650E-01 0.71602689E+03</pdfrwt>
<totfact> 0.17508682E+01</totfact>
</mgrwt>
</event>
<event>
 4    1  0.9376127E-008  0.1373425E+04  0.7818608E-02  0.9004613E-01
          2   -1    0    0  501    0  0.00000000000E+00  0.00000000000E+00  0.21827131620E+04  0.21827131620E+04  0.25500000000E-02 0. -1.
         -2   -1    0    0    0  501 -0.00000000000E+00 -0.00000000000E+00 -0.18043803133E+04  0.18043803133E+04  0.25500000000E-02 0.  1.
    8880023    1    1    2    0    0 -0.10852010140E+04  0.52423624653E+03  0.17042489368E+04  0.21887803745E+04  0.65864270000E+03 0.  0.
    8880022    1    1    2    0    0  0.10852010140E+04 -0.52423624653E+03 -0.13259160881E+04  0.17983131008E+04  0.15294330000E+03 0.  0.
<mgrwt>
<rscale>  0 0.13319406E+04</rscale>
<asrwt>0</asrwt>
<pdfrwt beam="1">  1        2 0.33580202E+00 0.13734246E+04</pdfrwt>
<pdfrwt beam="2">  1       -2 0.27759697E+00 0.13734246E+04</pdfrwt>
<totfact> 0.21909985E-01</totfact>
</mgrwt>
</event>
<event>
 4    1  0.6502538E-008  0.8868908E+03  0.7818608E-02  0.9547412E-01
          2   -1    0    0  501    0  0.00000000000E+00  0.00000000000E+00  0.12657758046E+04  0.12657758046E+04  0.25500000000E-02 0. -1.
         -2   -1    0    0    0  501 -0.00000000000E+00 -0.00000000000E+00 -0.11959783787E+04  0.11959783787E+04  0.25500000000E-02 0.  1.
    8880023    1    1    2    0    0 -0.48075966891E+03 -0.34876241925E+03  0.10068952245E+04  0.13417947994E+04  0.65864270000E+03 0.  0.
    8880022    1    1    2    0    0  0.48075966891E+03  0.34876241925E+03 -0.93709779865E+03  0.11199593839E+04  0.15294330000E+03 0.  0.
<mgrwt>
<rscale>  0 0.80876755E+03</rscale>
<asrwt>0</asrwt>
<pdfrwt beam="1">  1        2 0.19473474E+00 0.88689080E+03</pdfrwt>
<pdfrwt beam="2">  1       -2 0.18399667E+00 0.88689080E+03</pdfrwt>
<totfact> 0.29638025E+00</totfact>
</mgrwt>
</event>
<event>
 4    1  0.6502538E-008  0.7663856E+03  0.7818608E-02  0.9788848E-01
          2   -1    0    0  501    0  0.00000000000E+00  0.00000000000E+00  0.14070576562E+04  0.14070576562E+04  0.25500000000E-02 0. -1.
         -2   -1    0    0    0  501 -0.00000000000E+00 -0.00000000000E+00 -0.54861264193E+03  0.54861264193E+03  0.25500000000E-02 0.  1.
    8880023    1    1    2    0    0 -0.13721278777E+01  0.39183512360E+03  0.11931795453E+04  0.14181058777E+04  0.65864270000E+03 0. -1.
    8880022    1    1    2    0    0  0.13721278777E+01 -0.39183512360E+03 -0.33473453103E+03  0.53756442042E+03  0.15294330000E+03 0.  0.
<mgrwt>
<rscale>  0 0.65964482E+03</rscale>
<asrwt>0</asrwt>
<pdfrwt beam="1">  1        2 0.21647041E+00 0.76638558E+03</pdfrwt>
<pdfrwt beam="2">  1       -2 0.84401945E-01 0.76638558E+03</pdfrwt>
<totfact> 0.17913589E+01</totfact>
</mgrwt>
</event>
<event>
 4    1  0.6502538E-008  0.1042760E+04  0.7818608E-02  0.9327635E-01
          2   -1    0    0  501    0  0.00000000000E+00  0.00000000000E+00  0.28659610167E+04  0.28659610168E+04  0.25500000000E-02 0. -1.
         -2   -1    0    0    0  501 -0.00000000000E+00 -0.00000000000E+00 -0.42073120710E+03  0.42073120710E+03  0.25500000000E-02 0.  1.
    8880023    1    1    2    0    0 -0.61887837417E+03 -0.52012371939E+03  0.46383964257E+03  0.11412697077E+04  0.65864270000E+03 0.  0.
    8880022    1    1    2    0    0  0.61887837417E+03  0.52012371939E+03  0.19813901671E+04  0.21454225161E+04  0.15294330000E+03 0.  0.
<mgrwt>
<rscale>  0 0.98278030E+03</rscale>
<asrwt>0</asrwt>
<pdfrwt beam="1">  1        2 0.44091709E+00 0.10427604E+04</pdfrwt>
<pdfrwt beam="2">  1       -2 0.64727876E-01 0.10427604E+04</pdfrwt>
<totfact> 0.47053929E+00</totfact>
</mgrwt>
</event>
<event>
 4    1  0.6502538E-008  0.6763497E+03  0.7818608E-02  0.1011469E+00
         -2   -1    0    0    0  501 -0.00000000000E+00  0.00000000000E+00  0.15586858263E+04  0.15586858263E+04  0.25500000000E-02 0.  1.
          2   -1    0    0  501    0  0.00000000000E+00 -0.00000000000E+00 -0.17039692787E+04  0.17039692787E+04  0.25500000000E-02 0. -1.
    8880023    1    1    2    0    0 -0.14702102379E+03  0.44983594213E+02 -0.16286577571E+04  0.17635121211E+04  0.65864270000E+03 0. -1.
    8880022    1    1    2    0    0  0.14702102379E+03 -0.44983594213E+02  0.14833743048E+04  0.14991429839E+04  0.15294330000E+03 0.  0.
<mgrwt>
<rscale>  0 0.50895075E+03</rscale>
<asrwt>0</asrwt>
<pdfrwt beam="1">  1        2 0.26214912E+00 0.67634970E+03</pdfrwt>
<pdfrwt beam="2">  1       -2 0.23979782E+00 0.67634970E+03</pdfrwt>
<totfact> 0.76940465E-01</totfact>
</mgrwt>
</event>
<event>
 4    1  0.6502538E-008  0.7735453E+03  0.7818608E-02  0.9771224E-01
          2   -1    0    0  501    0  0.00000000000E+00  0.00000000000E+00  0.10164096677E+04  0.10164096677E+04  0.25500000000E-02 0. -1.
         -2   -1    0    0    0  501 -0.00000000000E+00 -0.00000000000E+00 -0.89220816510E+03  0.89220816511E+03  0.25500000000E-02 0.  1.
    8880023    1    1    2    0    0 -0.47014927049E+02  0.40292884896E+03  0.79543901541E+03  0.11095474276E+04  0.65864270000E+03 0. -1.
    8880022    1    1    2    0    0  0.47014927049E+02 -0.40292884896E+03 -0.67123751285E+03  0.79907040513E+03  0.15294330000E+03 0.  0.
<mgrwt>
<rscale>  0 0.66929975E+03</rscale>
<asrwt>0</asrwt>
<pdfrwt beam="1">  1        2 0.15637072E+00 0.77354526E+03</pdfrwt>
<pdfrwt beam="2">  1       -2 0.13726280E+00 0.77354526E+03</pdfrwt>
<totfact> 0.94335837E+00</totfact>
</mgrwt>
</event>
<event>
 4    1  0.6502538E-008  0.1176947E+04  0.7818608E-02  0.9179864E-01
          2   -1    0    0  501    0  0.00000000000E+00  0.00000000000E+00  0.15128115003E+04  0.15128115003E+04  0.25500000000E-02 0. -1.
         -2   -1    0    0    0  501 -0.00000000000E+00 -0.00000000000E+00 -0.16514429392E+04  0.16514429392E+04  0.25500000000E-02 0.  1.
    8880023    1    1    2    0    0  0.75750581784E+03 -0.61447476984E+03  0.10789604550E+04  0.15966715932E+04  0.65864270000E+03 0. -1.
    8880022    1    1    2    0    0 -0.75750581784E+03  0.61447476984E+03 -0.12175918940E+04  0.15675828463E+04  0.15294330000E+03 0.  0.
<mgrwt>
<rscale>  0 0.11263708E+04</rscale>
<asrwt>0</asrwt>
<pdfrwt beam="1">  1        2 0.23274023E+00 0.11769471E+04</pdfrwt>
<pdfrwt beam="2">  1       -2 0.25406814E+00 0.11769471E+04</pdfrwt>
<totfact> 0.73823657E-01</totfact>
</mgrwt>
</event>
<event>
 4    1  0.6502538E-008  0.1140294E+04  0.7818608E-02  0.9217466E-01
         -2   -1    0    0    0  501 -0.00000000000E+00  0.00000000000E+00  0.14822433830E+04  0.14822433830E+04  0.25500000000E-02 0.  1.
          2   -1    0    0  501    0  0.00000000000E+00 -0.00000000000E+00 -0.12272663035E+04  0.12272663035E+04  0.25500000000E-02 0. -1.
    8880023    1    1    2    0    0 -0.34748946955E+03  0.86354628886E+03 -0.72343103796E+03  0.13504161571E+04  0.65864270000E+03 0. -1.
    8880022    1    1    2    0    0  0.34748946955E+03 -0.86354628886E+03  0.97840811739E+03  0.13590935294E+04  0.15294330000E+03 0.  0.
<mgrwt>
<rscale>  0 0.10874956E+04</rscale>
<asrwt>0</asrwt>
<pdfrwt beam="1">  1        2 0.18881020E+00 0.11402944E+04</pdfrwt>
<pdfrwt beam="2">  1       -2 0.22803744E+00 0.11402944E+04</pdfrwt>
<totfact> 0.15691738E+00</totfact>
</mgrwt>
</event>
<event>
 4    1  0.6502538E-008  0.7304960E+03  0.7818608E-02  0.9888550E-01
         -2   -1    0    0    0  501 -0.00000000000E+00  0.00000000000E+00  0.27152863157E+04  0.27152863157E+04  0.25500000000E-02 0.  1.
          2   -1    0    0  501    0  0.00000000000E+00 -0.00000000000E+00 -0.41623143547E+03  0.41623143548E+03  0.25500000000E-02 0. -1.
    8880023    1    1    2    0    0  0.26856660257E+03 -0.16639185756E+03 -0.72539395853E+02  0.73408885054E+03  0.65864270000E+03 0. -1.
    8880022    1    1    2    0    0 -0.26856660257E+03  0.16639185756E+03  0.23715942761E+04  0.23974289006E+04  0.15294330000E+03 0.  0.
<mgrwt>
<rscale>  0 0.60819431E+03</rscale>
<asrwt>0</asrwt>
<pdfrwt beam="1">  1        2 0.64035606E-01 0.73049605E+03</pdfrwt>
<pdfrwt beam="2">  1       -2 0.41773635E+00 0.73049605E+03</pdfrwt>
<totfact> 0.46123698E-01</totfact>
</mgrwt>
</event>
<event>
 4    1  0.6502538E-008  0.7036900E+03  0.7818608E-02  0.9982225E-01
          2   -1    0    0  501    0  0.00000000000E+00  0.00000000000E+00  0.84275108244E+03  0.84275108244E+03  0.25500000000E-02 0. -1.
         -2   -1    0    0    0  501 -0.00000000000E+00 -0.00000000000E+00 -0.38470132144E+03  0.38470132145E+03  0.25500000000E-02 0.  1.
    8880023    1    1    2    0    0  0.23411286226E+03 -0.80997329942E+02  0.57989798439E+03  0.91184498589E+03  0.65864270000E+03 0. -1.
    8880022    1    1    2    0    0 -0.23411286226E+03  0.80997329942E+02 -0.12184822339E+03  0.31560741799E+03  0.15294330000E+03 0.  0.
<mgrwt>
<rscale>  0 0.56436565E+03</rscale>
<asrwt>0</asrwt>
<pdfrwt beam="1">  1        2 0.12965401E+00 0.70368999E+03</pdfrwt>
<pdfrwt beam="2">  1       -2 0.59184819E-01 0.70368999E+03</pdfrwt>
<totfact> 0.87010044E+01</totfact>
</mgrwt>
</event>
<event>
 4    1  0.6502538E-008  0.7359725E+03  0.7818608E-02  0.9871838E-01
         -2   -1    0    0    0  501 -0.00000000000E+00  0.00000000000E+00  0.56913309255E+03  0.56913309255E+03  0.25500000000E-02 0.  1.
          2   -1    0    0  501    0  0.00000000000E+00 -0.00000000000E+00 -0.93775299468E+03  0.93775299469E+03  0.25500000000E-02 0. -1.
    8880023    1    1    2    0    0  0.30508586974E+03 -0.12152325873E+03 -0.70015650686E+03  0.10158123009E+04  0.65864270000E+03 0. -1.
    8880022    1    1    2    0    0 -0.30508586974E+03  0.12152325873E+03  0.33153660472E+03  0.49107378632E+03  0.15294330000E+03 0.  0.
<mgrwt>
<rscale>  0 0.61645758E+03</rscale>
<asrwt>0</asrwt>
<pdfrwt beam="1">  1        2 0.14426969E+00 0.73597248E+03</pdfrwt>
<pdfrwt beam="2">  1       -2 0.87558937E-01 0.73597248E+03</pdfrwt>
<totfact> 0.31664756E+01</totfact>
</mgrwt>
</event>
<event>
 4    1  0.6502538E-008  0.7984733E+03  0.7818608E-02  0.9714107E-01
          2   -1    0    0  501    0  0.00000000000E+00  0.00000000000E+00  0.21548497900E+04  0.21548497900E+04  0.25500000000E-02 0. -1.
         -2   -1    0    0    0  501 -0.00000000000E+00 -0.00000000000E+00 -0.60222242968E+03  0.60222242968E+03  0.25500000000E-02 0.  1.
    8880023    1    1    2    0    0 -0.37213771069E+03 -0.25546595775E+03  0.19686691378E+04  0.21244335037E+04  0.65864270000E+03 0. -1.
    8880022    1    1    2    0    0  0.37213771069E+03  0.25546595775E+03 -0.41604177750E+03  0.63263871595E+03  0.15294330000E+03 0.  0.
<mgrwt>
<rscale>  0 0.70183047E+03</rscale>
<asrwt>0</asrwt>
<pdfrwt beam="1">  1        2 0.33151535E+00 0.79847325E+03</pdfrwt>
<pdfrwt beam="2">  1       -2 0.92649604E-01 0.79847325E+03</pdfrwt>
<totfact> 0.55813878E+00</totfact>
</mgrwt>
</event>
<event>
 4    1  0.6502538E-008  0.1001032E+04  0.7818608E-02  0.9380208E-01
          2   -1    0    0  501    0  0.00000000000E+00  0.00000000000E+00  0.64249617731E+03  0.64249617731E+03  0.25500000000E-02 0. -1.
         -2   -1    0    0    0  501 -0.00000000000E+00 -0.00000000000E+00 -0.15953097816E+04  0.15953097816E+04  0.25500000000E-02 0.  1.
    8880023    1    1    2    0    0  0.15036336982E+03 -0.73867882622E+03  0.15517080395E+02  0.10011526044E+04  0.65864270000E+03 0.  0.
    8880022    1    1    2    0    0 -0.15036336982E+03  0.73867882622E+03 -0.96833068473E+03  0.12366533545E+04  0.15294330000E+03 0.  0.
<mgrwt>
<rscale>  0 0.93722515E+03</rscale>
<asrwt>0</asrwt>
<pdfrwt beam="1">  1        2 0.98845567E-01 0.10010323E+04</pdfrwt>
<pdfrwt beam="2">  1       -2 0.24543227E+00 0.10010323E+04</pdfrwt>
<totfact> 0.31210582E+00</totfact>
</mgrwt>
</event>
<event>
 4    1  0.6502538E-008  0.9308645E+03  0.7818608E-02  0.9478198E-01
         -2   -1    0    0    0  501 -0.00000000000E+00  0.00000000000E+00  0.13484085128E+04  0.13484085128E+04  0.25500000000E-02 0.  1.
          2   -1    0    0  501    0  0.00000000000E+00 -0.00000000000E+00 -0.16532857764E+04  0.16532857764E+04  0.25500000000E-02 0. -1.
    8880023    1    1    2    0    0  0.24120466351E+03  0.61197944062E+03 -0.14200581766E+04  0.16979617065E+04  0.65864270000E+03 0.  0.
    8880022    1    1    2    0    0 -0.24120466351E+03 -0.61197944062E+03  0.11151809130E+04  0.13037325827E+04  0.15294330000E+03 0.  0.
<mgrwt>
<rscale>  0 0.85910490E+03</rscale>
<asrwt>0</asrwt>
<pdfrwt beam="1">  1        2 0.25435166E+00 0.93086451E+03</pdfrwt>
<pdfrwt beam="2">  1       -2 0.20744746E+00 0.93086451E+03</pdfrwt>
<totfact> 0.12451343E+00</totfact>
</mgrwt>
</event>
<event>
 4    1  0.6502538E-008  0.8896377E+03  0.7818608E-02  0.9542875E-01
          2   -1    0    0  501    0  0.00000000000E+00  0.00000000000E+00  0.16481695799E+04  0.16481695799E+04  0.25500000000E-02 0. -1.
         -2   -1    0    0    0  501 -0.00000000000E+00 -0.00000000000E+00 -0.11387637983E+04  0.11387637983E+04  0.25500000000E-02 0.  1.
    8880023    1    1    2    0    0  0.49164406188E+03  0.34048652220E+03  0.14266611247E+04  0.16813141070E+04  0.65864270000E+03 0. -1.
    8880022    1    1    2    0    0 -0.49164406188E+03 -0.34048652220E+03 -0.91725534311E+03  0.11056192712E+04  0.15294330000E+03 0.  0.
<mgrwt>
<rscale>  0 0.81195266E+03</rscale>
<asrwt>0</asrwt>
<pdfrwt beam="1">  1        2 0.25356455E+00 0.88963766E+03</pdfrwt>
<pdfrwt beam="2">  1       -2 0.17519443E+00 0.88963766E+03</pdfrwt>
<totfact> 0.20715552E+00</totfact>
</mgrwt>
</event>
<event>
 4    1  0.6502538E-008  0.9742821E+03  0.7818608E-02  0.9416006E-01
         -2   -1    0    0    0  501 -0.00000000000E+00  0.00000000000E+00  0.41608179911E+03  0.41608179912E+03  0.25500000000E-02 0.  1.
          2   -1    0    0  501    0  0.00000000000E+00 -0.00000000000E+00 -0.19807506623E+04  0.19807506623E+04  0.25500000000E-02 0. -1.
    8880023    1    1    2    0    0 -0.63403613828E+03 -0.33676937642E+03 -0.12821151074E+04  0.16102933871E+04  0.65864270000E+03 0.  1.
    8880022    1    1    2    0    0  0.63403613828E+03  0.33676937642E+03 -0.28255375576E+03  0.78653907433E+03  0.15294330000E+03 0.  0.
<mgrwt>
<rscale>  0 0.90770079E+03</rscale>
<asrwt>0</asrwt>
<pdfrwt beam="1">  1        2 0.30473087E+00 0.97428212E+03</pdfrwt>
<pdfrwt beam="2">  1       -2 0.64012585E-01 0.97428212E+03</pdfrwt>
<totfact> 0.15541506E+01</totfact>
</mgrwt>
</event>
<event>
 4    1  0.6502538E-008  0.8116534E+03  0.7818608E-02  0.9686143E-01
         -2   -1    0    0    0  501 -0.00000000000E+00  0.00000000000E+00  0.12262325744E+04  0.12262325744E+04  0.25500000000E-02 0.  1.
          2   -1    0    0  501    0  0.00000000000E+00 -0.00000000000E+00 -0.15287195319E+04  0.15287195319E+04  0.25500000000E-02 0. -1.
    8880023    1    1    2    0    0 -0.16931241920E+02  0.47400881149E+03 -0.13611948880E+04  0.15848131592E+04  0.65864270000E+03 0. -1.
    8880022    1    1    2    0    0  0.16931241920E+02 -0.47400881149E+03  0.10587079305E+04  0.11701389470E+04  0.15294330000E+03 0.  0.
<mgrwt>
<rscale>  0 0.71847845E+03</rscale>
<asrwt>0</asrwt>
<pdfrwt beam="1">  1        2 0.23518762E+00 0.81165339E+03</pdfrwt>
<pdfrwt beam="2">  1       -2 0.18865116E+00 0.81165339E+03</pdfrwt>
<totfact> 0.19754460E+00</totfact>
</mgrwt>
</event>
<event>
 4    1  0.6502538E-008  0.8926896E+03  0.7818608E-02  0.9537871E-01
          2   -1    0    0  501    0  0.00000000000E+00  0.00000000000E+00  0.21915300970E+04  0.21915300970E+04  0.25500000000E-02 0. -1.
         -2   -1    0    0    0  501 -0.00000000000E+00 -0.00000000000E+00 -0.71709276581E+03  0.71709276582E+03  0.25500000000E-02 0.  1.
    8880023    1    1    2    0    0  0.39185119347E+03 -0.45775230438E+03  0.19376213703E+04  0.21333708798E+04  0.65864270000E+03 0. -1.
    8880022    1    1    2    0    0 -0.39185119347E+03  0.45775230438E+03 -0.46318403912E+03  0.77525198298E+03  0.15294330000E+03 0.  0.
<mgrwt>
<rscale>  0 0.81548448E+03</rscale>
<asrwt>0</asrwt>
<pdfrwt beam="1">  1        2 0.33715847E+00 0.89268961E+03</pdfrwt>
<pdfrwt beam="2">  1       -2 0.11032197E+00 0.89268961E+03</pdfrwt>
<totfact> 0.34657276E+00</totfact>
</mgrwt>
</event>
<event>
 4    1  0.6502538E-008  0.7510245E+03  0.7818608E-02  0.9828924E-01
         -2   -1    0    0    0  501 -0.00000000000E+00  0.00000000000E+00  0.75773101469E+03  0.75773101469E+03  0.25500000000E-02 0.  1.
          2   -1    0    0  501    0  0.00000000000E+00 -0.00000000000E+00 -0.29350220483E+04  0.29350220483E+04  0.25500000000E-02 0. -1.
    8880023    1    1    2    0    0 -0.22774790458E+03  0.27992581645E+03 -0.28318905741E+04  0.29297853165E+04  0.65864270000E+03 0. -1.
    8880022    1    1    2    0    0  0.22774790458E+03 -0.27992581645E+03  0.65459954050E+03  0.76296774650E+03  0.15294330000E+03 0.  0.
<mgrwt>
<rscale>  0 0.63833149E+03</rscale>
<asrwt>0</asrwt>
<pdfrwt beam="1">  1        2 0.45154185E+00 0.75102448E+03</pdfrwt>
<pdfrwt beam="2">  1       -2 0.11657400E+00 0.75102448E+03</pdfrwt>
<totfact> 0.11615950E+00</totfact>
</mgrwt>
</event>
<event>
 4    1  0.6502538E-008  0.7380853E+03  0.7818608E-02  0.9865560E-01
          2   -1    0    0  501    0  0.00000000000E+00  0.00000000000E+00  0.16793264879E+04  0.16793264879E+04  0.25500000000E-02 0. -1.
         -2   -1    0    0    0  501 -0.00000000000E+00 -0.00000000000E+00 -0.62359417290E+03  0.62359417290E+03  0.25500000000E-02 0.  1.
    8880023    1    1    2    0    0  0.31880441417E+03 -0.96557860782E+02  0.15328317640E+04  0.17012769022E+04  0.65864270000E+03 0. -1.
    8880022    1    1    2    0    0 -0.31880441417E+03  0.96557860782E+02 -0.47709944902E+03  0.60164375858E+03  0.15294330000E+03 0.  0.
<mgrwt>
<rscale>  0 0.61959821E+03</rscale>
<asrwt>0</asrwt>
<pdfrwt beam="1">  1        2 0.25835792E+00 0.73808528E+03</pdfrwt>
<pdfrwt beam="2">  1       -2 0.95937566E-01 0.73808528E+03</pdfrwt>
<totfact> 0.94473320E+00</totfact>
</mgrwt>
</event>
<event>
 4    1  0.6502538E-008  0.7998041E+03  0.7818608E-02  0.9711220E-01
          2   -1    0    0  501    0  0.00000000000E+00  0.00000000000E+00  0.11344751070E+04  0.11344751070E+04  0.25500000000E-02 0. -1.
         -2   -1    0    0    0  501 -0.00000000000E+00 -0.00000000000E+00 -0.54426011069E+03  0.54426011070E+03  0.25500000000E-02 0.  1.
    8880023    1    1    2    0    0 -0.68482744667E+02  0.44853819780E+03  0.82188622647E+03  0.11468145346E+04  0.65864270000E+03 0. -1.
    8880022    1    1    2    0    0  0.68482744667E+02 -0.44853819780E+03 -0.23167123018E+03  0.53192068310E+03  0.15294330000E+03 0.  0.
<mgrwt>
<rscale>  0 0.70352683E+03</rscale>
<asrwt>0</asrwt>
<pdfrwt beam="1">  1        2 0.17453463E+00 0.79980411E+03</pdfrwt>
<pdfrwt beam="2">  1       -2 0.83732326E-01 0.79980411E+03</pdfrwt>
<totfact> 0.26202845E+01</totfact>
</mgrwt>
</event>
<event>
 4    1  0.6502538E-008  0.8789062E+03  0.7818608E-02  0.9560779E-01
          2   -1    0    0  501    0  0.00000000000E+00  0.00000000000E+00  0.62488119916E+03  0.62488119916E+03  0.25500000000E-02 0. -1.
         -2   -1    0    0    0  501 -0.00000000000E+00 -0.00000000000E+00 -0.18511652088E+04  0.18511652088E+04  0.25500000000E-02 0.  1.
    8880023    1    1    2    0    0 -0.15621536125E+03 -0.56059134775E+03  0.22305258297E+03  0.90676819491E+03  0.65864270000E+03 0. -1.
    8880022    1    1    2    0    0  0.15621536125E+03  0.56059134775E+03 -0.14493365926E+04  0.15692782130E+04  0.15294330000E+03 0.  0.
<mgrwt>
<rscale>  0 0.79947354E+03</rscale>
<asrwt>0</asrwt>
<pdfrwt beam="1">  1        2 0.96135570E-01 0.87890620E+03</pdfrwt>
<pdfrwt beam="2">  1       -2 0.28479464E+00 0.87890620E+03</pdfrwt>
<totfact> 0.18935803E+00</totfact>
</mgrwt>
</event>
<event>
 4    1  0.6502538E-008  0.1735930E+04  0.7818608E-02  0.8758831E-01
         -2   -1    0    0    0  501 -0.00000000000E+00  0.00000000000E+00  0.18839600021E+04  0.18839600021E+04  0.25500000000E-02 0.  1.
          2   -1    0    0  501    0  0.00000000000E+00 -0.00000000000E+00 -0.17959509814E+04  0.17959509814E+04  0.25500000000E-02 0. -1.
    8880023    1    1    2    0    0 -0.87887165759E+03  0.13443315173E+04 -0.71538357478E+03  0.18775586500E+04  0.65864270000E+03 0. -1.
    8880022    1    1    2    0    0  0.87887165759E+03 -0.13443315173E+04  0.80339259545E+03  0.18023523336E+04  0.15294330000E+03 0.  0.
<mgrwt>
<rscale>  0 0.17044495E+04</rscale>
<asrwt>0</asrwt>
<pdfrwt beam="1">  1        2 0.27630015E+00 0.17359300E+04</pdfrwt>
<pdfrwt beam="2">  1       -2 0.28984000E+00 0.17359300E+04</pdfrwt>
<totfact> 0.29128293E-01</totfact>
</mgrwt>
</event>
<event>
 4    1  0.6502538E-008  0.8642280E+03  0.7818608E-02  0.9586086E-01
         -2   -1    0    0    0  501 -0.00000000000E+00  0.00000000000E+00  0.47971247722E+03  0.47971247723E+03  0.25500000000E-02 0.  1.
          2   -1    0    0  501    0  0.00000000000E+00 -0.00000000000E+00 -0.15043278204E+04  0.15043278204E+04  0.25500000000E-02 0. -1.
    8880023    1    1    2    0    0  0.26439460316E+03 -0.49312804024E+03 -0.11002314925E+04  0.13990708751E+04  0.65864270000E+03 0. -1.
    8880022    1    1    2    0    0 -0.26439460316E+03  0.49312804024E+03  0.75616149297E+02  0.58496942254E+03  0.15294330000E+03 0.  0.
<mgrwt>
<rscale>  0 0.78223953E+03</rscale>
<asrwt>0</asrwt>
<pdfrwt beam="1">  1        2 0.23143505E+00 0.86422797E+03</pdfrwt>
<pdfrwt beam="2">  1       -2 0.73801920E-01 0.86422797E+03</pdfrwt>
<totfact> 0.21114657E+01</totfact>
</mgrwt>
</event>
<event>
 4    1  0.6502538E-008  0.8460649E+03  0.7818608E-02  0.9618849E-01
         -2   -1    0    0    0  501 -0.00000000000E+00  0.00000000000E+00  0.25709354436E+03  0.25709354437E+03  0.25500000000E-02 0.  1.
          2   -1    0    0  501    0  0.00000000000E+00 -0.00000000000E+00 -0.25233944582E+04  0.25233944582E+04  0.25500000000E-02 0. -1.
    8880023    1    1    2    0    0  0.40759301737E+03  0.34041668345E+03 -0.19905076619E+04  0.21628561081E+04  0.65864270000E+03 0. -1.
    8880022    1    1    2    0    0 -0.40759301737E+03 -0.34041668345E+03 -0.27579325192E+03  0.61763189441E+03  0.15294330000E+03 0. -1.
<mgrwt>
<rscale>  0 0.76061112E+03</rscale>
<asrwt>0</asrwt>
<pdfrwt beam="1">  1        2 0.38821452E+00 0.84606489E+03</pdfrwt>
<pdfrwt beam="2">  1       -2 0.39552855E-01 0.84606489E+03</pdfrwt>
<totfact> 0.21045623E+01</totfact>
</mgrwt>
</event>
<event>
 4    1  0.6502538E-008  0.9645216E+03  0.7818608E-02  0.9429521E-01
          2   -1    0    0  501    0  0.00000000000E+00  0.00000000000E+00  0.24872954336E+04  0.24872954336E+04  0.25500000000E-02 0. -1.
         -2   -1    0    0    0  501 -0.00000000000E+00 -0.00000000000E+00 -0.84010123397E+03  0.84010123397E+03  0.25500000000E-02 0.  1.
    8880023    1    1    2    0    0 -0.26656109663E+03  0.65225520553E+03  0.22109220642E+04  0.24121522032E+04  0.65864270000E+03 0.  0.
    8880022    1    1    2    0    0  0.26656109663E+03 -0.65225520553E+03 -0.56372786450E+03  0.91524446440E+03  0.15294330000E+03 0.  0.
<mgrwt>
<rscale>  0 0.89685493E+03</rscale>
<asrwt>0</asrwt>
<pdfrwt beam="1">  1        2 0.38266083E+00 0.96452158E+03</pdfrwt>
<pdfrwt beam="2">  1       -2 0.12924635E+00 0.96452158E+03</pdfrwt>
<totfact> 0.15789595E+00</totfact>
</mgrwt>
</event>
<event>
 4    1  0.6502538E-008  0.1146088E+04  0.7818608E-02  0.9211398E-01
         -2   -1    0    0    0  501 -0.00000000000E+00  0.00000000000E+00  0.82503622127E+03  0.82503622128E+03  0.25500000000E-02 0.  1.
          2   -1    0    0  501    0  0.00000000000E+00 -0.00000000000E+00 -0.13901020545E+04  0.13901020545E+04  0.25500000000E-02 0. -1.
    8880023    1    1    2    0    0  0.73866089439E+03 -0.57800247942E+03 -0.81800229092E+02  0.11490031622E+04  0.65864270000E+03 0.  1.
    8880022    1    1    2    0    0 -0.73866089439E+03  0.57800247942E+03 -0.48326560411E+03  0.10661351135E+04  0.15294330000E+03 0. -1.
<mgrwt>
<rscale>  0 0.10936548E+04</rscale>
<asrwt>0</asrwt>
<pdfrwt beam="1">  1        2 0.21386185E+00 0.11460877E+04</pdfrwt>
<pdfrwt beam="2">  1       -2 0.12692865E+00 0.11460877E+04</pdfrwt>
<totfact> 0.66223176E+00</totfact>
</mgrwt>
</event>
<event>
 4    1  0.6502538E-008  0.7338809E+03  0.7818608E-02  0.9878144E-01
         -2   -1    0    0    0  501 -0.00000000000E+00  0.00000000000E+00  0.15646555907E+04  0.15646555907E+04  0.25500000000E-02 0.  1.
          2   -1    0    0  501    0  0.00000000000E+00 -0.00000000000E+00 -0.56661060915E+03  0.56661060916E+03  0.25500000000E-02 0. -1.
    8880023    1    1    2    0    0  0.23240452765E+03  0.22529788820E+03 -0.29397090181E+03  0.79056947846E+03  0.65864270000E+03 0. -1.
    8880022    1    1    2    0    0 -0.23240452765E+03 -0.22529788820E+03  0.12920158834E+04  0.13406967214E+04  0.15294330000E+03 0.  0.
<mgrwt>
<rscale>  0 0.61332319E+03</rscale>
<asrwt>0</asrwt>
<pdfrwt beam="1">  1        2 0.87170863E-01 0.73388092E+03</pdfrwt>
<pdfrwt beam="2">  1       -2 0.24071624E+00 0.73388092E+03</pdfrwt>
<totfact> 0.40123279E+00</totfact>
</mgrwt>
</event>
<event>
 4    1  0.6502538E-008  0.1073383E+04  0.7818608E-02  0.9291286E-01
         -2   -1    0    0    0  501 -0.00000000000E+00  0.00000000000E+00  0.11234704864E+04  0.11234704864E+04  0.25500000000E-02 0.  1.
          2   -1    0    0  501    0  0.00000000000E+00 -0.00000000000E+00 -0.20726360413E+04  0.20726360413E+04  0.25500000000E-02 0. -1.
    8880023    1    1    2    0    0 -0.84137505564E+03  0.10212587655E+03 -0.17284573900E+04  0.20346294095E+04  0.65864270000E+03 0.  0.
    8880022    1    1    2    0    0  0.84137505564E+03 -0.10212587655E+03  0.77929183502E+03  0.11614771182E+04  0.15294330000E+03 0.  0.
<mgrwt>
<rscale>  0 0.10158910E+04</rscale>
<asrwt>0</asrwt>
<pdfrwt beam="1">  1        2 0.31886708E+00 0.10733834E+04</pdfrwt>
<pdfrwt beam="2">  1       -2 0.17284161E+00 0.10733834E+04</pdfrwt>
<totfact> 0.12239736E+00</totfact>
</mgrwt>
</event>
<event>
 4    1  0.6502538E-008  0.1136650E+04  0.7818608E-02  0.9221307E-01
          2   -1    0    0  501    0  0.00000000000E+00  0.00000000000E+00  0.27757236139E+04  0.27757236139E+04  0.25500000000E-02 0. -1.
         -2   -1    0    0    0  501 -0.00000000000E+00 -0.00000000000E+00 -0.45931088998E+03  0.45931088999E+03  0.25500000000E-02 0.  1.
    8880023    1    1    2    0    0 -0.82933922487E+03  0.41274703573E+03  0.18862993496E+04  0.22022940557E+04  0.65864270000E+03 0.  0.
    8880022    1    1    2    0    0  0.82933922487E+03 -0.41274703573E+03  0.43011337428E+03  0.10327404481E+04  0.15294330000E+03 0.  0.
<mgrwt>
<rscale>  0 0.10836183E+04</rscale>
<asrwt>0</asrwt>
<pdfrwt beam="1">  1        2 0.42703441E+00 0.11366503E+04</pdfrwt>
<pdfrwt beam="2">  1       -2 0.70663213E-01 0.11366503E+04</pdfrwt>
<totfact> 0.43504323E+00</totfact>
</mgrwt>
</event>
<event>
 4    1  0.6502538E-008  0.9252355E+03  0.7818608E-02  0.9486678E-01
         -2   -1    0    0    0  501 -0.00000000000E+00  0.00000000000E+00  0.94460325771E+03  0.94460325772E+03  0.25500000000E-02 0.  1.
          2   -1    0    0  501    0  0.00000000000E+00 -0.00000000000E+00 -0.18940876350E+04  0.18940876351E+04  0.25500000000E-02 0. -1.
    8880023    1    1    2    0    0  0.82985231177E+02 -0.64448743720E+03 -0.16370129241E+04  0.18803914819E+04  0.65864270000E+03 0. -1.
    8880022    1    1    2    0    0 -0.82985231177E+02  0.64448743720E+03  0.68752854674E+03  0.95829941088E+03  0.15294330000E+03 0.  0.
<mgrwt>
<rscale>  0 0.85273193E+03</rscale>
<asrwt>0</asrwt>
<pdfrwt beam="1">  1        2 0.29139810E+00 0.92523554E+03</pdfrwt>
<pdfrwt beam="2">  1       -2 0.14532358E+00 0.92523554E+03</pdfrwt>
<totfact> 0.25091891E+00</totfact>
</mgrwt>
</event>
<event>
 4    1  0.6502538E-008  0.7008009E+03  0.7818608E-02  0.9993895E-01
          2   -1    0    0  501    0  0.00000000000E+00  0.00000000000E+00  0.14160408521E+04  0.14160408521E+04  0.25500000000E-02 0. -1.
         -2   -1    0    0    0  501 -0.00000000000E+00 -0.00000000000E+00 -0.46530217503E+03  0.46530217504E+03  0.25500000000E-02 0.  1.
    8880023    1    1    2    0    0  0.23923279294E+03 -0.89075620623E+01  0.12721335993E+04  0.14523931199E+04  0.65864270000E+03 0.  0.
    8880022    1    1    2    0    0 -0.23923279294E+03  0.89075620623E+01 -0.32139492225E+03  0.42894990727E+03  0.15294330000E+03 0.  0.
<mgrwt>
<rscale>  0 0.55918744E+03</rscale>
<asrwt>0</asrwt>
<pdfrwt beam="1">  1        2 0.21785244E+00 0.70080088E+03</pdfrwt>
<pdfrwt beam="2">  1       -2 0.71584950E-01 0.70080088E+03</pdfrwt>
<totfact> 0.25781733E+01</totfact>
</mgrwt>
</event>
<event>
 4    1  0.7252106E-008  0.8727485E+03  0.7818608E-02  0.9571277E-01
          2   -1    0    0  501    0  0.00000000000E+00  0.00000000000E+00  0.28674136733E+04  0.28674136733E+04  0.25500000000E-02 0. -1.
         -2   -1    0    0    0  501 -0.00000000000E+00 -0.00000000000E+00 -0.13786603125E+04  0.13786603125E+04  0.25500000000E-02 0.  1.
    8880023    1    1    2    0    0 -0.47223988639E+03 -0.32383509309E+03  0.27324129895E+04  0.28684090763E+04  0.65864270000E+03 0.  0.
    8880022    1    1    2    0    0  0.47223988639E+03  0.32383509309E+03 -0.12436596287E+04  0.13776649095E+04  0.15294330000E+03 0.  1.
<mgrwt>
<rscale>  0 0.79226808E+03</rscale>
<asrwt>0</asrwt>
<pdfrwt beam="1">  1        2 0.44114056E+00 0.87274847E+03</pdfrwt>
<pdfrwt beam="2">  1       -2 0.21210159E+00 0.87274847E+03</pdfrwt>
<totfact> 0.24332454E-01</totfact>
</mgrwt>
</event>
<event>
 4    1  0.6502538E-008  0.6633092E+03  0.7818608E-02  0.1020996E+00
         -2   -1    0    0    0  501 -0.00000000000E+00  0.00000000000E+00  0.54276575558E+03  0.54276575559E+03  0.25500000000E-02 0.  1.
          2   -1    0    0  501    0  0.00000000000E+00 -0.00000000000E+00 -0.14904100340E+04  0.14904100340E+04  0.25500000000E-02 0. -1.
    8880023    1    1    2    0    0 -0.24066649697E+02 -0.74764534182E+02 -0.14000332889E+04  0.15492166910E+04  0.65864270000E+03 0. -1.
    8880022    1    1    2    0    0  0.24066649697E+02  0.74764534182E+02  0.45238901056E+03  0.48395909857E+03  0.15294330000E+03 0.  0.
<mgrwt>
<rscale>  0 0.47328874E+03</rscale>
<asrwt>0</asrwt>
<pdfrwt beam="1">  1        2 0.22929385E+00 0.66330924E+03</pdfrwt>
<pdfrwt beam="2">  1       -2 0.83502425E-01 0.66330924E+03</pdfrwt>
<totfact> 0.16706323E+01</totfact>
</mgrwt>
</event>
<event>
 4    1  0.6502538E-008  0.9036428E+03  0.7818608E-02  0.9520209E-01
         -2   -1    0    0    0  501 -0.00000000000E+00  0.00000000000E+00  0.26177042461E+03  0.26177042462E+03  0.25500000000E-02 0.  1.
          2   -1    0    0  501    0  0.00000000000E+00 -0.00000000000E+00 -0.23145838415E+04  0.23145838415E+04  0.25500000000E-02 0. -1.
    8880023    1    1    2    0    0 -0.61364250840E+03  0.78758824731E+02 -0.13807871693E+04  0.16501949866E+04  0.65864270000E+03 0. -1.
    8880022    1    1    2    0    0  0.61364250840E+03 -0.78758824731E+02 -0.67202624758E+03  0.92615927952E+03  0.15294330000E+03 0.  1.
<mgrwt>
<rscale>  0 0.82810161E+03</rscale>
<asrwt>0</asrwt>
<pdfrwt beam="1">  1        2 0.35608981E+00 0.90364279E+03</pdfrwt>
<pdfrwt beam="2">  1       -2 0.40272375E-01 0.90364279E+03</pdfrwt>
<totfact> 0.26464305E+01</totfact>
</mgrwt>
</event>
<event>
 4    1  0.6502538E-008  0.1371299E+04  0.7818608E-02  0.9006311E-01
          2   -1    0    0  501    0  0.00000000000E+00  0.00000000000E+00  0.20486306015E+04  0.20486306015E+04  0.25500000000E-02 0. -1.
         -2   -1    0    0    0  501 -0.00000000000E+00 -0.00000000000E+00 -0.10837054264E+04  0.10837054264E+04  0.25500000000E-02 0.  1.
    8880023    1    1    2    0    0  0.59883197005E+03  0.10430964174E+04  0.12840078125E+04  0.18785995138E+04  0.65864270000E+03 0.  0.
    8880022    1    1    2    0    0 -0.59883197005E+03 -0.10430964174E+04 -0.31908263745E+03  0.12537365141E+04  0.15294330000E+03 0.  0.
<mgrwt>
<rscale>  0 0.13297354E+04</rscale>
<asrwt>0</asrwt>
<pdfrwt beam="1">  1        2 0.31517394E+00 0.13712987E+04</pdfrwt>
<pdfrwt beam="2">  1       -2 0.16672391E+00 0.13712987E+04</pdfrwt>
<totfact> 0.13477183E+00</totfact>
</mgrwt>
</event>
<event>
 4    1  0.6502538E-008  0.8382966E+03  0.7818608E-02  0.9633401E-01
         -2   -1    0    0    0  501 -0.00000000000E+00  0.00000000000E+00  0.86827874641E+03  0.86827874641E+03  0.25500000000E-02 0.  1.
          2   -1    0    0  501    0  0.00000000000E+00 -0.00000000000E+00 -0.14593311656E+04  0.14593311656E+04  0.25500000000E-02 0. -1.
    8880023    1    1    2    0    0 -0.33267781686E+03  0.39781459120E+03 -0.12313220819E+04  0.14895956681E+04  0.65864270000E+03 0. -1.
    8880022    1    1    2    0    0  0.33267781686E+03 -0.39781459120E+03  0.64026966278E+03  0.83801424385E+03  0.15294330000E+03 0.  0.
<mgrwt>
<rscale>  0 0.75124411E+03</rscale>
<asrwt>0</asrwt>
<pdfrwt beam="1">  1        2 0.22451249E+00 0.83829660E+03</pdfrwt>
<pdfrwt beam="2">  1       -2 0.13358135E+00 0.83829660E+03</pdfrwt>
<totfact> 0.54922571E+00</totfact>
</mgrwt>
</event>
<event>
 4    1  0.6502538E-008  0.9432233E+03  0.7818608E-02  0.9459932E-01
          2   -1    0    0  501    0  0.00000000000E+00  0.00000000000E+00  0.79120803358E+03  0.79120803359E+03  0.25500000000E-02 0. -1.
         -2   -1    0    0    0  501 -0.00000000000E+00 -0.00000000000E+00 -0.18767197005E+04  0.18767197005E+04  0.25500000000E-02 0.  1.
    8880023    1    1    2    0    0 -0.67106020032E+03  0.74418652465E+02  0.40346000271E+03  0.10258899104E+04  0.65864270000E+03 0.  0.
    8880022    1    1    2    0    0  0.67106020032E+03 -0.74418652465E+02 -0.14889716696E+04  0.16420378236E+04  0.15294330000E+03 0.  0.
<mgrwt>
<rscale>  0 0.87303433E+03</rscale>
<asrwt>0</asrwt>
<pdfrwt beam="1">  1        2 0.12172431E+00 0.94322327E+03</pdfrwt>
<pdfrwt beam="2">  1       -2 0.28872611E+00 0.94322327E+03</pdfrwt>
<totfact> 0.13158682E+00</totfact>
</mgrwt>
</event>
<event>
 4    1  0.6502538E-008  0.8746830E+03  0.7818608E-02  0.9567961E-01
         -2   -1    0    0    0  501 -0.00000000000E+00  0.00000000000E+00  0.48740880719E+03  0.48740880720E+03  0.25500000000E-02 0.  1.
          2   -1    0    0  501    0  0.00000000000E+00 -0.00000000000E+00 -0.16145614859E+04  0.16145614859E+04  0.25500000000E-02 0. -1.
    8880023    1    1    2    0    0 -0.16077308005E+03 -0.55264106199E+03 -0.12180238193E+04  0.14995507185E+04  0.65864270000E+03 0. -1.
    8880022    1    1    2    0    0  0.16077308005E+03  0.55264106199E+03  0.90871140601E+02  0.60241957461E+03  0.15294330000E+03 0.  0.
<mgrwt>
<rscale>  0 0.79453545E+03</rscale>
<asrwt>0</asrwt>
<pdfrwt beam="1">  1        2 0.24839407E+00 0.87468299E+03</pdfrwt>
<pdfrwt beam="2">  1       -2 0.74985971E-01 0.87468299E+03</pdfrwt>
<totfact> 0.17679510E+01</totfact>
</mgrwt>
</event>
<event>
 4    1  0.6502538E-008  0.8248829E+03  0.7818608E-02  0.9659372E-01
          2   -1    0    0  501    0  0.00000000000E+00  0.00000000000E+00  0.30835087558E+04  0.30835087558E+04  0.25500000000E-02 0. -1.
         -2   -1    0    0    0  501 -0.00000000000E+00 -0.00000000000E+00 -0.52894543528E+03  0.52894543529E+03  0.25500000000E-02 0.  1.
    8880023    1    1    2    0    0  0.39032041345E+03  0.30703685830E+03  0.28823613408E+04  0.29980725079E+04  0.65864270000E+03 0.  0.
    8880022    1    1    2    0    0 -0.39032041345E+03 -0.30703685830E+03 -0.32779802028E+03  0.61438168318E+03  0.15294330000E+03 0.  0.
<mgrwt>
<rscale>  0 0.73488162E+03</rscale>
<asrwt>0</asrwt>
<pdfrwt beam="1">  1        2 0.47438597E+00 0.82488294E+03</pdfrwt>
<pdfrwt beam="2">  1       -2 0.81376220E-01 0.82488294E+03</pdfrwt>
<totfact> 0.21627024E+00</totfact>
</mgrwt>
</event>
<event>
 4    1  0.6502538E-008  0.7288082E+03  0.7818608E-02  0.9893836E-01
         -2   -1    0    0    0  501 -0.00000000000E+00  0.00000000000E+00  0.72513626897E+03  0.72513626897E+03  0.25500000000E-02 0.  1.
          2   -1    0    0  501    0  0.00000000000E+00 -0.00000000000E+00 -0.18697023355E+04  0.18697023355E+04  0.25500000000E-02 0. -1.
    8880023    1    1    2    0    0 -0.30096706186E+03  0.82279689200E+02 -0.17506028030E+04  0.18962519610E+04  0.65864270000E+03 0. -1.
    8880022    1    1    2    0    0  0.30096706186E+03 -0.82279689200E+02  0.60603673641E+03  0.69858664350E+03  0.15294330000E+03 0.  0.
<mgrwt>
<rscale>  0 0.60560933E+03</rscale>
<asrwt>0</asrwt>
<pdfrwt beam="1">  1        2 0.28764651E+00 0.72880815E+03</pdfrwt>
<pdfrwt beam="2">  1       -2 0.11155943E+00 0.72880815E+03</pdfrwt>
<totfact> 0.51949806E+00</totfact>
</mgrwt>
</event>
<event>
 4    1  0.6502538E-008  0.1098147E+04  0.7818608E-02  0.9263122E-01
          2   -1    0    0  501    0  0.00000000000E+00  0.00000000000E+00  0.16134783308E+04  0.16134783308E+04  0.25500000000E-02 0. -1.
         -2   -1    0    0    0  501 -0.00000000000E+00 -0.00000000000E+00 -0.17019421382E+04  0.17019421382E+04  0.25500000000E-02 0.  1.
    8880023    1    1    2    0    0  0.87615458181E+03 -0.66850789641E+02  0.12771459824E+04  0.16843479290E+04  0.65864270000E+03 0.  0.
    8880022    1    1    2    0    0 -0.87615458181E+03  0.66850789641E+02 -0.13656097899E+04  0.16310725400E+04  0.15294330000E+03 0.  1.
<mgrwt>
<rscale>  0 0.10424994E+04</rscale>
<asrwt>0</asrwt>
<pdfrwt beam="1">  1        2 0.24822744E+00 0.10981467E+04</pdfrwt>
<pdfrwt beam="2">  1       -2 0.26183725E+00 0.10981467E+04</pdfrwt>
<totfact> 0.58752815E-01</totfact>
</mgrwt>
</event>
<event>
 4    1  0.6502538E-008  0.1860884E+04  0.7818608E-02  0.8689584E-01
          2   -1    0    0  501    0  0.00000000000E+00  0.00000000000E+00  0.20058529132E+04  0.20058529132E+04  0.25500000000E-02 0. -1.
         -2   -1    0    0    0  501 -0.00000000000E+00 -0.00000000000E+00 -0.20470273610E+04  0.20470273610E+04  0.25500000000E-02 0.  1.
    8880023    1    1    2    0    0  0.40023287620E+03  0.16937810717E+04  0.90139818411E+03  0.20677063540E+04  0.65864270000E+03 0. -1.
    8880022    1    1    2    0    0 -0.40023287620E+03 -0.16937810717E+04 -0.94257263184E+03  0.19851739202E+04  0.15294330000E+03 0.  0.
<mgrwt>
<rscale>  0 0.18317703E+04</rscale>
<asrwt>0</asrwt>
<pdfrwt beam="1">  1        2 0.30859275E+00 0.18608844E+04</pdfrwt>
<pdfrwt beam="2">  1       -2 0.31492729E+00 0.18608844E+04</pdfrwt>
<totfact> 0.15389919E-01</totfact>
</mgrwt>
</event>
<event>
 4    1  0.6502538E-008  0.1270672E+04  0.7818608E-02  0.9091309E-01
         -2   -1    0    0    0  501 -0.00000000000E+00  0.00000000000E+00  0.11044548171E+04  0.11044548171E+04  0.25500000000E-02 0.  1.
          2   -1    0    0  501    0  0.00000000000E+00 -0.00000000000E+00 -0.23864339243E+04  0.23864339243E+04  0.25500000000E-02 0. -1.
    8880023    1    1    2    0    0 -0.12938079861E+03 -0.10789154042E+04 -0.18584565607E+04  0.22513260170E+04  0.65864270000E+03 0.  0.
    8880022    1    1    2    0    0  0.12938079861E+03  0.10789154042E+04  0.57647745355E+03  0.12395627245E+04  0.15294330000E+03 0.  0.
<mgrwt>
<rscale>  0 0.12249321E+04</rscale>
<asrwt>0</asrwt>
<pdfrwt beam="1">  1        2 0.36714368E+00 0.12706723E+04</pdfrwt>
<pdfrwt beam="2">  1       -2 0.16991613E+00 0.12706723E+04</pdfrwt>
<totfact> 0.83489571E-01</totfact>
</mgrwt>
</event>
<event>
 4    1  0.6502538E-008  0.1072571E+04  0.7818608E-02  0.9292228E-01
         -2   -1    0    0    0  501 -0.00000000000E+00  0.00000000000E+00  0.14457180912E+04  0.14457180912E+04  0.25500000000E-02 0.  1.
          2   -1    0    0  501    0  0.00000000000E+00 -0.00000000000E+00 -0.15832791642E+04  0.15832791642E+04  0.25500000000E-02 0. -1.
    8880023    1    1    2    0    0  0.71048909113E+03 -0.46022041036E+03 -0.12342589959E+04  0.16351767641E+04  0.65864270000E+03 0.  0.
    8880022    1    1    2    0    0 -0.71048909113E+03  0.46022041036E+03  0.10966979230E+04  0.13938204913E+04  0.15294330000E+03 0.  0.
<mgrwt>
<rscale>  0 0.10150153E+04</rscale>
<asrwt>0</asrwt>
<pdfrwt beam="1">  1        2 0.24358141E+00 0.10725706E+04</pdfrwt>
<pdfrwt beam="2">  1       -2 0.22241817E+00 0.10725706E+04</pdfrwt>
<totfact> 0.10719783E+00</totfact>
</mgrwt>
</event>
<event>
 4    1  0.6502538E-008  0.6785648E+03  0.7818608E-02  0.1010147E+00
          2   -1    0    0  501    0  0.00000000000E+00  0.00000000000E+00  0.12441381229E+04  0.12441381229E+04  0.25500000000E-02 0. -1.
         -2   -1    0    0    0  501 -0.00000000000E+00 -0.00000000000E+00 -0.35915252393E+03  0.35915252394E+03  0.25500000000E-02 0.  1.
    8880023    1    1    2    0    0  0.15982801805E+03 -0.33090640673E+02  0.11003685173E+04  0.12927726274E+04  0.65864270000E+03 0. -1.
    8880022    1    1    2    0    0 -0.15982801805E+03  0.33090640673E+02 -0.21538291839E+03  0.31051801945E+03  0.15294330000E+03 0.  0.
<mgrwt>
<rscale>  0 0.51416095E+03</rscale>
<asrwt>0</asrwt>
<pdfrwt beam="1">  1        2 0.19140586E+00 0.67856480E+03</pdfrwt>
<pdfrwt beam="2">  1       -2 0.55254236E-01 0.67856480E+03</pdfrwt>
<totfact> 0.56279906E+01</totfact>
</mgrwt>
</event>
<event>
 4    1  0.6502538E-008  0.1152908E+04  0.7818608E-02  0.9204316E-01
          2   -1    0    0  501    0  0.00000000000E+00  0.00000000000E+00  0.31200033922E+04  0.31200033922E+04  0.25500000000E-02 0. -1.
         -2   -1    0    0    0  501 -0.00000000000E+00 -0.00000000000E+00 -0.48771943881E+03  0.48771943881E+03  0.25500000000E-02 0.  1.
    8880023    1    1    2    0    0  0.60633109728E+03 -0.72646377664E+03  0.23350576224E+04  0.26041680676E+04  0.65864270000E+03 0.  0.
    8880022    1    1    2    0    0 -0.60633109728E+03  0.72646377664E+03  0.29722633103E+03  0.10035547634E+04  0.15294330000E+03 0.  0.
<mgrwt>
<rscale>  0 0.11008988E+04</rscale>
<asrwt>0</asrwt>
<pdfrwt beam="1">  1        2 0.48000051E+00 0.11529082E+04</pdfrwt>
<pdfrwt beam="2">  1       -2 0.75033761E-01 0.11529082E+04</pdfrwt>
<totfact> 0.23366619E+00</totfact>
</mgrwt>
</event>
<event>
 4    1  0.6502538E-008  0.8292809E+03  0.7818608E-02  0.9650733E-01
          2   -1    0    0  501    0  0.00000000000E+00  0.00000000000E+00  0.14783798971E+04  0.14783798971E+04  0.25500000000E-02 0. -1.
         -2   -1    0    0    0  501 -0.00000000000E+00 -0.00000000000E+00 -0.20600650841E+04  0.20600650841E+04  0.25500000000E-02 0.  1.
    8880023    1    1    2    0    0  0.42204263373E+03 -0.27527547549E+03  0.13234901743E+04  0.15618364255E+04  0.65864270000E+03 0. -1.
    8880022    1    1    2    0    0 -0.42204263373E+03  0.27527547549E+03 -0.19051753614E+04  0.19766085557E+04  0.15294330000E+03 0.  0.
<mgrwt>
<rscale>  0 0.74027429E+03</rscale>
<asrwt>0</asrwt>
<pdfrwt beam="1">  1        2 0.22744306E+00 0.82928088E+03</pdfrwt>
<pdfrwt beam="2">  1       -2 0.31693309E+00 0.82928088E+03</pdfrwt>
<totfact> 0.33980498E-01</totfact>
</mgrwt>
</event>
<event>
 4    1  0.6502538E-008  0.1097798E+04  0.7818608E-02  0.9263511E-01
         -2   -1    0    0    0  501 -0.00000000000E+00  0.00000000000E+00  0.84711109153E+03  0.84711109153E+03  0.25500000000E-02 0.  1.
          2   -1    0    0  501    0  0.00000000000E+00 -0.00000000000E+00 -0.23284718564E+04  0.23284718564E+04  0.25500000000E-02 0. -1.
    8880023    1    1    2    0    0 -0.78457277402E+03  0.39471085274E+03 -0.18971686965E+04  0.21918965223E+04  0.65864270000E+03 0. -1.
    8880022    1    1    2    0    0  0.78457277402E+03 -0.39471085274E+03  0.41580793165E+03  0.98368642567E+03  0.15294330000E+03 0.  0.
<mgrwt>
<rscale>  0 0.10421261E+04</rscale>
<asrwt>0</asrwt>
<pdfrwt beam="1">  1        2 0.35822644E+00 0.10977984E+04</pdfrwt>
<pdfrwt beam="2">  1       -2 0.13032478E+00 0.10977984E+04</pdfrwt>
<totfact> 0.18664139E+00</totfact>
</mgrwt>
</event>
<event>
 4    1  0.6502538E-008  0.8457718E+03  0.7818608E-02  0.9619392E-01
         -2   -1    0    0    0  501 -0.00000000000E+00  0.00000000000E+00  0.45122318726E+03  0.45122318727E+03  0.25500000000E-02 0.  1.
          2   -1    0    0  501    0  0.00000000000E+00 -0.00000000000E+00 -0.11176388233E+04  0.11176388233E+04  0.25500000000E-02 0. -1.
    8880023    1    1    2    0    0 -0.16248853604E+01 -0.53058178841E+03 -0.26544644422E+03  0.88644892434E+03  0.65864270000E+03 0.  1.
    8880022    1    1    2    0    0  0.16248853604E+01  0.53058178841E+03 -0.40096919179E+03  0.68241308620E+03  0.15294330000E+03 0.  0.
<mgrwt>
<rscale>  0 0.76025902E+03</rscale>
<asrwt>0</asrwt>
<pdfrwt beam="1">  1        2 0.17194443E+00 0.84577177E+03</pdfrwt>
<pdfrwt beam="2">  1       -2 0.69418953E-01 0.84577177E+03</pdfrwt>
<totfact> 0.40563908E+01</totfact>
</mgrwt>
</event>
<event>
 4    1  0.6502538E-008  0.1757936E+04  0.7818608E-02  0.8746169E-01
          2   -1    0    0  501    0  0.00000000000E+00  0.00000000000E+00  0.18110902311E+04  0.18110902311E+04  0.25500000000E-02 0. -1.
         -2   -1    0    0    0  501 -0.00000000000E+00 -0.00000000000E+00 -0.29195497170E+04  0.29195497170E+04  0.25500000000E-02 0.  1.
    8880023    1    1    2    0    0  0.35323612305E+03 -0.15911483430E+04  0.10300420573E+04  0.20374802218E+04  0.65864270000E+03 0.  0.
    8880022    1    1    2    0    0 -0.35323612305E+03  0.15911483430E+04 -0.21385015432E+04  0.26931597263E+04  0.15294330000E+03 0.  0.
<mgrwt>
<rscale>  0 0.17269014E+04</rscale>
<asrwt>0</asrwt>
<pdfrwt beam="1">  1        2 0.27862927E+00 0.17579360E+04</pdfrwt>
<pdfrwt beam="2">  1       -2 0.44916149E+00 0.17579360E+04</pdfrwt>
<totfact> 0.27171919E-02</totfact>
</mgrwt>
</event>
<event>
 4    1  0.6502538E-008  0.1935909E+04  0.7818608E-02  0.8650863E-01
         -2   -1    0    0    0  501 -0.00000000000E+00  0.00000000000E+00  0.10908523885E+04  0.10908523885E+04  0.25500000000E-02 0.  1.
          2   -1    0    0  501    0  0.00000000000E+00 -0.00000000000E+00 -0.43527195395E+04  0.43527195395E+04  0.25500000000E-02 0. -1.
    8880023    1    1    2    0    0 -0.44003133434E+03  0.17664385454E+04 -0.30389494342E+04  0.36031870032E+04  0.65864270000E+03 0.  0.
    8880022    1    1    2    0    0  0.44003133434E+03 -0.17664385454E+04 -0.22291771679E+03  0.18403849248E+04  0.15294330000E+03 0.  0.
<mgrwt>
<rscale>  0 0.19080444E+04</rscale>
<asrwt>0</asrwt>
<pdfrwt beam="1">  1        2 0.66964915E+00 0.19359088E+04</pdfrwt>
<pdfrwt beam="2">  1       -2 0.16782345E+00 0.19359088E+04</pdfrwt>
<totfact> 0.34169253E-02</totfact>
</mgrwt>
</event>
<event>
 4    1  0.6502538E-008  0.1230856E+04  0.7818608E-02  0.9127697E-01
         -2   -1    0    0    0  501 -0.00000000000E+00  0.00000000000E+00  0.14829605908E+04  0.14829605908E+04  0.25500000000E-02 0.  1.
          2   -1    0    0  501    0  0.00000000000E+00 -0.00000000000E+00 -0.12802050370E+04  0.12802050370E+04  0.25500000000E-02 0. -1.
    8880023    1    1    2    0    0 -0.10050292012E+04 -0.26666728072E+03 -0.66609845206E+03  0.13995329535E+04  0.65864270000E+03 0.  0.
    8880022    1    1    2    0    0  0.10050292012E+04  0.26666728072E+03  0.86885400579E+03  0.13636326743E+04  0.15294330000E+03 0.  0.
<mgrwt>
<rscale>  0 0.11831922E+04</rscale>
<asrwt>0</asrwt>
<pdfrwt beam="1">  1        2 0.19695462E+00 0.12308555E+04</pdfrwt>
<pdfrwt beam="2">  1       -2 0.22814778E+00 0.12308555E+04</pdfrwt>
<totfact> 0.14431732E+00</totfact>
</mgrwt>
</event>
<event>
 4    1  0.6502538E-008  0.1109453E+04  0.7818608E-02  0.9250604E-01
          2   -1    0    0  501    0  0.00000000000E+00  0.00000000000E+00  0.32006016702E+04  0.32006016702E+04  0.25500000000E-02 0. -1.
         -2   -1    0    0    0  501 -0.00000000000E+00 -0.00000000000E+00 -0.89168085358E+03  0.89168085358E+03  0.25500000000E-02 0.  1.
    8880023    1    1    2    0    0 -0.62131188238E+03 -0.64112961454E+03  0.28353065506E+04  0.30446426851E+04  0.65864270000E+03 0.  1.
    8880022    1    1    2    0    0  0.62131188238E+03  0.64112961454E+03 -0.52638573391E+03  0.10476398387E+04  0.15294330000E+03 0.  0.
<mgrwt>
<rscale>  0 0.10546038E+04</rscale>
<asrwt>0</asrwt>
<pdfrwt beam="1">  1        2 0.49240026E+00 0.11094529E+04</pdfrwt>
<pdfrwt beam="2">  1       -2 0.13718167E+00 0.11094529E+04</pdfrwt>
<totfact> 0.49226192E-01</totfact>
</mgrwt>
</event>
<event>
 4    1  0.6502538E-008  0.9757617E+03  0.7818608E-02  0.9413979E-01
          2   -1    0    0  501    0  0.00000000000E+00  0.00000000000E+00  0.18216893160E+04  0.18216893160E+04  0.25500000000E-02 0. -1.
         -2   -1    0    0    0  501 -0.00000000000E+00 -0.00000000000E+00 -0.11690570059E+04  0.11690570059E+04  0.25500000000E-02 0.  1.
    8880023    1    1    2    0    0 -0.33363439416E+03 -0.63795666772E+03  0.15491354954E+04  0.18308281209E+04  0.65864270000E+03 0. -1.
    8880022    1    1    2    0    0  0.33363439416E+03  0.63795666772E+03 -0.89650318531E+03  0.11599182011E+04  0.15294330000E+03 0.  0.
<mgrwt>
<rscale>  0 0.90934125E+03</rscale>
<asrwt>0</asrwt>
<pdfrwt beam="1">  1        2 0.28025989E+00 0.97576166E+03</pdfrwt>
<pdfrwt beam="2">  1       -2 0.17985493E+00 0.97576166E+03</pdfrwt>
<totfact> 0.15239090E+00</totfact>
</mgrwt>
</event>
<event>
 4    1  0.6502538E-008  0.7980432E+03  0.7818608E-02  0.9715043E-01
         -2   -1    0    0    0  501 -0.00000000000E+00  0.00000000000E+00  0.49160301813E+03  0.49160301814E+03  0.25500000000E-02 0.  1.
          2   -1    0    0  501    0  0.00000000000E+00 -0.00000000000E+00 -0.18773093106E+04  0.18773093106E+04  0.25500000000E-02 0. -1.
    8880023    1    1    2    0    0 -0.80155421958E+01 -0.45055362209E+03 -0.16440005513E+04  0.18274602141E+04  0.65864270000E+03 0.  0.
    8880022    1    1    2    0    0  0.80155421958E+01  0.45055362209E+03  0.25829425880E+03  0.54145211463E+03  0.15294330000E+03 0.  0.
<mgrwt>
<rscale>  0 0.70128158E+03</rscale>
<asrwt>0</asrwt>
<pdfrwt beam="1">  1        2 0.28881681E+00 0.79804325E+03</pdfrwt>
<pdfrwt beam="2">  1       -2 0.75631234E-01 0.79804325E+03</pdfrwt>
<totfact> 0.12562898E+01</totfact>
</mgrwt>
</event>
<event>
 4    1  0.6502538E-008  0.1034558E+04  0.7818608E-02  0.9337680E-01
         -2   -1    0    0    0  501 -0.00000000000E+00  0.00000000000E+00  0.94134789655E+03  0.94134789655E+03  0.25500000000E-02 0.  1.
          2   -1    0    0  501    0  0.00000000000E+00 -0.00000000000E+00 -0.13514476300E+04  0.13514476300E+04  0.25500000000E-02 0. -1.
    8880023    1    1    2    0    0  0.65105783162E+03  0.46111089406E+03 -0.87663322212E+03  0.13560219648E+04  0.65864270000E+03 0.  0.
    8880022    1    1    2    0    0 -0.65105783162E+03 -0.46111089406E+03  0.46653348871E+03  0.93677356167E+03  0.15294330000E+03 0.  0.
<mgrwt>
<rscale>  0 0.97386801E+03</rscale>
<asrwt>0</asrwt>
<pdfrwt beam="1">  1        2 0.20791502E+00 0.10345578E+04</pdfrwt>
<pdfrwt beam="2">  1       -2 0.14482275E+00 0.10345578E+04</pdfrwt>
<totfact> 0.50140346E+00</totfact>
</mgrwt>
</event>
<event>
 4    1  0.6502538E-008  0.7204948E+03  0.7818608E-02  0.9920915E-01
          2   -1    0    0  501    0  0.00000000000E+00  0.00000000000E+00  0.40038703433E+03  0.40038703434E+03  0.25500000000E-02 0. -1.
         -2   -1    0    0    0  501 -0.00000000000E+00 -0.00000000000E+00 -0.17150133879E+04  0.17150133879E+04  0.25500000000E-02 0.  1.
    8880023    1    1    2    0    0 -0.26943115406E+03 -0.11273626327E+03  0.39636955196E+02  0.72158430298E+03  0.65864270000E+03 0. -1.
    8880022    1    1    2    0    0  0.26943115406E+03  0.11273626327E+03 -0.13542633087E+04  0.13938161192E+04  0.15294330000E+03 0.  0.
<mgrwt>
<rscale>  0 0.59258272E+03</rscale>
<asrwt>0</asrwt>
<pdfrwt beam="1">  1        2 0.61598007E-01 0.72049484E+03</pdfrwt>
<pdfrwt beam="2">  1       -2 0.26384821E+00 0.72049484E+03</pdfrwt>
<totfact> 0.43476395E+00</totfact>
</mgrwt>
</event>
<event>
 4    1  0.6502538E-008  0.1463044E+04  0.7818608E-02  0.8936182E-01
         -2   -1    0    0    0  501 -0.00000000000E+00  0.00000000000E+00  0.12344192000E+04  0.12344192000E+04  0.25500000000E-02 0.  1.
          2   -1    0    0  501    0  0.00000000000E+00 -0.00000000000E+00 -0.26521339316E+04  0.26521339316E+04  0.25500000000E-02 0. -1.
    8880023    1    1    2    0    0 -0.89068694761E+03  0.95570144583E+03 -0.19751434310E+04  0.24579850023E+04  0.65864270000E+03 0.  0.
    8880022    1    1    2    0    0  0.89068694761E+03 -0.95570144583E+03  0.55742869941E+03  0.14285681293E+04  0.15294330000E+03 0.  0.
<mgrwt>
<rscale>  0 0.14246277E+04</rscale>
<asrwt>0</asrwt>
<pdfrwt beam="1">  1        2 0.40802061E+00 0.14630443E+04</pdfrwt>
<pdfrwt beam="2">  1       -2 0.18991065E+00 0.14630443E+04</pdfrwt>
<totfact> 0.41590184E-01</totfact>
</mgrwt>
</event>
<event>
 4    1  0.6502538E-008  0.6600711E+03  0.7818608E-02  0.1024084E+00
          2   -1    0    0  501    0  0.00000000000E+00  0.00000000000E+00  0.98638115323E+03  0.98638115323E+03  0.25500000000E-02 0. -1.
         -2   -1    0    0    0  501 -0.00000000000E+00 -0.00000000000E+00 -0.50867591337E+03  0.50867591337E+03  0.25500000000E-02 0.  1.
    8880023    1    1    2    0    0  0.26437501164E+02 -0.34419233039E+02  0.85820096568E+03  0.10826831156E+04  0.65864270000E+03 0. -1.
    8880022    1    1    2    0    0 -0.26437501164E+02  0.34419233039E+02 -0.38049572582E+03  0.41237395099E+03  0.15294330000E+03 0.  0.
<mgrwt>
<rscale>  0 0.46241299E+03</rscale>
<asrwt>0</asrwt>
<pdfrwt beam="1">  1        2 0.15175095E+00 0.66007108E+03</pdfrwt>
<pdfrwt beam="2">  1       -2 0.78257833E-01 0.66007108E+03</pdfrwt>
<totfact> 0.38252956E+01</totfact>
</mgrwt>
</event>
<event>
 4    1  0.6502538E-008  0.1502391E+04  0.7818608E-02  0.8907949E-01
         -2   -1    0    0    0  501 -0.00000000000E+00  0.00000000000E+00  0.97781288981E+03  0.97781288981E+03  0.25500000000E-02 0.  1.
          2   -1    0    0  501    0  0.00000000000E+00 -0.00000000000E+00 -0.28984172345E+04  0.28984172345E+04  0.25500000000E-02 0. -1.
    8880023    1    1    2    0    0 -0.92725158338E+03  0.98161731969E+03 -0.20156378551E+04  0.25139558927E+04  0.65864270000E+03 0.  0.
    8880022    1    1    2    0    0  0.92725158338E+03 -0.98161731969E+03  0.95033510355E+02  0.13622742317E+04  0.15294330000E+03 0.  0.
<mgrwt>
<rscale>  0 0.14651716E+04</rscale>
<asrwt>0</asrwt>
<pdfrwt beam="1">  1        2 0.44591034E+00 0.15023909E+04</pdfrwt>
<pdfrwt beam="2">  1       -2 0.15043275E+00 0.15023909E+04</pdfrwt>
<totfact> 0.56677383E-01</totfact>
</mgrwt>
</event>
<event>
 4    1  0.6502538E-008  0.8677957E+03  0.7818608E-02  0.9579844E-01
          2   -1    0    0  501    0  0.00000000000E+00  0.00000000000E+00  0.53858298610E+03  0.53858298610E+03  0.25500000000E-02 0. -1.
         -2   -1    0    0    0  501 -0.00000000000E+00 -0.00000000000E+00 -0.24933883070E+04  0.24933883070E+04  0.25500000000E-02 0.  1.
    8880023    1    1    2    0    0 -0.42505828506E+03 -0.37226950141E+03  0.12010855531E+03  0.87606814730E+03  0.65864270000E+03 0.  0.
    8880022    1    1    2    0    0  0.42505828506E+03  0.37226950141E+03 -0.20749138762E+04  0.21559031458E+04  0.15294330000E+03 0.  0.
<mgrwt>
<rscale>  0 0.78644721E+03</rscale>
<asrwt>0</asrwt>
<pdfrwt beam="1">  1        2 0.82858922E-01 0.86779568E+03</pdfrwt>
<pdfrwt beam="2">  1       -2 0.38359819E+00 0.86779568E+03</pdfrwt>
<totfact> 0.55657145E-01</totfact>
</mgrwt>
</event>
<event>
 4    1  0.6502538E-008  0.8291428E+03  0.7818608E-02  0.9651002E-01
          2   -1    0    0  501    0  0.00000000000E+00  0.00000000000E+00  0.48601981747E+03  0.48601981748E+03  0.25500000000E-02 0. -1.
         -2   -1    0    0    0  501 -0.00000000000E+00 -0.00000000000E+00 -0.11465952951E+04  0.11465952951E+04  0.25500000000E-02 0.  1.
    8880023    1    1    2    0    0  0.23452460349E+03 -0.44571945568E+03 -0.72616941899E+03  0.11021795925E+04  0.65864270000E+03 0.  1.
    8880022    1    1    2    0    0 -0.23452460349E+03  0.44571945568E+03  0.65593941337E+02  0.53043552009E+03  0.15294330000E+03 0.  0.
<mgrwt>
<rscale>  0 0.74010544E+03</rscale>
<asrwt>0</asrwt>
<pdfrwt beam="1">  1        2 0.74772280E-01 0.82914283E+03</pdfrwt>
<pdfrwt beam="2">  1       -2 0.17639928E+00 0.82914283E+03</pdfrwt>
<totfact> 0.12329335E+01</totfact>
</mgrwt>
</event>
<event>
 4    1  0.6502538E-008  0.1193399E+04  0.7818608E-02  0.9163566E-01
         -2   -1    0    0    0  501 -0.00000000000E+00  0.00000000000E+00  0.11321943346E+04  0.11321943346E+04  0.25500000000E-02 0.  1.
          2   -1    0    0  501    0  0.00000000000E+00 -0.00000000000E+00 -0.16803326377E+04  0.16803326377E+04  0.25500000000E-02 0. -1.
    8880023    1    1    2    0    0  0.88662340552E+03 -0.45198433249E+03  0.55744068809E+03  0.13171716771E+04  0.65864270000E+03 0.  0.
    8880022    1    1    2    0    0 -0.88662340552E+03  0.45198433249E+03 -0.11055789912E+04  0.14953552952E+04  0.15294330000E+03 0.  0.
<mgrwt>
<rscale>  0 0.11437533E+04</rscale>
<asrwt>0</asrwt>
<pdfrwt beam="1">  1        2 0.25851271E+00 0.11933990E+04</pdfrwt>
<pdfrwt beam="2">  1       -2 0.17418374E+00 0.11933990E+04</pdfrwt>
<totfact> 0.19450861E+00</totfact>
</mgrwt>
</event>
<event>
 4    1  0.6502538E-008  0.1041774E+04  0.7818608E-02  0.9328835E-01
          2   -1    0    0  501    0  0.00000000000E+00  0.00000000000E+00  0.43175150633E+04  0.43175150633E+04  0.25500000000E-02 0. -1.
         -2   -1    0    0    0  501 -0.00000000000E+00 -0.00000000000E+00 -0.21674829435E+03  0.21674829436E+03  0.25500000000E-02 0.  1.
    8880023    1    1    2    0    0  0.66679457510E+03  0.45482840402E+03  0.28817204170E+04  0.30642465061E+04  0.65864270000E+03 0.  0.
    8880022    1    1    2    0    0 -0.66679457510E+03 -0.45482840402E+03  0.12190463520E+04  0.14700168515E+04  0.15294330000E+03 0.  0.
<mgrwt>
<rscale>  0 0.98171008E+03</rscale>
<asrwt>0</asrwt>
<pdfrwt beam="1">  1        2 0.66423304E+00 0.10417745E+04</pdfrwt>
<pdfrwt beam="2">  1       -2 0.33345894E-01 0.10417745E+04</pdfrwt>
<totfact> 0.16277820E+00</totfact>
</mgrwt>
</event>
<event>
 4    1  0.6502538E-008  0.9898811E+03  0.7818608E-02  0.9394918E-01
          2   -1    0    0  501    0  0.00000000000E+00  0.00000000000E+00  0.32309262834E+04  0.32309262834E+04  0.25500000000E-02 0. -1.
         -2   -1    0    0    0  501 -0.00000000000E+00 -0.00000000000E+00 -0.37885187818E+03  0.37885187819E+03  0.25500000000E-02 0.  1.
    8880023    1    1    2    0    0 -0.41747368593E+03  0.60972956204E+03  0.26495998762E+04  0.28284702804E+04  0.65864270000E+03 0. -1.
    8880022    1    1    2    0    0  0.41747368593E+03 -0.60972956204E+03  0.20247452909E+03  0.78130788119E+03  0.15294330000E+03 0.  0.
<mgrwt>
<rscale>  0 0.92495127E+03</rscale>
<asrwt>0</asrwt>
<pdfrwt beam="1">  1        2 0.49706559E+00 0.98988112E+03</pdfrwt>
<pdfrwt beam="2">  1       -2 0.58284904E-01 0.98988112E+03</pdfrwt>
<totfact> 0.35117194E+00</totfact>
</mgrwt>
</event>
<event>
 4    1  0.6502538E-008  0.7903192E+03  0.7818608E-02  0.9732132E-01
          2   -1    0    0  501    0  0.00000000000E+00  0.00000000000E+00  0.17440853809E+04  0.17440853809E+04  0.25500000000E-02 0. -1.
         -2   -1    0    0    0  501 -0.00000000000E+00 -0.00000000000E+00 -0.43763176561E+03  0.43763176561E+03  0.25500000000E-02 0.  1.
    8880023    1    1    2    0    0  0.41277418270E+03 -0.14286981395E+03  0.14877770174E+04  0.16846616780E+04  0.65864270000E+03 0.  0.
    8880022    1    1    2    0    0 -0.41277418270E+03  0.14286981395E+03 -0.18132340206E+03  0.49705546853E+03  0.15294330000E+03 0.  0.
<mgrwt>
<rscale>  0 0.69135450E+03</rscale>
<asrwt>0</asrwt>
<pdfrwt beam="1">  1        2 0.26832083E+00 0.79031925E+03</pdfrwt>
<pdfrwt beam="2">  1       -2 0.67327964E-01 0.79031925E+03</pdfrwt>
<totfact> 0.19192694E+01</totfact>
</mgrwt>
</event>
<event>
 4    1  0.6502538E-008  0.7508650E+03  0.7818608E-02  0.9829358E-01
         -2   -1    0    0    0  501 -0.00000000000E+00  0.00000000000E+00  0.51680756276E+03  0.51680756277E+03  0.25500000000E-02 0.  1.
          2   -1    0    0  501    0  0.00000000000E+00 -0.00000000000E+00 -0.39966007371E+04  0.39966007371E+04  0.25500000000E-02 0. -1.
    8880023    1    1    2    0    0  0.25698458819E+02 -0.35962147206E+03 -0.38808666708E+04  0.39528375045E+04  0.65864270000E+03 0. -1.
    8880022    1    1    2    0    0 -0.25698458819E+02  0.35962147206E+03  0.40107349653E+03  0.56057079534E+03  0.15294330000E+03 0.  0.
<mgrwt>
<rscale>  0 0.63810531E+03</rscale>
<asrwt>0</asrwt>
<pdfrwt beam="1">  1        2 0.61486163E+00 0.75086498E+03</pdfrwt>
<pdfrwt beam="2">  1       -2 0.79508859E-01 0.75086498E+03</pdfrwt>
<totfact> 0.53723788E-01</totfact>
</mgrwt>
</event>
<event>
 4    1  0.6502538E-008  0.1371086E+04  0.7818608E-02  0.9006481E-01
          2   -1    0    0  501    0  0.00000000000E+00  0.00000000000E+00  0.16992724526E+04  0.16992724526E+04  0.25500000000E-02 0. -1.
         -2   -1    0    0    0  501 -0.00000000000E+00 -0.00000000000E+00 -0.25908376660E+04  0.25908376660E+04  0.25500000000E-02 0.  1.
    8880023    1    1    2    0    0  0.12022414002E+04  0.26136834712E+02  0.12330588715E+04  0.18439934668E+04  0.65864270000E+03 0.  0.
    8880022    1    1    2    0    0 -0.12022414002E+04 -0.26136834712E+02 -0.21246240850E+04  0.24461166518E+04  0.15294330000E+03 0.  0.
<mgrwt>
<rscale>  0 0.13295152E+04</rscale>
<asrwt>0</asrwt>
<pdfrwt beam="1">  1        2 0.26142653E+00 0.13710863E+04</pdfrwt>
<pdfrwt beam="2">  1       -2 0.39859041E+00 0.13710863E+04</pdfrwt>
<totfact> 0.71290168E-02</totfact>
</mgrwt>
</event>
<event>
 4    1  0.6502538E-008  0.6749326E+03  0.7818608E-02  0.1012349E+00
          2   -1    0    0  501    0  0.00000000000E+00  0.00000000000E+00  0.64683473601E+03  0.64683473602E+03  0.25500000000E-02 0. -1.
         -2   -1    0    0    0  501 -0.00000000000E+00 -0.00000000000E+00 -0.71509750262E+03  0.71509750262E+03  0.25500000000E-02 0.  1.
    8880023    1    1    2    0    0  0.73694067756E+02 -0.12764415621E+03  0.44366032645E+03  0.80769334389E+03  0.65864270000E+03 0. -1.
    8880022    1    1    2    0    0 -0.73694067756E+02  0.12764415621E+03 -0.51192309305E+03  0.55423889475E+03  0.15294330000E+03 0.  0.
<mgrwt>
<rscale>  0 0.50551732E+03</rscale>
<asrwt>0</asrwt>
<pdfrwt beam="1">  1        2 0.99513036E-01 0.67493263E+03</pdfrwt>
<pdfrwt beam="2">  1       -2 0.11001500E+00 0.67493263E+03</pdfrwt>
<totfact> 0.30297148E+01</totfact>
</mgrwt>
</event>
<event>
 4    1  0.6502538E-008  0.1282507E+04  0.7818608E-02  0.9080815E-01
          2   -1    0    0  501    0  0.00000000000E+00  0.00000000000E+00  0.24731673645E+04  0.24731673645E+04  0.25500000000E-02 0. -1.
         -2   -1    0    0    0  501 -0.00000000000E+00 -0.00000000000E+00 -0.10770546257E+04  0.10770546257E+04  0.25500000000E-02 0.  1.
    8880023    1    1    2    0    0  0.95038237571E+03 -0.55478668964E+03  0.19302359176E+04  0.23174632327E+04  0.65864270000E+03 0.  0.
    8880022    1    1    2    0    0 -0.95038237571E+03  0.55478668964E+03 -0.53412317879E+03  0.12327587575E+04  0.15294330000E+03 0.  0.
<mgrwt>
<rscale>  0 0.12373062E+04</rscale>
<asrwt>0</asrwt>
<pdfrwt beam="1">  1        2 0.38048729E+00 0.12825074E+04</pdfrwt>
<pdfrwt beam="2">  1       -2 0.16570071E+00 0.12825074E+04</pdfrwt>
<totfact> 0.79767525E-01</totfact>
</mgrwt>
</event>
<event>
 4    1  0.6502538E-008  0.1091547E+04  0.7818608E-02  0.9270527E-01
          2   -1    0    0  501    0  0.00000000000E+00  0.00000000000E+00  0.30458171688E+04  0.30458171688E+04  0.25500000000E-02 0. -1.
         -2   -1    0    0    0  501 -0.00000000000E+00 -0.00000000000E+00 -0.45812451963E+03  0.45812451963E+03  0.25500000000E-02 0.  1.
    8880023    1    1    2    0    0 -0.59194573324E+03 -0.63817254075E+03  0.23463245077E+04  0.25878007738E+04  0.65864270000E+03 0.  0.
    8880022    1    1    2    0    0  0.59194573324E+03  0.63817254075E+03  0.24136814148E+03  0.91614091471E+03  0.15294330000E+03 0.  0.
<mgrwt>
<rscale>  0 0.10354210E+04</rscale>
<asrwt>0</asrwt>
<pdfrwt beam="1">  1        2 0.46858725E+00 0.10915467E+04</pdfrwt>
<pdfrwt beam="2">  1       -2 0.70480696E-01 0.10915467E+04</pdfrwt>
<totfact> 0.30129014E+00</totfact>
</mgrwt>
</event>
<event>
 4    1  0.6502538E-008  0.7364180E+03  0.7818608E-02  0.9870507E-01
          2   -1    0    0  501    0  0.00000000000E+00  0.00000000000E+00  0.67282034065E+03  0.67282034066E+03  0.25500000000E-02 0. -1.
         -2   -1    0    0    0  501 -0.00000000000E+00 -0.00000000000E+00 -0.15056205674E+04  0.15056205674E+04  0.25500000000E-02 0.  1.
    8880023    1    1    2    0    0  0.11398044186E+03 -0.30904647811E+03  0.43795699964E+03  0.85680674983E+03  0.65864270000E+03 0. -1.
    8880022    1    1    2    0    0 -0.11398044186E+03  0.30904647811E+03 -0.12707572264E+04  0.13216341583E+04  0.15294330000E+03 0.  0.
<mgrwt>
<rscale>  0 0.61712193E+03</rscale>
<asrwt>0</asrwt>
<pdfrwt beam="1">  1        2 0.10351082E+00 0.73641800E+03</pdfrwt>
<pdfrwt beam="2">  1       -2 0.23163393E+00 0.73641800E+03</pdfrwt>
<totfact> 0.36992617E+00</totfact>
</mgrwt>
</event>
<event>
 4    1  0.6502538E-008  0.6685105E+03  0.7818608E-02  0.1016754E+00
         -2   -1    0    0    0  501 -0.00000000000E+00  0.00000000000E+00  0.31178654043E+03  0.31178654044E+03  0.25500000000E-02 0.  1.
          2   -1    0    0  501    0  0.00000000000E+00 -0.00000000000E+00 -0.22270177729E+04  0.22270177729E+04  0.25500000000E-02 0. -1.
    8880023    1    1    2    0    0 -0.84907701911E+02 -0.76725235244E+02 -0.21410742257E+04  0.22430125112E+04  0.65864270000E+03 0. -1.
    8880022    1    1    2    0    0  0.84907701911E+02  0.76725235244E+02  0.22584299322E+03  0.29579180207E+03  0.15294330000E+03 0.  0.
<mgrwt>
<rscale>  0 0.48876436E+03</rscale>
<asrwt>0</asrwt>
<pdfrwt beam="1">  1        2 0.34261811E+00 0.66851050E+03</pdfrwt>
<pdfrwt beam="2">  1       -2 0.47967161E-01 0.66851050E+03</pdfrwt>
<totfact> 0.21596883E+01</totfact>
</mgrwt>
</event>
<event>
 4    1  0.6502538E-008  0.1009184E+04  0.7818608E-02  0.9369640E-01
          2   -1    0    0  501    0  0.00000000000E+00  0.00000000000E+00  0.74250504128E+03  0.74250504128E+03  0.25500000000E-02 0. -1.
         -2   -1    0    0    0  501 -0.00000000000E+00 -0.00000000000E+00 -0.26182963653E+04  0.26182963653E+04  0.25500000000E-02 0.  1.
    8880023    1    1    2    0    0  0.49568899961E+02 -0.76301045969E+03  0.29728352539E+03  0.10520597598E+04  0.65864270000E+03 0.  0.
    8880022    1    1    2    0    0 -0.49568899961E+02  0.76301045969E+03 -0.21730748494E+04  0.23087416468E+04  0.15294330000E+03 0.  0.
<mgrwt>
<rscale>  0 0.94616898E+03</rscale>
<asrwt>0</asrwt>
<pdfrwt beam="1">  1        2 0.11423155E+00 0.10091839E+04</pdfrwt>
<pdfrwt beam="2">  1       -2 0.40281482E+00 0.10091839E+04</pdfrwt>
<totfact> 0.27478489E-01</totfact>
</mgrwt>
</event>
<event>
 4    1  0.6502538E-008  0.8503280E+03  0.7818608E-02  0.9611005E-01
         -2   -1    0    0    0  501 -0.00000000000E+00  0.00000000000E+00  0.91056838394E+03  0.91056838394E+03  0.25500000000E-02 0.  1.
          2   -1    0    0  501    0  0.00000000000E+00 -0.00000000000E+00 -0.61711174079E+03  0.61711174080E+03  0.25500000000E-02 0. -1.
    8880023    1    1    2    0    0  0.50781766955E+03  0.17711205573E+03 -0.81853269366E+02  0.85425852631E+03  0.65864270000E+03 0.  0.
    8880022    1    1    2    0    0 -0.50781766955E+03 -0.17711205573E+03  0.37530991251E+03  0.67342159844E+03  0.15294330000E+03 0.  0.
<mgrwt>
<rscale>  0 0.76572049E+03</rscale>
<asrwt>0</asrwt>
<pdfrwt beam="1">  1        2 0.94940267E-01 0.85032798E+03</pdfrwt>
<pdfrwt beam="2">  1       -2 0.14008744E+00 0.85032798E+03</pdfrwt>
<totfact> 0.17271704E+01</totfact>
</mgrwt>
</event>
<event>
 4    1  0.6502538E-008  0.7716488E+03  0.7818608E-02  0.9775833E-01
          2   -1    0    0  501    0  0.00000000000E+00  0.00000000000E+00  0.59768005021E+03  0.59768005021E+03  0.25500000000E-02 0. -1.
         -2   -1    0    0    0  501 -0.00000000000E+00 -0.00000000000E+00 -0.10329133303E+04  0.10329133303E+04  0.25500000000E-02 0.  1.
    8880023    1    1    2    0    0  0.30820362610E+03  0.25815151091E+03  0.25895541319E+03  0.81394090081E+03  0.65864270000E+03 0. -1.
    8880022    1    1    2    0    0 -0.30820362610E+03 -0.25815151091E+03 -0.69418869331E+03  0.81665247974E+03  0.15294330000E+03 0.  0.
<mgrwt>
<rscale>  0 0.66675776E+03</rscale>
<asrwt>0</asrwt>
<pdfrwt beam="1">  1        2 0.91950777E-01 0.77164881E+03</pdfrwt>
<pdfrwt beam="2">  1       -2 0.15890974E+00 0.77164881E+03</pdfrwt>
<totfact> 0.12953006E+01</totfact>
</mgrwt>
</event>
<event>
 4    1  0.6502538E-008  0.1214003E+04  0.7818608E-02  0.9143630E-01
         -2   -1    0    0    0  501 -0.00000000000E+00  0.00000000000E+00  0.70494261114E+03  0.70494261115E+03  0.25500000000E-02 0.  1.
          2   -1    0    0  501    0  0.00000000000E+00 -0.00000000000E+00 -0.32652529312E+04  0.32652529312E+04  0.25500000000E-02 0. -1.
    8880023    1    1    2    0    0  0.59171931460E+03 -0.83057829817E+03 -0.26701345745E+04  0.29331588619E+04  0.65864270000E+03 0.  0.
    8880022    1    1    2    0    0 -0.59171931460E+03  0.83057829817E+03  0.10982425451E+03  0.10370366804E+04  0.15294330000E+03 0.  0.
<mgrwt>
<rscale>  0 0.11654696E+04</rscale>
<asrwt>0</asrwt>
<pdfrwt beam="1">  1        2 0.50234660E+00 0.12140026E+04</pdfrwt>
<pdfrwt beam="2">  1       -2 0.10845271E+00 0.12140026E+04</pdfrwt>
<totfact> 0.79262143E-01</totfact>
</mgrwt>
</event>
<event>
 4    1  0.6502538E-008  0.8664545E+03  0.7818608E-02  0.9582184E-01
          2   -1    0    0  501    0  0.00000000000E+00  0.00000000000E+00  0.42550447811E+03  0.42550447812E+03  0.25500000000E-02 0. -1.
         -2   -1    0    0    0  501 -0.00000000000E+00 -0.00000000000E+00 -0.12502625932E+04  0.12502625932E+04  0.25500000000E-02 0.  1.
    8880023    1    1    2    0    0  0.47817151121E+03 -0.29712825258E+03 -0.58271315190E+03  0.10441733650E+04  0.65864270000E+03 0.  1.
    8880022    1    1    2    0    0 -0.47817151121E+03  0.29712825258E+03 -0.24204496322E+03  0.63159370631E+03  0.15294330000E+03 0.  0.
<mgrwt>
<rscale>  0 0.78486692E+03</rscale>
<asrwt>0</asrwt>
<pdfrwt beam="1">  1        2 0.65462228E-01 0.86645450E+03</pdfrwt>
<pdfrwt beam="2">  1       -2 0.19234809E+00 0.86645450E+03</pdfrwt>
<totfact> 0.11156002E+01</totfact>
</mgrwt>
</event>
<event>
 4    1  0.6502538E-008  0.8145004E+03  0.7818608E-02  0.9680278E-01
          2   -1    0    0  501    0  0.00000000000E+00  0.00000000000E+00  0.14835606660E+04  0.14835606660E+04  0.25500000000E-02 0. -1.
         -2   -1    0    0    0  501 -0.00000000000E+00 -0.00000000000E+00 -0.12295769372E+04  0.12295769372E+04  0.25500000000E-02 0.  1.
    8880023    1    1    2    0    0 -0.17177750997E+03 -0.44731776919E+03  0.13105058873E+04  0.15429959775E+04  0.65864270000E+03 0.  0.
    8880022    1    1    2    0    0  0.17177750997E+03  0.44731776919E+03 -0.10565221586E+04  0.11701416257E+04  0.15294330000E+03 0.  0.
<mgrwt>
<rscale>  0 0.72203276E+03</rscale>
<asrwt>0</asrwt>
<pdfrwt beam="1">  1        2 0.22824010E+00 0.81450040E+03</pdfrwt>
<pdfrwt beam="2">  1       -2 0.18916568E+00 0.81450040E+03</pdfrwt>
<totfact> 0.20759972E+00</totfact>
</mgrwt>
</event>
<event>
 4    1  0.6502538E-008  0.6887137E+03  0.7818608E-02  0.1004770E+00
          2   -1    0    0  501    0  0.00000000000E+00  0.00000000000E+00  0.41749270705E+04  0.41749270705E+04  0.25500000000E-02 0. -1.
         -2   -1    0    0    0  501 -0.00000000000E+00 -0.00000000000E+00 -0.57090653712E+03  0.57090653713E+03  0.25500000000E-02 0.  1.
    8880023    1    1    2    0    0  0.34327495405E+02 -0.19833787424E+03  0.41168604805E+04  0.41740707602E+04  0.65864270000E+03 0. -1.
    8880022    1    1    2    0    0 -0.34327495405E+02  0.19833787424E+03 -0.51283994711E+03  0.57176284740E+03  0.15294330000E+03 0.  0.
<mgrwt>
<rscale>  0 0.53607231E+03</rscale>
<asrwt>0</asrwt>
<pdfrwt beam="1">  1        2 0.64229644E+00 0.68871365E+03</pdfrwt>
<pdfrwt beam="2">  1       -2 0.87831779E-01 0.68871365E+03</pdfrwt>
<totfact> 0.31269584E-01</totfact>
</mgrwt>
</event>
<event>
 4    1  0.6502538E-008  0.1728016E+04  0.7818608E-02  0.8763436E-01
          2   -1    0    0  501    0  0.00000000000E+00  0.00000000000E+00  0.25998543812E+04  0.25998543812E+04  0.25500000000E-02 0. -1.
         -2   -1    0    0    0  501 -0.00000000000E+00 -0.00000000000E+00 -0.15807110104E+04  0.15807110104E+04  0.25500000000E-02 0.  1.
    8880023    1    1    2    0    0  0.14559314126E+04  0.65764268229E+03  0.17120291502E+04  0.24325057438E+04  0.65864270000E+03 0.  0.
    8880022    1    1    2    0    0 -0.14559314126E+04 -0.65764268229E+03 -0.69288577950E+03  0.17480596478E+04  0.15294330000E+03 0.  0.
<mgrwt>
<rscale>  0 0.16963722E+04</rscale>
<asrwt>0</asrwt>
<pdfrwt beam="1">  1        2 0.39997760E+00 0.17280163E+04</pdfrwt>
<pdfrwt beam="2">  1       -2 0.24318631E+00 0.17280163E+04</pdfrwt>
<totfact> 0.19698327E-01</totfact>
</mgrwt>
</event>
<event>
 4    1  0.6502538E-008  0.1153731E+04  0.7818608E-02  0.9203466E-01
          2   -1    0    0  501    0  0.00000000000E+00  0.00000000000E+00  0.14225386465E+04  0.14225386465E+04  0.25500000000E-02 0. -1.
         -2   -1    0    0    0  501 -0.00000000000E+00 -0.00000000000E+00 -0.11566575116E+04  0.11566575116E+04  0.25500000000E-02 0.  1.
    8880023    1    1    2    0    0 -0.87759809913E+03  0.35652164867E+03  0.87030534840E+03  0.14451739395E+04  0.65864270000E+03 0. -1.
    8880022    1    1    2    0    0  0.87759809913E+03 -0.35652164867E+03 -0.60442421347E+03  0.11340222187E+04  0.15294330000E+03 0.  0.
<mgrwt>
<rscale>  0 0.11017727E+04</rscale>
<asrwt>0</asrwt>
<pdfrwt beam="1">  1        2 0.21885210E+00 0.11537315E+04</pdfrwt>
<pdfrwt beam="2">  1       -2 0.17794731E+00 0.11537315E+04</pdfrwt>
<totfact> 0.25668562E+00</totfact>
</mgrwt>
</event>
<event>
 4    1  0.6502538E-008  0.9966130E+03  0.7818608E-02  0.9386002E-01
          2   -1    0    0  501    0  0.00000000000E+00  0.00000000000E+00  0.83452202701E+03  0.83452202702E+03  0.25500000000E-02 0. -1.
         -2   -1    0    0    0  501 -0.00000000000E+00 -0.00000000000E+00 -0.11758609883E+04  0.11758609883E+04  0.25500000000E-02 0.  1.
    8880023    1    1    2    0    0  0.69640187164E+03 -0.27285843120E+03  0.26978310696E+03  0.10324826494E+04  0.65864270000E+03 0. -1.
    8880022    1    1    2    0    0 -0.69640187164E+03  0.27285843120E+03 -0.61112206822E+03  0.97790036588E+03  0.15294330000E+03 0.  0.
<mgrwt>
<rscale>  0 0.93236642E+03</rscale>
<asrwt>0</asrwt>
<pdfrwt beam="1">  1        2 0.12838800E+00 0.99661301E+03</pdfrwt>
<pdfrwt beam="2">  1       -2 0.18090169E+00 0.99661301E+03</pdfrwt>
<totfact> 0.57716542E+00</totfact>
</mgrwt>
</event>
<event>
 4    1  0.6502538E-008  0.6656136E+03  0.7818608E-02  0.1019024E+00
         -2   -1    0    0    0  501 -0.00000000000E+00  0.00000000000E+00  0.61183942065E+03  0.61183942066E+03  0.25500000000E-02 0.  1.
          2   -1    0    0  501    0  0.00000000000E+00 -0.00000000000E+00 -0.65493272608E+03  0.65493272609E+03  0.25500000000E-02 0. -1.
    8880023    1    1    2    0    0 -0.18914787588E+02 -0.94199056954E+02 -0.46223391913E+03  0.81037129378E+03  0.65864270000E+03 0. -1.
    8880022    1    1    2    0    0  0.18914787588E+02  0.94199056954E+02  0.41914061370E+03  0.45640085297E+03  0.15294330000E+03 0.  0.
<mgrwt>
<rscale>  0 0.48040434E+03</rscale>
<asrwt>0</asrwt>
<pdfrwt beam="1">  1        2 0.10075888E+00 0.66561358E+03</pdfrwt>
<pdfrwt beam="2">  1       -2 0.94129141E-01 0.66561358E+03</pdfrwt>
<totfact> 0.43252396E+01</totfact>
</mgrwt>
</event>
<event>
 4    1  0.6502538E-008  0.1628102E+04  0.7818608E-02  0.8824104E-01
          2   -1    0    0  501    0  0.00000000000E+00  0.00000000000E+00  0.32276235723E+04  0.32276235723E+04  0.25500000000E-02 0. -1.
         -2   -1    0    0    0  501 -0.00000000000E+00 -0.00000000000E+00 -0.97606210724E+03  0.97606210724E+03  0.25500000000E-02 0.  1.
    8880023    1    1    2    0    0 -0.12671120681E+04  0.78187800180E+03  0.21589910064E+04  0.27040633452E+04  0.65864270000E+03 0. -1.
    8880022    1    1    2    0    0  0.12671120681E+04 -0.78187800180E+03  0.92570458679E+02  0.14996223344E+04  0.15294330000E+03 0.  0.
<mgrwt>
<rscale>  0 0.15942244E+04</rscale>
<asrwt>0</asrwt>
<pdfrwt beam="1">  1        2 0.49655746E+00 0.16281021E+04</pdfrwt>
<pdfrwt beam="2">  1       -2 0.15016340E+00 0.16281021E+04</pdfrwt>
<totfact> 0.34786173E-01</totfact>
</mgrwt>
</event>
<event>
 4    1  0.6502538E-008  0.6601875E+03  0.7818608E-02  0.1023965E+00
         -2   -1    0    0    0  501 -0.00000000000E+00  0.00000000000E+00  0.11585046175E+04  0.11585046175E+04  0.25500000000E-02 0.  1.
          2   -1    0    0  501    0  0.00000000000E+00 -0.00000000000E+00 -0.60015820964E+03  0.60015820964E+03  0.25500000000E-02 0. -1.
    8880023    1    1    2    0    0  0.22578171649E+02 -0.39084285218E+02 -0.41008815717E+03  0.77718714484E+03  0.65864270000E+03 0. -1.
    8880022    1    1    2    0    0 -0.22578171649E+02  0.39084285218E+02  0.96843456506E+03  0.98147568233E+03  0.15294330000E+03 0.  0.
<mgrwt>
<rscale>  0 0.46282484E+03</rscale>
<asrwt>0</asrwt>
<pdfrwt beam="1">  1        2 0.92332032E-01 0.66018752E+03</pdfrwt>
<pdfrwt beam="2">  1       -2 0.17823148E+00 0.66018752E+03</pdfrwt>
<totfact> 0.95052612E+00</totfact>
</mgrwt>
</event>
<event>
 4    1  0.6502538E-008  0.8928733E+03  0.7818608E-02  0.9537570E-01
          2   -1    0    0  501    0  0.00000000000E+00  0.00000000000E+00  0.17743028476E+04  0.17743028476E+04  0.25500000000E-02 0. -1.
         -2   -1    0    0    0  501 -0.00000000000E+00 -0.00000000000E+00 -0.50630414269E+03  0.50630414270E+03  0.25500000000E-02 0.  1.
    8880023    1    1    2    0    0 -0.58896480434E+03  0.12858065684E+03  0.13849023519E+04  0.16477794927E+04  0.65864270000E+03 0.  0.
    8880022    1    1    2    0    0  0.58896480434E+03 -0.12858065684E+03 -0.11690364695E+03  0.63282749762E+03  0.15294330000E+03 0.  0.
<mgrwt>
<rscale>  0 0.81569683E+03</rscale>
<asrwt>0</asrwt>
<pdfrwt beam="1">  1        2 0.27296967E+00 0.89287330E+03</pdfrwt>
<pdfrwt beam="2">  1       -2 0.77892943E-01 0.89287330E+03</pdfrwt>
<totfact> 0.13236144E+01</totfact>
</mgrwt>
</event>
<event>
 4    1  0.6502538E-008  0.1330390E+04  0.7818608E-02  0.9039751E-01
          2   -1    0    0  501    0  0.00000000000E+00  0.00000000000E+00  0.24022450752E+04  0.24022450752E+04  0.25500000000E-02 0. -1.
         -2   -1    0    0    0  501 -0.00000000000E+00 -0.00000000000E+00 -0.95147498924E+03  0.95147498925E+03  0.25500000000E-02 0.  1.
    8880023    1    1    2    0    0 -0.43969655509E+03 -0.10690153549E+04  0.17027141182E+04  0.21608268010E+04  0.65864270000E+03 0.  0.
    8880022    1    1    2    0    0  0.43969655509E+03  0.10690153549E+04 -0.25194403221E+03  0.11928932634E+04  0.15294330000E+03 0.  0.
<mgrwt>
<rscale>  0 0.12872335E+04</rscale>
<asrwt>0</asrwt>
<pdfrwt beam="1">  1        2 0.36957616E+00 0.13303898E+04</pdfrwt>
<pdfrwt beam="2">  1       -2 0.14638077E+00 0.13303898E+04</pdfrwt>
<totfact> 0.12187895E+00</totfact>
</mgrwt>
</event>
<event>
 4    1  0.6502538E-008  0.8702558E+03  0.7818608E-02  0.9575574E-01
          2   -1    0    0  501    0  0.00000000000E+00  0.00000000000E+00  0.12487666310E+04  0.12487666310E+04  0.25500000000E-02 0. -1.
         -2   -1    0    0    0  501 -0.00000000000E+00 -0.00000000000E+00 -0.62627241247E+03  0.62627241248E+03  0.25500000000E-02 0.  1.
    8880023    1    1    2    0    0  0.28903320212E+03  0.48989252963E+03  0.87509487105E+03  0.12341540107E+04  0.65864270000E+03 0.  0.
    8880022    1    1    2    0    0 -0.28903320212E+03 -0.48989252963E+03 -0.25260065256E+03  0.64088503275E+03  0.15294330000E+03 0.  0.
<mgrwt>
<rscale>  0 0.78934138E+03</rscale>
<asrwt>0</asrwt>
<pdfrwt beam="1">  1        2 0.19211794E+00 0.87025576E+03</pdfrwt>
<pdfrwt beam="2">  1       -2 0.96349603E-01 0.87025576E+03</pdfrwt>
<totfact> 0.16083378E+01</totfact>
</mgrwt>
</event>
<event>
 4    1  0.6502538E-008  0.1014279E+04  0.7818608E-02  0.9363110E-01
         -2   -1    0    0    0  501 -0.00000000000E+00  0.00000000000E+00  0.15695661647E+04  0.15695661647E+04  0.25500000000E-02 0.  1.
          2   -1    0    0  501    0  0.00000000000E+00 -0.00000000000E+00 -0.14554752293E+04  0.14554752293E+04  0.25500000000E-02 0. -1.
    8880023    1    1    2    0    0  0.77105646366E+03  0.20604217938E+02 -0.11518407534E+04  0.15347638032E+04  0.65864270000E+03 0.  0.
    8880022    1    1    2    0    0 -0.77105646366E+03 -0.20604217938E+02  0.12659316888E+04  0.14902775908E+04  0.15294330000E+03 0.  0.
<mgrwt>
<rscale>  0 0.95174809E+03</rscale>
<asrwt>0</asrwt>
<pdfrwt beam="1">  1        2 0.22391926E+00 0.10142795E+04</pdfrwt>
<pdfrwt beam="2">  1       -2 0.24147172E+00 0.10142795E+04</pdfrwt>
<totfact> 0.97090823E-01</totfact>
</mgrwt>
</event>
<event>
 4    1  0.6502538E-008  0.1025984E+04  0.7818608E-02  0.9348325E-01
         -2   -1    0    0    0  501 -0.00000000000E+00  0.00000000000E+00  0.10343053095E+04  0.10343053095E+04  0.25500000000E-02 0.  1.
          2   -1    0    0  501    0  0.00000000000E+00 -0.00000000000E+00 -0.97203204697E+03  0.97203204697E+03  0.25500000000E-02 0. -1.
    8880023    1    1    2    0    0  0.45305648801E+03  0.64309700894E+03  0.44489539748E+03  0.11182915833E+04  0.65864270000E+03 0.  0.
    8880022    1    1    2    0    0 -0.45305648801E+03 -0.64309700894E+03 -0.38262213491E+03  0.88804577325E+03  0.15294330000E+03 0.  0.
<mgrwt>
<rscale>  0 0.96453179E+03</rscale>
<asrwt>0</asrwt>
<pdfrwt beam="1">  1        2 0.14954339E+00 0.10259845E+04</pdfrwt>
<pdfrwt beam="2">  1       -2 0.15912389E+00 0.10259845E+04</pdfrwt>
<totfact> 0.66394045E+00</totfact>
</mgrwt>
</event>
<event>
 4    1  0.6502538E-008  0.7434617E+03  0.7818608E-02  0.9849976E-01
          2   -1    0    0  501    0  0.00000000000E+00  0.00000000000E+00  0.11008481621E+04  0.11008481621E+04  0.25500000000E-02 0. -1.
         -2   -1    0    0    0  501 -0.00000000000E+00 -0.00000000000E+00 -0.49657670502E+03  0.49657670502E+03  0.25500000000E-02 0.  1.
    8880023    1    1    2    0    0 -0.33285950431E+03 -0.90164577056E+02  0.86367832157E+03  0.11395944673E+04  0.65864270000E+03 0.  0.
    8880022    1    1    2    0    0  0.33285950431E+03  0.90164577056E+02 -0.25940686452E+03  0.45783039975E+03  0.15294330000E+03 0.  0.
<mgrwt>
<rscale>  0 0.62748154E+03</rscale>
<asrwt>0</asrwt>
<pdfrwt beam="1">  1        2 0.16936125E+00 0.74346171E+03</pdfrwt>
<pdfrwt beam="2">  1       -2 0.76396417E-01 0.74346171E+03</pdfrwt>
<totfact> 0.33945304E+01</totfact>
</mgrwt>
</event>
<event>
 4    1  0.6502538E-008  0.8158942E+03  0.7818608E-02  0.9677428E-01
          2   -1    0    0  501    0  0.00000000000E+00  0.00000000000E+00  0.11256034162E+04  0.11256034162E+04  0.25500000000E-02 0. -1.
         -2   -1    0    0    0  501 -0.00000000000E+00 -0.00000000000E+00 -0.41812339315E+03  0.41812339316E+03  0.25500000000E-02 0.  1.
    8880023    1    1    2    0    0  0.36818999260E+03  0.31033724747E+03  0.63380359904E+03  0.10331458204E+04  0.65864270000E+03 0. -1.
    8880022    1    1    2    0    0 -0.36818999260E+03 -0.31033724747E+03  0.73676424026E+02  0.51058098896E+03  0.15294330000E+03 0.  0.
<mgrwt>
<rscale>  0 0.72376774E+03</rscale>
<asrwt>0</asrwt>
<pdfrwt beam="1">  1        2 0.17316975E+00 0.81589416E+03</pdfrwt>
<pdfrwt beam="2">  1       -2 0.64326677E-01 0.81589416E+03</pdfrwt>
<totfact> 0.47423753E+01</totfact>
</mgrwt>
</event>
<event>
 4    1  0.6502538E-008  0.7746090E+03  0.7818608E-02  0.9768656E-01
          2   -1    0    0  501    0  0.00000000000E+00  0.00000000000E+00  0.21719013848E+04  0.21719013848E+04  0.25500000000E-02 0. -1.
         -2   -1    0    0    0  501 -0.00000000000E+00 -0.00000000000E+00 -0.63837700799E+03  0.63837700799E+03  0.25500000000E-02 0.  1.
    8880023    1    1    2    0    0 -0.40701238764E+03 -0.23447520719E+02  0.20164027017E+04  0.21600691961E+04  0.65864270000E+03 0. -1.
    8880022    1    1    2    0    0  0.40701238764E+03  0.23447520719E+02 -0.48287832488E+03  0.65020919678E+03  0.15294330000E+03 0.  0.
<mgrwt>
<rscale>  0 0.67072090E+03</rscale>
<asrwt>0</asrwt>
<pdfrwt beam="1">  1        2 0.33413868E+00 0.77460898E+03</pdfrwt>
<pdfrwt beam="2">  1       -2 0.98211846E-01 0.77460898E+03</pdfrwt>
<totfact> 0.47834465E+00</totfact>
</mgrwt>
</event>
<event>
 4    1  0.6502538E-008  0.8583308E+03  0.7818608E-02  0.9596540E-01
          2   -1    0    0  501    0  0.00000000000E+00  0.00000000000E+00  0.14095521419E+04  0.14095521419E+04  0.25500000000E-02 0. -1.
         -2   -1    0    0    0  501 -0.00000000000E+00 -0.00000000000E+00 -0.59423978778E+03  0.59423978779E+03  0.25500000000E-02 0.  1.
    8880023    1    1    2    0    0  0.15708752186E+03  0.52748938273E+03  0.10755575050E+04  0.13760652933E+04  0.65864270000E+03 0. -1.
    8880022    1    1    2    0    0 -0.15708752186E+03 -0.52748938273E+03 -0.26024515095E+03  0.62772663639E+03  0.15294330000E+03 0.  0.
<mgrwt>
<rscale>  0 0.77525638E+03</rscale>
<asrwt>0</asrwt>
<pdfrwt beam="1">  1        2 0.21685417E+00 0.85833079E+03</pdfrwt>
<pdfrwt beam="2">  1       -2 0.91421507E-01 0.85833079E+03</pdfrwt>
<totfact> 0.14707140E+01</totfact>
</mgrwt>
</event>
<event>
 4    1  0.6723065E-008  0.8802772E+03  0.7818608E-02  0.9558465E-01
          2   -1    0    0  501    0  0.00000000000E+00  0.00000000000E+00  0.27237547245E+04  0.27237547245E+04  0.25500000000E-02 0. -1.
         -2   -1    0    0    0  501 -0.00000000000E+00 -0.00000000000E+00 -0.10149434087E+04  0.10149434087E+04  0.25500000000E-02 0.  1.
    8880023    1    1    2    0    0  0.25596239993E+03  0.52493910801E+03  0.25532006356E+04  0.27006890804E+04  0.65864270000E+03 0. -1.
    8880022    1    1    2    0    0 -0.25596239993E+03 -0.52493910801E+03 -0.84438931982E+03  0.10380090528E+04  0.15294330000E+03 0.  0.
<mgrwt>
<rscale>  0 0.80107329E+03</rscale>
<asrwt>0</asrwt>
<pdfrwt beam="1">  1        2 0.41903918E+00 0.88027724E+03</pdfrwt>
<pdfrwt beam="2">  1       -2 0.15614514E+00 0.88027724E+03</pdfrwt>
<totfact> 0.71380718E-01</totfact>
</mgrwt>
</event>
<event>
 4    1  0.6502538E-008  0.7238774E+03  0.7818608E-02  0.9909678E-01
          2   -1    0    0  501    0  0.00000000000E+00  0.00000000000E+00  0.18057311413E+04  0.18057311413E+04  0.25500000000E-02 0. -1.
         -2   -1    0    0    0  501 -0.00000000000E+00 -0.00000000000E+00 -0.67277422860E+03  0.67277422860E+03  0.25500000000E-02 0.  1.
    8880023    1    1    2    0    0  0.21870423373E+03  0.20580767306E+03  0.16837643657E+04  0.18327741229E+04  0.65864270000E+03 0. -1.
    8880022    1    1    2    0    0 -0.21870423373E+03 -0.20580767306E+03 -0.55080745296E+03  0.64573124703E+03  0.15294330000E+03 0.  0.
<mgrwt>
<rscale>  0 0.59794537E+03</rscale>
<asrwt>0</asrwt>
<pdfrwt beam="1">  1        2 0.27780479E+00 0.72387744E+03</pdfrwt>
<pdfrwt beam="2">  1       -2 0.10350373E+00 0.72387744E+03</pdfrwt>
<totfact> 0.67482778E+00</totfact>
</mgrwt>
</event>
<event>
 4    1  0.6502538E-008  0.8411574E+03  0.7818608E-02  0.9628002E-01
         -2   -1    0    0    0  501 -0.00000000000E+00  0.00000000000E+00  0.12327255957E+04  0.12327255957E+04  0.25500000000E-02 0.  1.
          2   -1    0    0  501    0  0.00000000000E+00 -0.00000000000E+00 -0.12595313054E+04  0.12595313054E+04  0.25500000000E-02 0. -1.
    8880023    1    1    2    0    0 -0.26283622413E+03 -0.45238561330E+03 -0.10425019028E+04  0.13395357582E+04  0.65864270000E+03 0.  0.
    8880022    1    1    2    0    0  0.26283622413E+03  0.45238561330E+03  0.10156961931E+04  0.11527211430E+04  0.15294330000E+03 0.  0.
<mgrwt>
<rscale>  0 0.75470249E+03</rscale>
<asrwt>0</asrwt>
<pdfrwt beam="1">  1        2 0.19377405E+00 0.84115743E+03</pdfrwt>
<pdfrwt beam="2">  1       -2 0.18965009E+00 0.84115743E+03</pdfrwt>
<totfact> 0.27550000E+00</totfact>
</mgrwt>
</event>
<event>
 4    1  0.6502538E-008  0.1120569E+04  0.7818608E-02  0.9238494E-01
         -2   -1    0    0    0  501 -0.00000000000E+00  0.00000000000E+00  0.90047152504E+03  0.90047152504E+03  0.25500000000E-02 0.  1.
          2   -1    0    0  501    0  0.00000000000E+00 -0.00000000000E+00 -0.24555401882E+04  0.24555401882E+04  0.25500000000E-02 0. -1.
    8880023    1    1    2    0    0 -0.90655105090E+03 -0.54009860683E+01 -0.20318465048E+04  0.23203608348E+04  0.65864270000E+03 0.  0.
    8880022    1    1    2    0    0  0.90655105090E+03  0.54009860683E+01  0.47677784167E+03  0.10356508784E+04  0.15294330000E+03 0.  0.
<mgrwt>
<rscale>  0 0.10664792E+04</rscale>
<asrwt>0</asrwt>
<pdfrwt beam="1">  1        2 0.37777541E+00 0.11205687E+04</pdfrwt>
<pdfrwt beam="2">  1       -2 0.13853408E+00 0.11205687E+04</pdfrwt>
<totfact> 0.13473894E+00</totfact>
</mgrwt>
</event>
<event>
 4    1  0.6502538E-008  0.6940880E+03  0.7818608E-02  0.1002267E+00
          2   -1    0    0  501    0  0.00000000000E+00  0.00000000000E+00  0.40644265806E+04  0.40644265806E+04  0.25500000000E-02 0. -1.
         -2   -1    0    0    0  501 -0.00000000000E+00 -0.00000000000E+00 -0.79631568515E+02  0.79631568555E+02  0.25500000000E-02 0.  1.
    8880023    1    1    2    0    0  0.17786965922E+03 -0.12771177441E+03  0.36518154680E+04  0.37171917265E+04  0.65864270000E+03 0. -1.
    8880022    1    1    2    0    0 -0.17786965922E+03  0.12771177441E+03  0.33297954408E+03  0.42686642265E+03  0.15294330000E+03 0.  0.
<mgrwt>
<rscale>  0 0.54667246E+03</rscale>
<asrwt>0</asrwt>
<pdfrwt beam="1">  1        2 0.62529640E+00 0.69408798E+03</pdfrwt>
<pdfrwt beam="2">  1       -2 0.12251010E-01 0.69408798E+03</pdfrwt>
<totfact> 0.16643013E+01</totfact>
</mgrwt>
</event>
<event>
 4    1  0.6502538E-008  0.7043655E+03  0.7818608E-02  0.9979552E-01
          2   -1    0    0  501    0  0.00000000000E+00  0.00000000000E+00  0.26131670246E+04  0.26131670246E+04  0.25500000000E-02 0. -1.
         -2   -1    0    0    0  501 -0.00000000000E+00 -0.00000000000E+00 -0.51814521258E+03  0.51814521258E+03  0.25500000000E-02 0.  1.
    8880023    1    1    2    0    0  0.74327118176E+02  0.23831915705E+03  0.25192520568E+04  0.26158672889E+04  0.65864270000E+03 0. -1.
    8880022    1    1    2    0    0 -0.74327118176E+02 -0.23831915705E+03 -0.42423024479E+03  0.51544494829E+03  0.15294330000E+03 0.  0.
<mgrwt>
<rscale>  0 0.56556025E+03</rscale>
<asrwt>0</asrwt>
<pdfrwt beam="1">  1        2 0.40202570E+00 0.70436549E+03</pdfrwt>
<pdfrwt beam="2">  1       -2 0.79714647E-01 0.70436549E+03</pdfrwt>
<totfact> 0.44269220E+00</totfact>
</mgrwt>
</event>
<event>
 4    1  0.6502538E-008  0.7454278E+03  0.7818608E-02  0.9844409E-01
         -2   -1    0    0    0  501 -0.00000000000E+00  0.00000000000E+00  0.76788453732E+03  0.76788453733E+03  0.25500000000E-02 0.  1.
          2   -1    0    0  501    0  0.00000000000E+00 -0.00000000000E+00 -0.20565374979E+04  0.20565374979E+04  0.25500000000E-02 0. -1.
    8880023    1    1    2    0    0 -0.13141218510E+03  0.32339325873E+03 -0.19352597104E+04  0.20738593769E+04  0.65864270000E+03 0. -1.
    8880022    1    1    2    0    0  0.13141218510E+03 -0.32339325873E+03  0.64660674981E+03  0.75056265834E+03  0.15294330000E+03 0.  0.
<mgrwt>
<rscale>  0 0.63032780E+03</rscale>
<asrwt>0</asrwt>
<pdfrwt beam="1">  1        2 0.31639038E+00 0.74542778E+03</pdfrwt>
<pdfrwt beam="2">  1       -2 0.11813608E+00 0.74542778E+03</pdfrwt>
<totfact> 0.35627888E+00</totfact>
</mgrwt>
</event>
<event>
 4    1  0.6502538E-008  0.2218145E+04  0.7818608E-02  0.8520877E-01
          2   -1    0    0  501    0  0.00000000000E+00  0.00000000000E+00  0.41887948949E+04  0.41887948949E+04  0.25500000000E-02 0. -1.
         -2   -1    0    0    0  501 -0.00000000000E+00 -0.00000000000E+00 -0.13344009974E+04  0.13344009974E+04  0.25500000000E-02 0.  1.
    8880023    1    1    2    0    0 -0.87369216409E+03  0.19295131909E+04  0.25469428926E+04  0.33774380018E+04  0.65864270000E+03 0.  0.
    8880022    1    1    2    0    0  0.87369216409E+03 -0.19295131909E+04  0.30745100488E+03  0.21457578905E+04  0.15294330000E+03 0.  0.
<mgrwt>
<rscale>  0 0.21941261E+04</rscale>
<asrwt>0</asrwt>
<pdfrwt beam="1">  1        2 0.64442998E+00 0.22181455E+04</pdfrwt>
<pdfrwt beam="2">  1       -2 0.20529246E+00 0.22181455E+04</pdfrwt>
<totfact> 0.25570233E-02</totfact>
</mgrwt>
</event>
<event>
 4    1  0.6502538E-008  0.8791412E+03  0.7818608E-02  0.9560382E-01
         -2   -1    0    0    0  501 -0.00000000000E+00  0.00000000000E+00  0.39392568975E+03  0.39392568976E+03  0.25500000000E-02 0.  1.
          2   -1    0    0  501    0  0.00000000000E+00 -0.00000000000E+00 -0.17168096674E+04  0.17168096674E+04  0.25500000000E-02 0. -1.
    8880023    1    1    2    0    0  0.34158707651E+03  0.47159024482E+03 -0.12140291419E+04  0.14989182945E+04  0.65864270000E+03 0. -1.
    8880022    1    1    2    0    0 -0.34158707651E+03 -0.47159024482E+03 -0.10885483567E+03  0.61181706262E+03  0.15294330000E+03 0.  0.
<mgrwt>
<rscale>  0 0.79974789E+03</rscale>
<asrwt>0</asrwt>
<pdfrwt beam="1">  1        2 0.26412456E+00 0.87914123E+03</pdfrwt>
<pdfrwt beam="2">  1       -2 0.60603953E-01 0.87914123E+03</pdfrwt>
<totfact> 0.24637626E+01</totfact>
</mgrwt>
</event>
<event>
 4    1  0.6502538E-008  0.1008180E+04  0.7818608E-02  0.9370933E-01
         -2   -1    0    0    0  501 -0.00000000000E+00  0.00000000000E+00  0.92104620273E+03  0.92104620273E+03  0.25500000000E-02 0.  1.
          2   -1    0    0  501    0  0.00000000000E+00 -0.00000000000E+00 -0.16346974459E+04  0.16346974459E+04  0.25500000000E-02 0. -1.
    8880023    1    1    2    0    0 -0.29981758024E+03  0.70194498208E+03 -0.12533352634E+04  0.16085014231E+04  0.65864270000E+03 0. -1.
    8880022    1    1    2    0    0  0.29981758024E+03 -0.70194498208E+03  0.53968402019E+03  0.94724222560E+03  0.15294330000E+03 0.  0.
<mgrwt>
<rscale>  0 0.94506906E+03</rscale>
<asrwt>0</asrwt>
<pdfrwt beam="1">  1        2 0.25149191E+00 0.10081803E+04</pdfrwt>
<pdfrwt beam="2">  1       -2 0.14169942E+00 0.10081803E+04</pdfrwt>
<totfact> 0.36857911E+00</totfact>
</mgrwt>
</event>
<event>
 4    1  0.6502538E-008  0.7832370E+03  0.7818608E-02  0.9748287E-01
         -2   -1    0    0    0  501 -0.00000000000E+00  0.00000000000E+00  0.55013434123E+03  0.55013434123E+03  0.25500000000E-02 0.  1.
          2   -1    0    0  501    0  0.00000000000E+00 -0.00000000000E+00 -0.78502765668E+03  0.78502765668E+03  0.25500000000E-02 0. -1.
    8880023    1    1    2    0    0  0.23458237744E+02  0.42320174624E+03 -0.36790260467E+03  0.86533955169E+03  0.65864270000E+03 0. -1.
    8880022    1    1    2    0    0 -0.23458237744E+02 -0.42320174624E+03  0.13300928921E+03  0.46982244622E+03  0.15294330000E+03 0.  0.
<mgrwt>
<rscale>  0 0.68213141E+03</rscale>
<asrwt>0</asrwt>
<pdfrwt beam="1">  1        2 0.12077349E+00 0.78323701E+03</pdfrwt>
<pdfrwt beam="2">  1       -2 0.84636052E-01 0.78323701E+03</pdfrwt>
<totfact> 0.43450676E+01</totfact>
</mgrwt>
</event>
<event>
 4    1  0.6502538E-008  0.9308977E+03  0.7818608E-02  0.9478148E-01
          2   -1    0    0  501    0  0.00000000000E+00  0.00000000000E+00  0.68059895389E+03  0.68059895389E+03  0.25500000000E-02 0. -1.
         -2   -1    0    0    0  501 -0.00000000000E+00 -0.00000000000E+00 -0.18318469265E+04  0.18318469265E+04  0.25500000000E-02 0.  1.
    8880023    1    1    2    0    0 -0.63245020042E+03 -0.18101659268E+03  0.24398496347E+03  0.96234044470E+03  0.65864270000E+03 0. -1.
    8880022    1    1    2    0    0  0.63245020042E+03  0.18101659268E+03 -0.13952329361E+04  0.15501054357E+04  0.15294330000E+03 0.  0.
<mgrwt>
<rscale>  0 0.85914238E+03</rscale>
<asrwt>0</asrwt>
<pdfrwt beam="1">  1        2 0.10470753E+00 0.93089767E+03</pdfrwt>
<pdfrwt beam="2">  1       -2 0.28182260E+00 0.93089767E+03</pdfrwt>
<totfact> 0.17624319E+00</totfact>
</mgrwt>
</event>
<event>
 4    1  0.6502538E-008  0.1554836E+04  0.7818608E-02  0.8871855E-01
         -2   -1    0    0    0  501 -0.00000000000E+00  0.00000000000E+00  0.17268295156E+04  0.17268295156E+04  0.25500000000E-02 0.  1.
          2   -1    0    0  501    0  0.00000000000E+00 -0.00000000000E+00 -0.16594053735E+04  0.16594053735E+04  0.25500000000E-02 0. -1.
    8880023    1    1    2    0    0 -0.39959080138E+02  0.14078731901E+04  0.84556095423E+03  0.17698833806E+04  0.65864270000E+03 0. -1.
    8880022    1    1    2    0    0  0.39959080138E+02 -0.14078731901E+04 -0.77813681218E+03  0.16163515085E+04  0.15294330000E+03 0.  0.
<mgrwt>
<rscale>  0 0.15190930E+04</rscale>
<asrwt>0</asrwt>
<pdfrwt beam="1">  1        2 0.25529314E+00 0.15548356E+04</pdfrwt>
<pdfrwt beam="2">  1       -2 0.26566608E+00 0.15548356E+04</pdfrwt>
<totfact> 0.49700369E-01</totfact>
</mgrwt>
</event>
<event>
 4    1  0.6502538E-008  0.6930214E+03  0.7818608E-02  0.1002748E+00
          2   -1    0    0  501    0  0.00000000000E+00  0.00000000000E+00  0.21584444863E+04  0.21584444863E+04  0.25500000000E-02 0. -1.
         -2   -1    0    0    0  501 -0.00000000000E+00 -0.00000000000E+00 -0.40859217520E+03  0.40859217521E+03  0.25500000000E-02 0.  1.
    8880023    1    1    2    0    0  0.10403616567E+03  0.18879877115E+03  0.20518411001E+04  0.21657171113E+04  0.65864270000E+03 0.  0.
    8880022    1    1    2    0    0 -0.10403616567E+03 -0.18879877115E+03 -0.30198878897E+03  0.40131955027E+03  0.15294330000E+03 0.  0.
<mgrwt>
<rscale>  0 0.54461386E+03</rscale>
<asrwt>0</asrwt>
<pdfrwt beam="1">  1        2 0.33206838E+00 0.69302143E+03</pdfrwt>
<pdfrwt beam="2">  1       -2 0.62860334E-01 0.69302143E+03</pdfrwt>
<totfact> 0.13397342E+01</totfact>
</mgrwt>
</event>
<event>
 4    1  0.6502538E-008  0.1014705E+04  0.7818608E-02  0.9362567E-01
         -2   -1    0    0    0  501 -0.00000000000E+00  0.00000000000E+00  0.82293815182E+03  0.82293815182E+03  0.25500000000E-02 0.  1.
          2   -1    0    0  501    0  0.00000000000E+00 -0.00000000000E+00 -0.11821757208E+04  0.11821757208E+04  0.25500000000E-02 0. -1.
    8880023    1    1    2    0    0 -0.39029082604E+03  0.66594929264E+03 -0.60420323035E+03  0.11809687291E+04  0.65864270000E+03 0.  0.
    8880022    1    1    2    0    0  0.39029082604E+03 -0.66594929264E+03  0.24496566141E+03  0.82414514349E+03  0.15294330000E+03 0.  0.
<mgrwt>
<rscale>  0 0.95221328E+03</rscale>
<asrwt>0</asrwt>
<pdfrwt beam="1">  1        2 0.18187319E+00 0.10147047E+04</pdfrwt>
<pdfrwt beam="2">  1       -2 0.12660587E+00 0.10147047E+04</pdfrwt>
<totfact> 0.89319644E+00</totfact>
</mgrwt>
</event>
<event>
 4    1  0.6502538E-008  0.7262974E+03  0.7818608E-02  0.9901826E-01
          2   -1    0    0  501    0  0.00000000000E+00  0.00000000000E+00  0.11008945914E+04  0.11008945914E+04  0.25500000000E-02 0. -1.
         -2   -1    0    0    0  501 -0.00000000000E+00 -0.00000000000E+00 -0.53841324562E+03  0.53841324563E+03  0.25500000000E-02 0.  1.
    8880023    1    1    2    0    0 -0.23862446610E+03  0.19171889698E+03  0.90146331391E+03  0.11576459234E+04  0.65864270000E+03 0.  0.
    8880022    1    1    2    0    0  0.23862446610E+03 -0.19171889698E+03 -0.33898196817E+03  0.48166191363E+03  0.15294330000E+03 0.  0.
<mgrwt>
<rscale>  0 0.60172852E+03</rscale>
<asrwt>0</asrwt>
<pdfrwt beam="1">  1        2 0.16936840E+00 0.72629744E+03</pdfrwt>
<pdfrwt beam="2">  1       -2 0.82832806E-01 0.72629744E+03</pdfrwt>
<totfact> 0.28355347E+01</totfact>
</mgrwt>
</event>
<event>
 4    1  0.6502538E-008  0.7291229E+03  0.7818608E-02  0.9892845E-01
          2   -1    0    0  501    0  0.00000000000E+00  0.00000000000E+00  0.12454022008E+04  0.12454022008E+04  0.25500000000E-02 0. -1.
         -2   -1    0    0    0  501 -0.00000000000E+00 -0.00000000000E+00 -0.43965744601E+03  0.43965744602E+03  0.25500000000E-02 0.  1.
    8880023    1    1    2    0    0 -0.30712745742E+03  0.59014463215E+02  0.10365920821E+04  0.12673371031E+04  0.65864270000E+03 0. -1.
    8880022    1    1    2    0    0  0.30712745742E+03 -0.59014463215E+02 -0.23084732733E+03  0.41772254371E+03  0.15294330000E+03 0.  0.
<mgrwt>
<rscale>  0 0.60609278E+03</rscale>
<asrwt>0</asrwt>
<pdfrwt beam="1">  1        2 0.19160033E+00 0.72912289E+03</pdfrwt>
<pdfrwt beam="2">  1       -2 0.67639609E-01 0.72912289E+03</pdfrwt>
<totfact> 0.36409293E+01</totfact>
</mgrwt>
</event>
<event>
 4    1  0.6502538E-008  0.1860438E+04  0.7818608E-02  0.8689821E-01
          2   -1    0    0  501    0  0.00000000000E+00  0.00000000000E+00  0.23002481218E+04  0.23002481218E+04  0.25500000000E-02 0. -1.
         -2   -1    0    0    0  501 -0.00000000000E+00 -0.00000000000E+00 -0.14756949244E+04  0.14756949244E+04  0.25500000000E-02 0.  1.
    8880023    1    1    2    0    0 -0.16481527231E+04 -0.55768568512E+03  0.39210490950E+02  0.18608515231E+04  0.65864270000E+03 0.  0.
    8880022    1    1    2    0    0  0.16481527231E+04  0.55768568512E+03  0.78534270642E+03  0.19150915231E+04  0.15294330000E+03 0.  0.
<mgrwt>
<rscale>  0 0.18313165E+04</rscale>
<asrwt>0</asrwt>
<pdfrwt beam="1">  1        2 0.35388432E+00 0.18604384E+04</pdfrwt>
<pdfrwt beam="2">  1       -2 0.22702999E+00 0.18604384E+04</pdfrwt>
<totfact> 0.36587840E-01</totfact>
</mgrwt>
</event>
<event>
 4    1  0.6502538E-008  0.1163188E+04  0.7818608E-02  0.9193764E-01
          2   -1    0    0  501    0  0.00000000000E+00  0.00000000000E+00  0.13813622959E+04  0.13813622959E+04  0.25500000000E-02 0. -1.
         -2   -1    0    0    0  501 -0.00000000000E+00 -0.00000000000E+00 -0.98669172674E+03  0.98669172674E+03  0.25500000000E-02 0.  1.
    8880023    1    1    2    0    0 -0.85706457230E+03 -0.42969459932E+03  0.69101551520E+03  0.13529633322E+04  0.65864270000E+03 0.  0.
    8880022    1    1    2    0    0  0.85706457230E+03  0.42969459932E+03 -0.29634494603E+03  0.10150906904E+04  0.15294330000E+03 0.  0.
<mgrwt>
<rscale>  0 0.11118030E+04</rscale>
<asrwt>0</asrwt>
<pdfrwt beam="1">  1        2 0.21251728E+00 0.11631884E+04</pdfrwt>
<pdfrwt beam="2">  1       -2 0.15179873E+00 0.11631884E+04</pdfrwt>
<totfact> 0.41996200E+00</totfact>
</mgrwt>
</event>
<event>
 4    1  0.6502538E-008  0.2282963E+04  0.7818608E-02  0.8493992E-01
          2   -1    0    0  501    0  0.00000000000E+00  0.00000000000E+00  0.25877623260E+04  0.25877623260E+04  0.25500000000E-02 0. -1.
         -2   -1    0    0    0  501 -0.00000000000E+00 -0.00000000000E+00 -0.22119287725E+04  0.22119287725E+04  0.25500000000E-02 0.  1.
    8880023    1    1    2    0    0 -0.16848272365E+04 -0.13926475128E+04  0.10418795000E+04  0.25094686710E+04  0.65864270000E+03 0.  0.
    8880022    1    1    2    0    0  0.16848272365E+04  0.13926475128E+04 -0.66604594640E+03  0.22902224275E+04  0.15294330000E+03 0.  0.
<mgrwt>
<rscale>  0 0.22596766E+04</rscale>
<asrwt>0</asrwt>
<pdfrwt beam="1">  1        2 0.39811728E+00 0.22829630E+04</pdfrwt>
<pdfrwt beam="2">  1       -2 0.34029674E+00 0.22829630E+04</pdfrwt>
<totfact> 0.47637620E-02</totfact>
</mgrwt>
</event>
<event>
 4    1  0.6502538E-008  0.9521487E+03  0.7818608E-02  0.9447029E-01
         -2   -1    0    0    0  501 -0.00000000000E+00  0.00000000000E+00  0.68544832766E+03  0.68544832767E+03  0.25500000000E-02 0.  1.
          2   -1    0    0  501    0  0.00000000000E+00 -0.00000000000E+00 -0.28021079422E+04  0.28021079422E+04  0.25500000000E-02 0. -1.
    8880023    1    1    2    0    0  0.33836710791E+03  0.59856876422E+03 -0.25073645088E+04  0.26820633571E+04  0.65864270000E+03 0. -1.
    8880022    1    1    2    0    0 -0.33836710791E+03 -0.59856876422E+03  0.39070489422E+03  0.80549291282E+03  0.15294330000E+03 0.  0.
<mgrwt>
<rscale>  0 0.88304375E+03</rscale>
<asrwt>0</asrwt>
<pdfrwt beam="1">  1        2 0.43109352E+00 0.95214866E+03</pdfrwt>
<pdfrwt beam="2">  1       -2 0.10545359E+00 0.95214866E+03</pdfrwt>
<totfact> 0.17145261E+00</totfact>
</mgrwt>
</event>
<event>
 4    1  0.6502538E-008  0.2061642E+04  0.7818608E-02  0.8590138E-01
          2   -1    0    0  501    0  0.00000000000E+00  0.00000000000E+00  0.20510528886E+04  0.20510528886E+04  0.25500000000E-02 0. -1.
         -2   -1    0    0    0  501 -0.00000000000E+00 -0.00000000000E+00 -0.26960020447E+04  0.26960020447E+04  0.25500000000E-02 0.  1.
    8880023    1    1    2    0    0  0.24672146888E+03 -0.19379588536E+04  0.90212806570E+03  0.22503780249E+04  0.65864270000E+03 0.  0.
    8880022    1    1    2    0    0 -0.24672146888E+03  0.19379588536E+04 -0.15470772218E+04  0.24966769084E+04  0.15294330000E+03 0.  0.
<mgrwt>
<rscale>  0 0.20356380E+04</rscale>
<asrwt>0</asrwt>
<pdfrwt beam="1">  1        2 0.31554660E+00 0.20616416E+04</pdfrwt>
<pdfrwt beam="2">  1       -2 0.41476955E+00 0.20616416E+04</pdfrwt>
<totfact> 0.32662256E-02</totfact>
</mgrwt>
</event>
<event>
 4    1  0.6502538E-008  0.1141524E+04  0.7818608E-02  0.9216174E-01
         -2   -1    0    0    0  501 -0.00000000000E+00  0.00000000000E+00  0.53841821003E+03  0.53841821004E+03  0.25500000000E-02 0.  1.
          2   -1    0    0  501    0  0.00000000000E+00 -0.00000000000E+00 -0.23308377250E+04  0.23308377250E+04  0.25500000000E-02 0. -1.
    8880023    1    1    2    0    0  0.29590935094E+03 -0.88414021876E+03 -0.14904442615E+04  0.18773653276E+04  0.65864270000E+03 0.  0.
    8880022    1    1    2    0    0 -0.29590935094E+03  0.88414021876E+03 -0.30197525347E+03  0.99189060744E+03  0.15294330000E+03 0.  0.
<mgrwt>
<rscale>  0 0.10888031E+04</rscale>
<asrwt>0</asrwt>
<pdfrwt beam="1">  1        2 0.35859042E+00 0.11415238E+04</pdfrwt>
<pdfrwt beam="2">  1       -2 0.82833572E-01 0.11415238E+04</pdfrwt>
<totfact> 0.55093357E+00</totfact>
</mgrwt>
</event>
<event>
 4    1  0.6502538E-008  0.1431679E+04  0.7818608E-02  0.8959450E-01
          2   -1    0    0  501    0  0.00000000000E+00  0.00000000000E+00  0.13338696138E+04  0.13338696138E+04  0.25500000000E-02 0. -1.
         -2   -1    0    0    0  501 -0.00000000000E+00 -0.00000000000E+00 -0.22768248508E+04  0.22768248508E+04  0.25500000000E-02 0.  1.
    8880023    1    1    2    0    0 -0.12689391717E+04  0.75411554865E+02 -0.16203219050E+04  0.21622087795E+04  0.65864270000E+03 0.  0.
    8880022    1    1    2    0    0  0.12689391717E+04 -0.75411554865E+02  0.67736666799E+03  0.14484856851E+04  0.15294330000E+03 0.  0.
<mgrwt>
<rscale>  0 0.13922460E+04</rscale>
<asrwt>0</asrwt>
<pdfrwt beam="1">  1        2 0.20521071E+00 0.14316786E+04</pdfrwt>
<pdfrwt beam="2">  1       -2 0.35028075E+00 0.14316786E+04</pdfrwt>
<totfact> 0.23292962E-01</totfact>
</mgrwt>
</event>
<event>
 4    1  0.6502538E-008  0.8588032E+03  0.7818608E-02  0.9595696E-01
          2   -1    0    0  501    0  0.00000000000E+00  0.00000000000E+00  0.63536124425E+03  0.63536124425E+03  0.25500000000E-02 0. -1.
         -2   -1    0    0    0  501 -0.00000000000E+00 -0.00000000000E+00 -0.13328358438E+04  0.13328358438E+04  0.25500000000E-02 0.  1.
    8880023    1    1    2    0    0 -0.40259295820E+03  0.37636627925E+03  0.22046808682E+03  0.88665046649E+03  0.65864270000E+03 0.  0.
    8880022    1    1    2    0    0  0.40259295820E+03 -0.37636627925E+03 -0.91794268637E+03  0.10815466216E+04  0.15294330000E+03 0.  0.
<mgrwt>
<rscale>  0 0.77581707E+03</rscale>
<asrwt>0</asrwt>
<pdfrwt beam="1">  1        2 0.97747884E-01 0.85880316E+03</pdfrwt>
<pdfrwt beam="2">  1       -2 0.20505167E+00 0.85880316E+03</pdfrwt>
<totfact> 0.57485823E+00</totfact>
</mgrwt>
</event>
<event>
 4    1  0.6502538E-008  0.8282595E+03  0.7818608E-02  0.9652728E-01
          2   -1    0    0  501    0  0.00000000000E+00  0.00000000000E+00  0.33609229739E+04  0.33609229739E+04  0.25500000000E-02 0. -1.
         -2   -1    0    0    0  501 -0.00000000000E+00 -0.00000000000E+00 -0.19241632424E+03  0.19241632426E+03  0.25500000000E-02 0.  1.
    8880023    1    1    2    0    0  0.38746357929E+03 -0.31949258788E+03  0.27785769930E+04  0.28993971531E+04  0.65864270000E+03 0.  0.
    8880022    1    1    2    0    0 -0.38746357929E+03  0.31949258788E+03  0.38992965672E+03  0.65394214514E+03  0.15294330000E+03 0.  0.
<mgrwt>
<rscale>  0 0.73902437E+03</rscale>
<asrwt>0</asrwt>
<pdfrwt beam="1">  1        2 0.51706507E+00 0.82825947E+03</pdfrwt>
<pdfrwt beam="2">  1       -2 0.29602512E-01 0.82825947E+03</pdfrwt>
<totfact> 0.11285090E+01</totfact>
</mgrwt>
</event>
<event>
 4    1  0.6502538E-008  0.8225903E+03  0.7818608E-02  0.9663925E-01
          2   -1    0    0  501    0  0.00000000000E+00  0.00000000000E+00  0.23858983435E+04  0.23858983435E+04  0.25500000000E-02 0. -1.
         -2   -1    0    0    0  501 -0.00000000000E+00 -0.00000000000E+00 -0.73619171105E+03  0.73619171106E+03  0.25500000000E-02 0.  1.
    8880023    1    1    2    0    0  0.49276994381E+03  0.47260139895E+01  0.22113621882E+04  0.23594019341E+04  0.65864270000E+03 0.  0.
    8880022    1    1    2    0    0 -0.49276994381E+03 -0.47260139895E+01 -0.56165555580E+03  0.76268812047E+03  0.15294330000E+03 0.  0.
<mgrwt>
<rscale>  0 0.73205897E+03</rscale>
<asrwt>0</asrwt>
<pdfrwt beam="1">  1        2 0.36706129E+00 0.82259027E+03</pdfrwt>
<pdfrwt beam="2">  1       -2 0.11326026E+00 0.82259027E+03</pdfrwt>
<totfact> 0.25617240E+00</totfact>
</mgrwt>
</event>
<event>
 4    1  0.6502538E-008  0.9797013E+03  0.7818608E-02  0.9408610E-01
         -2   -1    0    0    0  501 -0.00000000000E+00  0.00000000000E+00  0.43628283407E+03  0.43628283407E+03  0.25500000000E-02 0.  1.
          2   -1    0    0  501    0  0.00000000000E+00 -0.00000000000E+00 -0.25476950420E+04  0.25476950420E+04  0.25500000000E-02 0. -1.
    8880023    1    1    2    0    0  0.56647604201E+03  0.45288993009E+03 -0.20097523947E+04  0.22358263102E+04  0.65864270000E+03 0.  0.
    8880022    1    1    2    0    0 -0.56647604201E+03 -0.45288993009E+03 -0.10165981324E+03  0.74815156592E+03  0.15294330000E+03 0.  0.
<mgrwt>
<rscale>  0 0.91370489E+03</rscale>
<asrwt>0</asrwt>
<pdfrwt beam="1">  1        2 0.39195307E+00 0.97970128E+03</pdfrwt>
<pdfrwt beam="2">  1       -2 0.67120437E-01 0.97970128E+03</pdfrwt>
<totfact> 0.67510537E+00</totfact>
</mgrwt>
</event>
<event>
 4    1  0.6502538E-008  0.7976090E+03  0.7818608E-02  0.9715990E-01
         -2   -1    0    0    0  501 -0.00000000000E+00  0.00000000000E+00  0.98710552436E+03  0.98710552437E+03  0.25500000000E-02 0.  1.
          2   -1    0    0  501    0  0.00000000000E+00 -0.00000000000E+00 -0.71639560540E+03  0.71639560540E+03  0.25500000000E-02 0. -1.
    8880023    1    1    2    0    0 -0.41408018262E+03 -0.17580554651E+03 -0.39146313499E+03  0.88849512106E+03  0.65864270000E+03 0. -1.
    8880022    1    1    2    0    0  0.41408018262E+03  0.17580554651E+03  0.66217305396E+03  0.81500600871E+03  0.15294330000E+03 0.  0.
<mgrwt>
<rscale>  0 0.70072695E+03</rscale>
<asrwt>0</asrwt>
<pdfrwt beam="1">  1        2 0.11021471E+00 0.79760905E+03</pdfrwt>
<pdfrwt beam="2">  1       -2 0.15186239E+00 0.79760905E+03</pdfrwt>
<totfact> 0.11656490E+01</totfact>
</mgrwt>
</event>
<event>
 4    1  0.6502538E-008  0.2100525E+04  0.7818608E-02  0.8572316E-01
          2   -1    0    0  501    0  0.00000000000E+00  0.00000000000E+00  0.48318641322E+04  0.48318641322E+04  0.25500000000E-02 0. -1.
         -2   -1    0    0    0  501 -0.00000000000E+00 -0.00000000000E+00 -0.18135362262E+04  0.18135362262E+04  0.25500000000E-02 0.  1.
    8880023    1    1    2    0    0  0.17273222921E+04  0.99737305070E+03  0.39229550190E+04  0.44499192791E+04  0.65864270000E+03 0.  0.
    8880022    1    1    2    0    0 -0.17273222921E+04 -0.99737305070E+03 -0.90462711297E+03  0.21954810793E+04  0.15294330000E+03 0.  0.
<mgrwt>
<rscale>  0 0.20750456E+04</rscale>
<asrwt>0</asrwt>
<pdfrwt beam="1">  1        2 0.74336371E+00 0.21005251E+04</pdfrwt>
<pdfrwt beam="2">  1       -2 0.27900558E+00 0.21005251E+04</pdfrwt>
<totfact> 0.20649743E-03</totfact>
</mgrwt>
</event>
<event>
 4    1  0.6502538E-008  0.1765872E+04  0.7818608E-02  0.8741654E-01
         -2   -1    0    0    0  501 -0.00000000000E+00  0.00000000000E+00  0.15894332260E+04  0.15894332260E+04  0.25500000000E-02 0.  1.
          2   -1    0    0  501    0  0.00000000000E+00 -0.00000000000E+00 -0.24217409849E+04  0.24217409849E+04  0.25500000000E-02 0. -1.
    8880023    1    1    2    0    0 -0.86356303748E+03 -0.13923905328E+04 -0.14177405436E+04  0.22645730218E+04  0.65864270000E+03 0.  0.
    8880022    1    1    2    0    0  0.86356303748E+03  0.13923905328E+04  0.58543278473E+03  0.17466011892E+04  0.15294330000E+03 0.  0.
<mgrwt>
<rscale>  0 0.17349945E+04</rscale>
<asrwt>0</asrwt>
<pdfrwt beam="1">  1        2 0.37257554E+00 0.17658717E+04</pdfrwt>
<pdfrwt beam="2">  1       -2 0.24452819E+00 0.17658717E+04</pdfrwt>
<totfact> 0.24436581E-01</totfact>
</mgrwt>
</event>
<event>
 4    1  0.6502538E-008  0.2437682E+04  0.7818608E-02  0.8433548E-01
          2   -1    0    0  501    0  0.00000000000E+00  0.00000000000E+00  0.28136290727E+04  0.28136290727E+04  0.25500000000E-02 0. -1.
         -2   -1    0    0    0  501 -0.00000000000E+00 -0.00000000000E+00 -0.20749601979E+04  0.20749601979E+04  0.25500000000E-02 0.  1.
    8880023    1    1    2    0    0 -0.23039585488E+04  0.44750218611E+03  0.51339032777E+02  0.24382225295E+04  0.65864270000E+03 0.  1.
    8880022    1    1    2    0    0  0.23039585488E+04 -0.44750218611E+03  0.68732984197E+03  0.24503667411E+04  0.15294330000E+03 0.  0.
<mgrwt>
<rscale>  0 0.24159716E+04</rscale>
<asrwt>0</asrwt>
<pdfrwt beam="1">  1        2 0.43286601E+00 0.24376820E+04</pdfrwt>
<pdfrwt beam="2">  1       -2 0.31922465E+00 0.24376820E+04</pdfrwt>
<totfact> 0.46580581E-02</totfact>
</mgrwt>
</event>
<event>
 4    1  0.6502538E-008  0.6769808E+03  0.7818608E-02  0.1011086E+00
          2   -1    0    0  501    0  0.00000000000E+00  0.00000000000E+00  0.20218201549E+04  0.20218201549E+04  0.25500000000E-02 0. -1.
         -2   -1    0    0    0  501 -0.00000000000E+00 -0.00000000000E+00 -0.34067722460E+03  0.34067722461E+03  0.25500000000E-02 0.  1.
    8880023    1    1    2    0    0 -0.14510136708E+03  0.58637669624E+02  0.19216073824E+04  0.20373703447E+04  0.65864270000E+03 0.  0.
    8880022    1    1    2    0    0  0.14510136708E+03 -0.58637669624E+02 -0.24046445211E+03  0.32512703482E+03  0.15294330000E+03 0.  0.
<mgrwt>
<rscale>  0 0.51045393E+03</rscale>
<asrwt>0</asrwt>
<pdfrwt beam="1">  1        2 0.31104925E+00 0.67698079E+03</pdfrwt>
<pdfrwt beam="2">  1       -2 0.52411881E-01 0.67698079E+03</pdfrwt>
<totfact> 0.23322872E+01</totfact>
</mgrwt>
</event>
<event>
 4    1  0.6502538E-008  0.8873430E+03  0.7818608E-02  0.9546663E-01
          2   -1    0    0  501    0  0.00000000000E+00  0.00000000000E+00  0.21943994884E+04  0.21943994884E+04  0.25500000000E-02 0. -1.
         -2   -1    0    0    0  501 -0.00000000000E+00 -0.00000000000E+00 -0.40940881431E+03  0.40940881432E+03  0.25500000000E-02 0.  1.
    8880023    1    1    2    0    0 -0.49750473204E+03 -0.32566307384E+03  0.17810188389E+04  0.19898255468E+04  0.65864270000E+03 0.  0.
    8880022    1    1    2    0    0  0.49750473204E+03  0.32566307384E+03  0.39718352171E+01  0.61398275591E+03  0.15294330000E+03 0.  0.
<mgrwt>
<rscale>  0 0.80929232E+03</rscale>
<asrwt>0</asrwt>
<pdfrwt beam="1">  1        2 0.33759993E+00 0.88734300E+03</pdfrwt>
<pdfrwt beam="2">  1       -2 0.62985970E-01 0.88734300E+03</pdfrwt>
<totfact> 0.12391592E+01</totfact>
</mgrwt>
</event>
<event>
 4    1  0.6502538E-008  0.7388630E+03  0.7818608E-02  0.9863272E-01
         -2   -1    0    0    0  501 -0.00000000000E+00  0.00000000000E+00  0.69094053673E+03  0.69094053673E+03  0.25500000000E-02 0.  1.
          2   -1    0    0  501    0  0.00000000000E+00 -0.00000000000E+00 -0.15116234481E+04  0.15116234481E+04  0.25500000000E-02 0. -1.
    8880023    1    1    2    0    0  0.20084439964E+03  0.26789887573E+03 -0.13610868423E+04  0.15487013524E+04  0.65864270000E+03 0. -1.
    8880022    1    1    2    0    0 -0.20084439964E+03 -0.26789887573E+03  0.54040393092E+03  0.65386263240E+03  0.15294330000E+03 0.  0.
<mgrwt>
<rscale>  0 0.62074797E+03</rscale>
<asrwt>0</asrwt>
<pdfrwt beam="1">  1        2 0.23255745E+00 0.73886297E+03</pdfrwt>
<pdfrwt beam="2">  1       -2 0.10629854E+00 0.73886297E+03</pdfrwt>
<totfact> 0.91603049E+00</totfact>
</mgrwt>
</event>
<event>
 4    1  0.6502538E-008  0.2149432E+04  0.7818608E-02  0.8550492E-01
         -2   -1    0    0    0  501 -0.00000000000E+00  0.00000000000E+00  0.10894036982E+04  0.10894036982E+04  0.25500000000E-02 0.  1.
          2   -1    0    0  501    0  0.00000000000E+00 -0.00000000000E+00 -0.42522423869E+04  0.42522423869E+04  0.25500000000E-02 0. -1.
    8880023    1    1    2    0    0  0.70482206707E+03  0.19207998420E+04 -0.21982674424E+04  0.30744814414E+04  0.65864270000E+03 0.  0.
    8880022    1    1    2    0    0 -0.70482206707E+03 -0.19207998420E+04 -0.96457124643E+03  0.22671646437E+04  0.15294330000E+03 0.  0.
<mgrwt>
<rscale>  0 0.21245811E+04</rscale>
<asrwt>0</asrwt>
<pdfrwt beam="1">  1        2 0.65419113E+00 0.21494316E+04</pdfrwt>
<pdfrwt beam="2">  1       -2 0.16760057E+00 0.21494316E+04</pdfrwt>
<totfact> 0.41247900E-02</totfact>
</mgrwt>
</event>
<event>
 4    1  0.6502538E-008  0.1031493E+04  0.7818608E-02  0.9341467E-01
         -2   -1    0    0    0  501 -0.00000000000E+00  0.00000000000E+00  0.45324122322E+03  0.45324122323E+03  0.25500000000E-02 0.  1.
          2   -1    0    0  501    0  0.00000000000E+00 -0.00000000000E+00 -0.23604393622E+04  0.23604393622E+04  0.25500000000E-02 0. -1.
    8880023    1    1    2    0    0 -0.32522791589E+03 -0.72415143153E+03 -0.16843486505E+04  0.19750972320E+04  0.65864270000E+03 0.  0.
    8880022    1    1    2    0    0  0.32522791589E+03  0.72415143153E+03 -0.22284948838E+03  0.83858335337E+03  0.15294330000E+03 0.  0.
<mgrwt>
<rscale>  0 0.97053353E+03</rscale>
<asrwt>0</asrwt>
<pdfrwt beam="1">  1        2 0.36314451E+00 0.10314934E+04</pdfrwt>
<pdfrwt beam="2">  1       -2 0.69729420E-01 0.10314934E+04</pdfrwt>
<totfact> 0.78885047E+00</totfact>
</mgrwt>
</event>
<event>
 4    1  0.6502538E-008  0.9103670E+03  0.7818608E-02  0.9509590E-01
          2   -1    0    0  501    0  0.00000000000E+00  0.00000000000E+00  0.54458223347E+03  0.54458223348E+03  0.25500000000E-02 0. -1.
         -2   -1    0    0    0  501 -0.00000000000E+00 -0.00000000000E+00 -0.20112877145E+04  0.20112877145E+04  0.25500000000E-02 0.  1.
    8880023    1    1    2    0    0  0.50615927101E+03 -0.37250594221E+03 -0.16492327704E+04  0.18838091256E+04  0.65864270000E+03 0.  1.
    8880022    1    1    2    0    0 -0.50615927101E+03  0.37250594221E+03  0.18252728934E+03  0.67206082238E+03  0.15294330000E+03 0.  0.
<mgrwt>
<rscale>  0 0.83580467E+03</rscale>
<asrwt>0</asrwt>
<pdfrwt beam="1">  1        2 0.83781883E-01 0.91036701E+03</pdfrwt>
<pdfrwt beam="2">  1       -2 0.30942887E+00 0.91036701E+03</pdfrwt>
<totfact> 0.15800895E+00</totfact>
</mgrwt>
</event>
<event>
 4    1  0.6502538E-008  0.9178116E+03  0.7818608E-02  0.9498023E-01
          2   -1    0    0  501    0  0.00000000000E+00  0.00000000000E+00  0.17039034545E+04  0.17039034545E+04  0.25500000000E-02 0. -1.
         -2   -1    0    0    0  501 -0.00000000000E+00 -0.00000000000E+00 -0.82356262493E+03  0.82356262494E+03  0.25500000000E-02 0.  1.
    8880023    1    1    2    0    0  0.63632417854E+03  0.60493638186E+02  0.14106599265E+04  0.16829556070E+04  0.65864270000E+03 0. -1.
    8880022    1    1    2    0    0 -0.63632417854E+03 -0.60493638186E+02 -0.53031909697E+03  0.84451047245E+03  0.15294330000E+03 0.  0.
<mgrwt>
<rscale>  0 0.84429759E+03</rscale>
<asrwt>0</asrwt>
<pdfrwt beam="1">  1        2 0.26213899E+00 0.91781161E+03</pdfrwt>
<pdfrwt beam="2">  1       -2 0.12670194E+00 0.91781161E+03</pdfrwt>
<totfact> 0.45464196E+00</totfact>
</mgrwt>
</event>
<event>
 4    1  0.6502538E-008  0.8013711E+03  0.7818608E-02  0.9707839E-01
          2   -1    0    0  501    0  0.00000000000E+00  0.00000000000E+00  0.29888978558E+04  0.29888978558E+04  0.25500000000E-02 0. -1.
         -2   -1    0    0    0  501 -0.00000000000E+00 -0.00000000000E+00 -0.69007313297E+03  0.69007313297E+03  0.25500000000E-02 0.  1.
    8880023    1    1    2    0    0  0.19265807618E+03 -0.41384575641E+03  0.28421913769E+04  0.29530065143E+04  0.65864270000E+03 0. -1.
    8880022    1    1    2    0    0 -0.19265807618E+03  0.41384575641E+03 -0.54336665406E+03  0.72596447446E+03  0.15294330000E+03 0.  0.
<mgrwt>
<rscale>  0 0.70551959E+03</rscale>
<asrwt>0</asrwt>
<pdfrwt beam="1">  1        2 0.45983043E+00 0.80137111E+03</pdfrwt>
<pdfrwt beam="2">  1       -2 0.10616510E+00 0.80137111E+03</pdfrwt>
<totfact> 0.13374987E+00</totfact>
</mgrwt>
</event>
<event>
 4    1  0.6502538E-008  0.8147070E+03  0.7818608E-02  0.9679855E-01
          2   -1    0    0  501    0  0.00000000000E+00  0.00000000000E+00  0.16570496383E+04  0.16570496383E+04  0.25500000000E-02 0. -1.
         -2   -1    0    0    0  501 -0.00000000000E+00 -0.00000000000E+00 -0.46905491607E+03  0.46905491608E+03  0.25500000000E-02 0.  1.
    8880023    1    1    2    0    0 -0.73814264364E+02  0.47380241039E+03  0.13674515930E+04  0.15917510280E+04  0.65864270000E+03 0. -1.
    8880022    1    1    2    0    0  0.73814264364E+02 -0.47380241039E+03 -0.17945687074E+03  0.53435352641E+03  0.15294330000E+03 0.  0.
<mgrwt>
<rscale>  0 0.72229013E+03</rscale>
<asrwt>0</asrwt>
<pdfrwt beam="1">  1        2 0.25493071E+00 0.81470699E+03</pdfrwt>
<pdfrwt beam="2">  1       -2 0.72162295E-01 0.81470699E+03</pdfrwt>
<totfact> 0.18359336E+01</totfact>
</mgrwt>
</event>
<event>
 4    1  0.6502538E-008  0.1071990E+04  0.7818608E-02  0.9292902E-01
          2   -1    0    0  501    0  0.00000000000E+00  0.00000000000E+00  0.40511567851E+04  0.40511567851E+04  0.25500000000E-02 0. -1.
         -2   -1    0    0    0  501 -0.00000000000E+00 -0.00000000000E+00 -0.26816628612E+03  0.26816628613E+03  0.25500000000E-02 0.  1.
    8880023    1    1    2    0    0  0.62712310728E+03 -0.56751143141E+03  0.28782825975E+04  0.30714285819E+04  0.65864270000E+03 0.  0.
    8880022    1    1    2    0    0 -0.62712310728E+03  0.56751143141E+03  0.90470790154E+03  0.12478944894E+04  0.15294330000E+03 0.  0.
<mgrwt>
<rscale>  0 0.10143898E+04</rscale>
<asrwt>0</asrwt>
<pdfrwt beam="1">  1        2 0.62325491E+00 0.10719901E+04</pdfrwt>
<pdfrwt beam="2">  1       -2 0.41256351E-01 0.10719901E+04</pdfrwt>
<totfact> 0.18052305E+00</totfact>
</mgrwt>
</event>
<event>
 4    1  0.6502538E-008  0.7192795E+03  0.7818608E-02  0.9925032E-01
          2   -1    0    0  501    0  0.00000000000E+00  0.00000000000E+00  0.13349132391E+04  0.13349132391E+04  0.25500000000E-02 0. -1.
         -2   -1    0    0    0  501 -0.00000000000E+00 -0.00000000000E+00 -0.33095980146E+03  0.33095980147E+03  0.25500000000E-02 0.  1.
    8880023    1    1    2    0    0 -0.76355706558E+02  0.27878760840E+03  0.11094875974E+04  0.13222426629E+04  0.65864270000E+03 0. -1.
    8880022    1    1    2    0    0  0.76355706558E+02 -0.27878760840E+03 -0.10553415982E+03  0.34363037762E+03  0.15294330000E+03 0.  0.
<mgrwt>
<rscale>  0 0.59063338E+03</rscale>
<asrwt>0</asrwt>
<pdfrwt beam="1">  1        2 0.20537127E+00 0.71927945E+03</pdfrwt>
<pdfrwt beam="2">  1       -2 0.50916893E-01 0.71927945E+03</pdfrwt>
<totfact> 0.58782101E+01</totfact>
</mgrwt>
</event>
<event>
 4    1  0.6502538E-008  0.8907862E+03  0.7818608E-02  0.9540988E-01
          2   -1    0    0  501    0  0.00000000000E+00  0.00000000000E+00  0.10267703366E+04  0.10267703366E+04  0.25500000000E-02 0. -1.
         -2   -1    0    0    0  501 -0.00000000000E+00 -0.00000000000E+00 -0.88138450002E+03  0.88138450003E+03  0.25500000000E-02 0.  1.
    8880023    1    1    2    0    0 -0.33124345957E+03 -0.49996760970E+03  0.65559883719E+03  0.11060334000E+04  0.65864270000E+03 0.  0.
    8880022    1    1    2    0    0  0.33124345957E+03  0.49996760970E+03 -0.51021300057E+03  0.80212143671E+03  0.15294330000E+03 0.  0.
<mgrwt>
<rscale>  0 0.81328265E+03</rscale>
<asrwt>0</asrwt>
<pdfrwt beam="1">  1        2 0.15796467E+00 0.89078620E+03</pdfrwt>
<pdfrwt beam="2">  1       -2 0.13559762E+00 0.89078620E+03</pdfrwt>
<totfact> 0.94657661E+00</totfact>
</mgrwt>
</event>
<event>
 4    1  0.6502538E-008  0.6843713E+03  0.7818608E-02  0.1006952E+00
         -2   -1    0    0    0  501 -0.00000000000E+00  0.00000000000E+00  0.16357185877E+03  0.16357185879E+03  0.25500000000E-02 0.  1.
          2   -1    0    0  501    0  0.00000000000E+00 -0.00000000000E+00 -0.20833243946E+04  0.20833243946E+04  0.25500000000E-02 0. -1.
    8880023    1    1    2    0    0  0.17551344628E+03 -0.61228443944E+02 -0.18828449862E+04  0.20033645052E+04  0.65864270000E+03 0. -1.
    8880022    1    1    2    0    0 -0.17551344628E+03  0.61228443944E+02 -0.36907549640E+02  0.24353174825E+03  0.15294330000E+03 0.  0.
<mgrwt>
<rscale>  0 0.52704337E+03</rscale>
<asrwt>0</asrwt>
<pdfrwt beam="1">  1        2 0.32051143E+00 0.68437132E+03</pdfrwt>
<pdfrwt beam="2">  1       -2 0.25164903E-01 0.68437132E+03</pdfrwt>
<totfact> 0.88125025E+01</totfact>
</mgrwt>
</event>
<event>
 4    1  0.6502538E-008  0.1507532E+04  0.7818608E-02  0.8904336E-01
         -2   -1    0    0    0  501 -0.00000000000E+00  0.00000000000E+00  0.26731484874E+04  0.26731484874E+04  0.25500000000E-02 0.  1.
          2   -1    0    0  501    0  0.00000000000E+00 -0.00000000000E+00 -0.12056346988E+04  0.12056346988E+04  0.25500000000E-02 0. -1.
    8880023    1    1    2    0    0  0.12972452293E+04  0.39496449515E+03 -0.40573584852E+03  0.15611770951E+04  0.65864270000E+03 0.  0.
    8880022    1    1    2    0    0 -0.12972452293E+04 -0.39496449515E+03  0.18732496371E+04  0.23176060911E+04  0.15294330000E+03 0.  0.
<mgrwt>
<rscale>  0 0.14704632E+04</rscale>
<asrwt>0</asrwt>
<pdfrwt beam="1">  1        2 0.18548226E+00 0.15075319E+04</pdfrwt>
<pdfrwt beam="2">  1       -2 0.41125361E+00 0.15075319E+04</pdfrwt>
<totfact> 0.11124458E-01</totfact>
</mgrwt>
</event>
<event>
 4    1  0.6502538E-008  0.6845797E+03  0.7818608E-02  0.1006843E+00
          2   -1    0    0  501    0  0.00000000000E+00  0.00000000000E+00  0.24856491617E+04  0.24856491617E+04  0.25500000000E-02 0. -1.
         -2   -1    0    0    0  501 -0.00000000000E+00 -0.00000000000E+00 -0.26424460451E+03  0.26424460453E+03  0.25500000000E-02 0.  1.
    8880023    1    1    2    0    0 -0.69946492626E+02  0.17305084065E+03  0.23697376984E+04  0.24666386178E+04  0.65864270000E+03 0. -1.
    8880022    1    1    2    0    0  0.69946492626E+02 -0.17305084065E+03 -0.14833314126E+03  0.28325514839E+03  0.15294330000E+03 0.  0.
<mgrwt>
<rscale>  0 0.52748735E+03</rscale>
<asrwt>0</asrwt>
<pdfrwt beam="1">  1        2 0.38240757E+00 0.68457966E+03</pdfrwt>
<pdfrwt beam="2">  1       -2 0.40653015E-01 0.68457966E+03</pdfrwt>
<totfact> 0.21467263E+01</totfact>
</mgrwt>
</event>
<event>
 4    1  0.6502538E-008  0.8313589E+03  0.7818608E-02  0.9646694E-01
         -2   -1    0    0    0  501 -0.00000000000E+00  0.00000000000E+00  0.73353634497E+03  0.73353634497E+03  0.25500000000E-02 0.  1.
          2   -1    0    0  501    0  0.00000000000E+00 -0.00000000000E+00 -0.23113851132E+04  0.23113851132E+04  0.25500000000E-02 0. -1.
    8880023    1    1    2    0    0  0.37515090231E+03  0.34148096364E+03 -0.21258679256E+04  0.22826458532E+04  0.65864270000E+03 0.  0.
    8880022    1    1    2    0    0 -0.37515090231E+03 -0.34148096364E+03  0.54801915736E+03  0.76227560493E+03  0.15294330000E+03 0.  0.
<mgrwt>
<rscale>  0 0.74281264E+03</rscale>
<asrwt>0</asrwt>
<pdfrwt beam="1">  1        2 0.35559771E+00 0.83135892E+03</pdfrwt>
<pdfrwt beam="2">  1       -2 0.11285175E+00 0.83135892E+03</pdfrwt>
<totfact> 0.28406090E+00</totfact>
</mgrwt>
</event>
<event>
 4    1  0.6502538E-008  0.7673353E+03  0.7818608E-02  0.9786474E-01
         -2   -1    0    0    0  501 -0.00000000000E+00  0.00000000000E+00  0.33709183098E+03  0.33709183099E+03  0.25500000000E-02 0.  1.
          2   -1    0    0  501    0  0.00000000000E+00 -0.00000000000E+00 -0.22850890543E+04  0.22850890543E+04  0.25500000000E-02 0. -1.
    8880023    1    1    2    0    0 -0.12669195161E+03  0.37274987316E+03 -0.20489548759E+04  0.21879258690E+04  0.65864270000E+03 0. -1.
    8880022    1    1    2    0    0  0.12669195161E+03 -0.37274987316E+03  0.10095765258E+03  0.43425501629E+03  0.15294330000E+03 0.  0.
<mgrwt>
<rscale>  0 0.66093490E+03</rscale>
<asrwt>0</asrwt>
<pdfrwt beam="1">  1        2 0.35155215E+00 0.76733534E+03</pdfrwt>
<pdfrwt beam="2">  1       -2 0.51860283E-01 0.76733534E+03</pdfrwt>
<totfact> 0.16856889E+01</totfact>
</mgrwt>
</event>
<event>
 4    1  0.6502538E-008  0.9581066E+03  0.7818608E-02  0.9438545E-01
          2   -1    0    0  501    0  0.00000000000E+00  0.00000000000E+00  0.26304930358E+04  0.26304930358E+04  0.25500000000E-02 0. -1.
         -2   -1    0    0    0  501 -0.00000000000E+00 -0.00000000000E+00 -0.40381919529E+03  0.40381919530E+03  0.25500000000E-02 0.  1.
    8880023    1    1    2    0    0  0.53456514096E+03  0.44541912681E+03  0.21033559598E+04  0.23112928392E+04  0.65864270000E+03 0. -1.
    8880022    1    1    2    0    0 -0.53456514096E+03 -0.44541912681E+03  0.12331788075E+03  0.72301939199E+03  0.15294330000E+03 0.  0.
<mgrwt>
<rscale>  0 0.88970331E+03</rscale>
<asrwt>0</asrwt>
<pdfrwt beam="1">  1        2 0.40469122E+00 0.95810662E+03</pdfrwt>
<pdfrwt beam="2">  1       -2 0.62126032E-01 0.95810662E+03</pdfrwt>
<totfact> 0.71630312E+00</totfact>
</mgrwt>
</event>
<event>
 4    1  0.6502538E-008  0.7053773E+03  0.7818608E-02  0.9975585E-01
         -2   -1    0    0    0  501 -0.00000000000E+00  0.00000000000E+00  0.20182811483E+03  0.20182811485E+03  0.25500000000E-02 0.  1.
          2   -1    0    0  501    0  0.00000000000E+00 -0.00000000000E+00 -0.13530779689E+04  0.13530779689E+04  0.25500000000E-02 0. -1.
    8880023    1    1    2    0    0  0.16300601694E+03 -0.19281074054E+03 -0.58526095376E+03  0.91656289118E+03  0.65864270000E+03 0.  1.
    8880022    1    1    2    0    0 -0.16300601694E+03  0.19281074054E+03 -0.56598890031E+03  0.63834319258E+03  0.15294330000E+03 0.  0.
<mgrwt>
<rscale>  0 0.56733873E+03</rscale>
<asrwt>0</asrwt>
<pdfrwt beam="1">  1        2 0.20816584E+00 0.70537731E+03</pdfrwt>
<pdfrwt beam="2">  1       -2 0.31050480E-01 0.70537731E+03</pdfrwt>
<totfact> 0.15066987E+02</totfact>
</mgrwt>
</event>
<event>
 4    1  0.6502538E-008  0.1183225E+04  0.7818608E-02  0.9173604E-01
          2   -1    0    0  501    0  0.00000000000E+00  0.00000000000E+00  0.21973672151E+04  0.21973672151E+04  0.25500000000E-02 0. -1.
         -2   -1    0    0    0  501 -0.00000000000E+00 -0.00000000000E+00 -0.81616866710E+03  0.81616866710E+03  0.25500000000E-02 0.  1.
    8880023    1    1    2    0    0  0.15150017229E+03  0.97121487620E+03  0.16048846240E+04  0.19939096019E+04  0.65864270000E+03 0.  0.
    8880022    1    1    2    0    0 -0.15150017229E+03 -0.97121487620E+03 -0.22368607595E+03  0.10196262803E+04  0.15294330000E+03 0.  0.
<mgrwt>
<rscale>  0 0.11330081E+04</rscale>
<asrwt>0</asrwt>
<pdfrwt beam="1">  1        2 0.33805650E+00 0.11832248E+04</pdfrwt>
<pdfrwt beam="2">  1       -2 0.12556441E+00 0.11832248E+04</pdfrwt>
<totfact> 0.24047192E+00</totfact>
</mgrwt>
</event>
<event>
 4    1  0.6502538E-008  0.1250913E+04  0.7818608E-02  0.9109153E-01
         -2   -1    0    0    0  501 -0.00000000000E+00  0.00000000000E+00  0.12002824717E+04  0.12002824717E+04  0.25500000000E-02 0.  1.
          2   -1    0    0  501    0  0.00000000000E+00 -0.00000000000E+00 -0.13538609329E+04  0.13538609329E+04  0.25500000000E-02 0. -1.
    8880023    1    1    2    0    0  0.10543892433E+04  0.13869781470E+03  0.44076638009E+03  0.13262952040E+04  0.65864270000E+03 0.  1.
    8880022    1    1    2    0    0 -0.10543892433E+04 -0.13869781470E+03 -0.59434484130E+03  0.12278482005E+04  0.15294330000E+03 0.  0.
<mgrwt>
<rscale>  0 0.12042407E+04</rscale>
<asrwt>0</asrwt>
<pdfrwt beam="1">  1        2 0.20828630E+00 0.12509133E+04</pdfrwt>
<pdfrwt beam="2">  1       -2 0.18465884E+00 0.12509133E+04</pdfrwt>
<totfact> 0.25024528E+00</totfact>
</mgrwt>
</event>
<event>
 4    1  0.6502538E-008  0.9591305E+03  0.7818608E-02  0.9437097E-01
         -2   -1    0    0    0  501 -0.00000000000E+00  0.00000000000E+00  0.46407000452E+03  0.46407000453E+03  0.25500000000E-02 0.  1.
          2   -1    0    0  501    0  0.00000000000E+00 -0.00000000000E+00 -0.31030521077E+04  0.31030521077E+04  0.25500000000E-02 0. -1.
    8880023    1    1    2    0    0 -0.51647247073E+03  0.46837731815E+03 -0.26856667609E+04  0.28517954488E+04  0.65864270000E+03 0. -1.
    8880022    1    1    2    0    0  0.51647247073E+03 -0.46837731815E+03  0.46684657644E+02  0.71532666345E+03  0.15294330000E+03 0.  0.
<mgrwt>
<rscale>  0 0.89084606E+03</rscale>
<asrwt>0</asrwt>
<pdfrwt beam="1">  1        2 0.47739262E+00 0.95913051E+03</pdfrwt>
<pdfrwt beam="2">  1       -2 0.71395387E-01 0.95913051E+03</pdfrwt>
<totfact> 0.27500301E+00</totfact>
</mgrwt>
</event>
<event>
 4    1  0.6502538E-008  0.8314113E+03  0.7818608E-02  0.9646593E-01
         -2   -1    0    0    0  501 -0.00000000000E+00  0.00000000000E+00  0.89012474256E+03  0.89012474257E+03  0.25500000000E-02 0.  1.
          2   -1    0    0  501    0  0.00000000000E+00 -0.00000000000E+00 -0.12726747261E+04  0.12726747261E+04  0.25500000000E-02 0. -1.
    8880023    1    1    2    0    0  0.50732823939E+03  0.72533978291E+01 -0.10315733760E+04  0.13249107104E+04  0.65864270000E+03 0. -1.
    8880022    1    1    2    0    0 -0.50732823939E+03 -0.72533978291E+01  0.64902339244E+03  0.83788875826E+03  0.15294330000E+03 0.  0.
<mgrwt>
<rscale>  0 0.74287655E+03</rscale>
<asrwt>0</asrwt>
<pdfrwt beam="1">  1        2 0.19579611E+00 0.83141131E+03</pdfrwt>
<pdfrwt beam="2">  1       -2 0.13694227E+00 0.83141131E+03</pdfrwt>
<totfact> 0.65943269E+00</totfact>
</mgrwt>
</event>
<event>
 4    1  0.6502538E-008  0.8693784E+03  0.7818608E-02  0.9577094E-01
          2   -1    0    0  501    0  0.00000000000E+00  0.00000000000E+00  0.23749706577E+04  0.23749706577E+04  0.25500000000E-02 0. -1.
         -2   -1    0    0    0  501 -0.00000000000E+00 -0.00000000000E+00 -0.32130273184E+03  0.32130273185E+03  0.25500000000E-02 0.  1.
    8880023    1    1    2    0    0  0.18471075053E+03  0.53655434805E+03  0.18990143956E+04  0.20885579979E+04  0.65864270000E+03 0.  0.
    8880022    1    1    2    0    0 -0.18471075053E+03 -0.53655434805E+03  0.15465353026E+03  0.60771539162E+03  0.15294330000E+03 0.  0.
<mgrwt>
<rscale>  0 0.78830989E+03</rscale>
<asrwt>0</asrwt>
<pdfrwt beam="1">  1        2 0.36538010E+00 0.86937842E+03</pdfrwt>
<pdfrwt beam="2">  1       -2 0.49431190E-01 0.86937842E+03</pdfrwt>
<totfact> 0.16329933E+01</totfact>
</mgrwt>
</event>
<event>
 4    1  0.6502538E-008  0.2018472E+04  0.7818608E-02  0.8610436E-01
         -2   -1    0    0    0  501 -0.00000000000E+00  0.00000000000E+00  0.13258109222E+04  0.13258109222E+04  0.25500000000E-02 0.  1.
          2   -1    0    0  501    0  0.00000000000E+00 -0.00000000000E+00 -0.36712382308E+04  0.36712382308E+04  0.25500000000E-02 0. -1.
    8880023    1    1    2    0    0  0.13821118470E+04  0.13153651124E+04 -0.23302196695E+04  0.30828805444E+04  0.65864270000E+03 0.  0.
    8880022    1    1    2    0    0 -0.13821118470E+04 -0.13153651124E+04 -0.15207639106E+02  0.19141686086E+04  0.15294330000E+03 0.  0.
<mgrwt>
<rscale>  0 0.19918593E+04</rscale>
<asrwt>0</asrwt>
<pdfrwt beam="1">  1        2 0.56480588E+00 0.20184719E+04</pdfrwt>
<pdfrwt beam="2">  1       -2 0.20397091E+00 0.20184719E+04</pdfrwt>
<totfact> 0.68513058E-02</totfact>
</mgrwt>
</event>
<event>
 4    1  0.6502538E-008  0.7897303E+03  0.7818608E-02  0.9733458E-01
         -2   -1    0    0    0  501 -0.00000000000E+00  0.00000000000E+00  0.35431378180E+03  0.35431378181E+03  0.25500000000E-02 0.  1.
          2   -1    0    0  501    0  0.00000000000E+00 -0.00000000000E+00 -0.28656610189E+04  0.28656610189E+04  0.25500000000E-02 0. -1.
    8880023    1    1    2    0    0 -0.58189485738E+02  0.43183064570E+03 -0.26276490498E+04  0.27437590015E+04  0.65864270000E+03 0. -1.
    8880022    1    1    2    0    0  0.58189485738E+02 -0.43183064570E+03  0.11630181271E+03  0.47621579926E+03  0.15294330000E+03 0.  0.
<mgrwt>
<rscale>  0 0.69059208E+03</rscale>
<asrwt>0</asrwt>
<pdfrwt beam="1">  1        2 0.44087091E+00 0.78973029E+03</pdfrwt>
<pdfrwt beam="2">  1       -2 0.54509814E-01 0.78973029E+03</pdfrwt>
<totfact> 0.70346812E+00</totfact>
</mgrwt>
</event>
<event>
 4    1  0.6502538E-008  0.9563555E+03  0.7818608E-02  0.9441028E-01
         -2   -1    0    0    0  501 -0.00000000000E+00  0.00000000000E+00  0.14207806058E+04  0.14207806058E+04  0.25500000000E-02 0.  1.
          2   -1    0    0  501    0  0.00000000000E+00 -0.00000000000E+00 -0.73431458093E+03  0.73431458094E+03  0.25500000000E-02 0. -1.
    8880023    1    1    2    0    0  0.42733580865E+02 -0.69208350073E+03  0.99571847329E+03  0.13806053800E+04  0.65864270000E+03 0.  0.
    8880022    1    1    2    0    0 -0.42733580865E+02  0.69208350073E+03 -0.30925244841E+03  0.77448980677E+03  0.15294330000E+03 0.  0.
<mgrwt>
<rscale>  0 0.88774781E+03</rscale>
<asrwt>0</asrwt>
<pdfrwt beam="1">  1        2 0.11297147E+00 0.95635555E+03</pdfrwt>
<pdfrwt beam="2">  1       -2 0.21858163E+00 0.95635555E+03</pdfrwt>
<totfact> 0.38857022E+00</totfact>
</mgrwt>
</event>
<event>
 4    1  0.6502538E-008  0.1204217E+04  0.7818608E-02  0.9153034E-01
          2   -1    0    0  501    0  0.00000000000E+00  0.00000000000E+00  0.11098962019E+04  0.11098962019E+04  0.25500000000E-02 0. -1.
         -2   -1    0    0    0  501 -0.00000000000E+00 -0.00000000000E+00 -0.13513883569E+04  0.13513883569E+04  0.25500000000E-02 0.  1.
    8880023    1    1    2    0    0  0.15798381625E+03  0.99567506150E+03  0.38532630926E+03  0.12643631935E+04  0.65864270000E+03 0.  0.
    8880022    1    1    2    0    0 -0.15798381625E+03 -0.99567506150E+03 -0.62681846427E+03  0.11969213652E+04  0.15294330000E+03 0.  0.
<mgrwt>
<rscale>  0 0.11551623E+04</rscale>
<asrwt>0</asrwt>
<pdfrwt beam="1">  1        2 0.17075326E+00 0.12042167E+04</pdfrwt>
<pdfrwt beam="2">  1       -2 0.20790590E+00 0.12042167E+04</pdfrwt>
<totfact> 0.24647897E+00</totfact>
</mgrwt>
</event>
<event>
 4    1  0.6502538E-008  0.7695098E+03  0.7818608E-02  0.9781082E-01
          2   -1    0    0  501    0  0.00000000000E+00  0.00000000000E+00  0.40699495763E+04  0.40699495763E+04  0.25500000000E-02 0. -1.
         -2   -1    0    0    0  501 -0.00000000000E+00 -0.00000000000E+00 -0.15862556871E+03  0.15862556873E+03  0.25500000000E-02 0.  1.
    8880023    1    1    2    0    0 -0.25783335839E+03  0.30307935125E+03  0.36463019169E+04  0.37266154899E+04  0.65864270000E+03 0. -1.
    8880022    1    1    2    0    0  0.25783335839E+03 -0.30307935125E+03  0.26502209069E+03  0.50195965517E+03  0.15294330000E+03 0.  0.
<mgrwt>
<rscale>  0 0.66387756E+03</rscale>
<asrwt>0</asrwt>
<pdfrwt beam="1">  1        2 0.62614606E+00 0.76950981E+03</pdfrwt>
<pdfrwt beam="2">  1       -2 0.24403935E-01 0.76950981E+03</pdfrwt>
<totfact> 0.49517987E+00</totfact>
</mgrwt>
</event>
<event>
 4    1  0.6502538E-008  0.9891687E+03  0.7818608E-02  0.9395867E-01
         -2   -1    0    0    0  501 -0.00000000000E+00  0.00000000000E+00  0.30490033984E+03  0.30490033985E+03  0.25500000000E-02 0.  1.
          2   -1    0    0  501    0  0.00000000000E+00 -0.00000000000E+00 -0.30390122625E+04  0.30390122625E+04  0.25500000000E-02 0. -1.
    8880023    1    1    2    0    0  0.72377582715E+03  0.14419826893E+03 -0.22233582554E+04  0.24334700999E+04  0.65864270000E+03 0.  0.
    8880022    1    1    2    0    0 -0.72377582715E+03 -0.14419826893E+03 -0.51075366725E+03  0.91044250250E+03  0.15294330000E+03 0.  0.
<mgrwt>
<rscale>  0 0.92416559E+03</rscale>
<asrwt>0</asrwt>
<pdfrwt beam="1">  1        2 0.46754033E+00 0.98916874E+03</pdfrwt>
<pdfrwt beam="2">  1       -2 0.46907747E-01 0.98916874E+03</pdfrwt>
<totfact> 0.72706998E+00</totfact>
</mgrwt>
</event>
<event>
 4    1  0.6502538E-008  0.7447915E+03  0.7818608E-02  0.9846203E-01
          2   -1    0    0  501    0  0.00000000000E+00  0.00000000000E+00  0.22999421292E+04  0.22999421292E+04  0.25500000000E-02 0. -1.
         -2   -1    0    0    0  501 -0.00000000000E+00 -0.00000000000E+00 -0.19478795122E+03  0.19478795123E+03  0.25500000000E-02 0.  1.
    8880023    1    1    2    0    0  0.24863255234E+03  0.24307624431E+03  0.19445630827E+04  0.20823160172E+04  0.65864270000E+03 0.  0.
    8880022    1    1    2    0    0 -0.24863255234E+03 -0.24307624431E+03  0.16059109523E+03  0.41241406319E+03  0.15294330000E+03 0.  0.
<mgrwt>
<rscale>  0 0.62940875E+03</rscale>
<asrwt>0</asrwt>
<pdfrwt beam="1">  1        2 0.35383724E+00 0.74479152E+03</pdfrwt>
<pdfrwt beam="2">  1       -2 0.29967378E-01 0.74479152E+03</pdfrwt>
<totfact> 0.48291582E+01</totfact>
</mgrwt>
</event>
<event>
 4    1  0.6502538E-008  0.7613396E+03  0.7818608E-02  0.9801652E-01
         -2   -1    0    0    0  501 -0.00000000000E+00  0.00000000000E+00  0.44910301039E+03  0.44910301040E+03  0.25500000000E-02 0.  1.
          2   -1    0    0  501    0  0.00000000000E+00 -0.00000000000E+00 -0.14534605098E+04  0.14534605098E+04  0.25500000000E-02 0. -1.
    8880023    1    1    2    0    0  0.82483582207E+02  0.37285948022E+03 -0.12200291462E+04  0.14380921588E+04  0.65864270000E+03 0. -1.
    8880022    1    1    2    0    0 -0.82483582207E+02 -0.37285948022E+03  0.21567164679E+03  0.46447136141E+03  0.15294330000E+03 0.  0.
<mgrwt>
<rscale>  0 0.65273976E+03</rscale>
<asrwt>0</asrwt>
<pdfrwt beam="1">  1        2 0.22360931E+00 0.76133957E+03</pdfrwt>
<pdfrwt beam="2">  1       -2 0.69092772E-01 0.76133957E+03</pdfrwt>
<totfact> 0.26351857E+01</totfact>
</mgrwt>
</event>
<event>
 4    1  0.6502538E-008  0.8622304E+03  0.7818608E-02  0.9589608E-01
          2   -1    0    0  501    0  0.00000000000E+00  0.00000000000E+00  0.17143133563E+04  0.17143133563E+04  0.25500000000E-02 0. -1.
         -2   -1    0    0    0  501 -0.00000000000E+00 -0.00000000000E+00 -0.37330602426E+03  0.37330602427E+03  0.25500000000E-02 0.  1.
    8880023    1    1    2    0    0 -0.55403325702E+03  0.51750692337E+02  0.12265637292E+04  0.14992997606E+04  0.65864270000E+03 0.  0.
    8880022    1    1    2    0    0  0.55403325702E+03 -0.51750692337E+02  0.11444360286E+03  0.58831962002E+03  0.15294330000E+03 0.  0.
<mgrwt>
<rscale>  0 0.77987806E+03</rscale>
<asrwt>0</asrwt>
<pdfrwt beam="1">  1        2 0.26374051E+00 0.86223036E+03</pdfrwt>
<pdfrwt beam="2">  1       -2 0.57431697E-01 0.86223036E+03</pdfrwt>
<totfact> 0.27732755E+01</totfact>
</mgrwt>
</event>
<event>
 4    1  0.6502538E-008  0.9443318E+03  0.7818608E-02  0.9458317E-01
         -2   -1    0    0    0  501 -0.00000000000E+00  0.00000000000E+00  0.66030290937E+03  0.66030290937E+03  0.25500000000E-02 0.  1.
          2   -1    0    0  501    0  0.00000000000E+00 -0.00000000000E+00 -0.15149453087E+04  0.15149453087E+04  0.25500000000E-02 0. -1.
    8880023    1    1    2    0    0  0.67022946218E+03  0.93513732977E+02 -0.10904193999E+04  0.14424898697E+04  0.65864270000E+03 0. -1.
    8880022    1    1    2    0    0 -0.67022946218E+03 -0.93513732977E+02  0.23577700051E+03  0.73275834844E+03  0.15294330000E+03 0.  0.
<mgrwt>
<rscale>  0 0.87427973E+03</rscale>
<asrwt>0</asrwt>
<pdfrwt beam="1">  1        2 0.23306851E+00 0.94433180E+03</pdfrwt>
<pdfrwt beam="2">  1       -2 0.10158506E+00 0.94433180E+03</pdfrwt>
<totfact> 0.99177220E+00</totfact>
</mgrwt>
</event>
<event>
 4    1  0.6502538E-008  0.1600104E+04  0.7818608E-02  0.8842003E-01
         -2   -1    0    0    0  501 -0.00000000000E+00  0.00000000000E+00  0.11450653841E+04  0.11450653841E+04  0.25500000000E-02 0.  1.
          2   -1    0    0  501    0  0.00000000000E+00 -0.00000000000E+00 -0.27686234649E+04  0.27686234649E+04  0.25500000000E-02 0. -1.
    8880023    1    1    2    0    0  0.92524451056E+03  0.11271400674E+04 -0.18323258547E+04  0.24326426741E+04  0.65864270000E+03 0. -1.
    8880022    1    1    2    0    0 -0.92524451056E+03 -0.11271400674E+04  0.20876777394E+03  0.14810461749E+04  0.15294330000E+03 0.  0.
<mgrwt>
<rscale>  0 0.15655385E+04</rscale>
<asrwt>0</asrwt>
<pdfrwt beam="1">  1        2 0.42594207E+00 0.16001039E+04</pdfrwt>
<pdfrwt beam="2">  1       -2 0.17616391E+00 0.16001039E+04</pdfrwt>
<totfact> 0.43442501E-01</totfact>
</mgrwt>
</event>
<event>
 4    1  0.6502538E-008  0.7466579E+03  0.7818608E-02  0.9840961E-01
         -2   -1    0    0    0  501 -0.00000000000E+00  0.00000000000E+00  0.12861489010E+04  0.12861489010E+04  0.25500000000E-02 0.  1.
          2   -1    0    0  501    0  0.00000000000E+00 -0.00000000000E+00 -0.97024188353E+03  0.97024188353E+03  0.25500000000E-02 0. -1.
    8880023    1    1    2    0    0  0.26330092879E+03 -0.23315332770E+03 -0.78931823444E+03  0.10865179864E+04  0.65864270000E+03 0.  0.
    8880022    1    1    2    0    0 -0.26330092879E+03  0.23315332770E+03  0.11052252519E+04  0.11698727981E+04  0.15294330000E+03 0.  0.
<mgrwt>
<rscale>  0 0.63209926E+03</rscale>
<asrwt>0</asrwt>
<pdfrwt beam="1">  1        2 0.14926798E+00 0.74665793E+03</pdfrwt>
<pdfrwt beam="2">  1       -2 0.19786906E+00 0.74665793E+03</pdfrwt>
<totfact> 0.37039690E+00</totfact>
</mgrwt>
</event>
<event>
 4    1  0.6502538E-008  0.7086341E+03  0.7818608E-02  0.9963109E-01
          2   -1    0    0  501    0  0.00000000000E+00  0.00000000000E+00  0.64077783966E+03  0.64077783966E+03  0.25500000000E-02 0. -1.
         -2   -1    0    0    0  501 -0.00000000000E+00 -0.00000000000E+00 -0.17438080776E+04  0.17438080776E+04  0.25500000000E-02 0.  1.
    8880023    1    1    2    0    0 -0.14522035074E+03  0.21740073088E+03  0.42534456753E+03  0.82648668195E+03  0.65864270000E+03 0. -1.
    8880022    1    1    2    0    0  0.14522035074E+03 -0.21740073088E+03 -0.15283748055E+04  0.15580992353E+04  0.15294330000E+03 0.  0.
<mgrwt>
<rscale>  0 0.57297878E+03</rscale>
<asrwt>0</asrwt>
<pdfrwt beam="1">  1        2 0.98581207E-01 0.70863406E+03</pdfrwt>
<pdfrwt beam="2">  1       -2 0.26827816E+00 0.70863406E+03</pdfrwt>
<totfact> 0.23664990E+00</totfact>
</mgrwt>
</event>
<event>
 4    1  0.6502538E-008  0.1093138E+04  0.7818608E-02  0.9268735E-01
         -2   -1    0    0    0  501 -0.00000000000E+00  0.00000000000E+00  0.86391232532E+03  0.86391232532E+03  0.25500000000E-02 0.  1.
          2   -1    0    0  501    0  0.00000000000E+00 -0.00000000000E+00 -0.13560021540E+04  0.13560021540E+04  0.25500000000E-02 0. -1.
    8880023    1    1    2    0    0  0.84254394268E+03 -0.22640616942E+03 -0.71544360431E+03  0.13064493125E+04  0.65864270000E+03 0.  0.
    8880022    1    1    2    0    0 -0.84254394268E+03  0.22640616942E+03  0.22335377564E+03  0.91346516682E+03  0.15294330000E+03 0.  0.
<mgrwt>
<rscale>  0 0.10371283E+04</rscale>
<asrwt>0</asrwt>
<pdfrwt beam="1">  1        2 0.20861572E+00 0.10931378E+04</pdfrwt>
<pdfrwt beam="2">  1       -2 0.13290959E+00 0.10931378E+04</pdfrwt>
<totfact> 0.61924214E+00</totfact>
</mgrwt>
</event>
<event>
 4    1  0.6502538E-008  0.7542437E+03  0.7818608E-02  0.9820245E-01
         -2   -1    0    0    0  501 -0.00000000000E+00  0.00000000000E+00  0.74026927117E+03  0.74026927117E+03  0.25500000000E-02 0.  1.
          2   -1    0    0  501    0  0.00000000000E+00 -0.00000000000E+00 -0.11016912579E+04  0.11016912579E+04  0.25500000000E-02 0. -1.
    8880023    1    1    2    0    0 -0.41334987030E+02  0.36519136817E+03 -0.89871154807E+03  0.11732714816E+04  0.65864270000E+03 0. -1.
    8880022    1    1    2    0    0  0.41334987030E+02 -0.36519136817E+03  0.53728956133E+03  0.66868904752E+03  0.15294330000E+03 0.  0.
<mgrwt>
<rscale>  0 0.64287334E+03</rscale>
<asrwt>0</asrwt>
<pdfrwt beam="1">  1        2 0.16949096E+00 0.75424368E+03</pdfrwt>
<pdfrwt beam="2">  1       -2 0.11388758E+00 0.75424368E+03</pdfrwt>
<totfact> 0.13354979E+01</totfact>
</mgrwt>
</event>
<event>
 4    1  0.6502538E-008  0.7012210E+03  0.7818608E-02  0.9992173E-01
         -2   -1    0    0    0  501 -0.00000000000E+00  0.00000000000E+00  0.13188480080E+04  0.13188480080E+04  0.25500000000E-02 0.  1.
          2   -1    0    0  501    0  0.00000000000E+00 -0.00000000000E+00 -0.27158109920E+03  0.27158109921E+03  0.25500000000E-02 0. -1.
    8880023    1    1    2    0    0 -0.23804568086E+03 -0.35140900478E+02  0.25122249617E+03  0.74486480512E+03  0.65864270000E+03 0. -1.
    8880022    1    1    2    0    0  0.23804568086E+03  0.35140900478E+02  0.79604441265E+03  0.84556430210E+03  0.15294330000E+03 0.  0.
<mgrwt>
<rscale>  0 0.55994753E+03</rscale>
<asrwt>0</asrwt>
<pdfrwt beam="1">  1        2 0.41781707E-01 0.70122096E+03</pdfrwt>
<pdfrwt beam="2">  1       -2 0.20289970E+00 0.70122096E+03</pdfrwt>
<totfact> 0.15963969E+01</totfact>
</mgrwt>
</event>
<event>
 4    1  0.6502538E-008  0.9459152E+03  0.7818608E-02  0.9456016E-01
         -2   -1    0    0    0  501 -0.00000000000E+00  0.00000000000E+00  0.72397226914E+03  0.72397226915E+03  0.25500000000E-02 0.  1.
          2   -1    0    0  501    0  0.00000000000E+00 -0.00000000000E+00 -0.13454333150E+04  0.13454333150E+04  0.25500000000E-02 0. -1.
    8880023    1    1    2    0    0 -0.31806320675E+03  0.59981756276E+03 -0.91319162368E+03  0.13147906525E+04  0.65864270000E+03 0.  0.
    8880022    1    1    2    0    0  0.31806320675E+03 -0.59981756276E+03  0.29173057779E+03  0.75461493168E+03  0.15294330000E+03 0.  0.
<mgrwt>
<rscale>  0 0.87605747E+03</rscale>
<asrwt>0</asrwt>
<pdfrwt beam="1">  1        2 0.20698974E+00 0.94591518E+03</pdfrwt>
<pdfrwt beam="2">  1       -2 0.11138035E+00 0.94591518E+03</pdfrwt>
<totfact> 0.99076495E+00</totfact>
</mgrwt>
</event>
<event>
 4    1  0.6502538E-008  0.8573819E+03  0.7818608E-02  0.9598238E-01
          2   -1    0    0  501    0  0.00000000000E+00  0.00000000000E+00  0.53937051067E+03  0.53937051068E+03  0.25500000000E-02 0. -1.
         -2   -1    0    0    0  501 -0.00000000000E+00 -0.00000000000E+00 -0.11327866811E+04  0.11327866811E+04  0.25500000000E-02 0.  1.
    8880023    1    1    2    0    0 -0.98493349327E+02 -0.53999306252E+03 -0.11131009344E+02  0.85745411134E+03  0.65864270000E+03 0.  0.
    8880022    1    1    2    0    0  0.98493349327E+02  0.53999306252E+03 -0.58228516104E+03  0.81470308040E+03  0.15294330000E+03 0.  0.
<mgrwt>
<rscale>  0 0.77412931E+03</rscale>
<asrwt>0</asrwt>
<pdfrwt beam="1">  1        2 0.82980079E-01 0.85738186E+03</pdfrwt>
<pdfrwt beam="2">  1       -2 0.17427487E+00 0.85738186E+03</pdfrwt>
<totfact> 0.11265028E+01</totfact>
</mgrwt>
</event>
<event>
 4    1  0.6502538E-008  0.9546565E+03  0.7818608E-02  0.9443446E-01
          2   -1    0    0  501    0  0.00000000000E+00  0.00000000000E+00  0.20619824226E+04  0.20619824226E+04  0.25500000000E-02 0. -1.
         -2   -1    0    0    0  501 -0.00000000000E+00 -0.00000000000E+00 -0.68165362009E+03  0.68165362010E+03  0.25500000000E-02 0.  1.
    8880023    1    1    2    0    0 -0.56941645691E+03  0.39156572597E+03  0.17133994607E+04  0.19614042769E+04  0.65864270000E+03 0.  0.
    8880022    1    1    2    0    0  0.56941645691E+03 -0.39156572597E+03 -0.33307065816E+03  0.78223176585E+03  0.15294330000E+03 0.  0.
<mgrwt>
<rscale>  0 0.88584900E+03</rscale>
<asrwt>0</asrwt>
<pdfrwt beam="1">  1        2 0.31722806E+00 0.95465650E+03</pdfrwt>
<pdfrwt beam="2">  1       -2 0.10486979E+00 0.95465650E+03</pdfrwt>
<totfact> 0.45801773E+00</totfact>
</mgrwt>
</event>
<event>
 4    1  0.6502538E-008  0.9937387E+03  0.7818608E-02  0.9389796E-01
         -2   -1    0    0    0  501 -0.00000000000E+00  0.00000000000E+00  0.45666122774E+03  0.45666122774E+03  0.25500000000E-02 0.  1.
          2   -1    0    0  501    0  0.00000000000E+00 -0.00000000000E+00 -0.42404109320E+04  0.42404109320E+04  0.25500000000E-02 0. -1.
    8880023    1    1    2    0    0 -0.57025115556E+03  0.47803774058E+03 -0.38094867236E+04  0.39369665690E+04  0.65864270000E+03 0.  0.
    8880022    1    1    2    0    0  0.57025115556E+03 -0.47803774058E+03  0.25737019384E+02  0.76010559070E+03  0.15294330000E+03 0.  0.
<mgrwt>
<rscale>  0 0.92920250E+03</rscale>
<asrwt>0</asrwt>
<pdfrwt beam="1">  1        2 0.65237088E+00 0.99373873E+03</pdfrwt>
<pdfrwt beam="2">  1       -2 0.70255576E-01 0.99373873E+03</pdfrwt>
<totfact> 0.42093355E-01</totfact>
</mgrwt>
</event>
<event>
 4    1  0.6502538E-008  0.7873692E+03  0.7818608E-02  0.9738803E-01
          2   -1    0    0  501    0  0.00000000000E+00  0.00000000000E+00  0.25263308027E+04  0.25263308027E+04  0.25500000000E-02 0. -1.
         -2   -1    0    0    0  501 -0.00000000000E+00 -0.00000000000E+00 -0.48774879433E+03  0.48774879433E+03  0.25500000000E-02 0.  1.
    8880023    1    1    2    0    0 -0.42535925036E+03 -0.72177754403E+02  0.23380549122E+04  0.24670733874E+04  0.65864270000E+03 0. -1.
    8880022    1    1    2    0    0  0.42535925036E+03  0.72177754403E+02 -0.29947290391E+03  0.54700620955E+03  0.15294330000E+03 0.  0.
<mgrwt>
<rscale>  0 0.68752750E+03</rscale>
<asrwt>0</asrwt>
<pdfrwt beam="1">  1        2 0.38866626E+00 0.78736924E+03</pdfrwt>
<pdfrwt beam="2">  1       -2 0.75038279E-01 0.78736924E+03</pdfrwt>
<totfact> 0.55945484E+00</totfact>
</mgrwt>
</event>
<event>
 4    1  0.6502538E-008  0.1238850E+04  0.7818608E-02  0.9120252E-01
         -2   -1    0    0    0  501 -0.00000000000E+00  0.00000000000E+00  0.11998266365E+04  0.11998266365E+04  0.25500000000E-02 0.  1.
          2   -1    0    0  501    0  0.00000000000E+00 -0.00000000000E+00 -0.31349745929E+04  0.31349745929E+04  0.25500000000E-02 0. -1.
    8880023    1    1    2    0    0 -0.22316441113E+03  0.10252495713E+04 -0.27377179479E+04  0.30049706831E+04  0.65864270000E+03 0.  0.
    8880022    1    1    2    0    0  0.22316441113E+03 -0.10252495713E+04  0.80256999140E+03  0.13298305463E+04  0.15294330000E+03 0.  0.
<mgrwt>
<rscale>  0 0.11915871E+04</rscale>
<asrwt>0</asrwt>
<pdfrwt beam="1">  1        2 0.48230378E+00 0.12388500E+04</pdfrwt>
<pdfrwt beam="2">  1       -2 0.18458871E+00 0.12388500E+04</pdfrwt>
<totfact> 0.23605310E-01</totfact>
</mgrwt>
</event>
<event>
 4    1  0.6502538E-008  0.7237700E+03  0.7818608E-02  0.9910030E-01
          2   -1    0    0  501    0  0.00000000000E+00  0.00000000000E+00  0.19178829218E+04  0.19178829218E+04  0.25500000000E-02 0. -1.
         -2   -1    0    0    0  501 -0.00000000000E+00 -0.00000000000E+00 -0.66321483130E+03  0.66321483131E+03  0.25500000000E-02 0.  1.
    8880023    1    1    2    0    0 -0.23813245613E+03  0.18255341046E+03  0.18000502881E+04  0.19401092908E+04  0.65864270000E+03 0. -1.
    8880022    1    1    2    0    0  0.23813245613E+03 -0.18255341046E+03 -0.54538219760E+03  0.64098846230E+03  0.15294330000E+03 0.  0.
<mgrwt>
<rscale>  0 0.59777642E+03</rscale>
<asrwt>0</asrwt>
<pdfrwt beam="1">  1        2 0.29505891E+00 0.72377001E+03</pdfrwt>
<pdfrwt beam="2">  1       -2 0.10203305E+00 0.72377001E+03</pdfrwt>
<totfact> 0.60672385E+00</totfact>
</mgrwt>
</event>
<event>
 4    1  0.6502538E-008  0.7965486E+03  0.7818608E-02  0.9718309E-01
          2   -1    0    0  501    0  0.00000000000E+00  0.00000000000E+00  0.26378106949E+04  0.26378106949E+04  0.25500000000E-02 0. -1.
         -2   -1    0    0    0  501 -0.00000000000E+00 -0.00000000000E+00 -0.33688753148E+03  0.33688753149E+03  0.25500000000E-02 0.  1.
    8880023    1    1    2    0    0 -0.11810024960E+03 -0.43212468307E+03  0.23663668124E+04  0.24968342972E+04  0.65864270000E+03 0. -1.
    8880022    1    1    2    0    0  0.11810024960E+03  0.43212468307E+03 -0.65443648913E+02  0.47786392924E+03  0.15294330000E+03 0.  0.
<mgrwt>
<rscale>  0 0.69937067E+03</rscale>
<asrwt>0</asrwt>
<pdfrwt beam="1">  1        2 0.40581701E+00 0.79654857E+03</pdfrwt>
<pdfrwt beam="2">  1       -2 0.51828853E-01 0.79654857E+03</pdfrwt>
<totfact> 0.10613524E+01</totfact>
</mgrwt>
</event>
<event>
 4    1  0.6502538E-008  0.1019429E+04  0.7818608E-02  0.9356569E-01
          2   -1    0    0  501    0  0.00000000000E+00  0.00000000000E+00  0.27309020796E+04  0.27309020796E+04  0.25500000000E-02 0. -1.
         -2   -1    0    0    0  501 -0.00000000000E+00 -0.00000000000E+00 -0.48311931930E+03  0.48311931931E+03  0.25500000000E-02 0.  1.
    8880023    1    1    2    0    0 -0.77765179508E+03  0.26125967402E+02  0.22865095437E+03  0.10447565964E+04  0.65864270000E+03 0.  0.
    8880022    1    1    2    0    0  0.77765179508E+03 -0.26125967402E+02  0.20191318059E+04  0.21692648024E+04  0.15294330000E+03 0.  0.
<mgrwt>
<rscale>  0 0.95737740E+03</rscale>
<asrwt>0</asrwt>
<pdfrwt beam="1">  1        2 0.42013878E+00 0.10194288E+04</pdfrwt>
<pdfrwt beam="2">  1       -2 0.74326050E-01 0.10194288E+04</pdfrwt>
<totfact> 0.41987059E+00</totfact>
</mgrwt>
</event>
<event>
 4    1  0.6502538E-008  0.9681969E+03  0.7818608E-02  0.9424402E-01
         -2   -1    0    0    0  501 -0.00000000000E+00  0.00000000000E+00  0.30194904741E+03  0.30194904742E+03  0.25500000000E-02 0.  1.
          2   -1    0    0  501    0  0.00000000000E+00 -0.00000000000E+00 -0.28967318086E+04  0.28967318086E+04  0.25500000000E-02 0. -1.
    8880023    1    1    2    0    0 -0.88765186707E+02  0.70407087703E+03 -0.21217750761E+04  0.23322381393E+04  0.65864270000E+03 0.  0.
    8880022    1    1    2    0    0  0.88765186707E+02 -0.70407087703E+03 -0.47300768500E+03  0.86644271671E+03  0.15294330000E+03 0.  0.
<mgrwt>
<rscale>  0 0.90094386E+03</rscale>
<asrwt>0</asrwt>
<pdfrwt beam="1">  1        2 0.44565103E+00 0.96819691E+03</pdfrwt>
<pdfrwt beam="2">  1       -2 0.46453702E-01 0.96819691E+03</pdfrwt>
<totfact> 0.90898048E+00</totfact>
</mgrwt>
</event>
<event>
 4    1  0.6502538E-008  0.1495126E+04  0.7818608E-02  0.8913086E-01
         -2   -1    0    0    0  501 -0.00000000000E+00  0.00000000000E+00  0.11709329251E+04  0.11709329251E+04  0.25500000000E-02 0.  1.
          2   -1    0    0  501    0  0.00000000000E+00 -0.00000000000E+00 -0.19731830098E+04  0.19731830098E+04  0.25500000000E-02 0. -1.
    8880023    1    1    2    0    0  0.62336083084E+03 -0.11887015644E+04 -0.97090411445E+03  0.17827100551E+04  0.65864270000E+03 0.  0.
    8880022    1    1    2    0    0 -0.62336083084E+03  0.11887015644E+04  0.16865402973E+03  0.13614058798E+04  0.15294330000E+03 0.  0.
<mgrwt>
<rscale>  0 0.14576913E+04</rscale>
<asrwt>0</asrwt>
<pdfrwt beam="1">  1        2 0.30356662E+00 0.14951255E+04</pdfrwt>
<pdfrwt beam="2">  1       -2 0.18014353E+00 0.14951255E+04</pdfrwt>
<totfact> 0.11778450E+00</totfact>
</mgrwt>
</event>
<event>
 4    1  0.6502538E-008  0.9821007E+03  0.7818608E-02  0.9405359E-01
         -2   -1    0    0    0  501 -0.00000000000E+00  0.00000000000E+00  0.45584318835E+03  0.45584318836E+03  0.25500000000E-02 0.  1.
          2   -1    0    0  501    0  0.00000000000E+00 -0.00000000000E+00 -0.28569996565E+04  0.28569996565E+04  0.25500000000E-02 0. -1.
    8880023    1    1    2    0    0 -0.40042619330E+03 -0.60858061873E+03 -0.23726947640E+04  0.25679178638E+04  0.65864270000E+03 0. -1.
    8880022    1    1    2    0    0  0.40042619330E+03  0.60858061873E+03 -0.28461704125E+02  0.74492498105E+03  0.15294330000E+03 0.  0.
<mgrwt>
<rscale>  0 0.91635938E+03</rscale>
<asrwt>0</asrwt>
<pdfrwt beam="1">  1        2 0.43953840E+00 0.98210066E+03</pdfrwt>
<pdfrwt beam="2">  1       -2 0.70129723E-01 0.98210066E+03</pdfrwt>
<totfact> 0.40366271E+00</totfact>
</mgrwt>
</event>
<event>
 4    1  0.6502538E-008  0.6816318E+03  0.7818608E-02  0.1008415E+00
          2   -1    0    0  501    0  0.00000000000E+00  0.00000000000E+00  0.25438722067E+04  0.25438722067E+04  0.25500000000E-02 0. -1.
         -2   -1    0    0    0  501 -0.00000000000E+00 -0.00000000000E+00 -0.22968614974E+03  0.22968614975E+03  0.25500000000E-02 0.  1.
    8880023    1    1    2    0    0  0.15885119242E+03  0.74686118423E+02  0.24226509214E+04  0.25167159973E+04  0.65864270000E+03 0. -1.
    8880022    1    1    2    0    0 -0.15885119242E+03 -0.74686118423E+02 -0.10846486448E+03  0.25684235916E+03  0.15294330000E+03 0.  0.
<mgrwt>
<rscale>  0 0.52109352E+03</rscale>
<asrwt>0</asrwt>
<pdfrwt beam="1">  1        2 0.39136495E+00 0.68163181E+03</pdfrwt>
<pdfrwt beam="2">  1       -2 0.35336331E-01 0.68163181E+03</pdfrwt>
<totfact> 0.26086191E+01</totfact>
</mgrwt>
</event>
<event>
 4    1  0.6502538E-008  0.9728029E+03  0.7818608E-02  0.9418038E-01
         -2   -1    0    0    0  501 -0.00000000000E+00  0.00000000000E+00  0.10659158925E+04  0.10659158925E+04  0.25500000000E-02 0.  1.
          2   -1    0    0  501    0  0.00000000000E+00 -0.00000000000E+00 -0.12427321026E+04  0.12427321026E+04  0.25500000000E-02 0. -1.
    8880023    1    1    2    0    0  0.70476797047E+02 -0.71243830817E+03 -0.86658543856E+03  0.13028107501E+04  0.65864270000E+03 0. -1.
    8880022    1    1    2    0    0 -0.70476797047E+02  0.71243830817E+03  0.68976922854E+03  0.10058372451E+04  0.15294330000E+03 0.  0.
<mgrwt>
<rscale>  0 0.90605978E+03</rscale>
<asrwt>0</asrwt>
<pdfrwt beam="1">  1        2 0.19118955E+00 0.97280292E+03</pdfrwt>
<pdfrwt beam="2">  1       -2 0.16398706E+00 0.97280292E+03</pdfrwt>
<totfact> 0.41826393E+00</totfact>
</mgrwt>
</event>
<event>
 4    1  0.6502538E-008  0.7429411E+03  0.7818608E-02  0.9851461E-01
         -2   -1    0    0    0  501 -0.00000000000E+00  0.00000000000E+00  0.14244571378E+04  0.14244571378E+04  0.25500000000E-02 0.  1.
          2   -1    0    0  501    0  0.00000000000E+00 -0.00000000000E+00 -0.17739509832E+04  0.17739509832E+04  0.25500000000E-02 0. -1.
    8880023    1    1    2    0    0  0.20875105334E+03  0.27308296736E+03 -0.16686940507E+04  0.18266092495E+04  0.65864270000E+03 0. -1.
    8880022    1    1    2    0    0 -0.20875105334E+03 -0.27308296736E+03  0.13192002053E+04  0.13717988715E+04  0.15294330000E+03 0.  0.
<mgrwt>
<rscale>  0 0.62672473E+03</rscale>
<asrwt>0</asrwt>
<pdfrwt beam="1">  1        2 0.27291554E+00 0.74294113E+03</pdfrwt>
<pdfrwt beam="2">  1       -2 0.21914725E+00 0.74294113E+03</pdfrwt>
<totfact> 0.93129022E-01</totfact>
</mgrwt>
</event>
<event>
 4    1  0.6502538E-008  0.7569623E+03  0.7818608E-02  0.9813036E-01
          2   -1    0    0  501    0  0.00000000000E+00  0.00000000000E+00  0.95171929199E+03  0.95171929200E+03  0.25500000000E-02 0. -1.
         -2   -1    0    0    0  501 -0.00000000000E+00 -0.00000000000E+00 -0.76733859373E+03  0.76733859373E+03  0.25500000000E-02 0.  1.
    8880023    1    1    2    0    0  0.35184432199E+03  0.12404535113E+03  0.72264655946E+03  0.10465227815E+04  0.65864270000E+03 0. -1.
    8880022    1    1    2    0    0 -0.35184432199E+03 -0.12404535113E+03 -0.53826586120E+03  0.67253510421E+03  0.15294330000E+03 0.  0.
<mgrwt>
<rscale>  0 0.64667614E+03</rscale>
<asrwt>0</asrwt>
<pdfrwt beam="1">  1        2 0.14641835E+00 0.75696227E+03</pdfrwt>
<pdfrwt beam="2">  1       -2 0.11805209E+00 0.75696227E+03</pdfrwt>
<totfact> 0.15206860E+01</totfact>
</mgrwt>
</event>
<event>
 4    1  0.6502538E-008  0.1083345E+04  0.7818608E-02  0.9279830E-01
         -2   -1    0    0    0  501 -0.00000000000E+00  0.00000000000E+00  0.89874004730E+03  0.89874004730E+03  0.25500000000E-02 0.  1.
          2   -1    0    0  501    0  0.00000000000E+00 -0.00000000000E+00 -0.22403115673E+04  0.22403115673E+04  0.25500000000E-02 0. -1.
    8880023    1    1    2    0    0  0.56682229848E+03 -0.64694597210E+03 -0.18385308778E+04  0.21339710878E+04  0.65864270000E+03 0.  0.
    8880022    1    1    2    0    0 -0.56682229848E+03  0.64694597210E+03  0.49695935782E+03  0.10050805267E+04  0.15294330000E+03 0.  0.
<mgrwt>
<rscale>  0 0.10266118E+04</rscale>
<asrwt>0</asrwt>
<pdfrwt beam="1">  1        2 0.34466332E+00 0.10833452E+04</pdfrwt>
<pdfrwt beam="2">  1       -2 0.13826770E+00 0.10833452E+04</pdfrwt>
<totfact> 0.18002178E+00</totfact>
</mgrwt>
</event>
<event>
 4    1  0.6502538E-008  0.1506023E+04  0.7818608E-02  0.8905394E-01
         -2   -1    0    0    0  501 -0.00000000000E+00  0.00000000000E+00  0.23688985237E+04  0.23688985237E+04  0.25500000000E-02 0.  1.
          2   -1    0    0  501    0  0.00000000000E+00 -0.00000000000E+00 -0.15041395193E+04  0.15041395193E+04  0.25500000000E-02 0. -1.
    8880023    1    1    2    0    0  0.35880291826E+03  0.13059695055E+04 -0.81297825687E+03  0.17114437577E+04  0.65864270000E+03 0.  0.
    8880022    1    1    2    0    0 -0.35880291826E+03 -0.13059695055E+04  0.16777372613E+04  0.21615942853E+04  0.15294330000E+03 0.  0.
<mgrwt>
<rscale>  0 0.14689105E+04</rscale>
<asrwt>0</asrwt>
<pdfrwt beam="1">  1        2 0.23140608E+00 0.15060233E+04</pdfrwt>
<pdfrwt beam="2">  1       -2 0.36444593E+00 0.15060233E+04</pdfrwt>
<totfact> 0.14980641E-01</totfact>
</mgrwt>
</event>
<event>
 4    1  0.6502538E-008  0.1084573E+04  0.7818608E-02  0.9278429E-01
          2   -1    0    0  501    0  0.00000000000E+00  0.00000000000E+00  0.67784348657E+03  0.67784348657E+03  0.25500000000E-02 0. -1.
         -2   -1    0    0    0  501 -0.00000000000E+00 -0.00000000000E+00 -0.22353993081E+04  0.22353993081E+04  0.25500000000E-02 0.  1.
    8880023    1    1    2    0    0 -0.79991596794E+03  0.32034866824E+03  0.46949769796E+02  0.10855889241E+04  0.65864270000E+03 0. -1.
    8880022    1    1    2    0    0  0.79991596794E+03 -0.32034866824E+03 -0.16045055914E+04  0.18276538706E+04  0.15294330000E+03 0.  0.
<mgrwt>
<rscale>  0 0.10279317E+04</rscale>
<asrwt>0</asrwt>
<pdfrwt beam="1">  1        2 0.10428361E+00 0.10845732E+04</pdfrwt>
<pdfrwt beam="2">  1       -2 0.34390758E+00 0.10845732E+04</pdfrwt>
<totfact> 0.72558589E-01</totfact>
</mgrwt>
</event>
<event>
 4    1  0.6502538E-008  0.1052554E+04  0.7818608E-02  0.9315817E-01
         -2   -1    0    0    0  501 -0.00000000000E+00  0.00000000000E+00  0.53893970435E+03  0.53893970435E+03  0.25500000000E-02 0.  1.
          2   -1    0    0  501    0  0.00000000000E+00 -0.00000000000E+00 -0.16970277387E+04  0.16970277387E+04  0.25500000000E-02 0. -1.
    8880023    1    1    2    0    0  0.57191357943E+03 -0.58904562019E+03 -0.46500513761E+03  0.11506953851E+04  0.65864270000E+03 0.  0.
    8880022    1    1    2    0    0 -0.57191357943E+03  0.58904562019E+03 -0.69308289671E+03  0.10852720579E+04  0.15294330000E+03 0.  0.
<mgrwt>
<rscale>  0 0.99339637E+03</rscale>
<asrwt>0</asrwt>
<pdfrwt beam="1">  1        2 0.26108119E+00 0.10525541E+04</pdfrwt>
<pdfrwt beam="2">  1       -2 0.82913801E-01 0.10525541E+04</pdfrwt>
<totfact> 0.12466244E+01</totfact>
</mgrwt>
</event>
<event>
 4    1  0.6502538E-008  0.7874781E+03  0.7818608E-02  0.9738555E-01
          2   -1    0    0  501    0  0.00000000000E+00  0.00000000000E+00  0.36923361119E+04  0.36923361119E+04  0.25500000000E-02 0. -1.
         -2   -1    0    0    0  501 -0.00000000000E+00 -0.00000000000E+00 -0.11240035778E+03  0.11240035780E+03  0.25500000000E-02 0.  1.
    8880023    1    1    2    0    0  0.27119720451E+03  0.33580290985E+03  0.27038126976E+04  0.28161542621E+04  0.65864270000E+03 0.  0.
    8880022    1    1    2    0    0 -0.27119720451E+03 -0.33580290985E+03  0.87612305652E+03  0.98858220760E+03  0.15294330000E+03 0.  0.
<mgrwt>
<rscale>  0 0.68766905E+03</rscale>
<asrwt>0</asrwt>
<pdfrwt beam="1">  1        2 0.56805177E+00 0.78747808E+03</pdfrwt>
<pdfrwt beam="2">  1       -2 0.17292361E-01 0.78747808E+03</pdfrwt>
<totfact> 0.17522797E+01</totfact>
</mgrwt>
</event>
<event>
 4    1  0.6502538E-008  0.9284940E+03  0.7818608E-02  0.9481756E-01
          2   -1    0    0  501    0  0.00000000000E+00  0.00000000000E+00  0.23712918241E+04  0.23712918241E+04  0.25500000000E-02 0. -1.
         -2   -1    0    0    0  501 -0.00000000000E+00 -0.00000000000E+00 -0.28677973209E+03  0.28677973210E+03  0.25500000000E-02 0.  1.
    8880023    1    1    2    0    0  0.64362975304E+03 -0.11845524522E+03  0.15162641264E+04  0.17779645697E+04  0.65864270000E+03 0.  0.
    8880022    1    1    2    0    0 -0.64362975304E+03  0.11845524522E+03  0.56824796564E+03  0.88010698644E+03  0.15294330000E+03 0.  0.
<mgrwt>
<rscale>  0 0.85642333E+03</rscale>
<asrwt>0</asrwt>
<pdfrwt beam="1">  1        2 0.36481413E+00 0.92849400E+03</pdfrwt>
<pdfrwt beam="2">  1       -2 0.44119958E-01 0.92849400E+03</pdfrwt>
<totfact> 0.20478508E+01</totfact>
</mgrwt>
</event>
<event>
 4    1  0.6502538E-008  0.8303558E+03  0.7818608E-02  0.9648640E-01
         -2   -1    0    0    0  501 -0.00000000000E+00  0.00000000000E+00  0.30635414036E+03  0.30635414037E+03  0.25500000000E-02 0.  1.
          2   -1    0    0  501    0  0.00000000000E+00 -0.00000000000E+00 -0.19049416099E+04  0.19049416099E+04  0.25500000000E-02 0. -1.
    8880023    1    1    2    0    0  0.21465760346E+03  0.45782390224E+03 -0.14356115949E+04  0.16584545426E+04  0.65864270000E+03 0.  0.
    8880022    1    1    2    0    0 -0.21465760346E+03 -0.45782390224E+03 -0.16297587466E+03  0.55284120769E+03  0.15294330000E+03 0.  0.
<mgrwt>
<rscale>  0 0.74158813E+03</rscale>
<asrwt>0</asrwt>
<pdfrwt beam="1">  1        2 0.29306793E+00 0.83035584E+03</pdfrwt>
<pdfrwt beam="2">  1       -2 0.47131407E-01 0.83035584E+03</pdfrwt>
<totfact> 0.32854277E+01</totfact>
</mgrwt>
</event>
<event>
 4    1  0.6502538E-008  0.1327372E+04  0.7818608E-02  0.9042276E-01
         -2   -1    0    0    0  501 -0.00000000000E+00  0.00000000000E+00  0.50479303014E+03  0.50479303015E+03  0.25500000000E-02 0.  1.
          2   -1    0    0  501    0  0.00000000000E+00 -0.00000000000E+00 -0.41673674698E+04  0.41673674698E+04  0.25500000000E-02 0. -1.
    8880023    1    1    2    0    0 -0.93631445782E+03  0.67187890848E+03 -0.31172160804E+04  0.33880602606E+04  0.65864270000E+03 0.  0.
    8880022    1    1    2    0    0  0.93631445782E+03 -0.67187890848E+03 -0.54535835929E+03  0.12841002393E+04  0.15294330000E+03 0.  0.
<mgrwt>
<rscale>  0 0.12840927E+04</rscale>
<asrwt>0</asrwt>
<pdfrwt beam="1">  1        2 0.64113343E+00 0.13273719E+04</pdfrwt>
<pdfrwt beam="2">  1       -2 0.77660469E-01 0.13273719E+04</pdfrwt>
<totfact> 0.36730118E-01</totfact>
</mgrwt>
</event>
<event>
 4    1  0.6502538E-008  0.6792382E+03  0.7818608E-02  0.1009758E+00
         -2   -1    0    0    0  501 -0.00000000000E+00  0.00000000000E+00  0.49487950861E+03  0.49487950861E+03  0.25500000000E-02 0.  1.
          2   -1    0    0  501    0  0.00000000000E+00 -0.00000000000E+00 -0.14155306060E+04  0.14155306060E+04  0.25500000000E-02 0. -1.
    8880023    1    1    2    0    0 -0.16384229307E+03 -0.26645812587E+02 -0.13012811802E+04  0.14678886922E+04  0.65864270000E+03 0. -1.
    8880022    1    1    2    0    0  0.16384229307E+03  0.26645812587E+02  0.38063008285E+03  0.44252142243E+03  0.15294330000E+03 0.  0.
<mgrwt>
<rscale>  0 0.51570967E+03</rscale>
<asrwt>0</asrwt>
<pdfrwt beam="1">  1        2 0.21777394E+00 0.67923818E+03</pdfrwt>
<pdfrwt beam="2">  1       -2 0.76135310E-01 0.67923818E+03</pdfrwt>
<totfact> 0.22580843E+01</totfact>
</mgrwt>
</event>
<event>
 4    1  0.6502538E-008  0.1254696E+04  0.7818608E-02  0.9105705E-01
          2   -1    0    0  501    0  0.00000000000E+00  0.00000000000E+00  0.16074753302E+04  0.16074753302E+04  0.25500000000E-02 0. -1.
         -2   -1    0    0    0  501 -0.00000000000E+00 -0.00000000000E+00 -0.10444163996E+04  0.10444163996E+04  0.25500000000E-02 0.  1.
    8880023    1    1    2    0    0  0.77276468367E+02  0.10651194984E+04  0.87407398286E+03  0.15291392128E+04  0.65864270000E+03 0.  0.
    8880022    1    1    2    0    0 -0.77276468367E+02 -0.10651194984E+04 -0.31101505225E+03  0.11227525169E+04  0.15294330000E+03 0.  0.
<mgrwt>
<rscale>  0 0.12082050E+04</rscale>
<asrwt>0</asrwt>
<pdfrwt beam="1">  1        2 0.24730390E+00 0.12546957E+04</pdfrwt>
<pdfrwt beam="2">  1       -2 0.16067945E+00 0.12546957E+04</pdfrwt>
<totfact> 0.26565531E+00</totfact>
</mgrwt>
</event>
<event>
 4    1  0.6502538E-008  0.1549707E+04  0.7818608E-02  0.8875311E-01
          2   -1    0    0  501    0  0.00000000000E+00  0.00000000000E+00  0.15137205606E+04  0.15137205606E+04  0.25500000000E-02 0. -1.
         -2   -1    0    0    0  501 -0.00000000000E+00 -0.00000000000E+00 -0.20172062278E+04  0.20172062278E+04  0.25500000000E-02 0.  1.
    8880023    1    1    2    0    0  0.12778769726E+04  0.57862930085E+03  0.67703463269E+03  0.16911438511E+04  0.65864270000E+03 0.  0.
    8880022    1    1    2    0    0 -0.12778769726E+04 -0.57862930085E+03 -0.11805202999E+04  0.18397829373E+04  0.15294330000E+03 0.  0.
<mgrwt>
<rscale>  0 0.15138255E+04</rscale>
<asrwt>0</asrwt>
<pdfrwt beam="1">  1        2 0.23288009E+00 0.15497070E+04</pdfrwt>
<pdfrwt beam="2">  1       -2 0.31033942E+00 0.15497070E+04</pdfrwt>
<totfact> 0.32052173E-01</totfact>
</mgrwt>
</event>
<event>
 4    1  0.6502538E-008  0.6781585E+03  0.7818608E-02  0.1010385E+00
          2   -1    0    0  501    0  0.00000000000E+00  0.00000000000E+00  0.27723799029E+04  0.27723799029E+04  0.25500000000E-02 0. -1.
         -2   -1    0    0    0  501 -0.00000000000E+00 -0.00000000000E+00 -0.22775419809E+03  0.22775419810E+03  0.25500000000E-02 0.  1.
    8880023    1    1    2    0    0 -0.98847161411E+02 -0.12774191162E+03  0.26631130724E+04  0.27481030185E+04  0.65864270000E+03 0. -1.
    8880022    1    1    2    0    0  0.98847161411E+02  0.12774191162E+03 -0.11848736757E+03  0.25203108259E+03  0.15294330000E+03 0.  0.
<mgrwt>
<rscale>  0 0.51321882E+03</rscale>
<asrwt>0</asrwt>
<pdfrwt beam="1">  1        2 0.42651999E+00 0.67815851E+03</pdfrwt>
<pdfrwt beam="2">  1       -2 0.35039107E-01 0.67815851E+03</pdfrwt>
<totfact> 0.19578207E+01</totfact>
</mgrwt>
</event>
<event>
 4    1  0.6502538E-008  0.1038621E+04  0.7818608E-02  0.9332688E-01
         -2   -1    0    0    0  501 -0.00000000000E+00  0.00000000000E+00  0.15617201437E+04  0.15617201437E+04  0.25500000000E-02 0.  1.
          2   -1    0    0  501    0  0.00000000000E+00 -0.00000000000E+00 -0.79153073605E+03  0.79153073606E+03  0.25500000000E-02 0. -1.
    8880023    1    1    2    0    0  0.68266650073E+03  0.42295251272E+03 -0.22766418757E+03  0.10632796282E+04  0.65864270000E+03 0.  0.
    8880022    1    1    2    0    0 -0.68266650073E+03 -0.42295251272E+03  0.99785359518E+03  0.12899712515E+04  0.15294330000E+03 0.  0.
<mgrwt>
<rscale>  0 0.97828467E+03</rscale>
<asrwt>0</asrwt>
<pdfrwt beam="1">  1        2 0.12177396E+00 0.10386205E+04</pdfrwt>
<pdfrwt beam="2">  1       -2 0.24026464E+00 0.10386205E+04</pdfrwt>
<totfact> 0.25579752E+00</totfact>
</mgrwt>
</event>
<event>
 4    1  0.6502538E-008  0.8547814E+03  0.7818608E-02  0.9602915E-01
          2   -1    0    0  501    0  0.00000000000E+00  0.00000000000E+00  0.13283406495E+04  0.13283406495E+04  0.25500000000E-02 0. -1.
         -2   -1    0    0    0  501 -0.00000000000E+00 -0.00000000000E+00 -0.70362904502E+03  0.70362904502E+03  0.25500000000E-02 0.  1.
    8880023    1    1    2    0    0 -0.27233991300E+03 -0.47188138598E+03  0.10280949824E+04  0.13370230251E+04  0.65864270000E+03 0.  0.
    8880022    1    1    2    0    0  0.27233991300E+03  0.47188138598E+03 -0.40338337794E+03  0.69494666936E+03  0.15294330000E+03 0.  1.
<mgrwt>
<rscale>  0 0.77103576E+03</rscale>
<asrwt>0</asrwt>
<pdfrwt beam="1">  1        2 0.20436010E+00 0.85478142E+03</pdfrwt>
<pdfrwt beam="2">  1       -2 0.10825062E+00 0.85478142E+03</pdfrwt>
<totfact> 0.10966937E+01</totfact>
</mgrwt>
</event>
<event>
 4    1  0.6502538E-008  0.7171497E+03  0.7818608E-02  0.9932351E-01
         -2   -1    0    0    0  501 -0.00000000000E+00  0.00000000000E+00  0.12252913568E+04  0.12252913568E+04  0.25500000000E-02 0.  1.
          2   -1    0    0  501    0  0.00000000000E+00 -0.00000000000E+00 -0.13921399510E+04  0.13921399510E+04  0.25500000000E-02 0. -1.
    8880023    1    1    2    0    0 -0.27843036261E+03 -0.54498350636E+02 -0.12752776876E+04  0.14630915637E+04  0.65864270000E+03 0. -1.
    8880022    1    1    2    0    0  0.27843036261E+03  0.54498350636E+02  0.11084290933E+04  0.11543397442E+04  0.15294330000E+03 0.  0.
<mgrwt>
<rscale>  0 0.58718721E+03</rscale>
<asrwt>0</asrwt>
<pdfrwt beam="1">  1        2 0.21417538E+00 0.71714974E+03</pdfrwt>
<pdfrwt beam="2">  1       -2 0.18850636E+00 0.71714974E+03</pdfrwt>
<totfact> 0.23991742E+00</totfact>
</mgrwt>
</event>
<event>
 4    1  0.6502538E-008  0.1133867E+04  0.7818608E-02  0.9224254E-01
         -2   -1    0    0    0  501 -0.00000000000E+00  0.00000000000E+00  0.98962340803E+03  0.98962340804E+03  0.25500000000E-02 0.  1.
          2   -1    0    0  501    0  0.00000000000E+00 -0.00000000000E+00 -0.22846831858E+04  0.22846831858E+04  0.25500000000E-02 0. -1.
    8880023    1    1    2    0    0  0.30038084276E+03  0.87270628890E+03 -0.18622327517E+04  0.21802674022E+04  0.65864270000E+03 0. -1.
    8880022    1    1    2    0    0 -0.30038084276E+03 -0.87270628890E+03  0.56717297395E+03  0.10940391916E+04  0.15294330000E+03 0.  0.
<mgrwt>
<rscale>  0 0.10806557E+04</rscale>
<asrwt>0</asrwt>
<pdfrwt beam="1">  1        2 0.35148972E+00 0.11338673E+04</pdfrwt>
<pdfrwt beam="2">  1       -2 0.15224976E+00 0.11338673E+04</pdfrwt>
<totfact> 0.13100327E+00</totfact>
</mgrwt>
</event>
<event>
 4    1  0.6502538E-008  0.8528264E+03  0.7818608E-02  0.9606454E-01
         -2   -1    0    0    0  501 -0.00000000000E+00  0.00000000000E+00  0.13035873420E+04  0.13035873420E+04  0.25500000000E-02 0.  1.
          2   -1    0    0  501    0  0.00000000000E+00 -0.00000000000E+00 -0.21489868896E+04  0.21489868896E+04  0.25500000000E-02 0. -1.
    8880023    1    1    2    0    0 -0.25448389978E+02  0.54116079762E+03 -0.19965979420E+04  0.21711094347E+04  0.65864270000E+03 0.  0.
    8880022    1    1    2    0    0  0.25448389978E+02 -0.54116079762E+03  0.11511983944E+04  0.12814647969E+04  0.15294330000E+03 0.  0.
<mgrwt>
<rscale>  0 0.76870511E+03</rscale>
<asrwt>0</asrwt>
<pdfrwt beam="1">  1        2 0.33061337E+00 0.85282638E+03</pdfrwt>
<pdfrwt beam="2">  1       -2 0.20055190E+00 0.85282638E+03</pdfrwt>
<totfact> 0.74678915E-01</totfact>
</mgrwt>
</event>
<event>
 4    1  0.6502538E-008  0.8939962E+03  0.7818608E-02  0.9535739E-01
         -2   -1    0    0    0  501 -0.00000000000E+00  0.00000000000E+00  0.80833039459E+03  0.80833039459E+03  0.25500000000E-02 0.  1.
          2   -1    0    0  501    0  0.00000000000E+00 -0.00000000000E+00 -0.11723059384E+04  0.11723059384E+04  0.25500000000E-02 0. -1.
    8880023    1    1    2    0    0  0.40262682799E+03 -0.45089988889E+03 -0.81605985815E+03  0.12104474259E+04  0.65864270000E+03 0.  0.
    8880022    1    1    2    0    0 -0.40262682799E+03  0.45089988889E+03  0.45208431433E+03  0.77018890715E+03  0.15294330000E+03 0.  0.
<mgrwt>
<rscale>  0 0.81699434E+03</rscale>
<asrwt>0</asrwt>
<pdfrwt beam="1">  1        2 0.18035476E+00 0.89399624E+03</pdfrwt>
<pdfrwt beam="2">  1       -2 0.12435852E+00 0.89399624E+03</pdfrwt>
<totfact> 0.95862502E+00</totfact>
</mgrwt>
</event>
<event>
 4    1  0.6502538E-008  0.6814909E+03  0.7818608E-02  0.1008493E+00
         -2   -1    0    0    0  501 -0.00000000000E+00  0.00000000000E+00  0.62635337749E+02  0.62635337801E+02  0.25500000000E-02 0.  1.
          2   -1    0    0  501    0  0.00000000000E+00 -0.00000000000E+00 -0.35935430697E+04  0.35935430697E+04  0.25500000000E-02 0. -1.
    8880023    1    1    2    0    0 -0.14180008308E+03 -0.10252982834E+03 -0.30033640990E+04  0.30797119584E+04  0.65864270000E+03 0.  0.
    8880022    1    1    2    0    0  0.14180008308E+03  0.10252982834E+03 -0.52754363293E+03  0.57646644909E+03  0.15294330000E+03 0. -1.
<mgrwt>
<rscale>  0 0.52078157E+03</rscale>
<asrwt>0</asrwt>
<pdfrwt beam="1">  1        2 0.55285262E+00 0.68149089E+03</pdfrwt>
<pdfrwt beam="2">  1       -2 0.96362086E-02 0.68149089E+03</pdfrwt>
<totfact> 0.55564513E+01</totfact>
</mgrwt>
</event>
<event>
 4    1  0.6502538E-008  0.1884698E+04  0.7818608E-02  0.8677077E-01
          2   -1    0    0  501    0  0.00000000000E+00  0.00000000000E+00  0.24138301392E+04  0.24138301392E+04  0.25500000000E-02 0. -1.
         -2   -1    0    0    0  501 -0.00000000000E+00 -0.00000000000E+00 -0.20591124977E+04  0.20591124977E+04  0.25500000000E-02 0.  1.
    8880023    1    1    2    0    0  0.18057990020E+02  0.17657718162E+04  0.14600340764E+04  0.23840691912E+04  0.65864270000E+03 0.  0.
    8880022    1    1    2    0    0 -0.18057990020E+02 -0.17657718162E+04 -0.11053164349E+04  0.20888734457E+04  0.15294330000E+03 0.  0.
<mgrwt>
<rscale>  0 0.18559931E+04</rscale>
<asrwt>0</asrwt>
<pdfrwt beam="1">  1        2 0.37135848E+00 0.18846980E+04</pdfrwt>
<pdfrwt beam="2">  1       -2 0.31678654E+00 0.18846980E+04</pdfrwt>
<totfact> 0.87723466E-02</totfact>
</mgrwt>
</event>
<event>
 4    1  0.6502538E-008  0.9258711E+03  0.7818608E-02  0.9485715E-01
         -2   -1    0    0    0  501 -0.00000000000E+00  0.00000000000E+00  0.37959030846E+03  0.37959030847E+03  0.25500000000E-02 0.  1.
          2   -1    0    0  501    0  0.00000000000E+00 -0.00000000000E+00 -0.21808798761E+04  0.21808798761E+04  0.25500000000E-02 0. -1.
    8880023    1    1    2    0    0  0.39846059676E+03 -0.51444743562E+03 -0.16232241250E+04  0.18687144719E+04  0.65864270000E+03 0.  0.
    8880022    1    1    2    0    0 -0.39846059676E+03  0.51444743562E+03 -0.17806544268E+03  0.69175571272E+03  0.15294330000E+03 0.  0.
<mgrwt>
<rscale>  0 0.85345238E+03</rscale>
<asrwt>0</asrwt>
<pdfrwt beam="1">  1        2 0.33551997E+00 0.92587106E+03</pdfrwt>
<pdfrwt beam="2">  1       -2 0.58398511E-01 0.92587106E+03</pdfrwt>
<totfact> 0.14732079E+01</totfact>
</mgrwt>
</event>
<event>
 4    1  0.6502538E-008  0.1409334E+04  0.7818608E-02  0.8976464E-01
         -2   -1    0    0    0  501 -0.00000000000E+00  0.00000000000E+00  0.13174384447E+04  0.13174384447E+04  0.25500000000E-02 0.  1.
          2   -1    0    0  501    0  0.00000000000E+00 -0.00000000000E+00 -0.20512469740E+04  0.20512469740E+04  0.25500000000E-02 0. -1.
    8880023    1    1    2    0    0 -0.12325414035E+04 -0.18235795965E+03 -0.13664138629E+04  0.19629849179E+04  0.65864270000E+03 0.  0.
    8880022    1    1    2    0    0  0.12325414035E+04  0.18235795965E+03  0.63260533360E+03  0.14057005008E+04  0.15294330000E+03 0.  0.
<mgrwt>
<rscale>  0 0.13691413E+04</rscale>
<asrwt>0</asrwt>
<pdfrwt beam="1">  1        2 0.31557646E+00 0.14093342E+04</pdfrwt>
<pdfrwt beam="2">  1       -2 0.20268284E+00 0.14093342E+04</pdfrwt>
<totfact> 0.75758624E-01</totfact>
</mgrwt>
</event>
<event>
 4    1  0.6502538E-008  0.9215787E+03  0.7818608E-02  0.9492243E-01
          2   -1    0    0  501    0  0.00000000000E+00  0.00000000000E+00  0.25976025750E+04  0.25976025750E+04  0.25500000000E-02 0. -1.
         -2   -1    0    0    0  501 -0.00000000000E+00 -0.00000000000E+00 -0.37784362293E+03  0.37784362294E+03  0.25500000000E-02 0.  1.
    8880023    1    1    2    0    0  0.62820173960E+01 -0.64455998312E+03  0.21119223174E+04  0.23042402471E+04  0.65864270000E+03 0. -1.
    8880022    1    1    2    0    0 -0.62820173960E+01  0.64455998312E+03  0.10783663467E+03  0.67120595079E+03  0.15294330000E+03 0.  0.
<mgrwt>
<rscale>  0 0.84858160E+03</rscale>
<asrwt>0</asrwt>
<pdfrwt beam="1">  1        2 0.39963117E+00 0.92157867E+03</pdfrwt>
<pdfrwt beam="2">  1       -2 0.58129787E-01 0.92157867E+03</pdfrwt>
<totfact> 0.86597491E+00</totfact>
</mgrwt>
</event>
<event>
 4    1  0.6502538E-008  0.7112267E+03  0.7818608E-02  0.9953474E-01
          2   -1    0    0  501    0  0.00000000000E+00  0.00000000000E+00  0.16206897297E+04  0.16206897297E+04  0.25500000000E-02 0. -1.
         -2   -1    0    0    0  501 -0.00000000000E+00 -0.00000000000E+00 -0.11055653695E+04  0.11055653695E+04  0.25500000000E-02 0.  1.
    8880023    1    1    2    0    0 -0.17165770093E+03 -0.20631720442E+03  0.15182828216E+04  0.16766114898E+04  0.65864270000E+03 0.  0.
    8880022    1    1    2    0    0  0.17165770093E+03  0.20631720442E+03 -0.10031584614E+04  0.10496436094E+04  0.15294330000E+03 0.  1.
<mgrwt>
<rscale>  0 0.57738259E+03</rscale>
<asrwt>0</asrwt>
<pdfrwt beam="1">  1        2 0.24933688E+00 0.71122666E+03</pdfrwt>
<pdfrwt beam="2">  1       -2 0.17008698E+00 0.71122666E+03</pdfrwt>
<totfact> 0.23987289E+00</totfact>
</mgrwt>
</event>
<event>
 4    1  0.6502538E-008  0.6769441E+03  0.7818608E-02  0.1011108E+00
         -2   -1    0    0    0  501 -0.00000000000E+00  0.00000000000E+00  0.13940002105E+03  0.13940002108E+03  0.25500000000E-02 0.  1.
          2   -1    0    0  501    0  0.00000000000E+00 -0.00000000000E+00 -0.22172696324E+04  0.22172696324E+04  0.25500000000E-02 0. -1.
    8880023    1    1    2    0    0 -0.68482202298E+02 -0.14054626986E+03 -0.20200291359E+04  0.21304391524E+04  0.65864270000E+03 0. -1.
    8880022    1    1    2    0    0  0.68482202298E+02  0.14054626986E+03 -0.57840475463E+02  0.22623050108E+03  0.15294330000E+03 0.  0.
<mgrwt>
<rscale>  0 0.51036689E+03</rscale>
<asrwt>0</asrwt>
<pdfrwt beam="1">  1        2 0.34111838E+00 0.67694407E+03</pdfrwt>
<pdfrwt beam="2">  1       -2 0.21446159E-01 0.67694407E+03</pdfrwt>
<totfact> 0.99066724E+01</totfact>
</mgrwt>
</event>
<event>
 4    1  0.6502538E-008  0.7480550E+03  0.7818608E-02  0.9837076E-01
          2   -1    0    0  501    0  0.00000000000E+00  0.00000000000E+00  0.17721612072E+04  0.17721612072E+04  0.25500000000E-02 0. -1.
         -2   -1    0    0    0  501 -0.00000000000E+00 -0.00000000000E+00 -0.10247659854E+04  0.10247659854E+04  0.25500000000E-02 0.  1.
    8880023    1    1    2    0    0 -0.33237580735E+03 -0.12370266110E+03  0.16519170943E+04  0.18133991062E+04  0.65864270000E+03 0. -1.
    8880022    1    1    2    0    0  0.33237580735E+03  0.12370266110E+03 -0.90452187258E+03  0.98352808636E+03  0.15294330000E+03 0.  0.
<mgrwt>
<rscale>  0 0.63410251E+03</rscale>
<asrwt>0</asrwt>
<pdfrwt beam="1">  1        2 0.27264018E+00 0.74805497E+03</pdfrwt>
<pdfrwt beam="2">  1       -2 0.15765631E+00 0.74805497E+03</pdfrwt>
<totfact> 0.24227188E+00</totfact>
</mgrwt>
</event>
<event>
 4    1  0.6502538E-008  0.6792342E+03  0.7818608E-02  0.1009760E+00
         -2   -1    0    0    0  501 -0.00000000000E+00  0.00000000000E+00  0.81652910223E+03  0.81652910223E+03  0.25500000000E-02 0.  1.
          2   -1    0    0  501    0  0.00000000000E+00 -0.00000000000E+00 -0.98815779338E+03  0.98815779339E+03  0.25500000000E-02 0. -1.
    8880023    1    1    2    0    0 -0.30356477261E+02 -0.16317906473E+03 -0.85098344839E+03  0.10888213621E+04  0.65864270000E+03 0. -1.
    8880022    1    1    2    0    0  0.30356477261E+02  0.16317906473E+03  0.67935475724E+03  0.71586553351E+03  0.15294330000E+03 0.  0.
<mgrwt>
<rscale>  0 0.51570062E+03</rscale>
<asrwt>0</asrwt>
<pdfrwt beam="1">  1        2 0.15202428E+00 0.67923422E+03</pdfrwt>
<pdfrwt beam="2">  1       -2 0.12561986E+00 0.67923422E+03</pdfrwt>
<totfact> 0.12451804E+01</totfact>
</mgrwt>
</event>
<event>
 4    1  0.6502538E-008  0.6657476E+03  0.7818608E-02  0.1018914E+00
          2   -1    0    0  501    0  0.00000000000E+00  0.00000000000E+00  0.21750170443E+04  0.21750170443E+04  0.25500000000E-02 0. -1.
         -2   -1    0    0    0  501 -0.00000000000E+00 -0.00000000000E+00 -0.19884377060E+03  0.19884377062E+03  0.25500000000E-02 0.  1.
    8880023    1    1    2    0    0  0.88317461756E+02  0.40120185071E+02  0.20667732933E+04  0.21713524945E+04  0.65864270000E+03 0. -1.
    8880022    1    1    2    0    0 -0.88317461756E+02 -0.40120185071E+02 -0.90600019533E+02  0.20250832046E+03  0.15294330000E+03 0.  0.
<mgrwt>
<rscale>  0 0.48080447E+03</rscale>
<asrwt>0</asrwt>
<pdfrwt beam="1">  1        2 0.33461801E+00 0.66574756E+03</pdfrwt>
<pdfrwt beam="2">  1       -2 0.30591349E-01 0.66574756E+03</pdfrwt>
<totfact> 0.55053313E+01</totfact>
</mgrwt>
</event>
<event>
 4    1  0.6502538E-008  0.1368298E+04  0.7818608E-02  0.9008716E-01
         -2   -1    0    0    0  501 -0.00000000000E+00  0.00000000000E+00  0.10763395969E+04  0.10763395969E+04  0.25500000000E-02 0.  1.
          2   -1    0    0  501    0  0.00000000000E+00 -0.00000000000E+00 -0.22332189201E+04  0.22332189201E+04  0.25500000000E-02 0. -1.
    8880023    1    1    2    0    0  0.54458322652E+03  0.10685776048E+04 -0.15219374731E+04  0.20465905468E+04  0.65864270000E+03 0.  0.
    8880022    1    1    2    0    0 -0.54458322652E+03 -0.10685776048E+04  0.36505814993E+03  0.12629679702E+04  0.15294330000E+03 0.  0.
<mgrwt>
<rscale>  0 0.13266222E+04</rscale>
<asrwt>0</asrwt>
<pdfrwt beam="1">  1        2 0.34357214E+00 0.13682979E+04</pdfrwt>
<pdfrwt beam="2">  1       -2 0.16559071E+00 0.13682979E+04</pdfrwt>
<totfact> 0.10831021E+00</totfact>
</mgrwt>
</event>
<event>
 4    1  0.6502538E-008  0.6699395E+03  0.7818608E-02  0.1015706E+00
          2   -1    0    0  501    0  0.00000000000E+00  0.00000000000E+00  0.38508076229E+04  0.38508076229E+04  0.25500000000E-02 0. -1.
         -2   -1    0    0    0  501 -0.00000000000E+00 -0.00000000000E+00 -0.22538186960E+03  0.22538186962E+03  0.25500000000E-02 0.  1.
    8880023    1    1    2    0    0  0.50380529103E+02  0.11167156184E+03  0.37722809644E+04  0.38313082121E+04  0.65864270000E+03 0. -1.
    8880022    1    1    2    0    0 -0.50380529103E+02 -0.11167156184E+03 -0.14685521113E+03  0.24488128040E+03  0.15294330000E+03 0.  0.
<mgrwt>
<rscale>  0 0.49268421E+03</rscale>
<asrwt>0</asrwt>
<pdfrwt beam="1">  1        2 0.59243190E+00 0.66993951E+03</pdfrwt>
<pdfrwt beam="2">  1       -2 0.34674136E-01 0.66993951E+03</pdfrwt>
<totfact> 0.39218574E+00</totfact>
</mgrwt>
</event>
<event>
 4    1  0.6502538E-008  0.6909611E+03  0.7818608E-02  0.1003699E+00
          2   -1    0    0  501    0  0.00000000000E+00  0.00000000000E+00  0.27216189329E+04  0.27216189329E+04  0.25500000000E-02 0. -1.
         -2   -1    0    0    0  501 -0.00000000000E+00 -0.00000000000E+00 -0.66758056475E+03  0.66758056476E+03  0.25500000000E-02 0.  1.
    8880023    1    1    2    0    0  0.12782308585E+03 -0.16516147560E+03  0.26504493455E+04  0.27390343177E+04  0.65864270000E+03 0.  0.
    8880022    1    1    2    0    0 -0.12782308585E+03  0.16516147560E+03 -0.59641097735E+03  0.65016517995E+03  0.15294330000E+03 0.  0.
<mgrwt>
<rscale>  0 0.54057581E+03</rscale>
<asrwt>0</asrwt>
<pdfrwt beam="1">  1        2 0.41871059E+00 0.69096111E+03</pdfrwt>
<pdfrwt beam="2">  1       -2 0.10270471E+00 0.69096111E+03</pdfrwt>
<totfact> 0.21399350E+00</totfact>
</mgrwt>
</event>
<event>
 4    1  0.6502538E-008  0.1516960E+04  0.7818608E-02  0.8897752E-01
          2   -1    0    0  501    0  0.00000000000E+00  0.00000000000E+00  0.29469354830E+04  0.29469354830E+04  0.25500000000E-02 0. -1.
         -2   -1    0    0    0  501 -0.00000000000E+00 -0.00000000000E+00 -0.91515670760E+03  0.91515670761E+03  0.25500000000E-02 0.  1.
    8880023    1    1    2    0    0  0.13524482557E+04 -0.19554995477E+03  0.19690419420E+04  0.24856171155E+04  0.65864270000E+03 0.  0.
    8880022    1    1    2    0    0 -0.13524482557E+04  0.19554995477E+03  0.62736833388E+02  0.13764750751E+04  0.15294330000E+03 0.  0.
<mgrwt>
<rscale>  0 0.14801635E+04</rscale>
<asrwt>0</asrwt>
<pdfrwt beam="1">  1        2 0.45337468E+00 0.15169595E+04</pdfrwt>
<pdfrwt beam="2">  1       -2 0.14079334E+00 0.15169595E+04</pdfrwt>
<totfact> 0.62975090E-01</totfact>
</mgrwt>
</event>
<event>
 4    1  0.6502538E-008  0.6864698E+03  0.7818608E-02  0.1005878E+00
         -2   -1    0    0    0  501 -0.00000000000E+00  0.00000000000E+00  0.30716857083E+03  0.30716857084E+03  0.25500000000E-02 0.  1.
          2   -1    0    0  501    0  0.00000000000E+00 -0.00000000000E+00 -0.28182703614E+04  0.28182703614E+04  0.25500000000E-02 0. -1.
    8880023    1    1    2    0    0 -0.17401839124E+03  0.84546950200E+02 -0.27181087372E+04  0.28034542801E+04  0.65864270000E+03 0. -1.
    8880022    1    1    2    0    0  0.17401839124E+03 -0.84546950200E+02  0.20700694658E+03  0.32198465216E+03  0.15294330000E+03 0.  0.
<mgrwt>
<rscale>  0 0.53146404E+03</rscale>
<asrwt>0</asrwt>
<pdfrwt beam="1">  1        2 0.43358004E+00 0.68646981E+03</pdfrwt>
<pdfrwt beam="2">  1       -2 0.47256705E-01 0.68646981E+03</pdfrwt>
<totfact> 0.10237126E+01</totfact>
</mgrwt>
</event>
<event>
 4    1  0.6502538E-008  0.9916325E+03  0.7818608E-02  0.9392588E-01
         -2   -1    0    0    0  501 -0.00000000000E+00  0.00000000000E+00  0.15622121135E+04  0.15622121135E+04  0.25500000000E-02 0.  1.
          2   -1    0    0  501    0  0.00000000000E+00 -0.00000000000E+00 -0.27500914973E+04  0.27500914973E+04  0.25500000000E-02 0. -1.
    8880023    1    1    2    0    0 -0.56666985101E+03 -0.47792270337E+03 -0.25599503689E+04  0.27453016096E+04  0.65864270000E+03 0. -1.
    8880022    1    1    2    0    0  0.56666985101E+03  0.47792270337E+03  0.13720709851E+04  0.15670020011E+04  0.15294330000E+03 0.  0.
<mgrwt>
<rscale>  0 0.92688207E+03</rscale>
<asrwt>0</asrwt>
<pdfrwt beam="1">  1        2 0.42309100E+00 0.99163251E+03</pdfrwt>
<pdfrwt beam="2">  1       -2 0.24034033E+00 0.99163251E+03</pdfrwt>
<totfact> 0.18581994E-01</totfact>
</mgrwt>
</event>
<event>
 4    1  0.6502538E-008  0.1167311E+04  0.7818608E-02  0.9189572E-01
          2   -1    0    0  501    0  0.00000000000E+00  0.00000000000E+00  0.35190338588E+04  0.35190338588E+04  0.25500000000E-02 0. -1.
         -2   -1    0    0    0  501 -0.00000000000E+00 -0.00000000000E+00 -0.68523677982E+03  0.68523677983E+03  0.25500000000E-02 0.  1.
    8880023    1    1    2    0    0  0.31310656461E+03 -0.91146544930E+03  0.29957276485E+04  0.32151204233E+04  0.65864270000E+03 0.  0.
    8880022    1    1    2    0    0 -0.31310656461E+03  0.91146544930E+03 -0.16193056955E+03  0.98915021530E+03  0.15294330000E+03 0.  0.
<mgrwt>
<rscale>  0 0.11161711E+04</rscale>
<asrwt>0</asrwt>
<pdfrwt beam="1">  1        2 0.54138983E+00 0.11673111E+04</pdfrwt>
<pdfrwt beam="2">  1       -2 0.10542104E+00 0.11673111E+04</pdfrwt>
<totfact> 0.57691886E-01</totfact>
</mgrwt>
</event>
<event>
 4    1  0.6502538E-008  0.1034804E+04  0.7818608E-02  0.9337376E-01
          2   -1    0    0  501    0  0.00000000000E+00  0.00000000000E+00  0.37516237291E+04  0.37516237291E+04  0.25500000000E-02 0. -1.
         -2   -1    0    0    0  501 -0.00000000000E+00 -0.00000000000E+00 -0.30609860948E+03  0.30609860949E+03  0.25500000000E-02 0.  1.
    8880023    1    1    2    0    0  0.10327266629E+03 -0.79141940343E+03  0.85375698889E+03  0.13415368493E+04  0.65864270000E+03 0.  0.
    8880022    1    1    2    0    0 -0.10327266629E+03  0.79141940343E+03  0.25917681308E+04  0.27161854893E+04  0.15294330000E+03 0.  0.
<mgrwt>
<rscale>  0 0.97413626E+03</rscale>
<asrwt>0</asrwt>
<pdfrwt beam="1">  1        2 0.57717292E+00 0.10348044E+04</pdfrwt>
<pdfrwt beam="2">  1       -2 0.47092091E-01 0.10348044E+04</pdfrwt>
<totfact> 0.23737495E+00</totfact>
</mgrwt>
</event>
<event>
 4    1  0.6502538E-008  0.1801704E+04  0.7818608E-02  0.8721595E-01
          2   -1    0    0  501    0  0.00000000000E+00  0.00000000000E+00  0.17090506955E+04  0.17090506955E+04  0.25500000000E-02 0. -1.
         -2   -1    0    0    0  501 -0.00000000000E+00 -0.00000000000E+00 -0.23126787485E+04  0.23126787485E+04  0.25500000000E-02 0.  1.
    8880023    1    1    2    0    0  0.68515399940E+03  0.15306500237E+04 -0.12767540182E+04  0.22082202171E+04  0.65864270000E+03 0.  0.
    8880022    1    1    2    0    0 -0.68515399940E+03 -0.15306500237E+04  0.67312596522E+03  0.18135092269E+04  0.15294330000E+03 0.  0.
<mgrwt>
<rscale>  0 0.17715172E+04</rscale>
<asrwt>0</asrwt>
<pdfrwt beam="1">  1        2 0.26293087E+00 0.18017036E+04</pdfrwt>
<pdfrwt beam="2">  1       -2 0.35579673E+00 0.18017036E+04</pdfrwt>
<totfact> 0.12606770E-01</totfact>
</mgrwt>
</event>
<event>
 4    1  0.6502538E-008  0.7005257E+03  0.7818608E-02  0.9995027E-01
         -2   -1    0    0    0  501 -0.00000000000E+00  0.00000000000E+00  0.58879758666E+03  0.58879758667E+03  0.25500000000E-02 0.  1.
          2   -1    0    0  501    0  0.00000000000E+00 -0.00000000000E+00 -0.15751262075E+04  0.15751262075E+04  0.25500000000E-02 0. -1.
    8880023    1    1    2    0    0  0.51769171626E+02 -0.23290767700E+03 -0.14557807286E+04  0.16155598934E+04  0.65864270000E+03 0. -1.
    8880022    1    1    2    0    0 -0.51769171626E+02  0.23290767700E+03  0.46945210778E+03  0.54836390075E+03  0.15294330000E+03 0.  0.
<mgrwt>
<rscale>  0 0.55868813E+03</rscale>
<asrwt>0</asrwt>
<pdfrwt beam="1">  1        2 0.24232711E+00 0.70052569E+03</pdfrwt>
<pdfrwt beam="2">  1       -2 0.90584245E-01 0.70052569E+03</pdfrwt>
<totfact> 0.12384578E+01</totfact>
</mgrwt>
</event>
<event>
 4    1  0.6502538E-008  0.1443204E+04  0.7818608E-02  0.8950819E-01
         -2   -1    0    0    0  501 -0.00000000000E+00  0.00000000000E+00  0.23171597681E+04  0.23171597681E+04  0.25500000000E-02 0.  1.
          2   -1    0    0  501    0  0.00000000000E+00 -0.00000000000E+00 -0.13058651109E+04  0.13058651109E+04  0.25500000000E-02 0. -1.
    8880023    1    1    2    0    0  0.80406446154E+03 -0.10012534303E+04 -0.59482365974E+03  0.15609783735E+04  0.65864270000E+03 0. -1.
    8880022    1    1    2    0    0 -0.80406446154E+03  0.10012534303E+04  0.16061183169E+04  0.20620465056E+04  0.15294330000E+03 0.  0.
<mgrwt>
<rscale>  0 0.14041516E+04</rscale>
<asrwt>0</asrwt>
<pdfrwt beam="1">  1        2 0.20090233E+00 0.14432042E+04</pdfrwt>
<pdfrwt beam="2">  1       -2 0.35648612E+00 0.14432042E+04</pdfrwt>
<totfact> 0.22075797E-01</totfact>
</mgrwt>
</event>
<event>
 4    1  0.6502538E-008  0.6710006E+03  0.7818608E-02  0.1014956E+00
         -2   -1    0    0    0  501 -0.00000000000E+00  0.00000000000E+00  0.14112847651E+04  0.14112847651E+04  0.25500000000E-02 0.  1.
          2   -1    0    0  501    0  0.00000000000E+00 -0.00000000000E+00 -0.65602242560E+03  0.65602242560E+03  0.25500000000E-02 0. -1.
    8880023    1    1    2    0    0  0.40904763536E+02 -0.12148396773E+03 -0.47426748769E+03  0.82168814659E+03  0.65864270000E+03 0. -1.
    8880022    1    1    2    0    0 -0.40904763536E+02  0.12148396773E+03  0.12295298272E+04  0.12456190441E+04  0.15294330000E+03 0.  0.
<mgrwt>
<rscale>  0 0.49551773E+03</rscale>
<asrwt>0</asrwt>
<pdfrwt beam="1">  1        2 0.10092653E+00 0.67100057E+03</pdfrwt>
<pdfrwt beam="2">  1       -2 0.21712073E+00 0.67100057E+03</pdfrwt>
<totfact> 0.47420945E+00</totfact>
</mgrwt>
</event>
<event>
 4    1  0.6502538E-008  0.1060691E+04  0.7818608E-02  0.9306139E-01
          2   -1    0    0  501    0  0.00000000000E+00  0.00000000000E+00  0.82322637601E+03  0.82322637602E+03  0.25500000000E-02 0. -1.
         -2   -1    0    0    0  501 -0.00000000000E+00 -0.00000000000E+00 -0.26128895762E+04  0.26128895762E+04  0.25500000000E-02 0.  1.
    8880023    1    1    2    0    0 -0.39759184526E+03  0.73018839745E+03  0.36485199081E+03  0.11216869227E+04  0.65864270000E+03 0.  0.
    8880022    1    1    2    0    0  0.39759184526E+03 -0.73018839745E+03 -0.21545151910E+04  0.23144290295E+04  0.15294330000E+03 0.  0.
<mgrwt>
<rscale>  0 0.10021966E+04</rscale>
<asrwt>0</asrwt>
<pdfrwt beam="1">  1        2 0.12665021E+00 0.10606906E+04</pdfrwt>
<pdfrwt beam="2">  1       -2 0.40198301E+00 0.10606906E+04</pdfrwt>
<totfact> 0.24068581E-01</totfact>
</mgrwt>
</event>
<event>
 4    1  0.6502538E-008  0.9917867E+03  0.7818608E-02  0.9392383E-01
          2   -1    0    0  501    0  0.00000000000E+00  0.00000000000E+00  0.43068740040E+04  0.43068740040E+04  0.25500000000E-02 0. -1.
         -2   -1    0    0    0  501 -0.00000000000E+00 -0.00000000000E+00 -0.38731305810E+03  0.38731305811E+03  0.25500000000E-02 0.  1.
    8880023    1    1    2    0    0  0.69174054816E+03  0.26706875739E+03  0.38004877575E+04  0.39277663002E+04  0.65864270000E+03 0. -1.
    8880022    1    1    2    0    0 -0.69174054816E+03 -0.26706875739E+03  0.11907318834E+03  0.76642076194E+03  0.15294330000E+03 0.  0.
<mgrwt>
<rscale>  0 0.92705203E+03</rscale>
<asrwt>0</asrwt>
<pdfrwt beam="1">  1        2 0.66259602E+00 0.99178673E+03</pdfrwt>
<pdfrwt beam="2">  1       -2 0.59586623E-01 0.99178673E+03</pdfrwt>
<totfact> 0.52527356E-01</totfact>
</mgrwt>
</event>
<event>
 4    1  0.6502538E-008  0.7919846E+03  0.7818608E-02  0.9728403E-01
          2   -1    0    0  501    0  0.00000000000E+00  0.00000000000E+00  0.95246094705E+03  0.95246094705E+03  0.25500000000E-02 0. -1.
         -2   -1    0    0    0  501 -0.00000000000E+00 -0.00000000000E+00 -0.10910528934E+04  0.10910528934E+04  0.25500000000E-02 0.  1.
    8880023    1    1    2    0    0 -0.27976985133E+03  0.33934982354E+03  0.71770346757E+03  0.10688021080E+04  0.65864270000E+03 0. -1.
    8880022    1    1    2    0    0  0.27976985133E+03 -0.33934982354E+03 -0.85629541395E+03  0.97471173248E+03  0.15294330000E+03 0.  0.
<mgrwt>
<rscale>  0 0.69350608E+03</rscale>
<asrwt>0</asrwt>
<pdfrwt beam="1">  1        2 0.14653245E+00 0.79198465E+03</pdfrwt>
<pdfrwt beam="2">  1       -2 0.16785429E+00 0.79198465E+03</pdfrwt>
<totfact> 0.60558949E+00</totfact>
</mgrwt>
</event>
<event>
 4    1  0.6502538E-008  0.1280956E+04  0.7818608E-02  0.9082183E-01
          2   -1    0    0  501    0  0.00000000000E+00  0.00000000000E+00  0.18082187523E+04  0.18082187523E+04  0.25500000000E-02 0. -1.
         -2   -1    0    0    0  501 -0.00000000000E+00 -0.00000000000E+00 -0.10052766195E+04  0.10052766195E+04  0.25500000000E-02 0.  1.
    8880023    1    1    2    0    0  0.10817607558E+04 -0.19191463673E+03  0.10739854278E+04  0.16716137311E+04  0.65864270000E+03 0.  0.
    8880022    1    1    2    0    0 -0.10817607558E+04  0.19191463673E+03 -0.27104329498E+03  0.11418816407E+04  0.15294330000E+03 0.  0.
<mgrwt>
<rscale>  0 0.12356848E+04</rscale>
<asrwt>0</asrwt>
<pdfrwt beam="1">  1        2 0.27818749E+00 0.12809558E+04</pdfrwt>
<pdfrwt beam="2">  1       -2 0.15465795E+00 0.12809558E+04</pdfrwt>
<totfact> 0.22729341E+00</totfact>
</mgrwt>
</event>
<event>
 4    1  0.6502538E-008  0.1223159E+04  0.7818608E-02  0.9134932E-01
          2   -1    0    0  501    0  0.00000000000E+00  0.00000000000E+00  0.20968724686E+04  0.20968724686E+04  0.25500000000E-02 0. -1.
         -2   -1    0    0    0  501 -0.00000000000E+00 -0.00000000000E+00 -0.66736749958E+03  0.66736749959E+03  0.25500000000E-02 0.  1.
    8880023    1    1    2    0    0 -0.10191645644E+04 -0.15366362568E+03  0.11650848090E+04  0.16892429481E+04  0.65864270000E+03 0.  0.
    8880022    1    1    2    0    0  0.10191645644E+04  0.15366362568E+03  0.26442016002E+03  0.10749970201E+04  0.15294330000E+03 0.  0.
<mgrwt>
<rscale>  0 0.11751034E+04</rscale>
<asrwt>0</asrwt>
<pdfrwt beam="1">  1        2 0.32259576E+00 0.12231595E+04</pdfrwt>
<pdfrwt beam="2">  1       -2 0.10267192E+00 0.12231595E+04</pdfrwt>
<totfact> 0.44702813E+00</totfact>
</mgrwt>
</event>
<event>
 4    1  0.6502538E-008  0.1182263E+04  0.7818608E-02  0.9174560E-01
          2   -1    0    0  501    0  0.00000000000E+00  0.00000000000E+00  0.47378918470E+03  0.47378918471E+03  0.25500000000E-02 0. -1.
         -2   -1    0    0    0  501 -0.00000000000E+00 -0.00000000000E+00 -0.27656412728E+04  0.27656412728E+04  0.25500000000E-02 0.  1.
    8880023    1    1    2    0    0 -0.98178555903E+03  0.56499126819E+01 -0.17375828900E+04  0.21016515676E+04  0.65864270000E+03 0.  0.
    8880022    1    1    2    0    0  0.98178555903E+03 -0.56499126819E+01 -0.55426919801E+03  0.11377788899E+04  0.15294330000E+03 0.  0.
<mgrwt>
<rscale>  0 0.11319913E+04</rscale>
<asrwt>0</asrwt>
<pdfrwt beam="1">  1        2 0.72890646E-01 0.11822627E+04</pdfrwt>
<pdfrwt beam="2">  1       -2 0.42548326E+00 0.11822627E+04</pdfrwt>
<totfact> 0.32964668E-01</totfact>
</mgrwt>
</event>
<event>
 4    1  0.6502538E-008  0.1092240E+04  0.7818608E-02  0.9269745E-01
          2   -1    0    0  501    0  0.00000000000E+00  0.00000000000E+00  0.79705998500E+03  0.79705998501E+03  0.25500000000E-02 0. -1.
         -2   -1    0    0    0  501 -0.00000000000E+00 -0.00000000000E+00 -0.14531730791E+04  0.14531730791E+04  0.25500000000E-02 0.  1.
    8880023    1    1    2    0    0 -0.74737079835E+03 -0.44790089499E+03  0.85896769214E+02  0.10956125151E+04  0.65864270000E+03 0. -1.
    8880022    1    1    2    0    0  0.74737079835E+03  0.44790089499E+03 -0.74200986327E+03  0.11546205490E+04  0.15294330000E+03 0.  0.
<mgrwt>
<rscale>  0 0.10361652E+04</rscale>
<asrwt>0</asrwt>
<pdfrwt beam="1">  1        2 0.12262461E+00 0.10922401E+04</pdfrwt>
<pdfrwt beam="2">  1       -2 0.22356509E+00 0.10922401E+04</pdfrwt>
<totfact> 0.32004345E+00</totfact>
</mgrwt>
</event>
<event>
 4    1  0.6502538E-008  0.8493652E+03  0.7818608E-02  0.9612768E-01
         -2   -1    0    0    0  501 -0.00000000000E+00  0.00000000000E+00  0.13825888825E+04  0.13825888825E+04  0.25500000000E-02 0.  1.
          2   -1    0    0  501    0  0.00000000000E+00 -0.00000000000E+00 -0.41111111114E+03  0.41111111115E+03  0.25500000000E-02 0. -1.
    8880023    1    1    2    0    0 -0.31034710505E+02  0.53539507118E+03  0.25710267182E+03  0.88742494084E+03  0.65864270000E+03 0. -1.
    8880022    1    1    2    0    0  0.31034710505E+02 -0.53539507118E+03  0.71437509952E+03  0.90627505280E+03  0.15294330000E+03 0.  0.
<mgrwt>
<rscale>  0 0.76456844E+03</rscale>
<asrwt>0</asrwt>
<pdfrwt beam="1">  1        2 0.63247863E-01 0.84936520E+03</pdfrwt>
<pdfrwt beam="2">  1       -2 0.21270598E+00 0.84936520E+03</pdfrwt>
<totfact> 0.85703386E+00</totfact>
</mgrwt>
</event>
<event>
 4    1  0.6502538E-008  0.1213716E+04  0.7818608E-02  0.9143904E-01
         -2   -1    0    0    0  501 -0.00000000000E+00  0.00000000000E+00  0.85229891991E+03  0.85229891992E+03  0.25500000000E-02 0.  1.
          2   -1    0    0  501    0  0.00000000000E+00 -0.00000000000E+00 -0.39096982767E+04  0.39096982767E+04  0.25500000000E-02 0. -1.
    8880023    1    1    2    0    0 -0.49175091705E+03 -0.89301529332E+03 -0.34512564468E+04  0.36584527531E+04  0.65864270000E+03 0. -1.
    8880022    1    1    2    0    0  0.49175091705E+03  0.89301529332E+03  0.39385709002E+03  0.11035444436E+04  0.15294330000E+03 0.  0.
<mgrwt>
<rscale>  0 0.11651675E+04</rscale>
<asrwt>0</asrwt>
<pdfrwt beam="1">  1        2 0.60149203E+00 0.12137156E+04</pdfrwt>
<pdfrwt beam="2">  1       -2 0.13112291E+00 0.12137156E+04</pdfrwt>
<totfact> 0.17243322E-01</totfact>
</mgrwt>
</event>
<event>
 4    1  0.6502538E-008  0.8259356E+03  0.7818608E-02  0.9657293E-01
         -2   -1    0    0    0  501 -0.00000000000E+00  0.00000000000E+00  0.10571172935E+04  0.10571172935E+04  0.25500000000E-02 0.  1.
          2   -1    0    0  501    0  0.00000000000E+00 -0.00000000000E+00 -0.61960743476E+03  0.61960743477E+03  0.25500000000E-02 0. -1.
    8880023    1    1    2    0    0  0.12582378910E+03  0.48221134839E+03 -0.20336740229E+03  0.85060444214E+03  0.65864270000E+03 0.  0.
    8880022    1    1    2    0    0 -0.12582378910E+03 -0.48221134839E+03  0.64087726099E+03  0.82612028609E+03  0.15294330000E+03 0.  0.
<mgrwt>
<rscale>  0 0.73617497E+03</rscale>
<asrwt>0</asrwt>
<pdfrwt beam="1">  1        2 0.95324222E-01 0.82593560E+03</pdfrwt>
<pdfrwt beam="2">  1       -2 0.16263343E+00 0.82593560E+03</pdfrwt>
<totfact> 0.11581095E+01</totfact>
</mgrwt>
</event>
<event>
 4    1  0.6502538E-008  0.7420545E+03  0.7818608E-02  0.9854002E-01
         -2   -1    0    0    0  501 -0.00000000000E+00  0.00000000000E+00  0.40031949119E+03  0.40031949120E+03  0.25500000000E-02 0.  1.
          2   -1    0    0  501    0  0.00000000000E+00 -0.00000000000E+00 -0.17536582155E+04  0.17536582155E+04  0.25500000000E-02 0. -1.
    8880023    1    1    2    0    0 -0.25915955896E+02 -0.34082708249E+03 -0.15591133457E+04  0.17266960844E+04  0.65864270000E+03 0. -1.
    8880022    1    1    2    0    0  0.25915955896E+02  0.34082708249E+03  0.20577462138E+03  0.42728162229E+03  0.15294330000E+03 0.  0.
<mgrwt>
<rscale>  0 0.62543271E+03</rscale>
<asrwt>0</asrwt>
<pdfrwt beam="1">  1        2 0.26979357E+00 0.74205454E+03</pdfrwt>
<pdfrwt beam="2">  1       -2 0.61587615E-01 0.74205454E+03</pdfrwt>
<totfact> 0.23096592E+01</totfact>
</mgrwt>
</event>
<event>
 4    1  0.6502538E-008  0.7876992E+03  0.7818608E-02  0.9738053E-01
         -2   -1    0    0    0  501 -0.00000000000E+00  0.00000000000E+00  0.10367496711E+04  0.10367496711E+04  0.25500000000E-02 0.  1.
          2   -1    0    0  501    0  0.00000000000E+00 -0.00000000000E+00 -0.91386412154E+03  0.91386412154E+03  0.25500000000E-02 0. -1.
    8880023    1    1    2    0    0 -0.41977402434E+03  0.10222336540E+03 -0.67045860285E+03  0.10344006924E+04  0.65864270000E+03 0. -1.
    8880022    1    1    2    0    0  0.41977402434E+03 -0.10222336540E+03  0.79334415237E+03  0.91621310025E+03  0.15294330000E+03 0.  0.
<mgrwt>
<rscale>  0 0.68795659E+03</rscale>
<asrwt>0</asrwt>
<pdfrwt beam="1">  1        2 0.14059448E+00 0.78769922E+03</pdfrwt>
<pdfrwt beam="2">  1       -2 0.15949995E+00 0.78769922E+03</pdfrwt>
<totfact> 0.73889413E+00</totfact>
</mgrwt>
</event>
<event>
 4    1  0.6502538E-008  0.1163266E+04  0.7818608E-02  0.9193684E-01
         -2   -1    0    0    0  501 -0.00000000000E+00  0.00000000000E+00  0.18454952566E+04  0.18454952566E+04  0.25500000000E-02 0.  1.
          2   -1    0    0  501    0  0.00000000000E+00 -0.00000000000E+00 -0.86726243059E+03  0.86726243059E+03  0.25500000000E-02 0. -1.
    8880023    1    1    2    0    0  0.80137431061E+03 -0.52647644760E+03 -0.20599474932E+03  0.11813645833E+04  0.65864270000E+03 0.  0.
    8880022    1    1    2    0    0 -0.80137431061E+03  0.52647644760E+03  0.11842275753E+04  0.15313931039E+04  0.15294330000E+03 0.  0.
<mgrwt>
<rscale>  0 0.11118855E+04</rscale>
<asrwt>0</asrwt>
<pdfrwt beam="1">  1        2 0.13342499E+00 0.11632663E+04</pdfrwt>
<pdfrwt beam="2">  1       -2 0.28392234E+00 0.11632663E+04</pdfrwt>
<totfact> 0.12086169E+00</totfact>
</mgrwt>
</event>
<event>
 4    1  0.6502538E-008  0.1582712E+04  0.7818608E-02  0.8853335E-01
          2   -1    0    0  501    0  0.00000000000E+00  0.00000000000E+00  0.15349934481E+04  0.15349934481E+04  0.25500000000E-02 0. -1.
         -2   -1    0    0    0  501 -0.00000000000E+00 -0.00000000000E+00 -0.22667395338E+04  0.22667395338E+04  0.25500000000E-02 0.  1.
    8880023    1    1    2    0    0 -0.11197444590E+04  0.90406811576E+03  0.73157487252E+03  0.17436108545E+04  0.65864270000E+03 0.  0.
    8880022    1    1    2    0    0  0.11197444590E+04 -0.90406811576E+03 -0.14633209582E+04  0.20581221274E+04  0.15294330000E+03 0.  0.
<mgrwt>
<rscale>  0 0.15477042E+04</rscale>
<asrwt>0</asrwt>
<pdfrwt beam="1">  1        2 0.23615284E+00 0.15827119E+04</pdfrwt>
<pdfrwt beam="2">  1       -2 0.34872916E+00 0.15827119E+04</pdfrwt>
<totfact> 0.17935204E-01</totfact>
</mgrwt>
</event>
<event>
 4    1  0.6502538E-008  0.9148988E+03  0.7818608E-02  0.9502525E-01
         -2   -1    0    0    0  501 -0.00000000000E+00  0.00000000000E+00  0.93055077546E+03  0.93055077546E+03  0.25500000000E-02 0.  1.
          2   -1    0    0  501    0  0.00000000000E+00 -0.00000000000E+00 -0.10614330490E+04  0.10614330490E+04  0.25500000000E-02 0. -1.
    8880023    1    1    2    0    0  0.62930964613E+03 -0.84846932686E+02 -0.67898023057E+03  0.11393217247E+04  0.65864270000E+03 0.  0.
    8880022    1    1    2    0    0 -0.62930964613E+03  0.84846932686E+02  0.54809795706E+03  0.85266209969E+03  0.15294330000E+03 0.  0.
<mgrwt>
<rscale>  0 0.84097893E+03</rscale>
<asrwt>0</asrwt>
<pdfrwt beam="1">  1        2 0.16329739E+00 0.91489881E+03</pdfrwt>
<pdfrwt beam="2">  1       -2 0.14316166E+00 0.91489881E+03</pdfrwt>
<totfact> 0.77996664E+00</totfact>
</mgrwt>
</event>
<event>
 4    1  0.6502538E-008  0.6618802E+03  0.7818608E-02  0.1022308E+00
         -2   -1    0    0    0  501 -0.00000000000E+00  0.00000000000E+00  0.15934112859E+03  0.15934112861E+03  0.25500000000E-02 0.  1.
          2   -1    0    0  501    0  0.00000000000E+00 -0.00000000000E+00 -0.37138016855E+04  0.37138016855E+04  0.25500000000E-02 0. -1.
    8880023    1    1    2    0    0 -0.61976506837E+02  0.20835893684E+02 -0.36304368481E+04  0.36902787343E+04  0.65864270000E+03 0. -1.
    8880022    1    1    2    0    0  0.61976506837E+02 -0.20835893684E+02  0.75976291216E+02  0.18286407987E+03  0.15294330000E+03 0.  0.
<mgrwt>
<rscale>  0 0.46862944E+03</rscale>
<asrwt>0</asrwt>
<pdfrwt beam="1">  1        2 0.57135404E+00 0.66188022E+03</pdfrwt>
<pdfrwt beam="2">  1       -2 0.24514023E-01 0.66188022E+03</pdfrwt>
<totfact> 0.93925282E+00</totfact>
</mgrwt>
</event>
<event>
 4    1  0.6502538E-008  0.8272282E+03  0.7818608E-02  0.9654750E-01
         -2   -1    0    0    0  501 -0.00000000000E+00  0.00000000000E+00  0.79940189561E+03  0.79940189561E+03  0.25500000000E-02 0.  1.
          2   -1    0    0  501    0  0.00000000000E+00 -0.00000000000E+00 -0.89661356804E+03  0.89661356804E+03  0.25500000000E-02 0. -1.
    8880023    1    1    2    0    0 -0.42617360333E+03  0.26243532039E+03 -0.55873102783E+03  0.99824185711E+03  0.65864270000E+03 0. -1.
    8880022    1    1    2    0    0  0.42617360333E+03 -0.26243532039E+03  0.46151935540E+03  0.69777360654E+03  0.15294330000E+03 0.  0.
<mgrwt>
<rscale>  0 0.73776082E+03</rscale>
<asrwt>0</asrwt>
<pdfrwt beam="1">  1        2 0.13794055E+00 0.82722817E+03</pdfrwt>
<pdfrwt beam="2">  1       -2 0.12298491E+00 0.82722817E+03</pdfrwt>
<totfact> 0.14837072E+01</totfact>
</mgrwt>
</event>
<event>
 4    1  0.6502538E-008  0.7674371E+03  0.7818608E-02  0.9786220E-01
          2   -1    0    0  501    0  0.00000000000E+00  0.00000000000E+00  0.32055796561E+04  0.32055796561E+04  0.25500000000E-02 0. -1.
         -2   -1    0    0    0  501 -0.00000000000E+00 -0.00000000000E+00 -0.61383438605E+03  0.61383438606E+03  0.25500000000E-02 0.  1.
    8880023    1    1    2    0    0  0.34721504886E+03 -0.18598729487E+03  0.30797330470E+04  0.31739116893E+04  0.65864270000E+03 0.  1.
    8880022    1    1    2    0    0 -0.34721504886E+03  0.18598729487E+03 -0.48798777702E+03  0.64550235285E+03  0.15294330000E+03 0.  1.
<mgrwt>
<rscale>  0 0.66107300E+03</rscale>
<asrwt>0</asrwt>
<pdfrwt beam="1">  1        2 0.49316610E+00 0.76743714E+03</pdfrwt>
<pdfrwt beam="2">  1       -2 0.94436059E-01 0.76743714E+03</pdfrwt>
<totfact> 0.13024159E+00</totfact>
</mgrwt>
</event>
<event>
 4    1  0.6502538E-008  0.1450376E+04  0.7818608E-02  0.8945496E-01
         -2   -1    0    0    0  501 -0.00000000000E+00  0.00000000000E+00  0.20444891977E+04  0.20444891977E+04  0.25500000000E-02 0.  1.
          2   -1    0    0  501    0  0.00000000000E+00 -0.00000000000E+00 -0.97872621146E+03  0.97872621146E+03  0.25500000000E-02 0. -1.
    8880023    1    1    2    0    0 -0.48109334552E+03 -0.11993037358E+04  0.20923035818E+03  0.14653899845E+04  0.65864270000E+03 0.  0.
    8880022    1    1    2    0    0  0.48109334552E+03  0.11993037358E+04  0.85653262805E+03  0.15578254246E+04  0.15294330000E+03 0.  0.
<mgrwt>
<rscale>  0 0.14115559E+04</rscale>
<asrwt>0</asrwt>
<pdfrwt beam="1">  1        2 0.15057326E+00 0.14503760E+04</pdfrwt>
<pdfrwt beam="2">  1       -2 0.31453680E+00 0.14503760E+04</pdfrwt>
<totfact> 0.64139139E-01</totfact>
</mgrwt>
</event>
<event>
 4    1  0.6502538E-008  0.9085833E+03  0.7818608E-02  0.9512391E-01
          2   -1    0    0  501    0  0.00000000000E+00  0.00000000000E+00  0.20138392857E+04  0.20138392857E+04  0.25500000000E-02 0. -1.
         -2   -1    0    0    0  501 -0.00000000000E+00 -0.00000000000E+00 -0.30095945905E+03  0.30095945906E+03  0.25500000000E-02 0.  1.
    8880023    1    1    2    0    0 -0.34356544647E+03  0.52314062887E+03  0.10847316139E+04  0.14149792274E+04  0.65864270000E+03 0.  0.
    8880022    1    1    2    0    0  0.34356544647E+03 -0.52314062887E+03  0.62814821278E+03  0.89981951736E+03  0.15294330000E+03 0.  0.
<mgrwt>
<rscale>  0 0.83376429E+03</rscale>
<asrwt>0</asrwt>
<pdfrwt beam="1">  1        2 0.30982142E+00 0.90858326E+03</pdfrwt>
<pdfrwt beam="2">  1       -2 0.46301457E-01 0.90858326E+03</pdfrwt>
<totfact> 0.29424633E+01</totfact>
</mgrwt>
</event>
<event>
 4    1  0.6502538E-008  0.8863967E+03  0.7818608E-02  0.9548232E-01
          2   -1    0    0  501    0  0.00000000000E+00  0.00000000000E+00  0.17254778600E+04  0.17254778600E+04  0.25500000000E-02 0. -1.
         -2   -1    0    0    0  501 -0.00000000000E+00 -0.00000000000E+00 -0.72364825743E+03  0.72364825744E+03  0.25500000000E-02 0.  1.
    8880023    1    1    2    0    0  0.59318330933E+03  0.47372244944E+01  0.14434867542E+04  0.16939164960E+04  0.65864270000E+03 0. -1.
    8880022    1    1    2    0    0 -0.59318330933E+03 -0.47372244944E+01 -0.44165715158E+03  0.75520962144E+03  0.15294330000E+03 0.  0.
<mgrwt>
<rscale>  0 0.80819395E+03</rscale>
<asrwt>0</asrwt>
<pdfrwt beam="1">  1        2 0.26545813E+00 0.88639669E+03</pdfrwt>
<pdfrwt beam="2">  1       -2 0.11133050E+00 0.88639669E+03</pdfrwt>
<totfact> 0.61186892E+00</totfact>
</mgrwt>
</event>
<event>
 4    1  0.6502538E-008  0.9326918E+03  0.7818608E-02  0.9475467E-01
         -2   -1    0    0    0  501 -0.00000000000E+00  0.00000000000E+00  0.46269675620E+03  0.46269675621E+03  0.25500000000E-02 0.  1.
          2   -1    0    0  501    0  0.00000000000E+00 -0.00000000000E+00 -0.23091592647E+04  0.23091592647E+04  0.25500000000E-02 0. -1.
    8880023    1    1    2    0    0  0.65708779327E+03  0.65874044285E+02 -0.18741746320E+04  0.20934288895E+04  0.65864270000E+03 0.  0.
    8880022    1    1    2    0    0 -0.65708779327E+03 -0.65874044285E+02  0.27712123570E+02  0.67842713138E+03  0.15294330000E+03 0.  0.
<mgrwt>
<rscale>  0 0.86116974E+03</rscale>
<asrwt>0</asrwt>
<pdfrwt beam="1">  1        2 0.35525527E+00 0.93269178E+03</pdfrwt>
<pdfrwt beam="2">  1       -2 0.71184118E-01 0.93269178E+03</pdfrwt>
<totfact> 0.81563106E+00</totfact>
</mgrwt>
</event>
<event>
 4    1  0.6502538E-008  0.8842475E+03  0.7818608E-02  0.9551808E-01
          2   -1    0    0  501    0  0.00000000000E+00  0.00000000000E+00  0.10837558282E+04  0.10837558282E+04  0.25500000000E-02 0. -1.
         -2   -1    0    0    0  501 -0.00000000000E+00 -0.00000000000E+00 -0.87888988029E+03  0.87888988029E+03  0.25500000000E-02 0.  1.
    8880023    1    1    2    0    0  0.29511522388E+03 -0.51087224792E+03  0.73887264799E+03  0.11523135186E+04  0.65864270000E+03 0.  0.
    8880022    1    1    2    0    0 -0.29511522388E+03  0.51087224792E+03 -0.53400670011E+03  0.81033218980E+03  0.15294330000E+03 0.  0.
<mgrwt>
<rscale>  0 0.80569672E+03</rscale>
<asrwt>0</asrwt>
<pdfrwt beam="1">  1        2 0.16673167E+00 0.88424751E+03</pdfrwt>
<pdfrwt beam="2">  1       -2 0.13521383E+00 0.88424751E+03</pdfrwt>
<totfact> 0.87883291E+00</totfact>
</mgrwt>
</event>
<event>
 4    1  0.6502538E-008  0.1051850E+04  0.7818608E-02  0.9316661E-01
         -2   -1    0    0    0  501 -0.00000000000E+00  0.00000000000E+00  0.11192614880E+04  0.11192614880E+04  0.25500000000E-02 0.  1.
          2   -1    0    0  501    0  0.00000000000E+00 -0.00000000000E+00 -0.17889145722E+04  0.17889145722E+04  0.25500000000E-02 0. -1.
    8880023    1    1    2    0    0 -0.59593017505E+03 -0.56342295115E+03  0.72888885203E+03  0.12797137806E+04  0.65864270000E+03 0.  1.
    8880022    1    1    2    0    0  0.59593017505E+03  0.56342295115E+03 -0.13985419363E+04  0.16284622796E+04  0.15294330000E+03 0. -1.
<mgrwt>
<rscale>  0 0.99263403E+03</rscale>
<asrwt>0</asrwt>
<pdfrwt beam="1">  1        2 0.27521763E+00 0.10518500E+04</pdfrwt>
<pdfrwt beam="2">  1       -2 0.17219408E+00 0.10518500E+04</pdfrwt>
<totfact> 0.17786326E+00</totfact>
</mgrwt>
</event>
<event>
 4    1  0.6502538E-008  0.7173953E+03  0.7818608E-02  0.9931500E-01
          2   -1    0    0  501    0  0.00000000000E+00  0.00000000000E+00  0.10497012552E+04  0.10497012552E+04  0.25500000000E-02 0. -1.
         -2   -1    0    0    0  501 -0.00000000000E+00 -0.00000000000E+00 -0.10071271118E+04  0.10071271118E+04  0.25500000000E-02 0.  1.
    8880023    1    1    2    0    0  0.22920132515E+03  0.16826342438E+03  0.89399588001E+03  0.11462480827E+04  0.65864270000E+03 0. -1.
    8880022    1    1    2    0    0 -0.22920132515E+03 -0.16826342438E+03 -0.85142173665E+03  0.91058028426E+03  0.15294330000E+03 0.  0.
<mgrwt>
<rscale>  0 0.58758661E+03</rscale>
<asrwt>0</asrwt>
<pdfrwt beam="1">  1        2 0.16149250E+00 0.71739531E+03</pdfrwt>
<pdfrwt beam="2">  1       -2 0.15494263E+00 0.71739531E+03</pdfrwt>
<totfact> 0.65892854E+00</totfact>
</mgrwt>
</event>
<event>
 4    1  0.7199103E-008  0.1636377E+04  0.7818608E-02  0.8818893E-01
         -2   -1    0    0    0  501 -0.00000000000E+00  0.00000000000E+00  0.21328165653E+04  0.21328165653E+04  0.25500000000E-02 0.  1.
          2   -1    0    0  501    0  0.00000000000E+00 -0.00000000000E+00 -0.20005014454E+04  0.20005014454E+04  0.25500000000E-02 0. -1.
    8880023    1    1    2    0    0 -0.10975387364E+04 -0.10194745838E+04 -0.12733303252E+04  0.20734271215E+04  0.65864270000E+03 0.  0.
    8880022    1    1    2    0    0  0.10975387364E+04  0.10194745838E+04  0.14056454451E+04  0.20598908892E+04  0.15294330000E+03 0.  0.
<mgrwt>
<rscale>  0 0.16026970E+04</rscale>
<asrwt>0</asrwt>
<pdfrwt beam="1">  1        2 0.30776945E+00 0.16363771E+04</pdfrwt>
<pdfrwt beam="2">  1       -2 0.32812563E+00 0.16363771E+04</pdfrwt>
<totfact> 0.13148396E-01</totfact>
</mgrwt>
</event>
<event>
 4    1  0.7848804E-008  0.7768579E+03  0.7818608E-02  0.9763270E-01
         -2   -1    0    0    0  501 -0.00000000000E+00  0.00000000000E+00  0.13725673043E+04  0.13725673043E+04  0.25500000000E-02 0.  1.
          2   -1    0    0  501    0  0.00000000000E+00 -0.00000000000E+00 -0.22764786657E+04  0.22764786657E+04  0.25500000000E-02 0. -1.
    8880023    1    1    2    0    0  0.39979099699E+03  0.99323732591E+02 -0.21721228096E+04  0.23068649184E+04  0.65864270000E+03 0. -1.
    8880022    1    1    2    0    0 -0.39979099699E+03 -0.99323732591E+02  0.12682114482E+04  0.13421810517E+04  0.15294330000E+03 0.  0.
<mgrwt>
<rscale>  0 0.67371481E+03</rscale>
<asrwt>0</asrwt>
<pdfrwt beam="1">  1        2 0.35022749E+00 0.77685794E+03</pdfrwt>
<pdfrwt beam="2">  1       -2 0.21116420E+00 0.77685794E+03</pdfrwt>
<totfact> 0.55097073E-01</totfact>
</mgrwt>
</event>
<event>
 4    1  0.6502538E-008  0.9843953E+03  0.7818608E-02  0.9402264E-01
         -2   -1    0    0    0  501 -0.00000000000E+00  0.00000000000E+00  0.75055609482E+03  0.75055609482E+03  0.25500000000E-02 0.  1.
          2   -1    0    0  501    0  0.00000000000E+00 -0.00000000000E+00 -0.16277968211E+04  0.16277968211E+04  0.25500000000E-02 0. -1.
    8880023    1    1    2    0    0  0.18683933359E+03  0.70732952874E+03 -0.12103107592E+04  0.15600917726E+04  0.65864270000E+03 0.  0.
    8880022    1    1    2    0    0 -0.18683933359E+03 -0.70732952874E+03  0.33307003294E+03  0.81826114332E+03  0.15294330000E+03 0.  0.
<mgrwt>
<rscale>  0 0.91889588E+03</rscale>
<asrwt>0</asrwt>
<pdfrwt beam="1">  1        2 0.25043028E+00 0.98439535E+03</pdfrwt>
<pdfrwt beam="2">  1       -2 0.11547017E+00 0.98439535E+03</pdfrwt>
<totfact> 0.62628158E+00</totfact>
</mgrwt>
</event>
<event>
 4    1  0.6502538E-008  0.1161619E+04  0.7818608E-02  0.9195366E-01
         -2   -1    0    0    0  501 -0.00000000000E+00  0.00000000000E+00  0.16067642935E+04  0.16067642935E+04  0.25500000000E-02 0.  1.
          2   -1    0    0  501    0  0.00000000000E+00 -0.00000000000E+00 -0.10389213978E+04  0.10389213978E+04  0.25500000000E-02 0. -1.
    8880023    1    1    2    0    0  0.56953965035E+03  0.76887733059E+03 -0.44503469078E+03  0.12439509014E+04  0.65864270000E+03 0.  0.
    8880022    1    1    2    0    0 -0.56953965035E+03 -0.76887733059E+03  0.10128775865E+04  0.14017347898E+04  0.15294330000E+03 0.  0.
<mgrwt>
<rscale>  0 0.11101391E+04</rscale>
<asrwt>0</asrwt>
<pdfrwt beam="1">  1        2 0.15983406E+00 0.11616187E+04</pdfrwt>
<pdfrwt beam="2">  1       -2 0.24719451E+00 0.11616187E+04</pdfrwt>
<totfact> 0.15553098E+00</totfact>
</mgrwt>
</event>
<event>
 4    1  0.6502538E-008  0.6911190E+03  0.7818608E-02  0.1003625E+00
         -2   -1    0    0    0  501 -0.00000000000E+00  0.00000000000E+00  0.51621338108E+03  0.51621338109E+03  0.25500000000E-02 0.  1.
          2   -1    0    0  501    0  0.00000000000E+00 -0.00000000000E+00 -0.14736696838E+04  0.14736696838E+04  0.25500000000E-02 0. -1.
    8880023    1    1    2    0    0  0.18810190331E+03  0.91940237677E+02 -0.13516322966E+04  0.15180762184E+04  0.65864270000E+03 0. -1.
    8880022    1    1    2    0    0 -0.18810190331E+03 -0.91940237677E+02  0.39417599383E+03  0.47180684656E+03  0.15294330000E+03 0.  0.
<mgrwt>
<rscale>  0 0.54088832E+03</rscale>
<asrwt>0</asrwt>
<pdfrwt beam="1">  1        2 0.22671841E+00 0.69111905E+03</pdfrwt>
<pdfrwt beam="2">  1       -2 0.79417444E-01 0.69111905E+03</pdfrwt>
<totfact> 0.19038078E+01</totfact>
</mgrwt>
</event>
<event>
 4    1  0.6502538E-008  0.9531644E+03  0.7818608E-02  0.9445576E-01
         -2   -1    0    0    0  501 -0.00000000000E+00  0.00000000000E+00  0.13934020079E+04  0.13934020079E+04  0.25500000000E-02 0.  1.
          2   -1    0    0  501    0  0.00000000000E+00 -0.00000000000E+00 -0.85922094587E+03  0.85922094588E+03  0.25500000000E-02 0. -1.
    8880023    1    1    2    0    0  0.42636673108E+03  0.54122412768E+03 -0.43986538820E+03  0.10497637409E+04  0.65864270000E+03 0.  0.
    8880022    1    1    2    0    0 -0.42636673108E+03 -0.54122412768E+03  0.97404645027E+03  0.12028592129E+04  0.15294330000E+03 0.  0.
<mgrwt>
<rscale>  0 0.88418031E+03</rscale>
<asrwt>0</asrwt>
<pdfrwt beam="1">  1        2 0.13218784E+00 0.95316439E+03</pdfrwt>
<pdfrwt beam="2">  1       -2 0.21436954E+00 0.95316439E+03</pdfrwt>
<totfact> 0.33526078E+00</totfact>
</mgrwt>
</event>
<event>
 4    1  0.6502538E-008  0.9946457E+03  0.7818608E-02  0.9388596E-01
          2   -1    0    0  501    0  0.00000000000E+00  0.00000000000E+00  0.20523985292E+04  0.20523985292E+04  0.25500000000E-02 0. -1.
         -2   -1    0    0    0  501 -0.00000000000E+00 -0.00000000000E+00 -0.69534817713E+03  0.69534817713E+03  0.25500000000E-02 0.  1.
    8880023    1    1    2    0    0  0.48512815095E+03  0.56582727533E+03  0.16547874171E+04  0.19307100845E+04  0.65864270000E+03 0.  0.
    8880022    1    1    2    0    0 -0.48512815095E+03 -0.56582727533E+03 -0.29773706510E+03  0.81703662177E+03  0.15294330000E+03 0.  0.
<mgrwt>
<rscale>  0 0.93020118E+03</rscale>
<asrwt>0</asrwt>
<pdfrwt beam="1">  1        2 0.31575362E+00 0.99464568E+03</pdfrwt>
<pdfrwt beam="2">  1       -2 0.10697664E+00 0.99464568E+03</pdfrwt>
<totfact> 0.43963178E+00</totfact>
</mgrwt>
</event>
<event>
 4    1  0.6502538E-008  0.6867329E+03  0.7818608E-02  0.1005746E+00
         -2   -1    0    0    0  501 -0.00000000000E+00  0.00000000000E+00  0.32184113400E+03  0.32184113401E+03  0.25500000000E-02 0.  1.
          2   -1    0    0  501    0  0.00000000000E+00 -0.00000000000E+00 -0.16258590610E+04  0.16258590610E+04  0.25500000000E-02 0. -1.
    8880023    1    1    2    0    0  0.10537513372E+03  0.16336427414E+03 -0.14883996822E+04  0.16391874894E+04  0.65864270000E+03 0.  0.
    8880022    1    1    2    0    0 -0.10537513372E+03 -0.16336427414E+03  0.18438175525E+03  0.30851270566E+03  0.15294330000E+03 0.  0.
<mgrwt>
<rscale>  0 0.53201040E+03</rscale>
<asrwt>0</asrwt>
<pdfrwt beam="1">  1        2 0.25013216E+00 0.68673285E+03</pdfrwt>
<pdfrwt beam="2">  1       -2 0.49514022E-01 0.68673285E+03</pdfrwt>
<totfact> 0.42968234E+01</totfact>
</mgrwt>
</event>
<event>
 4    1  0.6502538E-008  0.9361891E+03  0.7818608E-02  0.9470270E-01
          2   -1    0    0  501    0  0.00000000000E+00  0.00000000000E+00  0.80688612815E+03  0.80688612815E+03  0.25500000000E-02 0. -1.
         -2   -1    0    0    0  501 -0.00000000000E+00 -0.00000000000E+00 -0.89099000831E+03  0.89099000831E+03  0.25500000000E-02 0.  1.
    8880023    1    1    2    0    0 -0.47658224908E+03  0.46422973630E+03  0.20191366741E+03  0.95771562770E+03  0.65864270000E+03 0.  0.
    8880022    1    1    2    0    0  0.47658224908E+03 -0.46422973630E+03 -0.28601754756E+03  0.74016050876E+03  0.15294330000E+03 0.  0.
<mgrwt>
<rscale>  0 0.86511653E+03</rscale>
<asrwt>0</asrwt>
<pdfrwt beam="1">  1        2 0.12413633E+00 0.93618913E+03</pdfrwt>
<pdfrwt beam="2">  1       -2 0.13707538E+00 0.93618913E+03</pdfrwt>
<totfact> 0.12887775E+01</totfact>
</mgrwt>
</event>
<event>
 4    1  0.6502538E-008  0.9804781E+03  0.7818608E-02  0.9407556E-01
          2   -1    0    0  501    0  0.00000000000E+00  0.00000000000E+00  0.36458036091E+04  0.36458036091E+04  0.25500000000E-02 0. -1.
         -2   -1    0    0    0  501 -0.00000000000E+00 -0.00000000000E+00 -0.72866049125E+03  0.72866049126E+03  0.25500000000E-02 0.  1.
    8880023    1    1    2    0    0  0.71022005704E+02 -0.72282980267E+03  0.33667883837E+04  0.35066510057E+04  0.65864270000E+03 0.  0.
    8880022    1    1    2    0    0 -0.71022005704E+02  0.72282980267E+03 -0.44964526593E+03  0.86781309457E+03  0.15294330000E+03 0.  0.
<mgrwt>
<rscale>  0 0.91456453E+03</rscale>
<asrwt>0</asrwt>
<pdfrwt beam="1">  1        2 0.56089286E+00 0.98047807E+03</pdfrwt>
<pdfrwt beam="2">  1       -2 0.11210161E+00 0.98047807E+03</pdfrwt>
<totfact> 0.41793485E-01</totfact>
</mgrwt>
</event>
<event>
 4    1  0.6502538E-008  0.8740441E+03  0.7818608E-02  0.9569054E-01
          2   -1    0    0  501    0  0.00000000000E+00  0.00000000000E+00  0.23332453377E+04  0.23332453377E+04  0.25500000000E-02 0. -1.
         -2   -1    0    0    0  501 -0.00000000000E+00 -0.00000000000E+00 -0.59969588826E+03  0.59969588826E+03  0.25500000000E-02 0.  1.
    8880023    1    1    2    0    0 -0.51779985672E+03 -0.24905070573E+03  0.20719767643E+04  0.22487865314E+04  0.65864270000E+03 0. -1.
    8880022    1    1    2    0    0  0.51779985672E+03  0.24905070573E+03 -0.33842731487E+03  0.68415469457E+03  0.15294330000E+03 0.  0.
<mgrwt>
<rscale>  0 0.79378706E+03</rscale>
<asrwt>0</asrwt>
<pdfrwt beam="1">  1        2 0.35896082E+00 0.87404414E+03</pdfrwt>
<pdfrwt beam="2">  1       -2 0.92260905E-01 0.87404414E+03</pdfrwt>
<totfact> 0.44351299E+00</totfact>
</mgrwt>
</event>
<event>
 4    1  0.6502538E-008  0.1178861E+04  0.7818608E-02  0.9177949E-01
         -2   -1    0    0    0  501 -0.00000000000E+00  0.00000000000E+00  0.56738299367E+03  0.56738299367E+03  0.25500000000E-02 0.  1.
          2   -1    0    0  501    0  0.00000000000E+00 -0.00000000000E+00 -0.26526199157E+04  0.26526199157E+04  0.25500000000E-02 0. -1.
    8880023    1    1    2    0    0 -0.74004916187E+03 -0.63892983731E+03 -0.18647730059E+04  0.22061488320E+04  0.65864270000E+03 0. -1.
    8880022    1    1    2    0    0  0.74004916187E+03  0.63892983731E+03 -0.22046391617E+03  0.10138540774E+04  0.15294330000E+03 0.  0.
<mgrwt>
<rscale>  0 0.11283954E+04</rscale>
<asrwt>0</asrwt>
<pdfrwt beam="1">  1        2 0.40809536E+00 0.11788614E+04</pdfrwt>
<pdfrwt beam="2">  1       -2 0.87289693E-01 0.11788614E+04</pdfrwt>
<totfact> 0.31791503E+00</totfact>
</mgrwt>
</event>
<event>
 4    1  0.6502538E-008  0.7041380E+03  0.7818608E-02  0.9980449E-01
         -2   -1    0    0    0  501 -0.00000000000E+00  0.00000000000E+00  0.79033646632E+03  0.79033646632E+03  0.25500000000E-02 0.  1.
          2   -1    0    0  501    0  0.00000000000E+00 -0.00000000000E+00 -0.14073153504E+04  0.14073153504E+04  0.25500000000E-02 0. -1.
    8880023    1    1    2    0    0  0.20003304358E+03 -0.14827985391E+03 -0.12868043407E+04  0.14668591450E+04  0.65864270000E+03 0. -1.
    8880022    1    1    2    0    0 -0.20003304358E+03  0.14827985391E+03  0.66982545668E+03  0.73079267172E+03  0.15294330000E+03 0.  0.
<mgrwt>
<rscale>  0 0.56515862E+03</rscale>
<asrwt>0</asrwt>
<pdfrwt beam="1">  1        2 0.21651005E+00 0.70413801E+03</pdfrwt>
<pdfrwt beam="2">  1       -2 0.12159023E+00 0.70413801E+03</pdfrwt>
<totfact> 0.75863260E+00</totfact>
</mgrwt>
</event>
<event>
 4    1  0.6502538E-008  0.1284640E+04  0.7818608E-02  0.9078939E-01
          2   -1    0    0  501    0  0.00000000000E+00  0.00000000000E+00  0.92062978857E+03  0.92062978857E+03  0.25500000000E-02 0. -1.
         -2   -1    0    0    0  501 -0.00000000000E+00 -0.00000000000E+00 -0.21468706545E+04  0.21468706545E+04  0.25500000000E-02 0.  1.
    8880023    1    1    2    0    0 -0.28516926325E+03  0.10654431586E+04  0.15429252905E+03  0.12938728777E+04  0.65864270000E+03 0. -1.
    8880022    1    1    2    0    0  0.28516926325E+03 -0.10654431586E+04 -0.13805333950E+04  0.17736275654E+04  0.15294330000E+03 0.  0.
<mgrwt>
<rscale>  0 0.12395348E+04</rscale>
<asrwt>0</asrwt>
<pdfrwt beam="1">  1        2 0.14163535E+00 0.12846404E+04</pdfrwt>
<pdfrwt beam="2">  1       -2 0.33028779E+00 0.12846404E+04</pdfrwt>
<totfact> 0.57066835E-01</totfact>
</mgrwt>
</event>
<event>
 4    1  0.6502538E-008  0.7294559E+03  0.7818608E-02  0.9891800E-01
          2   -1    0    0  501    0  0.00000000000E+00  0.00000000000E+00  0.21769755205E+04  0.21769755205E+04  0.25500000000E-02 0. -1.
         -2   -1    0    0    0  501 -0.00000000000E+00 -0.00000000000E+00 -0.16363078501E+03  0.16363078503E+03  0.25500000000E-02 0.  1.
    8880023    1    1    2    0    0 -0.24433335894E+03  0.19646080317E+03  0.82084268112E+03  0.10981295693E+04  0.65864270000E+03 0.  1.
    8880022    1    1    2    0    0  0.24433335894E+03 -0.19646080317E+03  0.11925020544E+04  0.12424767363E+04  0.15294330000E+03 0.  0.
<mgrwt>
<rscale>  0 0.60660350E+03</rscale>
<asrwt>0</asrwt>
<pdfrwt beam="1">  1        2 0.33491928E+00 0.72945585E+03</pdfrwt>
<pdfrwt beam="2">  1       -2 0.25173969E-01 0.72945585E+03</pdfrwt>
<totfact> 0.77832191E+01</totfact>
</mgrwt>
</event>
<event>
 4    1  0.6502538E-008  0.8759468E+03  0.7818608E-02  0.9565803E-01
          2   -1    0    0  501    0  0.00000000000E+00  0.00000000000E+00  0.26144491636E+04  0.26144491636E+04  0.25500000000E-02 0. -1.
         -2   -1    0    0    0  501 -0.00000000000E+00 -0.00000000000E+00 -0.22723773369E+03  0.22723773370E+03  0.25500000000E-02 0.  1.
    8880023    1    1    2    0    0  0.57746322687E+03 -0.29579996021E+01  0.98859302209E+03  0.13208326532E+04  0.65864270000E+03 0.  0.
    8880022    1    1    2    0    0 -0.57746322687E+03  0.29579996021E+01  0.13986184079E+04  0.15208542442E+04  0.15294330000E+03 0.  0.
<mgrwt>
<rscale>  0 0.79601482E+03</rscale>
<asrwt>0</asrwt>
<pdfrwt beam="1">  1        2 0.40222296E+00 0.87594676E+03</pdfrwt>
<pdfrwt beam="2">  1       -2 0.34959650E-01 0.87594676E+03</pdfrwt>
<totfact> 0.23581566E+01</totfact>
</mgrwt>
</event>
<event>
 4    1  0.6502538E-008  0.8858930E+03  0.7818608E-02  0.9549068E-01
         -2   -1    0    0    0  501 -0.00000000000E+00  0.00000000000E+00  0.11777215809E+04  0.11777215809E+04  0.25500000000E-02 0.  1.
          2   -1    0    0  501    0  0.00000000000E+00 -0.00000000000E+00 -0.21764403295E+04  0.21764403295E+04  0.25500000000E-02 0. -1.
    8880023    1    1    2    0    0 -0.13100692545E+03 -0.57778316266E+03 -0.19962116582E+04  0.21839568192E+04  0.65864270000E+03 0.  0.
    8880022    1    1    2    0    0  0.13100692545E+03  0.57778316266E+03  0.99749290966E+03  0.11702050912E+04  0.15294330000E+03 0.  0.
<mgrwt>
<rscale>  0 0.80760904E+03</rscale>
<asrwt>0</asrwt>
<pdfrwt beam="1">  1        2 0.33483697E+00 0.88589300E+03</pdfrwt>
<pdfrwt beam="2">  1       -2 0.18118794E+00 0.88589300E+03</pdfrwt>
<totfact> 0.96541738E-01</totfact>
</mgrwt>
</event>
<event>
 4    1  0.6502538E-008  0.6933578E+03  0.7818608E-02  0.1002596E+00
          2   -1    0    0  501    0  0.00000000000E+00  0.00000000000E+00  0.14830059431E+04  0.14830059431E+04  0.25500000000E-02 0. -1.
         -2   -1    0    0    0  501 -0.00000000000E+00 -0.00000000000E+00 -0.21226699919E+03  0.21226699921E+03  0.25500000000E-02 0.  1.
    8880023    1    1    2    0    0  0.18031198771E+03  0.12009349492E+03  0.12498122802E+04  0.14292570806E+04  0.65864270000E+03 0.  0.
    8880022    1    1    2    0    0 -0.18031198771E+03 -0.12009349492E+03  0.20926663744E+02  0.26601586175E+03  0.15294330000E+03 0.  0.
<mgrwt>
<rscale>  0 0.54526541E+03</rscale>
<asrwt>0</asrwt>
<pdfrwt beam="1">  1        2 0.22815476E+00 0.69335782E+03</pdfrwt>
<pdfrwt beam="2">  1       -2 0.32656461E-01 0.69335782E+03</pdfrwt>
<totfact> 0.11598560E+02</totfact>
</mgrwt>
</event>
<event>
 4    1  0.6502538E-008  0.8588347E+03  0.7818608E-02  0.9595640E-01
          2   -1    0    0  501    0  0.00000000000E+00  0.00000000000E+00  0.10887859803E+04  0.10887859803E+04  0.25500000000E-02 0. -1.
         -2   -1    0    0    0  501 -0.00000000000E+00 -0.00000000000E+00 -0.82159086131E+03  0.82159086132E+03  0.25500000000E-02 0.  1.
    8880023    1    1    2    0    0  0.37756743036E+03 -0.40153405185E+03  0.76647984705E+03  0.11511248071E+04  0.65864270000E+03 0.  0.
    8880022    1    1    2    0    0 -0.37756743036E+03  0.40153405185E+03 -0.49928472806E+03  0.75925203454E+03  0.15294330000E+03 0.  0.
<mgrwt>
<rscale>  0 0.77585444E+03</rscale>
<asrwt>0</asrwt>
<pdfrwt beam="1">  1        2 0.16750554E+00 0.85883466E+03</pdfrwt>
<pdfrwt beam="2">  1       -2 0.12639859E+00 0.85883466E+03</pdfrwt>
<totfact> 0.10382470E+01</totfact>
</mgrwt>
</event>
<event>
 4    1  0.6502538E-008  0.1071254E+04  0.7818608E-02  0.9293757E-01
          2   -1    0    0  501    0  0.00000000000E+00  0.00000000000E+00  0.33040470959E+04  0.33040470959E+04  0.25500000000E-02 0. -1.
         -2   -1    0    0    0  501 -0.00000000000E+00 -0.00000000000E+00 -0.33373549642E+03  0.33373549643E+03  0.25500000000E-02 0.  1.
    8880023    1    1    2    0    0  0.50736586173E+03 -0.67554026841E+03  0.23372126779E+04  0.25710208245E+04  0.65864270000E+03 0.  0.
    8880022    1    1    2    0    0 -0.50736586173E+03  0.67554026841E+03  0.63309892161E+03  0.10667617679E+04  0.15294330000E+03 0.  0.
<mgrwt>
<rscale>  0 0.10135963E+04</rscale>
<asrwt>0</asrwt>
<pdfrwt beam="1">  1        2 0.50831494E+00 0.10712539E+04</pdfrwt>
<pdfrwt beam="2">  1       -2 0.51343922E-01 0.10712539E+04</pdfrwt>
<totfact> 0.40490850E+00</totfact>
</mgrwt>
</event>
<event>
 4    1  0.6502538E-008  0.1196469E+04  0.7818608E-02  0.9160563E-01
          2   -1    0    0  501    0  0.00000000000E+00  0.00000000000E+00  0.22610662457E+04  0.22610662457E+04  0.25500000000E-02 0. -1.
         -2   -1    0    0    0  501 -0.00000000000E+00 -0.00000000000E+00 -0.91221102283E+03  0.91221102283E+03  0.25500000000E-02 0.  1.
    8880023    1    1    2    0    0  0.97832896751E+03 -0.20149427724E+03  0.17213309347E+04  0.20963105460E+04  0.65864270000E+03 0.  0.
    8880022    1    1    2    0    0 -0.97832896751E+03  0.20149427724E+03 -0.37247571182E+03  0.10769667225E+04  0.15294330000E+03 0.  0.
<mgrwt>
<rscale>  0 0.11469926E+04</rscale>
<asrwt>0</asrwt>
<pdfrwt beam="1">  1        2 0.34785634E+00 0.11964689E+04</pdfrwt>
<pdfrwt beam="2">  1       -2 0.14034016E+00 0.11964689E+04</pdfrwt>
<totfact> 0.16624007E+00</totfact>
</mgrwt>
</event>
<event>
 4    1  0.6502538E-008  0.9691461E+03  0.7818608E-02  0.9423086E-01
         -2   -1    0    0    0  501 -0.00000000000E+00  0.00000000000E+00  0.48114822730E+03  0.48114822730E+03  0.25500000000E-02 0.  1.
          2   -1    0    0  501    0  0.00000000000E+00 -0.00000000000E+00 -0.28507321275E+04  0.28507321275E+04  0.25500000000E-02 0. -1.
    8880023    1    1    2    0    0 -0.69192595455E+03  0.16331666713E+03 -0.24160644158E+04  0.26031925261E+04  0.65864270000E+03 0. -1.
    8880022    1    1    2    0    0  0.69192595455E+03 -0.16331666713E+03  0.46480515608E+02  0.72868782870E+03  0.15294330000E+03 0.  0.
<mgrwt>
<rscale>  0 0.90199883E+03</rscale>
<asrwt>0</asrwt>
<pdfrwt beam="1">  1        2 0.43857416E+00 0.96914605E+03</pdfrwt>
<pdfrwt beam="2">  1       -2 0.74022806E-01 0.96914605E+03</pdfrwt>
<totfact> 0.36213696E+00</totfact>
</mgrwt>
</event>
<event>
 4    1  0.6502538E-008  0.8211841E+03  0.7818608E-02  0.9666735E-01
          2   -1    0    0  501    0  0.00000000000E+00  0.00000000000E+00  0.11275315442E+04  0.11275315442E+04  0.25500000000E-02 0. -1.
         -2   -1    0    0    0  501 -0.00000000000E+00 -0.00000000000E+00 -0.86131286013E+03  0.86131286014E+03  0.25500000000E-02 0.  1.
    8880023    1    1    2    0    0 -0.44383394372E+03 -0.20867321862E+03  0.86982094305E+03  0.11962155997E+04  0.65864270000E+03 0. -1.
    8880022    1    1    2    0    0  0.44383394372E+03  0.20867321862E+03 -0.60360225902E+03  0.79262880459E+03  0.15294330000E+03 0.  0.
<mgrwt>
<rscale>  0 0.73032371E+03</rscale>
<asrwt>0</asrwt>
<pdfrwt beam="1">  1        2 0.17346639E+00 0.82118408E+03</pdfrwt>
<pdfrwt beam="2">  1       -2 0.13250967E+00 0.82118408E+03</pdfrwt>
<totfact> 0.87593206E+00</totfact>
</mgrwt>
</event>
<event>
 4    1  0.6502538E-008  0.9920965E+03  0.7818608E-02  0.9391972E-01
         -2   -1    0    0    0  501 -0.00000000000E+00  0.00000000000E+00  0.13470094665E+04  0.13470094665E+04  0.25500000000E-02 0.  1.
          2   -1    0    0  501    0  0.00000000000E+00 -0.00000000000E+00 -0.29689026721E+04  0.29689026721E+04  0.25500000000E-02 0. -1.
    8880023    1    1    2    0    0  0.73917776080E+03 -0.63730533236E+02 -0.27689373691E+04  0.29413040821E+04  0.65864270000E+03 0.  0.
    8880022    1    1    2    0    0 -0.73917776080E+03  0.63730533236E+02  0.11470441635E+04  0.13746080565E+04  0.15294330000E+03 0.  0.
<mgrwt>
<rscale>  0 0.92739344E+03</rscale>
<asrwt>0</asrwt>
<pdfrwt beam="1">  1        2 0.45675426E+00 0.99209654E+03</pdfrwt>
<pdfrwt beam="2">  1       -2 0.20723223E+00 0.99209654E+03</pdfrwt>
<totfact> 0.22137298E-01</totfact>
</mgrwt>
</event>
<event>
 4    1  0.6502538E-008  0.1455416E+04  0.7818608E-02  0.8941777E-01
         -2   -1    0    0    0  501 -0.00000000000E+00  0.00000000000E+00  0.11022308950E+04  0.11022308950E+04  0.25500000000E-02 0.  1.
          2   -1    0    0  501    0  0.00000000000E+00 -0.00000000000E+00 -0.29646530444E+04  0.29646530444E+04  0.25500000000E-02 0. -1.
    8880023    1    1    2    0    0  0.11169078133E+04 -0.66101644233E+03 -0.22712817626E+04  0.26975835208E+04  0.65864270000E+03 0.  0.
    8880022    1    1    2    0    0 -0.11169078133E+04  0.66101644233E+03  0.40885961315E+03  0.13693004187E+04  0.15294330000E+03 0.  0.
<mgrwt>
<rscale>  0 0.14167576E+04</rscale>
<asrwt>0</asrwt>
<pdfrwt beam="1">  1        2 0.45610046E+00 0.14554161E+04</pdfrwt>
<pdfrwt beam="2">  1       -2 0.16957399E+00 0.14554161E+04</pdfrwt>
<totfact> 0.37357956E-01</totfact>
</mgrwt>
</event>
<event>
 4    1  0.6502538E-008  0.9997224E+03  0.7818608E-02  0.9381921E-01
         -2   -1    0    0    0  501 -0.00000000000E+00  0.00000000000E+00  0.79909265479E+03  0.79909265479E+03  0.25500000000E-02 0.  1.
          2   -1    0    0  501    0  0.00000000000E+00 -0.00000000000E+00 -0.12454354602E+04  0.12454354602E+04  0.25500000000E-02 0. -1.
    8880023    1    1    2    0    0  0.67301348547E+03  0.33568957296E+03 -0.71750624338E+03  0.12305527443E+04  0.65864270000E+03 0.  0.
    8880022    1    1    2    0    0 -0.67301348547E+03 -0.33568957296E+03  0.27116343793E+03  0.81397537070E+03  0.15294330000E+03 0.  0.
<mgrwt>
<rscale>  0 0.93578569E+03</rscale>
<asrwt>0</asrwt>
<pdfrwt beam="1">  1        2 0.19160545E+00 0.99972239E+03</pdfrwt>
<pdfrwt beam="2">  1       -2 0.12293733E+00 0.99972239E+03</pdfrwt>
<totfact> 0.88319065E+00</totfact>
</mgrwt>
</event>
<event>
 4    1  0.6502538E-008  0.8403925E+03  0.7818608E-02  0.9629441E-01
          2   -1    0    0  501    0  0.00000000000E+00  0.00000000000E+00  0.15743305107E+04  0.15743305107E+04  0.25500000000E-02 0. -1.
         -2   -1    0    0    0  501 -0.00000000000E+00 -0.00000000000E+00 -0.49963081707E+03  0.49963081707E+03  0.25500000000E-02 0.  1.
    8880023    1    1    2    0    0 -0.36620783099E+03 -0.37194246537E+03  0.12466983539E+04  0.15035013684E+04  0.65864270000E+03 0. -1.
    8880022    1    1    2    0    0  0.36620783099E+03  0.37194246537E+03 -0.17199866028E+03  0.57045995931E+03  0.15294330000E+03 0.  0.
<mgrwt>
<rscale>  0 0.75377882E+03</rscale>
<asrwt>0</asrwt>
<pdfrwt beam="1">  1        2 0.24220470E+00 0.84039252E+03</pdfrwt>
<pdfrwt beam="2">  1       -2 0.76866279E-01 0.84039252E+03</pdfrwt>
<totfact> 0.17679300E+01</totfact>
</mgrwt>
</event>
<event>
 4    1  0.6502538E-008  0.1372101E+04  0.7818608E-02  0.9005670E-01
          2   -1    0    0  501    0  0.00000000000E+00  0.00000000000E+00  0.16263196448E+04  0.16263196448E+04  0.25500000000E-02 0. -1.
         -2   -1    0    0    0  501 -0.00000000000E+00 -0.00000000000E+00 -0.15955914298E+04  0.15955914298E+04  0.25500000000E-02 0.  1.
    8880023    1    1    2    0    0 -0.82342385788E+03 -0.87796649298E+03  0.97598701897E+03  0.16838090390E+04  0.65864270000E+03 0.  0.
    8880022    1    1    2    0    0  0.82342385788E+03  0.87796649298E+03 -0.94525880393E+03  0.15381020356E+04  0.15294330000E+03 0.  0.
<mgrwt>
<rscale>  0 0.13305681E+04</rscale>
<asrwt>0</asrwt>
<pdfrwt beam="1">  1        2 0.25020302E+00 0.13721014E+04</pdfrwt>
<pdfrwt beam="2">  1       -2 0.24547560E+00 0.13721014E+04</pdfrwt>
<totfact> 0.70328043E-01</totfact>
</mgrwt>
</event>
<event>
 4    1  0.6502538E-008  0.1345980E+04  0.7818608E-02  0.9026836E-01
         -2   -1    0    0    0  501 -0.00000000000E+00  0.00000000000E+00  0.19227643350E+04  0.19227643350E+04  0.25500000000E-02 0.  1.
          2   -1    0    0  501    0  0.00000000000E+00 -0.00000000000E+00 -0.14886910493E+04  0.14886910493E+04  0.25500000000E-02 0. -1.
    8880023    1    1    2    0    0  0.11713238067E+04 -0.76508050335E+02 -0.90671129226E+03  0.16228951031E+04  0.65864270000E+03 0. -1.
    8880022    1    1    2    0    0 -0.11713238067E+04  0.76508050335E+02  0.13407845779E+04  0.17885602812E+04  0.15294330000E+03 0.  0.
<mgrwt>
<rscale>  0 0.13034467E+04</rscale>
<asrwt>0</asrwt>
<pdfrwt beam="1">  1        2 0.22902939E+00 0.13459804E+04</pdfrwt>
<pdfrwt beam="2">  1       -2 0.29580990E+00 0.13459804E+04</pdfrwt>
<totfact> 0.41584380E-01</totfact>
</mgrwt>
</event>
<event>
 4    1  0.6502538E-008  0.1192340E+04  0.7818608E-02  0.9164605E-01
          2   -1    0    0  501    0  0.00000000000E+00  0.00000000000E+00  0.31363823589E+04  0.31363823589E+04  0.25500000000E-02 0. -1.
         -2   -1    0    0    0  501 -0.00000000000E+00 -0.00000000000E+00 -0.58878053554E+03  0.58878053554E+03  0.25500000000E-02 0.  1.
    8880023    1    1    2    0    0 -0.10809491852E+03  0.98801779659E+03  0.24375531250E+04  0.27135473317E+04  0.65864270000E+03 0. -1.
    8880022    1    1    2    0    0  0.10809491852E+03 -0.98801779659E+03  0.11004869835E+03  0.10116155628E+04  0.15294330000E+03 0.  0.
<mgrwt>
<rscale>  0 0.11426352E+04</rscale>
<asrwt>0</asrwt>
<pdfrwt beam="1">  1        2 0.48252036E+00 0.11923397E+04</pdfrwt>
<pdfrwt beam="2">  1       -2 0.90581621E-01 0.11923397E+04</pdfrwt>
<totfact> 0.14779113E+00</totfact>
</mgrwt>
</event>
<event>
 4    1  0.7499696E-008  0.8747694E+03  0.7818608E-02  0.9567813E-01
          2   -1    0    0  501    0  0.00000000000E+00  0.00000000000E+00  0.17710282685E+04  0.17710282685E+04  0.25500000000E-02 0. -1.
         -2   -1    0    0    0  501 -0.00000000000E+00 -0.00000000000E+00 -0.19815708094E+04  0.19815708094E+04  0.25500000000E-02 0.  1.
    8880023    1    1    2    0    0 -0.31003771017E+03 -0.48506488658E+03  0.16126182687E+04  0.18346005595E+04  0.65864270000E+03 0. -1.
    8880022    1    1    2    0    0  0.31003771017E+03  0.48506488658E+03 -0.18231608096E+04  0.19179985184E+04  0.15294330000E+03 0.  0.
<mgrwt>
<rscale>  0 0.79463667E+03</rscale>
<asrwt>0</asrwt>
<pdfrwt beam="1">  1        2 0.27246589E+00 0.87476942E+03</pdfrwt>
<pdfrwt beam="2">  1       -2 0.30485705E+00 0.87476942E+03</pdfrwt>
<totfact> 0.27445776E-01</totfact>
</mgrwt>
</event>
<event>
 4    1  0.6502538E-008  0.1371136E+04  0.7818608E-02  0.9006442E-01
         -2   -1    0    0    0  501 -0.00000000000E+00  0.00000000000E+00  0.83059082130E+03  0.83059082131E+03  0.25500000000E-02 0.  1.
          2   -1    0    0  501    0  0.00000000000E+00 -0.00000000000E+00 -0.32598787752E+04  0.32598787752E+04  0.25500000000E-02 0. -1.
    8880023    1    1    2    0    0 -0.97537988152E+03  0.70344737240E+03  0.48713652384E+01  0.13711447974E+04  0.65864270000E+03 0.  0.
    8880022    1    1    2    0    0  0.97537988152E+03 -0.70344737240E+03 -0.24341593191E+04  0.27193247991E+04  0.15294330000E+03 0. -1.
<mgrwt>
<rscale>  0 0.13295668E+04</rscale>
<asrwt>0</asrwt>
<pdfrwt beam="1">  1        2 0.50151981E+00 0.13711361E+04</pdfrwt>
<pdfrwt beam="2">  1       -2 0.12778320E+00 0.13711361E+04</pdfrwt>
<totfact> 0.52053549E-01</totfact>
</mgrwt>
</event>
<event>
 4    1  0.6502538E-008  0.9918704E+03  0.7818608E-02  0.9392272E-01
         -2   -1    0    0    0  501 -0.00000000000E+00  0.00000000000E+00  0.70564930012E+03  0.70564930013E+03  0.25500000000E-02 0.  1.
          2   -1    0    0  501    0  0.00000000000E+00 -0.00000000000E+00 -0.19374536430E+04  0.19374536430E+04  0.25500000000E-02 0. -1.
    8880023    1    1    2    0    0 -0.57545943313E+03 -0.46780674910E+03 -0.15348831978E+04  0.18274773188E+04  0.65864270000E+03 0.  0.
    8880022    1    1    2    0    0  0.57545943313E+03  0.46780674910E+03  0.30307885492E+03  0.81562562429E+03  0.15294330000E+03 0.  0.
<mgrwt>
<rscale>  0 0.92714426E+03</rscale>
<asrwt>0</asrwt>
<pdfrwt beam="1">  1        2 0.29806979E+00 0.99187041E+03</pdfrwt>
<pdfrwt beam="2">  1       -2 0.10856143E+00 0.99187041E+03</pdfrwt>
<totfact> 0.49099268E+00</totfact>
</mgrwt>
</event>
<event>
 4    1  0.6502538E-008  0.6827881E+03  0.7818608E-02  0.1007789E+00
         -2   -1    0    0    0  501 -0.00000000000E+00  0.00000000000E+00  0.10952128614E+04  0.10952128614E+04  0.25500000000E-02 0.  1.
          2   -1    0    0  501    0  0.00000000000E+00 -0.00000000000E+00 -0.57637510468E+03  0.57637510468E+03  0.25500000000E-02 0. -1.
    8880023    1    1    2    0    0 -0.40162177811E+02  0.17543208691E+03 -0.35277902430E+03  0.76853930537E+03  0.65864270000E+03 0. -1.
    8880022    1    1    2    0    0  0.40162177811E+02 -0.17543208691E+03  0.87161678102E+03  0.90304866071E+03  0.15294330000E+03 0.  0.
<mgrwt>
<rscale>  0 0.52363097E+03</rscale>
<asrwt>0</asrwt>
<pdfrwt beam="1">  1        2 0.88673093E-01 0.68278813E+03</pdfrwt>
<pdfrwt beam="2">  1       -2 0.16849429E+00 0.68278813E+03</pdfrwt>
<totfact> 0.11638081E+01</totfact>
</mgrwt>
</event>
<event>
 4    1  0.6502538E-008  0.1053109E+04  0.7818608E-02  0.9315154E-01
          2   -1    0    0  501    0  0.00000000000E+00  0.00000000000E+00  0.10239317370E+04  0.10239317370E+04  0.25500000000E-02 0. -1.
         -2   -1    0    0    0  501 -0.00000000000E+00 -0.00000000000E+00 -0.12340819075E+04  0.12340819075E+04  0.25500000000E-02 0.  1.
    8880023    1    1    2    0    0 -0.72215699585E+03  0.39206775008E+03  0.49576526840E+03  0.11639678926E+04  0.65864270000E+03 0.  0.
    8880022    1    1    2    0    0  0.72215699585E+03 -0.39206775008E+03 -0.70591543888E+03  0.10940457519E+04  0.15294330000E+03 0.  0.
<mgrwt>
<rscale>  0 0.99399685E+03</rscale>
<asrwt>0</asrwt>
<pdfrwt beam="1">  1        2 0.15752796E+00 0.10531088E+04</pdfrwt>
<pdfrwt beam="2">  1       -2 0.18985875E+00 0.10531088E+04</pdfrwt>
<totfact> 0.37247668E+00</totfact>
</mgrwt>
</event>
<event>
 4    1  0.6502538E-008  0.1128371E+04  0.7818608E-02  0.9230107E-01
         -2   -1    0    0    0  501 -0.00000000000E+00  0.00000000000E+00  0.15855364790E+04  0.15855364790E+04  0.25500000000E-02 0.  1.
          2   -1    0    0  501    0  0.00000000000E+00 -0.00000000000E+00 -0.11417480843E+04  0.11417480843E+04  0.25500000000E-02 0. -1.
    8880023    1    1    2    0    0  0.37534265669E+03  0.83578028188E+03 -0.64213272026E+03  0.12982894231E+04  0.65864270000E+03 0.  0.
    8880022    1    1    2    0    0 -0.37534265669E+03 -0.83578028188E+03  0.10859211150E+04  0.14289951402E+04  0.15294330000E+03 0.  0.
<mgrwt>
<rscale>  0 0.10748005E+04</rscale>
<asrwt>0</asrwt>
<pdfrwt beam="1">  1        2 0.17565355E+00 0.11283709E+04</pdfrwt>
<pdfrwt beam="2">  1       -2 0.24392869E+00 0.11283709E+04</pdfrwt>
<totfact> 0.14105981E+00</totfact>
</mgrwt>
</event>
<event>
 4    1  0.6502538E-008  0.8446072E+03  0.7818608E-02  0.9621553E-01
          2   -1    0    0  501    0  0.00000000000E+00  0.00000000000E+00  0.85011494142E+03  0.85011494142E+03  0.25500000000E-02 0. -1.
         -2   -1    0    0    0  501 -0.00000000000E+00 -0.00000000000E+00 -0.57734922676E+03  0.57734922677E+03  0.25500000000E-02 0.  1.
    8880023    1    1    2    0    0  0.47326001219E+03  0.23574591052E+03  0.99575974328E+02  0.85045679161E+03  0.65864270000E+03 0. -1.
    8880022    1    1    2    0    0 -0.47326001219E+03 -0.23574591052E+03  0.17318974033E+03  0.57700737659E+03  0.15294330000E+03 0.  0.
<mgrwt>
<rscale>  0 0.75885916E+03</rscale>
<asrwt>0</asrwt>
<pdfrwt beam="1">  1        2 0.13078691E+00 0.84460723E+03</pdfrwt>
<pdfrwt beam="2">  1       -2 0.88822959E-01 0.84460723E+03</pdfrwt>
<totfact> 0.34795440E+01</totfact>
</mgrwt>
</event>
<event>
 4    1  0.6502538E-008  0.7095201E+03  0.7818608E-02  0.9959787E-01
         -2   -1    0    0    0  501 -0.00000000000E+00  0.00000000000E+00  0.37018880616E+03  0.37018880617E+03  0.25500000000E-02 0.  1.
          2   -1    0    0  501    0  0.00000000000E+00 -0.00000000000E+00 -0.23557299770E+04  0.23557299770E+04  0.25500000000E-02 0. -1.
    8880023    1    1    2    0    0  0.25951629901E+03  0.47537486445E+02 -0.22267759925E+04  0.23370815238E+04  0.65864270000E+03 0. -1.
    8880022    1    1    2    0    0 -0.25951629901E+03 -0.47537486445E+02  0.24123482164E+03  0.38883725935E+03  0.15294330000E+03 0.  0.
<mgrwt>
<rscale>  0 0.57449200E+03</rscale>
<asrwt>0</asrwt>
<pdfrwt beam="1">  1        2 0.36241999E+00 0.70952007E+03</pdfrwt>
<pdfrwt beam="2">  1       -2 0.56952126E-01 0.70952007E+03</pdfrwt>
<totfact> 0.12799906E+01</totfact>
</mgrwt>
</event>
<event>
 4    1  0.6502538E-008  0.9300593E+03  0.7818608E-02  0.9479404E-01
          2   -1    0    0  501    0  0.00000000000E+00  0.00000000000E+00  0.20361367312E+04  0.20361367312E+04  0.25500000000E-02 0. -1.
         -2   -1    0    0    0  501 -0.00000000000E+00 -0.00000000000E+00 -0.98124718085E+03  0.98124718085E+03  0.25500000000E-02 0.  1.
    8880023    1    1    2    0    0  0.61795272781E+03 -0.22211357173E+03  0.17916580462E+04  0.20186750044E+04  0.65864270000E+03 0. -1.
    8880022    1    1    2    0    0 -0.61795272781E+03  0.22211357173E+03 -0.73676849591E+03  0.99870890761E+03  0.15294330000E+03 0.  0.
<mgrwt>
<rscale>  0 0.85819434E+03</rscale>
<asrwt>0</asrwt>
<pdfrwt beam="1">  1        2 0.31325180E+00 0.93005926E+03</pdfrwt>
<pdfrwt beam="2">  1       -2 0.15096111E+00 0.93005926E+03</pdfrwt>
<totfact> 0.18945461E+00</totfact>
</mgrwt>
</event>
<event>
 4    1  0.6502538E-008  0.1309817E+04  0.7818608E-02  0.9057128E-01
         -2   -1    0    0    0  501 -0.00000000000E+00  0.00000000000E+00  0.45196536451E+03  0.45196536452E+03  0.25500000000E-02 0.  1.
          2   -1    0    0  501    0  0.00000000000E+00 -0.00000000000E+00 -0.38904287498E+04  0.38904287498E+04  0.25500000000E-02 0. -1.
    8880023    1    1    2    0    0  0.69784635369E+03  0.89152794591E+03 -0.26446248583E+04  0.29512137265E+04  0.65864270000E+03 0.  0.
    8880022    1    1    2    0    0 -0.69784635369E+03 -0.89152794591E+03 -0.79383852701E+03  0.13911803879E+04  0.15294330000E+03 0.  0.
<mgrwt>
<rscale>  0 0.12658081E+04</rscale>
<asrwt>0</asrwt>
<pdfrwt beam="1">  1        2 0.59852748E+00 0.13098175E+04</pdfrwt>
<pdfrwt beam="2">  1       -2 0.69533136E-01 0.13098175E+04</pdfrwt>
<totfact> 0.78816536E-01</totfact>
</mgrwt>
</event>
<event>
 4    1  0.6502538E-008  0.1060225E+04  0.7818608E-02  0.9306690E-01
          2   -1    0    0  501    0  0.00000000000E+00  0.00000000000E+00  0.30653276116E+04  0.30653276116E+04  0.25500000000E-02 0. -1.
         -2   -1    0    0    0  501 -0.00000000000E+00 -0.00000000000E+00 -0.65132727105E+03  0.65132727105E+03  0.25500000000E-02 0.  1.
    8880023    1    1    2    0    0  0.79773963981E+03 -0.23211615669E+03  0.26376587720E+04  0.28427663370E+04  0.65864270000E+03 0.  0.
    8880022    1    1    2    0    0 -0.79773963981E+03  0.23211615669E+03 -0.22365843148E+03  0.87388854559E+03  0.15294330000E+03 0.  0.
<mgrwt>
<rscale>  0 0.10016932E+04</rscale>
<asrwt>0</asrwt>
<pdfrwt beam="1">  1        2 0.47158884E+00 0.10602248E+04</pdfrwt>
<pdfrwt beam="2">  1       -2 0.10020420E+00 0.10602248E+04</pdfrwt>
<totfact> 0.13165869E+00</totfact>
</mgrwt>
</event>
<event>
 4    1  0.6502538E-008  0.6870578E+03  0.7818608E-02  0.1005584E+00
         -2   -1    0    0    0  501 -0.00000000000E+00  0.00000000000E+00  0.41824815161E+03  0.41824815162E+03  0.25500000000E-02 0.  1.
          2   -1    0    0  501    0  0.00000000000E+00 -0.00000000000E+00 -0.15342117961E+04  0.15342117962E+04  0.25500000000E-02 0. -1.
    8880023    1    1    2    0    0  0.62939922226E+00  0.19554499809E+03 -0.14094904885E+04  0.15680280246E+04  0.65864270000E+03 0. -1.
    8880022    1    1    2    0    0 -0.62939922226E+00 -0.19554499809E+03  0.29352684397E+03  0.38443192319E+03  0.15294330000E+03 0.  0.
<mgrwt>
<rscale>  0 0.53268307E+03</rscale>
<asrwt>0</asrwt>
<pdfrwt beam="1">  1        2 0.23603258E+00 0.68705782E+03</pdfrwt>
<pdfrwt beam="2">  1       -2 0.64345870E-01 0.68705782E+03</pdfrwt>
<totfact> 0.27956177E+01</totfact>
</mgrwt>
</event>
<event>
 4    1  0.6502538E-008  0.1209878E+04  0.7818608E-02  0.9147580E-01
          2   -1    0    0  501    0  0.00000000000E+00  0.00000000000E+00  0.25995316779E+04  0.25995316779E+04  0.25500000000E-02 0. -1.
         -2   -1    0    0    0  501 -0.00000000000E+00 -0.00000000000E+00 -0.58102549900E+03  0.58102549901E+03  0.25500000000E-02 0.  1.
    8880023    1    1    2    0    0  0.52711664440E+03  0.86726153558E+03  0.17360537809E+04  0.21160546931E+04  0.65864270000E+03 0.  0.
    8880022    1    1    2    0    0 -0.52711664440E+03 -0.86726153558E+03  0.28245239806E+03  0.10645024838E+04  0.15294330000E+03 0.  0.
<mgrwt>
<rscale>  0 0.11611268E+04</rscale>
<asrwt>0</asrwt>
<pdfrwt beam="1">  1        2 0.39992796E+00 0.12098780E+04</pdfrwt>
<pdfrwt beam="2">  1       -2 0.89388537E-01 0.12098780E+04</pdfrwt>
<totfact> 0.32201287E+00</totfact>
</mgrwt>
</event>
<event>
 4    1  0.6502538E-008  0.9222304E+03  0.7818608E-02  0.9491248E-01
         -2   -1    0    0    0  501 -0.00000000000E+00  0.00000000000E+00  0.57598889116E+03  0.57598889116E+03  0.25500000000E-02 0.  1.
          2   -1    0    0  501    0  0.00000000000E+00 -0.00000000000E+00 -0.13379778813E+04  0.13379778813E+04  0.25500000000E-02 0. -1.
    8880023    1    1    2    0    0 -0.64539743581E+03  0.12682673695E+02 -0.83817572610E+03  0.12462132460E+04  0.65864270000E+03 0.  0.
    8880022    1    1    2    0    0  0.64539743581E+03 -0.12682673695E+02  0.76186735966E+02  0.66775352647E+03  0.15294330000E+03 0.  0.
<mgrwt>
<rscale>  0 0.84932187E+03</rscale>
<asrwt>0</asrwt>
<pdfrwt beam="1">  1        2 0.20584275E+00 0.92223040E+03</pdfrwt>
<pdfrwt beam="2">  1       -2 0.88613676E-01 0.92223040E+03</pdfrwt>
<totfact> 0.17255626E+01</totfact>
</mgrwt>
</event>
<event>
 4    1  0.6502538E-008  0.9526742E+03  0.7818608E-02  0.9446277E-01
          2   -1    0    0  501    0  0.00000000000E+00  0.00000000000E+00  0.29632958793E+04  0.29632958793E+04  0.25500000000E-02 0. -1.
         -2   -1    0    0    0  501 -0.00000000000E+00 -0.00000000000E+00 -0.61567750401E+03  0.61567750401E+03  0.25500000000E-02 0.  1.
    8880023    1    1    2    0    0  0.25123080796E+03 -0.64082833408E+03  0.26467950728E+04  0.28130254596E+04  0.65864270000E+03 0. -1.
    8880022    1    1    2    0    0 -0.25123080796E+03  0.64082833408E+03 -0.29917669746E+03  0.76594792378E+03  0.15294330000E+03 0.  0.
<mgrwt>
<rscale>  0 0.88363184E+03</rscale>
<asrwt>0</asrwt>
<pdfrwt beam="1">  1        2 0.45589167E+00 0.95267417E+03</pdfrwt>
<pdfrwt beam="2">  1       -2 0.94719617E-01 0.95267417E+03</pdfrwt>
<totfact> 0.17689560E+00</totfact>
</mgrwt>
</event>
<event>
 4    1  0.6502538E-008  0.8653675E+03  0.7818608E-02  0.9584086E-01
          2   -1    0    0  501    0  0.00000000000E+00  0.00000000000E+00  0.16529076458E+04  0.16529076458E+04  0.25500000000E-02 0. -1.
         -2   -1    0    0    0  501 -0.00000000000E+00 -0.00000000000E+00 -0.39177412627E+03  0.39177412628E+03  0.25500000000E-02 0.  1.
    8880023    1    1    2    0    0 -0.33268698755E+03  0.45207315598E+03  0.11708860364E+04  0.14559653452E+04  0.65864270000E+03 0.  0.
    8880022    1    1    2    0    0  0.33268698755E+03 -0.45207315598E+03  0.90247483186E+02  0.58871642688E+03  0.15294330000E+03 0.  0.
<mgrwt>
<rscale>  0 0.78358488E+03</rscale>
<asrwt>0</asrwt>
<pdfrwt beam="1">  1        2 0.25429348E+00 0.86536754E+03</pdfrwt>
<pdfrwt beam="2">  1       -2 0.60272943E-01 0.86536754E+03</pdfrwt>
<totfact> 0.27067943E+01</totfact>
</mgrwt>
</event>
<event>
 4    1  0.6502538E-008  0.1072556E+04  0.7818608E-02  0.9292245E-01
          2   -1    0    0  501    0  0.00000000000E+00  0.00000000000E+00  0.23003252108E+04  0.23003252108E+04  0.25500000000E-02 0. -1.
         -2   -1    0    0    0  501 -0.00000000000E+00 -0.00000000000E+00 -0.66038435584E+03  0.66038435585E+03  0.25500000000E-02 0.  1.
    8880023    1    1    2    0    0  0.54822184086E+03  0.64499534501E+03  0.17907502786E+04  0.20873818406E+04  0.65864270000E+03 0.  0.
    8880022    1    1    2    0    0 -0.54822184086E+03 -0.64499534501E+03 -0.15080942361E+03  0.87332772608E+03  0.15294330000E+03 0.  0.
<mgrwt>
<rscale>  0 0.10149996E+04</rscale>
<asrwt>0</asrwt>
<pdfrwt beam="1">  1        2 0.35389619E+00 0.10725560E+04</pdfrwt>
<pdfrwt beam="2">  1       -2 0.10159759E+00 0.10725560E+04</pdfrwt>
<totfact> 0.35886987E+00</totfact>
</mgrwt>
</event>
<event>
 4    1  0.6502538E-008  0.6899554E+03  0.7818608E-02  0.1004174E+00
         -2   -1    0    0    0  501 -0.00000000000E+00  0.00000000000E+00  0.12631798542E+03  0.12631798545E+03  0.25500000000E-02 0.  1.
          2   -1    0    0  501    0  0.00000000000E+00 -0.00000000000E+00 -0.24891446614E+04  0.24891446614E+04  0.25500000000E-02 0. -1.
    8880023    1    1    2    0    0 -0.15107434096E+03  0.13930114913E+03 -0.22144150362E+04  0.23194120862E+04  0.65864270000E+03 0. -1.
    8880022    1    1    2    0    0  0.15107434096E+03 -0.13930114913E+03 -0.14841163978E+03  0.29605056069E+03  0.15294330000E+03 0.  0.
<mgrwt>
<rscale>  0 0.53857381E+03</rscale>
<asrwt>0</asrwt>
<pdfrwt beam="1">  1        2 0.38294530E+00 0.68995541E+03</pdfrwt>
<pdfrwt beam="2">  1       -2 0.19433538E-01 0.68995541E+03</pdfrwt>
<totfact> 0.82946544E+01</totfact>
</mgrwt>
</event>
<event>
 4    1  0.6502538E-008  0.6767929E+03  0.7818608E-02  0.1011199E+00
          2   -1    0    0  501    0  0.00000000000E+00  0.00000000000E+00  0.17815544929E+04  0.17815544929E+04  0.25500000000E-02 0. -1.
         -2   -1    0    0    0  501 -0.00000000000E+00 -0.00000000000E+00 -0.22049963889E+03  0.22049963890E+03  0.25500000000E-02 0.  1.
    8880023    1    1    2    0    0  0.58472947626E+02 -0.14428915109E+03  0.16366693247E+04  0.17710830385E+04  0.65864270000E+03 0. -1.
    8880022    1    1    2    0    0 -0.58472947626E+02  0.14428915109E+03 -0.75614470690E+02  0.23097109326E+03  0.15294330000E+03 0.  0.
<mgrwt>
<rscale>  0 0.51000806E+03</rscale>
<asrwt>0</asrwt>
<pdfrwt beam="1">  1        2 0.27408530E+00 0.67679292E+03</pdfrwt>
<pdfrwt beam="2">  1       -2 0.33923023E-01 0.67679292E+03</pdfrwt>
<totfact> 0.74162238E+01</totfact>
</mgrwt>
</event>
<event>
 4    1  0.6502538E-008  0.1112836E+04  0.7818608E-02  0.9246898E-01
          2   -1    0    0  501    0  0.00000000000E+00  0.00000000000E+00  0.24202719748E+04  0.24202719748E+04  0.25500000000E-02 0. -1.
         -2   -1    0    0    0  501 -0.00000000000E+00 -0.00000000000E+00 -0.60050615493E+03  0.60050615494E+03  0.25500000000E-02 0.  1.
    8880023    1    1    2    0    0 -0.87413125233E+03  0.20121662037E+03  0.17932126657E+04  0.21104538482E+04  0.65864270000E+03 0.  0.
    8880022    1    1    2    0    0  0.87413125233E+03 -0.20121662037E+03  0.26553154178E+02  0.91032428157E+03  0.15294330000E+03 0.  0.
<mgrwt>
<rscale>  0 0.10582205E+04</rscale>
<asrwt>0</asrwt>
<pdfrwt beam="1">  1        2 0.37234953E+00 0.11128359E+04</pdfrwt>
<pdfrwt beam="2">  1       -2 0.92385563E-01 0.11128359E+04</pdfrwt>
<totfact> 0.38245573E+00</totfact>
</mgrwt>
</event>
<event>
 4    1  0.6502538E-008  0.9170895E+03  0.7818608E-02  0.9499136E-01
         -2   -1    0    0    0  501 -0.00000000000E+00  0.00000000000E+00  0.38735052396E+03  0.38735052397E+03  0.25500000000E-02 0.  1.
          2   -1    0    0  501    0  0.00000000000E+00 -0.00000000000E+00 -0.37199238386E+04  0.37199238386E+04  0.25500000000E-02 0. -1.
    8880023    1    1    2    0    0 -0.53593669479E+03  0.34643139839E+03 -0.33269361887E+04  0.34510226694E+04  0.65864270000E+03 0. -1.
    8880022    1    1    2    0    0  0.53593669479E+03 -0.34643139839E+03 -0.56371259392E+01  0.65625169319E+03  0.15294330000E+03 0.  0.
<mgrwt>
<rscale>  0 0.84347531E+03</rscale>
<asrwt>0</asrwt>
<pdfrwt beam="1">  1        2 0.57229595E+00 0.91708945E+03</pdfrwt>
<pdfrwt beam="2">  1       -2 0.59592391E-01 0.91708945E+03</pdfrwt>
<totfact> 0.15710386E+00</totfact>
</mgrwt>
</event>
<event>
 4    1  0.6502538E-008  0.8936915E+03  0.7818608E-02  0.9536236E-01
          2   -1    0    0  501    0  0.00000000000E+00  0.00000000000E+00  0.52571415333E+03  0.52571415333E+03  0.25500000000E-02 0. -1.
         -2   -1    0    0    0  501 -0.00000000000E+00 -0.00000000000E+00 -0.15780127310E+04  0.15780127310E+04  0.25500000000E-02 0.  1.
    8880023    1    1    2    0    0  0.45722320442E+03 -0.39474207130E+03 -0.15183631525E+02  0.89382051355E+03  0.65864270000E+03 0.  0.
    8880022    1    1    2    0    0 -0.45722320442E+03  0.39474207130E+03 -0.10371149461E+04  0.12099063708E+04  0.15294330000E+03 0.  0.
<mgrwt>
<rscale>  0 0.81664237E+03</rscale>
<asrwt>0</asrwt>
<pdfrwt beam="1">  1        2 0.80879101E-01 0.89369154E+03</pdfrwt>
<pdfrwt beam="2">  1       -2 0.24277119E+00 0.89369154E+03</pdfrwt>
<totfact> 0.41764321E+00</totfact>
</mgrwt>
</event>
<event>
 4    1  0.6502538E-008  0.8581023E+03  0.7818608E-02  0.9596948E-01
          2   -1    0    0  501    0  0.00000000000E+00  0.00000000000E+00  0.13319958397E+04  0.13319958398E+04  0.25500000000E-02 0. -1.
         -2   -1    0    0    0  501 -0.00000000000E+00 -0.00000000000E+00 -0.76355766839E+03  0.76355766840E+03  0.25500000000E-02 0.  1.
    8880023    1    1    2    0    0 -0.11662538385E+03  0.53752003566E+03  0.10448032943E+04  0.13520182687E+04  0.65864270000E+03 0.  0.
    8880022    1    1    2    0    0  0.11662538385E+03 -0.53752003566E+03 -0.47636512295E+03  0.74353523943E+03  0.15294330000E+03 0.  0.
<mgrwt>
<rscale>  0 0.77498503E+03</rscale>
<asrwt>0</asrwt>
<pdfrwt beam="1">  1        2 0.20492244E+00 0.85810225E+03</pdfrwt>
<pdfrwt beam="2">  1       -2 0.11747041E+00 0.85810225E+03</pdfrwt>
<totfact> 0.89388730E+00</totfact>
</mgrwt>
</event>
<event>
 4    1  0.6502538E-008  0.8003907E+03  0.7818608E-02  0.9709952E-01
          2   -1    0    0  501    0  0.00000000000E+00  0.00000000000E+00  0.20866250467E+04  0.20866250467E+04  0.25500000000E-02 0. -1.
         -2   -1    0    0    0  501 -0.00000000000E+00 -0.00000000000E+00 -0.38275383092E+03  0.38275383093E+03  0.25500000000E-02 0.  1.
    8880023    1    1    2    0    0 -0.89209356547E+01 -0.45468170865E+03  0.18090359875E+04  0.19781901955E+04  0.65864270000E+03 0.  0.
    8880022    1    1    2    0    0  0.89209356547E+01  0.45468170865E+03 -0.10516477168E+03  0.49118868217E+03  0.15294330000E+03 0.  0.
<mgrwt>
<rscale>  0 0.70427336E+03</rscale>
<asrwt>0</asrwt>
<pdfrwt beam="1">  1        2 0.32101924E+00 0.80039068E+03</pdfrwt>
<pdfrwt beam="2">  1       -2 0.58885204E-01 0.80039068E+03</pdfrwt>
<totfact> 0.16579445E+01</totfact>
</mgrwt>
</event>
<event>
 4    1  0.6502538E-008  0.9305731E+03  0.7818608E-02  0.9478634E-01
         -2   -1    0    0    0  501 -0.00000000000E+00  0.00000000000E+00  0.11670060407E+04  0.11670060407E+04  0.25500000000E-02 0.  1.
          2   -1    0    0  501    0  0.00000000000E+00 -0.00000000000E+00 -0.67814702168E+03  0.67814702169E+03  0.25500000000E-02 0. -1.
    8880023    1    1    2    0    0 -0.65687038523E+03  0.26025612813E+02 -0.11734503087E+03  0.93794248120E+03  0.65864270000E+03 0. -1.
    8880022    1    1    2    0    0  0.65687038523E+03 -0.26025612813E+02  0.60620404990E+03  0.90721058120E+03  0.15294330000E+03 0.  0.
<mgrwt>
<rscale>  0 0.85877539E+03</rscale>
<asrwt>0</asrwt>
<pdfrwt beam="1">  1        2 0.10433031E+00 0.93057307E+03</pdfrwt>
<pdfrwt beam="2">  1       -2 0.17953939E+00 0.93057307E+03</pdfrwt>
<totfact> 0.77824153E+00</totfact>
</mgrwt>
</event>
<event>
 4    1  0.6502538E-008  0.7936002E+03  0.7818608E-02  0.9724808E-01
          2   -1    0    0  501    0  0.00000000000E+00  0.00000000000E+00  0.10854334500E+04  0.10854334500E+04  0.25500000000E-02 0. -1.
         -2   -1    0    0    0  501 -0.00000000000E+00 -0.00000000000E+00 -0.11475827175E+04  0.11475827175E+04  0.25500000000E-02 0.  1.
    8880023    1    1    2    0    0  0.28361838238E+03 -0.33992897827E+03  0.87747897530E+03  0.11831190369E+04  0.65864270000E+03 0. -1.
    8880022    1    1    2    0    0 -0.28361838238E+03  0.33992897827E+03 -0.93962824278E+03  0.10498971306E+04  0.15294330000E+03 0.  0.
<mgrwt>
<rscale>  0 0.69558730E+03</rscale>
<asrwt>0</asrwt>
<pdfrwt beam="1">  1        2 0.16698976E+00 0.79360022E+03</pdfrwt>
<pdfrwt beam="2">  1       -2 0.17655119E+00 0.79360022E+03</pdfrwt>
<totfact> 0.43303592E+00</totfact>
</mgrwt>
</event>
<event>
 4    1  0.6502538E-008  0.1018019E+04  0.7818608E-02  0.9358353E-01
         -2   -1    0    0    0  501 -0.00000000000E+00  0.00000000000E+00  0.13297711570E+04  0.13297711570E+04  0.25500000000E-02 0.  1.
          2   -1    0    0  501    0  0.00000000000E+00 -0.00000000000E+00 -0.15405639160E+04  0.15405639160E+04  0.25500000000E-02 0. -1.
    8880023    1    1    2    0    0 -0.30499397910E+03 -0.71381509940E+03 -0.12193733325E+04  0.15884693430E+04  0.65864270000E+03 0.  0.
    8880022    1    1    2    0    0  0.30499397910E+03  0.71381509940E+03  0.10085805735E+04  0.12818657300E+04  0.15294330000E+03 0.  0.
<mgrwt>
<rscale>  0 0.95583750E+03</rscale>
<asrwt>0</asrwt>
<pdfrwt beam="1">  1        2 0.23700983E+00 0.10180194E+04</pdfrwt>
<pdfrwt beam="2">  1       -2 0.20458018E+00 0.10180194E+04</pdfrwt>
<totfact> 0.14825982E+00</totfact>
</mgrwt>
</event>
<event>
 4    1  0.6502538E-008  0.7842700E+03  0.7818608E-02  0.9745901E-01
         -2   -1    0    0    0  501 -0.00000000000E+00  0.00000000000E+00  0.10166744790E+04  0.10166744790E+04  0.25500000000E-02 0.  1.
          2   -1    0    0  501    0  0.00000000000E+00 -0.00000000000E+00 -0.20493197789E+04  0.20493197789E+04  0.25500000000E-02 0. -1.
    8880023    1    1    2    0    0  0.42222458538E+03  0.54732755542E+02 -0.19177821797E+04  0.20719478686E+04  0.65864270000E+03 0. -1.
    8880022    1    1    2    0    0 -0.42222458538E+03 -0.54732755542E+02  0.88513687978E+03  0.99404638926E+03  0.15294330000E+03 0.  0.
<mgrwt>
<rscale>  0 0.68348436E+03</rscale>
<asrwt>0</asrwt>
<pdfrwt beam="1">  1        2 0.31527997E+00 0.78427003E+03</pdfrwt>
<pdfrwt beam="2">  1       -2 0.15641146E+00 0.78427003E+03</pdfrwt>
<totfact> 0.17358626E+00</totfact>
</mgrwt>
</event>
<event>
 4    1  0.6502538E-008  0.7802988E+03  0.7818608E-02  0.9755136E-01
         -2   -1    0    0    0  501 -0.00000000000E+00  0.00000000000E+00  0.52962500307E+03  0.52962500308E+03  0.25500000000E-02 0.  1.
          2   -1    0    0  501    0  0.00000000000E+00 -0.00000000000E+00 -0.17534851924E+04  0.17534851924E+04  0.25500000000E-02 0. -1.
    8880023    1    1    2    0    0  0.41351384500E+03 -0.63736264281E+02 -0.15470857326E+04  0.17327263147E+04  0.65864270000E+03 0. -1.
    8880022    1    1    2    0    0 -0.41351384500E+03  0.63736264281E+02  0.32322554326E+03  0.55038388078E+03  0.15294330000E+03 0.  0.
<mgrwt>
<rscale>  0 0.67826820E+03</rscale>
<asrwt>0</asrwt>
<pdfrwt beam="1">  1        2 0.26976695E+00 0.78029880E+03</pdfrwt>
<pdfrwt beam="2">  1       -2 0.81480771E-01 0.78029880E+03</pdfrwt>
<totfact> 0.12452583E+01</totfact>
</mgrwt>
</event>
<event>
 4    1  0.6502538E-008  0.7051401E+03  0.7818608E-02  0.9976511E-01
         -2   -1    0    0    0  501 -0.00000000000E+00  0.00000000000E+00  0.16412315403E+03  0.16412315405E+03  0.25500000000E-02 0.  1.
          2   -1    0    0  501    0  0.00000000000E+00 -0.00000000000E+00 -0.37889196203E+04  0.37889196203E+04  0.25500000000E-02 0. -1.
    8880023    1    1    2    0    0  0.24171362976E+03  0.70617959634E+02 -0.35874107368E+04  0.36560550291E+04  0.65864270000E+03 0. -1.
    8880022    1    1    2    0    0 -0.24171362976E+03 -0.70617959634E+02 -0.37385729452E+02  0.29698774523E+03  0.15294330000E+03 0.  0.
<mgrwt>
<rscale>  0 0.56692297E+03</rscale>
<asrwt>0</asrwt>
<pdfrwt beam="1">  1        2 0.58291065E+00 0.70514011E+03</pdfrwt>
<pdfrwt beam="2">  1       -2 0.25249719E-01 0.70514011E+03</pdfrwt>
<totfact> 0.77757854E+00</totfact>
</mgrwt>
</event>
<event>
 4    1  0.6502538E-008  0.7168925E+03  0.7818608E-02  0.9933244E-01
          2   -1    0    0  501    0  0.00000000000E+00  0.00000000000E+00  0.12654127608E+04  0.12654127608E+04  0.25500000000E-02 0. -1.
         -2   -1    0    0    0  501 -0.00000000000E+00 -0.00000000000E+00 -0.15948836287E+04  0.15948836287E+04  0.25500000000E-02 0.  1.
    8880023    1    1    2    0    0  0.19253018673E+03 -0.20750128678E+03  0.11451206228E+04  0.13510129918E+04  0.65864270000E+03 0. -1.
    8880022    1    1    2    0    0 -0.19253018673E+03  0.20750128678E+03 -0.14745914908E+04  0.15092833977E+04  0.15294330000E+03 0.  0.
<mgrwt>
<rscale>  0 0.58676828E+03</rscale>
<asrwt>0</asrwt>
<pdfrwt beam="1">  1        2 0.19467889E+00 0.71689250E+03</pdfrwt>
<pdfrwt beam="2">  1       -2 0.24536671E+00 0.71689250E+03</pdfrwt>
<totfact> 0.12403919E+00</totfact>
</mgrwt>
</event>
<event>
 4    1  0.6502538E-008  0.1003367E+04  0.7818608E-02  0.9377166E-01
          2   -1    0    0  501    0  0.00000000000E+00  0.00000000000E+00  0.16583229359E+04  0.16583229359E+04  0.25500000000E-02 0. -1.
         -2   -1    0    0    0  501 -0.00000000000E+00 -0.00000000000E+00 -0.53566650586E+03  0.53566650586E+03  0.25500000000E-02 0.  1.
    8880023    1    1    2    0    0 -0.58896584378E+03 -0.47545207786E+03  0.99168559173E+03  0.14107395091E+04  0.65864270000E+03 0.  0.
    8880022    1    1    2    0    0  0.58896584378E+03  0.47545207786E+03  0.13097083832E+03  0.78324993265E+03  0.15294330000E+03 0.  0.
<mgrwt>
<rscale>  0 0.93978926E+03</rscale>
<asrwt>0</asrwt>
<pdfrwt beam="1">  1        2 0.25512660E+00 0.10033672E+04</pdfrwt>
<pdfrwt beam="2">  1       -2 0.82410232E-01 0.10033672E+04</pdfrwt>
<totfact> 0.13344283E+01</totfact>
</mgrwt>
</event>
<event>
 4    1  0.6502538E-008  0.8518725E+03  0.7818608E-02  0.9608187E-01
          2   -1    0    0  501    0  0.00000000000E+00  0.00000000000E+00  0.15116118857E+04  0.15116118857E+04  0.25500000000E-02 0. -1.
         -2   -1    0    0    0  501 -0.00000000000E+00 -0.00000000000E+00 -0.10771050288E+04  0.10771050288E+04  0.25500000000E-02 0.  1.
    8880023    1    1    2    0    0  0.15915746706E+02 -0.54002155347E+03  0.13016692136E+04  0.15556444121E+04  0.65864270000E+03 0. -1.
    8880022    1    1    2    0    0 -0.15915746706E+02  0.54002155347E+03 -0.86716235667E+03  0.10330725023E+04  0.15294330000E+03 0.  0.
<mgrwt>
<rscale>  0 0.76756645E+03</rscale>
<asrwt>0</asrwt>
<pdfrwt beam="1">  1        2 0.23255567E+00 0.85187252E+03</pdfrwt>
<pdfrwt beam="2">  1       -2 0.16570847E+00 0.85187252E+03</pdfrwt>
<totfact> 0.28957249E+00</totfact>
</mgrwt>
</event>
<event>
 4    1  0.6502538E-008  0.7262824E+03  0.7818608E-02  0.9901875E-01
         -2   -1    0    0    0  501 -0.00000000000E+00  0.00000000000E+00  0.59985627894E+03  0.59985627894E+03  0.25500000000E-02 0.  1.
          2   -1    0    0  501    0  0.00000000000E+00 -0.00000000000E+00 -0.19915644678E+04  0.19915644678E+04  0.25500000000E-02 0. -1.
    8880023    1    1    2    0    0 -0.21548442197E+03 -0.21735323856E+03 -0.18684296467E+04  0.20046235350E+04  0.65864270000E+03 0. -1.
    8880022    1    1    2    0    0  0.21548442197E+03  0.21735323856E+03  0.47672145776E+03  0.58679721175E+03  0.15294330000E+03 0.  0.
<mgrwt>
<rscale>  0 0.60170518E+03</rscale>
<asrwt>0</asrwt>
<pdfrwt beam="1">  1        2 0.30639453E+00 0.72628243E+03</pdfrwt>
<pdfrwt beam="2">  1       -2 0.92285582E-01 0.72628243E+03</pdfrwt>
<totfact> 0.70007338E+00</totfact>
</mgrwt>
</event>
<event>
 4    1  0.6502538E-008  0.6666112E+03  0.7818608E-02  0.1018218E+00
         -2   -1    0    0    0  501 -0.00000000000E+00  0.00000000000E+00  0.18141622635E+03  0.18141622637E+03  0.25500000000E-02 0.  1.
          2   -1    0    0  501    0  0.00000000000E+00 -0.00000000000E+00 -0.21933685379E+04  0.21933685379E+04  0.25500000000E-02 0. -1.
    8880023    1    1    2    0    0  0.75497923519E+02 -0.69716468171E+02 -0.20754603381E+04  0.21798867272E+04  0.65864270000E+03 0. -1.
    8880022    1    1    2    0    0 -0.75497923519E+02  0.69716468171E+02  0.63508026527E+02  0.19489803703E+03  0.15294330000E+03 0.  0.
<mgrwt>
<rscale>  0 0.48335098E+03</rscale>
<asrwt>0</asrwt>
<pdfrwt beam="1">  1        2 0.33744129E+00 0.66661123E+03</pdfrwt>
<pdfrwt beam="2">  1       -2 0.27910190E-01 0.66661123E+03</pdfrwt>
<totfact> 0.63702912E+01</totfact>
</mgrwt>
</event>
<event>
 4    1  0.6502538E-008  0.9848200E+03  0.7818608E-02  0.9401693E-01
         -2   -1    0    0    0  501 -0.00000000000E+00  0.00000000000E+00  0.64214271917E+03  0.64214271917E+03  0.25500000000E-02 0.  1.
          2   -1    0    0  501    0  0.00000000000E+00 -0.00000000000E+00 -0.30762654894E+04  0.30762654894E+04  0.25500000000E-02 0. -1.
    8880023    1    1    2    0    0  0.72436690303E+03 -0.10654969284E+03 -0.27390193985E+04  0.29106868122E+04  0.65864270000E+03 0.  0.
    8880022    1    1    2    0    0 -0.72436690303E+03  0.10654969284E+03  0.30489662823E+03  0.80772139638E+03  0.15294330000E+03 0.  0.
<mgrwt>
<rscale>  0 0.91936506E+03</rscale>
<asrwt>0</asrwt>
<pdfrwt beam="1">  1        2 0.47327160E+00 0.98482001E+03</pdfrwt>
<pdfrwt beam="2">  1       -2 0.98791190E-01 0.98482001E+03</pdfrwt>
<totfact> 0.13566661E+00</totfact>
</mgrwt>
</event>
<event>
 4    1  0.6502538E-008  0.6721095E+03  0.7818608E-02  0.1014194E+00
          2   -1    0    0  501    0  0.00000000000E+00  0.00000000000E+00  0.82015786453E+03  0.82015786453E+03  0.25500000000E-02 0. -1.
         -2   -1    0    0    0  501 -0.00000000000E+00 -0.00000000000E+00 -0.91255472050E+03  0.91255472050E+03  0.25500000000E-02 0.  1.
    8880023    1    1    2    0    0 -0.75508080684E+02 -0.11054190215E+03  0.66681136998E+03  0.94676744334E+03  0.65864270000E+03 0. -1.
    8880022    1    1    2    0    0  0.75508080684E+02  0.11054190215E+03 -0.75920822595E+03  0.78594514169E+03  0.15294330000E+03 0.  0.
<mgrwt>
<rscale>  0 0.49841418E+03</rscale>
<asrwt>0</asrwt>
<pdfrwt beam="1">  1        2 0.12617813E+00 0.67210951E+03</pdfrwt>
<pdfrwt beam="2">  1       -2 0.14039303E+00 0.67210951E+03</pdfrwt>
<totfact> 0.12175273E+01</totfact>
</mgrwt>
</event>
<event>
 4    1  0.6502538E-008  0.8202788E+03  0.7818608E-02  0.9668551E-01
          2   -1    0    0  501    0  0.00000000000E+00  0.00000000000E+00  0.12806057833E+04  0.12806057833E+04  0.25500000000E-02 0. -1.
         -2   -1    0    0    0  501 -0.00000000000E+00 -0.00000000000E+00 -0.47637195939E+03  0.47637195940E+03  0.25500000000E-02 0.  1.
    8880023    1    1    2    0    0  0.22994040907E+02 -0.48838337982E+03  0.91916244067E+03  0.12319565131E+04  0.65864270000E+03 0.  0.
    8880022    1    1    2    0    0 -0.22994040907E+02  0.48838337982E+03 -0.11492861672E+03  0.52502122963E+03  0.15294330000E+03 0.  0.
<mgrwt>
<rscale>  0 0.72920492E+03</rscale>
<asrwt>0</asrwt>
<pdfrwt beam="1">  1        2 0.19701627E+00 0.82027877E+03</pdfrwt>
<pdfrwt beam="2">  1       -2 0.73287996E-01 0.82027877E+03</pdfrwt>
<totfact> 0.28875206E+01</totfact>
</mgrwt>
</event>
<event>
 4    1  0.6520622E-008  0.1202195E+04  0.7818608E-02  0.9154991E-01
          2   -1    0    0  501    0  0.00000000000E+00  0.00000000000E+00  0.24340346801E+04  0.24340346801E+04  0.25500000000E-02 0. -1.
         -2   -1    0    0    0  501 -0.00000000000E+00 -0.00000000000E+00 -0.12540613161E+04  0.12540613161E+04  0.25500000000E-02 0.  1.
    8880023    1    1    2    0    0 -0.91334439459E+03 -0.42102891742E+03  0.20320984335E+04  0.23610797492E+04  0.65864270000E+03 0.  0.
    8880022    1    1    2    0    0  0.91334439459E+03  0.42102891742E+03 -0.85212506956E+03  0.13270162469E+04  0.15294330000E+03 0.  0.
<mgrwt>
<rscale>  0 0.11530316E+04</rscale>
<asrwt>0</asrwt>
<pdfrwt beam="1">  1        2 0.37446687E+00 0.12021953E+04</pdfrwt>
<pdfrwt beam="2">  1       -2 0.19293251E+00 0.12021953E+04</pdfrwt>
<totfact> 0.54883733E-01</totfact>
</mgrwt>
</event>
<event>
 4    1  0.6502538E-008  0.1014371E+04  0.7818608E-02  0.9362992E-01
          2   -1    0    0  501    0  0.00000000000E+00  0.00000000000E+00  0.30690069374E+04  0.30690069374E+04  0.25500000000E-02 0. -1.
         -2   -1    0    0    0  501 -0.00000000000E+00 -0.00000000000E+00 -0.28858601367E+03  0.28858601368E+03  0.25500000000E-02 0.  1.
    8880023    1    1    2    0    0  0.76551019242E+03 -0.95567138286E+02  0.20359358716E+04  0.22746393147E+04  0.65864270000E+03 0.  0.
    8880022    1    1    2    0    0 -0.76551019242E+03  0.95567138286E+02  0.74448505215E+03  0.10829536364E+04  0.15294330000E+03 0.  0.
<mgrwt>
<rscale>  0 0.95184857E+03</rscale>
<asrwt>0</asrwt>
<pdfrwt beam="1">  1        2 0.47215488E+00 0.10143713E+04</pdfrwt>
<pdfrwt beam="2">  1       -2 0.44397851E-01 0.10143713E+04</pdfrwt>
<totfact> 0.77505194E+00</totfact>
</mgrwt>
</event>
<event>
 4    1  0.6502538E-008  0.6648345E+03  0.7818608E-02  0.1019673E+00
          2   -1    0    0  501    0  0.00000000000E+00  0.00000000000E+00  0.22146677972E+04  0.22146677972E+04  0.25500000000E-02 0. -1.
         -2   -1    0    0    0  501 -0.00000000000E+00 -0.00000000000E+00 -0.72640612189E+03  0.72640612189E+03  0.25500000000E-02 0.  1.
    8880023    1    1    2    0    0  0.88942783471E+02  0.16847609065E+02  0.21528310881E+04  0.22531503636E+04  0.65864270000E+03 0. -1.
    8880022    1    1    2    0    0 -0.88942783471E+02 -0.16847609065E+02 -0.66456941285E+03  0.68792355547E+03  0.15294330000E+03 0.  0.
<mgrwt>
<rscale>  0 0.47804911E+03</rscale>
<asrwt>0</asrwt>
<pdfrwt beam="1">  1        2 0.34071812E+00 0.66483447E+03</pdfrwt>
<pdfrwt beam="2">  1       -2 0.11175479E+00 0.66483447E+03</pdfrwt>
<totfact> 0.33929718E+00</totfact>
</mgrwt>
</event>
<event>
 4    1  0.6502538E-008  0.1178774E+04  0.7818608E-02  0.9178037E-01
          2   -1    0    0  501    0  0.00000000000E+00  0.00000000000E+00  0.10303969423E+04  0.10303969423E+04  0.25500000000E-02 0. -1.
         -2   -1    0    0    0  501 -0.00000000000E+00 -0.00000000000E+00 -0.16013748060E+04  0.16013748060E+04  0.25500000000E-02 0.  1.
    8880023    1    1    2    0    0 -0.67673866581E+03  0.70549410554E+03  0.40064409971E+03  0.12449992191E+04  0.65864270000E+03 0.  0.
    8880022    1    1    2    0    0  0.67673866581E+03 -0.70549410554E+03 -0.97162196342E+03  0.13867725291E+04  0.15294330000E+03 0.  0.
<mgrwt>
<rscale>  0 0.11283026E+04</rscale>
<asrwt>0</asrwt>
<pdfrwt beam="1">  1        2 0.15852261E+00 0.11787737E+04</pdfrwt>
<pdfrwt beam="2">  1       -2 0.24636535E+00 0.11787737E+04</pdfrwt>
<totfact> 0.15904974E+00</totfact>
</mgrwt>
</event>
<event>
 4    1  0.6502538E-008  0.1127205E+04  0.7818608E-02  0.9231355E-01
         -2   -1    0    0    0  501 -0.00000000000E+00  0.00000000000E+00  0.33963468613E+04  0.33963468613E+04  0.25500000000E-02 0.  1.
          2   -1    0    0  501    0  0.00000000000E+00 -0.00000000000E+00 -0.15443923071E+04  0.15443923071E+04  0.25500000000E-02 0. -1.
    8880023    1    1    2    0    0 -0.78735052496E+03 -0.46568173316E+03 -0.12617028731E+04  0.16918879017E+04  0.65864270000E+03 0. -1.
    8880022    1    1    2    0    0  0.78735052496E+03  0.46568173316E+03  0.31136574272E+04  0.32488512667E+04  0.15294330000E+03 0.  0.
<mgrwt>
<rscale>  0 0.10735574E+04</rscale>
<asrwt>0</asrwt>
<pdfrwt beam="1">  1        2 0.23759882E+00 0.11272047E+04</pdfrwt>
<pdfrwt beam="2">  1       -2 0.52251490E+00 0.11272047E+04</pdfrwt>
<totfact> 0.14197093E-02</totfact>
</mgrwt>
</event>
<event>
 4    1  0.6502538E-008  0.6754070E+03  0.7818608E-02  0.1012051E+00
         -2   -1    0    0    0  501 -0.00000000000E+00  0.00000000000E+00  0.20462826890E+03  0.20462826892E+03  0.25500000000E-02 0.  1.
          2   -1    0    0  501    0  0.00000000000E+00 -0.00000000000E+00 -0.30644266299E+04  0.30644266299E+04  0.25500000000E-02 0. -1.
    8880023    1    1    2    0    0 -0.31887737798E+02 -0.14610804411E+03 -0.29576800205E+04  0.30338170179E+04  0.65864270000E+03 0. -1.
    8880022    1    1    2    0    0  0.31887737798E+02  0.14610804411E+03  0.97881659419E+02  0.23523788097E+03  0.15294330000E+03 0.  0.
<mgrwt>
<rscale>  0 0.50667586E+03</rscale>
<asrwt>0</asrwt>
<pdfrwt beam="1">  1        2 0.47145022E+00 0.67540698E+03</pdfrwt>
<pdfrwt beam="2">  1       -2 0.31481274E-01 0.67540698E+03</pdfrwt>
<totfact> 0.15995032E+01</totfact>
</mgrwt>
</event>
<event>
 4    1  0.6502538E-008  0.1944612E+04  0.7818608E-02  0.8646497E-01
         -2   -1    0    0    0  501 -0.00000000000E+00  0.00000000000E+00  0.23075411345E+04  0.23075411345E+04  0.25500000000E-02 0.  1.
          2   -1    0    0  501    0  0.00000000000E+00 -0.00000000000E+00 -0.25332141096E+04  0.25332141096E+04  0.25500000000E-02 0. -1.
    8880023    1    1    2    0    0 -0.18213058254E+04 -0.17478448644E+03 -0.16234382209E+04  0.25331929239E+04  0.65864270000E+03 0.  0.
    8880022    1    1    2    0    0  0.18213058254E+04  0.17478448644E+03  0.13977652458E+04  0.23075623202E+04  0.15294330000E+03 0.  0.
<mgrwt>
<rscale>  0 0.19168850E+04</rscale>
<asrwt>0</asrwt>
<pdfrwt beam="1">  1        2 0.38972525E+00 0.19446117E+04</pdfrwt>
<pdfrwt beam="2">  1       -2 0.35500633E+00 0.19446117E+04</pdfrwt>
<totfact> 0.42819498E-02</totfact>
</mgrwt>
</event>
<event>
 4    1  0.6502538E-008  0.9753935E+03  0.7818608E-02  0.9414483E-01
         -2   -1    0    0    0  501 -0.00000000000E+00  0.00000000000E+00  0.18658145839E+04  0.18658145839E+04  0.25500000000E-02 0.  1.
          2   -1    0    0  501    0  0.00000000000E+00 -0.00000000000E+00 -0.14769276568E+04  0.14769276568E+04  0.25500000000E-02 0. -1.
    8880023    1    1    2    0    0  0.55666705995E+03  0.45574569583E+03 -0.12269289625E+04  0.15674014292E+04  0.65864270000E+03 0. -1.
    8880022    1    1    2    0    0 -0.55666705995E+03 -0.45574569583E+03  0.16158158896E+04  0.17753408115E+04  0.15294330000E+03 0.  0.
<mgrwt>
<rscale>  0 0.90893318E+03</rscale>
<asrwt>0</asrwt>
<pdfrwt beam="1">  1        2 0.22721964E+00 0.97539354E+03</pdfrwt>
<pdfrwt beam="2">  1       -2 0.28704840E+00 0.97539354E+03</pdfrwt>
<totfact> 0.50254639E-01</totfact>
</mgrwt>
</event>
<event>
 4    1  0.6502538E-008  0.1325679E+04  0.7818608E-02  0.9043696E-01
          2   -1    0    0  501    0  0.00000000000E+00  0.00000000000E+00  0.14410660177E+04  0.14410660177E+04  0.25500000000E-02 0. -1.
         -2   -1    0    0    0  501 -0.00000000000E+00 -0.00000000000E+00 -0.12127273935E+04  0.12127273935E+04  0.25500000000E-02 0.  1.
    8880023    1    1    2    0    0 -0.39935786724E+03 -0.10789473907E+04  0.57135151966E+03  0.14435605090E+04  0.65864270000E+03 0.  0.
    8880022    1    1    2    0    0  0.39935786724E+03  0.10789473907E+04 -0.34301289544E+03  0.12102329021E+04  0.15294330000E+03 0.  0.
<mgrwt>
<rscale>  0 0.12823304E+04</rscale>
<asrwt>0</asrwt>
<pdfrwt beam="1">  1        2 0.22170246E+00 0.13256788E+04</pdfrwt>
<pdfrwt beam="2">  1       -2 0.18657345E+00 0.13256788E+04</pdfrwt>
<totfact> 0.21480559E+00</totfact>
</mgrwt>
</event>
<event>
 4    1  0.6502538E-008  0.1003633E+04  0.7818608E-02  0.9376819E-01
         -2   -1    0    0    0  501 -0.00000000000E+00  0.00000000000E+00  0.22589388377E+03  0.22589388378E+03  0.25500000000E-02 0.  1.
          2   -1    0    0  501    0  0.00000000000E+00 -0.00000000000E+00 -0.46671974188E+04  0.46671974188E+04  0.25500000000E-02 0. -1.
    8880023    1    1    2    0    0 -0.38917875734E+03  0.64962282555E+03 -0.36568647778E+04  0.37920891511E+04  0.65864270000E+03 0.  0.
    8880022    1    1    2    0    0  0.38917875734E+03 -0.64962282555E+03 -0.78443875718E+03  0.11010021514E+04  0.15294330000E+03 0.  0.
<mgrwt>
<rscale>  0 0.94008160E+03</rscale>
<asrwt>0</asrwt>
<pdfrwt beam="1">  1        2 0.71803030E+00 0.10036335E+04</pdfrwt>
<pdfrwt beam="2">  1       -2 0.34752909E-01 0.10036335E+04</pdfrwt>
<totfact> 0.70006210E-01</totfact>
</mgrwt>
</event>
<event>
 4    1  0.6502538E-008  0.8286782E+03  0.7818608E-02  0.9651910E-01
         -2   -1    0    0    0  501 -0.00000000000E+00  0.00000000000E+00  0.82130856281E+03  0.82130856282E+03  0.25500000000E-02 0.  1.
          2   -1    0    0  501    0  0.00000000000E+00 -0.00000000000E+00 -0.12640617879E+04  0.12640617879E+04  0.25500000000E-02 0. -1.
    8880023    1    1    2    0    0  0.19289905810E+02  0.50251891745E+03 -0.10136995312E+04  0.13093106234E+04  0.65864270000E+03 0. -1.
    8880022    1    1    2    0    0 -0.19289905810E+02 -0.50251891745E+03  0.57094630609E+03  0.77605972728E+03  0.15294330000E+03 0.  0.
<mgrwt>
<rscale>  0 0.73953697E+03</rscale>
<asrwt>0</asrwt>
<pdfrwt beam="1">  1        2 0.19447104E+00 0.82867821E+03</pdfrwt>
<pdfrwt beam="2">  1       -2 0.12635516E+00 0.82867821E+03</pdfrwt>
<totfact> 0.81871819E+00</totfact>
</mgrwt>
</event>
<event>
 4    1  0.6502538E-008  0.7136244E+03  0.7818608E-02  0.9944781E-01
          2   -1    0    0  501    0  0.00000000000E+00  0.00000000000E+00  0.12184399485E+04  0.12184399485E+04  0.25500000000E-02 0. -1.
         -2   -1    0    0    0  501 -0.00000000000E+00 -0.00000000000E+00 -0.52091348597E+03  0.52091348598E+03  0.25500000000E-02 0.  1.
    8880023    1    1    2    0    0 -0.16546675169E+03 -0.21924939834E+03  0.10484038625E+04  0.12682312131E+04  0.65864270000E+03 0. -1.
    8880022    1    1    2    0    0  0.16546675169E+03  0.21924939834E+03 -0.35087740005E+03  0.47112222137E+03  0.15294330000E+03 0.  0.
<mgrwt>
<rscale>  0 0.58139261E+03</rscale>
<asrwt>0</asrwt>
<pdfrwt beam="1">  1        2 0.18745230E+00 0.71362438E+03</pdfrwt>
<pdfrwt beam="2">  1       -2 0.80140538E-01 0.71362438E+03</pdfrwt>
<totfact> 0.26015480E+01</totfact>
</mgrwt>
</event>
<event>
 4    1  0.6502538E-008  0.1176793E+04  0.7818608E-02  0.9180018E-01
          2   -1    0    0  501    0  0.00000000000E+00  0.00000000000E+00  0.33360623042E+04  0.33360623042E+04  0.25500000000E-02 0. -1.
         -2   -1    0    0    0  501 -0.00000000000E+00 -0.00000000000E+00 -0.94673991358E+03  0.94673991358E+03  0.25500000000E-02 0.  1.
    8880023    1    1    2    0    0  0.44024493439E+03  0.87018141746E+03  0.29298652671E+04  0.31573647225E+04  0.65864270000E+03 0.  0.
    8880022    1    1    2    0    0 -0.44024493439E+03 -0.87018141746E+03 -0.54054287643E+03  0.11254374953E+04  0.15294330000E+03 0.  0.
<mgrwt>
<rscale>  0 0.11262076E+04</rscale>
<asrwt>0</asrwt>
<pdfrwt beam="1">  1        2 0.51324036E+00 0.11767929E+04</pdfrwt>
<pdfrwt beam="2">  1       -2 0.14565229E+00 0.11767929E+04</pdfrwt>
<totfact> 0.33953282E-01</totfact>
</mgrwt>
</event>
<event>
 4    1  0.6502538E-008  0.1039990E+04  0.7818608E-02  0.9331012E-01
         -2   -1    0    0    0  501 -0.00000000000E+00  0.00000000000E+00  0.81620280977E+03  0.81620280977E+03  0.25500000000E-02 0.  1.
          2   -1    0    0  501    0  0.00000000000E+00 -0.00000000000E+00 -0.14294480199E+04  0.14294480199E+04  0.25500000000E-02 0. -1.
    8880023    1    1    2    0    0  0.59948654583E+02  0.80260566713E+03 -0.90235533823E+03  0.13768896328E+04  0.65864270000E+03 0. -1.
    8880022    1    1    2    0    0 -0.59948654583E+02 -0.80260566713E+03  0.28911012810E+03  0.86876119692E+03  0.15294330000E+03 0.  0.
<mgrwt>
<rscale>  0 0.97977273E+03</rscale>
<asrwt>0</asrwt>
<pdfrwt beam="1">  1        2 0.21991508E+00 0.10399903E+04</pdfrwt>
<pdfrwt beam="2">  1       -2 0.12556966E+00 0.10399903E+04</pdfrwt>
<totfact> 0.65270994E+00</totfact>
</mgrwt>
</event>
<event>
 4    1  0.6502538E-008  0.8523924E+03  0.7818608E-02  0.9607242E-01
         -2   -1    0    0    0  501 -0.00000000000E+00  0.00000000000E+00  0.41494072309E+03  0.41494072310E+03  0.25500000000E-02 0.  1.
          2   -1    0    0  501    0  0.00000000000E+00 -0.00000000000E+00 -0.13774887890E+04  0.13774887890E+04  0.25500000000E-02 0. -1.
    8880023    1    1    2    0    0 -0.50243959788E+03  0.20079101876E+03 -0.87822193414E+03  0.12238654152E+04  0.65864270000E+03 0.  0.
    8880022    1    1    2    0    0  0.50243959788E+03 -0.20079101876E+03 -0.84326131766E+02  0.56856409687E+03  0.15294330000E+03 0.  0.
<mgrwt>
<rscale>  0 0.76818717E+03</rscale>
<asrwt>0</asrwt>
<pdfrwt beam="1">  1        2 0.21192135E+00 0.85239239E+03</pdfrwt>
<pdfrwt beam="2">  1       -2 0.63837035E-01 0.85239239E+03</pdfrwt>
<totfact> 0.34188903E+01</totfact>
</mgrwt>
</event>
<event>
 4    1  0.6502538E-008  0.1845907E+04  0.7818608E-02  0.8697558E-01
          2   -1    0    0  501    0  0.00000000000E+00  0.00000000000E+00  0.16466430426E+04  0.16466430426E+04  0.25500000000E-02 0. -1.
         -2   -1    0    0    0  501 -0.00000000000E+00 -0.00000000000E+00 -0.22573596826E+04  0.22573596826E+04  0.25500000000E-02 0.  1.
    8880023    1    1    2    0    0 -0.13422142327E+04  0.10826007031E+04  0.41471876185E+03  0.18919210307E+04  0.65864270000E+03 0.  0.
    8880022    1    1    2    0    0  0.13422142327E+04 -0.10826007031E+04 -0.10254354018E+04  0.20120816945E+04  0.15294330000E+03 0.  0.
<mgrwt>
<rscale>  0 0.18165294E+04</rscale>
<asrwt>0</asrwt>
<pdfrwt beam="1">  1        2 0.25332970E+00 0.18459072E+04</pdfrwt>
<pdfrwt beam="2">  1       -2 0.34728610E+00 0.18459072E+04</pdfrwt>
<totfact> 0.15406565E-01</totfact>
</mgrwt>
</event>
<event>
 4    1  0.6502538E-008  0.7047691E+03  0.7818608E-02  0.9977964E-01
          2   -1    0    0  501    0  0.00000000000E+00  0.00000000000E+00  0.24740638317E+04  0.24740638317E+04  0.25500000000E-02 0. -1.
         -2   -1    0    0    0  501 -0.00000000000E+00 -0.00000000000E+00 -0.49641549398E+03  0.49641549399E+03  0.25500000000E-02 0.  1.
    8880023    1    1    2    0    0  0.20866170566E+03 -0.13910267757E+03  0.23744224814E+04  0.24768087510E+04  0.65864270000E+03 0. -1.
    8880022    1    1    2    0    0 -0.20866170566E+03  0.13910267757E+03 -0.39677414365E+03  0.49367057478E+03  0.15294330000E+03 0.  0.
<mgrwt>
<rscale>  0 0.56627121E+03</rscale>
<asrwt>0</asrwt>
<pdfrwt beam="1">  1        2 0.38062521E+00 0.70476909E+03</pdfrwt>
<pdfrwt beam="2">  1       -2 0.76371614E-01 0.70476909E+03</pdfrwt>
<totfact> 0.58449511E+00</totfact>
</mgrwt>
</event>
<event>
 4    1  0.6502538E-008  0.7495819E+03  0.7818608E-02  0.9832866E-01
         -2   -1    0    0    0  501 -0.00000000000E+00  0.00000000000E+00  0.18865555641E+03  0.18865555643E+03  0.25500000000E-02 0.  1.
          2   -1    0    0  501    0  0.00000000000E+00 -0.00000000000E+00 -0.22341443527E+04  0.22341443527E+04  0.25500000000E-02 0. -1.
    8880023    1    1    2    0    0 -0.35566043615E+03  0.39603758912E+02 -0.18308699713E+04  0.19783725285E+04  0.65864270000E+03 0.  0.
    8880022    1    1    2    0    0  0.35566043615E+03 -0.39603758912E+02 -0.21461882497E+03  0.44442738058E+03  0.15294330000E+03 0.  0.
<mgrwt>
<rscale>  0 0.63628190E+03</rscale>
<asrwt>0</asrwt>
<pdfrwt beam="1">  1        2 0.34371450E+00 0.74958189E+03</pdfrwt>
<pdfrwt beam="2">  1       -2 0.29023933E-01 0.74958189E+03</pdfrwt>
<totfact> 0.55689577E+01</totfact>
</mgrwt>
</event>
<event>
 4    1  0.6502538E-008  0.6644202E+03  0.7818608E-02  0.1020025E+00
          2   -1    0    0  501    0  0.00000000000E+00  0.00000000000E+00  0.12752923817E+04  0.12752923817E+04  0.25500000000E-02 0. -1.
         -2   -1    0    0    0  501 -0.00000000000E+00 -0.00000000000E+00 -0.13110939163E+04  0.13110939163E+04  0.25500000000E-02 0.  1.
    8880023    1    1    2    0    0  0.79904845145E+02 -0.35485526068E+02  0.11819819642E+04  0.13559260956E+04  0.65864270000E+03 0. -1.
    8880022    1    1    2    0    0 -0.79904845145E+02  0.35485526068E+02 -0.12177834987E+04  0.12304602024E+04  0.15294330000E+03 0.  0.
<mgrwt>
<rscale>  0 0.47677640E+03</rscale>
<asrwt>0</asrwt>
<pdfrwt beam="1">  1        2 0.19619883E+00 0.66442021E+03</pdfrwt>
<pdfrwt beam="2">  1       -2 0.20170676E+00 0.66442021E+03</pdfrwt>
<totfact> 0.23133840E+00</totfact>
</mgrwt>
</event>
<event>
 4    1  0.6502538E-008  0.9320504E+03  0.7818608E-02  0.9476424E-01
         -2   -1    0    0    0  501 -0.00000000000E+00  0.00000000000E+00  0.12794248826E+04  0.12794248826E+04  0.25500000000E-02 0.  1.
          2   -1    0    0  501    0  0.00000000000E+00 -0.00000000000E+00 -0.54250660596E+03  0.54250660596E+03  0.25500000000E-02 0. -1.
    8880023    1    1    2    0    0  0.54576164581E+03 -0.37020528934E+03  0.18903589219E+03  0.95102707905E+03  0.65864270000E+03 0.  0.
    8880022    1    1    2    0    0 -0.54576164581E+03  0.37020528934E+03  0.54788238445E+03  0.87090440950E+03  0.15294330000E+03 0.  0.
<mgrwt>
<rscale>  0 0.86044518E+03</rscale>
<asrwt>0</asrwt>
<pdfrwt beam="1">  1        2 0.83462555E-01 0.93205039E+03</pdfrwt>
<pdfrwt beam="2">  1       -2 0.19683460E+00 0.93205039E+03</pdfrwt>
<totfact> 0.78136608E+00</totfact>
</mgrwt>
</event>
<event>
 4    1  0.6502538E-008  0.7657807E+03  0.7818608E-02  0.9790365E-01
          2   -1    0    0  501    0  0.00000000000E+00  0.00000000000E+00  0.18311175440E+04  0.18311175440E+04  0.25500000000E-02 0. -1.
         -2   -1    0    0    0  501 -0.00000000000E+00 -0.00000000000E+00 -0.96458612713E+03  0.96458612713E+03  0.25500000000E-02 0.  1.
    8880023    1    1    2    0    0  0.27877489576E+03 -0.27366859145E+03  0.16989416319E+04  0.18635511303E+04  0.65864270000E+03 0. -1.
    8880022    1    1    2    0    0 -0.27877489576E+03  0.27366859145E+03 -0.83241021497E+03  0.93215254087E+03  0.15294330000E+03 0.  0.
<mgrwt>
<rscale>  0 0.65882172E+03</rscale>
<asrwt>0</asrwt>
<pdfrwt beam="1">  1        2 0.28171039E+00 0.76578074E+03</pdfrwt>
<pdfrwt beam="2">  1       -2 0.14839787E+00 0.76578074E+03</pdfrwt>
<totfact> 0.26351751E+00</totfact>
</mgrwt>
</event>
<event>
 4    1  0.6502538E-008  0.6932710E+03  0.7818608E-02  0.1002635E+00
         -2   -1    0    0    0  501 -0.00000000000E+00  0.00000000000E+00  0.98153056509E+03  0.98153056509E+03  0.25500000000E-02 0.  1.
          2   -1    0    0  501    0  0.00000000000E+00 -0.00000000000E+00 -0.71376287139E+03  0.71376287140E+03  0.25500000000E-02 0. -1.
    8880023    1    1    2    0    0  0.20331165902E+03 -0.74019069916E+02 -0.51841158950E+03  0.86566462085E+03  0.65864270000E+03 0. -1.
    8880022    1    1    2    0    0 -0.20331165902E+03  0.74019069916E+02  0.78617928319E+03  0.82962881564E+03  0.15294330000E+03 0.  0.
<mgrwt>
<rscale>  0 0.54509742E+03</rscale>
<asrwt>0</asrwt>
<pdfrwt beam="1">  1        2 0.10980967E+00 0.69327099E+03</pdfrwt>
<pdfrwt beam="2">  1       -2 0.15100470E+00 0.69327099E+03</pdfrwt>
<totfact> 0.12022107E+01</totfact>
</mgrwt>
</event>
<event>
 4    1  0.6502538E-008  0.1393342E+04  0.7818608E-02  0.8988873E-01
         -2   -1    0    0    0  501 -0.00000000000E+00  0.00000000000E+00  0.12374840828E+04  0.12374840828E+04  0.25500000000E-02 0.  1.
          2   -1    0    0  501    0  0.00000000000E+00 -0.00000000000E+00 -0.26597725426E+04  0.26597725426E+04  0.25500000000E-02 0. -1.
    8880023    1    1    2    0    0  0.82488329615E+03 -0.90948353273E+03 -0.20741646327E+04  0.24987120439E+04  0.65864270000E+03 0.  0.
    8880022    1    1    2    0    0 -0.82488329615E+03  0.90948353273E+03  0.65187617292E+03  0.13985445815E+04  0.15294330000E+03 0.  0.
<mgrwt>
<rscale>  0 0.13525855E+04</rscale>
<asrwt>0</asrwt>
<pdfrwt beam="1">  1        2 0.40919577E+00 0.13933424E+04</pdfrwt>
<pdfrwt beam="2">  1       -2 0.19038217E+00 0.13933424E+04</pdfrwt>
<totfact> 0.41204675E-01</totfact>
</mgrwt>
</event>
<event>
 4    1  0.6502538E-008  0.8369823E+03  0.7818608E-02  0.9635897E-01
          2   -1    0    0  501    0  0.00000000000E+00  0.00000000000E+00  0.10372160059E+04  0.10372160059E+04  0.25500000000E-02 0. -1.
         -2   -1    0    0    0  501 -0.00000000000E+00 -0.00000000000E+00 -0.80594351242E+03  0.80594351243E+03  0.25500000000E-02 0.  1.
    8880023    1    1    2    0    0  0.44918072532E+03 -0.25488388745E+03  0.72887157569E+03  0.11098617482E+04  0.65864270000E+03 0.  0.
    8880022    1    1    2    0    0 -0.44918072532E+03  0.25488388745E+03 -0.49759908218E+03  0.73329777013E+03  0.15294330000E+03 0.  0.
<mgrwt>
<rscale>  0 0.74965173E+03</rscale>
<asrwt>0</asrwt>
<pdfrwt beam="1">  1        2 0.15957169E+00 0.83698227E+03</pdfrwt>
<pdfrwt beam="2">  1       -2 0.12399131E+00 0.83698227E+03</pdfrwt>
<totfact> 0.11760893E+01</totfact>
</mgrwt>
</event>
<event>
 4    1  0.6502538E-008  0.1030626E+04  0.7818608E-02  0.9342542E-01
         -2   -1    0    0    0  501 -0.00000000000E+00  0.00000000000E+00  0.69295329173E+03  0.69295329174E+03  0.25500000000E-02 0.  1.
          2   -1    0    0  501    0  0.00000000000E+00 -0.00000000000E+00 -0.20215058212E+04  0.20215058212E+04  0.25500000000E-02 0. -1.
    8880023    1    1    2    0    0  0.58373163385E+03 -0.53631849244E+03 -0.15644132919E+04  0.18733871196E+04  0.65864270000E+03 0.  0.
    8880022    1    1    2    0    0 -0.58373163385E+03  0.53631849244E+03  0.23586076245E+03  0.84107199333E+03  0.15294330000E+03 0.  0.
<mgrwt>
<rscale>  0 0.96958933E+03</rscale>
<asrwt>0</asrwt>
<pdfrwt beam="1">  1        2 0.31100089E+00 0.10306262E+04</pdfrwt>
<pdfrwt beam="2">  1       -2 0.10660820E+00 0.10306262E+04</pdfrwt>
<totfact> 0.45902110E+00</totfact>
</mgrwt>
</event>
<event>
 4    1  0.6502538E-008  0.9233246E+03  0.7818608E-02  0.9489580E-01
         -2   -1    0    0    0  501 -0.00000000000E+00  0.00000000000E+00  0.74543650763E+03  0.74543650764E+03  0.25500000000E-02 0.  1.
          2   -1    0    0  501    0  0.00000000000E+00 -0.00000000000E+00 -0.28723593922E+04  0.28723593922E+04  0.25500000000E-02 0. -1.
    8880023    1    1    2    0    0  0.64681703405E+03  0.18598491806E+02 -0.26278280363E+04  0.27853201924E+04  0.65864270000E+03 0.  0.
    8880022    1    1    2    0    0 -0.64681703405E+03 -0.18598491806E+02  0.50090515174E+03  0.83247570745E+03  0.15294330000E+03 0.  0.
<mgrwt>
<rscale>  0 0.85056418E+03</rscale>
<asrwt>0</asrwt>
<pdfrwt beam="1">  1        2 0.44190144E+00 0.92332464E+03</pdfrwt>
<pdfrwt beam="2">  1       -2 0.11468254E+00 0.92332464E+03</pdfrwt>
<totfact> 0.12754541E+00</totfact>
</mgrwt>
</event>
<event>
 4    1  0.6502538E-008  0.9795108E+03  0.7818608E-02  0.9408869E-01
          2   -1    0    0  501    0  0.00000000000E+00  0.00000000000E+00  0.59140884952E+03  0.59140884952E+03  0.25500000000E-02 0. -1.
         -2   -1    0    0    0  501 -0.00000000000E+00 -0.00000000000E+00 -0.26034967794E+04  0.26034967794E+04  0.25500000000E-02 0.  1.
    8880023    1    1    2    0    0  0.65586031207E+03 -0.30899578152E+03  0.72851328748E+02  0.98221620039E+03  0.65864270000E+03 0. -1.
    8880022    1    1    2    0    0 -0.65586031207E+03  0.30899578152E+03 -0.20849392586E+04  0.22126894285E+04  0.15294330000E+03 0.  0.
<mgrwt>
<rscale>  0 0.91349402E+03</rscale>
<asrwt>0</asrwt>
<pdfrwt beam="1">  1        2 0.90985978E-01 0.97951077E+03</pdfrwt>
<pdfrwt beam="2">  1       -2 0.40053796E+00 0.97951077E+03</pdfrwt>
<totfact> 0.37992617E-01</totfact>
</mgrwt>
</event>
<event>
 4    1  0.6502538E-008  0.7212907E+03  0.7818608E-02  0.9918242E-01
          2   -1    0    0  501    0  0.00000000000E+00  0.00000000000E+00  0.67451474789E+03  0.67451474789E+03  0.25500000000E-02 0. -1.
         -2   -1    0    0    0  501 -0.00000000000E+00 -0.00000000000E+00 -0.43019247887E+03  0.43019247888E+03  0.25500000000E-02 0.  1.
    8880023    1    1    2    0    0 -0.20756134095E+03  0.20825086546E+03  0.27484481508E+03  0.77188082750E+03  0.65864270000E+03 0. -1.
    8880022    1    1    2    0    0  0.20756134095E+03 -0.20825086546E+03 -0.30522546061E+02  0.33282639928E+03  0.15294330000E+03 0.  0.
<mgrwt>
<rscale>  0 0.59385268E+03</rscale>
<asrwt>0</asrwt>
<pdfrwt beam="1">  1        2 0.10377150E+00 0.72129075E+03</pdfrwt>
<pdfrwt beam="2">  1       -2 0.66183458E-01 0.72129075E+03</pdfrwt>
<totfact> 0.91398910E+01</totfact>
</mgrwt>
</event>
<event>
 4    1  0.6502538E-008  0.6604752E+03  0.7818608E-02  0.1023675E+00
         -2   -1    0    0    0  501 -0.00000000000E+00  0.00000000000E+00  0.15856270272E+03  0.15856270274E+03  0.25500000000E-02 0.  1.
          2   -1    0    0  501    0  0.00000000000E+00 -0.00000000000E+00 -0.12715193557E+04  0.12715193557E+04  0.25500000000E-02 0. -1.
    8880023    1    1    2    0    0  0.21917354108E+02  0.44010755322E+02 -0.10802075888E+04  0.12661263595E+04  0.65864270000E+03 0. -1.
    8880022    1    1    2    0    0 -0.21917354108E+02 -0.44010755322E+02 -0.32749064151E+02  0.16395569893E+03  0.15294330000E+03 0.  0.
<mgrwt>
<rscale>  0 0.46383523E+03</rscale>
<asrwt>0</asrwt>
<pdfrwt beam="1">  1        2 0.19561836E+00 0.66047523E+03</pdfrwt>
<pdfrwt beam="2">  1       -2 0.24394263E-01 0.66047523E+03</pdfrwt>
<totfact> 0.26173937E+02</totfact>
</mgrwt>
</event>
<event>
 4    1  0.6502538E-008  0.7129564E+03  0.7818608E-02  0.9947182E-01
         -2   -1    0    0    0  501 -0.00000000000E+00  0.00000000000E+00  0.31870241477E+03  0.31870241478E+03  0.25500000000E-02 0.  1.
          2   -1    0    0  501    0  0.00000000000E+00 -0.00000000000E+00 -0.16199572212E+04  0.16199572212E+04  0.25500000000E-02 0. -1.
    8880023    1    1    2    0    0  0.26966599879E+03 -0.42153572839E+02 -0.14319241629E+04  0.15995979774E+04  0.65864270000E+03 0.  0.
    8880022    1    1    2    0    0 -0.26966599879E+03  0.42153572839E+02  0.13066935647E+03  0.33906165862E+03  0.15294330000E+03 0.  0.
<mgrwt>
<rscale>  0 0.58028135E+03</rscale>
<asrwt>0</asrwt>
<pdfrwt beam="1">  1        2 0.24922418E+00 0.71295644E+03</pdfrwt>
<pdfrwt beam="2">  1       -2 0.49031142E-01 0.71295644E+03</pdfrwt>
<totfact> 0.44019534E+01</totfact>
</mgrwt>
</event>
<event>
 4    1  0.6502538E-008  0.8347707E+03  0.7818608E-02  0.9640120E-01
         -2   -1    0    0    0  501 -0.00000000000E+00  0.00000000000E+00  0.36177753727E+03  0.36177753728E+03  0.25500000000E-02 0.  1.
          2   -1    0    0  501    0  0.00000000000E+00 -0.00000000000E+00 -0.28599709014E+04  0.28599709014E+04  0.25500000000E-02 0. -1.
    8880023    1    1    2    0    0 -0.37704990054E+03 -0.34765693304E+03 -0.25508612837E+04  0.26839775457E+04  0.65864270000E+03 0.  0.
    8880022    1    1    2    0    0  0.37704990054E+03  0.34765693304E+03  0.52667919611E+02  0.53777089300E+03  0.15294330000E+03 0.  0.
<mgrwt>
<rscale>  0 0.74696717E+03</rscale>
<asrwt>0</asrwt>
<pdfrwt beam="1">  1        2 0.43999551E+00 0.83477073E+03</pdfrwt>
<pdfrwt beam="2">  1       -2 0.55658084E-01 0.83477073E+03</pdfrwt>
<totfact> 0.67378593E+00</totfact>
</mgrwt>
</event>
<event>
 4    1  0.6502538E-008  0.1446434E+04  0.7818608E-02  0.8948417E-01
         -2   -1    0    0    0  501 -0.00000000000E+00  0.00000000000E+00  0.85743591376E+03  0.85743591376E+03  0.25500000000E-02 0.  1.
          2   -1    0    0  501    0  0.00000000000E+00 -0.00000000000E+00 -0.24068919321E+04  0.24068919321E+04  0.25500000000E-02 0. -1.
    8880023    1    1    2    0    0  0.22000239922E+01  0.12877714529E+04 -0.12978036531E+04  0.19433128115E+04  0.65864270000E+03 0.  0.
    8880022    1    1    2    0    0 -0.22000239922E+01 -0.12877714529E+04 -0.25165236529E+03  0.13210150344E+04  0.15294330000E+03 0.  0.
<mgrwt>
<rscale>  0 0.14074861E+04</rscale>
<asrwt>0</asrwt>
<pdfrwt beam="1">  1        2 0.37029106E+00 0.14464337E+04</pdfrwt>
<pdfrwt beam="2">  1       -2 0.13191322E+00 0.14464337E+04</pdfrwt>
<totfact> 0.15700999E+00</totfact>
</mgrwt>
</event>
<event>
 4    1  0.6502538E-008  0.1170310E+04  0.7818608E-02  0.9186538E-01
         -2   -1    0    0    0  501 -0.00000000000E+00  0.00000000000E+00  0.13582460824E+04  0.13582460824E+04  0.25500000000E-02 0.  1.
          2   -1    0    0  501    0  0.00000000000E+00 -0.00000000000E+00 -0.11409516970E+04  0.11409516970E+04  0.25500000000E-02 0. -1.
    8880023    1    1    2    0    0 -0.95452652235E+03  0.15714147688E+03 -0.51269554485E+03  0.12776858979E+04  0.65864270000E+03 0. -1.
    8880022    1    1    2    0    0  0.95452652235E+03 -0.15714147688E+03  0.72998993017E+03  0.12215118816E+04  0.15294330000E+03 0.  0.
<mgrwt>
<rscale>  0 0.11193465E+04</rscale>
<asrwt>0</asrwt>
<pdfrwt beam="1">  1        2 0.17553103E+00 0.11703096E+04</pdfrwt>
<pdfrwt beam="2">  1       -2 0.20896093E+00 0.11703096E+04</pdfrwt>
<totfact> 0.23298158E+00</totfact>
</mgrwt>
</event>
<event>
 4    1  0.6502538E-008  0.1626567E+04  0.7818608E-02  0.8825075E-01
         -2   -1    0    0    0  501 -0.00000000000E+00  0.00000000000E+00  0.16345215973E+04  0.16345215973E+04  0.25500000000E-02 0.  1.
          2   -1    0    0  501    0  0.00000000000E+00 -0.00000000000E+00 -0.34065661586E+04  0.34065661586E+04  0.25500000000E-02 0. -1.
    8880023    1    1    2    0    0  0.94575132269E+03 -0.11478081346E+04 -0.27919804761E+04  0.32312341703E+04  0.65864270000E+03 0.  0.
    8880022    1    1    2    0    0 -0.94575132269E+03  0.11478081346E+04  0.10199359148E+04  0.18098535856E+04  0.15294330000E+03 0.  0.
<mgrwt>
<rscale>  0 0.15926521E+04</rscale>
<asrwt>0</asrwt>
<pdfrwt beam="1">  1        2 0.52408710E+00 0.16265667E+04</pdfrwt>
<pdfrwt beam="2">  1       -2 0.25146486E+00 0.16265667E+04</pdfrwt>
<totfact> 0.55138448E-02</totfact>
</mgrwt>
</event>
<event>
 4    1  0.6502538E-008  0.7822193E+03  0.7818608E-02  0.9750649E-01
          2   -1    0    0  501    0  0.00000000000E+00  0.00000000000E+00  0.84416054328E+03  0.84416054328E+03  0.25500000000E-02 0. -1.
         -2   -1    0    0    0  501 -0.00000000000E+00 -0.00000000000E+00 -0.60451881848E+03  0.60451881849E+03  0.25500000000E-02 0.  1.
    8880023    1    1    2    0    0 -0.37885208208E+02  0.42026373357E+03  0.50137523032E+03  0.92910937064E+03  0.65864270000E+03 0. -1.
    8880022    1    1    2    0    0  0.37885208208E+02 -0.42026373357E+03 -0.26173350553E+03  0.51956999114E+03  0.15294330000E+03 0.  0.
<mgrwt>
<rscale>  0 0.68079590E+03</rscale>
<asrwt>0</asrwt>
<pdfrwt beam="1">  1        2 0.12987085E+00 0.78221934E+03</pdfrwt>
<pdfrwt beam="2">  1       -2 0.93002896E-01 0.78221934E+03</pdfrwt>
<totfact> 0.31743323E+01</totfact>
</mgrwt>
</event>
<event>
 4    1  0.6502538E-008  0.7072016E+03  0.7818608E-02  0.9968543E-01
         -2   -1    0    0    0  501 -0.00000000000E+00  0.00000000000E+00  0.64571289182E+03  0.64571289182E+03  0.25500000000E-02 0.  1.
          2   -1    0    0  501    0  0.00000000000E+00 -0.00000000000E+00 -0.51012821289E+03  0.51012821289E+03  0.25500000000E-02 0. -1.
    8880023    1    1    2    0    0  0.50363218127E+02  0.25256170647E+03 -0.17062706358E+03  0.72749410335E+03  0.65864270000E+03 0. -1.
    8880022    1    1    2    0    0 -0.50363218127E+02 -0.25256170647E+03  0.30621174251E+03  0.42834700137E+03  0.15294330000E+03 0.  0.
<mgrwt>
<rscale>  0 0.57051342E+03</rscale>
<asrwt>0</asrwt>
<pdfrwt beam="1">  1        2 0.78481263E-01 0.70720158E+03</pdfrwt>
<pdfrwt beam="2">  1       -2 0.99340445E-01 0.70720158E+03</pdfrwt>
<totfact> 0.51216930E+01</totfact>
</mgrwt>
</event>
<event>
 4    1  0.6502538E-008  0.7324793E+03  0.7818608E-02  0.9882422E-01
          2   -1    0    0  501    0  0.00000000000E+00  0.00000000000E+00  0.82876892515E+03  0.82876892515E+03  0.25500000000E-02 0. -1.
         -2   -1    0    0    0  501 -0.00000000000E+00 -0.00000000000E+00 -0.64997406954E+03  0.64997406954E+03  0.25500000000E-02 0.  1.
    8880023    1    1    2    0    0  0.38139240459E+02  0.31821561560E+03  0.58629160828E+03  0.93822376642E+03  0.65864270000E+03 0. -1.
    8880022    1    1    2    0    0 -0.38139240459E+02 -0.31821561560E+03 -0.40749675267E+03  0.54051922827E+03  0.15294330000E+03 0.  0.
<mgrwt>
<rscale>  0 0.61120813E+03</rscale>
<asrwt>0</asrwt>
<pdfrwt beam="1">  1        2 0.12750291E+00 0.73247934E+03</pdfrwt>
<pdfrwt beam="2">  1       -2 0.99996011E-01 0.73247934E+03</pdfrwt>
<totfact> 0.27575064E+01</totfact>
</mgrwt>
</event>
<event>
 4    1  0.6502538E-008  0.9804671E+03  0.7818608E-02  0.9407571E-01
         -2   -1    0    0    0  501 -0.00000000000E+00  0.00000000000E+00  0.87551270807E+03  0.87551270807E+03  0.25500000000E-02 0.  1.
          2   -1    0    0  501    0  0.00000000000E+00 -0.00000000000E+00 -0.16009146588E+04  0.16009146588E+04  0.25500000000E-02 0. -1.
    8880023    1    1    2    0    0  0.12536876370E+02 -0.72618758252E+03 -0.12344248606E+04  0.15764265035E+04  0.65864270000E+03 0.  0.
    8880022    1    1    2    0    0 -0.12536876370E+02  0.72618758252E+03  0.50902290985E+03  0.90000086336E+03  0.15294330000E+03 0.  0.
<mgrwt>
<rscale>  0 0.91455242E+03</rscale>
<asrwt>0</asrwt>
<pdfrwt beam="1">  1        2 0.24629456E+00 0.98046713E+03</pdfrwt>
<pdfrwt beam="2">  1       -2 0.13469426E+00 0.98046713E+03</pdfrwt>
<totfact> 0.44033254E+00</totfact>
</mgrwt>
</event>
<event>
 4    1  0.6502538E-008  0.7126117E+03  0.7818608E-02  0.9948428E-01
         -2   -1    0    0    0  501 -0.00000000000E+00  0.00000000000E+00  0.71875282092E+03  0.71875282093E+03  0.25500000000E-02 0.  1.
          2   -1    0    0  501    0  0.00000000000E+00 -0.00000000000E+00 -0.13207421661E+04  0.13207421661E+04  0.25500000000E-02 0. -1.
    8880023    1    1    2    0    0  0.24850143708E+03 -0.11068967806E+03 -0.11823785884E+04  0.13805196492E+04  0.65864270000E+03 0.  0.
    8880022    1    1    2    0    0 -0.24850143708E+03  0.11068967806E+03  0.58038924332E+03  0.65897533781E+03  0.15294330000E+03 0.  0.
<mgrwt>
<rscale>  0 0.57970599E+03</rscale>
<asrwt>0</asrwt>
<pdfrwt beam="1">  1        2 0.20319110E+00 0.71261166E+03</pdfrwt>
<pdfrwt beam="2">  1       -2 0.11057736E+00 0.71261166E+03</pdfrwt>
<totfact> 0.10707520E+01</totfact>
</mgrwt>
</event>
<event>
 4    1  0.6502538E-008  0.6763218E+03  0.7818608E-02  0.1011486E+00
          2   -1    0    0  501    0  0.00000000000E+00  0.00000000000E+00  0.99299356385E+03  0.99299356386E+03  0.25500000000E-02 0. -1.
         -2   -1    0    0    0  501 -0.00000000000E+00 -0.00000000000E+00 -0.27472577031E+03  0.27472577032E+03  0.25500000000E-02 0.  1.
    8880023    1    1    2    0    0  0.14888026096E+03  0.37889962798E+02  0.78946323245E+03  0.10395496059E+04  0.65864270000E+03 0. -1.
    8880022    1    1    2    0    0 -0.14888026096E+03 -0.37889962798E+02 -0.71195438906E+02  0.22816972832E+03  0.15294330000E+03 0.  0.
<mgrwt>
<rscale>  0 0.50888397E+03</rscale>
<asrwt>0</asrwt>
<pdfrwt beam="1">  1        2 0.15276824E+00 0.67632181E+03</pdfrwt>
<pdfrwt beam="2">  1       -2 0.42265502E-01 0.67632181E+03</pdfrwt>
<totfact> 0.13738734E+02</totfact>
</mgrwt>
</event>
<event>
 4    1  0.6502538E-008  0.1065794E+04  0.7818608E-02  0.9300132E-01
          2   -1    0    0  501    0  0.00000000000E+00  0.00000000000E+00  0.23213781034E+04  0.23213781034E+04  0.25500000000E-02 0. -1.
         -2   -1    0    0    0  501 -0.00000000000E+00 -0.00000000000E+00 -0.53581295010E+03  0.53581295010E+03  0.25500000000E-02 0.  1.
    8880023    1    1    2    0    0  0.75444643787E+03 -0.36457759492E+03  0.24003055400E+03  0.10924885004E+04  0.65864270000E+03 0.  0.
    8880022    1    1    2    0    0 -0.75444643787E+03  0.36457759492E+03  0.15455345993E+04  0.17647025531E+04  0.15294330000E+03 0.  0.
<mgrwt>
<rscale>  0 0.10077073E+04</rscale>
<asrwt>0</asrwt>
<pdfrwt beam="1">  1        2 0.35713509E+00 0.10657938E+04</pdfrwt>
<pdfrwt beam="2">  1       -2 0.82432762E-01 0.10657938E+04</pdfrwt>
<totfact> 0.56880013E+00</totfact>
</mgrwt>
</event>
<event>
 4    1  0.6502538E-008  0.1059346E+04  0.7818608E-02  0.9307730E-01
         -2   -1    0    0    0  501 -0.00000000000E+00  0.00000000000E+00  0.37840264529E+03  0.37840264530E+03  0.25500000000E-02 0.  1.
          2   -1    0    0  501    0  0.00000000000E+00 -0.00000000000E+00 -0.28273865486E+04  0.28273865486E+04  0.25500000000E-02 0. -1.
    8880023    1    1    2    0    0 -0.28804233542E+03  0.77809674265E+03 -0.19670450140E+04  0.22341618611E+04  0.65864270000E+03 0.  0.
    8880022    1    1    2    0    0  0.28804233542E+03 -0.77809674265E+03 -0.48193888927E+03  0.97162733284E+03  0.15294330000E+03 0.  0.
<mgrwt>
<rscale>  0 0.10007431E+04</rscale>
<asrwt>0</asrwt>
<pdfrwt beam="1">  1        2 0.43498253E+00 0.10593456E+04</pdfrwt>
<pdfrwt beam="2">  1       -2 0.58215793E-01 0.10593456E+04</pdfrwt>
<totfact> 0.62094425E+00</totfact>
</mgrwt>
</event>
<event>
 4    1  0.6502538E-008  0.9854368E+03  0.7818608E-02  0.9400864E-01
         -2   -1    0    0    0  501 -0.00000000000E+00  0.00000000000E+00  0.75678502745E+03  0.75678502745E+03  0.25500000000E-02 0.  1.
          2   -1    0    0  501    0  0.00000000000E+00 -0.00000000000E+00 -0.18850329498E+04  0.18850329498E+04  0.25500000000E-02 0. -1.
    8880023    1    1    2    0    0 -0.34334679855E+03  0.64760205378E+03 -0.15086338428E+04  0.18019605218E+04  0.65864270000E+03 0.  0.
    8880022    1    1    2    0    0  0.34334679855E+03 -0.64760205378E+03  0.38038592041E+03  0.83985745552E+03  0.15294330000E+03 0.  0.
<mgrwt>
<rscale>  0 0.92004636E+03</rscale>
<asrwt>0</asrwt>
<pdfrwt beam="1">  1        2 0.29000507E+00 0.98543678E+03</pdfrwt>
<pdfrwt beam="2">  1       -2 0.11642847E+00 0.98543678E+03</pdfrwt>
<totfact> 0.44264961E+00</totfact>
</mgrwt>
</event>
<event>
 4    1  0.6502538E-008  0.7820359E+03  0.7818608E-02  0.9751076E-01
         -2   -1    0    0    0  501 -0.00000000000E+00  0.00000000000E+00  0.95704844481E+03  0.95704844481E+03  0.25500000000E-02 0.  1.
          2   -1    0    0  501    0  0.00000000000E+00 -0.00000000000E+00 -0.24014722531E+04  0.24014722531E+04  0.25500000000E-02 0. -1.
    8880023    1    1    2    0    0 -0.41742010886E+03 -0.59417403476E+02 -0.22798852840E+04  0.24102815374E+04  0.65864270000E+03 0. -1.
    8880022    1    1    2    0    0  0.41742010886E+03  0.59417403476E+02  0.83546147571E+03  0.94823916051E+03  0.15294330000E+03 0.  0.
<mgrwt>
<rscale>  0 0.68055491E+03</rscale>
<asrwt>0</asrwt>
<pdfrwt beam="1">  1        2 0.36945727E+00 0.78203592E+03</pdfrwt>
<pdfrwt beam="2">  1       -2 0.14723822E+00 0.78203592E+03</pdfrwt>
<totfact> 0.13017234E+00</totfact>
</mgrwt>
</event>
<event>
 4    1  0.6502538E-008  0.7643604E+03  0.7818608E-02  0.9793947E-01
          2   -1    0    0  501    0  0.00000000000E+00  0.00000000000E+00  0.74236917206E+03  0.74236917206E+03  0.25500000000E-02 0. -1.
         -2   -1    0    0    0  501 -0.00000000000E+00 -0.00000000000E+00 -0.92985281712E+03  0.92985281712E+03  0.25500000000E-02 0.  1.
    8880023    1    1    2    0    0 -0.21433022853E+03  0.32326319457E+03  0.46735851196E+03  0.89591892758E+03  0.65864270000E+03 0. -1.
    8880022    1    1    2    0    0  0.21433022853E+03 -0.32326319457E+03 -0.65484215702E+03  0.77630306160E+03  0.15294330000E+03 0.  0.
<mgrwt>
<rscale>  0 0.65688393E+03</rscale>
<asrwt>0</asrwt>
<pdfrwt beam="1">  1        2 0.11421064E+00 0.76436035E+03</pdfrwt>
<pdfrwt beam="2">  1       -2 0.14305428E+00 0.76436035E+03</pdfrwt>
<totfact> 0.13077257E+01</totfact>
</mgrwt>
</event>
<event>
 4    1  0.7882338E-008  0.1452910E+04  0.7818608E-02  0.8943624E-01
          2   -1    0    0  501    0  0.00000000000E+00  0.00000000000E+00  0.29040076554E+04  0.29040076554E+04  0.25500000000E-02 0. -1.
         -2   -1    0    0    0  501 -0.00000000000E+00 -0.00000000000E+00 -0.13409745398E+04  0.13409745398E+04  0.25500000000E-02 0.  1.
    8880023    1    1    2    0    0 -0.12948677165E+04 -0.21354044552E+02  0.23198232491E+04  0.27372483467E+04  0.65864270000E+03 0.  0.
    8880022    1    1    2    0    0  0.12948677165E+04  0.21354044552E+02 -0.75679013345E+03  0.15077338484E+04  0.15294330000E+03 0.  0.
<mgrwt>
<rscale>  0 0.14141718E+04</rscale>
<asrwt>0</asrwt>
<pdfrwt beam="1">  1        2 0.44677041E+00 0.14529104E+04</pdfrwt>
<pdfrwt beam="2">  1       -2 0.20630378E+00 0.14529104E+04</pdfrwt>
<totfact> 0.22887392E-01</totfact>
</mgrwt>
</event>
<event>
 4    1  0.6502538E-008  0.2036856E+04  0.7818608E-02  0.8601724E-01
          2   -1    0    0  501    0  0.00000000000E+00  0.00000000000E+00  0.19356694329E+04  0.19356694329E+04  0.25500000000E-02 0. -1.
         -2   -1    0    0    0  501 -0.00000000000E+00 -0.00000000000E+00 -0.21137135829E+04  0.21137135829E+04  0.25500000000E-02 0.  1.
    8880023    1    1    2    0    0  0.12661711867E+03 -0.19232626438E+04  0.29700215025E+03  0.20583953885E+04  0.65864270000E+03 0.  0.
    8880022    1    1    2    0    0 -0.12661711867E+03  0.19232626438E+04 -0.47504630020E+03  0.19909876273E+04  0.15294330000E+03 0.  0.
<mgrwt>
<rscale>  0 0.20105060E+04</rscale>
<asrwt>0</asrwt>
<pdfrwt beam="1">  1        2 0.29779530E+00 0.20368557E+04</pdfrwt>
<pdfrwt beam="2">  1       -2 0.32518671E+00 0.20368557E+04</pdfrwt>
<totfact> 0.14319792E-01</totfact>
</mgrwt>
</event>
<event>
 4    1  0.6502538E-008  0.8276371E+03  0.7818608E-02  0.9653947E-01
          2   -1    0    0  501    0  0.00000000000E+00  0.00000000000E+00  0.24105180179E+03  0.24105180180E+03  0.25500000000E-02 0. -1.
         -2   -1    0    0    0  501 -0.00000000000E+00 -0.00000000000E+00 -0.19774471185E+04  0.19774471185E+04  0.25500000000E-02 0.  1.
    8880023    1    1    2    0    0 -0.46032573094E+03  0.19817481791E+03 -0.83373993331E+03  0.11747789237E+04  0.65864270000E+03 0.  0.
    8880022    1    1    2    0    0  0.46032573094E+03 -0.19817481791E+03 -0.90265538342E+03  0.10437199966E+04  0.15294330000E+03 0.  0.
<mgrwt>
<rscale>  0 0.73826209E+03</rscale>
<asrwt>0</asrwt>
<pdfrwt beam="1">  1        2 0.37084894E-01 0.82763714E+03</pdfrwt>
<pdfrwt beam="2">  1       -2 0.30422262E+00 0.82763714E+03</pdfrwt>
<totfact> 0.43233982E+00</totfact>
</mgrwt>
</event>
<event>
 4    1  0.6502538E-008  0.6810567E+03  0.7818608E-02  0.1008732E+00
          2   -1    0    0  501    0  0.00000000000E+00  0.00000000000E+00  0.23183240839E+04  0.23183240839E+04  0.25500000000E-02 0. -1.
         -2   -1    0    0    0  501 -0.00000000000E+00 -0.00000000000E+00 -0.91687394814E+03  0.91687394814E+03  0.25500000000E-02 0.  1.
    8880023    1    1    2    0    0 -0.10047751003E+03 -0.14118194414E+03  0.22525584953E+04  0.23532654020E+04  0.65864270000E+03 0. -1.
    8880022    1    1    2    0    0  0.10047751003E+03  0.14118194414E+03 -0.85110835948E+03  0.88193263006E+03  0.15294330000E+03 0.  0.
<mgrwt>
<rscale>  0 0.51981664E+03</rscale>
<asrwt>0</asrwt>
<pdfrwt beam="1">  1        2 0.35666525E+00 0.68105674E+03</pdfrwt>
<pdfrwt beam="2">  1       -2 0.14105753E+00 0.68105674E+03</pdfrwt>
<totfact> 0.16545299E+00</totfact>
</mgrwt>
</event>
<event>
 4    1  0.7291329E-008  0.1059307E+04  0.7818608E-02  0.9307776E-01
          2   -1    0    0  501    0  0.00000000000E+00  0.00000000000E+00  0.26816776050E+04  0.26816776050E+04  0.25500000000E-02 0. -1.
         -2   -1    0    0    0  501 -0.00000000000E+00 -0.00000000000E+00 -0.14837300509E+04  0.14837300509E+04  0.25500000000E-02 0.  1.
    8880023    1    1    2    0    0 -0.77380280076E+03 -0.29925010593E+03  0.24422435228E+04  0.26620828370E+04  0.65864270000E+03 0. -1.
    8880022    1    1    2    0    0  0.77380280076E+03  0.29925010593E+03 -0.12442959687E+04  0.15033248189E+04  0.15294330000E+03 0.  0.
<mgrwt>
<rscale>  0 0.10007015E+04</rscale>
<asrwt>0</asrwt>
<pdfrwt beam="1">  1        2 0.41256578E+00 0.10593071E+04</pdfrwt>
<pdfrwt beam="2">  1       -2 0.22826616E+00 0.10593071E+04</pdfrwt>
<totfact> 0.23910566E-01</totfact>
</mgrwt>
</event>
<event>
 4    1  0.6502538E-008  0.1868916E+04  0.7818608E-02  0.8685343E-01
         -2   -1    0    0    0  501 -0.00000000000E+00  0.00000000000E+00  0.15638345460E+04  0.15638345461E+04  0.25500000000E-02 0.  1.
          2   -1    0    0  501    0  0.00000000000E+00 -0.00000000000E+00 -0.28895414827E+04  0.28895414827E+04  0.25500000000E-02 0. -1.
    8880023    1    1    2    0    0 -0.16117252939E+04 -0.67924944860E+03  0.48544778794E+03  0.19309344881E+04  0.65864270000E+03 0.  0.
    8880022    1    1    2    0    0  0.16117252939E+04  0.67924944860E+03 -0.18111547246E+04  0.25224415406E+04  0.15294330000E+03 0.  0.
<mgrwt>
<rscale>  0 0.18399417E+04</rscale>
<asrwt>0</asrwt>
<pdfrwt beam="1">  1        2 0.44454484E+00 0.18689164E+04</pdfrwt>
<pdfrwt beam="2">  1       -2 0.24058993E+00 0.18689164E+04</pdfrwt>
<totfact> 0.13492221E-01</totfact>
</mgrwt>
</event>
<event>
 4    1  0.6502538E-008  0.7406799E+03  0.7818608E-02  0.9857971E-01
         -2   -1    0    0    0  501 -0.00000000000E+00  0.00000000000E+00  0.55208593356E+03  0.55208593357E+03  0.25500000000E-02 0.  1.
          2   -1    0    0  501    0  0.00000000000E+00 -0.00000000000E+00 -0.78625230126E+03  0.78625230127E+03  0.25500000000E-02 0. -1.
    8880023    1    1    2    0    0  0.11794881330E+03 -0.31762326964E+03 -0.48908995353E+03  0.88758979990E+03  0.65864270000E+03 0. -1.
    8880022    1    1    2    0    0 -0.11794881330E+03  0.31762326964E+03  0.25492358583E+03  0.45074843494E+03  0.15294330000E+03 0.  0.
<mgrwt>
<rscale>  0 0.62342145E+03</rscale>
<asrwt>0</asrwt>
<pdfrwt beam="1">  1        2 0.12096189E+00 0.74067987E+03</pdfrwt>
<pdfrwt beam="2">  1       -2 0.84936298E-01 0.74067987E+03</pdfrwt>
<totfact> 0.43160112E+01</totfact>
</mgrwt>
</event>
<event>
 4    1  0.6502538E-008  0.7100607E+03  0.7818608E-02  0.9957776E-01
         -2   -1    0    0    0  501 -0.00000000000E+00  0.00000000000E+00  0.93185929245E+03  0.93185929245E+03  0.25500000000E-02 0.  1.
          2   -1    0    0  501    0  0.00000000000E+00 -0.00000000000E+00 -0.36205017281E+03  0.36205017282E+03  0.25500000000E-02 0. -1.
    8880023    1    1    2    0    0 -0.26612932531E+02  0.26394646214E+03  0.77689593021E+02  0.71429816056E+03  0.65864270000E+03 0. -1.
    8880022    1    1    2    0    0  0.26612932531E+02 -0.26394646214E+03  0.49211952662E+03  0.57961130471E+03  0.15294330000E+03 0.  0.
<mgrwt>
<rscale>  0 0.57541109E+03</rscale>
<asrwt>0</asrwt>
<pdfrwt beam="1">  1        2 0.55700027E-01 0.71006069E+03</pdfrwt>
<pdfrwt beam="2">  1       -2 0.14336297E+00 0.71006069E+03</pdfrwt>
<totfact> 0.30485614E+01</totfact>
</mgrwt>
</event>
<event>
 4    1  0.6502538E-008  0.6675115E+03  0.7818608E-02  0.1017513E+00
         -2   -1    0    0    0  501 -0.00000000000E+00  0.00000000000E+00  0.34837566275E+03  0.34837566276E+03  0.25500000000E-02 0.  1.
          2   -1    0    0  501    0  0.00000000000E+00 -0.00000000000E+00 -0.15095276020E+04  0.15095276020E+04  0.25500000000E-02 0. -1.
    8880023    1    1    2    0    0  0.97463746206E+02  0.47562136982E+02 -0.14019318617E+04  0.15527345200E+04  0.65864270000E+03 0. -1.
    8880022    1    1    2    0    0 -0.97463746206E+02 -0.47562136982E+02  0.24077992242E+03  0.30516874472E+03  0.15294330000E+03 0.  0.
<mgrwt>
<rscale>  0 0.48594747E+03</rscale>
<asrwt>0</asrwt>
<pdfrwt beam="1">  1        2 0.23223501E+00 0.66751146E+03</pdfrwt>
<pdfrwt beam="2">  1       -2 0.53596257E-01 0.66751146E+03</pdfrwt>
<totfact> 0.42453522E+01</totfact>
</mgrwt>
</event>
<event>
 4    1  0.6502538E-008  0.8203238E+03  0.7818608E-02  0.9668461E-01
         -2   -1    0    0    0  501 -0.00000000000E+00  0.00000000000E+00  0.24219303135E+03  0.24219303136E+03  0.25500000000E-02 0.  1.
          2   -1    0    0  501    0  0.00000000000E+00 -0.00000000000E+00 -0.25512339379E+04  0.25512339379E+04  0.25500000000E-02 0. -1.
    8880023    1    1    2    0    0  0.48529579381E+03 -0.60074530653E+02 -0.20728083248E+04  0.22292298030E+04  0.65864270000E+03 0. -1.
    8880022    1    1    2    0    0 -0.48529579381E+03  0.60074530653E+02 -0.23623258167E+03  0.56419716623E+03  0.15294330000E+03 0.  0.
<mgrwt>
<rscale>  0 0.72926062E+03</rscale>
<asrwt>0</asrwt>
<pdfrwt beam="1">  1        2 0.39249751E+00 0.82032382E+03</pdfrwt>
<pdfrwt beam="2">  1       -2 0.37260468E-01 0.82032382E+03</pdfrwt>
<totfact> 0.22858956E+01</totfact>
</mgrwt>
</event>
<event>
 4    1  0.6502538E-008  0.1067704E+04  0.7818608E-02  0.9297895E-01
          2   -1    0    0  501    0  0.00000000000E+00  0.00000000000E+00  0.23302479765E+04  0.23302479765E+04  0.25500000000E-02 0. -1.
         -2   -1    0    0    0  501 -0.00000000000E+00 -0.00000000000E+00 -0.12783192596E+04  0.12783192596E+04  0.25500000000E-02 0.  1.
    8880023    1    1    2    0    0  0.64786155546E+02  0.83784518217E+03  0.20399777820E+04  0.23024989365E+04  0.65864270000E+03 0.  0.
    8880022    1    1    2    0    0 -0.64786155546E+02 -0.83784518217E+03 -0.98804906510E+03  0.13060682996E+04  0.15294330000E+03 0.  0.
<mgrwt>
<rscale>  0 0.10097685E+04</rscale>
<asrwt>0</asrwt>
<pdfrwt beam="1">  1        2 0.35849968E+00 0.10677041E+04</pdfrwt>
<pdfrwt beam="2">  1       -2 0.19666450E+00 0.10677041E+04</pdfrwt>
<totfact> 0.60521989E-01</totfact>
</mgrwt>
</event>
<event>
 4    1  0.6502538E-008  0.8842926E+03  0.7818608E-02  0.9551733E-01
         -2   -1    0    0    0  501 -0.00000000000E+00  0.00000000000E+00  0.68475121433E+03  0.68475121434E+03  0.25500000000E-02 0.  1.
          2   -1    0    0  501    0  0.00000000000E+00 -0.00000000000E+00 -0.31567934714E+04  0.31567934714E+04  0.25500000000E-02 0. -1.
    8880023    1    1    2    0    0  0.55689825307E+03  0.19500653629E+03 -0.29418945421E+04  0.30719239764E+04  0.65864270000E+03 0.  0.
    8880022    1    1    2    0    0 -0.55689825307E+03 -0.19500653629E+03  0.46985228506E+03  0.76962070935E+03  0.15294330000E+03 0.  0.
<mgrwt>
<rscale>  0 0.80574917E+03</rscale>
<asrwt>0</asrwt>
<pdfrwt beam="1">  1        2 0.48566052E+00 0.88429261E+03</pdfrwt>
<pdfrwt beam="2">  1       -2 0.10534634E+00 0.88429261E+03</pdfrwt>
<totfact> 0.10537630E+00</totfact>
</mgrwt>
</event>
<event>
 4    1  0.6502538E-008  0.1596753E+04  0.7818608E-02  0.8844173E-01
         -2   -1    0    0    0  501 -0.00000000000E+00  0.00000000000E+00  0.12247104230E+04  0.12247104230E+04  0.25500000000E-02 0.  1.
          2   -1    0    0  501    0  0.00000000000E+00 -0.00000000000E+00 -0.21060080160E+04  0.21060080160E+04  0.25500000000E-02 0. -1.
    8880023    1    1    2    0    0 -0.82964484589E+03  0.11947804522E+04  0.48681013530E+02  0.15974952102E+04  0.65864270000E+03 0.  0.
    8880022    1    1    2    0    0  0.82964484589E+03 -0.11947804522E+04 -0.92997860647E+03  0.17332232288E+04  0.15294330000E+03 0.  0.
<mgrwt>
<rscale>  0 0.15621037E+04</rscale>
<asrwt>0</asrwt>
<pdfrwt beam="1">  1        2 0.32400123E+00 0.15967533E+04</pdfrwt>
<pdfrwt beam="2">  1       -2 0.18841699E+00 0.15967533E+04</pdfrwt>
<totfact> 0.86266898E-01</totfact>
</mgrwt>
</event>
<event>
 4    1  0.6502538E-008  0.1142813E+04  0.7818608E-02  0.9214822E-01
          2   -1    0    0  501    0  0.00000000000E+00  0.00000000000E+00  0.10985471180E+04  0.10985471180E+04  0.25500000000E-02 0. -1.
         -2   -1    0    0    0  501 -0.00000000000E+00 -0.00000000000E+00 -0.17582958991E+04  0.17582958991E+04  0.25500000000E-02 0.  1.
    8880023    1    1    2    0    0  0.56069588145E+03 -0.74688192324E+03 -0.12872464298E+04  0.17213442585E+04  0.65864270000E+03 0.  0.
    8880022    1    1    2    0    0 -0.56069588145E+03  0.74688192324E+03  0.62749764879E+03  0.11354987587E+04  0.15294330000E+03 0.  0.
<mgrwt>
<rscale>  0 0.10901745E+04</rscale>
<asrwt>0</asrwt>
<pdfrwt beam="1">  1        2 0.16900725E+00 0.11428135E+04</pdfrwt>
<pdfrwt beam="2">  1       -2 0.27050706E+00 0.11428135E+04</pdfrwt>
<totfact> 0.10309709E+00</totfact>
</mgrwt>
</event>
<event>
 4    1  0.1118337E-007  0.1025296E+04  0.7818608E-02  0.9349186E-01
          2   -1    0    0  501    0  0.00000000000E+00  0.00000000000E+00  0.17954364376E+04  0.17954364376E+04  0.25500000000E-02 0. -1.
         -2   -1    0    0    0  501 -0.00000000000E+00 -0.00000000000E+00 -0.20669392072E+04  0.20669392072E+04  0.25500000000E-02 0.  1.
    8880023    1    1    2    0    0  0.75545706334E+03 -0.21611625337E+03  0.15581742017E+04  0.18652449326E+04  0.65864270000E+03 0.  0.
    8880022    1    1    2    0    0 -0.75545706334E+03  0.21611625337E+03 -0.18296769713E+04  0.19971307122E+04  0.15294330000E+03 0.  0.
<mgrwt>
<rscale>  0 0.96378103E+03</rscale>
<asrwt>0</asrwt>
<pdfrwt beam="1">  1        2 0.27622099E+00 0.10252960E+04</pdfrwt>
<pdfrwt beam="2">  1       -2 0.31799064E+00 0.10252960E+04</pdfrwt>
<totfact> 0.21512986E-01</totfact>
</mgrwt>
</event>
<event>
 4    1  0.6502538E-008  0.1403383E+04  0.7818608E-02  0.8981058E-01
         -2   -1    0    0    0  501 -0.00000000000E+00  0.00000000000E+00  0.21263844793E+04  0.21263844793E+04  0.25500000000E-02 0.  1.
          2   -1    0    0  501    0  0.00000000000E+00 -0.00000000000E+00 -0.86792770848E+03  0.86792770849E+03  0.25500000000E-02 0. -1.
    8880023    1    1    2    0    0  0.12383988956E+04  0.45188043140E+02  0.33919214138E+03  0.14437919861E+04  0.65864270000E+03 0. -1.
    8880022    1    1    2    0    0 -0.12383988956E+04 -0.45188043140E+02  0.91926462940E+03  0.15505202017E+04  0.15294330000E+03 0.  0.
<mgrwt>
<rscale>  0 0.13629823E+04</rscale>
<asrwt>0</asrwt>
<pdfrwt beam="1">  1        2 0.13352734E+00 0.14033831E+04</pdfrwt>
<pdfrwt beam="2">  1       -2 0.32713607E+00 0.14033831E+04</pdfrwt>
<totfact> 0.64066729E-01</totfact>
</mgrwt>
</event>
<event>
 4    1  0.6502538E-008  0.1138360E+04  0.7818608E-02  0.9219503E-01
         -2   -1    0    0    0  501 -0.00000000000E+00  0.00000000000E+00  0.17381988098E+04  0.17381988098E+04  0.25500000000E-02 0.  1.
          2   -1    0    0  501    0  0.00000000000E+00 -0.00000000000E+00 -0.91120270675E+03  0.91120270675E+03  0.25500000000E-02 0. -1.
    8880023    1    1    2    0    0 -0.91753755623E+03 -0.14204934646E+03 -0.30389468803E+03  0.11782255181E+04  0.65864270000E+03 0.  0.
    8880022    1    1    2    0    0  0.91753755623E+03  0.14204934646E+03  0.11308907911E+04  0.14711759984E+04  0.15294330000E+03 0.  0.
<mgrwt>
<rscale>  0 0.10854377E+04</rscale>
<asrwt>0</asrwt>
<pdfrwt beam="1">  1        2 0.14018503E+00 0.11383600E+04</pdfrwt>
<pdfrwt beam="2">  1       -2 0.26741520E+00 0.11383600E+04</pdfrwt>
<totfact> 0.14236037E+00</totfact>
</mgrwt>
</event>
<event>
 4    1  0.6502538E-008  0.8442833E+03  0.7818608E-02  0.9622156E-01
          2   -1    0    0  501    0  0.00000000000E+00  0.00000000000E+00  0.13364121341E+04  0.13364121341E+04  0.25500000000E-02 0. -1.
         -2   -1    0    0    0  501 -0.00000000000E+00 -0.00000000000E+00 -0.45017501136E+03  0.45017501136E+03  0.25500000000E-02 0.  1.
    8880023    1    1    2    0    0 -0.44804147264E+03  0.27975497234E+03  0.90328023005E+03  0.12364179658E+04  0.65864270000E+03 0.  0.
    8880022    1    1    2    0    0  0.44804147264E+03 -0.27975497234E+03 -0.17043107334E+02  0.55016917969E+03  0.15294330000E+03 0.  0.
<mgrwt>
<rscale>  0 0.75846942E+03</rscale>
<asrwt>0</asrwt>
<pdfrwt beam="1">  1        2 0.20560187E+00 0.84428325E+03</pdfrwt>
<pdfrwt beam="2">  1       -2 0.69257694E-01 0.84428325E+03</pdfrwt>
<totfact> 0.30281952E+01</totfact>
</mgrwt>
</event>
<event>
 4    1  0.6502538E-008  0.9260363E+03  0.7818608E-02  0.9485465E-01
         -2   -1    0    0    0  501 -0.00000000000E+00  0.00000000000E+00  0.29634296663E+03  0.29634296664E+03  0.25500000000E-02 0.  1.
          2   -1    0    0  501    0  0.00000000000E+00 -0.00000000000E+00 -0.37147957702E+04  0.37147957702E+04  0.25500000000E-02 0. -1.
    8880023    1    1    2    0    0  0.18190220407E+03  0.62501575744E+03 -0.31622678936E+04  0.32950692779E+04  0.65864270000E+03 0.  0.
    8880022    1    1    2    0    0 -0.18190220407E+03 -0.62501575744E+03 -0.25618490992E+03  0.71606945891E+03  0.15294330000E+03 0.  0.
<mgrwt>
<rscale>  0 0.85363972E+03</rscale>
<asrwt>0</asrwt>
<pdfrwt beam="1">  1        2 0.57150701E+00 0.92603635E+03</pdfrwt>
<pdfrwt beam="2">  1       -2 0.45591228E-01 0.92603635E+03</pdfrwt>
<totfact> 0.27461184E+00</totfact>
</mgrwt>
</event>
<event>
 4    1  0.6502538E-008  0.7751088E+03  0.7818608E-02  0.9767454E-01
         -2   -1    0    0    0  501 -0.00000000000E+00  0.00000000000E+00  0.11669273925E+04  0.11669273925E+04  0.25500000000E-02 0.  1.
          2   -1    0    0  501    0  0.00000000000E+00 -0.00000000000E+00 -0.88296716429E+03  0.88296716430E+03  0.25500000000E-02 0. -1.
    8880023    1    1    2    0    0  0.39535727251E+03 -0.10332541801E+03 -0.65481318285E+03  0.10146792723E+04  0.65864270000E+03 0. -1.
    8880022    1    1    2    0    0 -0.39535727251E+03  0.10332541801E+03  0.93877341109E+03  0.10352152845E+04  0.15294330000E+03 0.  0.
<mgrwt>
<rscale>  0 0.67138759E+03</rscale>
<asrwt>0</asrwt>
<pdfrwt beam="1">  1        2 0.13584110E+00 0.77510884E+03</pdfrwt>
<pdfrwt beam="2">  1       -2 0.17952729E+00 0.77510884E+03</pdfrwt>
<totfact> 0.55935412E+00</totfact>
</mgrwt>
</event>
<event>
 4    1  0.6502538E-008  0.1641672E+04  0.7818608E-02  0.8815577E-01
         -2   -1    0    0    0  501 -0.00000000000E+00  0.00000000000E+00  0.16487532935E+04  0.16487532935E+04  0.25500000000E-02 0.  1.
          2   -1    0    0  501    0  0.00000000000E+00 -0.00000000000E+00 -0.27588923655E+04  0.27588923655E+04  0.25500000000E-02 0. -1.
    8880023    1    1    2    0    0  0.86683947821E+03 -0.12287655998E+04  0.91591297247E+03  0.18798889222E+04  0.65864270000E+03 0.  0.
    8880022    1    1    2    0    0 -0.86683947821E+03  0.12287655998E+04 -0.20260520445E+04  0.25277567367E+04  0.15294330000E+03 0.  0.
<mgrwt>
<rscale>  0 0.16081168E+04</rscale>
<asrwt>0</asrwt>
<pdfrwt beam="1">  1        2 0.42444498E+00 0.16416716E+04</pdfrwt>
<pdfrwt beam="2">  1       -2 0.25365435E+00 0.16416716E+04</pdfrwt>
<totfact> 0.13786682E-01</totfact>
</mgrwt>
</event>
<event>
 4    1  0.6502538E-008  0.7150746E+03  0.7818608E-02  0.9939618E-01
          2   -1    0    0  501    0  0.00000000000E+00  0.00000000000E+00  0.70659337360E+03  0.70659337360E+03  0.25500000000E-02 0. -1.
         -2   -1    0    0    0  501 -0.00000000000E+00 -0.00000000000E+00 -0.82314056278E+03  0.82314056279E+03  0.25500000000E-02 0.  1.
    8880023    1    1    2    0    0 -0.14810346487E+03 -0.23576865922E+03  0.47487798374E+03  0.85839431655E+03  0.65864270000E+03 0.  0.
    8880022    1    1    2    0    0  0.14810346487E+03  0.23576865922E+03 -0.59142517293E+03  0.67133961984E+03  0.15294330000E+03 0.  0.
<mgrwt>
<rscale>  0 0.58379046E+03</rscale>
<asrwt>0</asrwt>
<pdfrwt beam="1">  1        2 0.10870667E+00 0.71507461E+03</pdfrwt>
<pdfrwt beam="2">  1       -2 0.12663701E+00 0.71507461E+03</pdfrwt>
<totfact> 0.19116700E+01</totfact>
</mgrwt>
</event>
<event>
 4    1  0.6502538E-008  0.6721548E+03  0.7818608E-02  0.1014163E+00
          2   -1    0    0  501    0  0.00000000000E+00  0.00000000000E+00  0.10597359820E+04  0.10597359820E+04  0.25500000000E-02 0. -1.
         -2   -1    0    0    0  501 -0.00000000000E+00 -0.00000000000E+00 -0.96326635717E+03  0.96326635717E+03  0.25500000000E-02 0.  1.
    8880023    1    1    2    0    0  0.80535696794E+02  0.10721889985E+03  0.93983352507E+03  0.11554562528E+04  0.65864270000E+03 0. -1.
    8880022    1    1    2    0    0 -0.80535696794E+02 -0.10721889985E+03 -0.84336390020E+03  0.86754608645E+03  0.15294330000E+03 0.  0.
<mgrwt>
<rscale>  0 0.49853118E+03</rscale>
<asrwt>0</asrwt>
<pdfrwt beam="1">  1        2 0.16303630E+00 0.67215482E+03</pdfrwt>
<pdfrwt beam="2">  1       -2 0.14819483E+00 0.67215482E+03</pdfrwt>
<totfact> 0.73550415E+00</totfact>
</mgrwt>
</event>
<event>
 4    1  0.6502538E-008  0.6973469E+03  0.7818608E-02  0.1000839E+00
          2   -1    0    0  501    0  0.00000000000E+00  0.00000000000E+00  0.69743857253E+03  0.69743857254E+03  0.25500000000E-02 0. -1.
         -2   -1    0    0    0  501 -0.00000000000E+00 -0.00000000000E+00 -0.51595141865E+03  0.51595141866E+03  0.25500000000E-02 0.  1.
    8880023    1    1    2    0    0  0.67775006694E+02  0.21883550596E+03  0.44901690365E+03  0.82940268641E+03  0.65864270000E+03 0. -1.
    8880022    1    1    2    0    0 -0.67775006694E+02 -0.21883550596E+03 -0.26752974977E+03  0.38398730478E+03  0.15294330000E+03 0.  0.
<mgrwt>
<rscale>  0 0.55283855E+03</rscale>
<asrwt>0</asrwt>
<pdfrwt beam="1">  1        2 0.10729824E+00 0.69734686E+03</pdfrwt>
<pdfrwt beam="2">  1       -2 0.79377142E-01 0.69734686E+03</pdfrwt>
<totfact> 0.58877791E+01</totfact>
</mgrwt>
</event>
<event>
 4    1  0.6502538E-008  0.8279984E+03  0.7818608E-02  0.9653239E-01
         -2   -1    0    0    0  501 -0.00000000000E+00  0.00000000000E+00  0.91572241436E+03  0.91572241436E+03  0.25500000000E-02 0.  1.
          2   -1    0    0  501    0  0.00000000000E+00 -0.00000000000E+00 -0.14188346913E+04  0.14188346913E+04  0.25500000000E-02 0. -1.
    8880023    1    1    2    0    0 -0.45747420808E+03 -0.20612752600E+03 -0.12026942138E+04  0.14601557404E+04  0.65864270000E+03 0. -1.
    8880022    1    1    2    0    0  0.45747420808E+03  0.20612752600E+03  0.69958193692E+03  0.87440136522E+03  0.15294330000E+03 0.  0.
<mgrwt>
<rscale>  0 0.73870471E+03</rscale>
<asrwt>0</asrwt>
<pdfrwt beam="1">  1        2 0.21828226E+00 0.82799844E+03</pdfrwt>
<pdfrwt beam="2">  1       -2 0.14088037E+00 0.82799844E+03</pdfrwt>
<totfact> 0.50541590E+00</totfact>
</mgrwt>
</event>
<event>
 4    1  0.6502538E-008  0.6754717E+03  0.7818608E-02  0.1012011E+00
         -2   -1    0    0    0  501 -0.00000000000E+00  0.00000000000E+00  0.98678888347E+03  0.98678888348E+03  0.25500000000E-02 0.  1.
          2   -1    0    0  501    0  0.00000000000E+00 -0.00000000000E+00 -0.32021457999E+04  0.32021457999E+04  0.25500000000E-02 0. -1.
    8880023    1    1    2    0    0  0.14771636368E+03 -0.25134382655E+02 -0.31543386651E+04  0.32258509702E+04  0.65864270000E+03 0. -1.
    8880022    1    1    2    0    0 -0.14771636368E+03  0.25134382655E+02  0.93898174868E+03  0.96308371321E+03  0.15294330000E+03 0.  0.
<mgrwt>
<rscale>  0 0.50683328E+03</rscale>
<asrwt>0</asrwt>
<pdfrwt beam="1">  1        2 0.49263781E+00 0.67547174E+03</pdfrwt>
<pdfrwt beam="2">  1       -2 0.15181368E+00 0.67547174E+03</pdfrwt>
<totfact> 0.41244891E-01</totfact>
</mgrwt>
</event>
<event>
 4    1  0.6502538E-008  0.7749197E+03  0.7818608E-02  0.9767909E-01
         -2   -1    0    0    0  501 -0.00000000000E+00  0.00000000000E+00  0.93773942589E+03  0.93773942589E+03  0.25500000000E-02 0.  1.
          2   -1    0    0  501    0  0.00000000000E+00 -0.00000000000E+00 -0.10298281080E+04  0.10298281080E+04  0.25500000000E-02 0. -1.
    8880023    1    1    2    0    0  0.40142197538E+03  0.74503641005E+02 -0.81421675638E+03  0.11240327075E+04  0.65864270000E+03 0. -1.
    8880022    1    1    2    0    0 -0.40142197538E+03 -0.74503641005E+02  0.72212807423E+03  0.84353482646E+03  0.15294330000E+03 0.  0.
<mgrwt>
<rscale>  0 0.67113545E+03</rscale>
<asrwt>0</asrwt>
<pdfrwt beam="1">  1        2 0.15843509E+00 0.77491974E+03</pdfrwt>
<pdfrwt beam="2">  1       -2 0.14426760E+00 0.77491974E+03</pdfrwt>
<totfact> 0.81276126E+00</totfact>
</mgrwt>
</event>
<event>
 4    1  0.6502538E-008  0.6876300E+03  0.7818608E-02  0.1005300E+00
          2   -1    0    0  501    0  0.00000000000E+00  0.00000000000E+00  0.21689640567E+04  0.21689640567E+04  0.25500000000E-02 0. -1.
         -2   -1    0    0    0  501 -0.00000000000E+00 -0.00000000000E+00 -0.51393835461E+03  0.51393835462E+03  0.25500000000E-02 0.  1.
    8880023    1    1    2    0    0  0.51246865921E+00  0.19754619136E+03  0.20795675376E+04  0.21903050267E+04  0.65864270000E+03 0. -1.
    8880022    1    1    2    0    0 -0.51246865921E+00 -0.19754619136E+03 -0.42454183544E+03  0.49259738468E+03  0.15294330000E+03 0.  0.
<mgrwt>
<rscale>  0 0.53386131E+03</rscale>
<asrwt>0</asrwt>
<pdfrwt beam="1">  1        2 0.33368678E+00 0.68762996E+03</pdfrwt>
<pdfrwt beam="2">  1       -2 0.79067439E-01 0.68762996E+03</pdfrwt>
<totfact> 0.80177311E+00</totfact>
</mgrwt>
</event>
<event>
 4    1  0.6502538E-008  0.7269700E+03  0.7818608E-02  0.9899671E-01
          2   -1    0    0  501    0  0.00000000000E+00  0.00000000000E+00  0.20534312404E+04  0.20534312404E+04  0.25500000000E-02 0. -1.
         -2   -1    0    0    0  501 -0.00000000000E+00 -0.00000000000E+00 -0.55394909641E+03  0.55394909642E+03  0.25500000000E-02 0.  1.
    8880023    1    1    2    0    0 -0.24014415950E+03  0.19236921557E+03  0.19266072783E+04  0.20591991024E+04  0.65864270000E+03 0. -1.
    8880022    1    1    2    0    0  0.24014415950E+03 -0.19236921557E+03 -0.42712513426E+03  0.54818123442E+03  0.15294330000E+03 0.  0.
<mgrwt>
<rscale>  0 0.60277235E+03</rscale>
<asrwt>0</asrwt>
<pdfrwt beam="1">  1        2 0.31591250E+00 0.72696997E+03</pdfrwt>
<pdfrwt beam="2">  1       -2 0.85222938E-01 0.72696997E+03</pdfrwt>
<totfact> 0.77770484E+00</totfact>
</mgrwt>
</event>
<event>
 4    1  0.6502538E-008  0.1310337E+04  0.7818608E-02  0.9056684E-01
          2   -1    0    0  501    0  0.00000000000E+00  0.00000000000E+00  0.17211713111E+04  0.17211713111E+04  0.25500000000E-02 0. -1.
         -2   -1    0    0    0  501 -0.00000000000E+00 -0.00000000000E+00 -0.12464575660E+04  0.12464575660E+04  0.25500000000E-02 0.  1.
    8880023    1    1    2    0    0  0.44409362965E+03  0.10420909051E+04  0.10581949699E+04  0.16842682111E+04  0.65864270000E+03 0.  0.
    8880022    1    1    2    0    0 -0.44409362965E+03 -0.10420909051E+04 -0.58348122483E+03  0.12833606660E+04  0.15294330000E+03 0.  0.
<mgrwt>
<rscale>  0 0.12663495E+04</rscale>
<asrwt>0</asrwt>
<pdfrwt beam="1">  1        2 0.26479558E+00 0.13103369E+04</pdfrwt>
<pdfrwt beam="2">  1       -2 0.19176270E+00 0.13103369E+04</pdfrwt>
<totfact> 0.13802086E+00</totfact>
</mgrwt>
</event>
<event>
 4    1  0.6502538E-008  0.1037313E+04  0.7818608E-02  0.9334291E-01
          2   -1    0    0  501    0  0.00000000000E+00  0.00000000000E+00  0.18615308145E+04  0.18615308145E+04  0.25500000000E-02 0. -1.
         -2   -1    0    0    0  501 -0.00000000000E+00 -0.00000000000E+00 -0.56752595841E+03  0.56752595841E+03  0.25500000000E-02 0.  1.
    8880023    1    1    2    0    0 -0.70143101176E+03 -0.38755921124E+03  0.12324647247E+04  0.16108963686E+04  0.65864270000E+03 0.  0.
    8880022    1    1    2    0    0  0.70143101176E+03  0.38755921124E+03  0.61540131460E+02  0.81816040437E+03  0.15294330000E+03 0.  0.
<mgrwt>
<rscale>  0 0.97686354E+03</rscale>
<asrwt>0</asrwt>
<pdfrwt beam="1">  1        2 0.28638935E+00 0.10373128E+04</pdfrwt>
<pdfrwt beam="2">  1       -2 0.87311687E-01 0.10373128E+04</pdfrwt>
<totfact> 0.90005011E+00</totfact>
</mgrwt>
</event>
<event>
 4    1  0.6502538E-008  0.7125024E+03  0.7818608E-02  0.9948823E-01
          2   -1    0    0  501    0  0.00000000000E+00  0.00000000000E+00  0.11006928402E+04  0.11006928402E+04  0.25500000000E-02 0. -1.
         -2   -1    0    0    0  501 -0.00000000000E+00 -0.00000000000E+00 -0.41162450948E+03  0.41162450948E+03  0.25500000000E-02 0.  1.
    8880023    1    1    2    0    0  0.18070044277E+03  0.20296999810E+03  0.89096934524E+03  0.11408269153E+04  0.65864270000E+03 0. -1.
    8880022    1    1    2    0    0 -0.18070044277E+03 -0.20296999810E+03 -0.20190101456E+03  0.37149043439E+03  0.15294330000E+03 0.  0.
<mgrwt>
<rscale>  0 0.57952343E+03</rscale>
<asrwt>0</asrwt>
<pdfrwt beam="1">  1        2 0.16933736E+00 0.71250240E+03</pdfrwt>
<pdfrwt beam="2">  1       -2 0.63326849E-01 0.71250240E+03</pdfrwt>
<totfact> 0.51257967E+01</totfact>
</mgrwt>
</event>
<event>
 4    1  0.6502538E-008  0.7819816E+03  0.7818608E-02  0.9751202E-01
         -2   -1    0    0    0  501 -0.00000000000E+00  0.00000000000E+00  0.45231803109E+03  0.45231803109E+03  0.25500000000E-02 0.  1.
          2   -1    0    0  501    0  0.00000000000E+00 -0.00000000000E+00 -0.37874987878E+04  0.37874987878E+04  0.25500000000E-02 0. -1.
    8880023    1    1    2    0    0  0.33672142591E+03  0.25358187255E+03 -0.36233612836E+04  0.37067832797E+04  0.65864270000E+03 0. -1.
    8880022    1    1    2    0    0 -0.33672142591E+03 -0.25358187255E+03  0.28818052694E+03  0.53303353916E+03  0.15294330000E+03 0.  0.
<mgrwt>
<rscale>  0 0.68048358E+03</rscale>
<asrwt>0</asrwt>
<pdfrwt beam="1">  1        2 0.58269210E+00 0.78198164E+03</pdfrwt>
<pdfrwt beam="2">  1       -2 0.69587392E-01 0.78198164E+03</pdfrwt>
<totfact> 0.10336314E+00</totfact>
</mgrwt>
</event>
<event>
 4    1  0.6502538E-008  0.1255648E+04  0.7818608E-02  0.9104840E-01
         -2   -1    0    0    0  501 -0.00000000000E+00  0.00000000000E+00  0.48087367163E+03  0.48087367164E+03  0.25500000000E-02 0.  1.
          2   -1    0    0  501    0  0.00000000000E+00 -0.00000000000E+00 -0.31526019483E+04  0.31526019483E+04  0.25500000000E-02 0. -1.
    8880023    1    1    2    0    0 -0.99347007508E+02 -0.10644111861E+04 -0.20006004448E+04  0.23620019786E+04  0.65864270000E+03 0.  0.
    8880022    1    1    2    0    0  0.99347007508E+02  0.10644111861E+04 -0.67112783190E+03  0.12714736414E+04  0.15294330000E+03 0.  0.
<mgrwt>
<rscale>  0 0.12092024E+04</rscale>
<asrwt>0</asrwt>
<pdfrwt beam="1">  1        2 0.48501567E+00 0.12556477E+04</pdfrwt>
<pdfrwt beam="2">  1       -2 0.73980567E-01 0.12556477E+04</pdfrwt>
<totfact> 0.22688360E+00</totfact>
</mgrwt>
</event>
<event>
 4    1  0.6502538E-008  0.1330651E+04  0.7818608E-02  0.9039533E-01
          2   -1    0    0  501    0  0.00000000000E+00  0.00000000000E+00  0.17393891990E+04  0.17393891990E+04  0.25500000000E-02 0. -1.
         -2   -1    0    0    0  501 -0.00000000000E+00 -0.00000000000E+00 -0.27171335141E+04  0.27171335141E+04  0.25500000000E-02 0.  1.
    8880023    1    1    2    0    0 -0.67504283780E+03  0.93868957456E+03  0.13233982663E+04  0.18767029940E+04  0.65864270000E+03 0. -1.
    8880022    1    1    2    0    0  0.67504283780E+03 -0.93868957456E+03 -0.23011425814E+04  0.25798197191E+04  0.15294330000E+03 0.  0.
<mgrwt>
<rscale>  0 0.12875049E+04</rscale>
<asrwt>0</asrwt>
<pdfrwt beam="1">  1        2 0.26759834E+00 0.13306507E+04</pdfrwt>
<pdfrwt beam="2">  1       -2 0.41802054E+00 0.13306507E+04</pdfrwt>
<totfact> 0.50765300E-02</totfact>
</mgrwt>
</event>
<event>
 4    1  0.6502538E-008  0.6728294E+03  0.7818608E-02  0.1013711E+00
          2   -1    0    0  501    0  0.00000000000E+00  0.00000000000E+00  0.77672866746E+03  0.77672866747E+03  0.25500000000E-02 0. -1.
         -2   -1    0    0    0  501 -0.00000000000E+00 -0.00000000000E+00 -0.38126076618E+03  0.38126076619E+03  0.25500000000E-02 0.  1.
    8880023    1    1    2    0    0 -0.13413582628E+03  0.29945593023E+02  0.57497197454E+03  0.88503792924E+03  0.65864270000E+03 0.  0.
    8880022    1    1    2    0    0  0.13413582628E+03 -0.29945593023E+02 -0.17950407326E+03  0.27295150442E+03  0.15294330000E+03 0.  1.
<mgrwt>
<rscale>  0 0.50026097E+03</rscale>
<asrwt>0</asrwt>
<pdfrwt beam="1">  1        2 0.11949672E+00 0.67282937E+03</pdfrwt>
<pdfrwt beam="2">  1       -2 0.58655503E-01 0.67282937E+03</pdfrwt>
<totfact> 0.99037605E+01</totfact>
</mgrwt>
</event>
<event>
 4    1  0.6502538E-008  0.8359896E+03  0.7818608E-02  0.9637789E-01
         -2   -1    0    0    0  501 -0.00000000000E+00  0.00000000000E+00  0.13676692653E+04  0.13676692653E+04  0.25500000000E-02 0.  1.
          2   -1    0    0  501    0  0.00000000000E+00 -0.00000000000E+00 -0.10342765282E+04  0.10342765282E+04  0.25500000000E-02 0. -1.
    8880023    1    1    2    0    0  0.16774181086E+03  0.48675559236E+03 -0.79412416370E+03  0.11530445418E+04  0.65864270000E+03 0. -1.
    8880022    1    1    2    0    0 -0.16774181086E+03 -0.48675559236E+03  0.11275169008E+04  0.12489012517E+04  0.15294330000E+03 0.  0.
<mgrwt>
<rscale>  0 0.74844748E+03</rscale>
<asrwt>0</asrwt>
<pdfrwt beam="1">  1        2 0.15911947E+00 0.83598955E+03</pdfrwt>
<pdfrwt beam="2">  1       -2 0.21041066E+00 0.83598955E+03</pdfrwt>
<totfact> 0.27627632E+00</totfact>
</mgrwt>
</event>
<event>
 4    1  0.6502538E-008  0.7683699E+03  0.7818608E-02  0.9783901E-01
          2   -1    0    0  501    0  0.00000000000E+00  0.00000000000E+00  0.16539006448E+04  0.16539006448E+04  0.25500000000E-02 0. -1.
         -2   -1    0    0    0  501 -0.00000000000E+00 -0.00000000000E+00 -0.94924585733E+03  0.94924585734E+03  0.25500000000E-02 0.  1.
    8880023    1    1    2    0    0 -0.36624673946E+03 -0.14981819357E+03  0.15092363923E+04  0.16935722186E+04  0.65864270000E+03 0.  0.
    8880022    1    1    2    0    0  0.36624673946E+03  0.14981819357E+03 -0.80458160491E+03  0.90957428353E+03  0.15294330000E+03 0.  0.
<mgrwt>
<rscale>  0 0.66233689E+03</rscale>
<asrwt>0</asrwt>
<pdfrwt beam="1">  1        2 0.25444625E+00 0.76836994E+03</pdfrwt>
<pdfrwt beam="2">  1       -2 0.14603782E+00 0.76836994E+03</pdfrwt>
<totfact> 0.34345244E+00</totfact>
</mgrwt>
</event>
<event>
 4    1  0.6502538E-008  0.9725140E+03  0.7818608E-02  0.9418435E-01
         -2   -1    0    0    0  501 -0.00000000000E+00  0.00000000000E+00  0.12770414856E+04  0.12770414856E+04  0.25500000000E-02 0.  1.
          2   -1    0    0  501    0  0.00000000000E+00 -0.00000000000E+00 -0.94091952419E+03  0.94091952419E+03  0.25500000000E-02 0. -1.
    8880023    1    1    2    0    0  0.70732332665E+03  0.10801419006E+03 -0.51100225732E+03  0.10985931307E+04  0.65864270000E+03 0.  0.
    8880022    1    1    2    0    0 -0.70732332665E+03 -0.10801419006E+03  0.84712421874E+03  0.11193678791E+04  0.15294330000E+03 0.  0.
<mgrwt>
<rscale>  0 0.90573919E+03</rscale>
<asrwt>0</asrwt>
<pdfrwt beam="1">  1        2 0.14475685E+00 0.97251404E+03</pdfrwt>
<pdfrwt beam="2">  1       -2 0.19646792E+00 0.97251404E+03</pdfrwt>
<totfact> 0.38439391E+00</totfact>
</mgrwt>
</event>
<event>
 4    1  0.6502538E-008  0.6952568E+03  0.7818608E-02  0.1001748E+00
          2   -1    0    0  501    0  0.00000000000E+00  0.00000000000E+00  0.25185042325E+04  0.25185042325E+04  0.25500000000E-02 0. -1.
         -2   -1    0    0    0  501 -0.00000000000E+00 -0.00000000000E+00 -0.41967822294E+03  0.41967822295E+03  0.25500000000E-02 0.  1.
    8880023    1    1    2    0    0  0.11165939168E+03  0.19262400159E+03  0.24203637488E+04  0.25182419877E+04  0.65864270000E+03 0. -1.
    8880022    1    1    2    0    0 -0.11165939168E+03 -0.19262400159E+03 -0.32153773922E+03  0.41994046780E+03  0.15294330000E+03 0.  0.
<mgrwt>
<rscale>  0 0.54890493E+03</rscale>
<asrwt>0</asrwt>
<pdfrwt beam="1">  1        2 0.38746220E+00 0.69525681E+03</pdfrwt>
<pdfrwt beam="2">  1       -2 0.64565879E-01 0.69525681E+03</pdfrwt>
<totfact> 0.79726745E+00</totfact>
</mgrwt>
</event>
<event>
 4    1  0.6502538E-008  0.8459952E+03  0.7818608E-02  0.9618978E-01
         -2   -1    0    0    0  501 -0.00000000000E+00  0.00000000000E+00  0.45427801081E+03  0.45427801081E+03  0.25500000000E-02 0.  1.
          2   -1    0    0  501    0  0.00000000000E+00 -0.00000000000E+00 -0.14936215359E+04  0.14936215359E+04  0.25500000000E-02 0. -1.
    8880023    1    1    2    0    0 -0.51204509125E+03  0.14038349274E+03 -0.11047990891E+04  0.13915059950E+04  0.65864270000E+03 0. -1.
    8880022    1    1    2    0    0  0.51204509125E+03 -0.14038349274E+03  0.65455564040E+02  0.55639355171E+03  0.15294330000E+03 0.  0.
<mgrwt>
<rscale>  0 0.76052744E+03</rscale>
<asrwt>0</asrwt>
<pdfrwt beam="1">  1        2 0.22978793E+00 0.84599522E+03</pdfrwt>
<pdfrwt beam="2">  1       -2 0.69888925E-01 0.84599522E+03</pdfrwt>
<totfact> 0.24179481E+01</totfact>
</mgrwt>
</event>
<event>
 4    1  0.6502538E-008  0.7067253E+03  0.7818608E-02  0.9970368E-01
         -2   -1    0    0    0  501 -0.00000000000E+00  0.00000000000E+00  0.81365559417E+03  0.81365559418E+03  0.25500000000E-02 0.  1.
          2   -1    0    0  501    0  0.00000000000E+00 -0.00000000000E+00 -0.14770902655E+04  0.14770902655E+04  0.25500000000E-02 0. -1.
    8880023    1    1    2    0    0 -0.22374470040E+03  0.12485481585E+03 -0.13601613803E+04  0.15328077514E+04  0.65864270000E+03 0. -1.
    8880022    1    1    2    0    0  0.22374470040E+03 -0.12485481585E+03  0.69672670897E+03  0.75793810829E+03  0.15294330000E+03 0.  0.
<mgrwt>
<rscale>  0 0.56968840E+03</rscale>
<asrwt>0</asrwt>
<pdfrwt beam="1">  1        2 0.22724466E+00 0.70672528E+03</pdfrwt>
<pdfrwt beam="2">  1       -2 0.12517778E+00 0.70672528E+03</pdfrwt>
<totfact> 0.64450124E+00</totfact>
</mgrwt>
</event>
<event>
 4    1  0.6502538E-008  0.7165661E+03  0.7818608E-02  0.9934381E-01
         -2   -1    0    0    0  501 -0.00000000000E+00  0.00000000000E+00  0.41747041968E+03  0.41747041969E+03  0.25500000000E-02 0.  1.
          2   -1    0    0  501    0  0.00000000000E+00 -0.00000000000E+00 -0.12520657561E+04  0.12520657561E+04  0.25500000000E-02 0. -1.
    8880023    1    1    2    0    0  0.26784484571E+03 -0.88971512638E+02 -0.10584392982E+04  0.12781865066E+04  0.65864270000E+03 0. -1.
    8880022    1    1    2    0    0 -0.26784484571E+03  0.88971512638E+02  0.22384396169E+03  0.39134966926E+03  0.15294330000E+03 0.  0.
<mgrwt>
<rscale>  0 0.58623586E+03</rscale>
<asrwt>0</asrwt>
<pdfrwt beam="1">  1        2 0.19262550E+00 0.71656612E+03</pdfrwt>
<pdfrwt beam="2">  1       -2 0.64226219E-01 0.71656612E+03</pdfrwt>
<totfact> 0.40394833E+01</totfact>
</mgrwt>
</event>
<event>
 4    1  0.6502538E-008  0.8910819E+03  0.7818608E-02  0.9540502E-01
         -2   -1    0    0    0  501 -0.00000000000E+00  0.00000000000E+00  0.43802088192E+03  0.43802088193E+03  0.25500000000E-02 0.  1.
          2   -1    0    0  501    0  0.00000000000E+00 -0.00000000000E+00 -0.22050900409E+04  0.22050900409E+04  0.25500000000E-02 0. -1.
    8880023    1    1    2    0    0  0.78230154980E+02 -0.59506029417E+03 -0.18149540424E+04  0.20219013559E+04  0.65864270000E+03 0.  1.
    8880022    1    1    2    0    0 -0.78230154980E+02  0.59506029417E+03  0.47884883480E+02  0.62120956684E+03  0.15294330000E+03 0.  0.
<mgrwt>
<rscale>  0 0.81362488E+03</rscale>
<asrwt>0</asrwt>
<pdfrwt beam="1">  1        2 0.33924461E+00 0.89108188E+03</pdfrwt>
<pdfrwt beam="2">  1       -2 0.67387829E-01 0.89108188E+03</pdfrwt>
<totfact> 0.10563000E+01</totfact>
</mgrwt>
</event>
<event>
 4    1  0.6502538E-008  0.6648975E+03  0.7818608E-02  0.1019620E+00
          2   -1    0    0  501    0  0.00000000000E+00  0.00000000000E+00  0.19020960570E+04  0.19020960570E+04  0.25500000000E-02 0. -1.
         -2   -1    0    0    0  501 -0.00000000000E+00 -0.00000000000E+00 -0.43211652276E+03  0.43211652277E+03  0.25500000000E-02 0.  1.
    8880023    1    1    2    0    0 -0.88786907179E+02 -0.19882621371E+02  0.18221291193E+04  0.19396502693E+04  0.65864270000E+03 0. -1.
    8880022    1    1    2    0    0  0.88786907179E+02  0.19882621371E+02 -0.35214958510E+03  0.39456231044E+03  0.15294330000E+03 0.  0.
<mgrwt>
<rscale>  0 0.47824139E+03</rscale>
<asrwt>0</asrwt>
<pdfrwt beam="1">  1        2 0.29263017E+00 0.66489747E+03</pdfrwt>
<pdfrwt beam="2">  1       -2 0.66479464E-01 0.66489747E+03</pdfrwt>
<totfact> 0.16466188E+01</totfact>
</mgrwt>
</event>
<event>
 4    1  0.6502538E-008  0.8501384E+03  0.7818608E-02  0.9611352E-01
          2   -1    0    0  501    0  0.00000000000E+00  0.00000000000E+00  0.12510265516E+04  0.12510265516E+04  0.25500000000E-02 0. -1.
         -2   -1    0    0    0  501 -0.00000000000E+00 -0.00000000000E+00 -0.72611291134E+03  0.72611291135E+03  0.25500000000E-02 0.  1.
    8880023    1    1    2    0    0 -0.42008760079E+03  0.33533777276E+03  0.95010513436E+03  0.12749254828E+04  0.65864270000E+03 0.  0.
    8880022    1    1    2    0    0  0.42008760079E+03 -0.33533777276E+03 -0.42519149411E+03  0.70221398011E+03  0.15294330000E+03 0.  0.
<mgrwt>
<rscale>  0 0.76549367E+03</rscale>
<asrwt>0</asrwt>
<pdfrwt beam="1">  1        2 0.19246562E+00 0.85013835E+03</pdfrwt>
<pdfrwt beam="2">  1       -2 0.11170968E+00 0.85013835E+03</pdfrwt>
<totfact> 0.11273680E+01</totfact>
</mgrwt>
</event>
<event>
 4    1  0.6502538E-008  0.9144132E+03  0.7818608E-02  0.9503279E-01
          2   -1    0    0  501    0  0.00000000000E+00  0.00000000000E+00  0.28096729733E+04  0.28096729733E+04  0.25500000000E-02 0. -1.
         -2   -1    0    0    0  501 -0.00000000000E+00 -0.00000000000E+00 -0.80694987502E+03  0.80694987503E+03  0.25500000000E-02 0.  1.
    8880023    1    1    2    0    0  0.34037825259E+03  0.53524198551E+03  0.25850872648E+04  0.27420480869E+04  0.65864270000E+03 0.  0.
    8880022    1    1    2    0    0 -0.34037825259E+03 -0.53524198551E+03 -0.58236416652E+03  0.87457476144E+03  0.15294330000E+03 0.  0.
<mgrwt>
<rscale>  0 0.84042514E+03</rscale>
<asrwt>0</asrwt>
<pdfrwt beam="1">  1        2 0.43225738E+00 0.91441322E+03</pdfrwt>
<pdfrwt beam="2">  1       -2 0.12414613E+00 0.91441322E+03</pdfrwt>
<totfact> 0.11439805E+00</totfact>
</mgrwt>
</event>
<event>
 4    1  0.6502538E-008  0.7061567E+03  0.7818608E-02  0.9972560E-01
          2   -1    0    0  501    0  0.00000000000E+00  0.00000000000E+00  0.21249247081E+04  0.21249247081E+04  0.25500000000E-02 0. -1.
         -2   -1    0    0    0  501 -0.00000000000E+00 -0.00000000000E+00 -0.50207678261E+03  0.50207678261E+03  0.25500000000E-02 0.  1.
    8880023    1    1    2    0    0  0.13279190511E+03 -0.21728627091E+03  0.20149370131E+04  0.21350944678E+04  0.65864270000E+03 0. -1.
    8880022    1    1    2    0    0 -0.13279190511E+03  0.21728627091E+03 -0.39208908756E+03  0.49190702291E+03  0.15294330000E+03 0.  0.
<mgrwt>
<rscale>  0 0.56869991E+03</rscale>
<asrwt>0</asrwt>
<pdfrwt beam="1">  1        2 0.32691149E+00 0.70615665E+03</pdfrwt>
<pdfrwt beam="2">  1       -2 0.77242583E-01 0.70615665E+03</pdfrwt>
<totfact> 0.89012496E+00</totfact>
</mgrwt>
</event>
<event>
 4    1  0.6502538E-008  0.1076354E+04  0.7818608E-02  0.9287851E-01
          2   -1    0    0  501    0  0.00000000000E+00  0.00000000000E+00  0.19791049783E+04  0.19791049783E+04  0.25500000000E-02 0. -1.
         -2   -1    0    0    0  501 -0.00000000000E+00 -0.00000000000E+00 -0.52647336903E+03  0.52647336903E+03  0.25500000000E-02 0.  1.
    8880023    1    1    2    0    0 -0.40553387776E+03 -0.74851233074E+03  0.41221932108E+03  0.11525898708E+04  0.65864270000E+03 0.  1.
    8880022    1    1    2    0    0  0.40553387776E+03  0.74851233074E+03  0.10404122882E+04  0.13529884766E+04  0.15294330000E+03 0. -1.
<mgrwt>
<rscale>  0 0.10190908E+04</rscale>
<asrwt>0</asrwt>
<pdfrwt beam="1">  1        2 0.30447768E+00 0.10763543E+04</pdfrwt>
<pdfrwt beam="2">  1       -2 0.80995905E-01 0.10763543E+04</pdfrwt>
<totfact> 0.91655808E+00</totfact>
</mgrwt>
</event>
<event>
 4    1  0.6502538E-008  0.6788322E+03  0.7818608E-02  0.1009992E+00
          2   -1    0    0  501    0  0.00000000000E+00  0.00000000000E+00  0.86462304490E+03  0.86462304490E+03  0.25500000000E-02 0. -1.
         -2   -1    0    0    0  501 -0.00000000000E+00 -0.00000000000E+00 -0.61490464244E+03  0.61490464245E+03  0.25500000000E-02 0.  1.
    8880023    1    1    2    0    0 -0.28523752636E+02  0.16183119585E+03  0.70080148770E+03  0.97567201038E+03  0.65864270000E+03 0. -1.
    8880022    1    1    2    0    0  0.28523752636E+02 -0.16183119585E+03 -0.45108308524E+03  0.50385567697E+03  0.15294330000E+03 0.  0.
<mgrwt>
<rscale>  0 0.51477781E+03</rscale>
<asrwt>0</asrwt>
<pdfrwt beam="1">  1        2 0.13301893E+00 0.67883219E+03</pdfrwt>
<pdfrwt beam="2">  1       -2 0.94600714E-01 0.67883219E+03</pdfrwt>
<totfact> 0.29816386E+01</totfact>
</mgrwt>
</event>
<event>
 4    1  0.6502538E-008  0.1385718E+04  0.7818608E-02  0.8994860E-01
          2   -1    0    0  501    0  0.00000000000E+00  0.00000000000E+00  0.12982975181E+04  0.12982975181E+04  0.25500000000E-02 0. -1.
         -2   -1    0    0    0  501 -0.00000000000E+00 -0.00000000000E+00 -0.17782659716E+04  0.17782659716E+04  0.25500000000E-02 0.  1.
    8880023    1    1    2    0    0 -0.10951986371E+04  0.53567238668E+03  0.53241908521E+03  0.14844814748E+04  0.65864270000E+03 0.  0.
    8880022    1    1    2    0    0  0.10951986371E+04 -0.53567238668E+03 -0.10123875387E+04  0.15920820149E+04  0.15294330000E+03 0.  0.
<mgrwt>
<rscale>  0 0.13446864E+04</rscale>
<asrwt>0</asrwt>
<pdfrwt beam="1">  1        2 0.19973808E+00 0.13857183E+04</pdfrwt>
<pdfrwt beam="2">  1       -2 0.27357938E+00 0.13857183E+04</pdfrwt>
<totfact> 0.72826507E-01</totfact>
</mgrwt>
</event>
<event>
 4    1  0.6502538E-008  0.1109961E+04  0.7818608E-02  0.9250046E-01
          2   -1    0    0  501    0  0.00000000000E+00  0.00000000000E+00  0.13662331019E+04  0.13662331019E+04  0.25500000000E-02 0. -1.
         -2   -1    0    0    0  501 -0.00000000000E+00 -0.00000000000E+00 -0.11578088327E+04  0.11578088327E+04  0.25500000000E-02 0.  1.
    8880023    1    1    2    0    0 -0.88354004777E+03 -0.13251736307E+03  0.86299811562E+03  0.14059800217E+04  0.65864270000E+03 0.  0.
    8880022    1    1    2    0    0  0.88354004777E+03  0.13251736307E+03 -0.65457384645E+03  0.11180619129E+04  0.15294330000E+03 0.  0.
<mgrwt>
<rscale>  0 0.10551474E+04</rscale>
<asrwt>0</asrwt>
<pdfrwt beam="1">  1        2 0.21018971E+00 0.11099613E+04</pdfrwt>
<pdfrwt beam="2">  1       -2 0.17812444E+00 0.11099613E+04</pdfrwt>
<totfact> 0.27699751E+00</totfact>
</mgrwt>
</event>
<event>
 4    1  0.6502538E-008  0.7204493E+03  0.7818608E-02  0.9921069E-01
         -2   -1    0    0    0  501 -0.00000000000E+00  0.00000000000E+00  0.10183801704E+04  0.10183801704E+04  0.25500000000E-02 0.  1.
          2   -1    0    0  501    0  0.00000000000E+00 -0.00000000000E+00 -0.10142719862E+04  0.10142719862E+04  0.25500000000E-02 0. -1.
    8880023    1    1    2    0    0  0.19578039813E+03  0.21658035741E+03 -0.85171595751E+03  0.11155569434E+04  0.65864270000E+03 0. -1.
    8880022    1    1    2    0    0 -0.19578039813E+03 -0.21658035741E+03  0.85582414173E+03  0.91709521321E+03  0.15294330000E+03 0.  0.
<mgrwt>
<rscale>  0 0.59250993E+03</rscale>
<asrwt>0</asrwt>
<pdfrwt beam="1">  1        2 0.15604184E+00 0.72044932E+03</pdfrwt>
<pdfrwt beam="2">  1       -2 0.15667387E+00 0.72044932E+03</pdfrwt>
<totfact> 0.67291321E+00</totfact>
</mgrwt>
</event>
<event>
 4    1  0.6502538E-008  0.7691769E+03  0.7818608E-02  0.9781904E-01
          2   -1    0    0  501    0  0.00000000000E+00  0.00000000000E+00  0.21897388570E+04  0.21897388570E+04  0.25500000000E-02 0. -1.
         -2   -1    0    0    0  501 -0.00000000000E+00 -0.00000000000E+00 -0.36311395676E+03  0.36311395677E+03  0.25500000000E-02 0.  1.
    8880023    1    1    2    0    0  0.77717457468E+02  0.38959321766E+03  0.19609995534E+04  0.21064549208E+04  0.65864270000E+03 0. -1.
    8880022    1    1    2    0    0 -0.77717457468E+02 -0.38959321766E+03 -0.13437465318E+03  0.44639789300E+03  0.15294330000E+03 0.  0.
<mgrwt>
<rscale>  0 0.66342800E+03</rscale>
<asrwt>0</asrwt>
<pdfrwt beam="1">  1        2 0.33688290E+00 0.76917689E+03</pdfrwt>
<pdfrwt beam="2">  1       -2 0.55863686E-01 0.76917689E+03</pdfrwt>
<totfact> 0.16317655E+01</totfact>
</mgrwt>
</event>
<event>
 4    1  0.6502538E-008  0.6812111E+03  0.7818608E-02  0.1008647E+00
         -2   -1    0    0    0  501 -0.00000000000E+00  0.00000000000E+00  0.23247280345E+03  0.23247280347E+03  0.25500000000E-02 0.  1.
          2   -1    0    0  501    0  0.00000000000E+00 -0.00000000000E+00 -0.23861305047E+04  0.23861305047E+04  0.25500000000E-02 0. -1.
    8880023    1    1    2    0    0 -0.17388270056E+03  0.17919890120E+01 -0.22624214777E+04  0.23627525375E+04  0.65864270000E+03 0. -1.
    8880022    1    1    2    0    0  0.17388270056E+03 -0.17919890120E+01  0.10876377639E+03  0.25585077066E+03  0.15294330000E+03 0.  0.
<mgrwt>
<rscale>  0 0.52016046E+03</rscale>
<asrwt>0</asrwt>
<pdfrwt beam="1">  1        2 0.36709698E+00 0.68121114E+03</pdfrwt>
<pdfrwt beam="2">  1       -2 0.35765048E-01 0.68121114E+03</pdfrwt>
<totfact> 0.31281056E+01</totfact>
</mgrwt>
</event>
<event>
 4    1  0.6502538E-008  0.1241872E+04  0.7818608E-02  0.9117457E-01
         -2   -1    0    0    0  501 -0.00000000000E+00  0.00000000000E+00  0.10630067533E+04  0.10630067533E+04  0.25500000000E-02 0.  1.
          2   -1    0    0  501    0  0.00000000000E+00 -0.00000000000E+00 -0.17763062810E+04  0.17763062810E+04  0.25500000000E-02 0. -1.
    8880023    1    1    2    0    0 -0.56902107393E+03  0.88580475661E+03 -0.11469196651E+04  0.16904644255E+04  0.65864270000E+03 0.  0.
    8880022    1    1    2    0    0  0.56902107393E+03 -0.88580475661E+03  0.43362013735E+03  0.11488486088E+04  0.15294330000E+03 0.  0.
<mgrwt>
<rscale>  0 0.11947582E+04</rscale>
<asrwt>0</asrwt>
<pdfrwt beam="1">  1        2 0.27327789E+00 0.12418717E+04</pdfrwt>
<pdfrwt beam="2">  1       -2 0.16353950E+00 0.12418717E+04</pdfrwt>
<totfact> 0.20407017E+00</totfact>
</mgrwt>
</event>
<event>
 4    1  0.6502538E-008  0.7935054E+03  0.7818608E-02  0.9725019E-01
         -2   -1    0    0    0  501 -0.00000000000E+00  0.00000000000E+00  0.86046136613E+03  0.86046136613E+03  0.25500000000E-02 0.  1.
          2   -1    0    0  501    0  0.00000000000E+00 -0.00000000000E+00 -0.11072948985E+04  0.11072948985E+04  0.25500000000E-02 0. -1.
    8880023    1    1    2    0    0 -0.43420354194E+03  0.85485965520E+02 -0.87698804846E+03  0.11826913416E+04  0.65864270000E+03 0.  0.
    8880022    1    1    2    0    0  0.43420354194E+03 -0.85485965520E+02  0.63015451610E+03  0.78506492299E+03  0.15294330000E+03 0.  0.
<mgrwt>
<rscale>  0 0.69546527E+03</rscale>
<asrwt>0</asrwt>
<pdfrwt beam="1">  1        2 0.17035306E+00 0.79350537E+03</pdfrwt>
<pdfrwt beam="2">  1       -2 0.13237867E+00 0.79350537E+03</pdfrwt>
<totfact> 0.90636128E+00</totfact>
</mgrwt>
</event>
<event>
 4    1  0.6502538E-008  0.7465543E+03  0.7818608E-02  0.9841250E-01
          2   -1    0    0  501    0  0.00000000000E+00  0.00000000000E+00  0.24170903816E+04  0.24170903816E+04  0.25500000000E-02 0. -1.
         -2   -1    0    0    0  501 -0.00000000000E+00 -0.00000000000E+00 -0.12301776361E+04  0.12301776361E+04  0.25500000000E-02 0.  1.
    8880023    1    1    2    0    0 -0.58547698404E+02  0.34656210325E+03  0.23273402101E+04  0.24441472509E+04  0.65864270000E+03 0. -1.
    8880022    1    1    2    0    0  0.58547698404E+02 -0.34656210325E+03 -0.11404274646E+04  0.12031207668E+04  0.15294330000E+03 0.  0.
<mgrwt>
<rscale>  0 0.63195031E+03</rscale>
<asrwt>0</asrwt>
<pdfrwt beam="1">  1        2 0.37186005E+00 0.74655431E+03</pdfrwt>
<pdfrwt beam="2">  1       -2 0.18925810E+00 0.74655431E+03</pdfrwt>
<totfact> 0.64283869E-01</totfact>
</mgrwt>
</event>
<event>
 4    1  0.6502538E-008  0.6714136E+03  0.7818608E-02  0.1014669E+00
          2   -1    0    0  501    0  0.00000000000E+00  0.00000000000E+00  0.17433505223E+04  0.17433505223E+04  0.25500000000E-02 0. -1.
         -2   -1    0    0    0  501 -0.00000000000E+00 -0.00000000000E+00 -0.16832336203E+03  0.16832336205E+03  0.25500000000E-02 0.  1.
    8880023    1    1    2    0    0 -0.13825374766E+01  0.13032319550E+03  0.15734631862E+04  0.17107257674E+04  0.65864270000E+03 0. -1.
    8880022    1    1    2    0    0  0.13825374766E+01 -0.13032319550E+03  0.15639741290E+01  0.20094811700E+03  0.15294330000E+03 0.  0.
<mgrwt>
<rscale>  0 0.49660411E+03</rscale>
<asrwt>0</asrwt>
<pdfrwt beam="1">  1        2 0.26820779E+00 0.67141362E+03</pdfrwt>
<pdfrwt beam="2">  1       -2 0.25895900E-01 0.67141362E+03</pdfrwt>
<totfact> 0.12827372E+02</totfact>
</mgrwt>
</event>
<event>
 4    1  0.6502538E-008  0.1339306E+04  0.7818608E-02  0.9032338E-01
          2   -1    0    0  501    0  0.00000000000E+00  0.00000000000E+00  0.95331472683E+03  0.95331472684E+03  0.25500000000E-02 0. -1.
         -2   -1    0    0    0  501 -0.00000000000E+00 -0.00000000000E+00 -0.22004739490E+04  0.22004739490E+04  0.25500000000E-02 0.  1.
    8880023    1    1    2    0    0  0.18945547906E+03  0.11506686303E+04  0.12665757100E+03  0.13452821347E+04  0.65864270000E+03 0.  0.
    8880022    1    1    2    0    0 -0.18945547906E+03 -0.11506686303E+04 -0.13738167932E+04  0.18085065412E+04  0.15294330000E+03 0.  0.
<mgrwt>
<rscale>  0 0.12965087E+04</rscale>
<asrwt>0</asrwt>
<pdfrwt beam="1">  1        2 0.14666380E+00 0.13393065E+04</pdfrwt>
<pdfrwt beam="2">  1       -2 0.33853445E+00 0.13393065E+04</pdfrwt>
<totfact> 0.47930986E-01</totfact>
</mgrwt>
</event>
<event>
 4    1  0.6502538E-008  0.7951862E+03  0.7818608E-02  0.9721303E-01
          2   -1    0    0  501    0  0.00000000000E+00  0.00000000000E+00  0.13520474843E+04  0.13520474843E+04  0.25500000000E-02 0. -1.
         -2   -1    0    0    0  501 -0.00000000000E+00 -0.00000000000E+00 -0.42448858595E+03  0.42448858596E+03  0.25500000000E-02 0.  1.
    8880023    1    1    2    0    0 -0.40175671471E+03 -0.19261972191E+03  0.10231973961E+04  0.12958603060E+04  0.65864270000E+03 0.  0.
    8880022    1    1    2    0    0  0.40175671471E+03  0.19261972191E+03 -0.95638497718E+02  0.48067576426E+03  0.15294330000E+03 0.  0.
<mgrwt>
<rscale>  0 0.69762474E+03</rscale>
<asrwt>0</asrwt>
<pdfrwt beam="1">  1        2 0.20800731E+00 0.79518616E+03</pdfrwt>
<pdfrwt beam="2">  1       -2 0.65305936E-01 0.79518616E+03</pdfrwt>
<totfact> 0.33854483E+01</totfact>
</mgrwt>
</event>
<event>
 4    1  0.6502538E-008  0.1309718E+04  0.7818608E-02  0.9057213E-01
         -2   -1    0    0    0  501 -0.00000000000E+00  0.00000000000E+00  0.11086720359E+04  0.11086720359E+04  0.25500000000E-02 0.  1.
          2   -1    0    0  501    0  0.00000000000E+00 -0.00000000000E+00 -0.19003785409E+04  0.19003785409E+04  0.25500000000E-02 0. -1.
    8880023    1    1    2    0    0  0.75903425845E+03  0.83989215100E+03 -0.12191801081E+04  0.17893468566E+04  0.65864270000E+03 0.  0.
    8880022    1    1    2    0    0 -0.75903425845E+03 -0.83989215100E+03  0.42747360316E+03  0.12197037203E+04  0.15294330000E+03 0.  0.
<mgrwt>
<rscale>  0 0.12657047E+04</rscale>
<asrwt>0</asrwt>
<pdfrwt beam="1">  1        2 0.29236593E+00 0.13097183E+04</pdfrwt>
<pdfrwt beam="2">  1       -2 0.17056493E+00 0.13097183E+04</pdfrwt>
<totfact> 0.15385366E+00</totfact>
</mgrwt>
</event>
<event>
 4    1  0.6502538E-008  0.1024540E+04  0.7818608E-02  0.9350133E-01
          2   -1    0    0  501    0  0.00000000000E+00  0.00000000000E+00  0.80327492161E+03  0.80327492162E+03  0.25500000000E-02 0. -1.
         -2   -1    0    0    0  501 -0.00000000000E+00 -0.00000000000E+00 -0.13595096473E+04  0.13595096473E+04  0.25500000000E-02 0.  1.
    8880023    1    1    2    0    0 -0.53157647867E+03 -0.57732025326E+03  0.22058173127E+03  0.10480165714E+04  0.65864270000E+03 0.  0.
    8880022    1    1    2    0    0  0.53157647867E+03  0.57732025326E+03 -0.77681645700E+03  0.11147679976E+04  0.15294330000E+03 0.  0.
<mgrwt>
<rscale>  0 0.96295667E+03</rscale>
<asrwt>0</asrwt>
<pdfrwt beam="1">  1        2 0.12358076E+00 0.10245401E+04</pdfrwt>
<pdfrwt beam="2">  1       -2 0.20915533E+00 0.10245401E+04</pdfrwt>
<totfact> 0.39364645E+00</totfact>
</mgrwt>
</event>
<event>
 4    1  0.6502538E-008  0.8414950E+03  0.7818608E-02  0.9627368E-01
          2   -1    0    0  501    0  0.00000000000E+00  0.00000000000E+00  0.15524088941E+04  0.15524088941E+04  0.25500000000E-02 0. -1.
         -2   -1    0    0    0  501 -0.00000000000E+00 -0.00000000000E+00 -0.82002738054E+03  0.82002738054E+03  0.25500000000E-02 0.  1.
    8880023    1    1    2    0    0  0.19167781604E+03 -0.48740454665E+03  0.13232698981E+04  0.15681699547E+04  0.65864270000E+03 0. -1.
    8880022    1    1    2    0    0 -0.19167781604E+03  0.48740454665E+03 -0.59088838460E+03  0.80426631990E+03  0.15294330000E+03 0.  0.
<mgrwt>
<rscale>  0 0.75510984E+03</rscale>
<asrwt>0</asrwt>
<pdfrwt beam="1">  1        2 0.23883214E+00 0.84149497E+03</pdfrwt>
<pdfrwt beam="2">  1       -2 0.12615806E+00 0.84149497E+03</pdfrwt>
<totfact> 0.56294076E+00</totfact>
</mgrwt>
</event>
<event>
 4    1  0.6502538E-008  0.8797426E+03  0.7818608E-02  0.9559366E-01
          2   -1    0    0  501    0  0.00000000000E+00  0.00000000000E+00  0.27810220943E+04  0.27810220943E+04  0.25500000000E-02 0. -1.
         -2   -1    0    0    0  501 -0.00000000000E+00 -0.00000000000E+00 -0.31231274524E+03  0.31231274525E+03  0.25500000000E-02 0.  1.
    8880023    1    1    2    0    0 -0.44574254120E+03  0.37609893621E+03  0.23070666178E+04  0.24691098413E+04  0.65864270000E+03 0.  0.
    8880022    1    1    2    0    0  0.44574254120E+03 -0.37609893621E+03  0.16164273118E+03  0.62422499823E+03  0.15294330000E+03 0.  0.
<mgrwt>
<rscale>  0 0.80044965E+03</rscale>
<asrwt>0</asrwt>
<pdfrwt beam="1">  1        2 0.42784955E+00 0.87974259E+03</pdfrwt>
<pdfrwt beam="2">  1       -2 0.48048115E-01 0.87974259E+03</pdfrwt>
<totfact> 0.10083288E+01</totfact>
</mgrwt>
</event>
<event>
 4    1  0.6502538E-008  0.1470011E+04  0.7818608E-02  0.8931107E-01
         -2   -1    0    0    0  501 -0.00000000000E+00  0.00000000000E+00  0.26972121738E+04  0.26972121738E+04  0.25500000000E-02 0.  1.
          2   -1    0    0  501    0  0.00000000000E+00 -0.00000000000E+00 -0.10153002702E+04  0.10153002702E+04  0.25500000000E-02 0. -1.
    8880023    1    1    2    0    0  0.32161710449E+03  0.12742392268E+04 -0.12239134942E+03  0.14750976299E+04  0.65864270000E+03 0.  0.
    8880022    1    1    2    0    0 -0.32161710449E+03 -0.12742392268E+04  0.18043032530E+04  0.22374148142E+04  0.15294330000E+03 0.  0.
<mgrwt>
<rscale>  0 0.14318128E+04</rscale>
<asrwt>0</asrwt>
<pdfrwt beam="1">  1        2 0.15620004E+00 0.14700114E+04</pdfrwt>
<pdfrwt beam="2">  1       -2 0.41495572E+00 0.14700114E+04</pdfrwt>
<totfact> 0.13885815E-01</totfact>
</mgrwt>
</event>
<event>
 4    1  0.6816286E-008  0.1200386E+04  0.7818608E-02  0.9156747E-01
         -2   -1    0    0    0  501 -0.00000000000E+00  0.00000000000E+00  0.17436377698E+04  0.17436377698E+04  0.25500000000E-02 0.  1.
          2   -1    0    0  501    0  0.00000000000E+00 -0.00000000000E+00 -0.19063965839E+04  0.19063965839E+04  0.25500000000E-02 0. -1.
    8880023    1    1    2    0    0  0.96376628455E+03 -0.27976997507E+03 -0.15315382667E+04  0.19459024535E+04  0.65864270000E+03 0.  0.
    8880022    1    1    2    0    0 -0.96376628455E+03  0.27976997507E+03  0.13687794526E+04  0.17041319001E+04  0.15294330000E+03 0.  0.
<mgrwt>
<rscale>  0 0.11511242E+04</rscale>
<asrwt>0</asrwt>
<pdfrwt beam="1">  1        2 0.29329178E+00 0.12003861E+04</pdfrwt>
<pdfrwt beam="2">  1       -2 0.26825196E+00 0.12003861E+04</pdfrwt>
<totfact> 0.36428045E-01</totfact>
</mgrwt>
</event>
<event>
 4    1  0.6502538E-008  0.7138142E+03  0.7818608E-02  0.9944101E-01
          2   -1    0    0  501    0  0.00000000000E+00  0.00000000000E+00  0.11258247051E+04  0.11258247051E+04  0.25500000000E-02 0. -1.
         -2   -1    0    0    0  501 -0.00000000000E+00 -0.00000000000E+00 -0.44845283129E+03  0.44845283130E+03  0.25500000000E-02 0.  1.
    8880023    1    1    2    0    0  0.14189709977E+03  0.23576609933E+03  0.92877766783E+03  0.11713917377E+04  0.65864270000E+03 0. -1.
    8880022    1    1    2    0    0 -0.14189709977E+03 -0.23576609933E+03 -0.25140579405E+03  0.40288579873E+03  0.15294330000E+03 0.  0.
<mgrwt>
<rscale>  0 0.58170755E+03</rscale>
<asrwt>0</asrwt>
<pdfrwt beam="1">  1        2 0.17320380E+00 0.71381415E+03</pdfrwt>
<pdfrwt beam="2">  1       -2 0.68992744E-01 0.71381415E+03</pdfrwt>
<totfact> 0.41138608E+01</totfact>
</mgrwt>
</event>
<event>
 4    1  0.6502538E-008  0.8333670E+03  0.7818608E-02  0.9642816E-01
          2   -1    0    0  501    0  0.00000000000E+00  0.00000000000E+00  0.12762750086E+04  0.12762750086E+04  0.25500000000E-02 0. -1.
         -2   -1    0    0    0  501 -0.00000000000E+00 -0.00000000000E+00 -0.13416208892E+04  0.13416208892E+04  0.25500000000E-02 0.  1.
    8880023    1    1    2    0    0 -0.50899706549E+03  0.40154759008E+02  0.10743780111E+04  0.13597017078E+04  0.65864270000E+03 0. -1.
    8880022    1    1    2    0    0  0.50899706549E+03 -0.40154759008E+02 -0.11397238917E+04  0.12581941900E+04  0.15294330000E+03 0.  0.
<mgrwt>
<rscale>  0 0.74525984E+03</rscale>
<asrwt>0</asrwt>
<pdfrwt beam="1">  1        2 0.19635000E+00 0.83336704E+03</pdfrwt>
<pdfrwt beam="2">  1       -2 0.20640321E+00 0.83336704E+03</pdfrwt>
<totfact> 0.20944278E+00</totfact>
</mgrwt>
</event>
<event>
 4    1  0.6502538E-008  0.6788832E+03  0.7818608E-02  0.1009963E+00
         -2   -1    0    0    0  501 -0.00000000000E+00  0.00000000000E+00  0.18926960730E+04  0.18926960730E+04  0.25500000000E-02 0.  1.
          2   -1    0    0  501    0  0.00000000000E+00 -0.00000000000E+00 -0.63488503624E+03  0.63488503624E+03  0.25500000000E-02 0. -1.
    8880023    1    1    2    0    0  0.10632336870E+03  0.12556873219E+03 -0.44388580048E+03  0.81112081429E+03  0.65864270000E+03 0. -1.
    8880022    1    1    2    0    0 -0.10632336870E+03 -0.12556873219E+03  0.17016968373E+04  0.17164602950E+04  0.15294330000E+03 0.  0.
<mgrwt>
<rscale>  0 0.51489515E+03</rscale>
<asrwt>0</asrwt>
<pdfrwt beam="1">  1        2 0.97674619E-01 0.67888318E+03</pdfrwt>
<pdfrwt beam="2">  1       -2 0.29118402E+00 0.67888318E+03</pdfrwt>
<totfact> 0.17542908E+00</totfact>
</mgrwt>
</event>
<event>
 4    1  0.6502538E-008  0.1389186E+04  0.7818608E-02  0.8992131E-01
         -2   -1    0    0    0  501 -0.00000000000E+00  0.00000000000E+00  0.16722420748E+04  0.16722420748E+04  0.25500000000E-02 0.  1.
          2   -1    0    0  501    0  0.00000000000E+00 -0.00000000000E+00 -0.13738564601E+04  0.13738564601E+04  0.25500000000E-02 0. -1.
    8880023    1    1    2    0    0 -0.54873647687E+03 -0.10931220119E+04 -0.60766784615E+03  0.15162776366E+04  0.65864270000E+03 0.  0.
    8880022    1    1    2    0    0  0.54873647687E+03  0.10931220119E+04  0.90605346080E+03  0.15298208982E+04  0.15294330000E+03 0.  0.
<mgrwt>
<rscale>  0 0.13482797E+04</rscale>
<asrwt>0</asrwt>
<pdfrwt beam="1">  1        2 0.21136253E+00 0.13891860E+04</pdfrwt>
<pdfrwt beam="2">  1       -2 0.25726801E+00 0.13891860E+04</pdfrwt>
<totfact> 0.82704757E-01</totfact>
</mgrwt>
</event>
<event>
 4    1  0.6502538E-008  0.9368632E+03  0.7818608E-02  0.9469272E-01
         -2   -1    0    0    0  501 -0.00000000000E+00  0.00000000000E+00  0.68510560350E+03  0.68510560351E+03  0.25500000000E-02 0.  1.
          2   -1    0    0  501    0  0.00000000000E+00 -0.00000000000E+00 -0.33805225101E+04  0.33805225101E+04  0.25500000000E-02 0. -1.
    8880023    1    1    2    0    0  0.62038804502E+03  0.24294263431E+03 -0.31222135223E+04  0.32597438451E+04  0.65864270000E+03 0. -1.
    8880022    1    1    2    0    0 -0.62038804502E+03 -0.24294263431E+03  0.42679661579E+03  0.80588426851E+03  0.15294330000E+03 0.  0.
<mgrwt>
<rscale>  0 0.86587644E+03</rscale>
<asrwt>0</asrwt>
<pdfrwt beam="1">  1        2 0.52008038E+00 0.93686320E+03</pdfrwt>
<pdfrwt beam="2">  1       -2 0.10540086E+00 0.93686320E+03</pdfrwt>
<totfact> 0.74566045E-01</totfact>
</mgrwt>
</event>
<event>
 4    1  0.6502538E-008  0.6648957E+03  0.7818608E-02  0.1019621E+00
          2   -1    0    0  501    0  0.00000000000E+00  0.00000000000E+00  0.32015396032E+04  0.32015396032E+04  0.25500000000E-02 0. -1.
         -2   -1    0    0    0  501 -0.00000000000E+00 -0.00000000000E+00 -0.19138992122E+03  0.19138992123E+03  0.25500000000E-02 0.  1.
    8880023    1    1    2    0    0 -0.81320942729E+02 -0.40779609345E+02  0.31158155900E+04  0.31859681526E+04  0.65864270000E+03 0. -1.
    8880022    1    1    2    0    0  0.81320942729E+02  0.40779609345E+02 -0.10566590807E+03  0.20696137178E+03  0.15294330000E+03 0.  0.
<mgrwt>
<rscale>  0 0.47823598E+03</rscale>
<asrwt>0</asrwt>
<pdfrwt beam="1">  1        2 0.49254454E+00 0.66489569E+03</pdfrwt>
<pdfrwt beam="2">  1       -2 0.29444604E-01 0.66489569E+03</pdfrwt>
<totfact> 0.14894288E+01</totfact>
</mgrwt>
</event>
<event>
 4    1  0.6502538E-008  0.1192197E+04  0.7818608E-02  0.9164745E-01
          2   -1    0    0  501    0  0.00000000000E+00  0.00000000000E+00  0.14290690528E+04  0.14290690528E+04  0.25500000000E-02 0. -1.
         -2   -1    0    0    0  501 -0.00000000000E+00 -0.00000000000E+00 -0.16984242067E+04  0.16984242067E+04  0.25500000000E-02 0.  1.
    8880023    1    1    2    0    0 -0.95600739646E+03  0.27124249752E+03  0.96618316329E+03  0.15345496883E+04  0.65864270000E+03 0. -1.
    8880022    1    1    2    0    0  0.95600739646E+03 -0.27124249752E+03 -0.12355383172E+04  0.15929435711E+04  0.15294330000E+03 0.  0.
<mgrwt>
<rscale>  0 0.11424842E+04</rscale>
<asrwt>0</asrwt>
<pdfrwt beam="1">  1        2 0.21985678E+00 0.11921966E+04</pdfrwt>
<pdfrwt beam="2">  1       -2 0.26129603E+00 0.11921966E+04</pdfrwt>
<totfact> 0.74274581E-01</totfact>
</mgrwt>
</event>
<event>
 4    1  0.6502538E-008  0.2110771E+04  0.7818608E-02  0.8567691E-01
         -2   -1    0    0    0  501 -0.00000000000E+00  0.00000000000E+00  0.22133334065E+04  0.22133334065E+04  0.25500000000E-02 0.  1.
          2   -1    0    0  501    0  0.00000000000E+00 -0.00000000000E+00 -0.20168437311E+04  0.20168437311E+04  0.25500000000E-02 0. -1.
    8880023    1    1    2    0    0  0.19909835001E+04 -0.23985359206E+03 -0.36492947932E+03  0.21420851464E+04  0.65864270000E+03 0. -1.
    8880022    1    1    2    0    0 -0.19909835001E+04  0.23985359206E+03  0.56141915476E+03  0.20880919912E+04  0.15294330000E+03 0.  0.
<mgrwt>
<rscale>  0 0.20854263E+04</rscale>
<asrwt>0</asrwt>
<pdfrwt beam="1">  1        2 0.31028365E+00 0.21107712E+04</pdfrwt>
<pdfrwt beam="2">  1       -2 0.34051283E+00 0.21107712E+04</pdfrwt>
<totfact> 0.10267919E-01</totfact>
</mgrwt>
</event>
<event>
 4    1  0.6502538E-008  0.6672459E+03  0.7818608E-02  0.1017719E+00
         -2   -1    0    0    0  501 -0.00000000000E+00  0.00000000000E+00  0.16173979383E+04  0.16173979383E+04  0.25500000000E-02 0.  1.
          2   -1    0    0  501    0  0.00000000000E+00 -0.00000000000E+00 -0.12478624798E+04  0.12478624798E+04  0.25500000000E-02 0. -1.
    8880023    1    1    2    0    0  0.99611284516E+02  0.38528078352E+02 -0.11525634252E+04  0.13317730573E+04  0.65864270000E+03 0. -1.
    8880022    1    1    2    0    0 -0.99611284516E+02 -0.38528078352E+02  0.15220988837E+04  0.15334873608E+04  0.15294330000E+03 0.  0.
<mgrwt>
<rscale>  0 0.48518731E+03</rscale>
<asrwt>0</asrwt>
<pdfrwt beam="1">  1        2 0.19197884E+00 0.66724585E+03</pdfrwt>
<pdfrwt beam="2">  1       -2 0.24883045E+00 0.66724585E+03</pdfrwt>
<totfact> 0.12223031E+00</totfact>
</mgrwt>
</event>
<event>
 4    1  0.6502538E-008  0.8036897E+03  0.7818608E-02  0.9702874E-01
         -2   -1    0    0    0  501 -0.00000000000E+00  0.00000000000E+00  0.11193948199E+04  0.11193948199E+04  0.25500000000E-02 0.  1.
          2   -1    0    0  501    0  0.00000000000E+00 -0.00000000000E+00 -0.88509374959E+03  0.88509374960E+03  0.25500000000E-02 0. -1.
    8880023    1    1    2    0    0  0.27450570161E+03  0.36980203359E+03 -0.62467617518E+03  0.10179083723E+04  0.65864270000E+03 0. -1.
    8880022    1    1    2    0    0 -0.27450570161E+03 -0.36980203359E+03  0.85897724546E+03  0.98658019720E+03  0.15294330000E+03 0.  0.
<mgrwt>
<rscale>  0 0.70845919E+03</rscale>
<asrwt>0</asrwt>
<pdfrwt beam="1">  1        2 0.13616827E+00 0.80368970E+03</pdfrwt>
<pdfrwt beam="2">  1       -2 0.17221459E+00 0.80368970E+03</pdfrwt>
<totfact> 0.62461871E+00</totfact>
</mgrwt>
</event>
<event>
 4    1  0.6502538E-008  0.1236220E+04  0.7818608E-02  0.9122694E-01
          2   -1    0    0  501    0  0.00000000000E+00  0.00000000000E+00  0.16138516700E+04  0.16138516700E+04  0.25500000000E-02 0. -1.
         -2   -1    0    0    0  501 -0.00000000000E+00 -0.00000000000E+00 -0.94633127770E+03  0.94633127771E+03  0.25500000000E-02 0.  1.
    8880023    1    1    2    0    0  0.54167791194E+03  0.89499384459E+03  0.83210275670E+03  0.14901792329E+04  0.65864270000E+03 0.  0.
    8880022    1    1    2    0    0 -0.54167791194E+03 -0.89499384459E+03 -0.16458236437E+03  0.10700037149E+04  0.15294330000E+03 0.  0.
<mgrwt>
<rscale>  0 0.11888259E+04</rscale>
<asrwt>0</asrwt>
<pdfrwt beam="1">  1        2 0.24828487E+00 0.12362197E+04</pdfrwt>
<pdfrwt beam="2">  1       -2 0.14558943E+00 0.12362197E+04</pdfrwt>
<totfact> 0.34412585E+00</totfact>
</mgrwt>
</event>
<event>
 4    1  0.6502538E-008  0.1037689E+04  0.7818608E-02  0.9333830E-01
         -2   -1    0    0    0  501 -0.00000000000E+00  0.00000000000E+00  0.27657803298E+04  0.27657803298E+04  0.25500000000E-02 0.  1.
          2   -1    0    0  501    0  0.00000000000E+00 -0.00000000000E+00 -0.17449649713E+04  0.17449649713E+04  0.25500000000E-02 0. -1.
    8880023    1    1    2    0    0  0.67326584400E+02  0.79903370159E+03 -0.15208890116E+04  0.18411684652E+04  0.65864270000E+03 0. -1.
    8880022    1    1    2    0    0 -0.67326584400E+02 -0.79903370159E+03  0.25417043701E+04  0.26695768359E+04  0.15294330000E+03 0.  0.
<mgrwt>
<rscale>  0 0.97727215E+03</rscale>
<asrwt>0</asrwt>
<pdfrwt beam="1">  1        2 0.26845615E+00 0.10376887E+04</pdfrwt>
<pdfrwt beam="2">  1       -2 0.42550466E+00 0.10376887E+04</pdfrwt>
<totfact> 0.47323107E-02</totfact>
</mgrwt>
</event>
<event>
 4    1  0.6502538E-008  0.7741063E+03  0.7818608E-02  0.9769868E-01
         -2   -1    0    0    0  501 -0.00000000000E+00  0.00000000000E+00  0.47701867753E+03  0.47701867754E+03  0.25500000000E-02 0.  1.
          2   -1    0    0  501    0  0.00000000000E+00 -0.00000000000E+00 -0.16993830415E+04  0.16993830415E+04  0.25500000000E-02 0. -1.
    8880023    1    1    2    0    0 -0.24603787284E+03 -0.32387620022E+03 -0.14807220896E+04  0.16708616163E+04  0.65864270000E+03 0. -1.
    8880022    1    1    2    0    0  0.24603787284E+03  0.32387620022E+03  0.25835772572E+03  0.50554010265E+03  0.15294330000E+03 0.  0.
<mgrwt>
<rscale>  0 0.67004978E+03</rscale>
<asrwt>0</asrwt>
<pdfrwt beam="1">  1        2 0.26144354E+00 0.77410635E+03</pdfrwt>
<pdfrwt beam="2">  1       -2 0.73387490E-01 0.77410635E+03</pdfrwt>
<totfact> 0.16852737E+01</totfact>
</mgrwt>
</event>
<event>
 4    1  0.6502538E-008  0.8529392E+03  0.7818608E-02  0.9606249E-01
         -2   -1    0    0    0  501 -0.00000000000E+00  0.00000000000E+00  0.22705346983E+03  0.22705346984E+03  0.25500000000E-02 0.  1.
          2   -1    0    0  501    0  0.00000000000E+00 -0.00000000000E+00 -0.47467702027E+04  0.47467702027E+04  0.25500000000E-02 0. -1.
    8880023    1    1    2    0    0  0.25776851433E+03 -0.47670801099E+03 -0.42760026678E+04  0.43602412956E+04  0.65864270000E+03 0. -1.
    8880022    1    1    2    0    0 -0.25776851433E+03  0.47670801099E+03 -0.24371406506E+03  0.61358237691E+03  0.15294330000E+03 0.  0.
<mgrwt>
<rscale>  0 0.76883977E+03</rscale>
<asrwt>0</asrwt>
<pdfrwt beam="1">  1        2 0.73027227E+00 0.85293924E+03</pdfrwt>
<pdfrwt beam="2">  1       -2 0.34931307E-01 0.85293924E+03</pdfrwt>
<totfact> 0.59072385E-01</totfact>
</mgrwt>
</event>
<event>
 4    1  0.6502538E-008  0.8239873E+03  0.7818608E-02  0.9661146E-01
         -2   -1    0    0    0  501 -0.00000000000E+00  0.00000000000E+00  0.93068845866E+03  0.93068845866E+03  0.25500000000E-02 0.  1.
          2   -1    0    0  501    0  0.00000000000E+00 -0.00000000000E+00 -0.13494850677E+04  0.13494850677E+04  0.25500000000E-02 0. -1.
    8880023    1    1    2    0    0 -0.10388348634E+03  0.48410034218E+03 -0.11310422403E+04  0.13993611670E+04  0.65864270000E+03 0. -1.
    8880022    1    1    2    0    0  0.10388348634E+03 -0.48410034218E+03  0.71224563131E+03  0.88081235934E+03  0.15294330000E+03 0.  0.
<mgrwt>
<rscale>  0 0.73377994E+03</rscale>
<asrwt>0</asrwt>
<pdfrwt beam="1">  1        2 0.20761309E+00 0.82398733E+03</pdfrwt>
<pdfrwt beam="2">  1       -2 0.14318284E+00 0.82398733E+03</pdfrwt>
<totfact> 0.53084458E+00</totfact>
</mgrwt>
</event>
<event>
 4    1  0.6502538E-008  0.9213692E+03  0.7818608E-02  0.9492563E-01
          2   -1    0    0  501    0  0.00000000000E+00  0.00000000000E+00  0.39722478111E+04  0.39722478111E+04  0.25500000000E-02 0. -1.
         -2   -1    0    0    0  501 -0.00000000000E+00 -0.00000000000E+00 -0.19373914015E+03  0.19373914016E+03  0.25500000000E-02 0.  1.
    8880023    1    1    2    0    0 -0.26156789078E+03  0.58880655014E+03  0.30281381332E+04  0.31652079987E+04  0.65864270000E+03 0.  0.
    8880022    1    1    2    0    0  0.26156789078E+03 -0.58880655014E+03  0.75037053777E+03  0.10007789526E+04  0.15294330000E+03 0.  0.
<mgrwt>
<rscale>  0 0.84834356E+03</rscale>
<asrwt>0</asrwt>
<pdfrwt beam="1">  1        2 0.61111501E+00 0.92136916E+03</pdfrwt>
<pdfrwt beam="2">  1       -2 0.29806023E-01 0.92136916E+03</pdfrwt>
<totfact> 0.39893006E+00</totfact>
</mgrwt>
</event>
<event>
 4    1  0.6502538E-008  0.6673152E+03  0.7818608E-02  0.1017665E+00
          2   -1    0    0  501    0  0.00000000000E+00  0.00000000000E+00  0.95913134160E+03  0.95913134160E+03  0.25500000000E-02 0. -1.
         -2   -1    0    0    0  501 -0.00000000000E+00 -0.00000000000E+00 -0.12299020515E+04  0.12299020515E+04  0.25500000000E-02 0.  1.
    8880023    1    1    2    0    0  0.59675021291E-01 -0.10723514909E+03  0.83426588324E+03  0.10683207154E+04  0.65864270000E+03 0. -1.
    8880022    1    1    2    0    0 -0.59675021291E-01  0.10723514909E+03 -0.11050365931E+04  0.11207126777E+04  0.15294330000E+03 0.  0.
<mgrwt>
<rscale>  0 0.48538628E+03</rscale>
<asrwt>0</asrwt>
<pdfrwt beam="1">  1        2 0.14755867E+00 0.66731521E+03</pdfrwt>
<pdfrwt beam="2">  1       -2 0.18921570E+00 0.66731521E+03</pdfrwt>
<totfact> 0.43471533E+00</totfact>
</mgrwt>
</event>
<event>
 4    1  0.6502538E-008  0.1171455E+04  0.7818608E-02  0.9185382E-01
          2   -1    0    0  501    0  0.00000000000E+00  0.00000000000E+00  0.18106137467E+04  0.18106137467E+04  0.25500000000E-02 0. -1.
         -2   -1    0    0    0  501 -0.00000000000E+00 -0.00000000000E+00 -0.88289166448E+03  0.88289166449E+03  0.25500000000E-02 0.  1.
    8880023    1    1    2    0    0 -0.64946826467E+03 -0.71880933616E+03  0.11986359711E+04  0.16760173883E+04  0.65864270000E+03 0. -1.
    8880022    1    1    2    0    0  0.64946826467E+03  0.71880933616E+03 -0.27091388882E+03  0.10174880229E+04  0.15294330000E+03 0.  0.
<mgrwt>
<rscale>  0 0.11205588E+04</rscale>
<asrwt>0</asrwt>
<pdfrwt beam="1">  1        2 0.27855596E+00 0.11714547E+04</pdfrwt>
<pdfrwt beam="2">  1       -2 0.13582949E+00 0.11714547E+04</pdfrwt>
<totfact> 0.32286976E+00</totfact>
</mgrwt>
</event>
<event>
 4    1  0.6502538E-008  0.9990602E+03  0.7818608E-02  0.9382788E-01
         -2   -1    0    0    0  501 -0.00000000000E+00  0.00000000000E+00  0.38305643166E+03  0.38305643167E+03  0.25500000000E-02 0.  1.
          2   -1    0    0  501    0  0.00000000000E+00 -0.00000000000E+00 -0.24842486086E+04  0.24842486086E+04  0.25500000000E-02 0. -1.
    8880023    1    1    2    0    0 -0.13754066900E+03 -0.73850773511E+03 -0.17693970020E+04  0.20319663056E+04  0.65864270000E+03 0.  0.
    8880022    1    1    2    0    0  0.13754066900E+03  0.73850773511E+03 -0.33179517501E+03  0.83533873465E+03  0.15294330000E+03 0.  0.
<mgrwt>
<rscale>  0 0.93505782E+03</rscale>
<asrwt>0</asrwt>
<pdfrwt beam="1">  1        2 0.38219208E+00 0.99906022E+03</pdfrwt>
<pdfrwt beam="2">  1       -2 0.58931760E-01 0.99906022E+03</pdfrwt>
<totfact> 0.96750095E+00</totfact>
</mgrwt>
</event>
<event>
 4    1  0.6502538E-008  0.7894307E+03  0.7818608E-02  0.9734133E-01
         -2   -1    0    0    0  501 -0.00000000000E+00  0.00000000000E+00  0.12711907146E+04  0.12711907146E+04  0.25500000000E-02 0.  1.
          2   -1    0    0  501    0  0.00000000000E+00 -0.00000000000E+00 -0.14315099819E+04  0.14315099819E+04  0.25500000000E-02 0. -1.
    8880023    1    1    2    0    0  0.41429531571E+03  0.13322947476E+03 -0.12731599358E+04  0.14980444352E+04  0.65864270000E+03 0.  0.
    8880022    1    1    2    0    0 -0.41429531571E+03 -0.13322947476E+03  0.11128406684E+04  0.12046562613E+04  0.15294330000E+03 0.  0.
<mgrwt>
<rscale>  0 0.69020401E+03</rscale>
<asrwt>0</asrwt>
<pdfrwt beam="1">  1        2 0.22023231E+00 0.78943075E+03</pdfrwt>
<pdfrwt beam="2">  1       -2 0.19556780E+00 0.78943075E+03</pdfrwt>
<totfact> 0.20217687E+00</totfact>
</mgrwt>
</event>
<event>
 4    1  0.6502538E-008  0.9722252E+03  0.7818608E-02  0.9418833E-01
          2   -1    0    0  501    0  0.00000000000E+00  0.00000000000E+00  0.10053579601E+04  0.10053579601E+04  0.25500000000E-02 0. -1.
         -2   -1    0    0    0  501 -0.00000000000E+00 -0.00000000000E+00 -0.10394618446E+04  0.10394618446E+04  0.25500000000E-02 0.  1.
    8880023    1    1    2    0    0 -0.66978959635E+03 -0.25058618071E+03  0.54268323580E+03  0.11134302125E+04  0.65864270000E+03 0.  0.
    8880022    1    1    2    0    0  0.66978959635E+03  0.25058618071E+03 -0.57678712029E+03  0.93138959222E+03  0.15294330000E+03 0.  0.
<mgrwt>
<rscale>  0 0.90541855E+03</rscale>
<asrwt>0</asrwt>
<pdfrwt beam="1">  1        2 0.15467046E+00 0.97222515E+03</pdfrwt>
<pdfrwt beam="2">  1       -2 0.15991721E+00 0.97222515E+03</pdfrwt>
<totfact> 0.62648849E+00</totfact>
</mgrwt>
</event>
<event>
 4    1  0.6502538E-008  0.6767094E+03  0.7818608E-02  0.1011250E+00
         -2   -1    0    0    0  501 -0.00000000000E+00  0.00000000000E+00  0.37930314069E+03  0.37930314070E+03  0.25500000000E-02 0.  1.
          2   -1    0    0  501    0  0.00000000000E+00 -0.00000000000E+00 -0.18978856805E+04  0.18978856805E+04  0.25500000000E-02 0. -1.
    8880023    1    1    2    0    0  0.15521539694E+03  0.57934334184E+01 -0.17989685350E+04  0.19220362586E+04  0.65864270000E+03 0. -1.
    8880022    1    1    2    0    0 -0.15521539694E+03 -0.57934334184E+01  0.28038599524E+03  0.35515256252E+03  0.15294330000E+03 0.  0.
<mgrwt>
<rscale>  0 0.50980937E+03</rscale>
<asrwt>0</asrwt>
<pdfrwt beam="1">  1        2 0.29198241E+00 0.67670938E+03</pdfrwt>
<pdfrwt beam="2">  1       -2 0.58354330E-01 0.67670938E+03</pdfrwt>
<totfact> 0.21797763E+01</totfact>
</mgrwt>
</event>
<event>
 4    1  0.6502538E-008  0.9627655E+03  0.7818608E-02  0.9431980E-01
          2   -1    0    0  501    0  0.00000000000E+00  0.00000000000E+00  0.15985278284E+04  0.15985278284E+04  0.25500000000E-02 0. -1.
         -2   -1    0    0    0  501 -0.00000000000E+00 -0.00000000000E+00 -0.62550374864E+03  0.62550374864E+03  0.25500000000E-02 0.  1.
    8880023    1    1    2    0    0 -0.62584486599E+03  0.31847365824E+03  0.11339716543E+04  0.14875514063E+04  0.65864270000E+03 0. -1.
    8880022    1    1    2    0    0  0.62584486599E+03 -0.31847365824E+03 -0.16094757448E+03  0.73648017083E+03  0.15294330000E+03 0.  0.
<mgrwt>
<rscale>  0 0.89489911E+03</rscale>
<asrwt>0</asrwt>
<pdfrwt beam="1">  1        2 0.24592736E+00 0.96276553E+03</pdfrwt>
<pdfrwt beam="2">  1       -2 0.96231346E-01 0.96276553E+03</pdfrwt>
<totfact> 0.10108039E+01</totfact>
</mgrwt>
</event>
<event>
 4    1  0.6502538E-008  0.1224975E+04  0.7818608E-02  0.9133219E-01
          2   -1    0    0  501    0  0.00000000000E+00  0.00000000000E+00  0.19956599566E+04  0.19956599566E+04  0.25500000000E-02 0. -1.
         -2   -1    0    0    0  501 -0.00000000000E+00 -0.00000000000E+00 -0.13497024210E+04  0.13497024210E+04  0.25500000000E-02 0.  1.
    8880023    1    1    2    0    0 -0.10233884171E+04 -0.13939363801E+03  0.15420961250E+04  0.19694225305E+04  0.65864270000E+03 0.  0.
    8880022    1    1    2    0    0  0.10233884171E+04  0.13939363801E+03 -0.89613858943E+03  0.13759398472E+04  0.15294330000E+03 0.  0.
<mgrwt>
<rscale>  0 0.11770126E+04</rscale>
<asrwt>0</asrwt>
<pdfrwt beam="1">  1        2 0.30702461E+00 0.12249754E+04</pdfrwt>
<pdfrwt beam="2">  1       -2 0.20764653E+00 0.12249754E+04</pdfrwt>
<totfact> 0.77144917E-01</totfact>
</mgrwt>
</event>
<event>
 4    1  0.6502538E-008  0.9853345E+03  0.7818608E-02  0.9401001E-01
          2   -1    0    0  501    0  0.00000000000E+00  0.00000000000E+00  0.24850844878E+04  0.24850844878E+04  0.25500000000E-02 0. -1.
         -2   -1    0    0    0  501 -0.00000000000E+00 -0.00000000000E+00 -0.33947512729E+03  0.33947512730E+03  0.25500000000E-02 0.  1.
    8880023    1    1    2    0    0 -0.72732330295E+03 -0.89859649526E+02  0.16656632278E+04  0.19352824440E+04  0.65864270000E+03 0.  0.
    8880022    1    1    2    0    0  0.72732330295E+03  0.89859649526E+02  0.47994613278E+03  0.88927717109E+03  0.15294330000E+03 0.  0.
<mgrwt>
<rscale>  0 0.91993343E+03</rscale>
<asrwt>0</asrwt>
<pdfrwt beam="1">  1        2 0.38232068E+00 0.98533454E+03</pdfrwt>
<pdfrwt beam="2">  1       -2 0.52226945E-01 0.98533454E+03</pdfrwt>
<totfact> 0.12456218E+01</totfact>
</mgrwt>
</event>
<event>
 4    1  0.6502538E-008  0.1310972E+04  0.7818608E-02  0.9056142E-01
         -2   -1    0    0    0  501 -0.00000000000E+00  0.00000000000E+00  0.71556763600E+03  0.71556763600E+03  0.25500000000E-02 0.  1.
          2   -1    0    0  501    0  0.00000000000E+00 -0.00000000000E+00 -0.24832285840E+04  0.24832285841E+04  0.25500000000E-02 0. -1.
    8880023    1    1    2    0    0 -0.54607839074E+03  0.99329556931E+03 -0.15576316393E+04  0.20358939626E+04  0.65864270000E+03 0.  1.
    8880022    1    1    2    0    0  0.54607839074E+03 -0.99329556931E+03 -0.21002930872E+03  0.11629022575E+04  0.15294330000E+03 0.  0.
<mgrwt>
<rscale>  0 0.12670116E+04</rscale>
<asrwt>0</asrwt>
<pdfrwt beam="1">  1        2 0.38203516E+00 0.13109721E+04</pdfrwt>
<pdfrwt beam="2">  1       -2 0.11008733E+00 0.13109721E+04</pdfrwt>
<totfact> 0.22636132E+00</totfact>
</mgrwt>
</event>
<event>
 4    1  0.6502538E-008  0.1634141E+04  0.7818608E-02  0.8820298E-01
         -2   -1    0    0    0  501 -0.00000000000E+00  0.00000000000E+00  0.17439782354E+04  0.17439782354E+04  0.25500000000E-02 0.  1.
          2   -1    0    0  501    0  0.00000000000E+00 -0.00000000000E+00 -0.16180627515E+04  0.16180627515E+04  0.25500000000E-02 0. -1.
    8880023    1    1    2    0    0 -0.69986879106E+03  0.13216613952E+04 -0.53550019919E+03  0.17196441021E+04  0.65864270000E+03 0.  0.
    8880022    1    1    2    0    0  0.69986879106E+03 -0.13216613952E+04  0.66141568310E+03  0.16423968848E+04  0.15294330000E+03 0.  0.
<mgrwt>
<rscale>  0 0.16004073E+04</rscale>
<asrwt>0</asrwt>
<pdfrwt beam="1">  1        2 0.24893273E+00 0.16341406E+04</pdfrwt>
<pdfrwt beam="2">  1       -2 0.26830434E+00 0.16341406E+04</pdfrwt>
<totfact> 0.50136077E-01</totfact>
</mgrwt>
</event>
<event>
 4    1  0.6502538E-008  0.9294041E+03  0.7818608E-02  0.9480388E-01
         -2   -1    0    0    0  501 -0.00000000000E+00  0.00000000000E+00  0.17821197335E+04  0.17821197335E+04  0.25500000000E-02 0.  1.
          2   -1    0    0  501    0  0.00000000000E+00 -0.00000000000E+00 -0.50806238674E+03  0.50806238674E+03  0.25500000000E-02 0. -1.
    8880023    1    1    2    0    0  0.48734166668E+03 -0.43872529200E+03  0.97402535191E+02  0.93449411022E+03  0.65864270000E+03 0.  0.
    8880022    1    1    2    0    0 -0.48734166668E+03  0.43872529200E+03  0.11766548116E+04  0.13556880100E+04  0.15294330000E+03 0.  0.
<mgrwt>
<rscale>  0 0.85745324E+03</rscale>
<asrwt>0</asrwt>
<pdfrwt beam="1">  1        2 0.78163444E-01 0.92940410E+03</pdfrwt>
<pdfrwt beam="2">  1       -2 0.27417227E+00 0.92940410E+03</pdfrwt>
<totfact> 0.27933361E+00</totfact>
</mgrwt>
</event>
<event>
 4    1  0.6502538E-008  0.8283840E+03  0.7818608E-02  0.9652485E-01
          2   -1    0    0  501    0  0.00000000000E+00  0.00000000000E+00  0.11305209303E+04  0.11305209303E+04  0.25500000000E-02 0. -1.
         -2   -1    0    0    0  501 -0.00000000000E+00 -0.00000000000E+00 -0.91469922698E+03  0.91469922699E+03  0.25500000000E-02 0.  1.
    8880023    1    1    2    0    0  0.14614866629E+03 -0.48067697428E+03  0.87333610776E+03  0.12037175539E+04  0.65864270000E+03 0. -1.
    8880022    1    1    2    0    0 -0.14614866629E+03  0.48067697428E+03 -0.65751440448E+03  0.84150260331E+03  0.15294330000E+03 0.  0.
<mgrwt>
<rscale>  0 0.73917680E+03</rscale>
<asrwt>0</asrwt>
<pdfrwt beam="1">  1        2 0.17392630E+00 0.82838396E+03</pdfrwt>
<pdfrwt beam="2">  1       -2 0.14072296E+00 0.82838396E+03</pdfrwt>
<totfact> 0.74666734E+00</totfact>
</mgrwt>
</event>
<event>
 4    1  0.6502538E-008  0.8529298E+03  0.7818608E-02  0.9606266E-01
         -2   -1    0    0    0  501 -0.00000000000E+00  0.00000000000E+00  0.17277993945E+04  0.17277993945E+04  0.25500000000E-02 0.  1.
          2   -1    0    0  501    0  0.00000000000E+00 -0.00000000000E+00 -0.10952401949E+04  0.10952401949E+04  0.25500000000E-02 0. -1.
    8880023    1    1    2    0    0  0.44185867861E+03  0.31375150438E+03 -0.87004855785E+03  0.12183898381E+04  0.65864270000E+03 0. -1.
    8880022    1    1    2    0    0 -0.44185867861E+03 -0.31375150438E+03  0.15026077575E+04  0.16046497512E+04  0.15294330000E+03 0.  0.
<mgrwt>
<rscale>  0 0.76882855E+03</rscale>
<asrwt>0</asrwt>
<pdfrwt beam="1">  1        2 0.16849849E+00 0.85292984E+03</pdfrwt>
<pdfrwt beam="2">  1       -2 0.26581529E+00 0.85292984E+03</pdfrwt>
<totfact> 0.11510147E+00</totfact>
</mgrwt>
</event>
<event>
 4    1  0.6502538E-008  0.9523368E+03  0.7818608E-02  0.9446760E-01
          2   -1    0    0  501    0  0.00000000000E+00  0.00000000000E+00  0.76895832862E+03  0.76895832862E+03  0.25500000000E-02 0. -1.
         -2   -1    0    0    0  501 -0.00000000000E+00 -0.00000000000E+00 -0.18705730070E+04  0.18705730070E+04  0.25500000000E-02 0.  1.
    8880023    1    1    2    0    0  0.52832189801E+03  0.44046699063E+03 -0.15392536742E+04  0.18100406839E+04  0.65864270000E+03 0.  1.
    8880022    1    1    2    0    0 -0.52832189801E+03 -0.44046699063E+03  0.43763899572E+03  0.82949065176E+03  0.15294330000E+03 0.  0.
<mgrwt>
<rscale>  0 0.88325432E+03</rscale>
<asrwt>0</asrwt>
<pdfrwt beam="1">  1        2 0.11830128E+00 0.95233681E+03</pdfrwt>
<pdfrwt beam="2">  1       -2 0.28778046E+00 0.95233681E+03</pdfrwt>
<totfact> 0.13828099E+00</totfact>
</mgrwt>
</event>
<event>
 4    1  0.6502538E-008  0.8958178E+03  0.7818608E-02  0.9532779E-01
          2   -1    0    0  501    0  0.00000000000E+00  0.00000000000E+00  0.87839932044E+03  0.87839932044E+03  0.25500000000E-02 0. -1.
         -2   -1    0    0    0  501 -0.00000000000E+00 -0.00000000000E+00 -0.18626403547E+04  0.18626403547E+04  0.25500000000E-02 0.  1.
    8880023    1    1    2    0    0  0.32642603021E+03  0.51198181107E+03  0.57247289689E+03  0.10631155873E+04  0.65864270000E+03 0.  0.
    8880022    1    1    2    0    0 -0.32642603021E+03 -0.51198181107E+03 -0.15567139311E+04  0.16779240878E+04  0.15294330000E+03 0.  1.
<mgrwt>
<rscale>  0 0.81909704E+03</rscale>
<asrwt>0</asrwt>
<pdfrwt beam="1">  1        2 0.13513836E+00 0.89581780E+03</pdfrwt>
<pdfrwt beam="2">  1       -2 0.28656005E+00 0.89581780E+03</pdfrwt>
<totfact> 0.11846395E+00</totfact>
</mgrwt>
</event>
<event>
 4    1  0.6502538E-008  0.2604993E+04  0.7818608E-02  0.8373397E-01
          2   -1    0    0  501    0  0.00000000000E+00  0.00000000000E+00  0.36936485769E+04  0.36936485769E+04  0.25500000000E-02 0. -1.
         -2   -1    0    0    0  501 -0.00000000000E+00 -0.00000000000E+00 -0.18926759948E+04  0.18926759948E+04  0.25500000000E-02 0.  1.
    8880023    1    1    2    0    0  0.24048530040E+04  0.75422843024E+03  0.23594981226E+03  0.26156568995E+04  0.65864270000E+03 0.  0.
    8880022    1    1    2    0    0 -0.24048530040E+04 -0.75422843024E+03  0.15650227698E+04  0.29706676722E+04  0.15294330000E+03 0.  0.
<mgrwt>
<rscale>  0 0.25847575E+04</rscale>
<asrwt>0</asrwt>
<pdfrwt beam="1">  1        2 0.56825363E+00 0.26049930E+04</pdfrwt>
<pdfrwt beam="2">  1       -2 0.29118092E+00 0.26049930E+04</pdfrwt>
<totfact> 0.17679451E-02</totfact>
</mgrwt>
</event>
<event>
 4    1  0.6502538E-008  0.7449150E+03  0.7818608E-02  0.9845855E-01
         -2   -1    0    0    0  501 -0.00000000000E+00  0.00000000000E+00  0.33802846723E+03  0.33802846724E+03  0.25500000000E-02 0.  1.
          2   -1    0    0  501    0  0.00000000000E+00 -0.00000000000E+00 -0.26834359819E+04  0.26834359819E+04  0.25500000000E-02 0. -1.
    8880023    1    1    2    0    0 -0.32161075128E+03  0.13287069008E+03 -0.25018733631E+04  0.26104154127E+04  0.65864270000E+03 0.  0.
    8880022    1    1    2    0    0  0.32161075128E+03 -0.13287069008E+03  0.15646584842E+03  0.41104903644E+03  0.15294330000E+03 0.  0.
<mgrwt>
<rscale>  0 0.62958721E+03</rscale>
<asrwt>0</asrwt>
<pdfrwt beam="1">  1        2 0.41283629E+00 0.74491496E+03</pdfrwt>
<pdfrwt beam="2">  1       -2 0.52004381E-01 0.74491496E+03</pdfrwt>
<totfact> 0.10002482E+01</totfact>
</mgrwt>
</event>
<event>
 4    1  0.6502538E-008  0.1361988E+04  0.7818608E-02  0.9013796E-01
          2   -1    0    0  501    0  0.00000000000E+00  0.00000000000E+00  0.25509175279E+04  0.25509175279E+04  0.25500000000E-02 0. -1.
         -2   -1    0    0    0  501 -0.00000000000E+00 -0.00000000000E+00 -0.93425075194E+03  0.93425075195E+03  0.25500000000E-02 0.  1.
    8880023    1    1    2    0    0 -0.72147691364E+03 -0.94903789142E+03  0.18127211688E+04  0.22673707457E+04  0.65864270000E+03 0.  0.
    8880022    1    1    2    0    0  0.72147691364E+03  0.94903789142E+03 -0.19605439285E+03  0.12177975342E+04  0.15294330000E+03 0.  0.
<mgrwt>
<rscale>  0 0.13200739E+04</rscale>
<asrwt>0</asrwt>
<pdfrwt beam="1">  1        2 0.39244885E+00 0.13619883E+04</pdfrwt>
<pdfrwt beam="2">  1       -2 0.14373089E+00 0.13619883E+04</pdfrwt>
<totfact> 0.10467548E+00</totfact>
</mgrwt>
</event>
<event>
 4    1  0.6502538E-008  0.1262937E+04  0.7818608E-02  0.9098246E-01
          2   -1    0    0  501    0  0.00000000000E+00  0.00000000000E+00  0.18028664842E+04  0.18028664842E+04  0.25500000000E-02 0. -1.
         -2   -1    0    0    0  501 -0.00000000000E+00 -0.00000000000E+00 -0.14481325669E+04  0.14481325669E+04  0.25500000000E-02 0.  1.
    8880023    1    1    2    0    0  0.46517140580E+03  0.97201606600E+03  0.12977927319E+04  0.18108770943E+04  0.65864270000E+03 0.  0.
    8880022    1    1    2    0    0 -0.46517140580E+03 -0.97201606600E+03 -0.94305881468E+03  0.14401219567E+04  0.15294330000E+03 0.  0.
<mgrwt>
<rscale>  0 0.12168368E+04</rscale>
<asrwt>0</asrwt>
<pdfrwt beam="1">  1        2 0.27736407E+00 0.12629370E+04</pdfrwt>
<pdfrwt beam="2">  1       -2 0.22278963E+00 0.12629370E+04</pdfrwt>
<totfact> 0.78594711E-01</totfact>
</mgrwt>
</event>
<event>
 4    1  0.6502538E-008  0.6663735E+03  0.7818608E-02  0.1018408E+00
         -2   -1    0    0    0  501 -0.00000000000E+00  0.00000000000E+00  0.16708593526E+03  0.16708593528E+03  0.25500000000E-02 0.  1.
          2   -1    0    0  501    0  0.00000000000E+00 -0.00000000000E+00 -0.20106650886E+04  0.20106650886E+04  0.25500000000E-02 0. -1.
    8880023    1    1    2    0    0 -0.86293071191E+02  0.52886148462E+02 -0.18766013372E+04  0.19914030792E+04  0.65864270000E+03 0. -1.
    8880022    1    1    2    0    0  0.86293071191E+02 -0.52886148462E+02  0.33022183873E+02  0.18634794466E+03  0.15294330000E+03 0.  0.
<mgrwt>
<rscale>  0 0.48265562E+03</rscale>
<asrwt>0</asrwt>
<pdfrwt beam="1">  1        2 0.30933307E+00 0.66637350E+03</pdfrwt>
<pdfrwt beam="2">  1       -2 0.25705530E-01 0.66637350E+03</pdfrwt>
<totfact> 0.93103615E+01</totfact>
</mgrwt>
</event>
<event>
 4    1  0.6502538E-008  0.6615106E+03  0.7818608E-02  0.1022660E+00
         -2   -1    0    0    0  501 -0.00000000000E+00  0.00000000000E+00  0.25584161548E+03  0.25584161550E+03  0.25500000000E-02 0.  1.
          2   -1    0    0  501    0  0.00000000000E+00 -0.00000000000E+00 -0.15714213855E+04  0.15714213855E+04  0.25500000000E-02 0. -1.
    8880023    1    1    2    0    0 -0.57986387869E+01 -0.61257145271E+02 -0.14633178481E+04  0.16058939544E+04  0.65864270000E+03 0. -1.
    8880022    1    1    2    0    0  0.57986387869E+01  0.61257145271E+02  0.14773807806E+03  0.22136904658E+03  0.15294330000E+03 0.  0.
<mgrwt>
<rscale>  0 0.46738979E+03</rscale>
<asrwt>0</asrwt>
<pdfrwt beam="1">  1        2 0.24175713E+00 0.66151060E+03</pdfrwt>
<pdfrwt beam="2">  1       -2 0.39360249E-01 0.66151060E+03</pdfrwt>
<totfact> 0.72789991E+01</totfact>
</mgrwt>
</event>
<event>
 4    1  0.7243236E-008  0.9518017E+03  0.7818608E-02  0.9447527E-01
         -2   -1    0    0    0  501 -0.00000000000E+00  0.00000000000E+00  0.15245568563E+04  0.15245568563E+04  0.25500000000E-02 0.  1.
          2   -1    0    0  501    0  0.00000000000E+00 -0.00000000000E+00 -0.32990548548E+04  0.32990548548E+04  0.25500000000E-02 0. -1.
    8880023    1    1    2    0    0  0.60763526438E+03  0.32077348782E+03 -0.31433923384E+04  0.32843327852E+04  0.65864270000E+03 0.  0.
    8880022    1    1    2    0    0 -0.60763526438E+03 -0.32077348782E+03  0.13688943399E+04  0.15392789259E+04  0.15294330000E+03 0.  0.
<mgrwt>
<rscale>  0 0.88265539E+03</rscale>
<asrwt>0</asrwt>
<pdfrwt beam="1">  1        2 0.50754690E+00 0.95180169E+03</pdfrwt>
<pdfrwt beam="2">  1       -2 0.23454721E+00 0.95180169E+03</pdfrwt>
<totfact> 0.92870471E-02</totfact>
</mgrwt>
</event>
<event>
 4    1  0.6502538E-008  0.7727680E+03  0.7818608E-02  0.9773108E-01
          2   -1    0    0  501    0  0.00000000000E+00  0.00000000000E+00  0.16922656395E+04  0.16922656395E+04  0.25500000000E-02 0. -1.
         -2   -1    0    0    0  501 -0.00000000000E+00 -0.00000000000E+00 -0.59936909294E+03  0.59936909294E+03  0.25500000000E-02 0.  1.
    8880023    1    1    2    0    0  0.17103514934E+03  0.36620646094E+03  0.15067007914E+04  0.16933155865E+04  0.65864270000E+03 0. -1.
    8880022    1    1    2    0    0 -0.17103514934E+03 -0.36620646094E+03 -0.41380424485E+03  0.59831914595E+03  0.15294330000E+03 0.  0.
<mgrwt>
<rscale>  0 0.66825923E+03</rscale>
<asrwt>0</asrwt>
<pdfrwt beam="1">  1        2 0.26034856E+00 0.77276801E+03</pdfrwt>
<pdfrwt beam="2">  1       -2 0.92210630E-01 0.77276801E+03</pdfrwt>
<totfact> 0.10144456E+01</totfact>
</mgrwt>
</event>
<event>
 4    1  0.6502538E-008  0.1353806E+04  0.7818608E-02  0.9020434E-01
          2   -1    0    0  501    0  0.00000000000E+00  0.00000000000E+00  0.27927830185E+04  0.27927830185E+04  0.25500000000E-02 0. -1.
         -2   -1    0    0    0  501 -0.00000000000E+00 -0.00000000000E+00 -0.71606609446E+03  0.71606609447E+03  0.25500000000E-02 0.  1.
    8880023    1    1    2    0    0  0.10345871413E+02 -0.11827401358E+04  0.32938312882E+03  0.13932999382E+04  0.65864270000E+03 0.  1.
    8880022    1    1    2    0    0 -0.10345871413E+02  0.11827401358E+04  0.17473337952E+04  0.21155491748E+04  0.15294330000E+03 0.  0.
<mgrwt>
<rscale>  0 0.13115779E+04</rscale>
<asrwt>0</asrwt>
<pdfrwt beam="1">  1        2 0.42965893E+00 0.13538063E+04</pdfrwt>
<pdfrwt beam="2">  1       -2 0.11016401E+00 0.13538063E+04</pdfrwt>
<totfact> 0.14801314E+00</totfact>
</mgrwt>
</event>
<event>
 4    1  0.6502538E-008  0.8160041E+03  0.7818608E-02  0.9677204E-01
          2   -1    0    0  501    0  0.00000000000E+00  0.00000000000E+00  0.13012050848E+04  0.13012050848E+04  0.25500000000E-02 0. -1.
         -2   -1    0    0    0  501 -0.00000000000E+00 -0.00000000000E+00 -0.57052499837E+03  0.57052499837E+03  0.25500000000E-02 0.  1.
    8880023    1    1    2    0    0  0.23709807515E+03 -0.41932927304E+03  0.10066799235E+04  0.12958654294E+04  0.65864270000E+03 0.  0.
    8880022    1    1    2    0    0 -0.23709807515E+03  0.41932927304E+03 -0.27599983702E+03  0.57586465382E+03  0.15294330000E+03 0.  0.
<mgrwt>
<rscale>  0 0.72390449E+03</rscale>
<asrwt>0</asrwt>
<pdfrwt beam="1">  1        2 0.20018539E+00 0.81600413E+03</pdfrwt>
<pdfrwt beam="2">  1       -2 0.87773078E-01 0.81600413E+03</pdfrwt>
<totfact> 0.18722250E+01</totfact>
</mgrwt>
</event>
<event>
 4    1  0.6502538E-008  0.1362894E+04  0.7818608E-02  0.9013065E-01
          2   -1    0    0  501    0  0.00000000000E+00  0.00000000000E+00  0.12042432482E+04  0.12042432482E+04  0.25500000000E-02 0. -1.
         -2   -1    0    0    0  501 -0.00000000000E+00 -0.00000000000E+00 -0.18075083835E+04  0.18075083836E+04  0.25500000000E-02 0.  1.
    8880023    1    1    2    0    0 -0.77324580254E+03  0.90871405966E+03 -0.10583917599E+04  0.17255937057E+04  0.65864270000E+03 0.  1.
    8880022    1    1    2    0    0  0.77324580254E+03 -0.90871405966E+03  0.45512662461E+03  0.12861579261E+04  0.15294330000E+03 0.  0.
<mgrwt>
<rscale>  0 0.13210142E+04</rscale>
<asrwt>0</asrwt>
<pdfrwt beam="1">  1        2 0.18526819E+00 0.13628942E+04</pdfrwt>
<pdfrwt beam="2">  1       -2 0.27807821E+00 0.13628942E+04</pdfrwt>
<totfact> 0.77974618E-01</totfact>
</mgrwt>
</event>
<event>
 4    1  0.6502538E-008  0.1080275E+04  0.7818608E-02  0.9283342E-01
          2   -1    0    0  501    0  0.00000000000E+00  0.00000000000E+00  0.83838574308E+03  0.83838574308E+03  0.25500000000E-02 0. -1.
         -2   -1    0    0    0  501 -0.00000000000E+00 -0.00000000000E+00 -0.23528736619E+04  0.23528736619E+04  0.25500000000E-02 0.  1.
    8880023    1    1    2    0    0  0.48239020869E+03  0.70744806151E+03  0.34860113156E+03  0.11351281991E+04  0.65864270000E+03 0.  0.
    8880022    1    1    2    0    0 -0.48239020869E+03 -0.70744806151E+03 -0.18630890504E+04  0.20561312059E+04  0.15294330000E+03 0.  0.
<mgrwt>
<rscale>  0 0.10233097E+04</rscale>
<asrwt>0</asrwt>
<pdfrwt beam="1">  1        2 0.12898242E+00 0.10802746E+04</pdfrwt>
<pdfrwt beam="2">  1       -2 0.36198056E+00 0.10802746E+04</pdfrwt>
<totfact> 0.42310074E-01</totfact>
</mgrwt>
</event>
<event>
 4    1  0.6502538E-008  0.1103199E+04  0.7818608E-02  0.9257503E-01
         -2   -1    0    0    0  501 -0.00000000000E+00  0.00000000000E+00  0.85175958652E+03  0.85175958652E+03  0.25500000000E-02 0.  1.
          2   -1    0    0  501    0  0.00000000000E+00 -0.00000000000E+00 -0.17272732460E+04  0.17272732460E+04  0.25500000000E-02 0. -1.
    8880023    1    1    2    0    0 -0.87275179422E+03  0.14677393815E+03 -0.11944449274E+04  0.16259603851E+04  0.65864270000E+03 0. -1.
    8880022    1    1    2    0    0  0.87275179422E+03 -0.14677393815E+03  0.31893126793E+03  0.95307244735E+03  0.15294330000E+03 0.  0.
<mgrwt>
<rscale>  0 0.10479118E+04</rscale>
<asrwt>0</asrwt>
<pdfrwt beam="1">  1        2 0.26573434E+00 0.11031992E+04</pdfrwt>
<pdfrwt beam="2">  1       -2 0.13103994E+00 0.11031992E+04</pdfrwt>
<totfact> 0.39649285E+00</totfact>
</mgrwt>
</event>
<event>
 4    1  0.7068227E-008  0.8795402E+03  0.7818608E-02  0.9559708E-01
         -2   -1    0    0    0  501 -0.00000000000E+00  0.00000000000E+00  0.10754394633E+04  0.10754394633E+04  0.25500000000E-02 0.  1.
          2   -1    0    0  501    0  0.00000000000E+00 -0.00000000000E+00 -0.27333366152E+04  0.27333366152E+04  0.25500000000E-02 0. -1.
    8880023    1    1    2    0    0 -0.37986072953E+02 -0.58166819985E+03 -0.25695675746E+04  0.27159286742E+04  0.65864270000E+03 0.  0.
    8880022    1    1    2    0    0  0.37986072953E+02  0.58166819985E+03  0.91167042268E+03  0.10928474043E+04  0.15294330000E+03 0.  0.
<mgrwt>
<rscale>  0 0.80021356E+03</rscale>
<asrwt>0</asrwt>
<pdfrwt beam="1">  1        2 0.42051332E+00 0.87954025E+03</pdfrwt>
<pdfrwt beam="2">  1       -2 0.16545223E+00 0.87954025E+03</pdfrwt>
<totfact> 0.60188383E-01</totfact>
</mgrwt>
</event>
<event>
 4    1  0.6502538E-008  0.1542300E+04  0.7818608E-02  0.8880330E-01
          2   -1    0    0  501    0  0.00000000000E+00  0.00000000000E+00  0.33281464551E+04  0.33281464551E+04  0.25500000000E-02 0. -1.
         -2   -1    0    0    0  501 -0.00000000000E+00 -0.00000000000E+00 -0.96561549811E+03  0.96561549811E+03  0.25500000000E-02 0.  1.
    8880023    1    1    2    0    0  0.33944804210E+03 -0.13526467153E+04  0.24423342163E+04  0.28885437057E+04  0.65864270000E+03 0.  0.
    8880022    1    1    2    0    0 -0.33944804210E+03  0.13526467153E+04 -0.79803259284E+02  0.14052182475E+04  0.15294330000E+03 0.  0.
<mgrwt>
<rscale>  0 0.15062156E+04</rscale>
<asrwt>0</asrwt>
<pdfrwt beam="1">  1        2 0.51202253E+00 0.15422997E+04</pdfrwt>
<pdfrwt beam="2">  1       -2 0.14855623E+00 0.15422997E+04</pdfrwt>
<totfact> 0.31026254E-01</totfact>
</mgrwt>
</event>
<event>
 4    1  0.1580333E-007  0.8667688E+03  0.7818608E-02  0.9581635E-01
         -2   -1    0    0    0  501 -0.00000000000E+00  0.00000000000E+00  0.20655589715E+04  0.20655589715E+04  0.25500000000E-02 0.  1.
          2   -1    0    0  501    0  0.00000000000E+00 -0.00000000000E+00 -0.27289286610E+04  0.27289286610E+04  0.25500000000E-02 0. -1.
    8880023    1    1    2    0    0 -0.89397011542E+02 -0.55631476655E+03 -0.26163064474E+04  0.27561472345E+04  0.65864270000E+03 0. -1.
    8880022    1    1    2    0    0  0.89397011542E+02  0.55631476655E+03  0.19529367578E+04  0.20383403981E+04  0.15294330000E+03 0.  0.
<mgrwt>
<rscale>  0 0.78523742E+03</rscale>
<asrwt>0</asrwt>
<pdfrwt beam="1">  1        2 0.41983518E+00 0.86676880E+03</pdfrwt>
<pdfrwt beam="2">  1       -2 0.31777830E+00 0.86676880E+03</pdfrwt>
<totfact> 0.66778968E-02</totfact>
</mgrwt>
</event>
<event>
 4    1  0.6502538E-008  0.7599049E+03  0.7818608E-02  0.9805354E-01
          2   -1    0    0  501    0  0.00000000000E+00  0.00000000000E+00  0.15217638392E+04  0.15217638392E+04  0.25500000000E-02 0. -1.
         -2   -1    0    0    0  501 -0.00000000000E+00 -0.00000000000E+00 -0.48007088290E+03  0.48007088290E+03  0.25500000000E-02 0.  1.
    8880023    1    1    2    0    0 -0.25858480041E+03 -0.27709056371E+03 -0.12093036599E+03  0.76946711378E+03  0.65864270000E+03 0.  1.
    8880022    1    1    2    0    0  0.25858480041E+03  0.27709056371E+03  0.11626233223E+04  0.12323676083E+04  0.15294330000E+03 0.  0.
<mgrwt>
<rscale>  0 0.65076023E+03</rscale>
<asrwt>0</asrwt>
<pdfrwt beam="1">  1        2 0.23411751E+00 0.75990492E+03</pdfrwt>
<pdfrwt beam="2">  1       -2 0.73857060E-01 0.75990492E+03</pdfrwt>
<totfact> 0.20856578E+01</totfact>
</mgrwt>
</event>
<event>
 4    1  0.6502538E-008  0.1461946E+04  0.7818608E-02  0.8936985E-01
          2   -1    0    0  501    0  0.00000000000E+00  0.00000000000E+00  0.34231972635E+04  0.34231972635E+04  0.25500000000E-02 0. -1.
         -2   -1    0    0    0  501 -0.00000000000E+00 -0.00000000000E+00 -0.61404139667E+03  0.61404139668E+03  0.25500000000E-02 0.  1.
    8880023    1    1    2    0    0 -0.13051713363E+04  0.20548919247E+01  0.89082981501E+03  0.17119767537E+04  0.65864270000E+03 0.  1.
    8880022    1    1    2    0    0  0.13051713363E+04 -0.20548919247E+01  0.19183260518E+04  0.23252619065E+04  0.15294330000E+03 0.  0.
<mgrwt>
<rscale>  0 0.14234950E+04</rscale>
<asrwt>0</asrwt>
<pdfrwt beam="1">  1        2 0.52664574E+00 0.14619462E+04</pdfrwt>
<pdfrwt beam="2">  1       -2 0.94467906E-01 0.14619462E+04</pdfrwt>
<totfact> 0.83879080E-01</totfact>
</mgrwt>
</event>
<event>
 4    1  0.6502538E-008  0.8291097E+03  0.7818608E-02  0.9651067E-01
         -2   -1    0    0    0  501 -0.00000000000E+00  0.00000000000E+00  0.15566670825E+03  0.15566670827E+03  0.25500000000E-02 0.  1.
          2   -1    0    0  501    0  0.00000000000E+00 -0.00000000000E+00 -0.34236255476E+04  0.34236255476E+04  0.25500000000E-02 0. -1.
    8880023    1    1    2    0    0 -0.20299557011E+02 -0.50319039557E+03 -0.25993992747E+04  0.27284243515E+04  0.65864270000E+03 0.  0.
    8880022    1    1    2    0    0  0.20299557011E+02  0.50319039557E+03 -0.66855956469E+03  0.85086790442E+03  0.15294330000E+03 0.  0.
<mgrwt>
<rscale>  0 0.74006489E+03</rscale>
<asrwt>0</asrwt>
<pdfrwt beam="1">  1        2 0.52671157E+00 0.82910967E+03</pdfrwt>
<pdfrwt beam="2">  1       -2 0.23948727E-01 0.82910967E+03</pdfrwt>
<totfact> 0.15088028E+01</totfact>
</mgrwt>
</event>
<event>
 4    1  0.6502538E-008  0.8154454E+03  0.7818608E-02  0.9678344E-01
          2   -1    0    0  501    0  0.00000000000E+00  0.00000000000E+00  0.51022445108E+04  0.51022445108E+04  0.25500000000E-02 0. -1.
         -2   -1    0    0    0  501 -0.00000000000E+00 -0.00000000000E+00 -0.11395564983E+03  0.11395564985E+03  0.25500000000E-02 0.  1.
    8880023    1    1    2    0    0 -0.47458799032E+03  0.76858409722E+02  0.42131373696E+04  0.42913258647E+04  0.65864270000E+03 0. -1.
    8880022    1    1    2    0    0  0.47458799032E+03 -0.76858409722E+02  0.77515149134E+03  0.92487429591E+03  0.15294330000E+03 0.  0.
<mgrwt>
<rscale>  0 0.72320945E+03</rscale>
<asrwt>0</asrwt>
<pdfrwt beam="1">  1        2 0.78496091E+00 0.81544539E+03</pdfrwt>
<pdfrwt beam="2">  1       -2 0.17531634E-01 0.81544539E+03</pdfrwt>
<totfact> 0.78678111E-01</totfact>
</mgrwt>
</event>
<event>
 4    1  0.6502538E-008  0.9986189E+03  0.7818608E-02  0.9383367E-01
         -2   -1    0    0    0  501 -0.00000000000E+00  0.00000000000E+00  0.78544886206E+03  0.78544886207E+03  0.25500000000E-02 0.  1.
          2   -1    0    0  501    0  0.00000000000E+00 -0.00000000000E+00 -0.14927486157E+04  0.14927486157E+04  0.25500000000E-02 0. -1.
    8880023    1    1    2    0    0 -0.74348695426E+03  0.10323115836E+03 -0.10410784197E+04  0.14425962725E+04  0.65864270000E+03 0.  0.
    8880022    1    1    2    0    0  0.74348695426E+03 -0.10323115836E+03  0.33377866610E+03  0.83560120523E+03  0.15294330000E+03 0.  0.
<mgrwt>
<rscale>  0 0.93457264E+03</rscale>
<asrwt>0</asrwt>
<pdfrwt beam="1">  1        2 0.22965363E+00 0.99861891E+03</pdfrwt>
<pdfrwt beam="2">  1       -2 0.12083829E+00 0.99861891E+03</pdfrwt>
<totfact> 0.66477572E+00</totfact>
</mgrwt>
</event>
<event>
 4    1  0.6502538E-008  0.1026425E+04  0.7818608E-02  0.9347774E-01
          2   -1    0    0  501    0  0.00000000000E+00  0.00000000000E+00  0.14097457384E+04  0.14097457384E+04  0.25500000000E-02 0. -1.
         -2   -1    0    0    0  501 -0.00000000000E+00 -0.00000000000E+00 -0.81552138857E+03  0.81552138857E+03  0.25500000000E-02 0.  1.
    8880023    1    1    2    0    0 -0.78275637937E+03  0.83845538809E+02  0.90184733857E+03  0.13663368736E+04  0.65864270000E+03 0.  0.
    8880022    1    1    2    0    0  0.78275637937E+03 -0.83845538809E+02 -0.30762298879E+03  0.85893025332E+03  0.15294330000E+03 0.  0.
<mgrwt>
<rscale>  0 0.96501182E+03</rscale>
<asrwt>0</asrwt>
<pdfrwt beam="1">  1        2 0.21688396E+00 0.10264248E+04</pdfrwt>
<pdfrwt beam="2">  1       -2 0.12546483E+00 0.10264248E+04</pdfrwt>
<totfact> 0.67213628E+00</totfact>
</mgrwt>
</event>
<event>
 4    1  0.6502538E-008  0.1830617E+04  0.7818608E-02  0.8705786E-01
          2   -1    0    0  501    0  0.00000000000E+00  0.00000000000E+00  0.29531658413E+04  0.29531658414E+04  0.25500000000E-02 0. -1.
         -2   -1    0    0    0  501 -0.00000000000E+00 -0.00000000000E+00 -0.14334613621E+04  0.14334613621E+04  0.25500000000E-02 0.  1.
    8880023    1    1    2    0    0 -0.38195762711E+03 -0.16647696643E+04  0.18911134651E+04  0.26320087401E+04  0.65864270000E+03 0.  0.
    8880022    1    1    2    0    0  0.38195762711E+03  0.16647696643E+04 -0.37140898585E+03  0.17546184633E+04  0.15294330000E+03 0.  0.
<mgrwt>
<rscale>  0 0.18009650E+04</rscale>
<asrwt>0</asrwt>
<pdfrwt beam="1">  1        2 0.45433320E+00 0.18306173E+04</pdfrwt>
<pdfrwt beam="2">  1       -2 0.22053252E+00 0.18306173E+04</pdfrwt>
<totfact> 0.16550710E-01</totfact>
</mgrwt>
</event>
<event>
 4    1  0.6502538E-008  0.6969668E+03  0.7818608E-02  0.1001002E+00
          2   -1    0    0  501    0  0.00000000000E+00  0.00000000000E+00  0.54563074772E+03  0.54563074772E+03  0.25500000000E-02 0. -1.
         -2   -1    0    0    0  501 -0.00000000000E+00 -0.00000000000E+00 -0.51824302002E+03  0.51824302002E+03  0.25500000000E-02 0.  1.
    8880023    1    1    2    0    0 -0.92435676054E+02  0.20834623210E+03  0.21734037619E+03  0.73006818313E+03  0.65864270000E+03 0.  0.
    8880022    1    1    2    0    0  0.92435676054E+02 -0.20834623210E+03 -0.18995264849E+03  0.33380558462E+03  0.15294330000E+03 0.  0.
<mgrwt>
<rscale>  0 0.55212863E+03</rscale>
<asrwt>0</asrwt>
<pdfrwt beam="1">  1        2 0.83943192E-01 0.69696679E+03</pdfrwt>
<pdfrwt beam="2">  1       -2 0.79729695E-01 0.69696679E+03</pdfrwt>
<totfact> 0.78558610E+01</totfact>
</mgrwt>
</event>
<event>
 4    1  0.6502538E-008  0.7678172E+03  0.7818608E-02  0.9785274E-01
          2   -1    0    0  501    0  0.00000000000E+00  0.00000000000E+00  0.51360084239E+03  0.51360084239E+03  0.25500000000E-02 0. -1.
         -2   -1    0    0    0  501 -0.00000000000E+00 -0.00000000000E+00 -0.14589426349E+04  0.14589426349E+04  0.25500000000E-02 0.  1.
    8880023    1    1    2    0    0  0.39226476100E+03  0.43143136903E+02  0.16406324733E+03  0.78514962165E+03  0.65864270000E+03 0. -1.
    8880022    1    1    2    0    0 -0.39226476100E+03 -0.43143136903E+02 -0.11094050399E+04  0.11873938557E+04  0.15294330000E+03 0.  0.
<mgrwt>
<rscale>  0 0.66158823E+03</rscale>
<asrwt>0</asrwt>
<pdfrwt beam="1">  1        2 0.79015515E-01 0.76781715E+03</pdfrwt>
<pdfrwt beam="2">  1       -2 0.22445271E+00 0.76781715E+03</pdfrwt>
<totfact> 0.56479861E+00</totfact>
</mgrwt>
</event>
<event>
 4    1  0.6502538E-008  0.1101831E+04  0.7818608E-02  0.9259021E-01
          2   -1    0    0  501    0  0.00000000000E+00  0.00000000000E+00  0.15832348473E+04  0.15832348473E+04  0.25500000000E-02 0. -1.
         -2   -1    0    0    0  501 -0.00000000000E+00 -0.00000000000E+00 -0.87457819052E+03  0.87457819053E+03  0.25500000000E-02 0.  1.
    8880023    1    1    2    0    0  0.27354677536E+03  0.83987661610E+03  0.10272770729E+04  0.15064292082E+04  0.65864270000E+03 0.  0.
    8880022    1    1    2    0    0 -0.27354677536E+03 -0.83987661610E+03 -0.31862041616E+03  0.95138382959E+03  0.15294330000E+03 0.  0.
<mgrwt>
<rscale>  0 0.10464463E+04</rscale>
<asrwt>0</asrwt>
<pdfrwt beam="1">  1        2 0.24357459E+00 0.11018306E+04</pdfrwt>
<pdfrwt beam="2">  1       -2 0.13455049E+00 0.11018306E+04</pdfrwt>
<totfact> 0.44566745E+00</totfact>
</mgrwt>
</event>
<event>
 4    1  0.6502538E-008  0.7276190E+03  0.7818608E-02  0.9897601E-01
         -2   -1    0    0    0  501 -0.00000000000E+00  0.00000000000E+00  0.26400635627E+03  0.26400635628E+03  0.25500000000E-02 0.  1.
          2   -1    0    0  501    0  0.00000000000E+00 -0.00000000000E+00 -0.17137223908E+04  0.17137223908E+04  0.25500000000E-02 0. -1.
    8880023    1    1    2    0    0 -0.20029655975E+03  0.23558556039E+03 -0.14614344394E+04  0.16325501815E+04  0.65864270000E+03 0.  0.
    8880022    1    1    2    0    0  0.20029655975E+03 -0.23558556039E+03  0.11718404894E+02  0.34517856559E+03  0.15294330000E+03 0.  0.
<mgrwt>
<rscale>  0 0.60377676E+03</rscale>
<asrwt>0</asrwt>
<pdfrwt beam="1">  1        2 0.26364959E+00 0.72761904E+03</pdfrwt>
<pdfrwt beam="2">  1       -2 0.40616363E-01 0.72761904E+03</pdfrwt>
<totfact> 0.56790029E+01</totfact>
</mgrwt>
</event>
<event>
 4    1  0.6502538E-008  0.7280444E+03  0.7818608E-02  0.9896251E-01
         -2   -1    0    0    0  501 -0.00000000000E+00  0.00000000000E+00  0.10859337373E+04  0.10859337373E+04  0.25500000000E-02 0.  1.
          2   -1    0    0  501    0  0.00000000000E+00 -0.00000000000E+00 -0.43857043757E+03  0.43857043757E+03  0.25500000000E-02 0. -1.
    8880023    1    1    2    0    0 -0.30036231187E+03  0.77594302630E+02 -0.66690011560E+02  0.73109244155E+03  0.65864270000E+03 0.  0.
    8880022    1    1    2    0    0  0.30036231187E+03 -0.77594302630E+02  0.71405331130E+03  0.79341173333E+03  0.15294330000E+03 0.  1.
<mgrwt>
<rscale>  0 0.60443335E+03</rscale>
<asrwt>0</asrwt>
<pdfrwt beam="1">  1        2 0.67472375E-01 0.72804437E+03</pdfrwt>
<pdfrwt beam="2">  1       -2 0.16706673E+00 0.72804437E+03</pdfrwt>
<totfact> 0.16289570E+01</totfact>
</mgrwt>
</event>
<event>
 4    1  0.6502538E-008  0.1061682E+04  0.7818608E-02  0.9304968E-01
          2   -1    0    0  501    0  0.00000000000E+00  0.00000000000E+00  0.15299471946E+04  0.15299471946E+04  0.25500000000E-02 0. -1.
         -2   -1    0    0    0  501 -0.00000000000E+00 -0.00000000000E+00 -0.78137418903E+03  0.78137418903E+03  0.25500000000E-02 0.  1.
    8880023    1    1    2    0    0 -0.59605282241E+03 -0.58144633859E+03  0.96800708762E+03  0.14367347493E+04  0.65864270000E+03 0. -1.
    8880022    1    1    2    0    0  0.59605282241E+03  0.58144633859E+03 -0.21943408200E+03  0.87458663443E+03  0.15294330000E+03 0.  0.
<mgrwt>
<rscale>  0 0.10032678E+04</rscale>
<asrwt>0</asrwt>
<pdfrwt beam="1">  1        2 0.23537649E+00 0.10616822E+04</pdfrwt>
<pdfrwt beam="2">  1       -2 0.12021142E+00 0.10616822E+04</pdfrwt>
<totfact> 0.63761510E+00</totfact>
</mgrwt>
</event>
<event>
 4    1  0.6502538E-008  0.1023313E+04  0.7818608E-02  0.9351673E-01
          2   -1    0    0  501    0  0.00000000000E+00  0.00000000000E+00  0.26660826110E+04  0.26660826110E+04  0.25500000000E-02 0. -1.
         -2   -1    0    0    0  501 -0.00000000000E+00 -0.00000000000E+00 -0.35197467317E+03  0.35197467318E+03  0.25500000000E-02 0.  1.
    8880023    1    1    2    0    0 -0.27349267217E+03 -0.73386691793E+03  0.17946804543E+04  0.20659252248E+04  0.65864270000E+03 0. -1.
    8880022    1    1    2    0    0  0.27349267217E+03  0.73386691793E+03  0.51942748353E+03  0.95213205944E+03  0.15294330000E+03 0.  0.
<mgrwt>
<rscale>  0 0.96161775E+03</rscale>
<asrwt>0</asrwt>
<pdfrwt beam="1">  1        2 0.41016655E+00 0.10233128E+04</pdfrwt>
<pdfrwt beam="2">  1       -2 0.54149950E-01 0.10233128E+04</pdfrwt>
<totfact> 0.90435731E+00</totfact>
</mgrwt>
</event>
<event>
 4    1  0.6502538E-008  0.9460449E+03  0.7818608E-02  0.9455828E-01
          2   -1    0    0  501    0  0.00000000000E+00  0.00000000000E+00  0.13883889755E+04  0.13883889755E+04  0.25500000000E-02 0. -1.
         -2   -1    0    0    0  501 -0.00000000000E+00 -0.00000000000E+00 -0.59910358109E+03  0.59910358109E+03  0.25500000000E-02 0.  1.
    8880023    1    1    2    0    0  0.26046238224E+03 -0.62717623194E+03  0.87182215511E+03  0.12864970870E+04  0.65864270000E+03 0.  0.
    8880022    1    1    2    0    0 -0.26046238224E+03  0.62717623194E+03 -0.82536760714E+02  0.70099546957E+03  0.15294330000E+03 0.  0.
<mgrwt>
<rscale>  0 0.87620302E+03</rscale>
<asrwt>0</asrwt>
<pdfrwt beam="1">  1        2 0.21359830E+00 0.94604486E+03</pdfrwt>
<pdfrwt beam="2">  1       -2 0.92169783E-01 0.94604486E+03</pdfrwt>
<totfact> 0.14703824E+01</totfact>
</mgrwt>
</event>
<event>
 4    1  0.6502538E-008  0.1122893E+04  0.7818608E-02  0.9235986E-01
         -2   -1    0    0    0  501 -0.00000000000E+00  0.00000000000E+00  0.52848298087E+03  0.52848298088E+03  0.25500000000E-02 0.  1.
          2   -1    0    0  501    0  0.00000000000E+00 -0.00000000000E+00 -0.23417195627E+04  0.23417195627E+04  0.25500000000E-02 0. -1.
    8880023    1    1    2    0    0 -0.76380395657E+03  0.49364180227E+03 -0.15446668718E+04  0.19096818227E+04  0.65864270000E+03 0.  0.
    8880022    1    1    2    0    0  0.76380395657E+03 -0.49364180227E+03 -0.26856971005E+03  0.96052072085E+03  0.15294330000E+03 0.  0.
<mgrwt>
<rscale>  0 0.10689594E+04</rscale>
<asrwt>0</asrwt>
<pdfrwt beam="1">  1        2 0.36026454E+00 0.11228931E+04</pdfrwt>
<pdfrwt beam="2">  1       -2 0.81305075E-01 0.11228931E+04</pdfrwt>
<totfact> 0.56787864E+00</totfact>
</mgrwt>
</event>
<event>
 4    1  0.6502538E-008  0.7754673E+03  0.7818608E-02  0.9766594E-01
          2   -1    0    0  501    0  0.00000000000E+00  0.00000000000E+00  0.11769389263E+04  0.11769389263E+04  0.25500000000E-02 0. -1.
         -2   -1    0    0    0  501 -0.00000000000E+00 -0.00000000000E+00 -0.31700631001E+03  0.31700631002E+03  0.25500000000E-02 0.  1.
    8880023    1    1    2    0    0  0.84554712757E+02  0.40048697741E+03  0.46024685107E+03  0.90176310011E+03  0.65864270000E+03 0.  0.
    8880022    1    1    2    0    0 -0.84554712757E+02 -0.40048697741E+03  0.39968576526E+03  0.59218213625E+03  0.15294330000E+03 0. -1.
<mgrwt>
<rscale>  0 0.67186522E+03</rscale>
<asrwt>0</asrwt>
<pdfrwt beam="1">  1        2 0.18106753E+00 0.77546729E+03</pdfrwt>
<pdfrwt beam="2">  1       -2 0.48770201E-01 0.77546729E+03</pdfrwt>
<totfact> 0.78928223E+01</totfact>
</mgrwt>
</event>
<event>
 4    1  0.6502538E-008  0.6752543E+03  0.7818608E-02  0.1012146E+00
          2   -1    0    0  501    0  0.00000000000E+00  0.00000000000E+00  0.85123752390E+03  0.85123752390E+03  0.25500000000E-02 0. -1.
         -2   -1    0    0    0  501 -0.00000000000E+00 -0.00000000000E+00 -0.25278934577E+03  0.25278934578E+03  0.25500000000E-02 0.  1.
    8880023    1    1    2    0    0 -0.14823501026E+03  0.13585447994E+02  0.57939024225E+03  0.88975358484E+03  0.65864270000E+03 0.  0.
    8880022    1    1    2    0    0  0.14823501026E+03 -0.13585447994E+02  0.19057935886E+02  0.21427328484E+03  0.15294330000E+03 0.  0.
<mgrwt>
<rscale>  0 0.50630402E+03</rscale>
<asrwt>0</asrwt>
<pdfrwt beam="1">  1        2 0.13095962E+00 0.67525431E+03</pdfrwt>
<pdfrwt beam="2">  1       -2 0.38890669E-01 0.67525431E+03</pdfrwt>
<totfact> 0.20067693E+02</totfact>
</mgrwt>
</event>
<event>
 4    1  0.6502538E-008  0.1409179E+04  0.7818608E-02  0.8976583E-01
          2   -1    0    0  501    0  0.00000000000E+00  0.00000000000E+00  0.12349504426E+04  0.12349504426E+04  0.25500000000E-02 0. -1.
         -2   -1    0    0    0  501 -0.00000000000E+00 -0.00000000000E+00 -0.19468425657E+04  0.19468425657E+04  0.25500000000E-02 0.  1.
    8880023    1    1    2    0    0  0.10527343778E+04 -0.66612744369E+03  0.44197685529E+03  0.14768646479E+04  0.65864270000E+03 0.  0.
    8880022    1    1    2    0    0 -0.10527343778E+04  0.66612744369E+03 -0.11538689784E+04  0.17049283603E+04  0.15294330000E+03 0.  0.
<mgrwt>
<rscale>  0 0.13689808E+04</rscale>
<asrwt>0</asrwt>
<pdfrwt beam="1">  1        2 0.18999238E+00 0.14091791E+04</pdfrwt>
<pdfrwt beam="2">  1       -2 0.29951424E+00 0.14091791E+04</pdfrwt>
<totfact> 0.55060218E-01</totfact>
</mgrwt>
</event>
<event>
 4    1  0.6502538E-008  0.6589544E+03  0.7818608E-02  0.1025254E+00
          2   -1    0    0  501    0  0.00000000000E+00  0.00000000000E+00  0.45658021879E+04  0.45658021879E+04  0.25500000000E-02 0. -1.
         -2   -1    0    0    0  501 -0.00000000000E+00 -0.00000000000E+00 -0.17870391844E+03  0.17870391846E+03  0.25500000000E-02 0.  1.
    8880023    1    1    2    0    0  0.20060590820E+02  0.28777760551E+01  0.45033656648E+04  0.45513210419E+04  0.65864270000E+03 0. -1.
    8880022    1    1    2    0    0 -0.20060590820E+02 -0.28777760551E+01 -0.11626739536E+03  0.19318506448E+03  0.15294330000E+03 0.  0.
<mgrwt>
<rscale>  0 0.45837301E+03</rscale>
<asrwt>0</asrwt>
<pdfrwt beam="1">  1        2 0.70243102E+00 0.65895441E+03</pdfrwt>
<pdfrwt beam="2">  1       -2 0.27492914E-01 0.65895441E+03</pdfrwt>
<totfact> 0.14917656E+00</totfact>
</mgrwt>
</event>
<event>
 4    1  0.6502538E-008  0.1174300E+04  0.7818608E-02  0.9182518E-01
         -2   -1    0    0    0  501 -0.00000000000E+00  0.00000000000E+00  0.73813169397E+03  0.73813169397E+03  0.25500000000E-02 0.  1.
          2   -1    0    0  501    0  0.00000000000E+00 -0.00000000000E+00 -0.35231211048E+04  0.35231211048E+04  0.25500000000E-02 0. -1.
    8880023    1    1    2    0    0  0.28922112014E+03  0.92818177249E+03 -0.30278349833E+04  0.32475783519E+04  0.65864270000E+03 0. -1.
    8880022    1    1    2    0    0 -0.28922112014E+03 -0.92818177249E+03  0.24284557252E+03  0.10136744469E+04  0.15294330000E+03 0.  0.
<mgrwt>
<rscale>  0 0.11235702E+04</rscale>
<asrwt>0</asrwt>
<pdfrwt beam="1">  1        2 0.54201862E+00 0.11743000E+04</pdfrwt>
<pdfrwt beam="2">  1       -2 0.11355872E+00 0.11743000E+04</pdfrwt>
<totfact> 0.47771006E-01</totfact>
</mgrwt>
</event>
<event>
 4    1  0.6502538E-008  0.1075141E+04  0.7818608E-02  0.9289251E-01
         -2   -1    0    0    0  501 -0.00000000000E+00  0.00000000000E+00  0.38155755624E+03  0.38155755625E+03  0.25500000000E-02 0.  1.
          2   -1    0    0  501    0  0.00000000000E+00 -0.00000000000E+00 -0.30259438457E+04  0.30259438457E+04  0.25500000000E-02 0. -1.
    8880023    1    1    2    0    0  0.84721349006E+03 -0.65936947890E+02 -0.21714318502E+04  0.24230239094E+04  0.65864270000E+03 0.  0.
    8880022    1    1    2    0    0 -0.84721349006E+03  0.65936947890E+02 -0.47295443924E+03  0.98447749261E+03  0.15294330000E+03 0.  0.
<mgrwt>
<rscale>  0 0.10177845E+04</rscale>
<asrwt>0</asrwt>
<pdfrwt beam="1">  1        2 0.46552981E+00 0.10751412E+04</pdfrwt>
<pdfrwt beam="2">  1       -2 0.58701165E-01 0.10751412E+04</pdfrwt>
<totfact> 0.46072417E+00</totfact>
</mgrwt>
</event>
<event>
 4    1  0.6502538E-008  0.1454642E+04  0.7818608E-02  0.8942347E-01
         -2   -1    0    0    0  501 -0.00000000000E+00  0.00000000000E+00  0.12591608937E+04  0.12591608937E+04  0.25500000000E-02 0.  1.
          2   -1    0    0  501    0  0.00000000000E+00 -0.00000000000E+00 -0.26863056686E+04  0.26863056686E+04  0.25500000000E-02 0. -1.
    8880023    1    1    2    0    0 -0.11028989477E+04  0.68248627495E+03 -0.20378472987E+04  0.25037582597E+04  0.65864270000E+03 0.  0.
    8880022    1    1    2    0    0  0.11028989477E+04 -0.68248627495E+03  0.61070252377E+03  0.14417083026E+04  0.15294330000E+03 0.  0.
<mgrwt>
<rscale>  0 0.14159590E+04</rscale>
<asrwt>0</asrwt>
<pdfrwt beam="1">  1        2 0.41327779E+00 0.14546422E+04</pdfrwt>
<pdfrwt beam="2">  1       -2 0.19371706E+00 0.14546422E+04</pdfrwt>
<totfact> 0.37465376E-01</totfact>
</mgrwt>
</event>
<event>
 4    1  0.6502538E-008  0.7873612E+03  0.7818608E-02  0.9738821E-01
          2   -1    0    0  501    0  0.00000000000E+00  0.00000000000E+00  0.98964323281E+03  0.98964323281E+03  0.25500000000E-02 0. -1.
         -2   -1    0    0    0  501 -0.00000000000E+00 -0.00000000000E+00 -0.84356335234E+03  0.84356335235E+03  0.25500000000E-02 0.  1.
    8880023    1    1    2    0    0 -0.25366435575E+03 -0.34897246093E+03  0.74192167605E+03  0.10818435023E+04  0.65864270000E+03 0. -1.
    8880022    1    1    2    0    0  0.25366435575E+03  0.34897246093E+03 -0.59584179558E+03  0.75136308283E+03  0.15294330000E+03 0.  0.
<mgrwt>
<rscale>  0 0.68751697E+03</rscale>
<asrwt>0</asrwt>
<pdfrwt beam="1">  1        2 0.15225280E+00 0.78736116E+03</pdfrwt>
<pdfrwt beam="2">  1       -2 0.12977898E+00 0.78736116E+03</pdfrwt>
<totfact> 0.11300759E+01</totfact>
</mgrwt>
</event>
<event>
 4    1  0.6502538E-008  0.1207091E+04  0.7818608E-02  0.9150260E-01
         -2   -1    0    0    0  501 -0.00000000000E+00  0.00000000000E+00  0.57930751229E+03  0.57930751229E+03  0.25500000000E-02 0.  1.
          2   -1    0    0  501    0  0.00000000000E+00 -0.00000000000E+00 -0.26992078097E+04  0.26992078097E+04  0.25500000000E-02 0. -1.
    8880023    1    1    2    0    0  0.10078638726E+04  0.86421725955E+02 -0.38962433361E+03  0.12684146120E+04  0.65864270000E+03 0.  0.
    8880022    1    1    2    0    0 -0.10078638726E+04 -0.86421725955E+02 -0.17302759638E+04  0.20101007100E+04  0.15294330000E+03 0.  0.
<mgrwt>
<rscale>  0 0.11581910E+04</rscale>
<asrwt>0</asrwt>
<pdfrwt beam="1">  1        2 0.41526273E+00 0.12070909E+04</pdfrwt>
<pdfrwt beam="2">  1       -2 0.89124235E-01 0.12070909E+04</pdfrwt>
<totfact> 0.28351709E+00</totfact>
</mgrwt>
</event>
<event>
 4    1  0.6502538E-008  0.6877938E+03  0.7818608E-02  0.1005219E+00
          2   -1    0    0  501    0  0.00000000000E+00  0.00000000000E+00  0.32092596830E+04  0.32092596830E+04  0.25500000000E-02 0. -1.
         -2   -1    0    0    0  501 -0.00000000000E+00 -0.00000000000E+00 -0.63714049196E+03  0.63714049197E+03  0.25500000000E-02 0.  1.
    8880023    1    1    2    0    0 -0.11774897395E+03 -0.15932764979E+03  0.31460050069E+04  0.32203117598E+04  0.65864270000E+03 0. -1.
    8880022    1    1    2    0    0  0.11774897395E+03  0.15932764979E+03 -0.57388581588E+03  0.62608841511E+03  0.15294330000E+03 0.  0.
<mgrwt>
<rscale>  0 0.53419732E+03</rscale>
<asrwt>0</asrwt>
<pdfrwt beam="1">  1        2 0.49373226E+00 0.68779381E+03</pdfrwt>
<pdfrwt beam="2">  1       -2 0.98021614E-01 0.68779381E+03</pdfrwt>
<totfact> 0.12093498E+00</totfact>
</mgrwt>
</event>
<event>
 4    1  0.6502538E-008  0.7153195E+03  0.7818608E-02  0.9938753E-01
          2   -1    0    0  501    0  0.00000000000E+00  0.00000000000E+00  0.85019441301E+03  0.85019441301E+03  0.25500000000E-02 0. -1.
         -2   -1    0    0    0  501 -0.00000000000E+00 -0.00000000000E+00 -0.44078883347E+03  0.44078883348E+03  0.25500000000E-02 0.  1.
    8880023    1    1    2    0    0  0.25008716918E+03 -0.12380728736E+03  0.58808894059E+03  0.92602950542E+03  0.65864270000E+03 0. -1.
    8880022    1    1    2    0    0 -0.25008716918E+03  0.12380728736E+03 -0.17868336106E+03  0.36495374108E+03  0.15294330000E+03 0.  0.
<mgrwt>
<rscale>  0 0.58419344E+03</rscale>
<asrwt>0</asrwt>
<pdfrwt beam="1">  1        2 0.13079914E+00 0.71531954E+03</pdfrwt>
<pdfrwt beam="2">  1       -2 0.67813667E-01 0.71531954E+03</pdfrwt>
<totfact> 0.64243039E+01</totfact>
</mgrwt>
</event>
<event>
 4    1  0.6502538E-008  0.7565250E+03  0.7818608E-02  0.9814188E-01
          2   -1    0    0  501    0  0.00000000000E+00  0.00000000000E+00  0.23738690048E+04  0.23738690048E+04  0.25500000000E-02 0. -1.
         -2   -1    0    0    0  501 -0.00000000000E+00 -0.00000000000E+00 -0.22064383598E+03  0.22064383600E+03  0.25500000000E-02 0.  1.
    8880023    1    1    2    0    0  0.22389278021E+03  0.29730777776E+03  0.20411141115E+04  0.21768042893E+04  0.65864270000E+03 0. -1.
    8880022    1    1    2    0    0 -0.22389278021E+03 -0.29730777776E+03  0.11211105730E+03  0.41770855142E+03  0.15294330000E+03 0.  0.
<mgrwt>
<rscale>  0 0.64606646E+03</rscale>
<asrwt>0</asrwt>
<pdfrwt beam="1">  1        2 0.36521062E+00 0.75652501E+03</pdfrwt>
<pdfrwt beam="2">  1       -2 0.33945205E-01 0.75652501E+03</pdfrwt>
<totfact> 0.34713813E+01</totfact>
</mgrwt>
</event>
<event>
 4    1  0.6502538E-008  0.1207589E+04  0.7818608E-02  0.9149780E-01
          2   -1    0    0  501    0  0.00000000000E+00  0.00000000000E+00  0.40286271153E+04  0.40286271153E+04  0.25500000000E-02 0. -1.
         -2   -1    0    0    0  501 -0.00000000000E+00 -0.00000000000E+00 -0.57337450689E+03  0.57337450690E+03  0.25500000000E-02 0.  1.
    8880023    1    1    2    0    0  0.71890957406E+03 -0.71248184288E+03  0.33641345899E+04  0.35743073591E+04  0.65864270000E+03 0.  0.
    8880022    1    1    2    0    0 -0.71890957406E+03  0.71248184288E+03  0.91118018512E+02  0.10276942631E+04  0.15294330000E+03 0.  0.
<mgrwt>
<rscale>  0 0.11587158E+04</rscale>
<asrwt>0</asrwt>
<pdfrwt beam="1">  1        2 0.61978878E+00 0.12075892E+04</pdfrwt>
<pdfrwt beam="2">  1       -2 0.88211464E-01 0.12075892E+04</pdfrwt>
<totfact> 0.36424688E-01</totfact>
</mgrwt>
</event>
<event>
 4    1  0.6502538E-008  0.9160186E+03  0.7818608E-02  0.9500791E-01
         -2   -1    0    0    0  501 -0.00000000000E+00  0.00000000000E+00  0.36984496927E+03  0.36984496928E+03  0.25500000000E-02 0.  1.
          2   -1    0    0  501    0  0.00000000000E+00 -0.00000000000E+00 -0.22903265952E+04  0.22903265952E+04  0.25500000000E-02 0. -1.
    8880023    1    1    2    0    0  0.52588732322E+03 -0.35877910058E+03 -0.17629957331E+04  0.19867672437E+04  0.65864270000E+03 0.  0.
    8880022    1    1    2    0    0 -0.52588732322E+03  0.35877910058E+03 -0.15748589289E+03  0.67340432076E+03  0.15294330000E+03 0.  0.
<mgrwt>
<rscale>  0 0.84225542E+03</rscale>
<asrwt>0</asrwt>
<pdfrwt beam="1">  1        2 0.35235793E+00 0.91601863E+03</pdfrwt>
<pdfrwt beam="2">  1       -2 0.56899227E-01 0.91601863E+03</pdfrwt>
<totfact> 0.13540487E+01</totfact>
</mgrwt>
</event>
<event>
 4    1  0.6502538E-008  0.7091208E+03  0.7818608E-02  0.9961280E-01
          2   -1    0    0  501    0  0.00000000000E+00  0.00000000000E+00  0.90791780465E+03  0.90791780465E+03  0.25500000000E-02 0. -1.
         -2   -1    0    0    0  501 -0.00000000000E+00 -0.00000000000E+00 -0.83362966934E+03  0.83362966934E+03  0.25500000000E-02 0.  1.
    8880023    1    1    2    0    0 -0.67818724175E+02  0.25385564184E+03  0.73065337791E+03  0.10181879154E+04  0.65864270000E+03 0. -1.
    8880022    1    1    2    0    0  0.67818724175E+02 -0.25385564184E+03 -0.65636524260E+03  0.72335955855E+03  0.15294330000E+03 0.  0.
<mgrwt>
<rscale>  0 0.57381112E+03</rscale>
<asrwt>0</asrwt>
<pdfrwt beam="1">  1        2 0.13967966E+00 0.70912077E+03</pdfrwt>
<pdfrwt beam="2">  1       -2 0.12825072E+00 0.70912077E+03</pdfrwt>
<totfact> 0.13288356E+01</totfact>
</mgrwt>
</event>
<event>
 4    1  0.6502538E-008  0.8656406E+03  0.7818608E-02  0.9583608E-01
          2   -1    0    0  501    0  0.00000000000E+00  0.00000000000E+00  0.54494907075E+03  0.54494907076E+03  0.25500000000E-02 0. -1.
         -2   -1    0    0    0  501 -0.00000000000E+00 -0.00000000000E+00 -0.10626297367E+04  0.10626297367E+04  0.25500000000E-02 0.  1.
    8880023    1    1    2    0    0 -0.98470596952E+02  0.55301618367E+03 -0.61223213843E+02  0.86780288432E+03  0.65864270000E+03 0.  0.
    8880022    1    1    2    0    0  0.98470596952E+02 -0.55301618367E+03 -0.45645745210E+03  0.73977592314E+03  0.15294330000E+03 0.  0.
<mgrwt>
<rscale>  0 0.78390700E+03</rscale>
<asrwt>0</asrwt>
<pdfrwt beam="1">  1        2 0.83838319E-01 0.86564055E+03</pdfrwt>
<pdfrwt beam="2">  1       -2 0.16348150E+00 0.86564055E+03</pdfrwt>
<totfact> 0.13276468E+01</totfact>
</mgrwt>
</event>
<event>
 4    1  0.6502538E-008  0.7899183E+03  0.7818608E-02  0.9733034E-01
          2   -1    0    0  501    0  0.00000000000E+00  0.00000000000E+00  0.17913082213E+04  0.17913082213E+04  0.25500000000E-02 0. -1.
         -2   -1    0    0    0  501 -0.00000000000E+00 -0.00000000000E+00 -0.34380578545E+03  0.34380578546E+03  0.25500000000E-02 0.  1.
    8880023    1    1    2    0    0  0.26032296922E+03 -0.34984653073E+03  0.14739147151E+04  0.16722426370E+04  0.65864270000E+03 0.  0.
    8880022    1    1    2    0    0 -0.26032296922E+03  0.34984653073E+03 -0.26412279314E+02  0.46287136970E+03  0.15294330000E+03 0.  0.
<mgrwt>
<rscale>  0 0.69083550E+03</rscale>
<asrwt>0</asrwt>
<pdfrwt beam="1">  1        2 0.27558589E+00 0.78991826E+03</pdfrwt>
<pdfrwt beam="2">  1       -2 0.52893196E-01 0.78991826E+03</pdfrwt>
<totfact> 0.30106528E+01</totfact>
</mgrwt>
</event>
<event>
 4    1  0.6502538E-008  0.8789221E+03  0.7818608E-02  0.9560753E-01
          2   -1    0    0  501    0  0.00000000000E+00  0.00000000000E+00  0.22267847311E+04  0.22267847311E+04  0.25500000000E-02 0. -1.
         -2   -1    0    0    0  501 -0.00000000000E+00 -0.00000000000E+00 -0.61407487325E+03  0.61407487326E+03  0.25500000000E-02 0.  1.
    8880023    1    1    2    0    0 -0.44084619261E+03 -0.37993224099E+03 -0.22489783283E+03  0.90723928197E+03  0.65864270000E+03 0.  0.
    8880022    1    1    2    0    0  0.44084619261E+03  0.37993224099E+03  0.18376076907E+04  0.19336203224E+04  0.15294330000E+03 0.  0.
<mgrwt>
<rscale>  0 0.79949212E+03</rscale>
<asrwt>0</asrwt>
<pdfrwt beam="1">  1        2 0.34258227E+00 0.87892211E+03</pdfrwt>
<pdfrwt beam="2">  1       -2 0.94473057E-01 0.87892211E+03</pdfrwt>
<totfact> 0.48075757E+00</totfact>
</mgrwt>
</event>
<event>
 4    1  0.6502538E-008  0.9173261E+03  0.7818608E-02  0.9498771E-01
         -2   -1    0    0    0  501 -0.00000000000E+00  0.00000000000E+00  0.40527047529E+03  0.40527047530E+03  0.25500000000E-02 0.  1.
          2   -1    0    0  501    0  0.00000000000E+00 -0.00000000000E+00 -0.18777521558E+04  0.18777521558E+04  0.25500000000E-02 0. -1.
    8880023    1    1    2    0    0 -0.42261491782E+03 -0.47861637820E+03 -0.13225845519E+04  0.16095704736E+04  0.65864270000E+03 0.  0.
    8880022    1    1    2    0    0  0.42261491782E+03  0.47861637820E+03 -0.14989712856E+03  0.67345215747E+03  0.15294330000E+03 0.  0.
<mgrwt>
<rscale>  0 0.84374483E+03</rscale>
<asrwt>0</asrwt>
<pdfrwt beam="1">  1        2 0.28888494E+00 0.91732612E+03</pdfrwt>
<pdfrwt beam="2">  1       -2 0.62349305E-01 0.91732612E+03</pdfrwt>
<totfact> 0.18847222E+01</totfact>
</mgrwt>
</event>
<event>
 4    1  0.6502538E-008  0.6803488E+03  0.7818608E-02  0.1009127E+00
         -2   -1    0    0    0  501 -0.00000000000E+00  0.00000000000E+00  0.81349719698E+03  0.81349719698E+03  0.25500000000E-02 0.  1.
          2   -1    0    0  501    0  0.00000000000E+00 -0.00000000000E+00 -0.29351963837E+03  0.29351963839E+03  0.25500000000E-02 0. -1.
    8880023    1    1    2    0    0  0.14729818507E+03 -0.85834453877E+02  0.19188434325E+03  0.70689045562E+03  0.65864270000E+03 0.  0.
    8880022    1    1    2    0    0 -0.14729818507E+03  0.85834453877E+02  0.32809321535E+03  0.40012637975E+03  0.15294330000E+03 0.  0.
<mgrwt>
<rscale>  0 0.51823064E+03</rscale>
<asrwt>0</asrwt>
<pdfrwt beam="1">  1        2 0.45156867E-01 0.68034882E+03</pdfrwt>
<pdfrwt beam="2">  1       -2 0.12515341E+00 0.68034882E+03</pdfrwt>
<totfact> 0.54557506E+01</totfact>
</mgrwt>
</event>
<event>
 4    1  0.6502538E-008  0.8612270E+03  0.7818608E-02  0.9591384E-01
          2   -1    0    0  501    0  0.00000000000E+00  0.00000000000E+00  0.17206841548E+04  0.17206841548E+04  0.25500000000E-02 0. -1.
         -2   -1    0    0    0  501 -0.00000000000E+00 -0.00000000000E+00 -0.10969523502E+04  0.10969523502E+04  0.25500000000E-02 0.  1.
    8880023    1    1    2    0    0  0.43789854234E+03 -0.34080298248E+03  0.15231747580E+04  0.17497923751E+04  0.65864270000E+03 0.  0.
    8880022    1    1    2    0    0 -0.43789854234E+03  0.34080298248E+03 -0.89944295338E+03  0.10678441299E+04  0.15294330000E+03 0.  0.
<mgrwt>
<rscale>  0 0.77869045E+03</rscale>
<asrwt>0</asrwt>
<pdfrwt beam="1">  1        2 0.26472064E+00 0.86122704E+03</pdfrwt>
<pdfrwt beam="2">  1       -2 0.16876190E+00 0.86122704E+03</pdfrwt>
<totfact> 0.21066413E+00</totfact>
</mgrwt>
</event>
<event>
 4    1  0.6502538E-008  0.8426710E+03  0.7818608E-02  0.9625164E-01
         -2   -1    0    0    0  501 -0.00000000000E+00  0.00000000000E+00  0.24385788131E+03  0.24385788133E+03  0.25500000000E-02 0.  1.
          2   -1    0    0  501    0  0.00000000000E+00 -0.00000000000E+00 -0.25651095964E+04  0.25651095964E+04  0.25500000000E-02 0. -1.
    8880023    1    1    2    0    0  0.36437413676E+03 -0.37883462492E+03 -0.20094118143E+04  0.21789516356E+04  0.65864270000E+03 0. -1.
    8880022    1    1    2    0    0 -0.36437413676E+03  0.37883462492E+03 -0.31183990076E+03  0.63001584210E+03  0.15294330000E+03 0.  0.
<mgrwt>
<rscale>  0 0.75652798E+03</rscale>
<asrwt>0</asrwt>
<pdfrwt beam="1">  1        2 0.39463223E+00 0.84267099E+03</pdfrwt>
<pdfrwt beam="2">  1       -2 0.37516599E-01 0.84267099E+03</pdfrwt>
<totfact> 0.22081964E+01</totfact>
</mgrwt>
</event>
<event>
 4    1  0.6502538E-008  0.7088182E+03  0.7818608E-02  0.9962416E-01
          2   -1    0    0  501    0  0.00000000000E+00  0.00000000000E+00  0.27427366811E+04  0.27427366811E+04  0.25500000000E-02 0. -1.
         -2   -1    0    0    0  501 -0.00000000000E+00 -0.00000000000E+00 -0.80485058388E+03  0.80485058388E+03  0.25500000000E-02 0.  1.
    8880023    1    1    2    0    0 -0.23966613505E+03  0.10570356884E+03  0.26661060532E+04  0.27587215869E+04  0.65864270000E+03 0. -1.
    8880022    1    1    2    0    0  0.23966613505E+03 -0.10570356884E+03 -0.72821995599E+03  0.78886567809E+03  0.15294330000E+03 0.  0.
<mgrwt>
<rscale>  0 0.57329407E+03</rscale>
<asrwt>0</asrwt>
<pdfrwt beam="1">  1        2 0.42195949E+00 0.70881825E+03</pdfrwt>
<pdfrwt beam="2">  1       -2 0.12382317E+00 0.70881825E+03</pdfrwt>
<totfact> 0.13137069E+00</totfact>
</mgrwt>
</event>
<event>
 4    1  0.6502538E-008  0.6885028E+03  0.7818608E-02  0.1004872E+00
         -2   -1    0    0    0  501 -0.00000000000E+00  0.00000000000E+00  0.77673921237E+03  0.77673921237E+03  0.25500000000E-02 0.  1.
          2   -1    0    0  501    0  0.00000000000E+00 -0.00000000000E+00 -0.74138279035E+03  0.74138279036E+03  0.25500000000E-02 0. -1.
    8880023    1    1    2    0    0 -0.11304234733E+03  0.16567222385E+03 -0.54969148384E+03  0.88102031288E+03  0.65864270000E+03 0. -1.
    8880022    1    1    2    0    0  0.11304234733E+03 -0.16567222385E+03  0.58504790586E+03  0.63710168985E+03  0.15294330000E+03 0.  0.
<mgrwt>
<rscale>  0 0.53564413E+03</rscale>
<asrwt>0</asrwt>
<pdfrwt beam="1">  1        2 0.11405889E+00 0.68850277E+03</pdfrwt>
<pdfrwt beam="2">  1       -2 0.11949834E+00 0.68850277E+03</pdfrwt>
<totfact> 0.20838763E+01</totfact>
</mgrwt>
</event>
<event>
 4    1  0.6502538E-008  0.7093877E+03  0.7818608E-02  0.9960282E-01
          2   -1    0    0  501    0  0.00000000000E+00  0.00000000000E+00  0.15003576106E+04  0.15003576106E+04  0.25500000000E-02 0. -1.
         -2   -1    0    0    0  501 -0.00000000000E+00 -0.00000000000E+00 -0.41377542086E+03  0.41377542087E+03  0.25500000000E-02 0.  1.
    8880023    1    1    2    0    0  0.24072668424E+03 -0.10710459578E+03  0.13410953763E+04  0.15171577853E+04  0.65864270000E+03 0. -1.
    8880022    1    1    2    0    0 -0.24072668424E+03  0.10710459578E+03 -0.25451318654E+03  0.39697524618E+03  0.15294330000E+03 0.  0.
<mgrwt>
<rscale>  0 0.57426651E+03</rscale>
<asrwt>0</asrwt>
<pdfrwt beam="1">  1        2 0.23082425E+00 0.70938772E+03</pdfrwt>
<pdfrwt beam="2">  1       -2 0.63657757E-01 0.70938772E+03</pdfrwt>
<totfact> 0.29786328E+01</totfact>
</mgrwt>
</event>
<event>
 4    1  0.6502538E-008  0.1009872E+04  0.7818608E-02  0.9368755E-01
         -2   -1    0    0    0  501 -0.00000000000E+00  0.00000000000E+00  0.47129488664E+03  0.47129488665E+03  0.25500000000E-02 0.  1.
          2   -1    0    0  501    0  0.00000000000E+00 -0.00000000000E+00 -0.20099903658E+04  0.20099903658E+04  0.25500000000E-02 0. -1.
    8880023    1    1    2    0    0 -0.58839086686E+03  0.48972127097E+03 -0.13360177506E+04  0.16747490474E+04  0.65864270000E+03 0.  0.
    8880022    1    1    2    0    0  0.58839086686E+03 -0.48972127097E+03 -0.20267772855E+03  0.80653620508E+03  0.15294330000E+03 0.  0.
<mgrwt>
<rscale>  0 0.94692257E+03</rscale>
<asrwt>0</asrwt>
<pdfrwt beam="1">  1        2 0.30922928E+00 0.10098717E+04</pdfrwt>
<pdfrwt beam="2">  1       -2 0.72506907E-01 0.10098717E+04</pdfrwt>
<totfact> 0.11370995E+01</totfact>
</mgrwt>
</event>
<event>
 4    1  0.6502538E-008  0.7731719E+03  0.7818608E-02  0.9772128E-01
         -2   -1    0    0    0  501 -0.00000000000E+00  0.00000000000E+00  0.70043993774E+03  0.70043993775E+03  0.25500000000E-02 0.  1.
          2   -1    0    0  501    0  0.00000000000E+00 -0.00000000000E+00 -0.15016472970E+04  0.15016472970E+04  0.25500000000E-02 0. -1.
    8880023    1    1    2    0    0 -0.33310919731E+03  0.23026697569E+03 -0.13179468301E+04  0.15279982561E+04  0.65864270000E+03 0. -1.
    8880022    1    1    2    0    0  0.33310919731E+03 -0.23026697569E+03  0.51673947083E+03  0.67408897866E+03  0.15294330000E+03 0.  0.
<mgrwt>
<rscale>  0 0.66880018E+03</rscale>
<asrwt>0</asrwt>
<pdfrwt beam="1">  1        2 0.23102266E+00 0.77317192E+03</pdfrwt>
<pdfrwt beam="2">  1       -2 0.10775999E+00 0.77317192E+03</pdfrwt>
<totfact> 0.89359944E+00</totfact>
</mgrwt>
</event>
<event>
 4    1  0.6502538E-008  0.7967186E+03  0.7818608E-02  0.9717937E-01
          2   -1    0    0  501    0  0.00000000000E+00  0.00000000000E+00  0.17742960817E+04  0.17742960817E+04  0.25500000000E-02 0. -1.
         -2   -1    0    0    0  501 -0.00000000000E+00 -0.00000000000E+00 -0.77566058047E+03  0.77566058048E+03  0.25500000000E-02 0.  1.
    8880023    1    1    2    0    0  0.17964010494E+03 -0.41070642778E+03  0.15982581006E+04  0.17858301989E+04  0.65864270000E+03 0. -1.
    8880022    1    1    2    0    0 -0.17964010494E+03  0.41070642778E+03 -0.59962259936E+03  0.76412646323E+03  0.15294330000E+03 0.  0.
<mgrwt>
<rscale>  0 0.69958831E+03</rscale>
<asrwt>0</asrwt>
<pdfrwt beam="1">  1        2 0.27296862E+00 0.79671861E+03</pdfrwt>
<pdfrwt beam="2">  1       -2 0.11933240E+00 0.79671861E+03</pdfrwt>
<totfact> 0.49141719E+00</totfact>
</mgrwt>
</event>
<event>
 4    1  0.6502538E-008  0.1286585E+04  0.7818608E-02  0.9077232E-01
          2   -1    0    0  501    0  0.00000000000E+00  0.00000000000E+00  0.23228766351E+04  0.23228766351E+04  0.25500000000E-02 0. -1.
         -2   -1    0    0    0  501 -0.00000000000E+00 -0.00000000000E+00 -0.94783260352E+03  0.94783260352E+03  0.25500000000E-02 0.  1.
    8880023    1    1    2    0    0  0.61840051358E+03 -0.91600836369E+03  0.16780917428E+04  0.21145431235E+04  0.65864270000E+03 0.  0.
    8880022    1    1    2    0    0 -0.61840051358E+03  0.91600836369E+03 -0.30304771120E+03  0.11561661152E+04  0.15294330000E+03 0.  0.
<mgrwt>
<rscale>  0 0.12415662E+04</rscale>
<asrwt>0</asrwt>
<pdfrwt beam="1">  1        2 0.35736563E+00 0.12865849E+04</pdfrwt>
<pdfrwt beam="2">  1       -2 0.14582040E+00 0.12865849E+04</pdfrwt>
<totfact> 0.13726307E+00</totfact>
</mgrwt>
</event>
<event>
 4    1  0.6502538E-008  0.8817249E+03  0.7818608E-02  0.9556030E-01
          2   -1    0    0  501    0  0.00000000000E+00  0.00000000000E+00  0.85574182098E+03  0.85574182098E+03  0.25500000000E-02 0. -1.
         -2   -1    0    0    0  501 -0.00000000000E+00 -0.00000000000E+00 -0.12147185062E+04  0.12147185062E+04  0.25500000000E-02 0.  1.
    8880023    1    1    2    0    0  0.58528017377E+03  0.32798595818E+02  0.50434951053E+03  0.10157791417E+04  0.65864270000E+03 0. -1.
    8880022    1    1    2    0    0 -0.58528017377E+03 -0.32798595818E+02 -0.86332619573E+03  0.10546811855E+04  0.15294330000E+03 0.  0.
<mgrwt>
<rscale>  0 0.80276069E+03</rscale>
<asrwt>0</asrwt>
<pdfrwt beam="1">  1        2 0.13165259E+00 0.88172492E+03</pdfrwt>
<pdfrwt beam="2">  1       -2 0.18687977E+00 0.88172492E+03</pdfrwt>
<totfact> 0.51385634E+00</totfact>
</mgrwt>
</event>
<event>
 4    1  0.6502538E-008  0.1047925E+04  0.7818608E-02  0.9321379E-01
          2   -1    0    0  501    0  0.00000000000E+00  0.00000000000E+00  0.19961606951E+04  0.19961606951E+04  0.25500000000E-02 0. -1.
         -2   -1    0    0    0  501 -0.00000000000E+00 -0.00000000000E+00 -0.50582888420E+03  0.50582888421E+03  0.25500000000E-02 0.  1.
    8880023    1    1    2    0    0 -0.78303553382E+03  0.22625826523E+03  0.12649111627E+04  0.16426040015E+04  0.65864270000E+03 0. -1.
    8880022    1    1    2    0    0  0.78303553382E+03 -0.22625826523E+03  0.22542064822E+03  0.85938557788E+03  0.15294330000E+03 0.  1.
<mgrwt>
<rscale>  0 0.98838228E+03</rscale>
<asrwt>0</asrwt>
<pdfrwt beam="1">  1        2 0.30710164E+00 0.10479254E+04</pdfrwt>
<pdfrwt beam="2">  1       -2 0.77819828E-01 0.10479254E+04</pdfrwt>
<totfact> 0.98452577E+00</totfact>
</mgrwt>
</event>
<event>
 4    1  0.6502538E-008  0.1456239E+04  0.7818608E-02  0.8941171E-01
         -2   -1    0    0    0  501 -0.00000000000E+00  0.00000000000E+00  0.62324255199E+03  0.62324255199E+03  0.25500000000E-02 0.  1.
          2   -1    0    0  501    0  0.00000000000E+00 -0.00000000000E+00 -0.31240311505E+04  0.31240311505E+04  0.25500000000E-02 0. -1.
    8880023    1    1    2    0    0 -0.12585075532E+04 -0.32090754708E+03 -0.15746163157E+04  0.21447726367E+04  0.65864270000E+03 0.  0.
    8880022    1    1    2    0    0  0.12585075532E+04  0.32090754708E+03 -0.92617228286E+03  0.16025010658E+04  0.15294330000E+03 0.  0.
<mgrwt>
<rscale>  0 0.14176072E+04</rscale>
<asrwt>0</asrwt>
<pdfrwt beam="1">  1        2 0.48062017E+00 0.14562394E+04</pdfrwt>
<pdfrwt beam="2">  1       -2 0.95883472E-01 0.14562394E+04</pdfrwt>
<totfact> 0.12757373E+00</totfact>
</mgrwt>
</event>
<event>
 4    1  0.6502538E-008  0.1572099E+04  0.7818608E-02  0.8860334E-01
          2   -1    0    0  501    0  0.00000000000E+00  0.00000000000E+00  0.22518146847E+04  0.22518146847E+04  0.25500000000E-02 0. -1.
         -2   -1    0    0    0  501 -0.00000000000E+00 -0.00000000000E+00 -0.11568309553E+04  0.11568309553E+04  0.25500000000E-02 0.  1.
    8880023    1    1    2    0    0 -0.45222267197E+03 -0.13539496623E+04  0.11872480664E+04  0.19700388855E+04  0.65864270000E+03 0.  0.
    8880022    1    1    2    0    0  0.45222267197E+03  0.13539496623E+04 -0.92264336921E+02  0.14386067544E+04  0.15294330000E+03 0.  0.
<mgrwt>
<rscale>  0 0.15368153E+04</rscale>
<asrwt>0</asrwt>
<pdfrwt beam="1">  1        2 0.34643303E+00 0.15720990E+04</pdfrwt>
<pdfrwt beam="2">  1       -2 0.17797399E+00 0.15720990E+04</pdfrwt>
<totfact> 0.84485586E-01</totfact>
</mgrwt>
</event>
<event>
 4    1  0.6502538E-008  0.1046578E+04  0.7818608E-02  0.9323006E-01
          2   -1    0    0  501    0  0.00000000000E+00  0.00000000000E+00  0.13549308871E+04  0.13549308871E+04  0.25500000000E-02 0. -1.
         -2   -1    0    0    0  501 -0.00000000000E+00 -0.00000000000E+00 -0.13097619600E+04  0.13097619600E+04  0.25500000000E-02 0.  1.
    8880023    1    1    2    0    0  0.68291955101E+03  0.44174289447E+03  0.96766370126E+03  0.14253768424E+04  0.65864270000E+03 0.  0.
    8880022    1    1    2    0    0 -0.68291955101E+03 -0.44174289447E+03 -0.92249477415E+03  0.12393160046E+04  0.15294330000E+03 0.  0.
<mgrwt>
<rscale>  0 0.98692189E+03</rscale>
<asrwt>0</asrwt>
<pdfrwt beam="1">  1        2 0.20845091E+00 0.10465783E+04</pdfrwt>
<pdfrwt beam="2">  1       -2 0.20150184E+00 0.10465783E+04</pdfrwt>
<totfact> 0.19714911E+00</totfact>
</mgrwt>
</event>
<event>
 4    1  0.6502538E-008  0.1045689E+04  0.7818608E-02  0.9324081E-01
         -2   -1    0    0    0  501 -0.00000000000E+00  0.00000000000E+00  0.91739066527E+03  0.91739066528E+03  0.25500000000E-02 0.  1.
          2   -1    0    0  501    0  0.00000000000E+00 -0.00000000000E+00 -0.11250584343E+04  0.11250584343E+04  0.25500000000E-02 0. -1.
    8880023    1    1    2    0    0  0.80843233842E+03  0.78060532098E+02 -0.50870695184E+03  0.11628625291E+04  0.65864270000E+03 0.  0.
    8880022    1    1    2    0    0 -0.80843233842E+03 -0.78060532098E+02  0.30103918277E+03  0.87958657052E+03  0.15294330000E+03 0.  0.
<mgrwt>
<rscale>  0 0.98595809E+03</rscale>
<asrwt>0</asrwt>
<pdfrwt beam="1">  1        2 0.17308591E+00 0.10456895E+04</pdfrwt>
<pdfrwt beam="2">  1       -2 0.14113702E+00 0.10456895E+04</pdfrwt>
<totfact> 0.72999846E+00</totfact>
</mgrwt>
</event>
<event>
 4    1  0.6502538E-008  0.8363542E+03  0.7818608E-02  0.9637093E-01
          2   -1    0    0  501    0  0.00000000000E+00  0.00000000000E+00  0.13662973986E+04  0.13662973986E+04  0.25500000000E-02 0. -1.
         -2   -1    0    0    0  501 -0.00000000000E+00 -0.00000000000E+00 -0.11541336024E+04  0.11541336024E+04  0.25500000000E-02 0.  1.
    8880023    1    1    2    0    0  0.46166347132E+03  0.22922678296E+03  0.11603910161E+04  0.14303830239E+04  0.65864270000E+03 0. -1.
    8880022    1    1    2    0    0 -0.46166347132E+03 -0.22922678296E+03 -0.94822721985E+03  0.10900479770E+04  0.15294330000E+03 0.  0.
<mgrwt>
<rscale>  0 0.74888994E+03</rscale>
<asrwt>0</asrwt>
<pdfrwt beam="1">  1        2 0.21019960E+00 0.83635416E+03</pdfrwt>
<pdfrwt beam="2">  1       -2 0.17755902E+00 0.83635416E+03</pdfrwt>
<totfact> 0.28908627E+00</totfact>
</mgrwt>
</event>
<event>
 4    1  0.6502538E-008  0.7765960E+03  0.7818608E-02  0.9763895E-01
          2   -1    0    0  501    0  0.00000000000E+00  0.00000000000E+00  0.14361869580E+04  0.14361869580E+04  0.25500000000E-02 0. -1.
         -2   -1    0    0    0  501 -0.00000000000E+00 -0.00000000000E+00 -0.10538742758E+04  0.10538742758E+04  0.25500000000E-02 0.  1.
    8880023    1    1    2    0    0 -0.47727203542E+02  0.40867245921E+03  0.12763679969E+04  0.14940604187E+04  0.65864270000E+03 0. -1.
    8880022    1    1    2    0    0  0.47727203542E+02 -0.40867245921E+03 -0.89405531473E+03  0.99600081510E+03  0.15294330000E+03 0.  0.
<mgrwt>
<rscale>  0 0.67336678E+03</rscale>
<asrwt>0</asrwt>
<pdfrwt beam="1">  1        2 0.22095184E+00 0.77659595E+03</pdfrwt>
<pdfrwt beam="2">  1       -2 0.16213450E+00 0.77659595E+03</pdfrwt>
<totfact> 0.34262465E+00</totfact>
</mgrwt>
</event>
<event>
 4    1  0.6502538E-008  0.7483363E+03  0.7818608E-02  0.9836297E-01
          2   -1    0    0  501    0  0.00000000000E+00  0.00000000000E+00  0.48066017074E+03  0.48066017074E+03  0.25500000000E-02 0. -1.
         -2   -1    0    0    0  501 -0.00000000000E+00 -0.00000000000E+00 -0.23825466551E+04  0.23825466551E+04  0.25500000000E-02 0.  1.
    8880023    1    1    2    0    0 -0.16633998343E+03 -0.31389183180E+03  0.16009177892E+03  0.76526900898E+03  0.65864270000E+03 0. -1.
    8880022    1    1    2    0    0  0.16633998343E+03  0.31389183180E+03 -0.20619782633E+04  0.20979378169E+04  0.15294330000E+03 0.  0.
<mgrwt>
<rscale>  0 0.63450491E+03</rscale>
<asrwt>0</asrwt>
<pdfrwt beam="1">  1        2 0.73947720E-01 0.74833634E+03</pdfrwt>
<pdfrwt beam="2">  1       -2 0.36654563E+00 0.74833634E+03</pdfrwt>
<totfact> 0.83312952E-01</totfact>
</mgrwt>
</event>
<event>
 4    1  0.6502538E-008  0.1225477E+04  0.7818608E-02  0.9132746E-01
         -2   -1    0    0    0  501 -0.00000000000E+00  0.00000000000E+00  0.93428877199E+03  0.93428877199E+03  0.25500000000E-02 0.  1.
          2   -1    0    0  501    0  0.00000000000E+00 -0.00000000000E+00 -0.35661230881E+04  0.35661230881E+04  0.25500000000E-02 0. -1.
    8880023    1    1    2    0    0  0.58624526495E+03 -0.85105884485E+03 -0.31164888089E+04  0.33487755031E+04  0.65864270000E+03 0.  0.
    8880022    1    1    2    0    0 -0.58624526495E+03  0.85105884485E+03  0.48465449285E+03  0.11516363569E+04  0.15294330000E+03 0.  0.
<mgrwt>
<rscale>  0 0.11775403E+04</rscale>
<asrwt>0</asrwt>
<pdfrwt beam="1">  1        2 0.54863431E+00 0.12254774E+04</pdfrwt>
<pdfrwt beam="2">  1       -2 0.14373674E+00 0.12254774E+04</pdfrwt>
<totfact> 0.24300555E-01</totfact>
</mgrwt>
</event>
<event>
 4    1  0.6502538E-008  0.1191353E+04  0.7818608E-02  0.9165573E-01
          2   -1    0    0  501    0  0.00000000000E+00  0.00000000000E+00  0.24745441350E+04  0.24745441351E+04  0.25500000000E-02 0. -1.
         -2   -1    0    0    0  501 -0.00000000000E+00 -0.00000000000E+00 -0.85398847309E+03  0.85398847310E+03  0.25500000000E-02 0.  1.
    8880023    1    1    2    0    0  0.98560829945E+03 -0.11869803678E+03  0.19381923714E+04  0.22750632559E+04  0.65864270000E+03 0.  0.
    8880022    1    1    2    0    0 -0.98560829945E+03  0.11869803678E+03 -0.31763670940E+03  0.10534693522E+04  0.15294330000E+03 0.  0.
<mgrwt>
<rscale>  0 0.11415942E+04</rscale>
<asrwt>0</asrwt>
<pdfrwt beam="1">  1        2 0.38069910E+00 0.11913535E+04</pdfrwt>
<pdfrwt beam="2">  1       -2 0.13138284E+00 0.11913535E+04</pdfrwt>
<totfact> 0.14925254E+00</totfact>
</mgrwt>
</event>
<event>
 4    1  0.6502538E-008  0.8139675E+03  0.7818608E-02  0.9681371E-01
          2   -1    0    0  501    0  0.00000000000E+00  0.00000000000E+00  0.60522181962E+03  0.60522181963E+03  0.25500000000E-02 0. -1.
         -2   -1    0    0    0  501 -0.00000000000E+00 -0.00000000000E+00 -0.16622042326E+04  0.16622042326E+04  0.25500000000E-02 0.  1.
    8880023    1    1    2    0    0  0.25656469830E+03 -0.40361789022E+03  0.26281034447E+03  0.85534339837E+03  0.65864270000E+03 0. -1.
    8880022    1    1    2    0    0 -0.25656469830E+03  0.40361789022E+03 -0.13197927574E+04  0.14120826539E+04  0.15294330000E+03 0.  0.
<mgrwt>
<rscale>  0 0.72136849E+03</rscale>
<asrwt>0</asrwt>
<pdfrwt beam="1">  1        2 0.93111050E-01 0.81396748E+03</pdfrwt>
<pdfrwt beam="2">  1       -2 0.25572373E+00 0.81396748E+03</pdfrwt>
<totfact> 0.29729947E+00</totfact>
</mgrwt>
</event>
<event>
 4    1  0.6502538E-008  0.9505471E+03  0.7818608E-02  0.9449327E-01
         -2   -1    0    0    0  501 -0.00000000000E+00  0.00000000000E+00  0.69392886879E+03  0.69392886880E+03  0.25500000000E-02 0.  1.
          2   -1    0    0  501    0  0.00000000000E+00 -0.00000000000E+00 -0.17290299802E+04  0.17290299802E+04  0.25500000000E-02 0. -1.
    8880023    1    1    2    0    0  0.44847291321E+03  0.51826793821E+03  0.22824355303E+03  0.97756582153E+03  0.65864270000E+03 0.  0.
    8880022    1    1    2    0    0 -0.44847291321E+03 -0.51826793821E+03 -0.12633446644E+04  0.14453930274E+04  0.15294330000E+03 0.  0.
<mgrwt>
<rscale>  0 0.88125065E+03</rscale>
<asrwt>0</asrwt>
<pdfrwt beam="1">  1        2 0.26600461E+00 0.95054711E+03</pdfrwt>
<pdfrwt beam="2">  1       -2 0.10675829E+00 0.95054711E+03</pdfrwt>
<totfact> 0.66905508E+00</totfact>
</mgrwt>
</event>
<event>
 4    1  0.6502538E-008  0.9773069E+03  0.7818608E-02  0.9411868E-01
          2   -1    0    0  501    0  0.00000000000E+00  0.00000000000E+00  0.10489919310E+04  0.10489919310E+04  0.25500000000E-02 0. -1.
         -2   -1    0    0    0  501 -0.00000000000E+00 -0.00000000000E+00 -0.11146306805E+04  0.11146306805E+04  0.25500000000E-02 0.  1.
    8880023    1    1    2    0    0  0.42902527605E+03 -0.58073743826E+03  0.61906582301E+03  0.11568800107E+04  0.65864270000E+03 0.  0.
    8880022    1    1    2    0    0 -0.42902527605E+03  0.58073743826E+03 -0.68470457249E+03  0.10067426008E+04  0.15294330000E+03 0.  0.
<mgrwt>
<rscale>  0 0.91105362E+03</rscale>
<asrwt>0</asrwt>
<pdfrwt beam="1">  1        2 0.16138337E+00 0.97730695E+03</pdfrwt>
<pdfrwt beam="2">  1       -2 0.17148164E+00 0.97730695E+03</pdfrwt>
<totfact> 0.48450702E+00</totfact>
</mgrwt>
</event>
<event>
 4    1  0.6502538E-008  0.8716795E+03  0.7818608E-02  0.9573116E-01
          2   -1    0    0  501    0  0.00000000000E+00  0.00000000000E+00  0.18442688268E+04  0.18442688268E+04  0.25500000000E-02 0. -1.
         -2   -1    0    0    0  501 -0.00000000000E+00 -0.00000000000E+00 -0.41019787244E+03  0.41019787245E+03  0.25500000000E-02 0.  1.
    8880023    1    1    2    0    0 -0.15320777666E+02  0.57077153993E+03  0.14163545227E+04  0.16630950716E+04  0.65864270000E+03 0. -1.
    8880022    1    1    2    0    0  0.15320777666E+02 -0.57077153993E+03  0.17716431679E+02  0.59137162765E+03  0.15294330000E+03 0.  0.
<mgrwt>
<rscale>  0 0.79101367E+03</rscale>
<asrwt>0</asrwt>
<pdfrwt beam="1">  1        2 0.28373366E+00 0.87167946E+03</pdfrwt>
<pdfrwt beam="2">  1       -2 0.63107366E-01 0.87167946E+03</pdfrwt>
<totfact> 0.19257018E+01</totfact>
</mgrwt>
</event>
<event>
 4    1  0.6502538E-008  0.7443045E+03  0.7818608E-02  0.9847581E-01
         -2   -1    0    0    0  501 -0.00000000000E+00  0.00000000000E+00  0.13589598428E+04  0.13589598428E+04  0.25500000000E-02 0.  1.
          2   -1    0    0  501    0  0.00000000000E+00 -0.00000000000E+00 -0.10327612876E+04  0.10327612876E+04  0.25500000000E-02 0. -1.
    8880023    1    1    2    0    0 -0.34122695894E+03  0.61181804945E+02 -0.86533033913E+03  0.11413964486E+04  0.65864270000E+03 0. -1.
    8880022    1    1    2    0    0  0.34122695894E+03 -0.61181804945E+02  0.11915288943E+04  0.12503246818E+04  0.15294330000E+03 0.  0.
<mgrwt>
<rscale>  0 0.62870401E+03</rscale>
<asrwt>0</asrwt>
<pdfrwt beam="1">  1        2 0.15888635E+00 0.74430455E+03</pdfrwt>
<pdfrwt beam="2">  1       -2 0.20907074E+00 0.74430455E+03</pdfrwt>
<totfact> 0.28620320E+00</totfact>
</mgrwt>
</event>
<event>
 4    1  0.6502538E-008  0.7263426E+03  0.7818608E-02  0.9901681E-01
          2   -1    0    0  501    0  0.00000000000E+00  0.00000000000E+00  0.14026584107E+04  0.14026584107E+04  0.25500000000E-02 0. -1.
         -2   -1    0    0    0  501 -0.00000000000E+00 -0.00000000000E+00 -0.12071005301E+04  0.12071005301E+04  0.25500000000E-02 0.  1.
    8880023    1    1    2    0    0 -0.30843798224E+02 -0.30465076849E+03  0.12804705401E+04  0.14721339752E+04  0.65864270000E+03 0. -1.
    8880022    1    1    2    0    0  0.30843798224E+02  0.30465076849E+03 -0.10849126595E+04  0.11376249656E+04  0.15294330000E+03 0.  0.
<mgrwt>
<rscale>  0 0.60179878E+03</rscale>
<asrwt>0</asrwt>
<pdfrwt beam="1">  1        2 0.21579360E+00 0.72634264E+03</pdfrwt>
<pdfrwt beam="2">  1       -2 0.18570777E+00 0.72634264E+03</pdfrwt>
<totfact> 0.24671848E+00</totfact>
</mgrwt>
</event>
<event>
 4    1  0.6502538E-008  0.8545059E+03  0.7818608E-02  0.9603412E-01
          2   -1    0    0  501    0  0.00000000000E+00  0.00000000000E+00  0.19752036005E+04  0.19752036005E+04  0.25500000000E-02 0. -1.
         -2   -1    0    0    0  501 -0.00000000000E+00 -0.00000000000E+00 -0.98541398123E+03  0.98541398123E+03  0.25500000000E-02 0.  1.
    8880023    1    1    2    0    0  0.38869986112E+03  0.38115952455E+03  0.17884112976E+04  0.19820684501E+04  0.65864270000E+03 0. -1.
    8880022    1    1    2    0    0 -0.38869986112E+03 -0.38115952455E+03 -0.79862167825E+03  0.97854913171E+03  0.15294330000E+03 0.  0.
<mgrwt>
<rscale>  0 0.77070759E+03</rscale>
<asrwt>0</asrwt>
<pdfrwt beam="1">  1        2 0.30387748E+00 0.85450592E+03</pdfrwt>
<pdfrwt beam="2">  1       -2 0.15160215E+00 0.85450592E+03</pdfrwt>
<totfact> 0.20470049E+00</totfact>
</mgrwt>
</event>
<event>
 4    1  0.6502538E-008  0.6760016E+03  0.7818608E-02  0.1011682E+00
          2   -1    0    0  501    0  0.00000000000E+00  0.00000000000E+00  0.49314252081E+03  0.49314252082E+03  0.25500000000E-02 0. -1.
         -2   -1    0    0    0  501 -0.00000000000E+00 -0.00000000000E+00 -0.57738027256E+03  0.57738027256E+03  0.25500000000E-02 0.  1.
    8880023    1    1    2    0    0  0.12039050550E+03  0.93134478089E+02  0.20798038891E+03  0.70727219178E+03  0.65864270000E+03 0. -1.
    8880022    1    1    2    0    0 -0.12039050550E+03 -0.93134478089E+02 -0.29221814066E+03  0.36325060161E+03  0.15294330000E+03 0.  0.
<mgrwt>
<rscale>  0 0.50811484E+03</rscale>
<asrwt>0</asrwt>
<pdfrwt beam="1">  1        2 0.75868080E-01 0.67600156E+03</pdfrwt>
<pdfrwt beam="2">  1       -2 0.88827734E-01 0.67600156E+03</pdfrwt>
<totfact> 0.69261655E+01</totfact>
</mgrwt>
</event>
<event>
 4    1  0.6502538E-008  0.8723054E+03  0.7818608E-02  0.9572038E-01
          2   -1    0    0  501    0  0.00000000000E+00  0.00000000000E+00  0.10886047357E+04  0.10886047357E+04  0.25500000000E-02 0. -1.
         -2   -1    0    0    0  501 -0.00000000000E+00 -0.00000000000E+00 -0.63813861869E+03  0.63813861870E+03  0.25500000000E-02 0.  1.
    8880023    1    1    2    0    0  0.37820695294E+03  0.42902922419E+03  0.66517360092E+03  0.10969834548E+04  0.65864270000E+03 0. -1.
    8880022    1    1    2    0    0 -0.37820695294E+03 -0.42902922419E+03 -0.21470748393E+03  0.62975989959E+03  0.15294330000E+03 0.  0.
<mgrwt>
<rscale>  0 0.79174834E+03</rscale>
<asrwt>0</asrwt>
<pdfrwt beam="1">  1        2 0.16747765E+00 0.87230544E+03</pdfrwt>
<pdfrwt beam="2">  1       -2 0.98175173E-01 0.87230544E+03</pdfrwt>
<totfact> 0.19203352E+01</totfact>
</mgrwt>
</event>
<event>
 4    1  0.6502538E-008  0.6857454E+03  0.7818608E-02  0.1006244E+00
         -2   -1    0    0    0  501 -0.00000000000E+00  0.00000000000E+00  0.37507558029E+03  0.37507558030E+03  0.25500000000E-02 0.  1.
          2   -1    0    0  501    0  0.00000000000E+00 -0.00000000000E+00 -0.25102157958E+04  0.25102157958E+04  0.25500000000E-02 0. -1.
    8880023    1    1    2    0    0  0.51952883009E+02  0.18367768627E+03 -0.24168262990E+04  0.25122293208E+04  0.65864270000E+03 0. -1.
    8880022    1    1    2    0    0 -0.51952883009E+02 -0.18367768627E+03  0.28168608347E+03  0.37306205532E+03  0.15294330000E+03 0.  0.
<mgrwt>
<rscale>  0 0.52995071E+03</rscale>
<asrwt>0</asrwt>
<pdfrwt beam="1">  1        2 0.38618703E+00 0.68574543E+03</pdfrwt>
<pdfrwt beam="2">  1       -2 0.57703937E-01 0.68574543E+03</pdfrwt>
<totfact> 0.10241763E+01</totfact>
</mgrwt>
</event>
<event>
 4    1  0.6502538E-008  0.9207249E+03  0.7818608E-02  0.9493548E-01
          2   -1    0    0  501    0  0.00000000000E+00  0.00000000000E+00  0.27532527600E+04  0.27532527600E+04  0.25500000000E-02 0. -1.
         -2   -1    0    0    0  501 -0.00000000000E+00 -0.00000000000E+00 -0.54258970261E+03  0.54258970262E+03  0.25500000000E-02 0.  1.
    8880023    1    1    2    0    0 -0.61653986059E+03  0.18385523667E+03  0.24304280850E+04  0.25989834610E+04  0.65864270000E+03 0. -1.
    8880022    1    1    2    0    0  0.61653986059E+03 -0.18385523667E+03 -0.21976502765E+03  0.69685900162E+03  0.15294330000E+03 0.  0.
<mgrwt>
<rscale>  0 0.84761145E+03</rscale>
<asrwt>0</asrwt>
<pdfrwt beam="1">  1        2 0.42357734E+00 0.92072491E+03</pdfrwt>
<pdfrwt beam="2">  1       -2 0.83475341E-01 0.92072491E+03</pdfrwt>
<totfact> 0.31828496E+00</totfact>
</mgrwt>
</event>
<event>
 4    1  0.6502538E-008  0.1067647E+04  0.7818608E-02  0.9297962E-01
          2   -1    0    0  501    0  0.00000000000E+00  0.00000000000E+00  0.32676982650E+04  0.32676982650E+04  0.25500000000E-02 0. -1.
         -2   -1    0    0    0  501 -0.00000000000E+00 -0.00000000000E+00 -0.37664177758E+03  0.37664177759E+03  0.25500000000E-02 0.  1.
    8880023    1    1    2    0    0  0.12639667987E+03  0.83071337438E+03  0.24726051557E+04  0.26932596038E+04  0.65864270000E+03 0.  0.
    8880022    1    1    2    0    0 -0.12639667987E+03 -0.83071337438E+03  0.41845133171E+03  0.95108043880E+03  0.15294330000E+03 0.  0.
<mgrwt>
<rscale>  0 0.10097074E+04</rscale>
<asrwt>0</asrwt>
<pdfrwt beam="1">  1        2 0.50272280E+00 0.10676474E+04</pdfrwt>
<pdfrwt beam="2">  1       -2 0.57944890E-01 0.10676474E+04</pdfrwt>
<totfact> 0.33265982E+00</totfact>
</mgrwt>
</event>
<event>
 4    1  0.6502538E-008  0.7788227E+03  0.7818608E-02  0.9758610E-01
          2   -1    0    0  501    0  0.00000000000E+00  0.00000000000E+00  0.10334649909E+04  0.10334649909E+04  0.25500000000E-02 0. -1.
         -2   -1    0    0    0  501 -0.00000000000E+00 -0.00000000000E+00 -0.55468718821E+03  0.55468718821E+03  0.25500000000E-02 0.  1.
    8880023    1    1    2    0    0 -0.37008891158E+03  0.18917920226E+03  0.73970702367E+03  0.10741188296E+04  0.65864270000E+03 0.  0.
    8880022    1    1    2    0    0  0.37008891158E+03 -0.18917920226E+03 -0.26092922096E+03  0.51403334950E+03  0.15294330000E+03 0.  0.
<mgrwt>
<rscale>  0 0.67631877E+03</rscale>
<asrwt>0</asrwt>
<pdfrwt beam="1">  1        2 0.15899461E+00 0.77882269E+03</pdfrwt>
<pdfrwt beam="2">  1       -2 0.85336491E-01 0.77882269E+03</pdfrwt>
<totfact> 0.29026026E+01</totfact>
</mgrwt>
</event>
<event>
 4    1  0.6502538E-008  0.1284556E+04  0.7818608E-02  0.9079013E-01
          2   -1    0    0  501    0  0.00000000000E+00  0.00000000000E+00  0.12052186210E+04  0.12052186210E+04  0.25500000000E-02 0. -1.
         -2   -1    0    0    0  501 -0.00000000000E+00 -0.00000000000E+00 -0.14325517538E+04  0.14325517538E+04  0.25500000000E-02 0.  1.
    8880023    1    1    2    0    0 -0.45337226442E+02 -0.11019156684E+04 -0.65885861355E+03  0.14436684118E+04  0.65864270000E+03 0.  1.
    8880022    1    1    2    0    0  0.45337226442E+02  0.11019156684E+04  0.43152548078E+03  0.11941019630E+04  0.15294330000E+03 0.  0.
<mgrwt>
<rscale>  0 0.12394466E+04</rscale>
<asrwt>0</asrwt>
<pdfrwt beam="1">  1        2 0.18541825E+00 0.12845559E+04</pdfrwt>
<pdfrwt beam="2">  1       -2 0.22039258E+00 0.12845559E+04</pdfrwt>
<totfact> 0.17797811E+00</totfact>
</mgrwt>
</event>
<event>
 4    1  0.6502538E-008  0.6814738E+03  0.7818608E-02  0.1008502E+00
          2   -1    0    0  501    0  0.00000000000E+00  0.00000000000E+00  0.30738641073E+03  0.30738641074E+03  0.25500000000E-02 0. -1.
         -2   -1    0    0    0  501 -0.00000000000E+00 -0.00000000000E+00 -0.78227749503E+03  0.78227749503E+03  0.25500000000E-02 0.  1.
    8880023    1    1    2    0    0 -0.14679295161E+03 -0.95121957990E+02 -0.16292866520E+03  0.70067989392E+03  0.65864270000E+03 0. -1.
    8880022    1    1    2    0    0  0.14679295161E+03  0.95121957990E+02 -0.31196241910E+03  0.38898401186E+03  0.15294330000E+03 0.  1.
<mgrwt>
<rscale>  0 0.52074373E+03</rscale>
<asrwt>0</asrwt>
<pdfrwt beam="1">  1        2 0.47290217E-01 0.68147382E+03</pdfrwt>
<pdfrwt beam="2">  1       -2 0.12035038E+00 0.68147382E+03</pdfrwt>
<totfact> 0.57141117E+01</totfact>
</mgrwt>
</event>
<event>
 4    1  0.6502538E-008  0.9659233E+03  0.7818608E-02  0.9427565E-01
          2   -1    0    0  501    0  0.00000000000E+00  0.00000000000E+00  0.12839334283E+04  0.12839334283E+04  0.25500000000E-02 0. -1.
         -2   -1    0    0    0  501 -0.00000000000E+00 -0.00000000000E+00 -0.77193616092E+03  0.77193616093E+03  0.25500000000E-02 0.  1.
    8880023    1    1    2    0    0 -0.24411135904E+03  0.66302888364E+03  0.82291885272E+03  0.12689378632E+04  0.65864270000E+03 0. -1.
    8880022    1    1    2    0    0  0.24411135904E+03 -0.66302888364E+03 -0.31092158538E+03  0.78693172603E+03  0.15294330000E+03 0.  0.
<mgrwt>
<rscale>  0 0.89841512E+03</rscale>
<asrwt>0</asrwt>
<pdfrwt beam="1">  1        2 0.19752822E+00 0.96592332E+03</pdfrwt>
<pdfrwt beam="2">  1       -2 0.11875941E+00 0.96592332E+03</pdfrwt>
<totfact> 0.91711476E+00</totfact>
</mgrwt>
</event>
<event>
 4    1  0.6502538E-008  0.7670770E+03  0.7818608E-02  0.9787119E-01
         -2   -1    0    0    0  501 -0.00000000000E+00  0.00000000000E+00  0.38929779258E+03  0.38929779259E+03  0.25500000000E-02 0.  1.
          2   -1    0    0  501    0  0.00000000000E+00 -0.00000000000E+00 -0.11691123363E+04  0.11691123363E+04  0.25500000000E-02 0. -1.
    8880023    1    1    2    0    0 -0.37267932829E+02 -0.39141789616E+03 -0.83392688341E+03  0.11330671301E+04  0.65864270000E+03 0.  0.
    8880022    1    1    2    0    0  0.37267932829E+02  0.39141789616E+03  0.54112339715E+02  0.42534299874E+03  0.15294330000E+03 0.  0.
<mgrwt>
<rscale>  0 0.66058424E+03</rscale>
<asrwt>0</asrwt>
<pdfrwt beam="1">  1        2 0.17986343E+00 0.76707697E+03</pdfrwt>
<pdfrwt beam="2">  1       -2 0.59891969E-01 0.76707697E+03</pdfrwt>
<totfact> 0.52198713E+01</totfact>
</mgrwt>
</event>
<event>
 4    1  0.6502538E-008  0.1225084E+04  0.7818608E-02  0.9133116E-01
         -2   -1    0    0    0  501 -0.00000000000E+00  0.00000000000E+00  0.56838080586E+03  0.56838080587E+03  0.25500000000E-02 0.  1.
          2   -1    0    0  501    0  0.00000000000E+00 -0.00000000000E+00 -0.38089902122E+04  0.38089902122E+04  0.25500000000E-02 0. -1.
    8880023    1    1    2    0    0 -0.31165072851E+03  0.98483273780E+03 -0.30878923494E+04  0.33220341759E+04  0.65864270000E+03 0.  0.
    8880022    1    1    2    0    0  0.31165072851E+03 -0.98483273780E+03 -0.15271705698E+03  0.10553368422E+04  0.15294330000E+03 0.  0.
<mgrwt>
<rscale>  0 0.11771273E+04</rscale>
<asrwt>0</asrwt>
<pdfrwt beam="1">  1        2 0.58599848E+00 0.12250844E+04</pdfrwt>
<pdfrwt beam="2">  1       -2 0.87443203E-01 0.12250844E+04</pdfrwt>
<totfact> 0.54929258E-01</totfact>
</mgrwt>
</event>
<event>
 4    1  0.6502538E-008  0.8352972E+03  0.7818608E-02  0.9639112E-01
         -2   -1    0    0    0  501 -0.00000000000E+00  0.00000000000E+00  0.29271613908E+03  0.29271613909E+03  0.25500000000E-02 0.  1.
          2   -1    0    0  501    0  0.00000000000E+00 -0.00000000000E+00 -0.22695515090E+04  0.22695515090E+04  0.25500000000E-02 0. -1.
    8880023    1    1    2    0    0  0.10453727165E+02 -0.51361659031E+03 -0.18219984594E+04  0.20043452484E+04  0.65864270000E+03 0. -1.
    8880022    1    1    2    0    0 -0.10453727165E+02  0.51361659031E+03 -0.15483691052E+03  0.55792239974E+03  0.15294330000E+03 0.  0.
<mgrwt>
<rscale>  0 0.74760689E+03</rscale>
<asrwt>0</asrwt>
<pdfrwt beam="1">  1        2 0.34916176E+00 0.83529725E+03</pdfrwt>
<pdfrwt beam="2">  1       -2 0.45033253E-01 0.83529725E+03</pdfrwt>
<totfact> 0.22668965E+01</totfact>
</mgrwt>
</event>
<event>
 4    1  0.6502538E-008  0.7579962E+03  0.7818608E-02  0.9810323E-01
          2   -1    0    0  501    0  0.00000000000E+00  0.00000000000E+00  0.10637222192E+04  0.10637222192E+04  0.25500000000E-02 0. -1.
         -2   -1    0    0    0  501 -0.00000000000E+00 -0.00000000000E+00 -0.42360180830E+03  0.42360180831E+03  0.25500000000E-02 0.  1.
    8880023    1    1    2    0    0 -0.37316996991E+03  0.38628512633E+02  0.75125900096E+03  0.10672151991E+04  0.65864270000E+03 0. -1.
    8880022    1    1    2    0    0  0.37316996991E+03 -0.38628512633E+02 -0.11113859011E+03  0.42010882835E+03  0.15294330000E+03 0.  0.
<mgrwt>
<rscale>  0 0.64811481E+03</rscale>
<asrwt>0</asrwt>
<pdfrwt beam="1">  1        2 0.16364957E+00 0.75799617E+03</pdfrwt>
<pdfrwt beam="2">  1       -2 0.65169509E-01 0.75799617E+03</pdfrwt>
<totfact> 0.50586708E+01</totfact>
</mgrwt>
</event>
<event>
 4    1  0.6502538E-008  0.8602805E+03  0.7818608E-02  0.9593065E-01
          2   -1    0    0  501    0  0.00000000000E+00  0.00000000000E+00  0.28233669878E+04  0.28233669878E+04  0.25500000000E-02 0. -1.
         -2   -1    0    0    0  501 -0.00000000000E+00 -0.00000000000E+00 -0.47149981898E+03  0.47149981899E+03  0.25500000000E-02 0.  1.
    8880023    1    1    2    0    0 -0.26574159532E+03 -0.48544170960E+03  0.25470695574E+04  0.26884281254E+04  0.65864270000E+03 0. -1.
    8880022    1    1    2    0    0  0.26574159532E+03  0.48544170960E+03 -0.19520238851E+03  0.60643868148E+03  0.15294330000E+03 0.  0.
<mgrwt>
<rscale>  0 0.77756905E+03</rscale>
<asrwt>0</asrwt>
<pdfrwt beam="1">  1        2 0.43436416E+00 0.86028045E+03</pdfrwt>
<pdfrwt beam="2">  1       -2 0.72538433E-01 0.86028045E+03</pdfrwt>
<totfact> 0.40002424E+00</totfact>
</mgrwt>
</event>
<event>
 4    1  0.6502538E-008  0.1132856E+04  0.7818608E-02  0.9225327E-01
          2   -1    0    0  501    0  0.00000000000E+00  0.00000000000E+00  0.12747689200E+04  0.12747689200E+04  0.25500000000E-02 0. -1.
         -2   -1    0    0    0  501 -0.00000000000E+00 -0.00000000000E+00 -0.12116543429E+04  0.12116543429E+04  0.25500000000E-02 0.  1.
    8880023    1    1    2    0    0  0.13536306222E+02 -0.92161237250E+03  0.72180097233E+03  0.13432644738E+04  0.65864270000E+03 0. -1.
    8880022    1    1    2    0    0 -0.13536306222E+02  0.92161237250E+03 -0.65868639524E+03  0.11431587891E+04  0.15294330000E+03 0.  0.
<mgrwt>
<rscale>  0 0.10795788E+04</rscale>
<asrwt>0</asrwt>
<pdfrwt beam="1">  1        2 0.19611829E+00 0.11328560E+04</pdfrwt>
<pdfrwt beam="2">  1       -2 0.18640836E+00 0.11328560E+04</pdfrwt>
<totfact> 0.27399408E+00</totfact>
</mgrwt>
</event>
<event>
 4    1  0.6502538E-008  0.7845508E+03  0.7818608E-02  0.9745254E-01
         -2   -1    0    0    0  501 -0.00000000000E+00  0.00000000000E+00  0.70974746252E+03  0.70974746252E+03  0.25500000000E-02 0.  1.
          2   -1    0    0  501    0  0.00000000000E+00 -0.00000000000E+00 -0.15401890994E+04  0.15401890994E+04  0.25500000000E-02 0. -1.
    8880023    1    1    2    0    0  0.43998142656E+02 -0.42399763139E+03 -0.13495596154E+04  0.15610352942E+04  0.65864270000E+03 0. -1.
    8880022    1    1    2    0    0 -0.43998142656E+02  0.42399763139E+03  0.51911797853E+03  0.68890126770E+03  0.15294330000E+03 0.  0.
<mgrwt>
<rscale>  0 0.68385169E+03</rscale>
<asrwt>0</asrwt>
<pdfrwt beam="1">  1        2 0.23695217E+00 0.78455085E+03</pdfrwt>
<pdfrwt beam="2">  1       -2 0.10919192E+00 0.78455085E+03</pdfrwt>
<totfact> 0.82259648E+00</totfact>
</mgrwt>
</event>
<event>
 4    1  0.6502538E-008  0.7806011E+03  0.7818608E-02  0.9754427E-01
         -2   -1    0    0    0  501 -0.00000000000E+00  0.00000000000E+00  0.81987892656E+03  0.81987892657E+03  0.25500000000E-02 0.  1.
          2   -1    0    0  501    0  0.00000000000E+00 -0.00000000000E+00 -0.67798628643E+03  0.67798628644E+03  0.25500000000E-02 0. -1.
    8880023    1    1    2    0    0 -0.17488847559E+03  0.38071237956E+03 -0.33095516699E+03  0.84786167720E+03  0.65864270000E+03 0.  0.
    8880022    1    1    2    0    0  0.17488847559E+03 -0.38071237956E+03  0.47284780712E+03  0.65000353580E+03  0.15294330000E+03 0.  0.
<mgrwt>
<rscale>  0 0.67866673E+03</rscale>
<asrwt>0</asrwt>
<pdfrwt beam="1">  1        2 0.10430558E+00 0.78060112E+03</pdfrwt>
<pdfrwt beam="2">  1       -2 0.12613522E+00 0.78060112E+03</pdfrwt>
<totfact> 0.20213901E+01</totfact>
</mgrwt>
</event>
<event>
 4    1  0.6502538E-008  0.2098371E+04  0.7818608E-02  0.8573292E-01
          2   -1    0    0  501    0  0.00000000000E+00  0.00000000000E+00  0.20815018887E+04  0.20815018887E+04  0.25500000000E-02 0. -1.
         -2   -1    0    0    0  501 -0.00000000000E+00 -0.00000000000E+00 -0.23507287085E+04  0.23507287085E+04  0.25500000000E-02 0.  1.
    8880023    1    1    2    0    0 -0.96982789562E+03  0.17403405040E+04 -0.97399330964E+03  0.23134010440E+04  0.65864270000E+03 0.  0.
    8880022    1    1    2    0    0  0.96982789562E+03 -0.17403405040E+04  0.70476648989E+03  0.21188295532E+04  0.15294330000E+03 0.  0.
<mgrwt>
<rscale>  0 0.20728632E+04</rscale>
<asrwt>0</asrwt>
<pdfrwt beam="1">  1        2 0.32023106E+00 0.20983711E+04</pdfrwt>
<pdfrwt beam="2">  1       -2 0.36165057E+00 0.20983711E+04</pdfrwt>
<totfact> 0.69416756E-02</totfact>
</mgrwt>
</event>
<event>
 4    1  0.6502538E-008  0.8917619E+03  0.7818608E-02  0.9539388E-01
          2   -1    0    0  501    0  0.00000000000E+00  0.00000000000E+00  0.76728465505E+03  0.76728465506E+03  0.25500000000E-02 0. -1.
         -2   -1    0    0    0  501 -0.00000000000E+00 -0.00000000000E+00 -0.16774518964E+04  0.16774518964E+04  0.25500000000E-02 0.  1.
    8880023    1    1    2    0    0 -0.53287727388E+03 -0.27833594185E+03  0.41346346640E+03  0.98295031912E+03  0.65864270000E+03 0. -1.
    8880022    1    1    2    0    0  0.53287727388E+03  0.27833594185E+03 -0.13236307078E+04  0.14617862323E+04  0.15294330000E+03 0.  0.
<mgrwt>
<rscale>  0 0.81441168E+03</rscale>
<asrwt>0</asrwt>
<pdfrwt beam="1">  1        2 0.11804379E+00 0.89176190E+03</pdfrwt>
<pdfrwt beam="2">  1       -2 0.25806952E+00 0.89176190E+03</pdfrwt>
<totfact> 0.21125770E+00</totfact>
</mgrwt>
</event>
<event>
 4    1  0.6502538E-008  0.8662026E+03  0.7818608E-02  0.9582624E-01
          2   -1    0    0  501    0  0.00000000000E+00  0.00000000000E+00  0.69622968628E+03  0.69622968628E+03  0.25500000000E-02 0. -1.
         -2   -1    0    0    0  501 -0.00000000000E+00 -0.00000000000E+00 -0.98195008895E+03  0.98195008895E+03  0.25500000000E-02 0.  1.
    8880023    1    1    2    0    0  0.56198310345E+03 -0.25919275690E+02  0.23389547325E+03  0.89722578880E+03  0.65864270000E+03 0. -1.
    8880022    1    1    2    0    0 -0.56198310345E+03  0.25919275690E+02 -0.51961587592E+03  0.78095398644E+03  0.15294330000E+03 0.  0.
<mgrwt>
<rscale>  0 0.78456997E+03</rscale>
<asrwt>0</asrwt>
<pdfrwt beam="1">  1        2 0.10711226E+00 0.86620265E+03</pdfrwt>
<pdfrwt beam="2">  1       -2 0.15106924E+00 0.86620265E+03</pdfrwt>
<totfact> 0.12176246E+01</totfact>
</mgrwt>
</event>
<event>
 4    1  0.6502538E-008  0.8210054E+03  0.7818608E-02  0.9667093E-01
          2   -1    0    0  501    0  0.00000000000E+00  0.00000000000E+00  0.95690337390E+03  0.95690337391E+03  0.25500000000E-02 0. -1.
         -2   -1    0    0    0  501 -0.00000000000E+00 -0.00000000000E+00 -0.65155399142E+03  0.65155399142E+03  0.25500000000E-02 0.  1.
    8880023    1    1    2    0    0  0.24495920331E+01  0.49013640741E+03  0.59961970082E+03  0.10166580990E+04  0.65864270000E+03 0.  0.
    8880022    1    1    2    0    0 -0.24495920331E+01 -0.49013640741E+03 -0.29427031833E+03  0.59179926634E+03  0.15294330000E+03 0.  0.
<mgrwt>
<rscale>  0 0.73010303E+03</rscale>
<asrwt>0</asrwt>
<pdfrwt beam="1">  1        2 0.14721590E+00 0.82100542E+03</pdfrwt>
<pdfrwt beam="2">  1       -2 0.10023908E+00 0.82100542E+03</pdfrwt>
<totfact> 0.22266072E+01</totfact>
</mgrwt>
</event>
<event>
 4    1  0.6502538E-008  0.8867730E+03  0.7818608E-02  0.9547608E-01
          2   -1    0    0  501    0  0.00000000000E+00  0.00000000000E+00  0.24570935585E+04  0.24570935585E+04  0.25500000000E-02 0. -1.
         -2   -1    0    0    0  501 -0.00000000000E+00 -0.00000000000E+00 -0.23677084689E+03  0.23677084691E+03  0.25500000000E-02 0.  1.
    8880023    1    1    2    0    0 -0.55287693265E+03 -0.21652535489E+03  0.10644252931E+04  0.13854124089E+04  0.65864270000E+03 0.  1.
    8880022    1    1    2    0    0  0.55287693265E+03  0.21652535489E+03  0.11558974186E+04  0.13084519966E+04  0.15294330000E+03 0.  0.
<mgrwt>
<rscale>  0 0.80863081E+03</rscale>
<asrwt>0</asrwt>
<pdfrwt beam="1">  1        2 0.37801442E+00 0.88677299E+03</pdfrwt>
<pdfrwt beam="2">  1       -2 0.36426282E-01 0.88677299E+03</pdfrwt>
<totfact> 0.26782793E+01</totfact>
</mgrwt>
</event>
<event>
 4    1  0.6502538E-008  0.9239103E+03  0.7818608E-02  0.9488689E-01
          2   -1    0    0  501    0  0.00000000000E+00  0.00000000000E+00  0.12887202748E+04  0.12887202748E+04  0.25500000000E-02 0. -1.
         -2   -1    0    0    0  501 -0.00000000000E+00 -0.00000000000E+00 -0.10701266824E+04  0.10701266824E+04  0.25500000000E-02 0.  1.
    8880023    1    1    2    0    0  0.43877627913E+03  0.47673403333E+03  0.98040141197E+03  0.13471440519E+04  0.65864270000E+03 0. -1.
    8880022    1    1    2    0    0 -0.43877627913E+03 -0.47673403333E+03 -0.76180781957E+03  0.10117029053E+04  0.15294330000E+03 0.  0.
<mgrwt>
<rscale>  0 0.85122875E+03</rscale>
<asrwt>0</asrwt>
<pdfrwt beam="1">  1        2 0.19826466E+00 0.92391026E+03</pdfrwt>
<pdfrwt beam="2">  1       -2 0.16463487E+00 0.92391026E+03</pdfrwt>
<totfact> 0.39108022E+00</totfact>
</mgrwt>
</event>
<event>
 4    1  0.6502538E-008  0.1503852E+04  0.7818608E-02  0.8906920E-01
          2   -1    0    0  501    0  0.00000000000E+00  0.00000000000E+00  0.27377214891E+04  0.27377214891E+04  0.25500000000E-02 0. -1.
         -2   -1    0    0    0  501 -0.00000000000E+00 -0.00000000000E+00 -0.89807608412E+03  0.89807608412E+03  0.25500000000E-02 0.  1.
    8880023    1    1    2    0    0 -0.11426789951E+04  0.72252767956E+03  0.16974782541E+04  0.22678192527E+04  0.65864270000E+03 0.  0.
    8880022    1    1    2    0    0  0.11426789951E+04 -0.72252767956E+03  0.14216715091E+03  0.13679783205E+04  0.15294330000E+03 0.  0.
<mgrwt>
<rscale>  0 0.14666760E+04</rscale>
<asrwt>0</asrwt>
<pdfrwt beam="1">  1        2 0.42118791E+00 0.15038523E+04</pdfrwt>
<pdfrwt beam="2">  1       -2 0.13816555E+00 0.15038523E+04</pdfrwt>
<totfact> 0.88766606E-01</totfact>
</mgrwt>
</event>
<event>
 4    1  0.6502538E-008  0.1273292E+04  0.7818608E-02  0.9088974E-01
         -2   -1    0    0    0  501 -0.00000000000E+00  0.00000000000E+00  0.13450892525E+04  0.13450892525E+04  0.25500000000E-02 0.  1.
          2   -1    0    0  501    0  0.00000000000E+00 -0.00000000000E+00 -0.14538169587E+04  0.14538169587E+04  0.25500000000E-02 0. -1.
    8880023    1    1    2    0    0 -0.44995230274E+02  0.10887780458E+04 -0.79590260061E+03  0.15015769576E+04  0.65864270000E+03 0.  0.
    8880022    1    1    2    0    0  0.44995230274E+02 -0.10887780458E+04  0.68717489438E+03  0.12973292536E+04  0.15294330000E+03 0.  0.
<mgrwt>
<rscale>  0 0.12276723E+04</rscale>
<asrwt>0</asrwt>
<pdfrwt beam="1">  1        2 0.22366415E+00 0.12732920E+04</pdfrwt>
<pdfrwt beam="2">  1       -2 0.20693681E+00 0.12732920E+04</pdfrwt>
<totfact> 0.15553921E+00</totfact>
</mgrwt>
</event>
<event>
 4    1  0.6502538E-008  0.7936974E+03  0.7818608E-02  0.9724593E-01
         -2   -1    0    0    0  501 -0.00000000000E+00  0.00000000000E+00  0.72733863193E+03  0.72733863194E+03  0.25500000000E-02 0.  1.
          2   -1    0    0  501    0  0.00000000000E+00 -0.00000000000E+00 -0.15964941099E+04  0.15964941099E+04  0.25500000000E-02 0. -1.
    8880023    1    1    2    0    0 -0.15928044470E+03 -0.41324942009E+03 -0.14039787085E+04  0.16127962560E+04  0.65864270000E+03 0. -1.
    8880022    1    1    2    0    0  0.15928044470E+03  0.41324942009E+03  0.53482323052E+03  0.71103648583E+03  0.15294330000E+03 0.  0.
<mgrwt>
<rscale>  0 0.69571230E+03</rscale>
<asrwt>0</asrwt>
<pdfrwt beam="1">  1        2 0.24561448E+00 0.79369739E+03</pdfrwt>
<pdfrwt beam="2">  1       -2 0.11189825E+00 0.79369739E+03</pdfrwt>
<totfact> 0.72057625E+00</totfact>
</mgrwt>
</event>
<event>
 4    1  0.6502538E-008  0.7102965E+03  0.7818608E-02  0.9956902E-01
         -2   -1    0    0    0  501 -0.00000000000E+00  0.00000000000E+00  0.88375309849E+03  0.88375309849E+03  0.25500000000E-02 0.  1.
          2   -1    0    0  501    0  0.00000000000E+00 -0.00000000000E+00 -0.11796057094E+04  0.11796057094E+04  0.25500000000E-02 0. -1.
    8880023    1    1    2    0    0  0.18269346693E+02  0.26528691634E+03 -0.10394569685E+04  0.12589646193E+04  0.65864270000E+03 0. -1.
    8880022    1    1    2    0    0 -0.18269346693E+02 -0.26528691634E+03  0.74360435759E+03  0.80439418860E+03  0.15294330000E+03 0.  0.
<mgrwt>
<rscale>  0 0.57581098E+03</rscale>
<asrwt>0</asrwt>
<pdfrwt beam="1">  1        2 0.18147780E+00 0.71029650E+03</pdfrwt>
<pdfrwt beam="2">  1       -2 0.13596202E+00 0.71029650E+03</pdfrwt>
<totfact> 0.77406719E+00</totfact>
</mgrwt>
</event>
<event>
 4    1  0.6795484E-008  0.1071248E+04  0.7818608E-02  0.9293764E-01
          2   -1    0    0  501    0  0.00000000000E+00  0.00000000000E+00  0.23115113187E+04  0.23115113187E+04  0.25500000000E-02 0. -1.
         -2   -1    0    0    0  501 -0.00000000000E+00 -0.00000000000E+00 -0.13031846387E+04  0.13031846387E+04  0.25500000000E-02 0.  1.
    8880023    1    1    2    0    0 -0.60694889141E+03 -0.58768663036E+03  0.20208079272E+04  0.22871898515E+04  0.65864270000E+03 0. -1.
    8880022    1    1    2    0    0  0.60694889141E+03  0.58768663036E+03 -0.10124812472E+04  0.13275061059E+04  0.15294330000E+03 0.  0.
<mgrwt>
<rscale>  0 0.10135901E+04</rscale>
<asrwt>0</asrwt>
<pdfrwt beam="1">  1        2 0.35561713E+00 0.10712482E+04</pdfrwt>
<pdfrwt beam="2">  1       -2 0.20048994E+00 0.10712482E+04</pdfrwt>
<totfact> 0.58486076E-01</totfact>
</mgrwt>
</event>
<event>
 4    1  0.6502538E-008  0.7062670E+03  0.7818608E-02  0.9972133E-01
          2   -1    0    0  501    0  0.00000000000E+00  0.00000000000E+00  0.57462325141E+03  0.57462325141E+03  0.25500000000E-02 0. -1.
         -2   -1    0    0    0  501 -0.00000000000E+00 -0.00000000000E+00 -0.17201465591E+04  0.17201465591E+04  0.25500000000E-02 0.  1.
    8880023    1    1    2    0    0 -0.20923734941E+03  0.14567974037E+03  0.33712737366E+03  0.78260330147E+03  0.65864270000E+03 0. -1.
    8880022    1    1    2    0    0  0.20923734941E+03 -0.14567974037E+03 -0.14826506813E+04  0.15121665090E+04  0.15294330000E+03 0.  0.
<mgrwt>
<rscale>  0 0.56889202E+03</rscale>
<asrwt>0</asrwt>
<pdfrwt beam="1">  1        2 0.88403578E-01 0.70626699E+03</pdfrwt>
<pdfrwt beam="2">  1       -2 0.26463793E+00 0.70626699E+03</pdfrwt>
<totfact> 0.28401706E+00</totfact>
</mgrwt>
</event>
<event>
 4    1  0.6502538E-008  0.6754456E+03  0.7818608E-02  0.1012027E+00
         -2   -1    0    0    0  501 -0.00000000000E+00  0.00000000000E+00  0.29242191374E+03  0.29242191375E+03  0.25500000000E-02 0.  1.
          2   -1    0    0  501    0  0.00000000000E+00 -0.00000000000E+00 -0.15749242484E+04  0.15749242484E+04  0.25500000000E-02 0. -1.
    8880023    1    1    2    0    0 -0.11824577852E+03  0.91839478283E+02 -0.14473449100E+04  0.15971956826E+04  0.65864270000E+03 0. -1.
    8880022    1    1    2    0    0  0.11824577852E+03 -0.91839478283E+02  0.16484257534E+03  0.27015047949E+03  0.15294330000E+03 0.  0.
<mgrwt>
<rscale>  0 0.50676976E+03</rscale>
<asrwt>0</asrwt>
<pdfrwt beam="1">  1        2 0.24229603E+00 0.67544560E+03</pdfrwt>
<pdfrwt beam="2">  1       -2 0.44987988E-01 0.67544560E+03</pdfrwt>
<totfact> 0.55638842E+01</totfact>
</mgrwt>
</event>
<event>
 4    1  0.6502538E-008  0.1293929E+04  0.7818608E-02  0.9070820E-01
         -2   -1    0    0    0  501 -0.00000000000E+00  0.00000000000E+00  0.11695540526E+04  0.11695540526E+04  0.25500000000E-02 0.  1.
          2   -1    0    0  501    0  0.00000000000E+00 -0.00000000000E+00 -0.22427785039E+04  0.22427785039E+04  0.25500000000E-02 0. -1.
    8880023    1    1    2    0    0  0.28191508205E+02  0.11133944022E+04 -0.16912456383E+04  0.21294515424E+04  0.65864270000E+03 0.  0.
    8880022    1    1    2    0    0 -0.28191508205E+02 -0.11133944022E+04  0.61802118702E+03  0.12828810142E+04  0.15294330000E+03 0.  0.
<mgrwt>
<rscale>  0 0.12492347E+04</rscale>
<asrwt>0</asrwt>
<pdfrwt beam="1">  1        2 0.34504285E+00 0.12939289E+04</pdfrwt>
<pdfrwt beam="2">  1       -2 0.17993139E+00 0.12939289E+04</pdfrwt>
<totfact> 0.85325621E-01</totfact>
</mgrwt>
</event>
<event>
 4    1  0.6502538E-008  0.8062459E+03  0.7818608E-02  0.9697450E-01
         -2   -1    0    0    0  501 -0.00000000000E+00  0.00000000000E+00  0.75665123218E+03  0.75665123218E+03  0.25500000000E-02 0.  1.
          2   -1    0    0  501    0  0.00000000000E+00 -0.00000000000E+00 -0.62708073998E+03  0.62708073999E+03  0.25500000000E-02 0. -1.
    8880023    1    1    2    0    0 -0.65046697180E+02  0.46042496200E+03 -0.14990744288E+03  0.82006381833E+03  0.65864270000E+03 0.  0.
    8880022    1    1    2    0    0  0.65046697180E+02 -0.46042496200E+03  0.27947793508E+03  0.56366815384E+03  0.15294330000E+03 0.  0.
<mgrwt>
<rscale>  0 0.71168797E+03</rscale>
<asrwt>0</asrwt>
<pdfrwt beam="1">  1        2 0.96473961E-01 0.80624588E+03</pdfrwt>
<pdfrwt beam="2">  1       -2 0.11640788E+00 0.80624588E+03</pdfrwt>
<totfact> 0.27125407E+01</totfact>
</mgrwt>
</event>
<event>
 4    1  0.6502538E-008  0.9895238E+03  0.7818608E-02  0.9395394E-01
          2   -1    0    0  501    0  0.00000000000E+00  0.00000000000E+00  0.13868447537E+04  0.13868447537E+04  0.25500000000E-02 0. -1.
         -2   -1    0    0    0  501 -0.00000000000E+00 -0.00000000000E+00 -0.13627000254E+04  0.13627000254E+04  0.25500000000E-02 0.  1.
    8880023    1    1    2    0    0 -0.14192833360E+03  0.72470930714E+03  0.10717662124E+04  0.14587118468E+04  0.65864270000E+03 0. -1.
    8880022    1    1    2    0    0  0.14192833360E+03 -0.72470930714E+03 -0.10476214842E+04  0.12908329322E+04  0.15294330000E+03 0.  0.
<mgrwt>
<rscale>  0 0.92455726E+03</rscale>
<asrwt>0</asrwt>
<pdfrwt beam="1">  1        2 0.21336073E+00 0.98952384E+03</pdfrwt>
<pdfrwt beam="2">  1       -2 0.20964616E+00 0.98952384E+03</pdfrwt>
<totfact> 0.16863701E+00</totfact>
</mgrwt>
</event>
<event>
 4    1  0.6502538E-008  0.1072764E+04  0.7818608E-02  0.9292004E-01
          2   -1    0    0  501    0  0.00000000000E+00  0.00000000000E+00  0.85872666238E+03  0.85872666238E+03  0.25500000000E-02 0. -1.
         -2   -1    0    0    0  501 -0.00000000000E+00 -0.00000000000E+00 -0.12485190571E+04  0.12485190571E+04  0.25500000000E-02 0.  1.
    8880023    1    1    2    0    0 -0.52537163415E+03 -0.66407570519E+03 -0.58927876789E+03  0.12239573394E+04  0.65864270000E+03 0.  0.
    8880022    1    1    2    0    0  0.52537163415E+03  0.66407570519E+03  0.19948637319E+03  0.88328838003E+03  0.15294330000E+03 0.  0.
<mgrwt>
<rscale>  0 0.10152234E+04</rscale>
<asrwt>0</asrwt>
<pdfrwt beam="1">  1        2 0.13211179E+00 0.10727638E+04</pdfrwt>
<pdfrwt beam="2">  1       -2 0.19207986E+00 0.10727638E+04</pdfrwt>
<totfact> 0.46284618E+00</totfact>
</mgrwt>
</event>
<event>
 4    1  0.6502538E-008  0.1622864E+04  0.7818608E-02  0.8827421E-01
          2   -1    0    0  501    0  0.00000000000E+00  0.00000000000E+00  0.30779847033E+04  0.30779847033E+04  0.25500000000E-02 0. -1.
         -2   -1    0    0    0  501 -0.00000000000E+00 -0.00000000000E+00 -0.11321485612E+04  0.11321485612E+04  0.25500000000E-02 0.  1.
    8880023    1    1    2    0    0 -0.24682859645E+02  0.14829927946E+04  0.21621742431E+04  0.27034578850E+04  0.65864270000E+03 0.  0.
    8880022    1    1    2    0    0  0.24682859645E+02 -0.14829927946E+04 -0.21633810094E+03  0.15066753795E+04  0.15294330000E+03 0.  0.
<mgrwt>
<rscale>  0 0.15888597E+04</rscale>
<asrwt>0</asrwt>
<pdfrwt beam="1">  1        2 0.47353610E+00 0.16228639E+04</pdfrwt>
<pdfrwt beam="2">  1       -2 0.17417670E+00 0.16228639E+04</pdfrwt>
<totfact> 0.28850252E-01</totfact>
</mgrwt>
</event>
<event>
 4    1  0.6502538E-008  0.8860630E+03  0.7818608E-02  0.9548786E-01
          2   -1    0    0  501    0  0.00000000000E+00  0.00000000000E+00  0.17175563733E+04  0.17175563733E+04  0.25500000000E-02 0. -1.
         -2   -1    0    0    0  501 -0.00000000000E+00 -0.00000000000E+00 -0.49717865888E+03  0.49717865889E+03  0.25500000000E-02 0.  1.
    8880023    1    1    2    0    0  0.46248519493E+03  0.37068166009E+03  0.13247722352E+04  0.15937782563E+04  0.65864270000E+03 0. -1.
    8880022    1    1    2    0    0 -0.46248519493E+03 -0.37068166009E+03 -0.10439452076E+03  0.62095677598E+03  0.15294330000E+03 0.  0.
<mgrwt>
<rscale>  0 0.80780649E+03</rscale>
<asrwt>0</asrwt>
<pdfrwt beam="1">  1        2 0.26423943E+00 0.88606301E+03</pdfrwt>
<pdfrwt beam="2">  1       -2 0.76489027E-01 0.88606301E+03</pdfrwt>
<totfact> 0.14822998E+01</totfact>
</mgrwt>
</event>
<event>
 4    1  0.6502538E-008  0.1157175E+04  0.7818608E-02  0.9199918E-01
         -2   -1    0    0    0  501 -0.00000000000E+00  0.00000000000E+00  0.86358882301E+03  0.86358882302E+03  0.25500000000E-02 0.  1.
          2   -1    0    0  501    0  0.00000000000E+00 -0.00000000000E+00 -0.17364186654E+04  0.17364186654E+04  0.25500000000E-02 0. -1.
    8880023    1    1    2    0    0 -0.51085933007E+03 -0.80266254630E+03 -0.11144017405E+04  0.16065322480E+04  0.65864270000E+03 0. -1.
    8880022    1    1    2    0    0  0.51085933007E+03  0.80266254630E+03  0.24157189812E+03  0.99347524042E+03  0.15294330000E+03 0.  0.
<mgrwt>
<rscale>  0 0.11054270E+04</rscale>
<asrwt>0</asrwt>
<pdfrwt beam="1">  1        2 0.26714133E+00 0.11571753E+04</pdfrwt>
<pdfrwt beam="2">  1       -2 0.13285982E+00 0.11571753E+04</pdfrwt>
<totfact> 0.37618280E+00</totfact>
</mgrwt>
</event>
<event>
 4    1  0.6502538E-008  0.7328972E+03  0.7818608E-02  0.9881142E-01
         -2   -1    0    0    0  501 -0.00000000000E+00  0.00000000000E+00  0.18274160250E+04  0.18274160250E+04  0.25500000000E-02 0.  1.
          2   -1    0    0  501    0  0.00000000000E+00 -0.00000000000E+00 -0.40901247522E+03  0.40901247523E+03  0.25500000000E-02 0. -1.
    8880023    1    1    2    0    0  0.13265262137E+02 -0.32117309900E+03 -0.41188929836E+02  0.73405371800E+03  0.65864270000E+03 0. -1.
    8880022    1    1    2    0    0 -0.13265262137E+02  0.32117309900E+03  0.14595924796E+04  0.15023747823E+04  0.15294330000E+03 0.  0.
<mgrwt>
<rscale>  0 0.61183999E+03</rscale>
<asrwt>0</asrwt>
<pdfrwt beam="1">  1        2 0.62924998E-01 0.73289722E+03</pdfrwt>
<pdfrwt beam="2">  1       -2 0.28114092E+00 0.73289722E+03</pdfrwt>
<totfact> 0.33370014E+00</totfact>
</mgrwt>
</event>
<event>
 4    1  0.6502538E-008  0.1393246E+04  0.7818608E-02  0.8988948E-01
         -2   -1    0    0    0  501 -0.00000000000E+00  0.00000000000E+00  0.20792943216E+04  0.20792943216E+04  0.25500000000E-02 0.  1.
          2   -1    0    0  501    0  0.00000000000E+00 -0.00000000000E+00 -0.12543690714E+04  0.12543690714E+04  0.25500000000E-02 0. -1.
    8880023    1    1    2    0    0 -0.11816336346E+04 -0.33326763086E+03 -0.53747490897E+03  0.14933234225E+04  0.65864270000E+03 0.  1.
    8880022    1    1    2    0    0  0.11816336346E+04  0.33326763086E+03  0.13624001592E+04  0.18403399705E+04  0.15294330000E+03 0. -1.
<mgrwt>
<rscale>  0 0.13524861E+04</rscale>
<asrwt>0</asrwt>
<pdfrwt beam="1">  1        2 0.19297986E+00 0.13932464E+04</pdfrwt>
<pdfrwt beam="2">  1       -2 0.31989143E+00 0.13932464E+04</pdfrwt>
<totfact> 0.40283295E-01</totfact>
</mgrwt>
</event>
<event>
 4    1  0.6502538E-008  0.9947700E+03  0.7818608E-02  0.9388432E-01
          2   -1    0    0  501    0  0.00000000000E+00  0.00000000000E+00  0.23930585400E+04  0.23930585400E+04  0.25500000000E-02 0. -1.
         -2   -1    0    0    0  501 -0.00000000000E+00 -0.00000000000E+00 -0.36969207200E+03  0.36969207201E+03  0.25500000000E-02 0.  1.
    8880023    1    1    2    0    0  0.29526210360E+03  0.68452723144E+03  0.63699667634E+03  0.11812418094E+04  0.65864270000E+03 0.  0.
    8880022    1    1    2    0    0 -0.29526210360E+03 -0.68452723144E+03  0.13863697916E+04  0.15815088026E+04  0.15294330000E+03 0.  0.
<mgrwt>
<rscale>  0 0.93033809E+03</rscale>
<asrwt>0</asrwt>
<pdfrwt beam="1">  1        2 0.36816284E+00 0.99477005E+03</pdfrwt>
<pdfrwt beam="2">  1       -2 0.56875706E-01 0.99477005E+03</pdfrwt>
<totfact> 0.11752629E+01</totfact>
</mgrwt>
</event>
<event>
 4    1  0.6502538E-008  0.8532450E+03  0.7818608E-02  0.9605694E-01
         -2   -1    0    0    0  501 -0.00000000000E+00  0.00000000000E+00  0.23551406426E+04  0.23551406426E+04  0.25500000000E-02 0.  1.
          2   -1    0    0  501    0  0.00000000000E+00 -0.00000000000E+00 -0.56739640126E+03  0.56739640127E+03  0.25500000000E-02 0. -1.
    8880023    1    1    2    0    0  0.53442430067E+03 -0.92776366921E+02 -0.18312503092E+03  0.87267506589E+03  0.65864270000E+03 0.  0.
    8880022    1    1    2    0    0 -0.53442430067E+03  0.92776366921E+02  0.19708692723E+04  0.20498619780E+04  0.15294330000E+03 0.  0.
<mgrwt>
<rscale>  0 0.76920449E+03</rscale>
<asrwt>0</asrwt>
<pdfrwt beam="1">  1        2 0.87291753E-01 0.85324498E+03</pdfrwt>
<pdfrwt beam="2">  1       -2 0.36232934E+00 0.85324498E+03</pdfrwt>
<totfact> 0.71580990E-01</totfact>
</mgrwt>
</event>
<event>
 4    1  0.6502538E-008  0.7460514E+03  0.7818608E-02  0.9842658E-01
          2   -1    0    0  501    0  0.00000000000E+00  0.00000000000E+00  0.10073122504E+04  0.10073122504E+04  0.25500000000E-02 0. -1.
         -2   -1    0    0    0  501 -0.00000000000E+00 -0.00000000000E+00 -0.44686321777E+03  0.44686321777E+03  0.25500000000E-02 0.  1.
    8880023    1    1    2    0    0 -0.27637998980E+03  0.21539858292E+03  0.72283767177E+03  0.10387911023E+04  0.65864270000E+03 0. -1.
    8880022    1    1    2    0    0  0.27637998980E+03 -0.21539858292E+03 -0.16238863911E+03  0.41538436587E+03  0.15294330000E+03 0.  0.
<mgrwt>
<rscale>  0 0.63122669E+03</rscale>
<asrwt>0</asrwt>
<pdfrwt beam="1">  1        2 0.15497112E+00 0.74605138E+03</pdfrwt>
<pdfrwt beam="2">  1       -2 0.68748187E-01 0.74605138E+03</pdfrwt>
<totfact> 0.48947793E+01</totfact>
</mgrwt>
</event>
<event>
 4    1  0.6502538E-008  0.9883943E+03  0.7818608E-02  0.9396901E-01
          2   -1    0    0  501    0  0.00000000000E+00  0.00000000000E+00  0.13199645146E+04  0.13199645146E+04  0.25500000000E-02 0. -1.
         -2   -1    0    0    0  501 -0.00000000000E+00 -0.00000000000E+00 -0.18772926033E+04  0.18772926033E+04  0.25500000000E-02 0.  1.
    8880023    1    1    2    0    0 -0.36413395497E+03  0.64071799949E+03  0.10379905324E+04  0.14332995652E+04  0.65864270000E+03 0.  0.
    8880022    1    1    2    0    0  0.36413395497E+03 -0.64071799949E+03 -0.15953186210E+04  0.17639575527E+04  0.15294330000E+03 0.  0.
<mgrwt>
<rscale>  0 0.92331123E+03</rscale>
<asrwt>0</asrwt>
<pdfrwt beam="1">  1        2 0.20307146E+00 0.98839430E+03</pdfrwt>
<pdfrwt beam="2">  1       -2 0.28881425E+00 0.98839430E+03</pdfrwt>
<totfact> 0.60147037E-01</totfact>
</mgrwt>
</event>
<event>
 4    1  0.6502538E-008  0.1114232E+04  0.7818608E-02  0.9245374E-01
         -2   -1    0    0    0  501 -0.00000000000E+00  0.00000000000E+00  0.71699159868E+03  0.71699159869E+03  0.25500000000E-02 0.  1.
          2   -1    0    0  501    0  0.00000000000E+00 -0.00000000000E+00 -0.25372928537E+04  0.25372928537E+04  0.25500000000E-02 0. -1.
    8880023    1    1    2    0    0  0.83837846852E+03  0.32376476784E+03 -0.20328536567E+04  0.23181903022E+04  0.65864270000E+03 0.  0.
    8880022    1    1    2    0    0 -0.83837846852E+03 -0.32376476784E+03  0.21255240177E+03  0.93609415012E+03  0.15294330000E+03 0.  0.
<mgrwt>
<rscale>  0 0.10597121E+04</rscale>
<asrwt>0</asrwt>
<pdfrwt beam="1">  1        2 0.39035274E+00 0.11142317E+04</pdfrwt>
<pdfrwt beam="2">  1       -2 0.11030640E+00 0.11142317E+04</pdfrwt>
<totfact> 0.21458861E+00</totfact>
</mgrwt>
</event>
<event>
 4    1  0.6502538E-008  0.8347213E+03  0.7818608E-02  0.9640215E-01
         -2   -1    0    0    0  501 -0.00000000000E+00  0.00000000000E+00  0.77570249212E+03  0.77570249212E+03  0.25500000000E-02 0.  1.
          2   -1    0    0  501    0  0.00000000000E+00 -0.00000000000E+00 -0.95973086682E+03  0.95973086683E+03  0.25500000000E-02 0. -1.
    8880023    1    1    2    0    0 -0.45370756626E+03  0.23895368099E+03 -0.62440131537E+03  0.10424186425E+04  0.65864270000E+03 0.  0.
    8880022    1    1    2    0    0  0.45370756626E+03 -0.23895368099E+03  0.44037294066E+03  0.69301471645E+03  0.15294330000E+03 0.  0.
<mgrwt>
<rscale>  0 0.74690707E+03</rscale>
<asrwt>0</asrwt>
<pdfrwt beam="1">  1        2 0.14765090E+00 0.83472128E+03</pdfrwt>
<pdfrwt beam="2">  1       -2 0.11933884E+00 0.83472128E+03</pdfrwt>
<totfact> 0.14510385E+01</totfact>
</mgrwt>
</event>
<event>
 4    1  0.7177365E-008  0.7545232E+03  0.7818608E-02  0.9819498E-01
         -2   -1    0    0    0  501 -0.00000000000E+00  0.00000000000E+00  0.17069318185E+04  0.17069318185E+04  0.25500000000E-02 0.  1.
          2   -1    0    0  501    0  0.00000000000E+00 -0.00000000000E+00 -0.17643475193E+04  0.17643475193E+04  0.25500000000E-02 0. -1.
    8880023    1    1    2    0    0 -0.25251096761E+03 -0.26783073871E+03 -0.16581041821E+04  0.18217065566E+04  0.65864270000E+03 0. -1.
    8880022    1    1    2    0    0  0.25251096761E+03  0.26783073871E+03  0.16006884812E+04  0.16495727812E+04  0.15294330000E+03 0.  0.
<mgrwt>
<rscale>  0 0.64326574E+03</rscale>
<asrwt>0</asrwt>
<pdfrwt beam="1">  1        2 0.27143808E+00 0.75452323E+03</pdfrwt>
<pdfrwt beam="2">  1       -2 0.26260490E+00 0.75452323E+03</pdfrwt>
<totfact> 0.51000841E-01</totfact>
</mgrwt>
</event>
<event>
 4    1  0.6502538E-008  0.8768517E+03  0.7818608E-02  0.9564263E-01
          2   -1    0    0  501    0  0.00000000000E+00  0.00000000000E+00  0.60558469742E+03  0.60558469742E+03  0.25500000000E-02 0. -1.
         -2   -1    0    0    0  501 -0.00000000000E+00 -0.00000000000E+00 -0.17880765534E+04  0.17880765534E+04  0.25500000000E-02 0.  1.
    8880023    1    1    2    0    0  0.56523683625E+03  0.12476396616E+03  0.18917379804E+03  0.89702600878E+03  0.65864270000E+03 0. -1.
    8880022    1    1    2    0    0 -0.56523683625E+03 -0.12476396616E+03 -0.13716656540E+04  0.14966352421E+04  0.15294330000E+03 0.  0.
<mgrwt>
<rscale>  0 0.79707328E+03</rscale>
<asrwt>0</asrwt>
<pdfrwt beam="1">  1        2 0.93166877E-01 0.87685172E+03</pdfrwt>
<pdfrwt beam="2">  1       -2 0.27508870E+00 0.87685172E+03</pdfrwt>
<totfact> 0.22514596E+00</totfact>
</mgrwt>
</event>
<event>
 4    1  0.6502538E-008  0.9133274E+03  0.7818608E-02  0.9504967E-01
          2   -1    0    0  501    0  0.00000000000E+00  0.00000000000E+00  0.10857003681E+04  0.10857003681E+04  0.25500000000E-02 0. -1.
         -2   -1    0    0    0  501 -0.00000000000E+00 -0.00000000000E+00 -0.13986331304E+04  0.13986331304E+04  0.25500000000E-02 0.  1.
    8880023    1    1    2    0    0  0.25343329238E+03  0.57976570135E+03  0.78738515894E+03  0.12058782264E+04  0.65864270000E+03 0.  0.
    8880022    1    1    2    0    0 -0.25343329238E+03 -0.57976570135E+03 -0.11003179212E+04  0.12784552722E+04  0.15294330000E+03 0.  0.
<mgrwt>
<rscale>  0 0.83918626E+03</rscale>
<asrwt>0</asrwt>
<pdfrwt beam="1">  1        2 0.16703083E+00 0.91332738E+03</pdfrwt>
<pdfrwt beam="2">  1       -2 0.21517433E+00 0.91332738E+03</pdfrwt>
<totfact> 0.23680362E+00</totfact>
</mgrwt>
</event>
<event>
 4    1  0.6502538E-008  0.1519520E+04  0.7818608E-02  0.8895974E-01
          2   -1    0    0  501    0  0.00000000000E+00  0.00000000000E+00  0.41938789781E+04  0.41938789781E+04  0.25500000000E-02 0. -1.
         -2   -1    0    0    0  501 -0.00000000000E+00 -0.00000000000E+00 -0.65639526444E+03  0.65639526445E+03  0.25500000000E-02 0.  1.
    8880023    1    1    2    0    0  0.12045510495E+04 -0.65129657197E+03  0.65358313867E+03  0.16541195788E+04  0.65864270000E+03 0.  0.
    8880022    1    1    2    0    0 -0.12045510495E+04  0.65129657197E+03  0.28839005749E+04  0.31961546637E+04  0.15294330000E+03 0.  0.
<mgrwt>
<rscale>  0 0.14827972E+04</rscale>
<asrwt>0</asrwt>
<pdfrwt beam="1">  1        2 0.64521213E+00 0.15195199E+04</pdfrwt>
<pdfrwt beam="2">  1       -2 0.10098389E+00 0.15195199E+04</pdfrwt>
<totfact> 0.18443831E-01</totfact>
</mgrwt>
</event>
<event>
 4    1  0.6502538E-008  0.7960632E+03  0.7818608E-02  0.9719374E-01
         -2   -1    0    0    0  501 -0.00000000000E+00  0.00000000000E+00  0.78747915815E+03  0.78747915815E+03  0.25500000000E-02 0.  1.
          2   -1    0    0  501    0  0.00000000000E+00 -0.00000000000E+00 -0.17596336243E+04  0.17596336243E+04  0.25500000000E-02 0. -1.
    8880023    1    1    2    0    0 -0.32464375002E+03 -0.30742942176E+03 -0.15847393223E+04  0.17734473039E+04  0.65864270000E+03 0. -1.
    8880022    1    1    2    0    0  0.32464375002E+03  0.30742942176E+03  0.61258485612E+03  0.77366547858E+03  0.15294330000E+03 0.  0.
<mgrwt>
<rscale>  0 0.69874913E+03</rscale>
<asrwt>0</asrwt>
<pdfrwt beam="1">  1        2 0.27071286E+00 0.79606320E+03</pdfrwt>
<pdfrwt beam="2">  1       -2 0.12115064E+00 0.79606320E+03</pdfrwt>
<totfact> 0.48214367E+00</totfact>
</mgrwt>
</event>
<event>
 4    1  0.6502538E-008  0.1114437E+04  0.7818608E-02  0.9245151E-01
          2   -1    0    0  501    0  0.00000000000E+00  0.00000000000E+00  0.18038720085E+04  0.18038720085E+04  0.25500000000E-02 0. -1.
         -2   -1    0    0    0  501 -0.00000000000E+00 -0.00000000000E+00 -0.15490919194E+04  0.15490919194E+04  0.25500000000E-02 0.  1.
    8880023    1    1    2    0    0  0.26012957080E+03  0.86051803312E+03  0.14630824684E+04  0.18391789458E+04  0.65864270000E+03 0.  0.
    8880022    1    1    2    0    0 -0.26012957080E+03 -0.86051803312E+03 -0.12083023794E+04  0.15137849821E+04  0.15294330000E+03 0.  0.
<mgrwt>
<rscale>  0 0.10599310E+04</rscale>
<asrwt>0</asrwt>
<pdfrwt beam="1">  1        2 0.27751877E+00 0.11144366E+04</pdfrwt>
<pdfrwt beam="2">  1       -2 0.23832183E+00 0.11144366E+04</pdfrwt>
<totfact> 0.64019702E-01</totfact>
</mgrwt>
</event>
<event>
 4    1  0.6502538E-008  0.1321579E+04  0.7818608E-02  0.9047145E-01
         -2   -1    0    0    0  501 -0.00000000000E+00  0.00000000000E+00  0.11235769557E+04  0.11235769557E+04  0.25500000000E-02 0.  1.
          2   -1    0    0  501    0  0.00000000000E+00 -0.00000000000E+00 -0.14078509284E+04  0.14078509284E+04  0.25500000000E-02 0. -1.
    8880023    1    1    2    0    0  0.10766937065E+04 -0.39178086736E+03 -0.36981391962E+03  0.13723462126E+04  0.65864270000E+03 0. -1.
    8880022    1    1    2    0    0 -0.10766937065E+04  0.39178086736E+03  0.85539946867E+02  0.11590816715E+04  0.15294330000E+03 0.  1.
<mgrwt>
<rscale>  0 0.12780621E+04</rscale>
<asrwt>0</asrwt>
<pdfrwt beam="1">  1        2 0.21659245E+00 0.13215793E+04</pdfrwt>
<pdfrwt beam="2">  1       -2 0.17285799E+00 0.13215793E+04</pdfrwt>
<totfact> 0.27963129E+00</totfact>
</mgrwt>
</event>
<event>
 4    1  0.6502538E-008  0.1063754E+04  0.7818608E-02  0.9302528E-01
          2   -1    0    0  501    0  0.00000000000E+00  0.00000000000E+00  0.12276014971E+04  0.12276014971E+04  0.25500000000E-02 0. -1.
         -2   -1    0    0    0  501 -0.00000000000E+00 -0.00000000000E+00 -0.22986100714E+04  0.22986100714E+04  0.25500000000E-02 0.  1.
    8880023    1    1    2    0    0  0.39020698426E+03  0.73857963053E+03  0.89144966753E+03  0.13878955570E+04  0.65864270000E+03 0. -1.
    8880022    1    1    2    0    0 -0.39020698426E+03 -0.73857963053E+03 -0.19624582418E+04  0.21383160115E+04  0.15294330000E+03 0.  0.
<mgrwt>
<rscale>  0 0.10055049E+04</rscale>
<asrwt>0</asrwt>
<pdfrwt beam="1">  1        2 0.18886177E+00 0.10637535E+04</pdfrwt>
<pdfrwt beam="2">  1       -2 0.35363232E+00 0.10637535E+04</pdfrwt>
<totfact> 0.26951097E-01</totfact>
</mgrwt>
</event>
<event>
 4    1  0.6502538E-008  0.8850253E+03  0.7818608E-02  0.9550511E-01
          2   -1    0    0  501    0  0.00000000000E+00  0.00000000000E+00  0.11503106952E+04  0.11503106952E+04  0.25500000000E-02 0. -1.
         -2   -1    0    0    0  501 -0.00000000000E+00 -0.00000000000E+00 -0.11133225088E+04  0.11133225088E+04  0.25500000000E-02 0.  1.
    8880023    1    1    2    0    0  0.28817947269E+03  0.51615135942E+03  0.86319378457E+03  0.12362739787E+04  0.65864270000E+03 0.  0.
    8880022    1    1    2    0    0 -0.28817947269E+03 -0.51615135942E+03 -0.82620559825E+03  0.10273592254E+04  0.15294330000E+03 0.  0.
<mgrwt>
<rscale>  0 0.80660096E+03</rscale>
<asrwt>0</asrwt>
<pdfrwt beam="1">  1        2 0.17697088E+00 0.88502533E+03</pdfrwt>
<pdfrwt beam="2">  1       -2 0.17128039E+00 0.88502533E+03</pdfrwt>
<totfact> 0.42537359E+00</totfact>
</mgrwt>
</event>
<event>
 4    1  0.6502538E-008  0.1026712E+04  0.7818608E-02  0.9347415E-01
          2   -1    0    0  501    0  0.00000000000E+00  0.00000000000E+00  0.80448772371E+03  0.80448772372E+03  0.25500000000E-02 0. -1.
         -2   -1    0    0    0  501 -0.00000000000E+00 -0.00000000000E+00 -0.15249891402E+04  0.15249891402E+04  0.25500000000E-02 0.  1.
    8880023    1    1    2    0    0 -0.49500920427E+03  0.61261172647E+03  0.26335767692E+03  0.10599503347E+04  0.65864270000E+03 0. -1.
    8880022    1    1    2    0    0  0.49500920427E+03 -0.61261172647E+03 -0.98385909336E+03  0.12695265292E+04  0.15294330000E+03 0.  0.
<mgrwt>
<rscale>  0 0.96532487E+03</rscale>
<asrwt>0</asrwt>
<pdfrwt beam="1">  1        2 0.12376734E+00 0.10267120E+04</pdfrwt>
<pdfrwt beam="2">  1       -2 0.23461371E+00 0.10267120E+04</pdfrwt>
<totfact> 0.27157544E+00</totfact>
</mgrwt>
</event>
<event>
 4    1  0.6502538E-008  0.1002285E+04  0.7818608E-02  0.9378574E-01
          2   -1    0    0  501    0  0.00000000000E+00  0.00000000000E+00  0.44246992235E+04  0.44246992235E+04  0.25500000000E-02 0. -1.
         -2   -1    0    0    0  501 -0.00000000000E+00 -0.00000000000E+00 -0.51929566234E+03  0.51929566235E+03  0.25500000000E-02 0.  1.
    8880023    1    1    2    0    0 -0.19330327908E+02 -0.75524297717E+03  0.40391624910E+04  0.41616594588E+04  0.65864270000E+03 0.  0.
    8880022    1    1    2    0    0  0.19330327908E+02  0.75524297717E+03 -0.13375892980E+03  0.78233542708E+03  0.15294330000E+03 0.  1.
<mgrwt>
<rscale>  0 0.93860140E+03</rscale>
<asrwt>0</asrwt>
<pdfrwt beam="1">  1        2 0.68072292E+00 0.10022853E+04</pdfrwt>
<pdfrwt beam="2">  1       -2 0.79891645E-01 0.10022853E+04</pdfrwt>
<totfact> 0.21586448E-01</totfact>
</mgrwt>
</event>
<event>
 4    1  0.1022276E-007  0.1155102E+04  0.7818608E-02  0.9202053E-01
         -2   -1    0    0    0  501 -0.00000000000E+00  0.00000000000E+00  0.23410702496E+04  0.23410702496E+04  0.25500000000E-02 0.  1.
          2   -1    0    0  501    0  0.00000000000E+00 -0.00000000000E+00 -0.16580371614E+04  0.16580371614E+04  0.25500000000E-02 0. -1.
    8880023    1    1    2    0    0 -0.82270225426E+03  0.47287470198E+03 -0.13341020624E+04  0.17646778749E+04  0.65864270000E+03 0.  0.
    8880022    1    1    2    0    0  0.82270225426E+03 -0.47287470198E+03  0.20171351506E+04  0.22344295361E+04  0.15294330000E+03 0.  0.
<mgrwt>
<rscale>  0 0.11032268E+04</rscale>
<asrwt>0</asrwt>
<pdfrwt beam="1">  1        2 0.25508264E+00 0.11551016E+04</pdfrwt>
<pdfrwt beam="2">  1       -2 0.36016465E+00 0.11551016E+04</pdfrwt>
<totfact> 0.13719534E-01</totfact>
</mgrwt>
</event>
<event>
 4    1  0.6502538E-008  0.7753300E+03  0.7818608E-02  0.9766924E-01
          2   -1    0    0  501    0  0.00000000000E+00  0.00000000000E+00  0.28509125736E+04  0.28509125736E+04  0.25500000000E-02 0. -1.
         -2   -1    0    0    0  501 -0.00000000000E+00 -0.00000000000E+00 -0.58916457700E+03  0.58916457700E+03  0.25500000000E-02 0.  1.
    8880023    1    1    2    0    0  0.60493826896E+02 -0.40455757680E+03  0.27073338019E+04  0.28161663405E+04  0.65864270000E+03 0.  0.
    8880022    1    1    2    0    0 -0.60493826896E+02  0.40455757680E+03 -0.44558580533E+03  0.62391081010E+03  0.15294330000E+03 0.  0.
<mgrwt>
<rscale>  0 0.67168226E+03</rscale>
<asrwt>0</asrwt>
<pdfrwt beam="1">  1        2 0.43860193E+00 0.77532996E+03</pdfrwt>
<pdfrwt beam="2">  1       -2 0.90640704E-01 0.77532996E+03</pdfrwt>
<totfact> 0.23655364E+00</totfact>
</mgrwt>
</event>
<event>
 4    1  0.6502538E-008  0.1448535E+04  0.7818608E-02  0.8946859E-01
         -2   -1    0    0    0  501 -0.00000000000E+00  0.00000000000E+00  0.12362240406E+04  0.12362240406E+04  0.25500000000E-02 0.  1.
          2   -1    0    0  501    0  0.00000000000E+00 -0.00000000000E+00 -0.18509517394E+04  0.18509517394E+04  0.25500000000E-02 0. -1.
    8880023    1    1    2    0    0 -0.12965560203E+03 -0.12836020720E+04 -0.96632108531E+03  0.17412729541E+04  0.65864270000E+03 0.  0.
    8880022    1    1    2    0    0  0.12965560203E+03  0.12836020720E+04  0.35159338654E+03  0.13459028259E+04  0.15294330000E+03 0.  0.
<mgrwt>
<rscale>  0 0.14096560E+04</rscale>
<asrwt>0</asrwt>
<pdfrwt beam="1">  1        2 0.28476181E+00 0.14485355E+04</pdfrwt>
<pdfrwt beam="2">  1       -2 0.19018831E+00 0.14485355E+04</pdfrwt>
<totfact> 0.11811420E+00</totfact>
</mgrwt>
</event>
<event>
 4    1  0.6502538E-008  0.6641732E+03  0.7818608E-02  0.1020237E+00
          2   -1    0    0  501    0  0.00000000000E+00  0.00000000000E+00  0.10677762888E+04  0.10677762888E+04  0.25500000000E-02 0. -1.
         -2   -1    0    0    0  501 -0.00000000000E+00 -0.00000000000E+00 -0.45035677018E+03  0.45035677019E+03  0.25500000000E-02 0.  1.
    8880023    1    1    2    0    0  0.84887282720E+02 -0.10488962898E+02  0.94003606208E+03  0.11509969042E+04  0.65864270000E+03 0. -1.
    8880022    1    1    2    0    0 -0.84887282720E+02  0.10488962898E+02 -0.32261654342E+03  0.36713615487E+03  0.15294330000E+03 0.  0.
<mgrwt>
<rscale>  0 0.47601060E+03</rscale>
<asrwt>0</asrwt>
<pdfrwt beam="1">  1        2 0.16427327E+00 0.66417323E+03</pdfrwt>
<pdfrwt beam="2">  1       -2 0.69285657E-01 0.66417323E+03</pdfrwt>
<totfact> 0.44454591E+01</totfact>
</mgrwt>
</event>
<event>
 4    1  0.6502538E-008  0.1000895E+04  0.7818608E-02  0.9380388E-01
          2   -1    0    0  501    0  0.00000000000E+00  0.00000000000E+00  0.81567950797E+03  0.81567950798E+03  0.25500000000E-02 0. -1.
         -2   -1    0    0    0  501 -0.00000000000E+00 -0.00000000000E+00 -0.12356283496E+04  0.12356283496E+04  0.25500000000E-02 0.  1.
    8880023    1    1    2    0    0  0.71199921258E+03 -0.24705653122E+03  0.24973320485E+03  0.10315797052E+04  0.65864270000E+03 0.  0.
    8880022    1    1    2    0    0 -0.71199921258E+03  0.24705653122E+03 -0.66968204649E+03  0.10197281524E+04  0.15294330000E+03 0.  0.
<mgrwt>
<rscale>  0 0.93707383E+03</rscale>
<asrwt>0</asrwt>
<pdfrwt beam="1">  1        2 0.12548916E+00 0.10008946E+04</pdfrwt>
<pdfrwt beam="2">  1       -2 0.19009667E+00 0.10008946E+04</pdfrwt>
<totfact> 0.51539573E+00</totfact>
</mgrwt>
</event>
<event>
 4    1  0.6502538E-008  0.1134704E+04  0.7818608E-02  0.9223367E-01
         -2   -1    0    0    0  501 -0.00000000000E+00  0.00000000000E+00  0.96220087545E+03  0.96220087545E+03  0.25500000000E-02 0.  1.
          2   -1    0    0  501    0  0.00000000000E+00 -0.00000000000E+00 -0.16972594783E+04  0.16972594783E+04  0.25500000000E-02 0. -1.
    8880023    1    1    2    0    0  0.89963797797E+03  0.21069854194E+03 -0.11673414862E+04  0.16279553798E+04  0.65864270000E+03 0.  0.
    8880022    1    1    2    0    0 -0.89963797797E+03 -0.21069854194E+03  0.43228288336E+03  0.10315049739E+04  0.15294330000E+03 0.  0.
<mgrwt>
<rscale>  0 0.10815463E+04</rscale>
<asrwt>0</asrwt>
<pdfrwt beam="1">  1        2 0.26111684E+00 0.11347037E+04</pdfrwt>
<pdfrwt beam="2">  1       -2 0.14803090E+00 0.11347037E+04</pdfrwt>
<totfact> 0.29895966E+00</totfact>
</mgrwt>
</event>
<event>
 4    1  0.6502538E-008  0.1390607E+04  0.7818608E-02  0.8991016E-01
         -2   -1    0    0    0  501 -0.00000000000E+00  0.00000000000E+00  0.83503314082E+03  0.83503314083E+03  0.25500000000E-02 0.  1.
          2   -1    0    0  501    0  0.00000000000E+00 -0.00000000000E+00 -0.34885373258E+04  0.34885373258E+04  0.25500000000E-02 0. -1.
    8880023    1    1    2    0    0  0.10471434547E+04 -0.63519191986E+03 -0.27540639464E+04  0.30852320199E+04  0.65864270000E+03 0. -1.
    8880022    1    1    2    0    0 -0.10471434547E+04  0.63519191986E+03  0.10055976143E+03  0.12383384467E+04  0.15294330000E+03 0.  0.
<mgrwt>
<rscale>  0 0.13497521E+04</rscale>
<asrwt>0</asrwt>
<pdfrwt beam="1">  1        2 0.53669804E+00 0.13906072E+04</pdfrwt>
<pdfrwt beam="2">  1       -2 0.12846664E+00 0.13906072E+04</pdfrwt>
<totfact> 0.35943994E-01</totfact>
</mgrwt>
</event>
<event>
 4    1  0.6502538E-008  0.8725665E+03  0.7818608E-02  0.9571589E-01
          2   -1    0    0  501    0  0.00000000000E+00  0.00000000000E+00  0.41758836054E+03  0.41758836055E+03  0.25500000000E-02 0. -1.
         -2   -1    0    0    0  501 -0.00000000000E+00 -0.00000000000E+00 -0.25598291622E+04  0.25598291622E+04  0.25500000000E-02 0.  1.
    8880023    1    1    2    0    0  0.48830089858E+03 -0.29853708381E+03 -0.13297889556E+03  0.88264134896E+03  0.65864270000E+03 0. -1.
    8880022    1    1    2    0    0 -0.48830089858E+03  0.29853708381E+03 -0.20092619061E+04  0.20947761738E+04  0.15294330000E+03 0.  0.
<mgrwt>
<rscale>  0 0.79205467E+03</rscale>
<asrwt>0</asrwt>
<pdfrwt beam="1">  1        2 0.64244365E-01 0.87256654E+03</pdfrwt>
<pdfrwt beam="2">  1       -2 0.39381986E+00 0.87256654E+03</pdfrwt>
<totfact> 0.64155586E-01</totfact>
</mgrwt>
</event>
<event>
 4    1  0.6502538E-008  0.8356651E+03  0.7818608E-02  0.9638409E-01
         -2   -1    0    0    0  501 -0.00000000000E+00  0.00000000000E+00  0.15062535291E+04  0.15062535291E+04  0.25500000000E-02 0.  1.
          2   -1    0    0  501    0  0.00000000000E+00 -0.00000000000E+00 -0.45130502554E+03  0.45130502555E+03  0.25500000000E-02 0. -1.
    8880023    1    1    2    0    0 -0.25198166016E+03  0.44836500501E+03  0.73354024104E+02  0.83887839041E+03  0.65864270000E+03 0.  0.
    8880022    1    1    2    0    0  0.25198166016E+03 -0.44836500501E+03  0.98159447943E+03  0.11186801642E+04  0.15294330000E+03 0.  0.
<mgrwt>
<rscale>  0 0.74805360E+03</rscale>
<asrwt>0</asrwt>
<pdfrwt beam="1">  1        2 0.69431544E-01 0.83566509E+03</pdfrwt>
<pdfrwt beam="2">  1       -2 0.23173131E+00 0.83566509E+03</pdfrwt>
<totfact> 0.58663318E+00</totfact>
</mgrwt>
</event>
<event>
 4    1  0.6502538E-008  0.1130400E+04  0.7818608E-02  0.9227942E-01
         -2   -1    0    0    0  501 -0.00000000000E+00  0.00000000000E+00  0.80207991009E+03  0.80207991009E+03  0.25500000000E-02 0.  1.
          2   -1    0    0  501    0  0.00000000000E+00 -0.00000000000E+00 -0.16165212907E+04  0.16165212907E+04  0.25500000000E-02 0. -1.
    8880023    1    1    2    0    0 -0.43239727752E+03 -0.81057123193E+03 -0.95110054581E+03  0.14772933298E+04  0.65864270000E+03 0.  0.
    8880022    1    1    2    0    0  0.43239727752E+03  0.81057123193E+03  0.13665916519E+03  0.94130787104E+03  0.15294330000E+03 0.  0.
<mgrwt>
<rscale>  0 0.10769623E+04</rscale>
<asrwt>0</asrwt>
<pdfrwt beam="1">  1        2 0.24869558E+00 0.11303996E+04</pdfrwt>
<pdfrwt beam="2">  1       -2 0.12339691E+00 0.11303996E+04</pdfrwt>
<totfact> 0.53047602E+00</totfact>
</mgrwt>
</event>
<event>
 4    1  0.6502538E-008  0.8205872E+03  0.7818608E-02  0.9667932E-01
          2   -1    0    0  501    0  0.00000000000E+00  0.00000000000E+00  0.91663176752E+03  0.91663176753E+03  0.25500000000E-02 0. -1.
         -2   -1    0    0    0  501 -0.00000000000E+00 -0.00000000000E+00 -0.14025312574E+04  0.14025312574E+04  0.25500000000E-02 0.  1.
    8880023    1    1    2    0    0  0.32591962129E+03 -0.36514318046E+03  0.66693222780E+03  0.10574317683E+04  0.65864270000E+03 0.  0.
    8880022    1    1    2    0    0 -0.32591962129E+03  0.36514318046E+03 -0.11528317177E+04  0.12617312567E+04  0.15294330000E+03 0.  0.
<mgrwt>
<rscale>  0 0.72958622E+03</rscale>
<asrwt>0</asrwt>
<pdfrwt beam="1">  1        2 0.14102027E+00 0.82058720E+03</pdfrwt>
<pdfrwt beam="2">  1       -2 0.21577404E+00 0.82058720E+03</pdfrwt>
<totfact> 0.30512945E+00</totfact>
</mgrwt>
</event>
<event>
 4    1  0.6502538E-008  0.1214173E+04  0.7818608E-02  0.9143466E-01
          2   -1    0    0  501    0  0.00000000000E+00  0.00000000000E+00  0.46574126396E+04  0.46574126396E+04  0.25500000000E-02 0. -1.
         -2   -1    0    0    0  501 -0.00000000000E+00 -0.00000000000E+00 -0.51210659381E+03  0.51210659381E+03  0.25500000000E-02 0.  1.
    8880023    1    1    2    0    0 -0.87498985229E+03 -0.52421348714E+03  0.39334471507E+04  0.41165791278E+04  0.65864270000E+03 0.  0.
    8880022    1    1    2    0    0  0.87498985229E+03  0.52421348714E+03  0.21185889515E+03  0.10529401057E+04  0.15294330000E+03 0.  0.
<mgrwt>
<rscale>  0 0.11656495E+04</rscale>
<asrwt>0</asrwt>
<pdfrwt beam="1">  1        2 0.71652501E+00 0.12141735E+04</pdfrwt>
<pdfrwt beam="2">  1       -2 0.78785631E-01 0.12141735E+04</pdfrwt>
<totfact> 0.12632057E-01</totfact>
</mgrwt>
</event>
<event>
 4    1  0.6502538E-008  0.1558527E+04  0.7818608E-02  0.8869377E-01
         -2   -1    0    0    0  501 -0.00000000000E+00  0.00000000000E+00  0.23972665592E+04  0.23972665592E+04  0.25500000000E-02 0.  1.
          2   -1    0    0  501    0  0.00000000000E+00 -0.00000000000E+00 -0.13922156104E+04  0.13922156104E+04  0.25500000000E-02 0. -1.
    8880023    1    1    2    0    0  0.49425139999E+03  0.13232198104E+04 -0.57809931548E+03  0.16622888250E+04  0.65864270000E+03 0.  0.
    8880022    1    1    2    0    0 -0.49425139999E+03 -0.13232198104E+04  0.15831502643E+04  0.21271933446E+04  0.15294330000E+03 0.  0.
<mgrwt>
<rscale>  0 0.15228832E+04</rscale>
<asrwt>0</asrwt>
<pdfrwt beam="1">  1        2 0.21418702E+00 0.15585267E+04</pdfrwt>
<pdfrwt beam="2">  1       -2 0.36881024E+00 0.15585267E+04</pdfrwt>
<totfact> 0.16192532E-01</totfact>
</mgrwt>
</event>
<event>
 4    1  0.6502538E-008  0.7706341E+03  0.7818608E-02  0.9778316E-01
          2   -1    0    0  501    0  0.00000000000E+00  0.00000000000E+00  0.41557529275E+04  0.41557529275E+04  0.25500000000E-02 0. -1.
         -2   -1    0    0    0  501 -0.00000000000E+00 -0.00000000000E+00 -0.24846389649E+03  0.24846389650E+03  0.25500000000E-02 0.  1.
    8880023    1    1    2    0    0  0.40004642536E+03  0.54411684358E+01  0.39004409747E+04  0.39758416407E+04  0.65864270000E+03 0. -1.
    8880022    1    1    2    0    0 -0.40004642536E+03 -0.54411684358E+01  0.68480563056E+01  0.42837518327E+03  0.15294330000E+03 0.  0.
<mgrwt>
<rscale>  0 0.66539323E+03</rscale>
<asrwt>0</asrwt>
<pdfrwt beam="1">  1        2 0.63934661E+00 0.77063413E+03</pdfrwt>
<pdfrwt beam="2">  1       -2 0.38225214E-01 0.77063413E+03</pdfrwt>
<totfact> 0.18242007E+00</totfact>
</mgrwt>
</event>
<event>
 4    1  0.6502538E-008  0.6644541E+03  0.7818608E-02  0.1019996E+00
          2   -1    0    0  501    0  0.00000000000E+00  0.00000000000E+00  0.29796150597E+03  0.29796150599E+03  0.25500000000E-02 0. -1.
         -2   -1    0    0    0  501 -0.00000000000E+00 -0.00000000000E+00 -0.15524840407E+04  0.15524840407E+04  0.25500000000E-02 0.  1.
    8880023    1    1    2    0    0  0.83175653986E+02  0.27765446784E+02 -0.87510287469E+02  0.67019203675E+03  0.65864270000E+03 0. -1.
    8880022    1    1    2    0    0 -0.83175653986E+02 -0.27765446784E+02 -0.11670122473E+04  0.11802535100E+04  0.15294330000E+03 0.  0.
<mgrwt>
<rscale>  0 0.47688122E+03</rscale>
<asrwt>0</asrwt>
<pdfrwt beam="1">  1        2 0.45840233E-01 0.66445415E+03</pdfrwt>
<pdfrwt beam="2">  1       -2 0.23884369E+00 0.66445415E+03</pdfrwt>
<totfact> 0.86218957E+00</totfact>
</mgrwt>
</event>
<event>
 4    1  0.6502538E-008  0.7693382E+03  0.7818608E-02  0.9781505E-01
         -2   -1    0    0    0  501 -0.00000000000E+00  0.00000000000E+00  0.72209202133E+03  0.72209202133E+03  0.25500000000E-02 0.  1.
          2   -1    0    0  501    0  0.00000000000E+00 -0.00000000000E+00 -0.22711308695E+04  0.22711308695E+04  0.25500000000E-02 0. -1.
    8880023    1    1    2    0    0 -0.31735919974E+03 -0.23948739997E+03 -0.21346561430E+04  0.22690610682E+04  0.65864270000E+03 0. -1.
    8880022    1    1    2    0    0  0.31735919974E+03  0.23948739997E+03  0.58561729477E+03  0.72416182263E+03  0.15294330000E+03 0.  0.
<mgrwt>
<rscale>  0 0.66364589E+03</rscale>
<asrwt>0</asrwt>
<pdfrwt beam="1">  1        2 0.34940475E+00 0.76933821E+03</pdfrwt>
<pdfrwt beam="2">  1       -2 0.11109108E+00 0.76933821E+03</pdfrwt>
<totfact> 0.31408282E+00</totfact>
</mgrwt>
</event>
<event>
 4    1  0.6502538E-008  0.8510935E+03  0.7818608E-02  0.9609607E-01
         -2   -1    0    0    0  501 -0.00000000000E+00  0.00000000000E+00  0.59222736253E+03  0.59222736254E+03  0.25500000000E-02 0.  1.
          2   -1    0    0  501    0  0.00000000000E+00 -0.00000000000E+00 -0.25468683120E+04  0.25468683120E+04  0.25500000000E-02 0. -1.
    8880023    1    1    2    0    0 -0.53894159554E+03 -0.95839921758E+01 -0.23193321888E+04  0.24705590267E+04  0.65864270000E+03 0.  0.
    8880022    1    1    2    0    0  0.53894159554E+03  0.95839921758E+01  0.36469123938E+03  0.66853664776E+03  0.15294330000E+03 0.  0.
<mgrwt>
<rscale>  0 0.76663571E+03</rscale>
<asrwt>0</asrwt>
<pdfrwt beam="1">  1        2 0.39182589E+00 0.85109347E+03</pdfrwt>
<pdfrwt beam="2">  1       -2 0.91111903E-01 0.85109347E+03</pdfrwt>
<totfact> 0.34694892E+00</totfact>
</mgrwt>
</event>
<event>
 4    1  0.6502538E-008  0.9643850E+03  0.7818608E-02  0.9429712E-01
         -2   -1    0    0    0  501 -0.00000000000E+00  0.00000000000E+00  0.30016181223E+04  0.30016181223E+04  0.25500000000E-02 0.  1.
          2   -1    0    0  501    0  0.00000000000E+00 -0.00000000000E+00 -0.29502977121E+03  0.29502977122E+03  0.25500000000E-02 0. -1.
    8880023    1    1    2    0    0 -0.62941298274E+03  0.31633444492E+03  0.78233714803E+03  0.12418090849E+04  0.65864270000E+03 0. -1.
    8880022    1    1    2    0    0  0.62941298274E+03 -0.31633444492E+03  0.19242512030E+04  0.20548388086E+04  0.15294330000E+03 0.  0.
<mgrwt>
<rscale>  0 0.89670284E+03</rscale>
<asrwt>0</asrwt>
<pdfrwt beam="1">  1        2 0.45389196E-01 0.96438498E+03</pdfrwt>
<pdfrwt beam="2">  1       -2 0.46178740E+00 0.96438498E+03</pdfrwt>
<totfact> 0.33353894E-01</totfact>
</mgrwt>
</event>
<event>
 4    1  0.6502538E-008  0.1012083E+04  0.7818608E-02  0.9365918E-01
         -2   -1    0    0    0  501 -0.00000000000E+00  0.00000000000E+00  0.44912388711E+03  0.44912388711E+03  0.25500000000E-02 0.  1.
          2   -1    0    0  501    0  0.00000000000E+00 -0.00000000000E+00 -0.26954611408E+04  0.26954611408E+04  0.25500000000E-02 0. -1.
    8880023    1    1    2    0    0 -0.75699314929E+03 -0.13214533979E+03 -0.21223604098E+04  0.23513240811E+04  0.65864270000E+03 0. -1.
    8880022    1    1    2    0    0  0.75699314929E+03  0.13214533979E+03 -0.12397684386E+03  0.79326094681E+03  0.15294330000E+03 0.  0.
<mgrwt>
<rscale>  0 0.94934383E+03</rscale>
<asrwt>0</asrwt>
<pdfrwt beam="1">  1        2 0.41468632E+00 0.10120826E+04</pdfrwt>
<pdfrwt beam="2">  1       -2 0.69095984E-01 0.10120826E+04</pdfrwt>
<totfact> 0.51789218E+00</totfact>
</mgrwt>
</event>
<event>
 4    1  0.6502538E-008  0.1250971E+04  0.7818608E-02  0.9109100E-01
          2   -1    0    0  501    0  0.00000000000E+00  0.00000000000E+00  0.27422062764E+04  0.27422062764E+04  0.25500000000E-02 0. -1.
         -2   -1    0    0    0  501 -0.00000000000E+00 -0.00000000000E+00 -0.57383655781E+03  0.57383655782E+03  0.25500000000E-02 0.  1.
    8880023    1    1    2    0    0 -0.81489423962E+03 -0.68342170933E+03  0.17756037613E+04  0.21720259616E+04  0.65864270000E+03 0.  0.
    8880022    1    1    2    0    0  0.81489423962E+03  0.68342170933E+03  0.39276595728E+03  0.11440168726E+04  0.15294330000E+03 0.  0.
<mgrwt>
<rscale>  0 0.12043011E+04</rscale>
<asrwt>0</asrwt>
<pdfrwt beam="1">  1        2 0.42187789E+00 0.12509708E+04</pdfrwt>
<pdfrwt beam="2">  1       -2 0.88282546E-01 0.12509708E+04</pdfrwt>
<totfact> 0.27190900E+00</totfact>
</mgrwt>
</event>
<event>
 4    1  0.6502538E-008  0.1635138E+04  0.7818608E-02  0.8819671E-01
         -2   -1    0    0    0  501 -0.00000000000E+00  0.00000000000E+00  0.14813544498E+04  0.14813544498E+04  0.25500000000E-02 0.  1.
          2   -1    0    0  501    0  0.00000000000E+00 -0.00000000000E+00 -0.29251491246E+04  0.29251491246E+04  0.25500000000E-02 0. -1.
    8880023    1    1    2    0    0 -0.58174381919E+03 -0.13789272847E+04 -0.21852619250E+04  0.27292940873E+04  0.65864270000E+03 0.  0.
    8880022    1    1    2    0    0  0.58174381919E+03  0.13789272847E+04  0.74146725021E+03  0.16772094872E+04  0.15294330000E+03 0.  0.
<mgrwt>
<rscale>  0 0.16014286E+04</rscale>
<asrwt>0</asrwt>
<pdfrwt beam="1">  1        2 0.45002294E+00 0.16351381E+04</pdfrwt>
<pdfrwt beam="2">  1       -2 0.22790068E+00 0.16351381E+04</pdfrwt>
<totfact> 0.15806196E-01</totfact>
</mgrwt>
</event>
<event>
 4    1  0.6502538E-008  0.1478386E+04  0.7818608E-02  0.8925051E-01
          2   -1    0    0  501    0  0.00000000000E+00  0.00000000000E+00  0.19393744973E+04  0.19393744973E+04  0.25500000000E-02 0. -1.
         -2   -1    0    0    0  501 -0.00000000000E+00 -0.00000000000E+00 -0.10695767120E+04  0.10695767120E+04  0.25500000000E-02 0.  1.
    8880023    1    1    2    0    0  0.12649097306E+04  0.38964024881E+03  0.78503226231E+03  0.16738882905E+04  0.65864270000E+03 0.  0.
    8880022    1    1    2    0    0 -0.12649097306E+04 -0.38964024881E+03  0.84765522969E+02  0.13350629187E+04  0.15294330000E+03 0.  0.
<mgrwt>
<rscale>  0 0.14404465E+04</rscale>
<asrwt>0</asrwt>
<pdfrwt beam="1">  1        2 0.29836531E+00 0.14783864E+04</pdfrwt>
<pdfrwt beam="2">  1       -2 0.16455026E+00 0.14783864E+04</pdfrwt>
<totfact> 0.15912616E+00</totfact>
</mgrwt>
</event>
<event>
 4    1  0.6502538E-008  0.1292205E+04  0.7818608E-02  0.9072321E-01
         -2   -1    0    0    0  501 -0.00000000000E+00  0.00000000000E+00  0.11875367873E+04  0.11875367873E+04  0.25500000000E-02 0.  1.
          2   -1    0    0  501    0  0.00000000000E+00 -0.00000000000E+00 -0.21246743525E+04  0.21246743525E+04  0.25500000000E-02 0. -1.
    8880023    1    1    2    0    0  0.76891033174E+03 -0.80296924185E+03 -0.15624224763E+04  0.20275494821E+04  0.65864270000E+03 0.  0.
    8880022    1    1    2    0    0 -0.76891033174E+03  0.80296924185E+03  0.62528491119E+03  0.12846616577E+04  0.15294330000E+03 0.  0.
<mgrwt>
<rscale>  0 0.12474347E+04</rscale>
<asrwt>0</asrwt>
<pdfrwt beam="1">  1        2 0.32687298E+00 0.12922047E+04</pdfrwt>
<pdfrwt beam="2">  1       -2 0.18269797E+00 0.12922047E+04</pdfrwt>
<totfact> 0.95100992E-01</totfact>
</mgrwt>
</event>
<event>
 4    1  0.6502538E-008  0.6628645E+03  0.7818608E-02  0.1021396E+00
         -2   -1    0    0    0  501 -0.00000000000E+00  0.00000000000E+00  0.40233348138E+03  0.40233348139E+03  0.25500000000E-02 0.  1.
          2   -1    0    0  501    0  0.00000000000E+00 -0.00000000000E+00 -0.32105912881E+04  0.32105912881E+04  0.25500000000E-02 0. -1.
    8880023    1    1    2    0    0  0.62438127291E+02  0.40996081371E+02 -0.31564799610E+04  0.32253302388E+04  0.65864270000E+03 0. -1.
    8880022    1    1    2    0    0 -0.62438127291E+02 -0.40996081371E+02  0.34822215435E+03  0.38759453069E+03  0.15294330000E+03 0.  0.
<mgrwt>
<rscale>  0 0.47186064E+03</rscale>
<asrwt>0</asrwt>
<pdfrwt beam="1">  1        2 0.49393711E+00 0.66286454E+03</pdfrwt>
<pdfrwt beam="2">  1       -2 0.61897461E-01 0.66286454E+03</pdfrwt>
<totfact> 0.33895925E+00</totfact>
</mgrwt>
</event>
<event>
 4    1  0.6502538E-008  0.8619259E+03  0.7818608E-02  0.9590147E-01
         -2   -1    0    0    0  501 -0.00000000000E+00  0.00000000000E+00  0.50442110660E+03  0.50442110661E+03  0.25500000000E-02 0.  1.
          2   -1    0    0  501    0  0.00000000000E+00 -0.00000000000E+00 -0.16045513877E+04  0.16045513877E+04  0.25500000000E-02 0. -1.
    8880023    1    1    2    0    0 -0.41428989298E+03 -0.37076949486E+03 -0.12451691367E+04  0.15143851950E+04  0.65864270000E+03 0.  0.
    8880022    1    1    2    0    0  0.41428989298E+03  0.37076949486E+03  0.14503885563E+03  0.59458729923E+03  0.15294330000E+03 0.  0.
<mgrwt>
<rscale>  0 0.77951784E+03</rscale>
<asrwt>0</asrwt>
<pdfrwt beam="1">  1        2 0.24685406E+00 0.86192595E+03</pdfrwt>
<pdfrwt beam="2">  1       -2 0.77603248E-01 0.86192595E+03</pdfrwt>
<totfact> 0.16611231E+01</totfact>
</mgrwt>
</event>
<event>
 4    1  0.6502538E-008  0.9104010E+03  0.7818608E-02  0.9509537E-01
          2   -1    0    0  501    0  0.00000000000E+00  0.00000000000E+00  0.25693069519E+04  0.25693069519E+04  0.25500000000E-02 0. -1.
         -2   -1    0    0    0  501 -0.00000000000E+00 -0.00000000000E+00 -0.31834718283E+03  0.31834718284E+03  0.25500000000E-02 0.  1.
    8880023    1    1    2    0    0  0.31282384227E+03 -0.54512480069E+03  0.19933270749E+04  0.21913883358E+04  0.65864270000E+03 0.  0.
    8880022    1    1    2    0    0 -0.31282384227E+03  0.54512480069E+03  0.25763269417E+03  0.69626579892E+03  0.15294330000E+03 0.  0.
<mgrwt>
<rscale>  0 0.83584355E+03</rscale>
<asrwt>0</asrwt>
<pdfrwt beam="1">  1        2 0.39527800E+00 0.91040102E+03</pdfrwt>
<pdfrwt beam="2">  1       -2 0.48976489E-01 0.91040102E+03</pdfrwt>
<totfact> 0.12834776E+01</totfact>
</mgrwt>
</event>
<event>
 4    1  0.6502538E-008  0.1908113E+04  0.7818608E-02  0.8664978E-01
          2   -1    0    0  501    0  0.00000000000E+00  0.00000000000E+00  0.23648148411E+04  0.23648148411E+04  0.25500000000E-02 0. -1.
         -2   -1    0    0    0  501 -0.00000000000E+00 -0.00000000000E+00 -0.18089671981E+04  0.18089671981E+04  0.25500000000E-02 0.  1.
    8880023    1    1    2    0    0  0.82797265350E+03  0.15879379298E+04 -0.64271701250E+03  0.20134500114E+04  0.65864270000E+03 0.  0.
    8880022    1    1    2    0    0 -0.82797265350E+03 -0.15879379298E+04  0.11985646555E+04  0.21603320278E+04  0.15294330000E+03 0.  0.
<mgrwt>
<rscale>  0 0.18797991E+04</rscale>
<asrwt>0</asrwt>
<pdfrwt beam="1">  1        2 0.36381767E+00 0.19081131E+04</pdfrwt>
<pdfrwt beam="2">  1       -2 0.27830264E+00 0.19081131E+04</pdfrwt>
<totfact> 0.16101210E-01</totfact>
</mgrwt>
</event>
<event>
 4    1  0.6502538E-008  0.9051167E+03  0.7818608E-02  0.9517867E-01
         -2   -1    0    0    0  501 -0.00000000000E+00  0.00000000000E+00  0.42350239569E+03  0.42350239570E+03  0.25500000000E-02 0.  1.
          2   -1    0    0  501    0  0.00000000000E+00 -0.00000000000E+00 -0.21702970251E+04  0.21702970251E+04  0.25500000000E-02 0. -1.
    8880023    1    1    2    0    0 -0.15956807737E+03  0.59997001856E+03 -0.17319979055E+04  0.19542397359E+04  0.65864270000E+03 0.  0.
    8880022    1    1    2    0    0  0.15956807737E+03 -0.59997001856E+03 -0.14796723920E+02  0.63955968490E+03  0.15294330000E+03 0.  0.
<mgrwt>
<rscale>  0 0.82979274E+03</rscale>
<asrwt>0</asrwt>
<pdfrwt beam="1">  1        2 0.33389185E+00 0.90511668E+03</pdfrwt>
<pdfrwt beam="2">  1       -2 0.65154216E-01 0.90511668E+03</pdfrwt>
<totfact> 0.11856154E+01</totfact>
</mgrwt>
</event>
<event>
 4    1  0.6502538E-008  0.7982513E+03  0.7818608E-02  0.9714590E-01
          2   -1    0    0  501    0  0.00000000000E+00  0.00000000000E+00  0.14358020931E+04  0.14358020931E+04  0.25500000000E-02 0. -1.
         -2   -1    0    0    0  501 -0.00000000000E+00 -0.00000000000E+00 -0.10522175349E+04  0.10522175349E+04  0.25500000000E-02 0.  1.
    8880023    1    1    2    0    0  0.44729133009E+03  0.57665726735E+02  0.12594194664E+04  0.14910876797E+04  0.65864270000E+03 0.  0.
    8880022    1    1    2    0    0 -0.44729133009E+03 -0.57665726735E+02 -0.87583490819E+03  0.99693194824E+03  0.15294330000E+03 0.  0.
<mgrwt>
<rscale>  0 0.70154715E+03</rscale>
<asrwt>0</asrwt>
<pdfrwt beam="1">  1        2 0.22089263E+00 0.79825126E+03</pdfrwt>
<pdfrwt beam="2">  1       -2 0.16187962E+00 0.79825126E+03</pdfrwt>
<totfact> 0.34315072E+00</totfact>
</mgrwt>
</event>
<event>
 4    1  0.6502538E-008  0.6788981E+03  0.7818608E-02  0.1009954E+00
         -2   -1    0    0    0  501 -0.00000000000E+00  0.00000000000E+00  0.22971158932E+03  0.22971158934E+03  0.25500000000E-02 0.  1.
          2   -1    0    0  501    0  0.00000000000E+00 -0.00000000000E+00 -0.21208625764E+04  0.21208625764E+04  0.25500000000E-02 0. -1.
    8880023    1    1    2    0    0 -0.15808880089E+03 -0.45829646533E+02 -0.19918389053E+04  0.21043585380E+04  0.65864270000E+03 0. -1.
    8880022    1    1    2    0    0  0.15808880089E+03  0.45829646533E+02  0.10068791821E+03  0.24621562776E+03  0.15294330000E+03 0.  0.
<mgrwt>
<rscale>  0 0.51492947E+03</rscale>
<asrwt>0</asrwt>
<pdfrwt beam="1">  1        2 0.32628654E+00 0.67889810E+03</pdfrwt>
<pdfrwt beam="2">  1       -2 0.35340246E-01 0.67889810E+03</pdfrwt>
<totfact> 0.44847669E+01</totfact>
</mgrwt>
</event>
<event>
 4    1  0.6502538E-008  0.8105199E+03  0.7818608E-02  0.9688495E-01
          2   -1    0    0  501    0  0.00000000000E+00  0.00000000000E+00  0.10601113819E+04  0.10601113819E+04  0.25500000000E-02 0. -1.
         -2   -1    0    0    0  501 -0.00000000000E+00 -0.00000000000E+00 -0.59062127595E+03  0.59062127595E+03  0.25500000000E-02 0.  1.
    8880023    1    1    2    0    0 -0.46957322770E+03  0.51314827639E+02  0.72931997117E+03  0.10903440073E+04  0.65864270000E+03 0. -1.
    8880022    1    1    2    0    0  0.46957322770E+03 -0.51314827639E+02 -0.25982986525E+03  0.56038865049E+03  0.15294330000E+03 0.  0.
<mgrwt>
<rscale>  0 0.71705937E+03</rscale>
<asrwt>0</asrwt>
<pdfrwt beam="1">  1        2 0.16309406E+00 0.81051985E+03</pdfrwt>
<pdfrwt beam="2">  1       -2 0.90864812E-01 0.81051985E+03</pdfrwt>
<totfact> 0.24107602E+01</totfact>
</mgrwt>
</event>
<event>
 4    1  0.6502538E-008  0.6701981E+03  0.7818608E-02  0.1015521E+00
          2   -1    0    0  501    0  0.00000000000E+00  0.00000000000E+00  0.10033402566E+04  0.10033402566E+04  0.25500000000E-02 0. -1.
         -2   -1    0    0    0  501 -0.00000000000E+00 -0.00000000000E+00 -0.47535887522E+03  0.47535887523E+03  0.25500000000E-02 0.  1.
    8880023    1    1    2    0    0  0.11892895343E+03  0.34801891459E+02  0.86146110231E+03  0.10914580636E+04  0.65864270000E+03 0. -1.
    8880022    1    1    2    0    0 -0.11892895343E+03 -0.34801891459E+02 -0.33347972093E+03  0.38724106820E+03  0.15294330000E+03 0.  0.
<mgrwt>
<rscale>  0 0.49338056E+03</rscale>
<asrwt>0</asrwt>
<pdfrwt beam="1">  1        2 0.15436004E+00 0.67019809E+03</pdfrwt>
<pdfrwt beam="2">  1       -2 0.73132135E-01 0.67019809E+03</pdfrwt>
<totfact> 0.43314433E+01</totfact>
</mgrwt>
</event>
<event>
 4    1  0.6502538E-008  0.1083600E+04  0.7818608E-02  0.9279539E-01
         -2   -1    0    0    0  501 -0.00000000000E+00  0.00000000000E+00  0.74882731303E+03  0.74882731303E+03  0.25500000000E-02 0.  1.
          2   -1    0    0  501    0  0.00000000000E+00 -0.00000000000E+00 -0.15375099358E+04  0.15375099358E+04  0.25500000000E-02 0. -1.
    8880023    1    1    2    0    0  0.10041490611E+03  0.85457325646E+03 -0.89570118054E+03  0.14058696295E+04  0.65864270000E+03 0.  0.
    8880022    1    1    2    0    0 -0.10041490611E+03 -0.85457325646E+03  0.10701855776E+03  0.88046761936E+03  0.15294330000E+03 0.  0.
<mgrwt>
<rscale>  0 0.10268856E+04</rscale>
<asrwt>0</asrwt>
<pdfrwt beam="1">  1        2 0.23653999E+00 0.10835999E+04</pdfrwt>
<pdfrwt beam="2">  1       -2 0.11520420E+00 0.10835999E+04</pdfrwt>
<totfact> 0.69998330E+00</totfact>
</mgrwt>
</event>
<event>
 4    1  0.6502538E-008  0.1241775E+04  0.7818608E-02  0.9117546E-01
          2   -1    0    0  501    0  0.00000000000E+00  0.00000000000E+00  0.34870889277E+04  0.34870889277E+04  0.25500000000E-02 0. -1.
         -2   -1    0    0    0  501 -0.00000000000E+00 -0.00000000000E+00 -0.68647813875E+03  0.68647813876E+03  0.25500000000E-02 0.  1.
    8880023    1    1    2    0    0 -0.46639254739E+03 -0.94375449279E+03  0.28498775523E+04  0.31086664054E+04  0.65864270000E+03 0.  0.
    8880022    1    1    2    0    0  0.46639254739E+03  0.94375449279E+03 -0.49266763325E+02  0.10649006611E+04  0.15294330000E+03 0.  0.
<mgrwt>
<rscale>  0 0.11946566E+04</rscale>
<asrwt>0</asrwt>
<pdfrwt beam="1">  1        2 0.53647522E+00 0.12417748E+04</pdfrwt>
<pdfrwt beam="2">  1       -2 0.10561202E+00 0.12417748E+04</pdfrwt>
<totfact> 0.59765422E-01</totfact>
</mgrwt>
</event>
<event>
 4    1  0.6502538E-008  0.1592124E+04  0.7818608E-02  0.8847182E-01
         -2   -1    0    0    0  501 -0.00000000000E+00  0.00000000000E+00  0.11639037718E+04  0.11639037718E+04  0.25500000000E-02 0.  1.
          2   -1    0    0  501    0  0.00000000000E+00 -0.00000000000E+00 -0.20347037172E+04  0.20347037172E+04  0.25500000000E-02 0. -1.
    8880023    1    1    2    0    0 -0.95688113814E+03  0.10887731433E+04 -0.23877133577E+03  0.16099287025E+04  0.65864270000E+03 0.  0.
    8880022    1    1    2    0    0  0.95688113814E+03 -0.10887731433E+04 -0.63202860962E+03  0.15886787865E+04  0.15294330000E+03 0.  0.
<mgrwt>
<rscale>  0 0.15573571E+04</rscale>
<asrwt>0</asrwt>
<pdfrwt beam="1">  1        2 0.31303134E+00 0.15921240E+04</pdfrwt>
<pdfrwt beam="2">  1       -2 0.17906212E+00 0.15921240E+04</pdfrwt>
<totfact> 0.10975037E+00</totfact>
</mgrwt>
</event>
<event>
 4    1  0.6502538E-008  0.7992736E+03  0.7818608E-02  0.9712369E-01
         -2   -1    0    0    0  501 -0.00000000000E+00  0.00000000000E+00  0.23145692986E+03  0.23145692988E+03  0.25500000000E-02 0.  1.
          2   -1    0    0  501    0  0.00000000000E+00 -0.00000000000E+00 -0.28465037951E+04  0.28465037951E+04  0.25500000000E-02 0. -1.
    8880023    1    1    2    0    0  0.41178673152E+03  0.18830774453E+03 -0.24423104700E+04  0.25697701759E+04  0.65864270000E+03 0. -1.
    8880022    1    1    2    0    0 -0.41178673152E+03 -0.18830774453E+03 -0.17273639525E+03  0.50819054908E+03  0.15294330000E+03 0.  0.
<mgrwt>
<rscale>  0 0.70285109E+03</rscale>
<asrwt>0</asrwt>
<pdfrwt beam="1">  1        2 0.43792364E+00 0.79927362E+03</pdfrwt>
<pdfrwt beam="2">  1       -2 0.35608760E-01 0.79927362E+03</pdfrwt>
<totfact> 0.16821151E+01</totfact>
</mgrwt>
</event>
<event>
 4    1  0.6502538E-008  0.8474313E+03  0.7818608E-02  0.9616324E-01
          2   -1    0    0  501    0  0.00000000000E+00  0.00000000000E+00  0.26788791275E+04  0.26788791275E+04  0.25500000000E-02 0. -1.
         -2   -1    0    0    0  501 -0.00000000000E+00 -0.00000000000E+00 -0.52691069649E+03  0.52691069650E+03  0.25500000000E-02 0.  1.
    8880023    1    1    2    0    0 -0.11751398909E+03  0.52011548579E+03  0.24384135208E+04  0.25814725179E+04  0.65864270000E+03 0. -1.
    8880022    1    1    2    0    0  0.11751398909E+03 -0.52011548579E+03 -0.28644508978E+03  0.62431730608E+03  0.15294330000E+03 0.  0.
<mgrwt>
<rscale>  0 0.76225114E+03</rscale>
<asrwt>0</asrwt>
<pdfrwt beam="1">  1        2 0.41213525E+00 0.84743133E+03</pdfrwt>
<pdfrwt beam="2">  1       -2 0.81063183E-01 0.84743133E+03</pdfrwt>
<totfact> 0.38056277E+00</totfact>
</mgrwt>
</event>
<event>
 4    1  0.6502538E-008  0.7671423E+03  0.7818608E-02  0.9786956E-01
          2   -1    0    0  501    0  0.00000000000E+00  0.00000000000E+00  0.25678656225E+04  0.25678656225E+04  0.25500000000E-02 0. -1.
         -2   -1    0    0    0  501 -0.00000000000E+00 -0.00000000000E+00 -0.47082626666E+03  0.47082626667E+03  0.25500000000E-02 0.  1.
    8880023    1    1    2    0    0 -0.33867726617E+03  0.19998700823E+03  0.23997222876E+04  0.25193599103E+04  0.65864270000E+03 0. -1.
    8880022    1    1    2    0    0  0.33867726617E+03 -0.19998700823E+03 -0.30268293172E+03  0.51933197884E+03  0.15294330000E+03 0.  0.
<mgrwt>
<rscale>  0 0.66067292E+03</rscale>
<asrwt>0</asrwt>
<pdfrwt beam="1">  1        2 0.39505626E+00 0.76714229E+03</pdfrwt>
<pdfrwt beam="2">  1       -2 0.72434809E-01 0.76714229E+03</pdfrwt>
<totfact> 0.57470052E+00</totfact>
</mgrwt>
</event>
<event>
 4    1  0.6502538E-008  0.1197113E+04  0.7818608E-02  0.9159934E-01
         -2   -1    0    0    0  501 -0.00000000000E+00  0.00000000000E+00  0.12822438248E+04  0.12822438248E+04  0.25500000000E-02 0.  1.
          2   -1    0    0  501    0  0.00000000000E+00 -0.00000000000E+00 -0.10809255343E+04  0.10809255343E+04  0.25500000000E-02 0. -1.
    8880023    1    1    2    0    0  0.92423941182E+03 -0.38085452752E+03  0.51670327084E+03  0.13038639261E+04  0.65864270000E+03 0.  0.
    8880022    1    1    2    0    0 -0.92423941182E+03  0.38085452752E+03 -0.31538498029E+03  0.10593054330E+04  0.15294330000E+03 0.  0.
<mgrwt>
<rscale>  0 0.11476718E+04</rscale>
<asrwt>0</asrwt>
<pdfrwt beam="1">  1        2 0.16629623E+00 0.11971127E+04</pdfrwt>
<pdfrwt beam="2">  1       -2 0.19726828E+00 0.11971127E+04</pdfrwt>
<totfact> 0.30172909E+00</totfact>
</mgrwt>
</event>
<event>
 4    1  0.7238320E-008  0.1171372E+04  0.7818608E-02  0.9185465E-01
         -2   -1    0    0    0  501 -0.00000000000E+00  0.00000000000E+00  0.16389166322E+04  0.16389166322E+04  0.25500000000E-02 0.  1.
          2   -1    0    0  501    0  0.00000000000E+00 -0.00000000000E+00 -0.18348664598E+04  0.18348664598E+04  0.25500000000E-02 0. -1.
    8880023    1    1    2    0    0 -0.95025062827E+03 -0.18795456502E+03 -0.14613454941E+04  0.18728705333E+04  0.65864270000E+03 0. -1.
    8880022    1    1    2    0    0  0.95025062827E+03  0.18795456502E+03  0.12653956665E+04  0.16009125588E+04  0.15294330000E+03 0.  0.
<mgrwt>
<rscale>  0 0.11204717E+04</rscale>
<asrwt>0</asrwt>
<pdfrwt beam="1">  1        2 0.28228715E+00 0.11713724E+04</pdfrwt>
<pdfrwt beam="2">  1       -2 0.25214102E+00 0.11713724E+04</pdfrwt>
<totfact> 0.50221482E-01</totfact>
</mgrwt>
</event>
<event>
 4    1  0.6502538E-008  0.7507741E+03  0.7818608E-02  0.9829606E-01
         -2   -1    0    0    0  501 -0.00000000000E+00  0.00000000000E+00  0.16855207015E+04  0.16855207015E+04  0.25500000000E-02 0.  1.
          2   -1    0    0  501    0  0.00000000000E+00 -0.00000000000E+00 -0.21426813028E+03  0.21426813029E+03  0.25500000000E-02 0. -1.
    8880023    1    1    2    0    0 -0.28551175515E+03  0.21985114480E+03  0.12267127553E+04  0.14382231671E+04  0.65864270000E+03 0.  0.
    8880022    1    1    2    0    0  0.28551175515E+03 -0.21985114480E+03  0.24453981590E+03  0.46156566464E+03  0.15294330000E+03 0.  0.
<mgrwt>
<rscale>  0 0.63797635E+03</rscale>
<asrwt>0</asrwt>
<pdfrwt beam="1">  1        2 0.32964327E-01 0.75077406E+03</pdfrwt>
<pdfrwt beam="2">  1       -2 0.25931088E+00 0.75077406E+03</pdfrwt>
<totfact> 0.92702137E+00</totfact>
</mgrwt>
</event>
<event>
 4    1  0.6502538E-008  0.8970759E+03  0.7818608E-02  0.9530742E-01
          2   -1    0    0  501    0  0.00000000000E+00  0.00000000000E+00  0.10182548373E+04  0.10182548373E+04  0.25500000000E-02 0. -1.
         -2   -1    0    0    0  501 -0.00000000000E+00 -0.00000000000E+00 -0.93152093444E+03  0.93152093445E+03  0.25500000000E-02 0.  1.
    8880023    1    1    2    0    0 -0.69442554770E+02  0.60507242886E+03  0.64872674252E+03  0.11070643637E+04  0.65864270000E+03 0.  0.
    8880022    1    1    2    0    0  0.69442554770E+02 -0.60507242886E+03 -0.56199283962E+03  0.84271140812E+03  0.15294330000E+03 0.  0.
<mgrwt>
<rscale>  0 0.82054780E+03</rscale>
<asrwt>0</asrwt>
<pdfrwt beam="1">  1        2 0.15665459E+00 0.89707587E+03</pdfrwt>
<pdfrwt beam="2">  1       -2 0.14331091E+00 0.89707587E+03</pdfrwt>
<totfact> 0.82970822E+00</totfact>
</mgrwt>
</event>
<event>
 4    1  0.6502538E-008  0.9112557E+03  0.7818608E-02  0.9508199E-01
          2   -1    0    0  501    0  0.00000000000E+00  0.00000000000E+00  0.84761288931E+03  0.84761288931E+03  0.25500000000E-02 0. -1.
         -2   -1    0    0    0  501 -0.00000000000E+00 -0.00000000000E+00 -0.99384697965E+03  0.99384697965E+03  0.25500000000E-02 0.  1.
    8880023    1    1    2    0    0 -0.37330401481E+03 -0.50716944356E+03  0.39878388130E+03  0.99469368260E+03  0.65864270000E+03 0. -1.
    8880022    1    1    2    0    0  0.37330401481E+03  0.50716944356E+03 -0.54501797163E+03  0.84676618636E+03  0.15294330000E+03 0.  0.
<mgrwt>
<rscale>  0 0.83682041E+03</rscale>
<asrwt>0</asrwt>
<pdfrwt beam="1">  1        2 0.13040198E+00 0.91125569E+03</pdfrwt>
<pdfrwt beam="2">  1       -2 0.15289954E+00 0.91125569E+03</pdfrwt>
<totfact> 0.90693986E+00</totfact>
</mgrwt>
</event>
<event>
 4    1  0.6502538E-008  0.1115501E+04  0.7818608E-02  0.9243991E-01
         -2   -1    0    0    0  501 -0.00000000000E+00  0.00000000000E+00  0.11519143075E+04  0.11519143075E+04  0.25500000000E-02 0.  1.
          2   -1    0    0  501    0  0.00000000000E+00 -0.00000000000E+00 -0.94366064627E+03  0.94366064628E+03  0.25500000000E-02 0. -1.
    8880023    1    1    2    0    0  0.29412107138E+01  0.90029023771E+03  0.35508467430E+03  0.11706521665E+04  0.65864270000E+03 0.  0.
    8880022    1    1    2    0    0 -0.29412107138E+01 -0.90029023771E+03 -0.14683101312E+03  0.92492278719E+03  0.15294330000E+03 0.  0.
<mgrwt>
<rscale>  0 0.10610676E+04</rscale>
<asrwt>0</asrwt>
<pdfrwt beam="1">  1        2 0.14517856E+00 0.11155005E+04</pdfrwt>
<pdfrwt beam="2">  1       -2 0.17721759E+00 0.11155005E+04</pdfrwt>
<totfact> 0.50966055E+00</totfact>
</mgrwt>
</event>
<event>
 4    1  0.6502538E-008  0.6613763E+03  0.7818608E-02  0.1022789E+00
         -2   -1    0    0    0  501 -0.00000000000E+00  0.00000000000E+00  0.74549472153E+03  0.74549472153E+03  0.25500000000E-02 0.  1.
          2   -1    0    0  501    0  0.00000000000E+00 -0.00000000000E+00 -0.20002236075E+04  0.20002236075E+04  0.25500000000E-02 0. -1.
    8880023    1    1    2    0    0  0.43116293199E+02 -0.41825697143E+02 -0.19355091459E+04  0.20453885361E+04  0.65864270000E+03 0. -1.
    8880022    1    1    2    0    0 -0.43116293199E+02  0.41825697143E+02  0.68078025986E+03  0.70032979296E+03  0.15294330000E+03 0.  0.
<mgrwt>
<rscale>  0 0.46693567E+03</rscale>
<asrwt>0</asrwt>
<pdfrwt beam="1">  1        2 0.30772671E+00 0.66137630E+03</pdfrwt>
<pdfrwt beam="2">  1       -2 0.11469150E+00 0.66137630E+03</pdfrwt>
<totfact> 0.41748044E+00</totfact>
</mgrwt>
</event>
<event>
 4    1  0.6502538E-008  0.7658404E+03  0.7818608E-02  0.9790215E-01
          2   -1    0    0  501    0  0.00000000000E+00  0.00000000000E+00  0.21413164494E+04  0.21413164494E+04  0.25500000000E-02 0. -1.
         -2   -1    0    0    0  501 -0.00000000000E+00 -0.00000000000E+00 -0.24512083726E+03  0.24512083727E+03  0.25500000000E-02 0.  1.
    8880023    1    1    2    0    0 -0.38192538447E+03  0.82669666339E+02  0.17996715602E+04  0.19558448824E+04  0.65864270000E+03 0. -1.
    8880022    1    1    2    0    0  0.38192538447E+03 -0.82669666339E+02  0.96524051959E+02  0.43059240432E+03  0.15294330000E+03 0.  0.
<mgrwt>
<rscale>  0 0.65890292E+03</rscale>
<asrwt>0</asrwt>
<pdfrwt beam="1">  1        2 0.32943329E+00 0.76584037E+03</pdfrwt>
<pdfrwt beam="2">  1       -2 0.37710899E-01 0.76584037E+03</pdfrwt>
<totfact> 0.38146407E+01</totfact>
</mgrwt>
</event>
<event>
 4    1  0.6502538E-008  0.8436938E+03  0.7818608E-02  0.9623254E-01
         -2   -1    0    0    0  501 -0.00000000000E+00  0.00000000000E+00  0.36467344481E+03  0.36467344482E+03  0.25500000000E-02 0.  1.
          2   -1    0    0  501    0  0.00000000000E+00 -0.00000000000E+00 -0.29118906492E+04  0.29118906492E+04  0.25500000000E-02 0. -1.
    8880023    1    1    2    0    0  0.49294757426E+03 -0.18711394424E+03 -0.25918899513E+04  0.27257499271E+04  0.65864270000E+03 0. -1.
    8880022    1    1    2    0    0 -0.49294757426E+03  0.18711394424E+03  0.44672746959E+02  0.55081416688E+03  0.15294330000E+03 0.  0.
<mgrwt>
<rscale>  0 0.75775993E+03</rscale>
<asrwt>0</asrwt>
<pdfrwt beam="1">  1        2 0.44798316E+00 0.84369375E+03</pdfrwt>
<pdfrwt beam="2">  1       -2 0.56103609E-01 0.84369375E+03</pdfrwt>
<totfact> 0.61578354E+00</totfact>
</mgrwt>
</event>
<event>
 4    1  0.6502538E-008  0.6721459E+03  0.7818608E-02  0.1014169E+00
          2   -1    0    0  501    0  0.00000000000E+00  0.00000000000E+00  0.14691676315E+04  0.14691676315E+04  0.25500000000E-02 0. -1.
         -2   -1    0    0    0  501 -0.00000000000E+00 -0.00000000000E+00 -0.42700087085E+03  0.42700087086E+03  0.25500000000E-02 0.  1.
    8880023    1    1    2    0    0  0.64659648169E+02  0.11742692702E+03  0.13610385247E+04  0.15179611409E+04  0.65864270000E+03 0. -1.
    8880022    1    1    2    0    0 -0.64659648169E+02 -0.11742692702E+03 -0.31887176409E+03  0.37820736143E+03  0.15294330000E+03 0.  0.
<mgrwt>
<rscale>  0 0.49850826E+03</rscale>
<asrwt>0</asrwt>
<pdfrwt beam="1">  1        2 0.22602579E+00 0.67214594E+03</pdfrwt>
<pdfrwt beam="2">  1       -2 0.65692443E-01 0.67214594E+03</pdfrwt>
<totfact> 0.29114813E+01</totfact>
</mgrwt>
</event>
<event>
 4    1  0.6502538E-008  0.7402538E+03  0.7818608E-02  0.9859208E-01
         -2   -1    0    0    0  501 -0.00000000000E+00  0.00000000000E+00  0.33031189742E+03  0.33031189743E+03  0.25500000000E-02 0.  1.
          2   -1    0    0  501    0  0.00000000000E+00 -0.00000000000E+00 -0.21470228174E+04  0.21470228174E+04  0.25500000000E-02 0. -1.
    8880023    1    1    2    0    0 -0.31123035527E+03 -0.13153380722E+03 -0.19479892615E+04  0.20838996727E+04  0.65864270000E+03 0.  1.
    8880022    1    1    2    0    0  0.31123035527E+03  0.13153380722E+03  0.13127834149E+03  0.39343504222E+03  0.15294330000E+03 0.  0.
<mgrwt>
<rscale>  0 0.62279608E+03</rscale>
<asrwt>0</asrwt>
<pdfrwt beam="1">  1        2 0.33031119E+00 0.74025380E+03</pdfrwt>
<pdfrwt beam="2">  1       -2 0.50817216E-01 0.74025380E+03</pdfrwt>
<totfact> 0.21025482E+01</totfact>
</mgrwt>
</event>
<event>
 4    1  0.6502538E-008  0.6757454E+03  0.7818608E-02  0.1011840E+00
          2   -1    0    0  501    0  0.00000000000E+00  0.00000000000E+00  0.12999553473E+04  0.12999553473E+04  0.25500000000E-02 0. -1.
         -2   -1    0    0    0  501 -0.00000000000E+00 -0.00000000000E+00 -0.71509958903E+03  0.71509958904E+03  0.25500000000E-02 0.  1.
    8880023    1    1    2    0    0  0.62142380155E+02 -0.13769518879E+03  0.11924185835E+04  0.13705816010E+04  0.65864270000E+03 0. -1.
    8880022    1    1    2    0    0 -0.62142380155E+02  0.13769518879E+03 -0.60756282521E+03  0.64447333538E+03  0.15294330000E+03 0.  0.
<mgrwt>
<rscale>  0 0.50749666E+03</rscale>
<asrwt>0</asrwt>
<pdfrwt beam="1">  1        2 0.19999313E+00 0.67574540E+03</pdfrwt>
<pdfrwt beam="2">  1       -2 0.11001532E+00 0.67574540E+03</pdfrwt>
<totfact> 0.11199582E+01</totfact>
</mgrwt>
</event>
<event>
 4    1  0.6502538E-008  0.9023576E+03  0.7818608E-02  0.9522257E-01
          2   -1    0    0  501    0  0.00000000000E+00  0.00000000000E+00  0.15323430664E+04  0.15323430664E+04  0.25500000000E-02 0. -1.
         -2   -1    0    0    0  501 -0.00000000000E+00 -0.00000000000E+00 -0.53007228052E+03  0.53007228052E+03  0.25500000000E-02 0.  1.
    8880023    1    1    2    0    0 -0.48573601127E+02 -0.61488182328E+03  0.10964276241E+04  0.14200009833E+04  0.65864270000E+03 0. -1.
    8880022    1    1    2    0    0  0.48573601127E+02  0.61488182328E+03 -0.94156838299E+02  0.64241436358E+03  0.15294330000E+03 0.  0.
<mgrwt>
<rscale>  0 0.82662575E+03</rscale>
<asrwt>0</asrwt>
<pdfrwt beam="1">  1        2 0.23574509E+00 0.90235761E+03</pdfrwt>
<pdfrwt beam="2">  1       -2 0.81549582E-01 0.90235761E+03</pdfrwt>
<totfact> 0.16223774E+01</totfact>
</mgrwt>
</event>
<event>
 4    1  0.6502538E-008  0.6984569E+03  0.7818608E-02  0.1000366E+00
          2   -1    0    0  501    0  0.00000000000E+00  0.00000000000E+00  0.12512767787E+04  0.12512767787E+04  0.25500000000E-02 0. -1.
         -2   -1    0    0    0  501 -0.00000000000E+00 -0.00000000000E+00 -0.26563545563E+03  0.26563545564E+03  0.25500000000E-02 0.  1.
    8880023    1    1    2    0    0 -0.22254139640E+03  0.67135112560E+02  0.10203452369E+04  0.12365057239E+04  0.65864270000E+03 0. -1.
    8880022    1    1    2    0    0  0.22254139640E+03 -0.67135112560E+02 -0.34703913847E+02  0.28040651045E+03  0.15294330000E+03 0.  0.
<mgrwt>
<rscale>  0 0.55489877E+03</rscale>
<asrwt>0</asrwt>
<pdfrwt beam="1">  1        2 0.19250412E+00 0.69845687E+03</pdfrwt>
<pdfrwt beam="2">  1       -2 0.40866993E-01 0.69845687E+03</pdfrwt>
<totfact> 0.10211858E+02</totfact>
</mgrwt>
</event>
<event>
 4    1  0.6502538E-008  0.1079461E+04  0.7818608E-02  0.9284276E-01
          2   -1    0    0  501    0  0.00000000000E+00  0.00000000000E+00  0.29492350191E+04  0.29492350191E+04  0.25500000000E-02 0. -1.
         -2   -1    0    0    0  501 -0.00000000000E+00 -0.00000000000E+00 -0.73671507942E+03  0.73671507942E+03  0.25500000000E-02 0.  1.
    8880023    1    1    2    0    0  0.16246704570E+03  0.83966077133E+03  0.25381262071E+04  0.27581371614E+04  0.65864270000E+03 0.  0.
    8880022    1    1    2    0    0 -0.16246704570E+03 -0.83966077133E+03 -0.32560626742E+03  0.92781293709E+03  0.15294330000E+03 0.  0.
<mgrwt>
<rscale>  0 0.10224344E+04</rscale>
<asrwt>0</asrwt>
<pdfrwt beam="1">  1        2 0.45372847E+00 0.10794610E+04</pdfrwt>
<pdfrwt beam="2">  1       -2 0.11334078E+00 0.10794610E+04</pdfrwt>
<totfact> 0.11497555E+00</totfact>
</mgrwt>
</event>
<event>
 4    1  0.6502538E-008  0.6833218E+03  0.7818608E-02  0.1007504E+00
         -2   -1    0    0    0  501 -0.00000000000E+00  0.00000000000E+00  0.96849746836E+03  0.96849746836E+03  0.25500000000E-02 0.  1.
          2   -1    0    0  501    0  0.00000000000E+00 -0.00000000000E+00 -0.59469760673E+03  0.59469760673E+03  0.25500000000E-02 0. -1.
    8880023    1    1    2    0    0  0.13288058638E+03 -0.12434305083E+03 -0.37368141585E+03  0.77882376141E+03  0.65864270000E+03 0. -1.
    8880022    1    1    2    0    0 -0.13288058638E+03  0.12434305083E+03  0.74748127748E+03  0.78437131368E+03  0.15294330000E+03 0.  0.
<mgrwt>
<rscale>  0 0.52478898E+03</rscale>
<asrwt>0</asrwt>
<pdfrwt beam="1">  1        2 0.91491940E-01 0.68332178E+03</pdfrwt>
<pdfrwt beam="2">  1       -2 0.14899961E+00 0.68332178E+03</pdfrwt>
<totfact> 0.15612726E+01</totfact>
</mgrwt>
</event>
<event>
 4    1  0.6502538E-008  0.1385090E+04  0.7818608E-02  0.8995356E-01
         -2   -1    0    0    0  501 -0.00000000000E+00  0.00000000000E+00  0.77764113665E+03  0.77764113665E+03  0.25500000000E-02 0.  1.
          2   -1    0    0  501    0  0.00000000000E+00 -0.00000000000E+00 -0.27823562873E+04  0.27823562873E+04  0.25500000000E-02 0. -1.
    8880023    1    1    2    0    0  0.11218184897E+04 -0.47559193358E+03 -0.18663991747E+04  0.23242031961E+04  0.65864270000E+03 0.  0.
    8880022    1    1    2    0    0 -0.11218184897E+04  0.47559193358E+03 -0.13831597588E+03  0.12357942278E+04  0.15294330000E+03 0.  0.
<mgrwt>
<rscale>  0 0.13440354E+04</rscale>
<asrwt>0</asrwt>
<pdfrwt beam="1">  1        2 0.42805481E+00 0.13850901E+04</pdfrwt>
<pdfrwt beam="2">  1       -2 0.11963710E+00 0.13850901E+04</pdfrwt>
<totfact> 0.12209419E+00</totfact>
</mgrwt>
</event>
<event>
 4    1  0.6502538E-008  0.1128291E+04  0.7818608E-02  0.9230193E-01
          2   -1    0    0  501    0  0.00000000000E+00  0.00000000000E+00  0.21240146940E+04  0.21240146940E+04  0.25500000000E-02 0. -1.
         -2   -1    0    0    0  501 -0.00000000000E+00 -0.00000000000E+00 -0.11314860778E+04  0.11314860778E+04  0.25500000000E-02 0.  1.
    8880023    1    1    2    0    0  0.90955099674E+03  0.10929915387E+03  0.17328297235E+04  0.20677858636E+04  0.65864270000E+03 0. -1.
    8880022    1    1    2    0    0 -0.90955099674E+03 -0.10929915387E+03 -0.74030110727E+03  0.11877149082E+04  0.15294330000E+03 0.  0.
<mgrwt>
<rscale>  0 0.10747148E+04</rscale>
<asrwt>0</asrwt>
<pdfrwt beam="1">  1        2 0.32677149E+00 0.11282905E+04</pdfrwt>
<pdfrwt beam="2">  1       -2 0.17407478E+00 0.11282905E+04</pdfrwt>
<totfact> 0.11153572E+00</totfact>
</mgrwt>
</event>
<event>
 4    1  0.6502538E-008  0.7570479E+03  0.7818608E-02  0.9812811E-01
          2   -1    0    0  501    0  0.00000000000E+00  0.00000000000E+00  0.31490043064E+04  0.31490043064E+04  0.25500000000E-02 0. -1.
         -2   -1    0    0    0  501 -0.00000000000E+00 -0.00000000000E+00 -0.18554692521E+03  0.18554692523E+03  0.25500000000E-02 0.  1.
    8880023    1    1    2    0    0 -0.25472254021E+03  0.27281440791E+03  0.27979370662E+04  0.28985467577E+04  0.65864270000E+03 0. -1.
    8880022    1    1    2    0    0  0.25472254021E+03 -0.27281440791E+03  0.16552031502E+03  0.43600447401E+03  0.15294330000E+03 0.  0.
<mgrwt>
<rscale>  0 0.64679541E+03</rscale>
<asrwt>0</asrwt>
<pdfrwt beam="1">  1        2 0.48446221E+00 0.75704787E+03</pdfrwt>
<pdfrwt beam="2">  1       -2 0.28545680E-01 0.75704787E+03</pdfrwt>
<totfact> 0.16736479E+01</totfact>
</mgrwt>
</event>
<event>
 4    1  0.6502538E-008  0.1027848E+04  0.7818608E-02  0.9345997E-01
         -2   -1    0    0    0  501 -0.00000000000E+00  0.00000000000E+00  0.74847471999E+03  0.74847472000E+03  0.25500000000E-02 0.  1.
          2   -1    0    0  501    0  0.00000000000E+00 -0.00000000000E+00 -0.13412809367E+04  0.13412809367E+04  0.25500000000E-02 0. -1.
    8880023    1    1    2    0    0 -0.40419909457E+03 -0.67770573602E+03 -0.74790374277E+03  0.12711538803E+04  0.65864270000E+03 0.  0.
    8880022    1    1    2    0    0  0.40419909457E+03  0.67770573602E+03  0.15509752608E+03  0.81860177639E+03  0.15294330000E+03 0.  0.
<mgrwt>
<rscale>  0 0.96656340E+03</rscale>
<asrwt>0</asrwt>
<pdfrwt beam="1">  1        2 0.20635091E+00 0.10278483E+04</pdfrwt>
<pdfrwt beam="2">  1       -2 0.11514996E+00 0.10278483E+04</pdfrwt>
<totfact> 0.91096183E+00</totfact>
</mgrwt>
</event>
<event>
 4    1  0.6502538E-008  0.8799634E+03  0.7818608E-02  0.9558994E-01
          2   -1    0    0  501    0  0.00000000000E+00  0.00000000000E+00  0.10066513176E+04  0.10066513176E+04  0.25500000000E-02 0. -1.
         -2   -1    0    0    0  501 -0.00000000000E+00 -0.00000000000E+00 -0.79145453484E+03  0.79145453484E+03  0.25500000000E-02 0.  1.
    8880023    1    1    2    0    0 -0.51627483359E+03  0.27200311508E+03 -0.37281735788E+03  0.95568215795E+03  0.65864270000E+03 0.  1.
    8880022    1    1    2    0    0  0.51627483359E+03 -0.27200311508E+03  0.58801414060E+03  0.84242369446E+03  0.15294330000E+03 0.  0.
<mgrwt>
<rscale>  0 0.80070725E+03</rscale>
<asrwt>0</asrwt>
<pdfrwt beam="1">  1        2 0.15486943E+00 0.87996341E+03</pdfrwt>
<pdfrwt beam="2">  1       -2 0.12176224E+00 0.87996341E+03</pdfrwt>
<totfact> 0.12813836E+01</totfact>
</mgrwt>
</event>
<event>
 4    1  0.6502538E-008  0.1205386E+04  0.7818608E-02  0.9151905E-01
         -2   -1    0    0    0  501 -0.00000000000E+00  0.00000000000E+00  0.77168645290E+03  0.77168645290E+03  0.25500000000E-02 0.  1.
          2   -1    0    0  501    0  0.00000000000E+00 -0.00000000000E+00 -0.20534789667E+04  0.20534789667E+04  0.25500000000E-02 0. -1.
    8880023    1    1    2    0    0  0.98976025465E+03 -0.19879549385E+03 -0.13401073157E+04  0.18024546691E+04  0.65864270000E+03 0. -1.
    8880022    1    1    2    0    0 -0.98976025465E+03  0.19879549385E+03  0.58314801975E+02  0.10227107505E+04  0.15294330000E+03 0.  0.
<mgrwt>
<rscale>  0 0.11563945E+04</rscale>
<asrwt>0</asrwt>
<pdfrwt beam="1">  1        2 0.31591984E+00 0.12053859E+04</pdfrwt>
<pdfrwt beam="2">  1       -2 0.11872099E+00 0.12053859E+04</pdfrwt>
<totfact> 0.33210214E+00</totfact>
</mgrwt>
</event>
<event>
 4    1  0.7426276E-008  0.1072744E+04  0.7818608E-02  0.9292027E-01
          2   -1    0    0  501    0  0.00000000000E+00  0.00000000000E+00  0.32817268627E+04  0.32817268627E+04  0.25500000000E-02 0. -1.
         -2   -1    0    0    0  501 -0.00000000000E+00 -0.00000000000E+00 -0.11644748483E+04  0.11644748483E+04  0.25500000000E-02 0.  1.
    8880023    1    1    2    0    0 -0.78378852710E+03  0.32038239660E+03  0.30165240481E+04  0.32015928652E+04  0.65864270000E+03 0.  0.
    8880022    1    1    2    0    0  0.78378852710E+03 -0.32038239660E+03 -0.89927203375E+03  0.12446088458E+04  0.15294330000E+03 0.  0.
<mgrwt>
<rscale>  0 0.10152021E+04</rscale>
<asrwt>0</asrwt>
<pdfrwt beam="1">  1        2 0.50488105E+00 0.10727439E+04</pdfrwt>
<pdfrwt beam="2">  1       -2 0.17914998E+00 0.10727439E+04</pdfrwt>
<totfact> 0.21269405E-01</totfact>
</mgrwt>
</event>
<event>
 4    1  0.6502538E-008  0.6876164E+03  0.7818608E-02  0.1005307E+00
         -2   -1    0    0    0  501 -0.00000000000E+00  0.00000000000E+00  0.29327031817E+03  0.29327031818E+03  0.25500000000E-02 0.  1.
          2   -1    0    0  501    0  0.00000000000E+00 -0.00000000000E+00 -0.11995440628E+04  0.11995440628E+04  0.25500000000E-02 0. -1.
    8880023    1    1    2    0    0 -0.11818954743E+02  0.19714585498E+03 -0.10104041658E+04  0.12221836852E+04  0.65864270000E+03 0. -1.
    8880022    1    1    2    0    0  0.11818954743E+02 -0.19714585498E+03  0.10413042124E+03  0.27063069573E+03  0.15294330000E+03 0.  0.
<mgrwt>
<rscale>  0 0.53383357E+03</rscale>
<asrwt>0</asrwt>
<pdfrwt beam="1">  1        2 0.18454524E+00 0.68761645E+03</pdfrwt>
<pdfrwt beam="2">  1       -2 0.45118511E-01 0.68761645E+03</pdfrwt>
<totfact> 0.90157278E+01</totfact>
</mgrwt>
</event>
<event>
 4    1  0.6502538E-008  0.9193828E+03  0.7818608E-02  0.9495606E-01
         -2   -1    0    0    0  501 -0.00000000000E+00  0.00000000000E+00  0.61137074183E+03  0.61137074183E+03  0.25500000000E-02 0.  1.
          2   -1    0    0  501    0  0.00000000000E+00 -0.00000000000E+00 -0.29712754844E+04  0.29712754844E+04  0.25500000000E-02 0. -1.
    8880023    1    1    2    0    0  0.24694294490E+03  0.59200815340E+03 -0.26917478705E+04  0.28444281106E+04  0.65864270000E+03 0.  0.
    8880022    1    1    2    0    0 -0.24694294490E+03 -0.59200815340E+03  0.33184312791E+03  0.73821811566E+03  0.15294330000E+03 0.  0.
<mgrwt>
<rscale>  0 0.84608544E+03</rscale>
<asrwt>0</asrwt>
<pdfrwt beam="1">  1        2 0.45711930E+00 0.91938277E+03</pdfrwt>
<pdfrwt beam="2">  1       -2 0.94057038E-01 0.91938277E+03</pdfrwt>
<totfact> 0.17880614E+00</totfact>
</mgrwt>
</event>
<event>
 4    1  0.6502538E-008  0.9479767E+03  0.7818608E-02  0.9453031E-01
         -2   -1    0    0    0  501 -0.00000000000E+00  0.00000000000E+00  0.44224271717E+03  0.44224271717E+03  0.25500000000E-02 0.  1.
          2   -1    0    0  501    0  0.00000000000E+00 -0.00000000000E+00 -0.15967275194E+04  0.15967275194E+04  0.25500000000E-02 0. -1.
    8880023    1    1    2    0    0 -0.67917074767E+03  0.59804877143E+02 -0.45956643689E+03  0.10534994276E+04  0.65864270000E+03 0.  0.
    8880022    1    1    2    0    0  0.67917074767E+03 -0.59804877143E+02 -0.69491836538E+03  0.98547080899E+03  0.15294330000E+03 0.  0.
<mgrwt>
<rscale>  0 0.87837008E+03</rscale>
<asrwt>0</asrwt>
<pdfrwt beam="1">  1        2 0.24565038E+00 0.94797665E+03</pdfrwt>
<pdfrwt beam="2">  1       -2 0.68037342E-01 0.94797665E+03</pdfrwt>
<totfact> 0.22231321E+01</totfact>
</mgrwt>
</event>
<event>
 4    1  0.6502538E-008  0.7699773E+03  0.7818608E-02  0.9779930E-01
         -2   -1    0    0    0  501 -0.00000000000E+00  0.00000000000E+00  0.12688189467E+04  0.12688189467E+04  0.25500000000E-02 0.  1.
          2   -1    0    0  501    0  0.00000000000E+00 -0.00000000000E+00 -0.64844589948E+03  0.64844589949E+03  0.25500000000E-02 0. -1.
    8880023    1    1    2    0    0  0.18550027253E+03 -0.35305023595E+03 -0.35843475146E+03  0.84931766586E+03  0.65864270000E+03 0.  0.
    8880022    1    1    2    0    0 -0.18550027253E+03  0.35305023595E+03  0.97880779867E+03  0.10679471803E+04  0.15294330000E+03 0.  1.
<mgrwt>
<rscale>  0 0.66450824E+03</rscale>
<asrwt>0</asrwt>
<pdfrwt beam="1">  1        2 0.99760908E-01 0.76997729E+03</pdfrwt>
<pdfrwt beam="2">  1       -2 0.19520291E+00 0.76997729E+03</pdfrwt>
<totfact> 0.65641500E+00</totfact>
</mgrwt>
</event>
<event>
 4    1  0.6502538E-008  0.1215911E+04  0.7818608E-02  0.9141809E-01
         -2   -1    0    0    0  501 -0.00000000000E+00  0.00000000000E+00  0.68011764833E+03  0.68011764833E+03  0.25500000000E-02 0.  1.
          2   -1    0    0  501    0  0.00000000000E+00 -0.00000000000E+00 -0.30889824603E+04  0.30889824603E+04  0.25500000000E-02 0. -1.
    8880023    1    1    2    0    0  0.11816119017E+03 -0.10152175996E+04 -0.24496797590E+04  0.27348436828E+04  0.65864270000E+03 0.  0.
    8880022    1    1    2    0    0 -0.11816119017E+03  0.10152175996E+04  0.40814947052E+02  0.10342564258E+04  0.15294330000E+03 0.  0.
<mgrwt>
<rscale>  0 0.11674781E+04</rscale>
<asrwt>0</asrwt>
<pdfrwt beam="1">  1        2 0.47522806E+00 0.12159108E+04</pdfrwt>
<pdfrwt beam="2">  1       -2 0.10463349E+00 0.12159108E+04</pdfrwt>
<totfact> 0.11216720E+00</totfact>
</mgrwt>
</event>
<event>
 4    1  0.6502538E-008  0.1070779E+04  0.7818608E-02  0.9294310E-01
         -2   -1    0    0    0  501 -0.00000000000E+00  0.00000000000E+00  0.27511831792E+04  0.27511831792E+04  0.25500000000E-02 0.  1.
          2   -1    0    0  501    0  0.00000000000E+00 -0.00000000000E+00 -0.97190427557E+03  0.97190427558E+03  0.25500000000E-02 0. -1.
    8880023    1    1    2    0    0  0.59364309451E+02 -0.84215963625E+03 -0.57637324521E+03  0.12160482302E+04  0.65864270000E+03 0. -1.
    8880022    1    1    2    0    0 -0.59364309451E+02  0.84215963625E+03  0.23556521488E+04  0.25070392246E+04  0.15294330000E+03 0.  0.
<mgrwt>
<rscale>  0 0.10130841E+04</rscale>
<asrwt>0</asrwt>
<pdfrwt beam="1">  1        2 0.14952373E+00 0.10707788E+04</pdfrwt>
<pdfrwt beam="2">  1       -2 0.42325895E+00 0.10707788E+04</pdfrwt>
<totfact> 0.13788130E-01</totfact>
</mgrwt>
</event>
<event>
 4    1  0.6502538E-008  0.6957868E+03  0.7818608E-02  0.1001515E+00
         -2   -1    0    0    0  501 -0.00000000000E+00  0.00000000000E+00  0.10195785730E+04  0.10195785730E+04  0.25500000000E-02 0.  1.
          2   -1    0    0  501    0  0.00000000000E+00 -0.00000000000E+00 -0.10234535754E+04  0.10234535754E+04  0.25500000000E-02 0. -1.
    8880023    1    1    2    0    0 -0.17877996274E+03 -0.13545015431E+03 -0.88228317152E+03  0.11236293074E+04  0.65864270000E+03 0. -1.
    8880022    1    1    2    0    0  0.17877996274E+03  0.13545015431E+03  0.87840816913E+03  0.91940284097E+03  0.15294330000E+03 0.  0.
<mgrwt>
<rscale>  0 0.54990929E+03</rscale>
<asrwt>0</asrwt>
<pdfrwt beam="1">  1        2 0.15745440E+00 0.69578677E+03</pdfrwt>
<pdfrwt beam="2">  1       -2 0.15685824E+00 0.69578677E+03</pdfrwt>
<totfact> 0.66416181E+00</totfact>
</mgrwt>
</event>
<event>
 4    1  0.6502538E-008  0.1765712E+04  0.7818608E-02  0.8741744E-01
          2   -1    0    0  501    0  0.00000000000E+00  0.00000000000E+00  0.14360023325E+04  0.14360023325E+04  0.25500000000E-02 0. -1.
         -2   -1    0    0    0  501 -0.00000000000E+00 -0.00000000000E+00 -0.25314283534E+04  0.25314283534E+04  0.25500000000E-02 0.  1.
    8880023    1    1    2    0    0  0.13568568650E+04 -0.91807937900E+03  0.32304059267E+03  0.17950197016E+04  0.65864270000E+03 0.  0.
    8880022    1    1    2    0    0 -0.13568568650E+04  0.91807937900E+03 -0.14184666136E+04  0.21724109844E+04  0.15294330000E+03 0.  0.
<mgrwt>
<rscale>  0 0.17348322E+04</rscale>
<asrwt>0</asrwt>
<pdfrwt beam="1">  1        2 0.22092344E+00 0.17657125E+04</pdfrwt>
<pdfrwt beam="2">  1       -2 0.38945051E+00 0.17657125E+04</pdfrwt>
<totfact> 0.10993016E-01</totfact>
</mgrwt>
</event>
<event>
 4    1  0.6502538E-008  0.1279609E+04  0.7818608E-02  0.9083372E-01
         -2   -1    0    0    0  501 -0.00000000000E+00  0.00000000000E+00  0.76463381701E+03  0.76463381702E+03  0.25500000000E-02 0.  1.
          2   -1    0    0  501    0  0.00000000000E+00 -0.00000000000E+00 -0.30426771794E+04  0.30426771794E+04  0.25500000000E-02 0. -1.
    8880023    1    1    2    0    0 -0.45384054153E+03 -0.99880826339E+03 -0.23725192099E+04  0.26955976687E+04  0.65864270000E+03 0. -1.
    8880022    1    1    2    0    0  0.45384054153E+03  0.99880826339E+03  0.94475847504E+02  0.11117133277E+04  0.15294330000E+03 0.  0.
<mgrwt>
<rscale>  0 0.12342772E+04</rscale>
<asrwt>0</asrwt>
<pdfrwt beam="1">  1        2 0.46810417E+00 0.12796091E+04</pdfrwt>
<pdfrwt beam="2">  1       -2 0.11763597E+00 0.12796091E+04</pdfrwt>
<totfact> 0.89328809E-01</totfact>
</mgrwt>
</event>
<event>
 4    1  0.6502538E-008  0.1514813E+04  0.7818608E-02  0.8899246E-01
         -2   -1    0    0    0  501 -0.00000000000E+00  0.00000000000E+00  0.13186534306E+04  0.13186534306E+04  0.25500000000E-02 0.  1.
          2   -1    0    0  501    0  0.00000000000E+00 -0.00000000000E+00 -0.18398669896E+04  0.18398669896E+04  0.25500000000E-02 0. -1.
    8880023    1    1    2    0    0  0.12707296863E+04 -0.49608017020E+03 -0.86372823580E+03  0.17437563312E+04  0.65864270000E+03 0.  0.
    8880022    1    1    2    0    0 -0.12707296863E+04  0.49608017020E+03  0.34251467681E+03  0.14147640891E+04  0.15294330000E+03 0.  0.
<mgrwt>
<rscale>  0 0.14779557E+04</rscale>
<asrwt>0</asrwt>
<pdfrwt beam="1">  1        2 0.28305646E+00 0.15148134E+04</pdfrwt>
<pdfrwt beam="2">  1       -2 0.20286976E+00 0.15148134E+04</pdfrwt>
<totfact> 0.98010173E-01</totfact>
</mgrwt>
</event>
<event>
 4    1  0.6502538E-008  0.6741184E+03  0.7818608E-02  0.1012868E+00
          2   -1    0    0  501    0  0.00000000000E+00  0.00000000000E+00  0.33033225881E+04  0.33033225881E+04  0.25500000000E-02 0. -1.
         -2   -1    0    0    0  501 -0.00000000000E+00 -0.00000000000E+00 -0.64834072459E+02  0.64834072509E+02  0.25500000000E-02 0.  1.
    8880023    1    1    2    0    0 -0.10059901811E+03  0.10249518529E+03  0.28270776998E+04  0.29063385819E+04  0.65864270000E+03 0.  0.
    8880022    1    1    2    0    0  0.10059901811E+03 -0.10249518529E+03  0.41141081583E+03  0.46181807874E+03  0.15294330000E+03 0. -1.
<mgrwt>
<rscale>  0 0.50350617E+03</rscale>
<asrwt>0</asrwt>
<pdfrwt beam="1">  1        2 0.50820355E+00 0.67411841E+03</pdfrwt>
<pdfrwt beam="2">  1       -2 0.99744713E-02 0.67411841E+03</pdfrwt>
<totfact> 0.82430066E+01</totfact>
</mgrwt>
</event>
<event>
 4    1  0.6502538E-008  0.9270634E+03  0.7818608E-02  0.9483913E-01
         -2   -1    0    0    0  501 -0.00000000000E+00  0.00000000000E+00  0.51843463049E+03  0.51843463050E+03  0.25500000000E-02 0.  1.
          2   -1    0    0  501    0  0.00000000000E+00 -0.00000000000E+00 -0.17749638358E+04  0.17749638358E+04  0.25500000000E-02 0. -1.
    8880023    1    1    2    0    0  0.42829776968E+03 -0.49213551626E+03 -0.13279190044E+04  0.16195108627E+04  0.65864270000E+03 0. -1.
    8880022    1    1    2    0    0 -0.42829776968E+03  0.49213551626E+03  0.71389799086E+02  0.67388760361E+03  0.15294330000E+03 0.  0.
<mgrwt>
<rscale>  0 0.85480343E+03</rscale>
<asrwt>0</asrwt>
<pdfrwt beam="1">  1        2 0.27307136E+00 0.92706340E+03</pdfrwt>
<pdfrwt beam="2">  1       -2 0.79759175E-01 0.92706340E+03</pdfrwt>
<totfact> 0.12491255E+01</totfact>
</mgrwt>
</event>
<event>
 4    1  0.6502538E-008  0.1122608E+04  0.7818608E-02  0.9236293E-01
         -2   -1    0    0    0  501 -0.00000000000E+00  0.00000000000E+00  0.26060016929E+04  0.26060016929E+04  0.25500000000E-02 0.  1.
          2   -1    0    0  501    0  0.00000000000E+00 -0.00000000000E+00 -0.81398263783E+03  0.81398263783E+03  0.25500000000E-02 0. -1.
    8880023    1    1    2    0    0 -0.67828667940E+03  0.60528114776E+03 -0.27579288364E+03  0.11559887578E+04  0.65864270000E+03 0. -1.
    8880022    1    1    2    0    0  0.67828667940E+03 -0.60528114776E+03  0.20678119387E+04  0.22639955729E+04  0.15294330000E+03 0.  0.
<mgrwt>
<rscale>  0 0.10686550E+04</rscale>
<asrwt>0</asrwt>
<pdfrwt beam="1">  1        2 0.12522810E+00 0.11226078E+04</pdfrwt>
<pdfrwt beam="2">  1       -2 0.40092334E+00 0.11226078E+04</pdfrwt>
<totfact> 0.24607645E-01</totfact>
</mgrwt>
</event>
<event>
 4    1  0.6502538E-008  0.1323492E+04  0.7818608E-02  0.9045534E-01
         -2   -1    0    0    0  501 -0.00000000000E+00  0.00000000000E+00  0.12099250881E+04  0.12099250881E+04  0.25500000000E-02 0.  1.
          2   -1    0    0  501    0  0.00000000000E+00 -0.00000000000E+00 -0.19294178928E+04  0.19294178928E+04  0.25500000000E-02 0. -1.
    8880023    1    1    2    0    0  0.21293952798E+03 -0.11280417996E+04 -0.12901482637E+04  0.18482733274E+04  0.65864270000E+03 0.  0.
    8880022    1    1    2    0    0 -0.21293952798E+03  0.11280417996E+04  0.57065545896E+03  0.12910696535E+04  0.15294330000E+03 0.  0.
<mgrwt>
<rscale>  0 0.12800540E+04</rscale>
<asrwt>0</asrwt>
<pdfrwt beam="1">  1        2 0.29683352E+00 0.13234923E+04</pdfrwt>
<pdfrwt beam="2">  1       -2 0.18614232E+00 0.13234923E+04</pdfrwt>
<totfact> 0.11526024E+00</totfact>
</mgrwt>
</event>
<event>
 4    1  0.6502538E-008  0.1289636E+04  0.7818608E-02  0.9074562E-01
          2   -1    0    0  501    0  0.00000000000E+00  0.00000000000E+00  0.22026370655E+04  0.22026370655E+04  0.25500000000E-02 0. -1.
         -2   -1    0    0    0  501 -0.00000000000E+00 -0.00000000000E+00 -0.10761410529E+04  0.10761410529E+04  0.25500000000E-02 0.  1.
    8880023    1    1    2    0    0 -0.23961779264E+03 -0.10825589002E+04  0.16072115313E+04  0.20606527053E+04  0.65864270000E+03 0. -1.
    8880022    1    1    2    0    0  0.23961779264E+03  0.10825589002E+04 -0.48071551884E+03  0.12181254131E+04  0.15294330000E+03 0.  0.
<mgrwt>
<rscale>  0 0.12447526E+04</rscale>
<asrwt>0</asrwt>
<pdfrwt beam="1">  1        2 0.33886724E+00 0.12896359E+04</pdfrwt>
<pdfrwt beam="2">  1       -2 0.16556016E+00 0.12896359E+04</pdfrwt>
<totfact> 0.11371950E+00</totfact>
</mgrwt>
</event>
<event>
 4    1  0.6502538E-008  0.7515372E+03  0.7818608E-02  0.9827531E-01
         -2   -1    0    0    0  501 -0.00000000000E+00  0.00000000000E+00  0.82758106640E+03  0.82758106640E+03  0.25500000000E-02 0.  1.
          2   -1    0    0  501    0  0.00000000000E+00 -0.00000000000E+00 -0.97359051545E+03  0.97359051545E+03  0.25500000000E-02 0. -1.
    8880023    1    1    2    0    0 -0.27991102304E+03  0.22945087505E+03 -0.76217635167E+03  0.10703835211E+04  0.65864270000E+03 0. -1.
    8880022    1    1    2    0    0  0.27991102304E+03 -0.22945087505E+03  0.61616690262E+03  0.73078806078E+03  0.15294330000E+03 0.  0.
<mgrwt>
<rscale>  0 0.63905770E+03</rscale>
<asrwt>0</asrwt>
<pdfrwt beam="1">  1        2 0.14978316E+00 0.75153715E+03</pdfrwt>
<pdfrwt beam="2">  1       -2 0.12732016E+00 0.75153715E+03</pdfrwt>
<totfact> 0.12194461E+01</totfact>
</mgrwt>
</event>
<event>
 4    1  0.6502538E-008  0.1198802E+04  0.7818608E-02  0.9158288E-01
          2   -1    0    0  501    0  0.00000000000E+00  0.00000000000E+00  0.13885481882E+04  0.13885481882E+04  0.25500000000E-02 0. -1.
         -2   -1    0    0    0  501 -0.00000000000E+00 -0.00000000000E+00 -0.15466410275E+04  0.15466410275E+04  0.25500000000E-02 0.  1.
    8880023    1    1    2    0    0  0.99466733013E+03  0.11811789724E+03  0.87803610693E+03  0.14859584606E+04  0.65864270000E+03 0.  0.
    8880022    1    1    2    0    0 -0.99466733013E+03 -0.11811789724E+03 -0.10361289463E+04  0.14492307551E+04  0.15294330000E+03 0.  0.
<mgrwt>
<rscale>  0 0.11494531E+04</rscale>
<asrwt>0</asrwt>
<pdfrwt beam="1">  1        2 0.21362280E+00 0.11988015E+04</pdfrwt>
<pdfrwt beam="2">  1       -2 0.23794477E+00 0.11988015E+04</pdfrwt>
<totfact> 0.10885765E+00</totfact>
</mgrwt>
</event>
<event>
 4    1  0.6502538E-008  0.9384788E+03  0.7818608E-02  0.9466888E-01
         -2   -1    0    0    0  501 -0.00000000000E+00  0.00000000000E+00  0.38915179389E+03  0.38915179390E+03  0.25500000000E-02 0.  1.
          2   -1    0    0  501    0  0.00000000000E+00 -0.00000000000E+00 -0.32796063306E+04  0.32796063306E+04  0.25500000000E-02 0. -1.
    8880023    1    1    2    0    0  0.28361315927E+03  0.60538905936E+03 -0.28285430715E+04  0.29801675206E+04  0.65864270000E+03 0.  0.
    8880022    1    1    2    0    0 -0.28361315927E+03 -0.60538905936E+03 -0.61911465280E+02  0.68859060395E+03  0.15294330000E+03 0.  0.
<mgrwt>
<rscale>  0 0.86769682E+03</rscale>
<asrwt>0</asrwt>
<pdfrwt beam="1">  1        2 0.50455480E+00 0.93847885E+03</pdfrwt>
<pdfrwt beam="2">  1       -2 0.59869509E-01 0.93847885E+03</pdfrwt>
<totfact> 0.31109200E+00</totfact>
</mgrwt>
</event>
<event>
 4    1  0.6502538E-008  0.7707614E+03  0.7818608E-02  0.9778004E-01
          2   -1    0    0  501    0  0.00000000000E+00  0.00000000000E+00  0.29936641788E+04  0.29936641788E+04  0.25500000000E-02 0. -1.
         -2   -1    0    0    0  501 -0.00000000000E+00 -0.00000000000E+00 -0.27084575097E+03  0.27084575099E+03  0.25500000000E-02 0.  1.
    8880023    1    1    2    0    0 -0.77834212173E+02  0.39268916606E+03  0.27291633356E+04  0.28359135502E+04  0.65864270000E+03 0. -1.
    8880022    1    1    2    0    0  0.77834212173E+02 -0.39268916606E+03 -0.63449077418E+01  0.42859637959E+03  0.15294330000E+03 0.  0.
<mgrwt>
<rscale>  0 0.66556457E+03</rscale>
<asrwt>0</asrwt>
<pdfrwt beam="1">  1        2 0.46056369E+00 0.77076141E+03</pdfrwt>
<pdfrwt beam="2">  1       -2 0.41668580E-01 0.77076141E+03</pdfrwt>
<totfact> 0.10155537E+01</totfact>
</mgrwt>
</event>
<event>
 4    1  0.6502538E-008  0.6964626E+03  0.7818608E-02  0.1001220E+00
          2   -1    0    0  501    0  0.00000000000E+00  0.00000000000E+00  0.28002648090E+04  0.28002648090E+04  0.25500000000E-02 0. -1.
         -2   -1    0    0    0  501 -0.00000000000E+00 -0.00000000000E+00 -0.39170357463E+03  0.39170357464E+03  0.25500000000E-02 0.  1.
    8880023    1    1    2    0    0 -0.10044484404E+03 -0.20288127378E+03  0.27024224699E+04  0.27907252445E+04  0.65864270000E+03 0. -1.
    8880022    1    1    2    0    0  0.10044484404E+03  0.20288127378E+03 -0.29386123555E+03  0.40124313916E+03  0.15294330000E+03 0.  0.
<mgrwt>
<rscale>  0 0.55118324E+03</rscale>
<asrwt>0</asrwt>
<pdfrwt beam="1">  1        2 0.43080995E+00 0.69646262E+03</pdfrwt>
<pdfrwt beam="2">  1       -2 0.60262091E-01 0.69646262E+03</pdfrwt>
<totfact> 0.63450652E+00</totfact>
</mgrwt>
</event>
<event>
 4    1  0.6502538E-008  0.1101852E+04  0.7818608E-02  0.9258997E-01
          2   -1    0    0  501    0  0.00000000000E+00  0.00000000000E+00  0.23575041142E+04  0.23575041142E+04  0.25500000000E-02 0. -1.
         -2   -1    0    0    0  501 -0.00000000000E+00 -0.00000000000E+00 -0.64285078692E+03  0.64285078693E+03  0.25500000000E-02 0.  1.
    8880023    1    1    2    0    0 -0.51767583801E+03  0.71573674208E+03  0.17886920322E+04  0.21008323945E+04  0.65864270000E+03 0.  0.
    8880022    1    1    2    0    0  0.51767583801E+03 -0.71573674208E+03 -0.74038704910E+02  0.89952250670E+03  0.15294330000E+03 0.  0.
<mgrwt>
<rscale>  0 0.10464691E+04</rscale>
<asrwt>0</asrwt>
<pdfrwt beam="1">  1        2 0.36269294E+00 0.11018519E+04</pdfrwt>
<pdfrwt beam="2">  1       -2 0.98900120E-01 0.11018519E+04</pdfrwt>
<totfact> 0.35405458E+00</totfact>
</mgrwt>
</event>
<event>
 4    1  0.6502538E-008  0.7907068E+03  0.7818608E-02  0.9731262E-01
          2   -1    0    0  501    0  0.00000000000E+00  0.00000000000E+00  0.41887713284E+04  0.41887713284E+04  0.25500000000E-02 0. -1.
         -2   -1    0    0    0  501 -0.00000000000E+00 -0.00000000000E+00 -0.17149584670E+03  0.17149584672E+03  0.25500000000E-02 0.  1.
    8880023    1    1    2    0    0 -0.39704346981E+03  0.18374862818E+03  0.85644606854E+03  0.11656402317E+04  0.65864270000E+03 0. -1.
    8880022    1    1    2    0    0  0.39704346981E+03 -0.18374862818E+03  0.31608294131E+04  0.31946269433E+04  0.15294330000E+03 0. -1.
<mgrwt>
<rscale>  0 0.69185579E+03</rscale>
<asrwt>0</asrwt>
<pdfrwt beam="1">  1        2 0.64442635E+00 0.79070682E+03</pdfrwt>
<pdfrwt beam="2">  1       -2 0.26383977E-01 0.79070682E+03</pdfrwt>
<totfact> 0.34155061E+00</totfact>
</mgrwt>
</event>
<event>
 4    1  0.6502538E-008  0.7129510E+03  0.7818608E-02  0.9947202E-01
          2   -1    0    0  501    0  0.00000000000E+00  0.00000000000E+00  0.13292754115E+04  0.13292754115E+04  0.25500000000E-02 0. -1.
         -2   -1    0    0    0  501 -0.00000000000E+00 -0.00000000000E+00 -0.15037858857E+04  0.15037858857E+04  0.25500000000E-02 0.  1.
    8880023    1    1    2    0    0  0.52419957530E+02 -0.26784515373E+03  0.12150183043E+04  0.14087471613E+04  0.65864270000E+03 0. -1.
    8880022    1    1    2    0    0 -0.52419957530E+02  0.26784515373E+03 -0.13895287786E+04  0.14243141359E+04  0.15294330000E+03 0.  0.
<mgrwt>
<rscale>  0 0.58027223E+03</rscale>
<asrwt>0</asrwt>
<pdfrwt beam="1">  1        2 0.20450391E+00 0.71295097E+03</pdfrwt>
<pdfrwt beam="2">  1       -2 0.23135167E+00 0.71295097E+03</pdfrwt>
<totfact> 0.13890516E+00</totfact>
</mgrwt>
</event>
<event>
 4    1  0.6502538E-008  0.7508484E+03  0.7818608E-02  0.9829404E-01
          2   -1    0    0  501    0  0.00000000000E+00  0.00000000000E+00  0.21554875296E+04  0.21554875296E+04  0.25500000000E-02 0. -1.
         -2   -1    0    0    0  501 -0.00000000000E+00 -0.00000000000E+00 -0.11138445456E+04  0.11138445456E+04  0.25500000000E-02 0.  1.
    8880023    1    1    2    0    0  0.27053230954E+03  0.23827572655E+03  0.20523635108E+04  0.21853991029E+04  0.65864270000E+03 0.  0.
    8880022    1    1    2    0    0 -0.27053230954E+03 -0.23827572655E+03 -0.10107205267E+04  0.10839329723E+04  0.15294330000E+03 0.  0.
<mgrwt>
<rscale>  0 0.63808174E+03</rscale>
<asrwt>0</asrwt>
<pdfrwt beam="1">  1        2 0.33161346E+00 0.75084836E+03</pdfrwt>
<pdfrwt beam="2">  1       -2 0.17136070E+00 0.75084836E+03</pdfrwt>
<totfact> 0.11902644E+00</totfact>
</mgrwt>
</event>
<event>
 4    1  0.6502538E-008  0.8434096E+03  0.7818608E-02  0.9623784E-01
          2   -1    0    0  501    0  0.00000000000E+00  0.00000000000E+00  0.36495679651E+04  0.36495679651E+04  0.25500000000E-02 0. -1.
         -2   -1    0    0    0  501 -0.00000000000E+00 -0.00000000000E+00 -0.20081864959E+03  0.20081864961E+03  0.25500000000E-02 0.  1.
    8880023    1    1    2    0    0 -0.32552648022E+03 -0.41420055346E+03  0.30700703824E+04  0.31838140566E+04  0.65864270000E+03 0. -1.
    8880022    1    1    2    0    0  0.32552648022E+03  0.41420055346E+03  0.37867893307E+03  0.66657255807E+03  0.15294330000E+03 0.  0.
<mgrwt>
<rscale>  0 0.75741782E+03</rscale>
<asrwt>0</asrwt>
<pdfrwt beam="1">  1        2 0.56147196E+00 0.84340962E+03</pdfrwt>
<pdfrwt beam="2">  1       -2 0.30895179E-01 0.84340962E+03</pdfrwt>
<totfact> 0.65899260E+00</totfact>
</mgrwt>
</event>
<event>
 4    1  0.6502538E-008  0.9571146E+03  0.7818608E-02  0.9439951E-01
          2   -1    0    0  501    0  0.00000000000E+00  0.00000000000E+00  0.75515476256E+03  0.75515476256E+03  0.25500000000E-02 0. -1.
         -2   -1    0    0    0  501 -0.00000000000E+00 -0.00000000000E+00 -0.11758582950E+04  0.11758582950E+04  0.25500000000E-02 0.  1.
    8880023    1    1    2    0    0 -0.68967344418E+03  0.81293695144E+02  0.21072672431E+03  0.98003779676E+03  0.65864270000E+03 0.  0.
    8880022    1    1    2    0    0  0.68967344418E+03 -0.81293695144E+02 -0.63143025673E+03  0.95097526078E+03  0.15294330000E+03 0.  0.
<mgrwt>
<rscale>  0 0.88859564E+03</rscale>
<asrwt>0</asrwt>
<pdfrwt beam="1">  1        2 0.11617766E+00 0.95711459E+03</pdfrwt>
<pdfrwt beam="2">  1       -2 0.18090128E+00 0.95711459E+03</pdfrwt>
<totfact> 0.66189344E+00</totfact>
</mgrwt>
</event>
<event>
 4    1  0.6502538E-008  0.7818373E+03  0.7818608E-02  0.9751539E-01
          2   -1    0    0  501    0  0.00000000000E+00  0.00000000000E+00  0.42731446966E+04  0.42731446966E+04  0.25500000000E-02 0. -1.
         -2   -1    0    0    0  501 -0.00000000000E+00 -0.00000000000E+00 -0.35946894762E+03  0.35946894763E+03  0.25500000000E-02 0.  1.
    8880023    1    1    2    0    0 -0.40674039321E+03  0.10964291024E+03  0.40802603730E+04  0.41544908513E+04  0.65864270000E+03 0. -1.
    8880022    1    1    2    0    0  0.40674039321E+03 -0.10964291024E+03 -0.16658462401E+03  0.47812279302E+03  0.15294330000E+03 0.  0.
<mgrwt>
<rscale>  0 0.68029381E+03</rscale>
<asrwt>0</asrwt>
<pdfrwt beam="1">  1        2 0.65740687E+00 0.78183727E+03</pdfrwt>
<pdfrwt beam="2">  1       -2 0.55302916E-01 0.78183727E+03</pdfrwt>
<totfact> 0.68947493E-01</totfact>
</mgrwt>
</event>
<event>
 4    1  0.6502538E-008  0.1074899E+04  0.7818608E-02  0.9289531E-01
          2   -1    0    0  501    0  0.00000000000E+00  0.00000000000E+00  0.20374419705E+04  0.20374419705E+04  0.25500000000E-02 0. -1.
         -2   -1    0    0    0  501 -0.00000000000E+00 -0.00000000000E+00 -0.99758959629E+03  0.99758959629E+03  0.25500000000E-02 0.  1.
    8880023    1    1    2    0    0  0.40889413491E+03  0.74458251229E+03  0.16561949286E+04  0.19744339388E+04  0.65864270000E+03 0. -1.
    8880022    1    1    2    0    0 -0.40889413491E+03 -0.74458251229E+03 -0.61634255433E+03  0.10605976280E+04  0.15294330000E+03 0.  0.
<mgrwt>
<rscale>  0 0.10175236E+04</rscale>
<asrwt>0</asrwt>
<pdfrwt beam="1">  1        2 0.31345261E+00 0.10748989E+04</pdfrwt>
<pdfrwt beam="2">  1       -2 0.15347532E+00 0.10748989E+04</pdfrwt>
<totfact> 0.17738329E+00</totfact>
</mgrwt>
</event>
<event>
 4    1  0.6502538E-008  0.9134598E+03  0.7818608E-02  0.9504761E-01
          2   -1    0    0  501    0  0.00000000000E+00  0.00000000000E+00  0.31085139874E+04  0.31085139874E+04  0.25500000000E-02 0. -1.
         -2   -1    0    0    0  501 -0.00000000000E+00 -0.00000000000E+00 -0.20627709767E+03  0.20627709768E+03  0.25500000000E-02 0.  1.
    8880023    1    1    2    0    0 -0.13663205994E+03  0.61800506610E+03  0.20323354355E+04  0.22281822435E+04  0.65864270000E+03 0.  0.
    8880022    1    1    2    0    0  0.13663205994E+03 -0.61800506610E+03  0.86990145417E+03  0.10866088415E+04  0.15294330000E+03 0.  0.
<mgrwt>
<rscale>  0 0.83933737E+03</rscale>
<asrwt>0</asrwt>
<pdfrwt beam="1">  1        2 0.47823283E+00 0.91345979E+03</pdfrwt>
<pdfrwt beam="2">  1       -2 0.31734944E-01 0.91345979E+03</pdfrwt>
<totfact> 0.14223796E+01</totfact>
</mgrwt>
</event>
<event>
 4    1  0.6502538E-008  0.6637692E+03  0.7818608E-02  0.1020589E+00
          2   -1    0    0  501    0  0.00000000000E+00  0.00000000000E+00  0.24410735471E+04  0.24410735471E+04  0.25500000000E-02 0. -1.
         -2   -1    0    0    0  501 -0.00000000000E+00 -0.00000000000E+00 -0.11263054908E+03  0.11263054911E+03  0.25500000000E-02 0.  1.
    8880023    1    1    2    0    0  0.76919630097E+02  0.29371115819E+02  0.22781387250E+04  0.23728686328E+04  0.65864270000E+03 0. -1.
    8880022    1    1    2    0    0 -0.76919630097E+02 -0.29371115819E+02  0.50304273075E+02  0.18083546346E+03  0.15294330000E+03 0.  0.
<mgrwt>
<rscale>  0 0.47474611E+03</rscale>
<asrwt>0</asrwt>
<pdfrwt beam="1">  1        2 0.37554977E+00 0.66376916E+03</pdfrwt>
<pdfrwt beam="2">  1       -2 0.17327777E-01 0.66376916E+03</pdfrwt>
<totfact> 0.10800079E+02</totfact>
</mgrwt>
</event>
<event>
 4    1  0.6502538E-008  0.6741241E+03  0.7818608E-02  0.1012864E+00
         -2   -1    0    0    0  501 -0.00000000000E+00  0.00000000000E+00  0.12789485311E+04  0.12789485311E+04  0.25500000000E-02 0.  1.
          2   -1    0    0  501    0  0.00000000000E+00 -0.00000000000E+00 -0.15168884085E+04  0.15168884085E+04  0.25500000000E-02 0. -1.
    8880023    1    1    2    0    0  0.15645425339E+02 -0.14278744803E+03 -0.14323924840E+04  0.15830955338E+04  0.65864270000E+03 0. -1.
    8880022    1    1    2    0    0 -0.15645425339E+02  0.14278744803E+03  0.11944526067E+04  0.12127414058E+04  0.15294330000E+03 0.  0.
<mgrwt>
<rscale>  0 0.50352021E+03</rscale>
<asrwt>0</asrwt>
<pdfrwt beam="1">  1        2 0.23336745E+00 0.67412405E+03</pdfrwt>
<pdfrwt beam="2">  1       -2 0.19676131E+00 0.67412405E+03</pdfrwt>
<totfact> 0.18166136E+00</totfact>
</mgrwt>
</event>
<event>
 4    1  0.6502538E-008  0.6680671E+03  0.7818608E-02  0.1017088E+00
          2   -1    0    0  501    0  0.00000000000E+00  0.00000000000E+00  0.15254183498E+04  0.15254183498E+04  0.25500000000E-02 0. -1.
         -2   -1    0    0    0  501 -0.00000000000E+00 -0.00000000000E+00 -0.80606097406E+03  0.80606097407E+03  0.25500000000E-02 0.  1.
    8880023    1    1    2    0    0 -0.94184731038E+02 -0.60271591743E+02  0.14394260472E+04  0.15869029523E+04  0.65864270000E+03 0. -1.
    8880022    1    1    2    0    0  0.94184731038E+02  0.60271591743E+02 -0.72006867152E+03  0.74457637153E+03  0.15294330000E+03 0.  0.
<mgrwt>
<rscale>  0 0.48752223E+03</rscale>
<asrwt>0</asrwt>
<pdfrwt beam="1">  1        2 0.23467975E+00 0.66806709E+03</pdfrwt>
<pdfrwt beam="2">  1       -2 0.12400938E+00 0.66806709E+03</pdfrwt>
<totfact> 0.62412414E+00</totfact>
</mgrwt>
</event>
<event>
 4    1  0.6502538E-008  0.8316153E+03  0.7818608E-02  0.9646198E-01
         -2   -1    0    0    0  501 -0.00000000000E+00  0.00000000000E+00  0.63580764694E+03  0.63580764695E+03  0.25500000000E-02 0.  1.
          2   -1    0    0  501    0  0.00000000000E+00 -0.00000000000E+00 -0.10009985788E+04  0.10009985788E+04  0.25500000000E-02 0. -1.
    8880023    1    1    2    0    0 -0.24279153093E+03 -0.44589921636E+03 -0.63076582182E+03  0.10437670079E+04  0.65864270000E+03 0. -1.
    8880022    1    1    2    0    0  0.24279153093E+03  0.44589921636E+03  0.26557488998E+03  0.59303921779E+03  0.15294330000E+03 0.  0.
<mgrwt>
<rscale>  0 0.74312541E+03</rscale>
<asrwt>0</asrwt>
<pdfrwt beam="1">  1        2 0.15399978E+00 0.83161532E+03</pdfrwt>
<pdfrwt beam="2">  1       -2 0.97816561E-01 0.83161532E+03</pdfrwt>
<totfact> 0.22070977E+01</totfact>
</mgrwt>
</event>
<event>
 4    1  0.6502538E-008  0.7837697E+03  0.7818608E-02  0.9747055E-01
          2   -1    0    0  501    0  0.00000000000E+00  0.00000000000E+00  0.14623150201E+04  0.14623150201E+04  0.25500000000E-02 0. -1.
         -2   -1    0    0    0  501 -0.00000000000E+00 -0.00000000000E+00 -0.55722803237E+03  0.55722803238E+03  0.25500000000E-02 0.  1.
    8880023    1    1    2    0    0  0.32444683926E+03 -0.27426082337E+03  0.12333396118E+04  0.14613081657E+04  0.65864270000E+03 0.  0.
    8880022    1    1    2    0    0 -0.32444683926E+03  0.27426082337E+03 -0.32825262401E+03  0.55823488687E+03  0.15294330000E+03 0.  0.
<mgrwt>
<rscale>  0 0.68282942E+03</rscale>
<asrwt>0</asrwt>
<pdfrwt beam="1">  1        2 0.22497154E+00 0.78376971E+03</pdfrwt>
<pdfrwt beam="2">  1       -2 0.85727391E-01 0.78376971E+03</pdfrwt>
<totfact> 0.16060834E+01</totfact>
</mgrwt>
</event>
<event>
 4    1  0.6502538E-008  0.8226962E+03  0.7818608E-02  0.9663714E-01
          2   -1    0    0  501    0  0.00000000000E+00  0.00000000000E+00  0.69820386405E+03  0.69820386405E+03  0.25500000000E-02 0. -1.
         -2   -1    0    0    0  501 -0.00000000000E+00 -0.00000000000E+00 -0.89973262581E+03  0.89973262582E+03  0.25500000000E-02 0.  1.
    8880023    1    1    2    0    0  0.45970630427E+03  0.17801382863E+03  0.30246469161E+03  0.87653517061E+03  0.65864270000E+03 0.  0.
    8880022    1    1    2    0    0 -0.45970630427E+03 -0.17801382863E+03 -0.50399345338E+03  0.72140131926E+03  0.15294330000E+03 0.  0.
<mgrwt>
<rscale>  0 0.73218954E+03</rscale>
<asrwt>0</asrwt>
<pdfrwt beam="1">  1        2 0.10741598E+00 0.82269619E+03</pdfrwt>
<pdfrwt beam="2">  1       -2 0.13842040E+00 0.82269619E+03</pdfrwt>
<totfact> 0.15319781E+01</totfact>
</mgrwt>
</event>
<event>
 4    1  0.6502538E-008  0.1121656E+04  0.7818608E-02  0.9237320E-01
          2   -1    0    0  501    0  0.00000000000E+00  0.00000000000E+00  0.26884055206E+04  0.26884055206E+04  0.25500000000E-02 0. -1.
         -2   -1    0    0    0  501 -0.00000000000E+00 -0.00000000000E+00 -0.52682395589E+03  0.52682395589E+03  0.25500000000E-02 0.  1.
    8880023    1    1    2    0    0 -0.90730032182E+03 -0.33277480673E+02  0.19817087168E+04  0.22771211889E+04  0.65864270000E+03 0.  0.
    8880022    1    1    2    0    0  0.90730032182E+03  0.33277480673E+02  0.17987284790E+03  0.93810828752E+03  0.15294330000E+03 0.  0.
<mgrwt>
<rscale>  0 0.10676391E+04</rscale>
<asrwt>0</asrwt>
<pdfrwt beam="1">  1        2 0.41360084E+00 0.11216557E+04</pdfrwt>
<pdfrwt beam="2">  1       -2 0.81049842E-01 0.11216557E+04</pdfrwt>
<totfact> 0.36138074E+00</totfact>
</mgrwt>
</event>
<event>
 4    1  0.6502538E-008  0.2058950E+04  0.7818608E-02  0.8591387E-01
          2   -1    0    0  501    0  0.00000000000E+00  0.00000000000E+00  0.29587039328E+04  0.29587039328E+04  0.25500000000E-02 0. -1.
         -2   -1    0    0    0  501 -0.00000000000E+00 -0.00000000000E+00 -0.18885501607E+04  0.18885501607E+04  0.25500000000E-02 0.  1.
    8880023    1    1    2    0    0  0.16886253557E+04  0.97673422883E+03 -0.73383925352E+03  0.21858169187E+04  0.65864270000E+03 0.  0.
    8880022    1    1    2    0    0 -0.16886253557E+04 -0.97673422883E+03  0.18039930256E+04  0.26614371748E+04  0.15294330000E+03 0.  0.
<mgrwt>
<rscale>  0 0.20329093E+04</rscale>
<asrwt>0</asrwt>
<pdfrwt beam="1">  1        2 0.45518522E+00 0.20589501E+04</pdfrwt>
<pdfrwt beam="2">  1       -2 0.29054618E+00 0.20589501E+04</pdfrwt>
<totfact> 0.59033430E-02</totfact>
</mgrwt>
</event>
<event>
 4    1  0.6502538E-008  0.9350566E+03  0.7818608E-02  0.9471948E-01
         -2   -1    0    0    0  501 -0.00000000000E+00  0.00000000000E+00  0.78634933976E+03  0.78634933976E+03  0.25500000000E-02 0.  1.
          2   -1    0    0  501    0  0.00000000000E+00 -0.00000000000E+00 -0.19292514891E+04  0.19292514891E+04  0.25500000000E-02 0. -1.
    8880023    1    1    2    0    0  0.14248213947E+03  0.64824330877E+03 -0.16293657388E+04  0.18786067881E+04  0.65864270000E+03 0. -1.
    8880022    1    1    2    0    0 -0.14248213947E+03 -0.64824330877E+03  0.48646358941E+03  0.83699404076E+03  0.15294330000E+03 0.  0.
<mgrwt>
<rscale>  0 0.86383915E+03</rscale>
<asrwt>0</asrwt>
<pdfrwt beam="1">  1        2 0.29680792E+00 0.93505655E+03</pdfrwt>
<pdfrwt beam="2">  1       -2 0.12097682E+00 0.93505655E+03</pdfrwt>
<totfact> 0.38310776E+00</totfact>
</mgrwt>
</event>
<event>
 4    1  0.6502538E-008  0.9837991E+03  0.7818608E-02  0.9403067E-01
          2   -1    0    0  501    0  0.00000000000E+00  0.00000000000E+00  0.10351397941E+04  0.10351397941E+04  0.25500000000E-02 0. -1.
         -2   -1    0    0    0  501 -0.00000000000E+00 -0.00000000000E+00 -0.22113134289E+04  0.22113134289E+04  0.25500000000E-02 0.  1.
    8880023    1    1    2    0    0 -0.15071746249E+03  0.71507673993E+03  0.71306087597E+03  0.12150376606E+04  0.65864270000E+03 0. -1.
    8880022    1    1    2    0    0  0.15071746249E+03 -0.71507673993E+03 -0.18892345108E+04  0.20314155624E+04  0.15294330000E+03 0.  0.
<mgrwt>
<rscale>  0 0.91823702E+03</rscale>
<asrwt>0</asrwt>
<pdfrwt beam="1">  1        2 0.15925228E+00 0.98379912E+03</pdfrwt>
<pdfrwt beam="2">  1       -2 0.34020206E+00 0.98379912E+03</pdfrwt>
<totfact> 0.43423605E-01</totfact>
</mgrwt>
</event>
<event>
 4    1  0.6502538E-008  0.8109448E+03  0.7818608E-02  0.9687612E-01
          2   -1    0    0  501    0  0.00000000000E+00  0.00000000000E+00  0.43172117697E+03  0.43172117698E+03  0.25500000000E-02 0. -1.
         -2   -1    0    0    0  501 -0.00000000000E+00 -0.00000000000E+00 -0.15083970356E+04  0.15083970356E+04  0.25500000000E-02 0.  1.
    8880023    1    1    2    0    0  0.20287284254E+03 -0.42739196414E+03 -0.65833726189E+02  0.81361266400E+03  0.65864270000E+03 0. -1.
    8880022    1    1    2    0    0 -0.20287284254E+03  0.42739196414E+03 -0.10108421324E+04  0.11265055486E+04  0.15294330000E+03 0.  0.
<mgrwt>
<rscale>  0 0.71759164E+03</rscale>
<asrwt>0</asrwt>
<pdfrwt beam="1">  1        2 0.66418643E-01 0.81094481E+03</pdfrwt>
<pdfrwt beam="2">  1       -2 0.23206108E+00 0.81094481E+03</pdfrwt>
<totfact> 0.61590254E+00</totfact>
</mgrwt>
</event>
<event>
 4    1  0.6502538E-008  0.1147452E+04  0.7818608E-02  0.9209977E-01
         -2   -1    0    0    0  501 -0.00000000000E+00  0.00000000000E+00  0.19078417299E+04  0.19078417299E+04  0.25500000000E-02 0.  1.
          2   -1    0    0  501    0  0.00000000000E+00 -0.00000000000E+00 -0.14277507511E+04  0.14277507511E+04  0.25500000000E-02 0. -1.
    8880023    1    1    2    0    0 -0.73627635970E+03  0.58372341224E+03 -0.10356470127E+04  0.15457072301E+04  0.65864270000E+03 0.  0.
    8880022    1    1    2    0    0  0.73627635970E+03 -0.58372341224E+03  0.15157379915E+04  0.17898852510E+04  0.15294330000E+03 0.  0.
<mgrwt>
<rscale>  0 0.10951045E+04</rscale>
<asrwt>0</asrwt>
<pdfrwt beam="1">  1        2 0.21965396E+00 0.11474520E+04</pdfrwt>
<pdfrwt beam="2">  1       -2 0.29351411E+00 0.11474520E+04</pdfrwt>
<totfact> 0.47716037E-01</totfact>
</mgrwt>
</event>
<event>
 4    1  0.6502538E-008  0.7405462E+03  0.7818608E-02  0.9858359E-01
          2   -1    0    0  501    0  0.00000000000E+00  0.00000000000E+00  0.11062096223E+04  0.11062096223E+04  0.25500000000E-02 0. -1.
         -2   -1    0    0    0  501 -0.00000000000E+00 -0.00000000000E+00 -0.14044871181E+04  0.14044871181E+04  0.25500000000E-02 0.  1.
    8880023    1    1    2    0    0  0.70975220172E+02 -0.33099992410E+03  0.95216456414E+03  0.12062445834E+04  0.65864270000E+03 0. -1.
    8880022    1    1    2    0    0 -0.70975220172E+02  0.33099992410E+03 -0.12504420599E+04  0.13044521569E+04  0.15294330000E+03 0.  0.
<mgrwt>
<rscale>  0 0.62322532E+03</rscale>
<asrwt>0</asrwt>
<pdfrwt beam="1">  1        2 0.17018610E+00 0.74054618E+03</pdfrwt>
<pdfrwt beam="2">  1       -2 0.21607494E+00 0.74054618E+03</pdfrwt>
<totfact> 0.23283860E+00</totfact>
</mgrwt>
</event>
<event>
 4    1  0.6502538E-008  0.1591093E+04  0.7818608E-02  0.8847854E-01
          2   -1    0    0  501    0  0.00000000000E+00  0.00000000000E+00  0.15721480322E+04  0.15721480322E+04  0.25500000000E-02 0. -1.
         -2   -1    0    0    0  501 -0.00000000000E+00 -0.00000000000E+00 -0.14894663849E+04  0.14894663849E+04  0.25500000000E-02 0.  1.
    8880023    1    1    2    0    0  0.10572777519E+04 -0.98991407228E+03  0.18388204899E+03  0.16016831551E+04  0.65864270000E+03 0.  0.
    8880022    1    1    2    0    0 -0.10572777519E+04  0.98991407228E+03 -0.10120040171E+03  0.14599312619E+04  0.15294330000E+03 0.  0.
<mgrwt>
<rscale>  0 0.15562998E+04</rscale>
<asrwt>0</asrwt>
<pdfrwt beam="1">  1        2 0.24186893E+00 0.15910928E+04</pdfrwt>
<pdfrwt beam="2">  1       -2 0.22914868E+00 0.15910928E+04</pdfrwt>
<totfact> 0.93301973E-01</totfact>
</mgrwt>
</event>
<event>
 4    1  0.6502538E-008  0.7068848E+03  0.7818608E-02  0.9969756E-01
          2   -1    0    0  501    0  0.00000000000E+00  0.00000000000E+00  0.11875031690E+04  0.11875031690E+04  0.25500000000E-02 0. -1.
         -2   -1    0    0    0  501 -0.00000000000E+00 -0.00000000000E+00 -0.45698084902E+03  0.45698084902E+03  0.25500000000E-02 0.  1.
    8880023    1    1    2    0    0 -0.11055862446E+03 -0.23163058994E+03  0.10117108008E+04  0.12341980758E+04  0.65864270000E+03 0.  0.
    8880022    1    1    2    0    0  0.11055862446E+03  0.23163058994E+03 -0.28118848080E+03  0.41028594222E+03  0.15294330000E+03 0.  1.
<mgrwt>
<rscale>  0 0.56996504E+03</rscale>
<asrwt>0</asrwt>
<pdfrwt beam="1">  1        2 0.18269280E+00 0.70688482E+03</pdfrwt>
<pdfrwt beam="2">  1       -2 0.70304746E-01 0.70688482E+03</pdfrwt>
<totfact> 0.36290980E+01</totfact>
</mgrwt>
</event>
<event>
 4    1  0.6502538E-008  0.8197401E+03  0.7818608E-02  0.9669635E-01
         -2   -1    0    0    0  501 -0.00000000000E+00  0.00000000000E+00  0.79020476546E+03  0.79020476547E+03  0.25500000000E-02 0.  1.
          2   -1    0    0  501    0  0.00000000000E+00 -0.00000000000E+00 -0.17580698600E+04  0.17580698600E+04  0.25500000000E-02 0. -1.
    8880023    1    1    2    0    0 -0.32075084870E+03 -0.36780770549E+03 -0.15621866287E+04  0.17641997858E+04  0.65864270000E+03 0. -1.
    8880022    1    1    2    0    0  0.32075084870E+03  0.36780770549E+03  0.59432153416E+03  0.78407483964E+03  0.15294330000E+03 0.  0.
<mgrwt>
<rscale>  0 0.72853860E+03</rscale>
<asrwt>0</asrwt>
<pdfrwt beam="1">  1        2 0.27047228E+00 0.81974009E+03</pdfrwt>
<pdfrwt beam="2">  1       -2 0.12156996E+00 0.81974009E+03</pdfrwt>
<totfact> 0.47728226E+00</totfact>
</mgrwt>
</event>
<event>
 4    1  0.6502538E-008  0.7058454E+03  0.7818608E-02  0.9973765E-01
          2   -1    0    0  501    0  0.00000000000E+00  0.00000000000E+00  0.10080612833E+04  0.10080612833E+04  0.25500000000E-02 0. -1.
         -2   -1    0    0    0  501 -0.00000000000E+00 -0.00000000000E+00 -0.48751961292E+03  0.48751961293E+03  0.25500000000E-02 0.  1.
    8880023    1    1    2    0    0 -0.19247522612E+02 -0.25305555318E+03  0.81477859487E+03  0.10779990469E+04  0.65864270000E+03 0. -1.
    8880022    1    1    2    0    0  0.19247522612E+02  0.25305555318E+03 -0.29423692453E+03  0.41758184933E+03  0.15294330000E+03 0.  0.
<mgrwt>
<rscale>  0 0.56815725E+03</rscale>
<asrwt>0</asrwt>
<pdfrwt beam="1">  1        2 0.15508635E+00 0.70584544E+03</pdfrwt>
<pdfrwt beam="2">  1       -2 0.75003018E-01 0.70584544E+03</pdfrwt>
<totfact> 0.40540173E+01</totfact>
</mgrwt>
</event>
<event>
 4    1  0.6502538E-008  0.7377912E+03  0.7818608E-02  0.9866428E-01
         -2   -1    0    0    0  501 -0.00000000000E+00  0.00000000000E+00  0.12871078079E+04  0.12871078079E+04  0.25500000000E-02 0.  1.
          2   -1    0    0  501    0  0.00000000000E+00 -0.00000000000E+00 -0.26024149691E+03  0.26024149692E+03  0.25500000000E-02 0. -1.
    8880023    1    1    2    0    0  0.93390878407E+02  0.31906715372E+03  0.89142833618E+03  0.11571432018E+04  0.65864270000E+03 0.  0.
    8880022    1    1    2    0    0 -0.93390878407E+02 -0.31906715372E+03  0.13543797477E+03  0.39020610295E+03  0.15294330000E+03 0.  0.
<mgrwt>
<rscale>  0 0.61916262E+03</rscale>
<asrwt>0</asrwt>
<pdfrwt beam="1">  1        2 0.40037152E-01 0.73779124E+03</pdfrwt>
<pdfrwt beam="2">  1       -2 0.19801659E+00 0.73779124E+03</pdfrwt>
<totfact> 0.17947745E+01</totfact>
</mgrwt>
</event>
<event>
 4    1  0.6502538E-008  0.8571475E+03  0.7818608E-02  0.9598658E-01
          2   -1    0    0  501    0  0.00000000000E+00  0.00000000000E+00  0.24800113271E+04  0.24800113271E+04  0.25500000000E-02 0. -1.
         -2   -1    0    0    0  501 -0.00000000000E+00 -0.00000000000E+00 -0.33563426187E+03  0.33563426188E+03  0.25500000000E-02 0.  1.
    8880023    1    1    2    0    0 -0.46581387780E+03 -0.28967061210E+03  0.20711357130E+04  0.22414961477E+04  0.65864270000E+03 0.  0.
    8880022    1    1    2    0    0  0.46581387780E+03  0.28967061210E+03  0.73241352273E+02  0.57414944132E+03  0.15294330000E+03 0.  0.
<mgrwt>
<rscale>  0 0.77385081E+03</rscale>
<asrwt>0</asrwt>
<pdfrwt beam="1">  1        2 0.38154021E+00 0.85714750E+03</pdfrwt>
<pdfrwt beam="2">  1       -2 0.51636039E-01 0.85714750E+03</pdfrwt>
<totfact> 0.13050793E+01</totfact>
</mgrwt>
</event>
<event>
 4    1  0.6502538E-008  0.1135770E+04  0.7818608E-02  0.9222238E-01
         -2   -1    0    0    0  501 -0.00000000000E+00  0.00000000000E+00  0.12234989060E+04  0.12234989060E+04  0.25500000000E-02 0.  1.
          2   -1    0    0  501    0  0.00000000000E+00 -0.00000000000E+00 -0.19649003016E+04  0.19649003016E+04  0.25500000000E-02 0. -1.
    8880023    1    1    2    0    0  0.92189822487E+03  0.79162215806E+02 -0.15694555022E+04  0.19373083836E+04  0.65864270000E+03 0.  0.
    8880022    1    1    2    0    0 -0.92189822487E+03 -0.79162215806E+02  0.82805410662E+03  0.12510908240E+04  0.15294330000E+03 0.  0.
<mgrwt>
<rscale>  0 0.10826812E+04</rscale>
<asrwt>0</asrwt>
<pdfrwt beam="1">  1        2 0.30229235E+00 0.11357699E+04</pdfrwt>
<pdfrwt beam="2">  1       -2 0.18823060E+00 0.11357699E+04</pdfrwt>
<totfact> 0.10901279E+00</totfact>
</mgrwt>
</event>
<event>
 4    1  0.6502538E-008  0.7625078E+03  0.7818608E-02  0.9798658E-01
         -2   -1    0    0    0  501 -0.00000000000E+00  0.00000000000E+00  0.11225643663E+04  0.11225643663E+04  0.25500000000E-02 0.  1.
          2   -1    0    0  501    0  0.00000000000E+00 -0.00000000000E+00 -0.49109487630E+03  0.49109487631E+03  0.25500000000E-02 0. -1.
    8880023    1    1    2    0    0  0.86011749107E+02  0.37444614224E+03 -0.10433881335E+03  0.76961336310E+03  0.65864270000E+03 0.  0.
    8880022    1    1    2    0    0 -0.86011749107E+02 -0.37444614224E+03  0.73580830336E+03  0.84404587952E+03  0.15294330000E+03 0.  0.
<mgrwt>
<rscale>  0 0.65434622E+03</rscale>
<asrwt>0</asrwt>
<pdfrwt beam="1">  1        2 0.75553059E-01 0.76250780E+03</pdfrwt>
<pdfrwt beam="2">  1       -2 0.17270221E+00 0.76250780E+03</pdfrwt>
<totfact> 0.13008854E+01</totfact>
</mgrwt>
</event>
<event>
 4    1  0.6502538E-008  0.1339263E+04  0.7818608E-02  0.9032375E-01
          2   -1    0    0  501    0  0.00000000000E+00  0.00000000000E+00  0.34572155452E+04  0.34572155452E+04  0.25500000000E-02 0. -1.
         -2   -1    0    0    0  501 -0.00000000000E+00 -0.00000000000E+00 -0.91820158152E+03  0.91820158153E+03  0.25500000000E-02 0.  1.
    8880023    1    1    2    0    0 -0.34281379853E+03  0.11145821117E+04  0.28585124758E+04  0.31566942146E+04  0.65864270000E+03 0. -1.
    8880022    1    1    2    0    0  0.34281379853E+03 -0.11145821117E+04 -0.31949851207E+03  0.12187229121E+04  0.15294330000E+03 0.  0.
<mgrwt>
<rscale>  0 0.12964633E+04</rscale>
<asrwt>0</asrwt>
<pdfrwt beam="1">  1        2 0.53187932E+00 0.13392628E+04</pdfrwt>
<pdfrwt beam="2">  1       -2 0.14126178E+00 0.13392628E+04</pdfrwt>
<totfact> 0.29765913E-01</totfact>
</mgrwt>
</event>
<event>
 4    1  0.6502538E-008  0.1370582E+04  0.7818608E-02  0.9006885E-01
          2   -1    0    0  501    0  0.00000000000E+00  0.00000000000E+00  0.10345438562E+04  0.10345438562E+04  0.25500000000E-02 0. -1.
         -2   -1    0    0    0  501 -0.00000000000E+00 -0.00000000000E+00 -0.22200012232E+04  0.22200012232E+04  0.25500000000E-02 0.  1.
    8880023    1    1    2    0    0 -0.10609157957E+04 -0.56492815087E+03  0.23170190587E+03  0.13900295395E+04  0.65864270000E+03 0. -1.
    8880022    1    1    2    0    0  0.10609157957E+04  0.56492815087E+03 -0.14171592728E+04  0.18645155399E+04  0.15294330000E+03 0.  0.
<mgrwt>
<rscale>  0 0.13289925E+04</rscale>
<asrwt>0</asrwt>
<pdfrwt beam="1">  1        2 0.15916059E+00 0.13705825E+04</pdfrwt>
<pdfrwt beam="2">  1       -2 0.34153865E+00 0.13705825E+04</pdfrwt>
<totfact> 0.40490331E-01</totfact>
</mgrwt>
</event>
<event>
 4    1  0.6502538E-008  0.1920052E+04  0.7818608E-02  0.8658883E-01
         -2   -1    0    0    0  501 -0.00000000000E+00  0.00000000000E+00  0.14195590888E+04  0.14195590888E+04  0.25500000000E-02 0.  1.
          2   -1    0    0  501    0  0.00000000000E+00 -0.00000000000E+00 -0.25957925635E+04  0.25957925635E+04  0.25500000000E-02 0. -1.
    8880023    1    1    2    0    0  0.16387730023E+04  0.75313412411E+03 -0.10795905789E+04  0.22027514581E+04  0.65864270000E+03 0.  0.
    8880022    1    1    2    0    0 -0.16387730023E+04 -0.75313412411E+03 -0.96642895873E+02  0.18126001942E+04  0.15294330000E+03 0.  0.
<mgrwt>
<rscale>  0 0.18919325E+04</rscale>
<asrwt>0</asrwt>
<pdfrwt beam="1">  1        2 0.39935270E+00 0.19200516E+04</pdfrwt>
<pdfrwt beam="2">  1       -2 0.21839371E+00 0.19200516E+04</pdfrwt>
<totfact> 0.27846897E-01</totfact>
</mgrwt>
</event>
<event>
 4    1  0.6693700E-008  0.9276088E+03  0.7818608E-02  0.9483090E-01
         -2   -1    0    0    0  501 -0.00000000000E+00  0.00000000000E+00  0.16531718516E+04  0.16531718517E+04  0.25500000000E-02 0.  1.
          2   -1    0    0  501    0  0.00000000000E+00 -0.00000000000E+00 -0.22633796509E+04  0.22633796509E+04  0.25500000000E-02 0. -1.
    8880023    1    1    2    0    0 -0.21854739660E+03  0.61553623645E+03 -0.20928458458E+04  0.22892054873E+04  0.65864270000E+03 0. -1.
    8880022    1    1    2    0    0  0.21854739660E+03 -0.61553623645E+03  0.14826380466E+04  0.16273460152E+04  0.15294330000E+03 0.  0.
<mgrwt>
<rscale>  0 0.85542110E+03</rscale>
<asrwt>0</asrwt>
<pdfrwt beam="1">  1        2 0.34821225E+00 0.92760877E+03</pdfrwt>
<pdfrwt beam="2">  1       -2 0.25433413E+00 0.92760877E+03</pdfrwt>
<totfact> 0.29363049E-01</totfact>
</mgrwt>
</event>
<event>
 4    1  0.6502538E-008  0.7653282E+03  0.7818608E-02  0.9791504E-01
         -2   -1    0    0    0  501 -0.00000000000E+00  0.00000000000E+00  0.46680964369E+03  0.46680964370E+03  0.25500000000E-02 0.  1.
          2   -1    0    0  501    0  0.00000000000E+00 -0.00000000000E+00 -0.86763330043E+03  0.86763330043E+03  0.25500000000E-02 0. -1.
    8880023    1    1    2    0    0 -0.15684334527E+03 -0.35681532405E+03 -0.48677170690E+03  0.90701373272E+03  0.65864270000E+03 0. -1.
    8880022    1    1    2    0    0  0.15684334527E+03  0.35681532405E+03  0.85948050169E+02  0.42742921142E+03  0.15294330000E+03 0.  0.
<mgrwt>
<rscale>  0 0.65820503E+03</rscale>
<asrwt>0</asrwt>
<pdfrwt beam="1">  1        2 0.13348205E+00 0.76532818E+03</pdfrwt>
<pdfrwt beam="2">  1       -2 0.71816868E-01 0.76532818E+03</pdfrwt>
<totfact> 0.54921549E+01</totfact>
</mgrwt>
</event>
<event>
 4    1  0.6502538E-008  0.8315768E+03  0.7818608E-02  0.9646272E-01
          2   -1    0    0  501    0  0.00000000000E+00  0.00000000000E+00  0.14458818927E+04  0.14458818927E+04  0.25500000000E-02 0. -1.
         -2   -1    0    0    0  501 -0.00000000000E+00 -0.00000000000E+00 -0.62051752312E+03  0.62051752312E+03  0.25500000000E-02 0.  1.
    8880023    1    1    2    0    0  0.37501274470E+03  0.34216260064E+03  0.11689894595E+04  0.14345927529E+04  0.65864270000E+03 0.  0.
    8880022    1    1    2    0    0 -0.37501274470E+03 -0.34216260064E+03 -0.34362508987E+03  0.63180666297E+03  0.15294330000E+03 0.  1.
<mgrwt>
<rscale>  0 0.74307845E+03</rscale>
<asrwt>0</asrwt>
<pdfrwt beam="1">  1        2 0.22244337E+00 0.83157682E+03</pdfrwt>
<pdfrwt beam="2">  1       -2 0.95464235E-01 0.83157682E+03</pdfrwt>
<totfact> 0.12720100E+01</totfact>
</mgrwt>
</event>
<event>
 4    1  0.6502538E-008  0.1261895E+04  0.7818608E-02  0.9099185E-01
          2   -1    0    0  501    0  0.00000000000E+00  0.00000000000E+00  0.34697190106E+04  0.34697190106E+04  0.25500000000E-02 0. -1.
         -2   -1    0    0    0  501 -0.00000000000E+00 -0.00000000000E+00 -0.98256803019E+03  0.98256803019E+03  0.25500000000E-02 0.  1.
    8880023    1    1    2    0    0  0.80884593745E+03 -0.71016709207E+03  0.29967506844E+04  0.32515986714E+04  0.65864270000E+03 0.  0.
    8880022    1    1    2    0    0 -0.80884593745E+03  0.71016709207E+03 -0.50959970395E+03  0.12006883694E+04  0.15294330000E+03 0.  0.
<mgrwt>
<rscale>  0 0.12157459E+04</rscale>
<asrwt>0</asrwt>
<pdfrwt beam="1">  1        2 0.53380292E+00 0.12618951E+04</pdfrwt>
<pdfrwt beam="2">  1       -2 0.15116431E+00 0.12618951E+04</pdfrwt>
<totfact> 0.24661033E-01</totfact>
</mgrwt>
</event>
<event>
 4    1  0.6502538E-008  0.6822968E+03  0.7818608E-02  0.1008053E+00
          2   -1    0    0  501    0  0.00000000000E+00  0.00000000000E+00  0.13975519462E+04  0.13975519462E+04  0.25500000000E-02 0. -1.
         -2   -1    0    0    0  501 -0.00000000000E+00 -0.00000000000E+00 -0.20102300694E+03  0.20102300696E+03  0.25500000000E-02 0.  1.
    8880023    1    1    2    0    0 -0.14410657066E+03  0.10465191058E+03  0.11802250264E+04  0.13632534780E+04  0.65864270000E+03 0. -1.
    8880022    1    1    2    0    0  0.14410657066E+03 -0.10465191058E+03  0.16303912891E+02  0.23532147519E+03  0.15294330000E+03 0.  0.
<mgrwt>
<rscale>  0 0.52255761E+03</rscale>
<asrwt>0</asrwt>
<pdfrwt beam="1">  1        2 0.21500799E+00 0.68229681E+03</pdfrwt>
<pdfrwt beam="2">  1       -2 0.30926617E-01 0.68229681E+03</pdfrwt>
<totfact> 0.14352400E+02</totfact>
</mgrwt>
</event>
<event>
 4    1  0.6502538E-008  0.1719140E+04  0.7818608E-02  0.8768635E-01
         -2   -1    0    0    0  501 -0.00000000000E+00  0.00000000000E+00  0.13093560857E+04  0.13093560857E+04  0.25500000000E-02 0.  1.
          2   -1    0    0  501    0  0.00000000000E+00 -0.00000000000E+00 -0.26834435683E+04  0.26834435683E+04  0.25500000000E-02 0. -1.
    8880023    1    1    2    0    0  0.83211179016E+03  0.13524878901E+04 -0.16394689946E+04  0.23755635784E+04  0.65864270000E+03 0.  0.
    8880022    1    1    2    0    0 -0.83211179016E+03 -0.13524878901E+04  0.26538151198E+03  0.16172360756E+04  0.15294330000E+03 0.  0.
<mgrwt>
<rscale>  0 0.16873105E+04</rscale>
<asrwt>0</asrwt>
<pdfrwt beam="1">  1        2 0.41283747E+00 0.17191404E+04</pdfrwt>
<pdfrwt beam="2">  1       -2 0.20143940E+00 0.17191404E+04</pdfrwt>
<totfact> 0.32465413E-01</totfact>
</mgrwt>
</event>
<event>
 4    1  0.6502538E-008  0.9499768E+03  0.7818608E-02  0.9450147E-01
         -2   -1    0    0    0  501 -0.00000000000E+00  0.00000000000E+00  0.24414721677E+03  0.24414721678E+03  0.25500000000E-02 0.  1.
          2   -1    0    0  501    0  0.00000000000E+00 -0.00000000000E+00 -0.36834009929E+04  0.36834009929E+04  0.25500000000E-02 0. -1.
    8880023    1    1    2    0    0  0.58784463495E+03  0.35083382938E+03 -0.28732340594E+04  0.30262071736E+04  0.65864270000E+03 0.  0.
    8880022    1    1    2    0    0 -0.58784463495E+03 -0.35083382938E+03 -0.56601971665E+03  0.90134103608E+03  0.15294330000E+03 0.  0.
<mgrwt>
<rscale>  0 0.88061181E+03</rscale>
<asrwt>0</asrwt>
<pdfrwt beam="1">  1        2 0.56667704E+00 0.94997679E+03</pdfrwt>
<pdfrwt beam="2">  1       -2 0.37561113E-01 0.94997679E+03</pdfrwt>
<totfact> 0.42206376E+00</totfact>
</mgrwt>
</event>
<event>
 4    1  0.6502538E-008  0.1006897E+04  0.7818608E-02  0.9372590E-01
          2   -1    0    0  501    0  0.00000000000E+00  0.00000000000E+00  0.19836189031E+04  0.19836189031E+04  0.25500000000E-02 0. -1.
         -2   -1    0    0    0  501 -0.00000000000E+00 -0.00000000000E+00 -0.62474524919E+03  0.62474524920E+03  0.25500000000E-02 0.  1.
    8880023    1    1    2    0    0  0.69098334591E+03 -0.32027051616E+03  0.15120257459E+04  0.18166076214E+04  0.65864270000E+03 0.  0.
    8880022    1    1    2    0    0 -0.69098334591E+03  0.32027051616E+03 -0.15315209197E+03  0.79175653085E+03  0.15294330000E+03 0.  0.
<mgrwt>
<rscale>  0 0.94366202E+03</rscale>
<asrwt>0</asrwt>
<pdfrwt beam="1">  1        2 0.30517214E+00 0.10068969E+04</pdfrwt>
<pdfrwt beam="2">  1       -2 0.96114654E-01 0.10068969E+04</pdfrwt>
<totfact> 0.61863103E+00</totfact>
</mgrwt>
</event>
<event>
 4    1  0.6502538E-008  0.6720625E+03  0.7818608E-02  0.1014225E+00
         -2   -1    0    0    0  501 -0.00000000000E+00  0.00000000000E+00  0.49949969234E+03  0.49949969235E+03  0.25500000000E-02 0.  1.
          2   -1    0    0  501    0  0.00000000000E+00 -0.00000000000E+00 -0.69914834364E+03  0.69914834365E+03  0.25500000000E-02 0. -1.
    8880023    1    1    2    0    0  0.10099037804E+03 -0.87514534334E+02 -0.49888865009E+03  0.83699339402E+03  0.65864270000E+03 0.  0.
    8880022    1    1    2    0    0 -0.10099037804E+03  0.87514534334E+02  0.29923999879E+03  0.36165464198E+03  0.15294330000E+03 0.  1.
<mgrwt>
<rscale>  0 0.49829279E+03</rscale>
<asrwt>0</asrwt>
<pdfrwt beam="1">  1        2 0.10756128E+00 0.67206254E+03</pdfrwt>
<pdfrwt beam="2">  1       -2 0.76846107E-01 0.67206254E+03</pdfrwt>
<totfact> 0.63227397E+01</totfact>
</mgrwt>
</event>
<event>
 4    1  0.6502538E-008  0.9400470E+03  0.7818608E-02  0.9464581E-01
         -2   -1    0    0    0  501 -0.00000000000E+00  0.00000000000E+00  0.55186111688E+03  0.55186111689E+03  0.25500000000E-02 0.  1.
          2   -1    0    0  501    0  0.00000000000E+00 -0.00000000000E+00 -0.16029683652E+04  0.16029683652E+04  0.25500000000E-02 0. -1.
    8880023    1    1    2    0    0  0.11185702534E+03  0.66133661798E+03 -0.11214099315E+04  0.14633005696E+04  0.65864270000E+03 0.  0.
    8880022    1    1    2    0    0 -0.11185702534E+03 -0.66133661798E+03  0.70302683224E+02  0.69152891240E+03  0.15294330000E+03 0.  0.
<mgrwt>
<rscale>  0 0.86946232E+03</rscale>
<asrwt>0</asrwt>
<pdfrwt beam="1">  1        2 0.24661052E+00 0.94004698E+03</pdfrwt>
<pdfrwt beam="2">  1       -2 0.84901711E-01 0.94004698E+03</pdfrwt>
<totfact> 0.13469259E+01</totfact>
</mgrwt>
</event>
<event>
 4    1  0.6502538E-008  0.8869870E+03  0.7818608E-02  0.9547253E-01
          2   -1    0    0  501    0  0.00000000000E+00  0.00000000000E+00  0.12514383266E+04  0.12514383266E+04  0.25500000000E-02 0. -1.
         -2   -1    0    0    0  501 -0.00000000000E+00 -0.00000000000E+00 -0.11566623416E+04  0.11566623416E+04  0.25500000000E-02 0.  1.
    8880023    1    1    2    0    0  0.59030726835E+03 -0.66880828412E+02  0.98593834298E+03  0.13262052400E+04  0.65864270000E+03 0. -1.
    8880022    1    1    2    0    0 -0.59030726835E+03  0.66880828412E+02 -0.89116235794E+03  0.10818954282E+04  0.15294330000E+03 0.  0.
<mgrwt>
<rscale>  0 0.80887919E+03</rscale>
<asrwt>0</asrwt>
<pdfrwt beam="1">  1        2 0.19252897E+00 0.88698699E+03</pdfrwt>
<pdfrwt beam="2">  1       -2 0.17794805E+00 0.88698699E+03</pdfrwt>
<totfact> 0.33248521E+00</totfact>
</mgrwt>
</event>
<event>
 4    1  0.6502538E-008  0.8456192E+03  0.7818608E-02  0.9619674E-01
          2   -1    0    0  501    0  0.00000000000E+00  0.00000000000E+00  0.13612678525E+04  0.13612678525E+04  0.25500000000E-02 0. -1.
         -2   -1    0    0    0  501 -0.00000000000E+00 -0.00000000000E+00 -0.56609974047E+03  0.56609974047E+03  0.25500000000E-02 0.  1.
    8880023    1    1    2    0    0  0.28569728874E+03 -0.44680946537E+03  0.10255875485E+04  0.13292485339E+04  0.65864270000E+03 0.  0.
    8880022    1    1    2    0    0 -0.28569728874E+03  0.44680946537E+03 -0.23041943640E+03  0.59811905907E+03  0.15294330000E+03 0.  0.
<mgrwt>
<rscale>  0 0.76007573E+03</rscale>
<asrwt>0</asrwt>
<pdfrwt beam="1">  1        2 0.20942582E+00 0.84561921E+03</pdfrwt>
<pdfrwt beam="2">  1       -2 0.87092269E-01 0.84561921E+03</pdfrwt>
<totfact> 0.17547676E+01</totfact>
</mgrwt>
</event>
<event>
 4    1  0.6502538E-008  0.1255003E+04  0.7818608E-02  0.9105426E-01
         -2   -1    0    0    0  501 -0.00000000000E+00  0.00000000000E+00  0.25286478594E+04  0.25286478594E+04  0.25500000000E-02 0.  1.
          2   -1    0    0  501    0  0.00000000000E+00 -0.00000000000E+00 -0.61690079374E+03  0.61690079374E+03  0.25500000000E-02 0. -1.
    8880023    1    1    2    0    0 -0.37544496477E+03 -0.10001314243E+04  0.46004039074E+03  0.13366634411E+04  0.65864270000E+03 0.  0.
    8880022    1    1    2    0    0  0.37544496477E+03  0.10001314243E+04  0.14517066749E+04  0.18088852120E+04  0.15294330000E+03 0.  0.
<mgrwt>
<rscale>  0 0.12085267E+04</rscale>
<asrwt>0</asrwt>
<pdfrwt beam="1">  1        2 0.94907814E-01 0.12550028E+04</pdfrwt>
<pdfrwt beam="2">  1       -2 0.38902275E+00 0.12550028E+04</pdfrwt>
<totfact> 0.41313141E-01</totfact>
</mgrwt>
</event>
<event>
 4    1  0.6502538E-008  0.1201702E+04  0.7818608E-02  0.9155469E-01
          2   -1    0    0  501    0  0.00000000000E+00  0.00000000000E+00  0.72869660768E+03  0.72869660768E+03  0.25500000000E-02 0. -1.
         -2   -1    0    0    0  501 -0.00000000000E+00 -0.00000000000E+00 -0.23549999395E+04  0.23549999395E+04  0.25500000000E-02 0.  1.
    8880023    1    1    2    0    0  0.15636394974E+03 -0.99288901969E+03 -0.43498674093E+02  0.12024893476E+04  0.65864270000E+03 0. -1.
    8880022    1    1    2    0    0 -0.15636394974E+03  0.99288901969E+03 -0.15828046577E+04  0.18812071996E+04  0.15294330000E+03 0.  0.
<mgrwt>
<rscale>  0 0.11525119E+04</rscale>
<asrwt>0</asrwt>
<pdfrwt beam="1">  1        2 0.11210717E+00 0.12017023E+04</pdfrwt>
<pdfrwt beam="2">  1       -2 0.36230768E+00 0.12017023E+04</pdfrwt>
<totfact> 0.49949872E-01</totfact>
</mgrwt>
</event>
<event>
 4    1  0.6502538E-008  0.2086263E+04  0.7818608E-02  0.8578803E-01
          2   -1    0    0  501    0  0.00000000000E+00  0.00000000000E+00  0.28399330151E+04  0.28399330152E+04  0.25500000000E-02 0. -1.
         -2   -1    0    0    0  501 -0.00000000000E+00 -0.00000000000E+00 -0.18467497764E+04  0.18467497764E+04  0.25500000000E-02 0.  1.
    8880023    1    1    2    0    0  0.13947762395E+04  0.14047364121E+04  0.15791810290E+04  0.26165450645E+04  0.65864270000E+03 0.  0.
    8880022    1    1    2    0    0 -0.13947762395E+04 -0.14047364121E+04 -0.58599779027E+03  0.20701377271E+04  0.15294330000E+03 0.  0.
<mgrwt>
<rscale>  0 0.20605943E+04</rscale>
<asrwt>0</asrwt>
<pdfrwt beam="1">  1        2 0.43691277E+00 0.20862635E+04</pdfrwt>
<pdfrwt beam="2">  1       -2 0.28411535E+00 0.20862635E+04</pdfrwt>
<totfact> 0.76348542E-02</totfact>
</mgrwt>
</event>
<event>
 4    1  0.6502538E-008  0.9036140E+03  0.7818608E-02  0.9520255E-01
         -2   -1    0    0    0  501 -0.00000000000E+00  0.00000000000E+00  0.95135888875E+03  0.95135888875E+03  0.25500000000E-02 0.  1.
          2   -1    0    0  501    0  0.00000000000E+00 -0.00000000000E+00 -0.11642300941E+04  0.11642300941E+04  0.25500000000E-02 0. -1.
    8880023    1    1    2    0    0 -0.44761255839E+03 -0.42702582743E+03 -0.83111706001E+03  0.12277108102E+04  0.65864270000E+03 0.  0.
    8880022    1    1    2    0    0  0.44761255839E+03  0.42702582743E+03  0.61824585465E+03  0.88787817268E+03  0.15294330000E+03 0.  0.
<mgrwt>
<rscale>  0 0.82806857E+03</rscale>
<asrwt>0</asrwt>
<pdfrwt beam="1">  1        2 0.17911232E+00 0.90361400E+03</pdfrwt>
<pdfrwt beam="2">  1       -2 0.14636291E+00 0.90361400E+03</pdfrwt>
<totfact> 0.63729330E+00</totfact>
</mgrwt>
</event>
<event>
 4    1  0.6502538E-008  0.1963910E+04  0.7818608E-02  0.8636906E-01
          2   -1    0    0  501    0  0.00000000000E+00  0.00000000000E+00  0.31489117412E+04  0.31489117412E+04  0.25500000000E-02 0. -1.
         -2   -1    0    0    0  501 -0.00000000000E+00 -0.00000000000E+00 -0.17856678596E+04  0.17856678596E+04  0.25500000000E-02 0.  1.
    8880023    1    1    2    0    0  0.16000090638E+04  0.92903374947E+03  0.21555925812E+04  0.29160799533E+04  0.65864270000E+03 0. -1.
    8880022    1    1    2    0    0 -0.16000090638E+04 -0.92903374947E+03 -0.79234869954E+03  0.20184996474E+04  0.15294330000E+03 0.  0.
<mgrwt>
<rscale>  0 0.19364838E+04</rscale>
<asrwt>0</asrwt>
<pdfrwt beam="1">  1        2 0.48444796E+00 0.19639101E+04</pdfrwt>
<pdfrwt beam="2">  1       -2 0.27471813E+00 0.19639101E+04</pdfrwt>
<totfact> 0.56467666E-02</totfact>
</mgrwt>
</event>
<event>
 4    1  0.6502538E-008  0.9117808E+03  0.7818608E-02  0.9507378E-01
          2   -1    0    0  501    0  0.00000000000E+00  0.00000000000E+00  0.16416794016E+04  0.16416794016E+04  0.25500000000E-02 0. -1.
         -2   -1    0    0    0  501 -0.00000000000E+00 -0.00000000000E+00 -0.47474824019E+03  0.47474824019E+03  0.25500000000E-02 0.  1.
    8880023    1    1    2    0    0  0.19566338722E+03 -0.59937456534E+03  0.11497633422E+04  0.14674126823E+04  0.65864270000E+03 0. -1.
    8880022    1    1    2    0    0 -0.19566338722E+03  0.59937456534E+03  0.17167819200E+02  0.64901495954E+03  0.15294330000E+03 0.  1.
<mgrwt>
<rscale>  0 0.83742035E+03</rscale>
<asrwt>0</asrwt>
<pdfrwt beam="1">  1        2 0.25256607E+00 0.91178081E+03</pdfrwt>
<pdfrwt beam="2">  1       -2 0.73038190E-01 0.91178081E+03</pdfrwt>
<totfact> 0.18033462E+01</totfact>
</mgrwt>
</event>
<event>
 4    1  0.6502538E-008  0.7064878E+03  0.7818608E-02  0.9971282E-01
         -2   -1    0    0    0  501 -0.00000000000E+00  0.00000000000E+00  0.86802875502E+03  0.86802875502E+03  0.25500000000E-02 0.  1.
          2   -1    0    0  501    0  0.00000000000E+00 -0.00000000000E+00 -0.43192726228E+03  0.43192726229E+03  0.25500000000E-02 0. -1.
    8880023    1    1    2    0    0  0.25477736856E+03 -0.20081798242E+02 -0.72880009717E+02  0.71023692401E+03  0.65864270000E+03 0.  0.
    8880022    1    1    2    0    0 -0.25477736856E+03  0.20081798242E+02  0.50898150245E+03  0.58971909330E+03  0.15294330000E+03 0.  0.
<mgrwt>
<rscale>  0 0.56927602E+03</rscale>
<asrwt>0</asrwt>
<pdfrwt beam="1">  1        2 0.66450348E-01 0.70648779E+03</pdfrwt>
<pdfrwt beam="2">  1       -2 0.13354289E+00 0.70648779E+03</pdfrwt>
<totfact> 0.30021935E+01</totfact>
</mgrwt>
</event>
<event>
 4    1  0.6502538E-008  0.1331245E+04  0.7818608E-02  0.9039037E-01
         -2   -1    0    0    0  501 -0.00000000000E+00  0.00000000000E+00  0.12283124855E+04  0.12283124855E+04  0.25500000000E-02 0.  1.
          2   -1    0    0  501    0  0.00000000000E+00 -0.00000000000E+00 -0.22828617063E+04  0.22828617063E+04  0.25500000000E-02 0. -1.
    8880023    1    1    2    0    0 -0.32089837582E+03  0.11114978793E+04 -0.17144050696E+04  0.21705755578E+04  0.65864270000E+03 0.  0.
    8880022    1    1    2    0    0  0.32089837582E+03 -0.11114978793E+04  0.65985584880E+03  0.13405986340E+04  0.15294330000E+03 0.  0.
<mgrwt>
<rscale>  0 0.12881234E+04</rscale>
<asrwt>0</asrwt>
<pdfrwt beam="1">  1        2 0.35120949E+00 0.13312451E+04</pdfrwt>
<pdfrwt beam="2">  1       -2 0.18897115E+00 0.13312451E+04</pdfrwt>
<totfact> 0.69936156E-01</totfact>
</mgrwt>
</event>
<event>
 4    1  0.6502538E-008  0.9503388E+03  0.7818608E-02  0.9449627E-01
         -2   -1    0    0    0  501 -0.00000000000E+00  0.00000000000E+00  0.46198388039E+03  0.46198388040E+03  0.25500000000E-02 0.  1.
          2   -1    0    0  501    0  0.00000000000E+00 -0.00000000000E+00 -0.22341756521E+04  0.22341756521E+04  0.25500000000E-02 0. -1.
    8880023    1    1    2    0    0  0.23620235190E+03 -0.64307233147E+03 -0.17529108241E+04  0.19939508865E+04  0.65864270000E+03 0.  0.
    8880022    1    1    2    0    0 -0.23620235190E+03  0.64307233147E+03 -0.19280947671E+02  0.70220864599E+03  0.15294330000E+03 0.  0.
<mgrwt>
<rscale>  0 0.88101730E+03</rscale>
<asrwt>0</asrwt>
<pdfrwt beam="1">  1        2 0.34371933E+00 0.95033877E+03</pdfrwt>
<pdfrwt beam="2">  1       -2 0.71074444E-01 0.95033877E+03</pdfrwt>
<totfact> 0.89916720E+00</totfact>
</mgrwt>
</event>
<event>
 4    1  0.6502538E-008  0.6894581E+03  0.7818608E-02  0.1004411E+00
         -2   -1    0    0    0  501 -0.00000000000E+00  0.00000000000E+00  0.11599067093E+04  0.11599067093E+04  0.25500000000E-02 0.  1.
          2   -1    0    0  501    0  0.00000000000E+00 -0.00000000000E+00 -0.20970231986E+03  0.20970231987E+03  0.25500000000E-02 0. -1.
    8880023    1    1    2    0    0 -0.89412015848E+02  0.18316060283E+03  0.49783962411E+03  0.85040979099E+03  0.65864270000E+03 0. -1.
    8880022    1    1    2    0    0  0.89412015848E+02 -0.18316060283E+03  0.45236476529E+03  0.51919923816E+03  0.15294330000E+03 0.  1.
<mgrwt>
<rscale>  0 0.53757606E+03</rscale>
<asrwt>0</asrwt>
<pdfrwt beam="1">  1        2 0.32261895E-01 0.68945814E+03</pdfrwt>
<pdfrwt beam="2">  1       -2 0.17844719E+00 0.68945814E+03</pdfrwt>
<totfact> 0.31017535E+01</totfact>
</mgrwt>
</event>
<event>
 4    1  0.6502538E-008  0.8092792E+03  0.7818608E-02  0.9691080E-01
         -2   -1    0    0    0  501 -0.00000000000E+00  0.00000000000E+00  0.70971898730E+03  0.70971898730E+03  0.25500000000E-02 0.  1.
          2   -1    0    0  501    0  0.00000000000E+00 -0.00000000000E+00 -0.16548161690E+04  0.16548161690E+04  0.25500000000E-02 0. -1.
    8880023    1    1    2    0    0  0.40307929495E+03 -0.24217702480E+03 -0.14482807576E+04  0.16590509300E+04  0.65864270000E+03 0.  0.
    8880022    1    1    2    0    0 -0.40307929495E+03  0.24217702480E+03  0.50318357593E+03  0.70548422623E+03  0.15294330000E+03 0.  1.
<mgrwt>
<rscale>  0 0.71550359E+03</rscale>
<asrwt>0</asrwt>
<pdfrwt beam="1">  1        2 0.25458710E+00 0.80927921E+03</pdfrwt>
<pdfrwt beam="2">  1       -2 0.10918754E+00 0.80927921E+03</pdfrwt>
<totfact> 0.70866832E+00</totfact>
</mgrwt>
</event>
<event>
 4    1  0.6502538E-008  0.6839252E+03  0.7818608E-02  0.1007185E+00
         -2   -1    0    0    0  501 -0.00000000000E+00  0.00000000000E+00  0.15799684128E+04  0.15799684128E+04  0.25500000000E-02 0.  1.
          2   -1    0    0  501    0  0.00000000000E+00 -0.00000000000E+00 -0.31130945871E+04  0.31130945871E+04  0.25500000000E-02 0. -1.
    8880023    1    1    2    0    0  0.14362719585E+03 -0.11538935576E+03 -0.30661248934E+04  0.31414766501E+04  0.65864270000E+03 0. -1.
    8880022    1    1    2    0    0 -0.14362719585E+03  0.11538935576E+03  0.15329987192E+04  0.15515863498E+04  0.15294330000E+03 0.  0.
<mgrwt>
<rscale>  0 0.52608880E+03</rscale>
<asrwt>0</asrwt>
<pdfrwt beam="1">  1        2 0.47893763E+00 0.68392520E+03</pdfrwt>
<pdfrwt beam="2">  1       -2 0.24307206E+00 0.68392520E+03</pdfrwt>
<totfact> 0.11627623E-01</totfact>
</mgrwt>
</event>
<event>
 4    1  0.6502538E-008  0.1219945E+04  0.7818608E-02  0.9137974E-01
          2   -1    0    0  501    0  0.00000000000E+00  0.00000000000E+00  0.11349841542E+04  0.11349841542E+04  0.25500000000E-02 0. -1.
         -2   -1    0    0    0  501 -0.00000000000E+00 -0.00000000000E+00 -0.15175390395E+04  0.15175390395E+04  0.25500000000E-02 0.  1.
    8880023    1    1    2    0    0  0.82835187350E+01 -0.10268334746E+04  0.47179108833E+03  0.13079956569E+04  0.65864270000E+03 0.  0.
    8880022    1    1    2    0    0 -0.82835187350E+01  0.10268334746E+04 -0.85434597367E+03  0.13445275367E+04  0.15294330000E+03 0.  0.
<mgrwt>
<rscale>  0 0.11717227E+04</rscale>
<asrwt>0</asrwt>
<pdfrwt beam="1">  1        2 0.17461295E+00 0.12199450E+04</pdfrwt>
<pdfrwt beam="2">  1       -2 0.23346755E+00 0.12199450E+04</pdfrwt>
<totfact> 0.16362232E+00</totfact>
</mgrwt>
</event>
<event>
 4    1  0.6502538E-008  0.9466688E+03  0.7818608E-02  0.9454923E-01
          2   -1    0    0  501    0  0.00000000000E+00  0.00000000000E+00  0.26168868369E+04  0.26168868369E+04  0.25500000000E-02 0. -1.
         -2   -1    0    0    0  501 -0.00000000000E+00 -0.00000000000E+00 -0.77677918281E+03  0.77677918282E+03  0.25500000000E-02 0.  1.
    8880023    1    1    2    0    0  0.90320761457E+02 -0.67395387811E+03  0.23477483568E+04  0.25314233591E+04  0.65864270000E+03 0.  0.
    8880022    1    1    2    0    0 -0.90320761457E+02  0.67395387811E+03 -0.50764070271E+03  0.86224266064E+03  0.15294330000E+03 0.  0.
<mgrwt>
<rscale>  0 0.87690319E+03</rscale>
<asrwt>0</asrwt>
<pdfrwt beam="1">  1        2 0.40259798E+00 0.94666883E+03</pdfrwt>
<pdfrwt beam="2">  1       -2 0.11950449E+00 0.94666883E+03</pdfrwt>
<totfact> 0.16242761E+00</totfact>
</mgrwt>
</event>
<event>
 4    1  0.6502538E-008  0.7006230E+03  0.7818608E-02  0.9994627E-01
         -2   -1    0    0    0  501 -0.00000000000E+00  0.00000000000E+00  0.44543779447E+03  0.44543779447E+03  0.25500000000E-02 0.  1.
          2   -1    0    0  501    0  0.00000000000E+00 -0.00000000000E+00 -0.10511678525E+04  0.10511678525E+04  0.25500000000E-02 0. -1.
    8880023    1    1    2    0    0 -0.18641556349E+03 -0.14937051888E+03 -0.86443027946E+03  0.11127049153E+04  0.65864270000E+03 0. -1.
    8880022    1    1    2    0    0  0.18641556349E+03  0.14937051888E+03  0.25870022141E+03  0.38390073169E+03  0.15294330000E+03 0. -1.
<mgrwt>
<rscale>  0 0.55886473E+03</rscale>
<asrwt>0</asrwt>
<pdfrwt beam="1">  1        2 0.16171813E+00 0.70062295E+03</pdfrwt>
<pdfrwt beam="2">  1       -2 0.68528892E-01 0.70062295E+03</pdfrwt>
<totfact> 0.46449645E+01</totfact>
</mgrwt>
</event>
<event>
 4    1  0.6502538E-008  0.7768402E+03  0.7818608E-02  0.9763312E-01
         -2   -1    0    0    0  501 -0.00000000000E+00  0.00000000000E+00  0.78282753378E+03  0.78282753379E+03  0.25500000000E-02 0.  1.
          2   -1    0    0  501    0  0.00000000000E+00 -0.00000000000E+00 -0.28956741391E+04  0.28956741391E+04  0.25500000000E-02 0. -1.
    8880023    1    1    2    0    0  0.74662173050E+02 -0.40508779543E+03 -0.27761920786E+04  0.28828325004E+04  0.65864270000E+03 0. -1.
    8880022    1    1    2    0    0 -0.74662173050E+02  0.40508779543E+03  0.66334547326E+03  0.79566917246E+03  0.15294330000E+03 0.  0.
<mgrwt>
<rscale>  0 0.67369131E+03</rscale>
<asrwt>0</asrwt>
<pdfrwt beam="1">  1        2 0.44548833E+00 0.77684025E+03</pdfrwt>
<pdfrwt beam="2">  1       -2 0.12043501E+00 0.77684025E+03</pdfrwt>
<totfact> 0.11257576E+00</totfact>
</mgrwt>
</event>
<event>
 4    1  0.6502538E-008  0.9295676E+03  0.7818608E-02  0.9480142E-01
          2   -1    0    0  501    0  0.00000000000E+00  0.00000000000E+00  0.88081223731E+03  0.88081223731E+03  0.25500000000E-02 0. -1.
         -2   -1    0    0    0  501 -0.00000000000E+00 -0.00000000000E+00 -0.10136472879E+04  0.10136472879E+04  0.25500000000E-02 0.  1.
    8880023    1    1    2    0    0  0.41725783760E+03  0.50614394145E+03  0.42289210748E+03  0.10212412709E+04  0.65864270000E+03 0.  1.
    8880022    1    1    2    0    0 -0.41725783760E+03 -0.50614394145E+03 -0.55572715811E+03  0.87321825438E+03  0.15294330000E+03 0.  0.
<mgrwt>
<rscale>  0 0.85763826E+03</rscale>
<asrwt>0</asrwt>
<pdfrwt beam="1">  1        2 0.13550958E+00 0.92956764E+03</pdfrwt>
<pdfrwt beam="2">  1       -2 0.15594574E+00 0.92956764E+03</pdfrwt>
<totfact> 0.81443838E+00</totfact>
</mgrwt>
</event>
<event>
 4    1  0.9286815E-008  0.8202647E+03  0.7818608E-02  0.9668580E-01
         -2   -1    0    0    0  501 -0.00000000000E+00  0.00000000000E+00  0.17469994143E+04  0.17469994143E+04  0.25500000000E-02 0.  1.
          2   -1    0    0  501    0  0.00000000000E+00 -0.00000000000E+00 -0.16344721993E+04  0.16344721993E+04  0.25500000000E-02 0. -1.
    8880023    1    1    2    0    0 -0.48461181045E+03  0.64616471608E+02 -0.14890140240E+04  0.16999990779E+04  0.65864270000E+03 0.  0.
    8880022    1    1    2    0    0  0.48461181045E+03 -0.64616471608E+02  0.16015412389E+04  0.16814725356E+04  0.15294330000E+03 0.  0.
<mgrwt>
<rscale>  0 0.72918746E+03</rscale>
<asrwt>0</asrwt>
<pdfrwt beam="1">  1        2 0.25145726E+00 0.82026465E+03</pdfrwt>
<pdfrwt beam="2">  1       -2 0.26876914E+00 0.82026465E+03</pdfrwt>
<totfact> 0.54415605E-01</totfact>
</mgrwt>
</event>
<event>
 4    1  0.6502538E-008  0.9304189E+03  0.7818608E-02  0.9478865E-01
          2   -1    0    0  501    0  0.00000000000E+00  0.00000000000E+00  0.29335742594E+04  0.29335742594E+04  0.25500000000E-02 0. -1.
         -2   -1    0    0    0  501 -0.00000000000E+00 -0.00000000000E+00 -0.30464221484E+03  0.30464221485E+03  0.25500000000E-02 0.  1.
    8880023    1    1    2    0    0  0.24702894761E+03 -0.60897116381E+03  0.61763385208E+03  0.11167591328E+04  0.65864270000E+03 0.  0.
    8880022    1    1    2    0    0 -0.24702894761E+03  0.60897116381E+03  0.20112981925E+04  0.21214573414E+04  0.15294330000E+03 0.  0.
<mgrwt>
<rscale>  0 0.85860110E+03</rscale>
<asrwt>0</asrwt>
<pdfrwt beam="1">  1        2 0.45131912E+00 0.93041893E+03</pdfrwt>
<pdfrwt beam="2">  1       -2 0.46868032E-01 0.93041893E+03</pdfrwt>
<totfact> 0.85256564E+00</totfact>
</mgrwt>
</event>
<event>
 4    1  0.6502538E-008  0.1248368E+04  0.7818608E-02  0.9111482E-01
          2   -1    0    0  501    0  0.00000000000E+00  0.00000000000E+00  0.29478732503E+04  0.29478732503E+04  0.25500000000E-02 0. -1.
         -2   -1    0    0    0  501 -0.00000000000E+00 -0.00000000000E+00 -0.86553460538E+03  0.86553460538E+03  0.25500000000E-02 0.  1.
    8880023    1    1    2    0    0  0.29494293823E+03 -0.10186365592E+04  0.23919524428E+04  0.26981212856E+04  0.65864270000E+03 0.  0.
    8880022    1    1    2    0    0 -0.29494293823E+03  0.10186365592E+04 -0.30961379793E+03  0.11152865701E+04  0.15294330000E+03 0.  0.
<mgrwt>
<rscale>  0 0.12015720E+04</rscale>
<asrwt>0</asrwt>
<pdfrwt beam="1">  1        2 0.45351896E+00 0.12483677E+04</pdfrwt>
<pdfrwt beam="2">  1       -2 0.13315917E+00 0.12483677E+04</pdfrwt>
<totfact> 0.75072279E-01</totfact>
</mgrwt>
</event>
<event>
 4    1  0.6502538E-008  0.1080395E+04  0.7818608E-02  0.9283204E-01
          2   -1    0    0  501    0  0.00000000000E+00  0.00000000000E+00  0.30663119675E+04  0.30663119675E+04  0.25500000000E-02 0. -1.
         -2   -1    0    0    0  501 -0.00000000000E+00 -0.00000000000E+00 -0.31843707063E+03  0.31843707064E+03  0.25500000000E-02 0.  1.
    8880023    1    1    2    0    0 -0.53817244838E+03  0.66619378599E+03  0.12466244798E+04  0.16496443692E+04  0.65864270000E+03 0.  0.
    8880022    1    1    2    0    0  0.53817244838E+03 -0.66619378599E+03  0.15012504170E+04  0.17351046690E+04  0.15294330000E+03 0.  0.
<mgrwt>
<rscale>  0 0.10234395E+04</rscale>
<asrwt>0</asrwt>
<pdfrwt beam="1">  1        2 0.47174029E+00 0.10803953E+04</pdfrwt>
<pdfrwt beam="2">  1       -2 0.48990320E-01 0.10803953E+04</pdfrwt>
<totfact> 0.63238013E+00</totfact>
</mgrwt>
</event>
<event>
 4    1  0.6502538E-008  0.7363733E+03  0.7818608E-02  0.9870640E-01
         -2   -1    0    0    0  501 -0.00000000000E+00  0.00000000000E+00  0.20594435982E+03  0.20594435984E+03  0.25500000000E-02 0.  1.
          2   -1    0    0  501    0  0.00000000000E+00 -0.00000000000E+00 -0.21132295371E+04  0.21132295371E+04  0.25500000000E-02 0. -1.
    8880023    1    1    2    0    0 -0.29377432781E+03 -0.14876848113E+03 -0.17933350577E+04  0.19386325727E+04  0.65864270000E+03 0.  0.
    8880022    1    1    2    0    0  0.29377432781E+03  0.14876848113E+03 -0.11395011959E+03  0.38054132421E+03  0.15294330000E+03 0.  0.
<mgrwt>
<rscale>  0 0.61705531E+03</rscale>
<asrwt>0</asrwt>
<pdfrwt beam="1">  1        2 0.32511222E+00 0.73637329E+03</pdfrwt>
<pdfrwt beam="2">  1       -2 0.31683749E-01 0.73637329E+03</pdfrwt>
<totfact> 0.55233277E+01</totfact>
</mgrwt>
</event>
<event>
 4    1  0.6502538E-008  0.9038413E+03  0.7818608E-02  0.9519893E-01
          2   -1    0    0  501    0  0.00000000000E+00  0.00000000000E+00  0.18731014125E+04  0.18731014125E+04  0.25500000000E-02 0. -1.
         -2   -1    0    0    0  501 -0.00000000000E+00 -0.00000000000E+00 -0.35646530018E+03  0.35646530019E+03  0.25500000000E-02 0.  1.
    8880023    1    1    2    0    0 -0.38756363996E+03 -0.48261091750E+03  0.12402677042E+04  0.15346638254E+04  0.65864270000E+03 0.  1.
    8880022    1    1    2    0    0  0.38756363996E+03  0.48261091750E+03  0.27636840812E+03  0.69490288727E+03  0.15294330000E+03 0.  0.
<mgrwt>
<rscale>  0 0.82832946E+03</rscale>
<asrwt>0</asrwt>
<pdfrwt beam="1">  1        2 0.28816945E+00 0.90384129E+03</pdfrwt>
<pdfrwt beam="2">  1       -2 0.54840815E-01 0.90384129E+03</pdfrwt>
<totfact> 0.24879588E+01</totfact>
</mgrwt>
</event>
<event>
 4    1  0.6502538E-008  0.7199891E+03  0.7818608E-02  0.9922623E-01
         -2   -1    0    0    0  501 -0.00000000000E+00  0.00000000000E+00  0.10304916112E+03  0.10304916115E+03  0.25500000000E-02 0.  1.
          2   -1    0    0  501    0  0.00000000000E+00 -0.00000000000E+00 -0.37464825805E+04  0.37464825805E+04  0.25500000000E-02 0. -1.
    8880023    1    1    2    0    0  0.60380855345E+02 -0.28447882681E+03 -0.32862664395E+04  0.33642133357E+04  0.65864270000E+03 0. -1.
    8880022    1    1    2    0    0 -0.60380855345E+02  0.28447882681E+03 -0.35716697989E+03  0.48531840593E+03  0.15294330000E+03 0.  0.
<mgrwt>
<rscale>  0 0.59177301E+03</rscale>
<asrwt>0</asrwt>
<pdfrwt beam="1">  1        2 0.57638183E+00 0.71998907E+03</pdfrwt>
<pdfrwt beam="2">  1       -2 0.15853720E-01 0.71998907E+03</pdfrwt>
<totfact> 0.18802356E+01</totfact>
</mgrwt>
</event>
<event>
 4    1  0.6502538E-008  0.8402226E+03  0.7818608E-02  0.9629761E-01
         -2   -1    0    0    0  501 -0.00000000000E+00  0.00000000000E+00  0.28261461374E+03  0.28261461375E+03  0.25500000000E-02 0.  1.
          2   -1    0    0  501    0  0.00000000000E+00 -0.00000000000E+00 -0.32497591361E+04  0.32497591361E+04  0.25500000000E-02 0. -1.
    8880023    1    1    2    0    0  0.13664107790E+03 -0.50348091975E+03 -0.28565901267E+04  0.29775965440E+04  0.65864270000E+03 0. -1.
    8880022    1    1    2    0    0 -0.13664107790E+03  0.50348091975E+03 -0.11055439568E+03  0.55477720586E+03  0.15294330000E+03 0.  0.
<mgrwt>
<rscale>  0 0.75357355E+03</rscale>
<asrwt>0</asrwt>
<pdfrwt beam="1">  1        2 0.49996292E+00 0.84022261E+03</pdfrwt>
<pdfrwt beam="2">  1       -2 0.43479174E-01 0.84022261E+03</pdfrwt>
<totfact> 0.63704208E+00</totfact>
</mgrwt>
</event>
<event>
 4    1  0.6502538E-008  0.8023334E+03  0.7818608E-02  0.9705773E-01
         -2   -1    0    0    0  501 -0.00000000000E+00  0.00000000000E+00  0.13889409440E+04  0.13889409440E+04  0.25500000000E-02 0.  1.
          2   -1    0    0  501    0  0.00000000000E+00 -0.00000000000E+00 -0.66467918877E+03  0.66467918878E+03  0.25500000000E-02 0. -1.
    8880023    1    1    2    0    0 -0.35930256619E+03 -0.28430684327E+03 -0.35031056436E+03  0.87547496421E+03  0.65864270000E+03 0. -1.
    8880022    1    1    2    0    0  0.35930256619E+03  0.28430684327E+03  0.10745723196E+04  0.11781451686E+04  0.15294330000E+03 0.  0.
<mgrwt>
<rscale>  0 0.70674093E+03</rscale>
<asrwt>0</asrwt>
<pdfrwt beam="1">  1        2 0.10225834E+00 0.80233342E+03</pdfrwt>
<pdfrwt beam="2">  1       -2 0.21368322E+00 0.80233342E+03</pdfrwt>
<totfact> 0.48191065E+00</totfact>
</mgrwt>
</event>
<event>
 4    1  0.6502538E-008  0.1634814E+04  0.7818608E-02  0.8819874E-01
         -2   -1    0    0    0  501 -0.00000000000E+00  0.00000000000E+00  0.14020509953E+04  0.14020509953E+04  0.25500000000E-02 0.  1.
          2   -1    0    0  501    0  0.00000000000E+00 -0.00000000000E+00 -0.22278920446E+04  0.22278920446E+04  0.25500000000E-02 0. -1.
    8880023    1    1    2    0    0  0.14087578521E+04  0.50419164677E+03 -0.12605003798E+04  0.20643350785E+04  0.65864270000E+03 0.  0.
    8880022    1    1    2    0    0 -0.14087578521E+04 -0.50419164677E+03  0.43465933050E+03  0.15656079615E+04  0.15294330000E+03 0.  0.
<mgrwt>
<rscale>  0 0.16010972E+04</rscale>
<asrwt>0</asrwt>
<pdfrwt beam="1">  1        2 0.34275262E+00 0.16348144E+04</pdfrwt>
<pdfrwt beam="2">  1       -2 0.21570015E+00 0.16348144E+04</pdfrwt>
<totfact> 0.48507899E-01</totfact>
</mgrwt>
</event>
<event>
 4    1  0.6502538E-008  0.1048182E+04  0.7818608E-02  0.9321071E-01
          2   -1    0    0  501    0  0.00000000000E+00  0.00000000000E+00  0.33409569507E+04  0.33409569507E+04  0.25500000000E-02 0. -1.
         -2   -1    0    0    0  501 -0.00000000000E+00 -0.00000000000E+00 -0.45390354115E+03  0.45390354116E+03  0.25500000000E-02 0.  1.
    8880023    1    1    2    0    0 -0.81019675496E+03  0.91954644994E+02  0.31827636425E+03  0.10954380351E+04  0.65864270000E+03 0.  1.
    8880022    1    1    2    0    0  0.81019675496E+03 -0.91954644994E+02  0.25687770453E+04  0.26994224567E+04  0.15294330000E+03 0.  0.
<mgrwt>
<rscale>  0 0.98865995E+03</rscale>
<asrwt>0</asrwt>
<pdfrwt beam="1">  1        2 0.51399338E+00 0.10481816E+04</pdfrwt>
<pdfrwt beam="2">  1       -2 0.69831314E-01 0.10481816E+04</pdfrwt>
<totfact> 0.19995566E+00</totfact>
</mgrwt>
</event>
<event>
 4    1  0.6502538E-008  0.1207353E+04  0.7818608E-02  0.9150008E-01
          2   -1    0    0  501    0  0.00000000000E+00  0.00000000000E+00  0.17576079639E+04  0.17576079639E+04  0.25500000000E-02 0. -1.
         -2   -1    0    0    0  501 -0.00000000000E+00 -0.00000000000E+00 -0.10867486677E+04  0.10867486677E+04  0.25500000000E-02 0.  1.
    8880023    1    1    2    0    0 -0.99356457330E+03  0.19162613173E+03  0.11913964500E+04  0.16962095517E+04  0.65864270000E+03 0.  0.
    8880022    1    1    2    0    0  0.99356457330E+03 -0.19162613173E+03 -0.52053715380E+03  0.11481470799E+04  0.15294330000E+03 0.  0.
<mgrwt>
<rscale>  0 0.11584671E+04</rscale>
<asrwt>0</asrwt>
<pdfrwt beam="1">  1        2 0.27040122E+00 0.12073530E+04</pdfrwt>
<pdfrwt beam="2">  1       -2 0.16719210E+00 0.12073530E+04</pdfrwt>
<totfact> 0.19733257E+00</totfact>
</mgrwt>
</event>
<event>
 4    1  0.6502538E-008  0.1769521E+04  0.7818608E-02  0.8739586E-01
         -2   -1    0    0    0  501 -0.00000000000E+00  0.00000000000E+00  0.13570615291E+04  0.13570615291E+04  0.25500000000E-02 0.  1.
          2   -1    0    0  501    0  0.00000000000E+00 -0.00000000000E+00 -0.22369687886E+04  0.22369687886E+04  0.25500000000E-02 0. -1.
    8880023    1    1    2    0    0  0.61906144917E+03 -0.15212355624E+04 -0.80180046976E+03  0.19427014474E+04  0.65864270000E+03 0.  0.
    8880022    1    1    2    0    0 -0.61906144917E+03  0.15212355624E+04 -0.78106789762E+02  0.16513288703E+04  0.15294330000E+03 0.  0.
<mgrwt>
<rscale>  0 0.17387159E+04</rscale>
<asrwt>0</asrwt>
<pdfrwt beam="1">  1        2 0.34414905E+00 0.17695211E+04</pdfrwt>
<pdfrwt beam="2">  1       -2 0.20877870E+00 0.17695211E+04</pdfrwt>
<totfact> 0.52466066E-01</totfact>
</mgrwt>
</event>
<event>
 4    1  0.6502538E-008  0.8439324E+03  0.7818608E-02  0.9622810E-01
          2   -1    0    0  501    0  0.00000000000E+00  0.00000000000E+00  0.59295872306E+03  0.59295872306E+03  0.25500000000E-02 0. -1.
         -2   -1    0    0    0  501 -0.00000000000E+00 -0.00000000000E+00 -0.86178671333E+03  0.86178671333E+03  0.25500000000E-02 0.  1.
    8880023    1    1    2    0    0  0.44865319278E+03  0.27770838260E+03 -0.18319395967E+01  0.84393435493E+03  0.65864270000E+03 0. -1.
    8880022    1    1    2    0    0 -0.44865319278E+03 -0.27770838260E+03 -0.26699605068E+03  0.61081108147E+03  0.15294330000E+03 0.  0.
<mgrwt>
<rscale>  0 0.75804717E+03</rscale>
<asrwt>0</asrwt>
<pdfrwt beam="1">  1        2 0.91224419E-01 0.84393237E+03</pdfrwt>
<pdfrwt beam="2">  1       -2 0.13258257E+00 0.84393237E+03</pdfrwt>
<totfact> 0.20897446E+01</totfact>
</mgrwt>
</event>
<event>
 4    1  0.6502538E-008  0.6912342E+03  0.7818608E-02  0.1003571E+00
          2   -1    0    0  501    0  0.00000000000E+00  0.00000000000E+00  0.36960121614E+03  0.36960121615E+03  0.25500000000E-02 0. -1.
         -2   -1    0    0    0  501 -0.00000000000E+00 -0.00000000000E+00 -0.69698520317E+03  0.69698520318E+03  0.25500000000E-02 0.  1.
    8880023    1    1    2    0    0 -0.18333902432E+03  0.10188891949E+03 -0.59863061440E+02  0.69382154920E+03  0.65864270000E+03 0.  0.
    8880022    1    1    2    0    0  0.18333902432E+03 -0.10188891949E+03 -0.26752092559E+03  0.37276487012E+03  0.15294330000E+03 0.  0.
<mgrwt>
<rscale>  0 0.54111590E+03</rscale>
<asrwt>0</asrwt>
<pdfrwt beam="1">  1        2 0.56861726E-01 0.69123423E+03</pdfrwt>
<pdfrwt beam="2">  1       -2 0.10722849E+00 0.69123423E+03</pdfrwt>
<totfact> 0.61615780E+01</totfact>
</mgrwt>
</event>
<event>
 4    1  0.6502538E-008  0.1093008E+04  0.7818608E-02  0.9268881E-01
         -2   -1    0    0    0  501 -0.00000000000E+00  0.00000000000E+00  0.19226395375E+04  0.19226395375E+04  0.25500000000E-02 0.  1.
          2   -1    0    0  501    0  0.00000000000E+00 -0.00000000000E+00 -0.11670625328E+04  0.11670625328E+04  0.25500000000E-02 0. -1.
    8880023    1    1    2    0    0 -0.17501804097E+03 -0.85453195083E+03 -0.76215768633E+03  0.13324979230E+04  0.65864270000E+03 0. -1.
    8880022    1    1    2    0    0  0.17501804097E+03  0.85453195083E+03  0.15177346911E+04  0.17572041472E+04  0.15294330000E+03 0.  0.
<mgrwt>
<rscale>  0 0.10369890E+04</rscale>
<asrwt>0</asrwt>
<pdfrwt beam="1">  1        2 0.17954808E+00 0.10930079E+04</pdfrwt>
<pdfrwt beam="2">  1       -2 0.29579070E+00 0.10930079E+04</pdfrwt>
<totfact> 0.66194991E-01</totfact>
</mgrwt>
</event>
<event>
 4    1  0.6502538E-008  0.1065177E+04  0.7818608E-02  0.9300855E-01
          2   -1    0    0  501    0  0.00000000000E+00  0.00000000000E+00  0.69397042614E+03  0.69397042615E+03  0.25500000000E-02 0. -1.
         -2   -1    0    0    0  501 -0.00000000000E+00 -0.00000000000E+00 -0.21961015828E+04  0.21961015828E+04  0.25500000000E-02 0.  1.
    8880023    1    1    2    0    0 -0.79191459506E+03  0.27140939295E+03 -0.17094845324E+04  0.20141845390E+04  0.65864270000E+03 0.  0.
    8880022    1    1    2    0    0  0.79191459506E+03 -0.27140939295E+03  0.20735337578E+03  0.87588746989E+03  0.15294330000E+03 0.  0.
<mgrwt>
<rscale>  0 0.10070416E+04</rscale>
<asrwt>0</asrwt>
<pdfrwt beam="1">  1        2 0.10676468E+00 0.10651770E+04</pdfrwt>
<pdfrwt beam="2">  1       -2 0.33786178E+00 0.10651770E+04</pdfrwt>
<totfact> 0.76979985E-01</totfact>
</mgrwt>
</event>
<event>
 4    1  0.6502538E-008  0.7025030E+03  0.7818608E-02  0.9986972E-01
          2   -1    0    0  501    0  0.00000000000E+00  0.00000000000E+00  0.19056522699E+04  0.19056522699E+04  0.25500000000E-02 0. -1.
         -2   -1    0    0    0  501 -0.00000000000E+00 -0.00000000000E+00 -0.26106924601E+03  0.26106924602E+03  0.25500000000E-02 0.  1.
    8880023    1    1    2    0    0  0.20838833880E+03  0.12757166952E+03  0.17290757765E+04  0.18663369143E+04  0.65864270000E+03 0.  0.
    8880022    1    1    2    0    0 -0.20838833880E+03 -0.12757166952E+03 -0.84492752619E+02  0.30038460159E+03  0.15294330000E+03 0.  0.
<mgrwt>
<rscale>  0 0.56225193E+03</rscale>
<asrwt>0</asrwt>
<pdfrwt beam="1">  1        2 0.29317727E+00 0.70250298E+03</pdfrwt>
<pdfrwt beam="2">  1       -2 0.40164500E-01 0.70250298E+03</pdfrwt>
<totfact> 0.45765227E+01</totfact>
</mgrwt>
</event>
<event>
 4    1  0.6502538E-008  0.9726363E+03  0.7818608E-02  0.9418267E-01
          2   -1    0    0  501    0  0.00000000000E+00  0.00000000000E+00  0.45612321307E+04  0.45612321307E+04  0.25500000000E-02 0. -1.
         -2   -1    0    0    0  501 -0.00000000000E+00 -0.00000000000E+00 -0.30971291756E+03  0.30971291757E+03  0.25500000000E-02 0.  1.
    8880023    1    1    2    0    0 -0.66591891507E+03  0.26222731633E+03  0.39690313582E+04  0.40864692946E+04  0.65864270000E+03 0. -1.
    8880022    1    1    2    0    0  0.66591891507E+03 -0.26222731633E+03  0.28248785488E+03  0.78447575364E+03  0.15294330000E+03 0.  0.
<mgrwt>
<rscale>  0 0.90587487E+03</rscale>
<asrwt>0</asrwt>
<pdfrwt beam="1">  1        2 0.70172803E+00 0.97263630E+03</pdfrwt>
<pdfrwt beam="2">  1       -2 0.47648141E-01 0.97263630E+03</pdfrwt>
<totfact> 0.48490058E-01</totfact>
</mgrwt>
</event>
<event>
 4    1  0.6502538E-008  0.1559780E+04  0.7818608E-02  0.8868537E-01
         -2   -1    0    0    0  501 -0.00000000000E+00  0.00000000000E+00  0.32557711410E+04  0.32557711410E+04  0.25500000000E-02 0.  1.
          2   -1    0    0  501    0  0.00000000000E+00 -0.00000000000E+00 -0.14556171272E+04  0.14556171272E+04  0.25500000000E-02 0. -1.
    8880023    1    1    2    0    0  0.14107869777E+04  0.93727664663E+02  0.26351903083E+04  0.30622120989E+04  0.65864270000E+03 0.  0.
    8880022    1    1    2    0    0 -0.14107869777E+04 -0.93727664663E+02 -0.83503629440E+03  0.16491761693E+04  0.15294330000E+03 0.  0.
<mgrwt>
<rscale>  0 0.15241706E+04</rscale>
<asrwt>0</asrwt>
<pdfrwt beam="1">  1        2 0.22394110E+00 0.15597804E+04</pdfrwt>
<pdfrwt beam="2">  1       -2 0.50088787E+00 0.15597804E+04</pdfrwt>
<totfact> 0.20307472E-02</totfact>
</mgrwt>
</event>
<event>
 4    1  0.6502538E-008  0.1377203E+04  0.7818608E-02  0.9001602E-01
          2   -1    0    0  501    0  0.00000000000E+00  0.00000000000E+00  0.39226294091E+04  0.39226294091E+04  0.25500000000E-02 0. -1.
         -2   -1    0    0    0  501 -0.00000000000E+00 -0.00000000000E+00 -0.75104895012E+03  0.75104895012E+03  0.25500000000E-02 0.  1.
    8880023    1    1    2    0    0  0.80388503465E+03 -0.90368518984E+03  0.11388345610E+03  0.13819036577E+04  0.65864270000E+03 0.  0.
    8880022    1    1    2    0    0 -0.80388503465E+03  0.90368518984E+03  0.30576970029E+04  0.32917747015E+04  0.15294330000E+03 0.  0.
<mgrwt>
<rscale>  0 0.13358592E+04</rscale>
<asrwt>0</asrwt>
<pdfrwt beam="1">  1        2 0.60348144E+00 0.13772031E+04</pdfrwt>
<pdfrwt beam="2">  1       -2 0.11554599E+00 0.13772031E+04</pdfrwt>
<totfact> 0.22582070E-01</totfact>
</mgrwt>
</event>
<event>
 4    1  0.6502538E-008  0.6773523E+03  0.7818608E-02  0.1010863E+00
          2   -1    0    0  501    0  0.00000000000E+00  0.00000000000E+00  0.60552421751E+03  0.60552421751E+03  0.25500000000E-02 0. -1.
         -2   -1    0    0    0  501 -0.00000000000E+00 -0.00000000000E+00 -0.60760170019E+03  0.60760170020E+03  0.25500000000E-02 0.  1.
    8880023    1    1    2    0    0 -0.15768528049E+03  0.11456946393E+02  0.37673962222E+03  0.77507345363E+03  0.65864270000E+03 0. -1.
    8880022    1    1    2    0    0  0.15768528049E+03 -0.11456946393E+02 -0.37881710491E+03  0.43805246408E+03  0.15294330000E+03 0.  0.
<mgrwt>
<rscale>  0 0.51133164E+03</rscale>
<asrwt>0</asrwt>
<pdfrwt beam="1">  1        2 0.93157571E-01 0.67735228E+03</pdfrwt>
<pdfrwt beam="2">  1       -2 0.93477185E-01 0.67735228E+03</pdfrwt>
<totfact> 0.48321611E+01</totfact>
</mgrwt>
</event>
<event>
 4    1  0.6502538E-008  0.1583066E+04  0.7818608E-02  0.8853103E-01
          2   -1    0    0  501    0  0.00000000000E+00  0.00000000000E+00  0.19262018767E+04  0.19262018768E+04  0.25500000000E-02 0. -1.
         -2   -1    0    0    0  501 -0.00000000000E+00 -0.00000000000E+00 -0.13495527341E+04  0.13495527341E+04  0.25500000000E-02 0.  1.
    8880023    1    1    2    0    0  0.80765306778E+03 -0.11916315913E+04 -0.25917775776E+03  0.16041423389E+04  0.65864270000E+03 0.  0.
    8880022    1    1    2    0    0 -0.80765306778E+03  0.11916315913E+04  0.83582690040E+03  0.16716122719E+04  0.15294330000E+03 0.  0.
<mgrwt>
<rscale>  0 0.15480679E+04</rscale>
<asrwt>0</asrwt>
<pdfrwt beam="1">  1        2 0.29633875E+00 0.15830665E+04</pdfrwt>
<pdfrwt beam="2">  1       -2 0.20762350E+00 0.15830665E+04</pdfrwt>
<totfact> 0.81157046E-01</totfact>
</mgrwt>
</event>
<event>
 4    1  0.6502538E-008  0.7099625E+03  0.7818608E-02  0.9958140E-01
         -2   -1    0    0    0  501 -0.00000000000E+00  0.00000000000E+00  0.41214950454E+03  0.41214950455E+03  0.25500000000E-02 0.  1.
          2   -1    0    0  501    0  0.00000000000E+00 -0.00000000000E+00 -0.14467662204E+04  0.14467662204E+04  0.25500000000E-02 0. -1.
    8880023    1    1    2    0    0 -0.26502166033E+03  0.20271605232E+00 -0.12819842429E+04  0.14654454363E+04  0.65864270000E+03 0.  0.
    8880022    1    1    2    0    0  0.26502166033E+03 -0.20271605232E+00  0.24736752708E+03  0.39347028859E+03  0.15294330000E+03 0.  0.
<mgrwt>
<rscale>  0 0.57524436E+03</rscale>
<asrwt>0</asrwt>
<pdfrwt beam="1">  1        2 0.22257942E+00 0.70996248E+03</pdfrwt>
<pdfrwt beam="2">  1       -2 0.63407617E-01 0.70996248E+03</pdfrwt>
<totfact> 0.32176429E+01</totfact>
</mgrwt>
</event>
<event>
 4    1  0.6502538E-008  0.1877398E+04  0.7818608E-02  0.8680889E-01
         -2   -1    0    0    0  501 -0.00000000000E+00  0.00000000000E+00  0.30333558180E+04  0.30333558180E+04  0.25500000000E-02 0.  1.
          2   -1    0    0  501    0  0.00000000000E+00 -0.00000000000E+00 -0.13500898351E+04  0.13500898351E+04  0.25500000000E-02 0. -1.
    8880023    1    1    2    0    0 -0.14478727392E+04 -0.99723427791E+03 -0.92847296433E+02  0.18796921292E+04  0.65864270000E+03 0.  0.
    8880022    1    1    2    0    0  0.14478727392E+04  0.99723427791E+03  0.17761132794E+04  0.25037535239E+04  0.15294330000E+03 0.  0.
<mgrwt>
<rscale>  0 0.18485686E+04</rscale>
<asrwt>0</asrwt>
<pdfrwt beam="1">  1        2 0.20770613E+00 0.18773976E+04</pdfrwt>
<pdfrwt beam="2">  1       -2 0.46667013E+00 0.18773976E+04</pdfrwt>
<totfact> 0.37593563E-02</totfact>
</mgrwt>
</event>
<event>
 4    1  0.6502538E-008  0.7157188E+03  0.7818608E-02  0.9937347E-01
         -2   -1    0    0    0  501 -0.00000000000E+00  0.00000000000E+00  0.47541585794E+03  0.47541585795E+03  0.25500000000E-02 0.  1.
          2   -1    0    0  501    0  0.00000000000E+00 -0.00000000000E+00 -0.26024838565E+04  0.26024838565E+04  0.25500000000E-02 0. -1.
    8880023    1    1    2    0    0 -0.11386388825E+03 -0.25588720810E+03 -0.24922204806E+04  0.25929551440E+04  0.65864270000E+03 0.  0.
    8880022    1    1    2    0    0  0.11386388825E+03  0.25588720810E+03  0.36515248204E+03  0.48494457052E+03  0.15294330000E+03 0.  1.
<mgrwt>
<rscale>  0 0.58484922E+03</rscale>
<asrwt>0</asrwt>
<pdfrwt beam="1">  1        2 0.40038212E+00 0.71571884E+03</pdfrwt>
<pdfrwt beam="2">  1       -2 0.73140903E-01 0.71571884E+03</pdfrwt>
<totfact> 0.54247397E+00</totfact>
</mgrwt>
</event>
<event>
 4    1  0.6502538E-008  0.8146745E+03  0.7818608E-02  0.9679921E-01
          2   -1    0    0  501    0  0.00000000000E+00  0.00000000000E+00  0.18578440378E+04  0.18578440378E+04  0.25500000000E-02 0. -1.
         -2   -1    0    0    0  501 -0.00000000000E+00 -0.00000000000E+00 -0.43666300856E+03  0.43666300856E+03  0.25500000000E-02 0.  1.
    8880023    1    1    2    0    0 -0.47844601185E+03  0.31206161665E+02  0.15707815817E+04  0.17694771529E+04  0.65864270000E+03 0.  0.
    8880022    1    1    2    0    0  0.47844601185E+03 -0.31206161665E+02 -0.14960055245E+03  0.52502989352E+03  0.15294330000E+03 0.  0.
<mgrwt>
<rscale>  0 0.72224972E+03</rscale>
<asrwt>0</asrwt>
<pdfrwt beam="1">  1        2 0.28582216E+00 0.81467455E+03</pdfrwt>
<pdfrwt beam="2">  1       -2 0.67178925E-01 0.81467455E+03</pdfrwt>
<totfact> 0.16661230E+01</totfact>
</mgrwt>
</event>
<event>
 4    1  0.6502538E-008  0.1132435E+04  0.7818608E-02  0.9225775E-01
          2   -1    0    0  501    0  0.00000000000E+00  0.00000000000E+00  0.78047315503E+03  0.78047315503E+03  0.25500000000E-02 0. -1.
         -2   -1    0    0    0  501 -0.00000000000E+00 -0.00000000000E+00 -0.14147349395E+04  0.14147349395E+04  0.25500000000E-02 0.  1.
    8880023    1    1    2    0    0  0.64941849676E+03  0.65334121062E+03 -0.54615357176E+03  0.12572561599E+04  0.65864270000E+03 0.  0.
    8880022    1    1    2    0    0 -0.64941849676E+03 -0.65334121062E+03 -0.88108212667E+02  0.93795193458E+03  0.15294330000E+03 0.  0.
<mgrwt>
<rscale>  0 0.10791305E+04</rscale>
<asrwt>0</asrwt>
<pdfrwt beam="1">  1        2 0.12007279E+00 0.11324351E+04</pdfrwt>
<pdfrwt beam="2">  1       -2 0.21765153E+00 0.11324351E+04</pdfrwt>
<totfact> 0.35732628E+00</totfact>
</mgrwt>
</event>
<event>
 4    1  0.6502538E-008  0.6733852E+03  0.7818608E-02  0.1013344E+00
          2   -1    0    0  501    0  0.00000000000E+00  0.00000000000E+00  0.26628043124E+03  0.26628043125E+03  0.25500000000E-02 0. -1.
         -2   -1    0    0    0  501 -0.00000000000E+00 -0.00000000000E+00 -0.11591240314E+04  0.11591240314E+04  0.25500000000E-02 0.  1.
    8880023    1    1    2    0    0 -0.12421842808E+03  0.64863076543E+02 -0.20042144882E+03  0.70257839419E+03  0.65864270000E+03 0. -1.
    8880022    1    1    2    0    0  0.12421842808E+03 -0.64863076543E+02 -0.69242215138E+03  0.72282606850E+03  0.15294330000E+03 0. -1.
<mgrwt>
<rscale>  0 0.50166979E+03</rscale>
<asrwt>0</asrwt>
<pdfrwt beam="1">  1        2 0.40966221E-01 0.67338521E+03</pdfrwt>
<pdfrwt beam="2">  1       -2 0.17832677E+00 0.67338521E+03</pdfrwt>
<totfact> 0.23831026E+01</totfact>
</mgrwt>
</event>
<event>
 4    1  0.6502538E-008  0.7265127E+03  0.7818608E-02  0.9901135E-01
          2   -1    0    0  501    0  0.00000000000E+00  0.00000000000E+00  0.11244010740E+04  0.11244010740E+04  0.25500000000E-02 0. -1.
         -2   -1    0    0    0  501 -0.00000000000E+00 -0.00000000000E+00 -0.77785304484E+03  0.77785304485E+03  0.25500000000E-02 0.  1.
    8880023    1    1    2    0    0  0.65468414614E+02 -0.29954028337E+03  0.95741210280E+03  0.12018563290E+04  0.65864270000E+03 0.  0.
    8880022    1    1    2    0    0 -0.65468414614E+02  0.29954028337E+03 -0.61086407360E+03  0.70039778991E+03  0.15294330000E+03 0.  0.
<mgrwt>
<rscale>  0 0.60206296E+03</rscale>
<asrwt>0</asrwt>
<pdfrwt beam="1">  1        2 0.17298478E+00 0.72651270E+03</pdfrwt>
<pdfrwt beam="2">  1       -2 0.11966970E+00 0.72651270E+03</pdfrwt>
<totfact> 0.11494790E+01</totfact>
</mgrwt>
</event>
<event>
 4    1  0.6502538E-008  0.8740179E+03  0.7818608E-02  0.9569099E-01
          2   -1    0    0  501    0  0.00000000000E+00  0.00000000000E+00  0.31988229070E+03  0.31988229071E+03  0.25500000000E-02 0. -1.
         -2   -1    0    0    0  501 -0.00000000000E+00 -0.00000000000E+00 -0.20032365273E+04  0.20032365273E+04  0.25500000000E-02 0.  1.
    8880023    1    1    2    0    0  0.25091118510E+03  0.51685649188E+03 -0.52096911171E+03  0.10175048293E+04  0.65864270000E+03 0. -1.
    8880022    1    1    2    0    0 -0.25091118510E+03 -0.51685649188E+03 -0.11623851249E+04  0.13056139888E+04  0.15294330000E+03 0.  1.
<mgrwt>
<rscale>  0 0.79375630E+03</rscale>
<asrwt>0</asrwt>
<pdfrwt beam="1">  1        2 0.49212661E-01 0.87401788E+03</pdfrwt>
<pdfrwt beam="2">  1       -2 0.30819023E+00 0.87401788E+03</pdfrwt>
<totfact> 0.29658578E+00</totfact>
</mgrwt>
</event>
<event>
 4    1  0.6502538E-008  0.7549537E+03  0.7818608E-02  0.9818351E-01
          2   -1    0    0  501    0  0.00000000000E+00  0.00000000000E+00  0.25233115363E+04  0.25233115363E+04  0.25500000000E-02 0. -1.
         -2   -1    0    0    0  501 -0.00000000000E+00 -0.00000000000E+00 -0.29107051551E+03  0.29107051552E+03  0.25500000000E-02 0.  1.
    8880023    1    1    2    0    0  0.33616931573E+03 -0.15210218974E+03  0.22896082314E+04  0.24108631119E+04  0.65864270000E+03 0. -1.
    8880022    1    1    2    0    0 -0.33616931573E+03  0.15210218974E+03 -0.57367210618E+02  0.40351893986E+03  0.15294330000E+03 0.  0.
<mgrwt>
<rscale>  0 0.64386936E+03</rscale>
<asrwt>0</asrwt>
<pdfrwt beam="1">  1        2 0.38820179E+00 0.75495370E+03</pdfrwt>
<pdfrwt beam="2">  1       -2 0.44780077E-01 0.75495370E+03</pdfrwt>
<totfact> 0.16698837E+01</totfact>
</mgrwt>
</event>
<event>
 4    1  0.6502538E-008  0.7475069E+03  0.7818608E-02  0.9838596E-01
         -2   -1    0    0    0  501 -0.00000000000E+00  0.00000000000E+00  0.72254060123E+03  0.72254060124E+03  0.25500000000E-02 0.  1.
          2   -1    0    0  501    0  0.00000000000E+00 -0.00000000000E+00 -0.14609344338E+04  0.14609344338E+04  0.25500000000E-02 0. -1.
    8880023    1    1    2    0    0  0.33765812375E+03 -0.10461035086E+03 -0.13017106825E+04  0.15010720307E+04  0.65864270000E+03 0. -1.
    8880022    1    1    2    0    0 -0.33765812375E+03  0.10461035086E+03  0.56331684990E+03  0.68240300441E+03  0.15294330000E+03 0.  0.
<mgrwt>
<rscale>  0 0.63331767E+03</rscale>
<asrwt>0</asrwt>
<pdfrwt beam="1">  1        2 0.22475914E+00 0.74750688E+03</pdfrwt>
<pdfrwt beam="2">  1       -2 0.11116009E+00 0.74750688E+03</pdfrwt>
<totfact> 0.87649253E+00</totfact>
</mgrwt>
</event>
<event>
 4    1  0.6502538E-008  0.6940391E+03  0.7818608E-02  0.1002289E+00
         -2   -1    0    0    0  501 -0.00000000000E+00  0.00000000000E+00  0.16849207570E+03  0.16849207572E+03  0.25500000000E-02 0.  1.
          2   -1    0    0  501    0  0.00000000000E+00 -0.00000000000E+00 -0.25344559394E+04  0.25344559394E+04  0.25500000000E-02 0. -1.
    8880023    1    1    2    0    0  0.12493036487E+03  0.17964546575E+03 -0.23328887866E+04  0.24339392733E+04  0.65864270000E+03 0. -1.
    8880022    1    1    2    0    0 -0.12493036487E+03 -0.17964546575E+03 -0.33075077135E+02  0.26900874182E+03  0.15294330000E+03 0.  0.
<mgrwt>
<rscale>  0 0.54657861E+03</rscale>
<asrwt>0</asrwt>
<pdfrwt beam="1">  1        2 0.38991627E+00 0.69403912E+03</pdfrwt>
<pdfrwt beam="2">  1       -2 0.25921860E-01 0.69403912E+03</pdfrwt>
<totfact> 0.46856175E+01</totfact>
</mgrwt>
</event>
<event>
 4    1  0.6502538E-008  0.7819225E+03  0.7818608E-02  0.9751340E-01
         -2   -1    0    0    0  501 -0.00000000000E+00  0.00000000000E+00  0.46737663020E+03  0.46737663021E+03  0.25500000000E-02 0.  1.
          2   -1    0    0  501    0  0.00000000000E+00 -0.00000000000E+00 -0.24627193480E+04  0.24627193480E+04  0.25500000000E-02 0. -1.
    8880023    1    1    2    0    0  0.41800581588E+03 -0.53513863116E+02 -0.22723424177E+04  0.24031110805E+04  0.65864270000E+03 0. -1.
    8880022    1    1    2    0    0 -0.41800581588E+03  0.53513863116E+02  0.27699969990E+03  0.52698489771E+03  0.15294330000E+03 0.  0.
<mgrwt>
<rscale>  0 0.68040585E+03</rscale>
<asrwt>0</asrwt>
<pdfrwt beam="1">  1        2 0.37887989E+00 0.78192250E+03</pdfrwt>
<pdfrwt beam="2">  1       -2 0.71904098E-01 0.78192250E+03</pdfrwt>
<totfact> 0.66859342E+00</totfact>
</mgrwt>
</event>
<event>
 4    1  0.6502538E-008  0.1248982E+04  0.7818608E-02  0.9110919E-01
         -2   -1    0    0    0  501 -0.00000000000E+00  0.00000000000E+00  0.99764265347E+03  0.99764265347E+03  0.25500000000E-02 0.  1.
          2   -1    0    0  501    0  0.00000000000E+00 -0.00000000000E+00 -0.18108524590E+04  0.18108524590E+04  0.25500000000E-02 0. -1.
    8880023    1    1    2    0    0 -0.10597453045E+04  0.55558245946E+02 -0.11364835551E+04  0.16886538740E+04  0.65864270000E+03 0. -1.
    8880022    1    1    2    0    0  0.10597453045E+04 -0.55558245946E+02  0.32327374956E+03  0.11198412384E+04  0.15294330000E+03 0.  0.
<mgrwt>
<rscale>  0 0.12022165E+04</rscale>
<asrwt>0</asrwt>
<pdfrwt beam="1">  1        2 0.27859269E+00 0.12489824E+04</pdfrwt>
<pdfrwt beam="2">  1       -2 0.15348349E+00 0.12489824E+04</pdfrwt>
<totfact> 0.23197614E+00</totfact>
</mgrwt>
</event>
<event>
 4    1  0.6502538E-008  0.6621445E+03  0.7818608E-02  0.1022060E+00
          2   -1    0    0  501    0  0.00000000000E+00  0.00000000000E+00  0.64239063509E+03  0.64239063510E+03  0.25500000000E-02 0. -1.
         -2   -1    0    0    0  501 -0.00000000000E+00 -0.00000000000E+00 -0.10557002429E+04  0.10557002429E+04  0.25500000000E-02 0.  1.
    8880023    1    1    2    0    0 -0.45126293716E+02 -0.50879267706E+02  0.46169802253E+03  0.80721766119E+03  0.65864270000E+03 0. -1.
    8880022    1    1    2    0    0  0.45126293716E+02  0.50879267706E+02 -0.87500763038E+03  0.89087321686E+03  0.15294330000E+03 0.  0.
<mgrwt>
<rscale>  0 0.46950666E+03</rscale>
<asrwt>0</asrwt>
<pdfrwt beam="1">  1        2 0.98829329E-01 0.66214446E+03</pdfrwt>
<pdfrwt beam="2">  1       -2 0.16241542E+00 0.66214446E+03</pdfrwt>
<totfact> 0.11316388E+01</totfact>
</mgrwt>
</event>
<event>
 4    1  0.6502538E-008  0.8353651E+03  0.7818608E-02  0.9638982E-01
          2   -1    0    0  501    0  0.00000000000E+00  0.00000000000E+00  0.87084172894E+03  0.87084172895E+03  0.25500000000E-02 0. -1.
         -2   -1    0    0    0  501 -0.00000000000E+00 -0.00000000000E+00 -0.27254935307E+04  0.27254935307E+04  0.25500000000E-02 0.  1.
    8880023    1    1    2    0    0 -0.48468373653E+03  0.17060589346E+03  0.63519036228E+03  0.10494292248E+04  0.65864270000E+03 0.  0.
    8880022    1    1    2    0    0  0.48468373653E+03 -0.17060589346E+03 -0.24898421640E+04  0.25469060348E+04  0.15294330000E+03 0.  0.
<mgrwt>
<rscale>  0 0.74768934E+03</rscale>
<asrwt>0</asrwt>
<pdfrwt beam="1">  1        2 0.13397565E+00 0.83536513E+03</pdfrwt>
<pdfrwt beam="2">  1       -2 0.41930669E+00 0.83536513E+03</pdfrwt>
<totfact> 0.17858013E-01</totfact>
</mgrwt>
</event>
<event>
 4    1  0.6502538E-008  0.6957513E+03  0.7818608E-02  0.1001530E+00
          2   -1    0    0  501    0  0.00000000000E+00  0.00000000000E+00  0.10657434886E+04  0.10657434886E+04  0.25500000000E-02 0. -1.
         -2   -1    0    0    0  501 -0.00000000000E+00 -0.00000000000E+00 -0.71980954833E+03  0.71980954834E+03  0.25500000000E-02 0.  1.
    8880023    1    1    2    0    0 -0.10403335063E+03  0.19858681920E+03  0.91830131705E+03  0.11521055412E+04  0.65864270000E+03 0. -1.
    8880022    1    1    2    0    0  0.10403335063E+03 -0.19858681920E+03 -0.57236737682E+03  0.63344749575E+03  0.15294330000E+03 0.  0.
<mgrwt>
<rscale>  0 0.54984222E+03</rscale>
<asrwt>0</asrwt>
<pdfrwt beam="1">  1        2 0.16396054E+00 0.69575130E+03</pdfrwt>
<pdfrwt beam="2">  1       -2 0.11073993E+00 0.69575130E+03</pdfrwt>
<totfact> 0.15147417E+01</totfact>
</mgrwt>
</event>
<event>
 4    1  0.6502538E-008  0.1313533E+04  0.7818608E-02  0.9053961E-01
          2   -1    0    0  501    0  0.00000000000E+00  0.00000000000E+00  0.22099196301E+04  0.22099196301E+04  0.25500000000E-02 0. -1.
         -2   -1    0    0    0  501 -0.00000000000E+00 -0.00000000000E+00 -0.12413590746E+04  0.12413590746E+04  0.25500000000E-02 0.  1.
    8880023    1    1    2    0    0 -0.73379202347E+03 -0.86781790563E+03  0.16564632430E+04  0.21140575519E+04  0.65864270000E+03 0.  0.
    8880022    1    1    2    0    0  0.73379202347E+03  0.86781790563E+03 -0.68790268746E+03  0.13372211528E+04  0.15294330000E+03 0.  0.
<mgrwt>
<rscale>  0 0.12696804E+04</rscale>
<asrwt>0</asrwt>
<pdfrwt beam="1">  1        2 0.33998763E+00 0.13135330E+04</pdfrwt>
<pdfrwt beam="2">  1       -2 0.19097832E+00 0.13135330E+04</pdfrwt>
<totfact> 0.74666850E-01</totfact>
</mgrwt>
</event>
<event>
 4    1  0.6502538E-008  0.1763266E+04  0.7818608E-02  0.8743133E-01
          2   -1    0    0  501    0  0.00000000000E+00  0.00000000000E+00  0.20654041652E+04  0.20654041652E+04  0.25500000000E-02 0. -1.
         -2   -1    0    0    0  501 -0.00000000000E+00 -0.00000000000E+00 -0.15094894764E+04  0.15094894764E+04  0.25500000000E-02 0.  1.
    8880023    1    1    2    0    0  0.15862072310E+04 -0.39905125818E+03  0.75887667613E+03  0.19196352003E+04  0.65864270000E+03 0. -1.
    8880022    1    1    2    0    0 -0.15862072310E+04  0.39905125818E+03 -0.20296198732E+03  0.16552584414E+04  0.15294330000E+03 0.  0.
<mgrwt>
<rscale>  0 0.17323369E+04</rscale>
<asrwt>0</asrwt>
<pdfrwt beam="1">  1        2 0.31775449E+00 0.17632656E+04</pdfrwt>
<pdfrwt beam="2">  1       -2 0.23222915E+00 0.17632656E+04</pdfrwt>
<totfact> 0.46476093E-01</totfact>
</mgrwt>
</event>
<event>
 4    1  0.6502538E-008  0.9471960E+03  0.7818608E-02  0.9454160E-01
          2   -1    0    0  501    0  0.00000000000E+00  0.00000000000E+00  0.43838815961E+03  0.43838815961E+03  0.25500000000E-02 0. -1.
         -2   -1    0    0    0  501 -0.00000000000E+00 -0.00000000000E+00 -0.16006897283E+04  0.16006897283E+04  0.25500000000E-02 0.  1.
    8880023    1    1    2    0    0 -0.26468444546E+03  0.62714610575E+03 -0.47463259048E+03  0.10594604267E+04  0.65864270000E+03 0. -1.
    8880022    1    1    2    0    0  0.26468444546E+03 -0.62714610575E+03 -0.68766897821E+03  0.97961746117E+03  0.15294330000E+03 0.  1.
<mgrwt>
<rscale>  0 0.87749460E+03</rscale>
<asrwt>0</asrwt>
<pdfrwt beam="1">  1        2 0.67444333E-01 0.94719602E+03</pdfrwt>
<pdfrwt beam="2">  1       -2 0.24625996E+00 0.94719602E+03</pdfrwt>
<totfact> 0.48823333E+00</totfact>
</mgrwt>
</event>
<event>
 4    1  0.6502538E-008  0.1350872E+04  0.7818608E-02  0.9022828E-01
          2   -1    0    0  501    0  0.00000000000E+00  0.00000000000E+00  0.16357712340E+04  0.16357712340E+04  0.25500000000E-02 0. -1.
         -2   -1    0    0    0  501 -0.00000000000E+00 -0.00000000000E+00 -0.14762247274E+04  0.14762247274E+04  0.25500000000E-02 0.  1.
    8880023    1    1    2    0    0 -0.11791103894E+04 -0.27272027688E+02 -0.81215081671E+03  0.15762119874E+04  0.65864270000E+03 0.  0.
    8880022    1    1    2    0    0  0.11791103894E+04  0.27272027688E+02  0.97169732336E+03  0.15357839741E+04  0.15294330000E+03 0.  0.
<mgrwt>
<rscale>  0 0.13085298E+04</rscale>
<asrwt>0</asrwt>
<pdfrwt beam="1">  1        2 0.25165711E+00 0.13508720E+04</pdfrwt>
<pdfrwt beam="2">  1       -2 0.22711150E+00 0.13508720E+04</pdfrwt>
<totfact> 0.90574253E-01</totfact>
</mgrwt>
</event>
<event>
 4    1  0.6502538E-008  0.7803762E+03  0.7818608E-02  0.9754954E-01
          2   -1    0    0  501    0  0.00000000000E+00  0.00000000000E+00  0.32575447096E+04  0.32575447096E+04  0.25500000000E-02 0. -1.
         -2   -1    0    0    0  501 -0.00000000000E+00 -0.00000000000E+00 -0.48311167236E+03  0.48311167237E+03  0.25500000000E-02 0.  1.
    8880023    1    1    2    0    0  0.41262746474E+03 -0.70109709706E+02  0.30949053975E+04  0.31917748075E+04  0.65864270000E+03 0. -1.
    8880022    1    1    2    0    0 -0.41262746474E+03  0.70109709706E+02 -0.32047236029E+03  0.54888157445E+03  0.15294330000E+03 0.  0.
<mgrwt>
<rscale>  0 0.67837024E+03</rscale>
<asrwt>0</asrwt>
<pdfrwt beam="1">  1        2 0.50116073E+00 0.78037619E+03</pdfrwt>
<pdfrwt beam="2">  1       -2 0.74324873E-01 0.78037619E+03</pdfrwt>
<totfact> 0.20728886E+00</totfact>
</mgrwt>
</event>
<event>
 4    1  0.6502538E-008  0.7359105E+03  0.7818608E-02  0.9872024E-01
          2   -1    0    0  501    0  0.00000000000E+00  0.00000000000E+00  0.13830757208E+04  0.13830757208E+04  0.25500000000E-02 0. -1.
         -2   -1    0    0    0  501 -0.00000000000E+00 -0.00000000000E+00 -0.23578464192E+03  0.23578464194E+03  0.25500000000E-02 0.  1.
    8880023    1    1    2    0    0  0.16086868110E+03  0.28613858816E+03  0.96454302851E+03  0.12132219435E+04  0.65864270000E+03 0.  0.
    8880022    1    1    2    0    0 -0.16086868110E+03 -0.28613858816E+03  0.18274805036E+03  0.40563841918E+03  0.15294330000E+03 0.  0.
<mgrwt>
<rscale>  0 0.61636502E+03</rscale>
<asrwt>0</asrwt>
<pdfrwt beam="1">  1        2 0.21278088E+00 0.73591048E+03</pdfrwt>
<pdfrwt beam="2">  1       -2 0.36274561E-01 0.73591048E+03</pdfrwt>
<totfact> 0.10770833E+02</totfact>
</mgrwt>
</event>
<event>
 4    1  0.6502538E-008  0.8297823E+03  0.7818608E-02  0.9649756E-01
          2   -1    0    0  501    0  0.00000000000E+00  0.00000000000E+00  0.27514490426E+04  0.27514490426E+04  0.25500000000E-02 0. -1.
         -2   -1    0    0    0  501 -0.00000000000E+00 -0.00000000000E+00 -0.19952904803E+03  0.19952904804E+03  0.25500000000E-02 0.  1.
    8880023    1    1    2    0    0 -0.39762827448E+02  0.50313752981E+03  0.20944676191E+04  0.22528500328E+04  0.65864270000E+03 0. -1.
    8880022    1    1    2    0    0  0.39762827448E+02 -0.50313752981E+03  0.45745237542E+03  0.69812805784E+03  0.15294330000E+03 0.  0.
<mgrwt>
<rscale>  0 0.74088734E+03</rscale>
<asrwt>0</asrwt>
<pdfrwt beam="1">  1        2 0.42329990E+00 0.82978230E+03</pdfrwt>
<pdfrwt beam="2">  1       -2 0.30696774E-01 0.82978230E+03</pdfrwt>
<totfact> 0.25233423E+01</totfact>
</mgrwt>
</event>
<event>
 4    1  0.6502538E-008  0.7030009E+03  0.7818608E-02  0.9984973E-01
          2   -1    0    0  501    0  0.00000000000E+00  0.00000000000E+00  0.17745991173E+04  0.17745991174E+04  0.25500000000E-02 0. -1.
         -2   -1    0    0    0  501 -0.00000000000E+00 -0.00000000000E+00 -0.21899041047E+03  0.21899041048E+03  0.25500000000E-02 0.  1.
    8880023    1    1    2    0    0  0.49192685802E+02  0.24079077209E+03  0.15523390912E+04  0.17041029830E+04  0.65864270000E+03 0. -1.
    8880022    1    1    2    0    0 -0.49192685802E+02 -0.24079077209E+03  0.32696156932E+01  0.28948654487E+03  0.15294330000E+03 0.  0.
<mgrwt>
<rscale>  0 0.56314094E+03</rscale>
<asrwt>0</asrwt>
<pdfrwt beam="1">  1        2 0.27301525E+00 0.70300094E+03</pdfrwt>
<pdfrwt beam="2">  1       -2 0.33690832E-01 0.70300094E+03</pdfrwt>
<totfact> 0.75561157E+01</totfact>
</mgrwt>
</event>
<event>
 4    1  0.7219593E-008  0.9422657E+03  0.7818608E-02  0.9461330E-01
          2   -1    0    0  501    0  0.00000000000E+00  0.00000000000E+00  0.30236653996E+04  0.30236653996E+04  0.25500000000E-02 0. -1.
         -2   -1    0    0    0  501 -0.00000000000E+00 -0.00000000000E+00 -0.10993278919E+04  0.10993278919E+04  0.25500000000E-02 0.  1.
    8880023    1    1    2    0    0  0.61236583021E+03  0.28118073370E+03  0.28306280556E+04  0.29833403947E+04  0.65864270000E+03 0.  0.
    8880022    1    1    2    0    0 -0.61236583021E+03 -0.28118073370E+03 -0.90629054793E+03  0.11396528969E+04  0.15294330000E+03 0.  0.
<mgrwt>
<rscale>  0 0.87195807E+03</rscale>
<asrwt>0</asrwt>
<pdfrwt beam="1">  1        2 0.46517929E+00 0.94226574E+03</pdfrwt>
<pdfrwt beam="2">  1       -2 0.16912737E+00 0.94226574E+03</pdfrwt>
<totfact> 0.37408052E-01</totfact>
</mgrwt>
</event>
<event>
 4    1  0.6502538E-008  0.9396540E+03  0.7818608E-02  0.9465159E-01
         -2   -1    0    0    0  501 -0.00000000000E+00  0.00000000000E+00  0.48584214275E+03  0.48584214275E+03  0.25500000000E-02 0.  1.
          2   -1    0    0  501    0  0.00000000000E+00 -0.00000000000E+00 -0.19407866293E+04  0.19407866293E+04  0.25500000000E-02 0. -1.
    8880023    1    1    2    0    0 -0.65218823057E+03 -0.15424004933E+03 -0.14634724903E+04  0.17391668744E+04  0.65864270000E+03 0. -1.
    8880022    1    1    2    0    0  0.65218823057E+03  0.15424004933E+03  0.85280037008E+01  0.68746189769E+03  0.15294330000E+03 0.  0.
<mgrwt>
<rscale>  0 0.86902003E+03</rscale>
<asrwt>0</asrwt>
<pdfrwt beam="1">  1        2 0.29858255E+00 0.93965403E+03</pdfrwt>
<pdfrwt beam="2">  1       -2 0.74744946E-01 0.93965403E+03</pdfrwt>
<totfact> 0.11696359E+01</totfact>
</mgrwt>
</event>
<event>
 4    1  0.6502538E-008  0.8770058E+03  0.7818608E-02  0.9564001E-01
          2   -1    0    0  501    0  0.00000000000E+00  0.00000000000E+00  0.29947960896E+04  0.29947960896E+04  0.25500000000E-02 0. -1.
         -2   -1    0    0    0  501 -0.00000000000E+00 -0.00000000000E+00 -0.51625792020E+03  0.51625792020E+03  0.25500000000E-02 0.  1.
    8880023    1    1    2    0    0  0.23147130448E+03  0.53080124613E+03  0.27255580204E+04  0.28631810380E+04  0.65864270000E+03 0. -1.
    8880022    1    1    2    0    0 -0.23147130448E+03 -0.53080124613E+03 -0.24701985104E+03  0.64787297174E+03  0.15294330000E+03 0.  0.
<mgrwt>
<rscale>  0 0.79725340E+03</rscale>
<asrwt>0</asrwt>
<pdfrwt beam="1">  1        2 0.46073785E+00 0.87700578E+03</pdfrwt>
<pdfrwt beam="2">  1       -2 0.79424296E-01 0.87700578E+03</pdfrwt>
<totfact> 0.25673668E+00</totfact>
</mgrwt>
</event>
<event>
 4    1  0.6502538E-008  0.1040107E+04  0.7818608E-02  0.9330869E-01
          2   -1    0    0  501    0  0.00000000000E+00  0.00000000000E+00  0.33840181608E+04  0.33840181608E+04  0.25500000000E-02 0. -1.
         -2   -1    0    0    0  501 -0.00000000000E+00 -0.00000000000E+00 -0.38368609445E+03  0.38368609445E+03  0.25500000000E-02 0.  1.
    8880023    1    1    2    0    0  0.43898110623E+03 -0.67476580179E+03  0.27027004691E+04  0.28959304775E+04  0.65864270000E+03 0.  0.
    8880022    1    1    2    0    0 -0.43898110623E+03  0.67476580179E+03  0.29763159734E+03  0.87177377779E+03  0.15294330000E+03 0.  0.
<mgrwt>
<rscale>  0 0.97989992E+03</rscale>
<asrwt>0</asrwt>
<pdfrwt beam="1">  1        2 0.52061820E+00 0.10401074E+04</pdfrwt>
<pdfrwt beam="2">  1       -2 0.59028628E-01 0.10401074E+04</pdfrwt>
<totfact> 0.26911053E+00</totfact>
</mgrwt>
</event>
<event>
 4    1  0.6502538E-008  0.1146929E+04  0.7818608E-02  0.9210521E-01
          2   -1    0    0  501    0  0.00000000000E+00  0.00000000000E+00  0.28427781205E+04  0.28427781205E+04  0.25500000000E-02 0. -1.
         -2   -1    0    0    0  501 -0.00000000000E+00 -0.00000000000E+00 -0.44867056013E+03  0.44867056014E+03  0.25500000000E-02 0.  1.
    8880023    1    1    2    0    0 -0.56971409127E+03  0.74636586795E+03  0.19003048244E+04  0.22195956359E+04  0.65864270000E+03 0.  0.
    8880022    1    1    2    0    0  0.56971409127E+03 -0.74636586795E+03  0.49380273595E+03  0.10718530448E+04  0.15294330000E+03 0.  0.
<mgrwt>
<rscale>  0 0.10945489E+04</rscale>
<asrwt>0</asrwt>
<pdfrwt beam="1">  1        2 0.43735048E+00 0.11469291E+04</pdfrwt>
<pdfrwt beam="2">  1       -2 0.69026240E-01 0.11469291E+04</pdfrwt>
<totfact> 0.41701973E+00</totfact>
</mgrwt>
</event>
<event>
 4    1  0.6502538E-008  0.1062791E+04  0.7818608E-02  0.9303661E-01
         -2   -1    0    0    0  501 -0.00000000000E+00  0.00000000000E+00  0.13076599602E+04  0.13076599602E+04  0.25500000000E-02 0.  1.
          2   -1    0    0  501    0  0.00000000000E+00 -0.00000000000E+00 -0.78284083781E+03  0.78284083782E+03  0.25500000000E-02 0. -1.
    8880023    1    1    2    0    0  0.62487884460E+03 -0.55248552293E+03 -0.53393136796E+02  0.10641310337E+04  0.65864270000E+03 0.  0.
    8880022    1    1    2    0    0 -0.62487884460E+03  0.55248552293E+03  0.57821225916E+03  0.10263697643E+04  0.15294330000E+03 0.  0.
<mgrwt>
<rscale>  0 0.10044652E+04</rscale>
<asrwt>0</asrwt>
<pdfrwt beam="1">  1        2 0.12043705E+00 0.10627907E+04</pdfrwt>
<pdfrwt beam="2">  1       -2 0.20117846E+00 0.10627907E+04</pdfrwt>
<totfact> 0.45718282E+00</totfact>
</mgrwt>
</event>
<event>
 4    1  0.6502538E-008  0.1968401E+04  0.7818608E-02  0.8634692E-01
          2   -1    0    0  501    0  0.00000000000E+00  0.00000000000E+00  0.18683128453E+04  0.18683128453E+04  0.25500000000E-02 0. -1.
         -2   -1    0    0    0  501 -0.00000000000E+00 -0.00000000000E+00 -0.26608377277E+04  0.26608377277E+04  0.25500000000E-02 0.  1.
    8880023    1    1    2    0    0 -0.14296537979E+04  0.11818971435E+04 -0.15642651326E+04  0.25142645945E+04  0.65864270000E+03 0.  0.
    8880022    1    1    2    0    0  0.14296537979E+04 -0.11818971435E+04  0.77174025017E+03  0.20148859785E+04  0.15294330000E+03 0.  0.
<mgrwt>
<rscale>  0 0.19410433E+04</rscale>
<asrwt>0</asrwt>
<pdfrwt beam="1">  1        2 0.28743275E+00 0.19684006E+04</pdfrwt>
<pdfrwt beam="2">  1       -2 0.40935965E+00 0.19684006E+04</pdfrwt>
<totfact> 0.45357304E-02</totfact>
</mgrwt>
</event>
<event>
 4    1  0.6502538E-008  0.6905415E+03  0.7818608E-02  0.1003896E+00
         -2   -1    0    0    0  501 -0.00000000000E+00  0.00000000000E+00  0.66567422237E+03  0.66567422237E+03  0.25500000000E-02 0.  1.
          2   -1    0    0  501    0  0.00000000000E+00 -0.00000000000E+00 -0.12111206959E+04  0.12111206959E+04  0.25500000000E-02 0. -1.
    8880023    1    1    2    0    0 -0.13159633252E+03 -0.16037384358E+03 -0.10808363296E+04  0.12825968744E+04  0.65864270000E+03 0. -1.
    8880022    1    1    2    0    0  0.13159633252E+03  0.16037384358E+03  0.53538985606E+03  0.59419804394E+03  0.15294330000E+03 0.  0.
<mgrwt>
<rscale>  0 0.53974306E+03</rscale>
<asrwt>0</asrwt>
<pdfrwt beam="1">  1        2 0.18632626E+00 0.69054151E+03</pdfrwt>
<pdfrwt beam="2">  1       -2 0.10241142E+00 0.69054151E+03</pdfrwt>
<totfact> 0.14950732E+01</totfact>
</mgrwt>
</event>
<event>
 4    1  0.6502538E-008  0.9648689E+03  0.7818608E-02  0.9429036E-01
          2   -1    0    0  501    0  0.00000000000E+00  0.00000000000E+00  0.27307830279E+04  0.27307830279E+04  0.25500000000E-02 0. -1.
         -2   -1    0    0    0  501 -0.00000000000E+00 -0.00000000000E+00 -0.39689367698E+03  0.39689367699E+03  0.25500000000E-02 0.  1.
    8880023    1    1    2    0    0  0.35040641907E+03  0.61186361143E+03  0.21883916089E+04  0.23916583739E+04  0.65864270000E+03 0.  0.
    8880022    1    1    2    0    0 -0.35040641907E+03 -0.61186361143E+03  0.14549774200E+03  0.73601833093E+03  0.15294330000E+03 0.  1.
<mgrwt>
<rscale>  0 0.89724156E+03</rscale>
<asrwt>0</asrwt>
<pdfrwt beam="1">  1        2 0.42012049E+00 0.96486887E+03</pdfrwt>
<pdfrwt beam="2">  1       -2 0.61060562E-01 0.96486887E+03</pdfrwt>
<totfact> 0.64871649E+00</totfact>
</mgrwt>
</event>
<event>
 4    1  0.6502538E-008  0.9001507E+03  0.7818608E-02  0.9525790E-01
          2   -1    0    0  501    0  0.00000000000E+00  0.00000000000E+00  0.98840208279E+03  0.98840208279E+03  0.25500000000E-02 0. -1.
         -2   -1    0    0    0  501 -0.00000000000E+00 -0.00000000000E+00 -0.11555774899E+04  0.11555774899E+04  0.25500000000E-02 0.  1.
    8880023    1    1    2    0    0 -0.60968461316E+03  0.68889082970E+02  0.65030239970E+03  0.11104793787E+04  0.65864270000E+03 0.  0.
    8880022    1    1    2    0    0  0.60968461316E+03 -0.68889082970E+02 -0.81747780681E+03  0.10335001940E+04  0.15294330000E+03 0.  0.
<mgrwt>
<rscale>  0 0.82408861E+03</rscale>
<asrwt>0</asrwt>
<pdfrwt beam="1">  1        2 0.15206186E+00 0.90015068E+03</pdfrwt>
<pdfrwt beam="2">  1       -2 0.17778115E+00 0.90015068E+03</pdfrwt>
<totfact> 0.48241550E+00</totfact>
</mgrwt>
</event>
<event>
 4    1  0.6502538E-008  0.6801744E+03  0.7818608E-02  0.1009225E+00
          2   -1    0    0  501    0  0.00000000000E+00  0.00000000000E+00  0.93640965293E+03  0.93640965294E+03  0.25500000000E-02 0. -1.
         -2   -1    0    0    0  501 -0.00000000000E+00 -0.00000000000E+00 -0.72662033269E+03  0.72662033270E+03  0.25500000000E-02 0.  1.
    8880023    1    1    2    0    0  0.92134637778E+02  0.14261212186E+03  0.78820714920E+03  0.10411088920E+04  0.65864270000E+03 0. -1.
    8880022    1    1    2    0    0 -0.92134637778E+02 -0.14261212186E+03 -0.57841782896E+03  0.62192109359E+03  0.15294330000E+03 0.  0.
<mgrwt>
<rscale>  0 0.51783742E+03</rscale>
<asrwt>0</asrwt>
<pdfrwt beam="1">  1        2 0.14406302E+00 0.68017440E+03</pdfrwt>
<pdfrwt beam="2">  1       -2 0.11178774E+00 0.68017440E+03</pdfrwt>
<totfact> 0.17929178E+01</totfact>
</mgrwt>
</event>
<event>
 4    1  0.6502538E-008  0.7383997E+03  0.7818608E-02  0.9864633E-01
         -2   -1    0    0    0  501 -0.00000000000E+00  0.00000000000E+00  0.10222918196E+04  0.10222918196E+04  0.25500000000E-02 0.  1.
          2   -1    0    0  501    0  0.00000000000E+00 -0.00000000000E+00 -0.91913997990E+03  0.91913997990E+03  0.25500000000E-02 0. -1.
    8880023    1    1    2    0    0  0.24944665881E+03 -0.22181144093E+03 -0.72544002720E+03  0.10351315811E+04  0.65864270000E+03 0. -1.
    8880022    1    1    2    0    0 -0.24944665881E+03  0.22181144093E+03  0.82859186686E+03  0.90630021834E+03  0.15294330000E+03 0.  0.
<mgrwt>
<rscale>  0 0.62006350E+03</rscale>
<asrwt>0</asrwt>
<pdfrwt beam="1">  1        2 0.14140615E+00 0.73839973E+03</pdfrwt>
<pdfrwt beam="2">  1       -2 0.15727566E+00 0.73839973E+03</pdfrwt>
<totfact> 0.76586056E+00</totfact>
</mgrwt>
</event>
<event>
 4    1  0.6502538E-008  0.1248847E+04  0.7818608E-02  0.9111043E-01
          2   -1    0    0  501    0  0.00000000000E+00  0.00000000000E+00  0.79553002631E+03  0.79553002631E+03  0.25500000000E-02 0. -1.
         -2   -1    0    0    0  501 -0.00000000000E+00 -0.00000000000E+00 -0.21380098609E+04  0.21380098609E+04  0.25500000000E-02 0.  1.
    8880023    1    1    2    0    0  0.93480341672E+03 -0.50194748620E+03 -0.43867058755E+02  0.12496172342E+04  0.65864270000E+03 0.  1.
    8880022    1    1    2    0    0 -0.93480341672E+03  0.50194748620E+03 -0.12986127758E+04  0.16839226530E+04  0.15294330000E+03 0.  0.
<mgrwt>
<rscale>  0 0.12020746E+04</rscale>
<asrwt>0</asrwt>
<pdfrwt beam="1">  1        2 0.12238924E+00 0.12488470E+04</pdfrwt>
<pdfrwt beam="2">  1       -2 0.32892459E+00 0.12488470E+04</pdfrwt>
<totfact> 0.71537620E-01</totfact>
</mgrwt>
</event>
<event>
 4    1  0.6502538E-008  0.7549918E+03  0.7818608E-02  0.9818250E-01
         -2   -1    0    0    0  501 -0.00000000000E+00  0.00000000000E+00  0.39899468094E+03  0.39899468095E+03  0.25500000000E-02 0.  1.
          2   -1    0    0  501    0  0.00000000000E+00 -0.00000000000E+00 -0.24630550101E+04  0.24630550101E+04  0.25500000000E-02 0. -1.
    8880023    1    1    2    0    0 -0.18750776303E+02 -0.36857951121E+03 -0.22843250850E+04  0.24058582144E+04  0.65864270000E+03 0.  0.
    8880022    1    1    2    0    0  0.18750776303E+02  0.36857951121E+03  0.22026475582E+03  0.45619147665E+03  0.15294330000E+03 0.  0.
<mgrwt>
<rscale>  0 0.64392278E+03</rscale>
<asrwt>0</asrwt>
<pdfrwt beam="1">  1        2 0.37893153E+00 0.75499182E+03</pdfrwt>
<pdfrwt beam="2">  1       -2 0.61383799E-01 0.75499182E+03</pdfrwt>
<totfact> 0.94458395E+00</totfact>
</mgrwt>
</event>
<event>
 4    1  0.6502538E-008  0.8009804E+03  0.7818608E-02  0.9708680E-01
         -2   -1    0    0    0  501 -0.00000000000E+00  0.00000000000E+00  0.72097426251E+03  0.72097426252E+03  0.25500000000E-02 0.  1.
          2   -1    0    0  501    0  0.00000000000E+00 -0.00000000000E+00 -0.11152697202E+04  0.11152697202E+04  0.25500000000E-02 0. -1.
    8880023    1    1    2    0    0  0.44264103285E+03  0.10875791020E+03  0.40953453392E+03  0.89960441736E+03  0.65864270000E+03 0.  0.
    8880022    1    1    2    0    0 -0.44264103285E+03 -0.10875791020E+03 -0.80382999164E+03  0.93663956539E+03  0.15294330000E+03 0.  0.
<mgrwt>
<rscale>  0 0.70502316E+03</rscale>
<asrwt>0</asrwt>
<pdfrwt beam="1">  1        2 0.17157996E+00 0.80098038E+03</pdfrwt>
<pdfrwt beam="2">  1       -2 0.11091912E+00 0.80098038E+03</pdfrwt>
<totfact> 0.13898781E+01</totfact>
</mgrwt>
</event>
<event>
 4    1  0.6502538E-008  0.8850472E+03  0.7818608E-02  0.9550475E-01
          2   -1    0    0  501    0  0.00000000000E+00  0.00000000000E+00  0.13151580189E+04  0.13151580189E+04  0.25500000000E-02 0. -1.
         -2   -1    0    0    0  501 -0.00000000000E+00 -0.00000000000E+00 -0.80997391476E+03  0.80997391477E+03  0.25500000000E-02 0.  1.
    8880023    1    1    2    0    0  0.59036258114E+03  0.31150992589E+02  0.10027294594E+04  0.13374509100E+04  0.65864270000E+03 0.  0.
    8880022    1    1    2    0    0 -0.59036258114E+03 -0.31150992589E+02 -0.49754535527E+03  0.78768102371E+03  0.15294330000E+03 0.  0.
<mgrwt>
<rscale>  0 0.80662638E+03</rscale>
<asrwt>0</asrwt>
<pdfrwt beam="1">  1        2 0.20233200E+00 0.88504721E+03</pdfrwt>
<pdfrwt beam="2">  1       -2 0.12461137E+00 0.88504721E+03</pdfrwt>
<totfact> 0.78666020E+00</totfact>
</mgrwt>
</event>
<event>
 4    1  0.6502538E-008  0.1017298E+04  0.7818608E-02  0.9359268E-01
         -2   -1    0    0    0  501 -0.00000000000E+00  0.00000000000E+00  0.12306721087E+04  0.12306721087E+04  0.25500000000E-02 0.  1.
          2   -1    0    0  501    0  0.00000000000E+00 -0.00000000000E+00 -0.16878076434E+04  0.16878076434E+04  0.25500000000E-02 0. -1.
    8880023    1    1    2    0    0 -0.42741734001E+03  0.64683867113E+03 -0.13730053853E+04  0.17088124073E+04  0.65864270000E+03 0.  0.
    8880022    1    1    2    0    0  0.42741734001E+03 -0.64683867113E+03  0.91586985053E+03  0.12096673448E+04  0.15294330000E+03 0.  0.
<mgrwt>
<rscale>  0 0.95504948E+03</rscale>
<asrwt>0</asrwt>
<pdfrwt beam="1">  1        2 0.25966272E+00 0.10172984E+04</pdfrwt>
<pdfrwt beam="2">  1       -2 0.18933417E+00 0.10172984E+04</pdfrwt>
<totfact> 0.15479206E+00</totfact>
</mgrwt>
</event>
<event>
 4    1  0.6502538E-008  0.7180914E+03  0.7818608E-02  0.9929098E-01
         -2   -1    0    0    0  501 -0.00000000000E+00  0.00000000000E+00  0.88868851004E+03  0.88868851004E+03  0.25500000000E-02 0.  1.
          2   -1    0    0  501    0  0.00000000000E+00 -0.00000000000E+00 -0.36871830514E+03  0.36871830515E+03  0.25500000000E-02 0. -1.
    8880023    1    1    2    0    0  0.28599124931E+03 -0.73516746725E+01  0.97386290212E+02  0.72466498300E+03  0.65864270000E+03 0. -1.
    8880022    1    1    2    0    0 -0.28599124931E+03  0.73516746725E+01  0.42258391468E+03  0.53274183219E+03  0.15294330000E+03 0.  0.
<mgrwt>
<rscale>  0 0.58871580E+03</rscale>
<asrwt>0</asrwt>
<pdfrwt beam="1">  1        2 0.56725894E-01 0.71809139E+03</pdfrwt>
<pdfrwt beam="2">  1       -2 0.13672131E+00 0.71809139E+03</pdfrwt>
<totfact> 0.33754857E+01</totfact>
</mgrwt>
</event>
<event>
 4    1  0.6502538E-008  0.7735590E+03  0.7818608E-02  0.9771190E-01
          2   -1    0    0  501    0  0.00000000000E+00  0.00000000000E+00  0.34195799886E+04  0.34195799886E+04  0.25500000000E-02 0. -1.
         -2   -1    0    0    0  501 -0.00000000000E+00 -0.00000000000E+00 -0.14321154270E+03  0.14321154272E+03  0.25500000000E-02 0.  1.
    8880023    1    1    2    0    0  0.39629622250E+03 -0.86790984883E+02  0.28559756593E+04  0.29588833271E+04  0.65864270000E+03 0.  0.
    8880022    1    1    2    0    0 -0.39629622250E+03  0.86790984883E+02  0.42039278666E+03  0.60390820422E+03  0.15294330000E+03 0.  0.
<mgrwt>
<rscale>  0 0.66931817E+03</rscale>
<asrwt>0</asrwt>
<pdfrwt beam="1">  1        2 0.52608917E+00 0.77355903E+03</pdfrwt>
<pdfrwt beam="2">  1       -2 0.22032548E-01 0.77355903E+03</pdfrwt>
<totfact> 0.17783661E+01</totfact>
</mgrwt>
</event>
<event>
 4    1  0.6502538E-008  0.1549889E+04  0.7818608E-02  0.8875188E-01
          2   -1    0    0  501    0  0.00000000000E+00  0.00000000000E+00  0.34181750370E+04  0.34181750370E+04  0.25500000000E-02 0. -1.
         -2   -1    0    0    0  501 -0.00000000000E+00 -0.00000000000E+00 -0.10470995847E+04  0.10470995847E+04  0.25500000000E-02 0.  1.
    8880023    1    1    2    0    0  0.69319381142E+03  0.12197656531E+04  0.26084451174E+04  0.30341624949E+04  0.65864270000E+03 0.  0.
    8880022    1    1    2    0    0 -0.69319381142E+03 -0.12197656531E+04 -0.23736966511E+03  0.14311121268E+04  0.15294330000E+03 0.  0.
<mgrwt>
<rscale>  0 0.15140125E+04</rscale>
<asrwt>0</asrwt>
<pdfrwt beam="1">  1        2 0.52587309E+00 0.15498891E+04</pdfrwt>
<pdfrwt beam="2">  1       -2 0.16109224E+00 0.15498891E+04</pdfrwt>
<totfact> 0.21640382E-01</totfact>
</mgrwt>
</event>
<event>
 4    1  0.6502538E-008  0.6603842E+03  0.7818608E-02  0.1023766E+00
         -2   -1    0    0    0  501 -0.00000000000E+00  0.00000000000E+00  0.23009051232E+03  0.23009051234E+03  0.25500000000E-02 0.  1.
          2   -1    0    0  501    0  0.00000000000E+00 -0.00000000000E+00 -0.74654133071E+03  0.74654133071E+03  0.25500000000E-02 0. -1.
    8880023    1    1    2    0    0  0.41531650852E+02 -0.23922021829E+02 -0.46726582115E+03  0.80897756151E+03  0.65864270000E+03 0.  0.
    8880022    1    1    2    0    0 -0.41531650852E+02  0.23922021829E+02 -0.49184997240E+02  0.16765428154E+03  0.15294330000E+03 0. -1.
<mgrwt>
<rscale>  0 0.46351681E+03</rscale>
<asrwt>0</asrwt>
<pdfrwt beam="1">  1        2 0.11485251E+00 0.66038424E+03</pdfrwt>
<pdfrwt beam="2">  1       -2 0.35398541E-01 0.66038424E+03</pdfrwt>
<totfact> 0.28608534E+02</totfact>
</mgrwt>
</event>
<event>
 4    1  0.6502538E-008  0.1357582E+04  0.7818608E-02  0.9017363E-01
          2   -1    0    0  501    0  0.00000000000E+00  0.00000000000E+00  0.13947534960E+04  0.13947534960E+04  0.25500000000E-02 0. -1.
         -2   -1    0    0    0  501 -0.00000000000E+00 -0.00000000000E+00 -0.26402785473E+04  0.26402785473E+04  0.25500000000E-02 0.  1.
    8880023    1    1    2    0    0 -0.39158627491E+03  0.11206604212E+04  0.86428605450E+03  0.16093539638E+04  0.65864270000E+03 0.  0.
    8880022    1    1    2    0    0  0.39158627491E+03 -0.11206604212E+04 -0.21098111059E+04  0.24256780796E+04  0.15294330000E+03 0.  0.
<mgrwt>
<rscale>  0 0.13154995E+04</rscale>
<asrwt>0</asrwt>
<pdfrwt beam="1">  1        2 0.21457746E+00 0.13575823E+04</pdfrwt>
<pdfrwt beam="2">  1       -2 0.40619670E+00 0.13575823E+04</pdfrwt>
<totfact> 0.94694212E-02</totfact>
</mgrwt>
</event>
<event>
 4    1  0.6502538E-008  0.9313183E+03  0.7818608E-02  0.9477518E-01
          2   -1    0    0  501    0  0.00000000000E+00  0.00000000000E+00  0.51318288081E+03  0.51318288082E+03  0.25500000000E-02 0. -1.
         -2   -1    0    0    0  501 -0.00000000000E+00 -0.00000000000E+00 -0.24577304445E+04  0.24577304445E+04  0.25500000000E-02 0.  1.
    8880023    1    1    2    0    0  0.65612670276E+03  0.55148425197E+02 -0.20464523842E+02  0.93154312937E+03  0.65864270000E+03 0. -1.
    8880022    1    1    2    0    0 -0.65612670276E+03 -0.55148425197E+02 -0.19240830398E+04  0.20393701959E+04  0.15294330000E+03 0.  0.
<mgrwt>
<rscale>  0 0.85961788E+03</rscale>
<asrwt>0</asrwt>
<pdfrwt beam="1">  1        2 0.78951214E-01 0.93131832E+03</pdfrwt>
<pdfrwt beam="2">  1       -2 0.37811237E+00 0.93131832E+03</pdfrwt>
<totfact> 0.63248277E-01</totfact>
</mgrwt>
</event>
<event>
 4    1  0.6502538E-008  0.7079740E+03  0.7818608E-02  0.9965603E-01
         -2   -1    0    0    0  501 -0.00000000000E+00  0.00000000000E+00  0.95607740512E+03  0.95607740513E+03  0.25500000000E-02 0.  1.
          2   -1    0    0  501    0  0.00000000000E+00 -0.00000000000E+00 -0.41085212406E+03  0.41085212406E+03  0.25500000000E-02 0. -1.
    8880023    1    1    2    0    0 -0.21972109390E+03 -0.13834586690E+03 -0.39548518347E+02  0.70907773168E+03  0.65864270000E+03 0. -1.
    8880022    1    1    2    0    0  0.21972109390E+03  0.13834586690E+03  0.58477379941E+03  0.65785179751E+03  0.15294330000E+03 0.  0.
<mgrwt>
<rscale>  0 0.57184567E+03</rscale>
<asrwt>0</asrwt>
<pdfrwt beam="1">  1        2 0.63208021E-01 0.70797397E+03</pdfrwt>
<pdfrwt beam="2">  1       -2 0.14708883E+00 0.70797397E+03</pdfrwt>
<totfact> 0.24739628E+01</totfact>
</mgrwt>
</event>
<event>
 4    1  0.6502538E-008  0.8771499E+03  0.7818608E-02  0.9563756E-01
         -2   -1    0    0    0  501 -0.00000000000E+00  0.00000000000E+00  0.38790749091E+03  0.38790749092E+03  0.25500000000E-02 0.  1.
          2   -1    0    0  501    0  0.00000000000E+00 -0.00000000000E+00 -0.23740085259E+04  0.23740085259E+04  0.25500000000E-02 0. -1.
    8880023    1    1    2    0    0 -0.45508009480E+02  0.57750391678E+03 -0.19768362271E+04  0.21627004943E+04  0.65864270000E+03 0.  0.
    8880022    1    1    2    0    0  0.45508009480E+02 -0.57750391678E+03 -0.92648079034E+01  0.59921552258E+03  0.15294330000E+03 0.  0.
<mgrwt>
<rscale>  0 0.79742189E+03</rscale>
<asrwt>0</asrwt>
<pdfrwt beam="1">  1        2 0.36523207E+00 0.87714991E+03</pdfrwt>
<pdfrwt beam="2">  1       -2 0.59678077E-01 0.87714991E+03</pdfrwt>
<totfact> 0.11049805E+01</totfact>
</mgrwt>
</event>
<event>
 4    1  0.6502538E-008  0.9087086E+03  0.7818608E-02  0.9512194E-01
          2   -1    0    0  501    0  0.00000000000E+00  0.00000000000E+00  0.15620277981E+04  0.15620277981E+04  0.25500000000E-02 0. -1.
         -2   -1    0    0    0  501 -0.00000000000E+00 -0.00000000000E+00 -0.71241602226E+03  0.71241602226E+03  0.25500000000E-02 0.  1.
    8880023    1    1    2    0    0 -0.53031948703E+03 -0.33271967586E+03  0.12275812234E+04  0.15273202046E+04  0.65864270000E+03 0.  0.
    8880022    1    1    2    0    0  0.53031948703E+03  0.33271967586E+03 -0.37796944752E+03  0.74712361581E+03  0.15294330000E+03 0.  0.
<mgrwt>
<rscale>  0 0.83390775E+03</rscale>
<asrwt>0</asrwt>
<pdfrwt beam="1">  1        2 0.24031197E+00 0.90870862E+03</pdfrwt>
<pdfrwt beam="2">  1       -2 0.10960247E+00 0.90870862E+03</pdfrwt>
<totfact> 0.78044215E+00</totfact>
</mgrwt>
</event>
<event>
 4    1  0.6502538E-008  0.1091066E+04  0.7818608E-02  0.9271069E-01
          2   -1    0    0  501    0  0.00000000000E+00  0.00000000000E+00  0.91124871531E+03  0.91124871531E+03  0.25500000000E-02 0. -1.
         -2   -1    0    0    0  501 -0.00000000000E+00 -0.00000000000E+00 -0.21067000410E+04  0.21067000410E+04  0.25500000000E-02 0.  1.
    8880023    1    1    2    0    0  0.58814181883E+03 -0.64086159268E+03  0.42623309804E+03  0.11713663988E+04  0.65864270000E+03 0. -1.
    8880022    1    1    2    0    0 -0.58814181883E+03  0.64086159268E+03 -0.16216844238E+04  0.18465823576E+04  0.15294330000E+03 0.  0.
<mgrwt>
<rscale>  0 0.10349049E+04</rscale>
<asrwt>0</asrwt>
<pdfrwt beam="1">  1        2 0.14019211E+00 0.10910658E+04</pdfrwt>
<pdfrwt beam="2">  1       -2 0.32410770E+00 0.10910658E+04</pdfrwt>
<totfact> 0.64743970E-01</totfact>
</mgrwt>
</event>
<event>
 4    1  0.7830682E-008  0.1079629E+04  0.7818608E-02  0.9284083E-01
         -2   -1    0    0    0  501 -0.00000000000E+00  0.00000000000E+00  0.20418354898E+04  0.20418354898E+04  0.25500000000E-02 0.  1.
          2   -1    0    0  501    0  0.00000000000E+00 -0.00000000000E+00 -0.16605608853E+04  0.16605608853E+04  0.25500000000E-02 0. -1.
    8880023    1    1    2    0    0  0.53784594330E+02 -0.85375348911E+03 -0.13718380131E+04  0.17457197780E+04  0.65864270000E+03 0.  0.
    8880022    1    1    2    0    0 -0.53784594330E+02  0.85375348911E+03  0.17531126176E+04  0.19566765972E+04  0.15294330000E+03 0.  0.
<mgrwt>
<rscale>  0 0.10226148E+04</rscale>
<asrwt>0</asrwt>
<pdfrwt beam="1">  1        2 0.25547091E+00 0.10796286E+04</pdfrwt>
<pdfrwt beam="2">  1       -2 0.31412854E+00 0.10796286E+04</pdfrwt>
<totfact> 0.26720198E-01</totfact>
</mgrwt>
</event>
<event>
 4    1  0.6502538E-008  0.9894529E+03  0.7818608E-02  0.9395488E-01
         -2   -1    0    0    0  501 -0.00000000000E+00  0.00000000000E+00  0.14494642980E+04  0.14494642980E+04  0.25500000000E-02 0.  1.
          2   -1    0    0  501    0  0.00000000000E+00 -0.00000000000E+00 -0.83638212139E+03  0.83638212139E+03  0.25500000000E-02 0. -1.
    8880023    1    1    2    0    0 -0.68295236424E+03  0.28068281255E+03  0.10266353549E+04  0.14258320838E+04  0.65864270000E+03 0.  1.
    8880022    1    1    2    0    0  0.68295236424E+03 -0.28068281255E+03 -0.41355317829E+03  0.86001433556E+03  0.15294330000E+03 0.  0.
<mgrwt>
<rscale>  0 0.92447898E+03</rscale>
<asrwt>0</asrwt>
<pdfrwt beam="1">  1        2 0.12867417E+00 0.98945287E+03</pdfrwt>
<pdfrwt beam="2">  1       -2 0.22299451E+00 0.98945287E+03</pdfrwt>
<totfact> 0.30562819E+00</totfact>
</mgrwt>
</event>
<event>
 4    1  0.6502538E-008  0.6771587E+03  0.7818608E-02  0.1010979E+00
         -2   -1    0    0    0  501 -0.00000000000E+00  0.00000000000E+00  0.25575496176E+03  0.25575496177E+03  0.25500000000E-02 0.  1.
          2   -1    0    0  501    0  0.00000000000E+00 -0.00000000000E+00 -0.11455476609E+04  0.11455476609E+04  0.25500000000E-02 0. -1.
    8880023    1    1    2    0    0  0.15682800420E+03  0.11774136095E+02 -0.95656589080E+03  0.11719906838E+04  0.65864270000E+03 0. -1.
    8880022    1    1    2    0    0 -0.15682800420E+03 -0.11774136095E+02  0.66773191647E+02  0.22931193889E+03  0.15294330000E+03 0.  0.
<mgrwt>
<rscale>  0 0.51087485E+03</rscale>
<asrwt>0</asrwt>
<pdfrwt beam="1">  1        2 0.17623810E+00 0.67715867E+03</pdfrwt>
<pdfrwt beam="2">  1       -2 0.39346918E-01 0.67715867E+03</pdfrwt>
<totfact> 0.12717896E+02</totfact>
</mgrwt>
</event>
<event>
 4    1  0.6502538E-008  0.1071457E+04  0.7818608E-02  0.9293521E-01
          2   -1    0    0  501    0  0.00000000000E+00  0.00000000000E+00  0.91515250786E+03  0.91515250786E+03  0.25500000000E-02 0. -1.
         -2   -1    0    0    0  501 -0.00000000000E+00 -0.00000000000E+00 -0.14229636670E+04  0.14229636670E+04  0.25500000000E-02 0.  1.
    8880023    1    1    2    0    0  0.27034723080E+03  0.80070117708E+03  0.34713288918E+03  0.11262865751E+04  0.65864270000E+03 0.  0.
    8880022    1    1    2    0    0 -0.27034723080E+03 -0.80070117708E+03 -0.85494404833E+03  0.12118295998E+04  0.15294330000E+03 0.  0.
<mgrwt>
<rscale>  0 0.10138152E+04</rscale>
<asrwt>0</asrwt>
<pdfrwt beam="1">  1        2 0.14079269E+00 0.10714570E+04</pdfrwt>
<pdfrwt beam="2">  1       -2 0.21891749E+00 0.10714570E+04</pdfrwt>
<totfact> 0.28357191E+00</totfact>
</mgrwt>
</event>
<event>
 4    1  0.6502538E-008  0.1415135E+04  0.7818608E-02  0.8972011E-01
         -2   -1    0    0    0  501 -0.00000000000E+00  0.00000000000E+00  0.13098328015E+04  0.13098328015E+04  0.25500000000E-02 0.  1.
          2   -1    0    0  501    0  0.00000000000E+00 -0.00000000000E+00 -0.15594223408E+04  0.15594223408E+04  0.25500000000E-02 0. -1.
    8880023    1    1    2    0    0  0.19245262985E+02 -0.12523683257E+04 -0.63330616662E+03  0.15503817950E+04  0.65864270000E+03 0.  0.
    8880022    1    1    2    0    0 -0.19245262985E+02  0.12523683257E+04  0.38371662734E+03  0.13188733474E+04  0.15294330000E+03 0.  0.
<mgrwt>
<rscale>  0 0.13751425E+04</rscale>
<asrwt>0</asrwt>
<pdfrwt beam="1">  1        2 0.23991113E+00 0.14151350E+04</pdfrwt>
<pdfrwt beam="2">  1       -2 0.20151274E+00 0.14151350E+04</pdfrwt>
<totfact> 0.14497806E+00</totfact>
</mgrwt>
</event>
<event>
 4    1  0.6502538E-008  0.1356593E+04  0.7818608E-02  0.9018167E-01
          2   -1    0    0  501    0  0.00000000000E+00  0.00000000000E+00  0.13109822905E+04  0.13109822905E+04  0.25500000000E-02 0. -1.
         -2   -1    0    0    0  501 -0.00000000000E+00 -0.00000000000E+00 -0.13051879931E+04  0.13051879931E+04  0.25500000000E-02 0.  1.
    8880023    1    1    2    0    0 -0.85153494109E+03 -0.82548272574E+03  0.28959663062E+03  0.13871589315E+04  0.65864270000E+03 0.  0.
    8880022    1    1    2    0    0  0.85153494109E+03  0.82548272574E+03 -0.28380233320E+03  0.12290113522E+04  0.15294330000E+03 0.  0.
<mgrwt>
<rscale>  0 0.13144718E+04</rscale>
<asrwt>0</asrwt>
<pdfrwt beam="1">  1        2 0.20168958E+00 0.13565927E+04</pdfrwt>
<pdfrwt beam="2">  1       -2 0.20079815E+00 0.13565927E+04</pdfrwt>
<totfact> 0.20464289E+00</totfact>
</mgrwt>
</event>
<event>
 4    1  0.6502538E-008  0.1465046E+04  0.7818608E-02  0.8934721E-01
         -2   -1    0    0    0  501 -0.00000000000E+00  0.00000000000E+00  0.11649098158E+04  0.11649098158E+04  0.25500000000E-02 0.  1.
          2   -1    0    0  501    0  0.00000000000E+00 -0.00000000000E+00 -0.18622414504E+04  0.18622414504E+04  0.25500000000E-02 0. -1.
    8880023    1    1    2    0    0 -0.45817708064E+03 -0.12258154980E+04 -0.86124669895E+03  0.16994428367E+04  0.65864270000E+03 0. -1.
    8880022    1    1    2    0    0  0.45817708064E+03  0.12258154980E+04  0.16391506441E+03  0.13277084295E+04  0.15294330000E+03 0.  0.
<mgrwt>
<rscale>  0 0.14266924E+04</rscale>
<asrwt>0</asrwt>
<pdfrwt beam="1">  1        2 0.28649868E+00 0.14650461E+04</pdfrwt>
<pdfrwt beam="2">  1       -2 0.17921689E+00 0.14650461E+04</pdfrwt>
<totfact> 0.13821688E+00</totfact>
</mgrwt>
</event>
<event>
 4    1  0.6502538E-008  0.7207737E+03  0.7818608E-02  0.9919977E-01
          2   -1    0    0  501    0  0.00000000000E+00  0.00000000000E+00  0.84063894817E+03  0.84063894817E+03  0.25500000000E-02 0. -1.
         -2   -1    0    0    0  501 -0.00000000000E+00 -0.00000000000E+00 -0.88640687591E+03  0.88640687591E+03  0.25500000000E-02 0.  1.
    8880023    1    1    2    0    0 -0.10269506597E+03 -0.27415005504E+03  0.64126083220E+03  0.96474358792E+03  0.65864270000E+03 0. -1.
    8880022    1    1    2    0    0  0.10269506597E+03  0.27415005504E+03 -0.68702875995E+03  0.76230223617E+03  0.15294330000E+03 0.  0.
<mgrwt>
<rscale>  0 0.59302827E+03</rscale>
<asrwt>0</asrwt>
<pdfrwt beam="1">  1        2 0.12932907E+00 0.72077371E+03</pdfrwt>
<pdfrwt beam="2">  1       -2 0.13637029E+00 0.72077371E+03</pdfrwt>
<totfact> 0.12623256E+01</totfact>
</mgrwt>
</event>
<event>
 4    1  0.6502538E-008  0.1026637E+04  0.7818608E-02  0.9347509E-01
         -2   -1    0    0    0  501 -0.00000000000E+00  0.00000000000E+00  0.75593325506E+03  0.75593325507E+03  0.25500000000E-02 0.  1.
          2   -1    0    0  501    0  0.00000000000E+00 -0.00000000000E+00 -0.25681093059E+04  0.25681093059E+04  0.25500000000E-02 0. -1.
    8880023    1    1    2    0    0 -0.62891863052E+03  0.47395598639E+03 -0.22038998260E+04  0.24312872250E+04  0.65864270000E+03 0.  0.
    8880022    1    1    2    0    0  0.62891863052E+03 -0.47395598639E+03  0.39172377521E+03  0.89275533598E+03  0.15294330000E+03 0.  0.
<mgrwt>
<rscale>  0 0.96524295E+03</rscale>
<asrwt>0</asrwt>
<pdfrwt beam="1">  1        2 0.39509374E+00 0.10266368E+04</pdfrwt>
<pdfrwt beam="2">  1       -2 0.11629742E+00 0.10266368E+04</pdfrwt>
<totfact> 0.18313509E+00</totfact>
</mgrwt>
</event>
<event>
 4    1  0.6502538E-008  0.7599067E+03  0.7818608E-02  0.9805349E-01
          2   -1    0    0  501    0  0.00000000000E+00  0.00000000000E+00  0.27004559873E+04  0.27004559873E+04  0.25500000000E-02 0. -1.
         -2   -1    0    0    0  501 -0.00000000000E+00 -0.00000000000E+00 -0.21595478923E+03  0.21595478925E+03  0.25500000000E-02 0.  1.
    8880023    1    1    2    0    0  0.36081491439E+03  0.11601963587E+03  0.23745423627E+04  0.24931725967E+04  0.65864270000E+03 0.  0.
    8880022    1    1    2    0    0 -0.36081491439E+03 -0.11601963587E+03  0.10995883529E+03  0.42323817978E+03  0.15294330000E+03 0.  0.
<mgrwt>
<rscale>  0 0.65076267E+03</rscale>
<asrwt>0</asrwt>
<pdfrwt beam="1">  1        2 0.41545477E+00 0.75990668E+03</pdfrwt>
<pdfrwt beam="2">  1       -2 0.33223814E-01 0.75990668E+03</pdfrwt>
<totfact> 0.23536667E+01</totfact>
</mgrwt>
</event>
<event>
 4    1  0.6502538E-008  0.9314701E+03  0.7818608E-02  0.9477291E-01
         -2   -1    0    0    0  501 -0.00000000000E+00  0.00000000000E+00  0.44425134696E+03  0.44425134697E+03  0.25500000000E-02 0.  1.
          2   -1    0    0  501    0  0.00000000000E+00 -0.00000000000E+00 -0.26456193470E+04  0.26456193470E+04  0.25500000000E-02 0. -1.
    8880023    1    1    2    0    0  0.15468531638E+03 -0.64023339743E+03 -0.22262225846E+04  0.24132350803E+04  0.65864270000E+03 0. -1.
    8880022    1    1    2    0    0 -0.15468531638E+03  0.64023339743E+03  0.24854584581E+02  0.67663561367E+03  0.15294330000E+03 0.  0.
<mgrwt>
<rscale>  0 0.85978944E+03</rscale>
<asrwt>0</asrwt>
<pdfrwt beam="1">  1        2 0.40701835E+00 0.93147011E+03</pdfrwt>
<pdfrwt beam="2">  1       -2 0.68346363E-01 0.93147011E+03</pdfrwt>
<totfact> 0.57352870E+00</totfact>
</mgrwt>
</event>
<event>
 4    1  0.6502538E-008  0.8936715E+03  0.7818608E-02  0.9536268E-01
         -2   -1    0    0    0  501 -0.00000000000E+00  0.00000000000E+00  0.17111815566E+04  0.17111815566E+04  0.25500000000E-02 0.  1.
          2   -1    0    0  501    0  0.00000000000E+00 -0.00000000000E+00 -0.85261424514E+03  0.85261424515E+03  0.25500000000E-02 0. -1.
    8880023    1    1    2    0    0 -0.35606643351E+03 -0.48790897134E+03 -0.53198608169E+03  0.10400278202E+04  0.65864270000E+03 0. -1.
    8880022    1    1    2    0    0  0.35606643351E+03  0.48790897134E+03  0.13905533931E+04  0.15237679815E+04  0.15294330000E+03 0.  0.
<mgrwt>
<rscale>  0 0.81661917E+03</rscale>
<asrwt>0</asrwt>
<pdfrwt beam="1">  1        2 0.13117142E+00 0.89367146E+03</pdfrwt>
<pdfrwt beam="2">  1       -2 0.26325870E+00 0.89367146E+03</pdfrwt>
<totfact> 0.17060982E+00</totfact>
</mgrwt>
</event>
<event>
 4    1  0.6502538E-008  0.9655877E+03  0.7818608E-02  0.9428033E-01
          2   -1    0    0  501    0  0.00000000000E+00  0.00000000000E+00  0.21294561779E+04  0.21294561779E+04  0.25500000000E-02 0. -1.
         -2   -1    0    0    0  501 -0.00000000000E+00 -0.00000000000E+00 -0.43322652673E+03  0.43322652674E+03  0.25500000000E-02 0.  1.
    8880023    1    1    2    0    0  0.69752388741E+03  0.10958902746E+03  0.15491038185E+04  0.18253991824E+04  0.65864270000E+03 0.  0.
    8880022    1    1    2    0    0 -0.69752388741E+03 -0.10958902746E+03  0.14712583265E+03  0.73728352219E+03  0.15294330000E+03 0.  0.
<mgrwt>
<rscale>  0 0.89804160E+03</rscale>
<asrwt>0</asrwt>
<pdfrwt beam="1">  1        2 0.32760864E+00 0.96558766E+03</pdfrwt>
<pdfrwt beam="2">  1       -2 0.66650234E-01 0.96558766E+03</pdfrwt>
<totfact> 0.11804911E+01</totfact>
</mgrwt>
</event>
<event>
 4    1  0.6502538E-008  0.1033111E+04  0.7818608E-02  0.9339466E-01
         -2   -1    0    0    0  501 -0.00000000000E+00  0.00000000000E+00  0.63834012817E+03  0.63834012818E+03  0.25500000000E-02 0.  1.
          2   -1    0    0  501    0  0.00000000000E+00 -0.00000000000E+00 -0.19409437969E+04  0.19409437969E+04  0.25500000000E-02 0. -1.
    8880023    1    1    2    0    0  0.91256035187E+02  0.79068305963E+03 -0.14244823724E+04  0.17596782661E+04  0.65864270000E+03 0.  0.
    8880022    1    1    2    0    0 -0.91256035187E+02 -0.79068305963E+03  0.12187870368E+03  0.81960565894E+03  0.15294330000E+03 0.  0.
<mgrwt>
<rscale>  0 0.97229365E+03</rscale>
<asrwt>0</asrwt>
<pdfrwt beam="1">  1        2 0.29860674E+00 0.10331106E+04</pdfrwt>
<pdfrwt beam="2">  1       -2 0.98206174E-01 0.10331106E+04</pdfrwt>
<totfact> 0.61879405E+00</totfact>
</mgrwt>
</event>
<event>
 4    1  0.6502538E-008  0.7343154E+03  0.7818608E-02  0.9876826E-01
         -2   -1    0    0    0  501 -0.00000000000E+00  0.00000000000E+00  0.17711606594E+03  0.17711606596E+03  0.25500000000E-02 0.  1.
          2   -1    0    0  501    0  0.00000000000E+00 -0.00000000000E+00 -0.20014725620E+04  0.20014725620E+04  0.25500000000E-02 0. -1.
    8880023    1    1    2    0    0  0.15703177765E+03 -0.28416519599E+03 -0.15860370714E+04  0.17477793442E+04  0.65864270000E+03 0. -1.
    8880022    1    1    2    0    0 -0.15703177765E+03  0.28416519599E+03 -0.23831942463E+03  0.43080928376E+03  0.15294330000E+03 0.  0.
<mgrwt>
<rscale>  0 0.61397636E+03</rscale>
<asrwt>0</asrwt>
<pdfrwt beam="1">  1        2 0.30791884E+00 0.73431536E+03</pdfrwt>
<pdfrwt beam="2">  1       -2 0.27248627E-01 0.73431536E+03</pdfrwt>
<totfact> 0.84049211E+01</totfact>
</mgrwt>
</event>
<event>
 4    1  0.6502538E-008  0.7950550E+03  0.7818608E-02  0.9721592E-01
          2   -1    0    0  501    0  0.00000000000E+00  0.00000000000E+00  0.94333369206E+03  0.94333369206E+03  0.25500000000E-02 0. -1.
         -2   -1    0    0    0  501 -0.00000000000E+00 -0.00000000000E+00 -0.54204537500E+03  0.54204537500E+03  0.25500000000E-02 0.  1.
    8880023    1    1    2    0    0  0.42316849560E+03  0.13867497812E+03  0.57748186562E+03  0.98264837893E+03  0.65864270000E+03 0. -1.
    8880022    1    1    2    0    0 -0.42316849560E+03 -0.13867497812E+03 -0.17619354856E+03  0.50273068814E+03  0.15294330000E+03 0.  0.
<mgrwt>
<rscale>  0 0.69745652E+03</rscale>
<asrwt>0</asrwt>
<pdfrwt beam="1">  1        2 0.14512826E+00 0.79505505E+03</pdfrwt>
<pdfrwt beam="2">  1       -2 0.83391597E-01 0.79505505E+03</pdfrwt>
<totfact> 0.34904545E+01</totfact>
</mgrwt>
</event>
<event>
 4    1  0.6502538E-008  0.7358167E+03  0.7818608E-02  0.9872304E-01
         -2   -1    0    0    0  501 -0.00000000000E+00  0.00000000000E+00  0.15591774274E+03  0.15591774276E+03  0.25500000000E-02 0.  1.
          2   -1    0    0  501    0  0.00000000000E+00 -0.00000000000E+00 -0.20929120288E+04  0.20929120288E+04  0.25500000000E-02 0. -1.
    8880023    1    1    2    0    0  0.24913035634E+03  0.21342480415E+03 -0.15673973506E+04  0.17315197782E+04  0.65864270000E+03 0. -1.
    8880022    1    1    2    0    0 -0.24913035634E+03 -0.21342480415E+03 -0.36959693547E+03  0.51730999333E+03  0.15294330000E+03 0.  0.
<mgrwt>
<rscale>  0 0.61622508E+03</rscale>
<asrwt>0</asrwt>
<pdfrwt beam="1">  1        2 0.32198645E+00 0.73581675E+03</pdfrwt>
<pdfrwt beam="2">  1       -2 0.23987347E-01 0.73581675E+03</pdfrwt>
<totfact> 0.94338845E+01</totfact>
</mgrwt>
</event>
<event>
 4    1  0.6502538E-008  0.9300265E+03  0.7818608E-02  0.9479453E-01
         -2   -1    0    0    0  501 -0.00000000000E+00  0.00000000000E+00  0.15823971018E+04  0.15823971018E+04  0.25500000000E-02 0.  1.
          2   -1    0    0  501    0  0.00000000000E+00 -0.00000000000E+00 -0.19261631292E+04  0.19261631292E+04  0.25500000000E-02 0. -1.
    8880023    1    1    2    0    0 -0.36488734749E+03  0.54589038731E+03 -0.17316483884E+04  0.19655928975E+04  0.65864270000E+03 0. -1.
    8880022    1    1    2    0    0  0.36488734749E+03 -0.54589038731E+03  0.13878823609E+04  0.15429673335E+04  0.15294330000E+03 0.  0.
<mgrwt>
<rscale>  0 0.85815730E+03</rscale>
<asrwt>0</asrwt>
<pdfrwt beam="1">  1        2 0.29633279E+00 0.93002650E+03</pdfrwt>
<pdfrwt beam="2">  1       -2 0.24344571E+00 0.93002650E+03</pdfrwt>
<totfact> 0.52497738E-01</totfact>
</mgrwt>
</event>
<event>
 4    1  0.6502538E-008  0.7128302E+03  0.7818608E-02  0.9947638E-01
         -2   -1    0    0    0  501 -0.00000000000E+00  0.00000000000E+00  0.37564520992E+03  0.37564520993E+03  0.25500000000E-02 0.  1.
          2   -1    0    0  501    0  0.00000000000E+00 -0.00000000000E+00 -0.85787204170E+03  0.85787204170E+03  0.25500000000E-02 0. -1.
    8880023    1    1    2    0    0  0.13021254630E+03 -0.23950239316E+03 -0.56565054812E+03  0.90999310568E+03  0.65864270000E+03 0. -1.
    8880022    1    1    2    0    0 -0.13021254630E+03  0.23950239316E+03  0.83423716340E+02  0.32352414594E+03  0.15294330000E+03 0.  1.
<mgrwt>
<rscale>  0 0.58007084E+03</rscale>
<asrwt>0</asrwt>
<pdfrwt beam="1">  1        2 0.13198031E+00 0.71283021E+03</pdfrwt>
<pdfrwt beam="2">  1       -2 0.57791571E-01 0.71283021E+03</pdfrwt>
<totfact> 0.89229813E+01</totfact>
</mgrwt>
</event>
<event>
 4    1  0.6502538E-008  0.1294418E+04  0.7818608E-02  0.9070395E-01
          2   -1    0    0  501    0  0.00000000000E+00  0.00000000000E+00  0.32985113894E+04  0.32985113894E+04  0.25500000000E-02 0. -1.
         -2   -1    0    0    0  501 -0.00000000000E+00 -0.00000000000E+00 -0.56904161947E+03  0.56904161947E+03  0.25500000000E-02 0.  1.
    8880023    1    1    2    0    0 -0.11100679697E+04  0.97247938154E+02  0.23456472630E+04  0.26791004736E+04  0.65864270000E+03 0.  0.
    8880022    1    1    2    0    0  0.11100679697E+04 -0.97247938154E+02  0.38382250699E+03  0.11884525353E+04  0.15294330000E+03 0.  0.
<mgrwt>
<rscale>  0 0.12497454E+04</rscale>
<asrwt>0</asrwt>
<pdfrwt beam="1">  1        2 0.50746329E+00 0.12944181E+04</pdfrwt>
<pdfrwt beam="2">  1       -2 0.87544865E-01 0.12944181E+04</pdfrwt>
<totfact> 0.12392630E+00</totfact>
</mgrwt>
</event>
<event>
 4    1  0.6502538E-008  0.1122555E+04  0.7818608E-02  0.9236349E-01
         -2   -1    0    0    0  501 -0.00000000000E+00  0.00000000000E+00  0.17440305617E+04  0.17440305617E+04  0.25500000000E-02 0.  1.
          2   -1    0    0  501    0  0.00000000000E+00 -0.00000000000E+00 -0.16055755805E+04  0.16055755805E+04  0.25500000000E-02 0. -1.
    8880023    1    1    2    0    0  0.13482154630E+02 -0.90892172474E+03 -0.12518689448E+04  0.16814596431E+04  0.65864270000E+03 0. -1.
    8880022    1    1    2    0    0 -0.13482154630E+02  0.90892172474E+03  0.13903239260E+04  0.16681464991E+04  0.15294330000E+03 0.  0.
<mgrwt>
<rscale>  0 0.10685991E+04</rscale>
<asrwt>0</asrwt>
<pdfrwt beam="1">  1        2 0.24701163E+00 0.11225554E+04</pdfrwt>
<pdfrwt beam="2">  1       -2 0.26831239E+00 0.11225554E+04</pdfrwt>
<totfact> 0.54031238E-01</totfact>
</mgrwt>
</event>
<event>
 4    1  0.6502538E-008  0.1610854E+04  0.7818608E-02  0.8835082E-01
          2   -1    0    0  501    0  0.00000000000E+00  0.00000000000E+00  0.24035013233E+04  0.24035013233E+04  0.25500000000E-02 0. -1.
         -2   -1    0    0    0  501 -0.00000000000E+00 -0.00000000000E+00 -0.19154589841E+04  0.19154589841E+04  0.25500000000E-02 0.  1.
    8880023    1    1    2    0    0  0.10241214525E+04 -0.10546157865E+04  0.17478330172E+04  0.23769244138E+04  0.65864270000E+03 0.  0.
    8880022    1    1    2    0    0 -0.10241214525E+04  0.10546157865E+04 -0.12597906780E+04  0.19420358936E+04  0.15294330000E+03 0.  0.
<mgrwt>
<rscale>  0 0.15765558E+04</rscale>
<asrwt>0</asrwt>
<pdfrwt beam="1">  1        2 0.36976943E+00 0.16108536E+04</pdfrwt>
<pdfrwt beam="2">  1       -2 0.29468600E+00 0.16108536E+04</pdfrwt>
<totfact> 0.12539475E-01</totfact>
</mgrwt>
</event>
<event>
 4    1  0.6502538E-008  0.1324187E+04  0.7818608E-02  0.9044949E-01
          2   -1    0    0  501    0  0.00000000000E+00  0.00000000000E+00  0.31703337315E+04  0.31703337315E+04  0.25500000000E-02 0. -1.
         -2   -1    0    0    0  501 -0.00000000000E+00 -0.00000000000E+00 -0.55855259582E+03  0.55855259582E+03  0.25500000000E-02 0.  1.
    8880023    1    1    2    0    0 -0.30505519461E+03 -0.11075206169E+04  0.20512728668E+04  0.24415550719E+04  0.65864270000E+03 0. -1.
    8880022    1    1    2    0    0  0.30505519461E+03  0.11075206169E+04  0.56050826882E+03  0.12873312554E+04  0.15294330000E+03 0.  1.
<mgrwt>
<rscale>  0 0.12807771E+04</rscale>
<asrwt>0</asrwt>
<pdfrwt beam="1">  1        2 0.48774364E+00 0.13241868E+04</pdfrwt>
<pdfrwt beam="2">  1       -2 0.85931170E-01 0.13241868E+04</pdfrwt>
<totfact> 0.15619515E+00</totfact>
</mgrwt>
</event>
<event>
 4    1  0.6502538E-008  0.7597857E+03  0.7818608E-02  0.9805663E-01
         -2   -1    0    0    0  501 -0.00000000000E+00  0.00000000000E+00  0.21537769193E+03  0.21537769194E+03  0.25500000000E-02 0.  1.
          2   -1    0    0  501    0  0.00000000000E+00 -0.00000000000E+00 -0.18568812068E+04  0.18568812068E+04  0.25500000000E-02 0. -1.
    8880023    1    1    2    0    0  0.28580530316E+03 -0.24855464875E+03 -0.14127195826E+04  0.16040732247E+04  0.65864270000E+03 0.  0.
    8880022    1    1    2    0    0 -0.28580530316E+03  0.24855464875E+03 -0.22878393225E+03  0.46818567407E+03  0.15294330000E+03 0.  0.
<mgrwt>
<rscale>  0 0.65059538E+03</rscale>
<asrwt>0</asrwt>
<pdfrwt beam="1">  1        2 0.28567402E+00 0.75978569E+03</pdfrwt>
<pdfrwt beam="2">  1       -2 0.33135031E-01 0.75978569E+03</pdfrwt>
<totfact> 0.69891194E+01</totfact>
</mgrwt>
</event>
<event>
 4    1  0.6502538E-008  0.9611623E+03  0.7818608E-02  0.9434233E-01
          2   -1    0    0  501    0  0.00000000000E+00  0.00000000000E+00  0.20096868927E+04  0.20096868927E+04  0.25500000000E-02 0. -1.
         -2   -1    0    0    0  501 -0.00000000000E+00 -0.00000000000E+00 -0.62187027488E+03  0.62187027488E+03  0.25500000000E-02 0.  1.
    8880023    1    1    2    0    0 -0.40913802868E+03 -0.56800433208E+03  0.16154281879E+04  0.18797450052E+04  0.65864270000E+03 0.  0.
    8880022    1    1    2    0    0  0.40913802868E+03  0.56800433208E+03 -0.22761157008E+03  0.75181216246E+03  0.15294330000E+03 0.  0.
<mgrwt>
<rscale>  0 0.89311231E+03</rscale>
<asrwt>0</asrwt>
<pdfrwt beam="1">  1        2 0.30918260E+00 0.96116235E+03</pdfrwt>
<pdfrwt beam="2">  1       -2 0.95672350E-01 0.96116235E+03</pdfrwt>
<totfact> 0.60840961E+00</totfact>
</mgrwt>
</event>
<event>
 4    1  0.6502538E-008  0.6661815E+03  0.7818608E-02  0.1018562E+00
         -2   -1    0    0    0  501 -0.00000000000E+00  0.00000000000E+00  0.17102689191E+04  0.17102689191E+04  0.25500000000E-02 0.  1.
          2   -1    0    0  501    0  0.00000000000E+00 -0.00000000000E+00 -0.73773346235E+03  0.73773346236E+03  0.25500000000E-02 0. -1.
    8880023    1    1    2    0    0  0.95013364396E+02 -0.30984536854E+02 -0.58088839710E+03  0.88387166325E+03  0.65864270000E+03 0.  0.
    8880022    1    1    2    0    0 -0.95013364396E+02  0.30984536854E+02  0.15534238538E+04  0.15641307182E+04  0.15294330000E+03 0.  0.
<mgrwt>
<rscale>  0 0.48209094E+03</rscale>
<asrwt>0</asrwt>
<pdfrwt beam="1">  1        2 0.11349746E+00 0.66618150E+03</pdfrwt>
<pdfrwt beam="2">  1       -2 0.26311830E+00 0.66618150E+03</pdfrwt>
<totfact> 0.21457665E+00</totfact>
</mgrwt>
</event>
<event>
 4    1  0.6502538E-008  0.1443621E+04  0.7818608E-02  0.8950509E-01
          2   -1    0    0  501    0  0.00000000000E+00  0.00000000000E+00  0.24450493953E+04  0.24450493953E+04  0.25500000000E-02 0. -1.
         -2   -1    0    0    0  501 -0.00000000000E+00 -0.00000000000E+00 -0.10967707122E+04  0.10967707122E+04  0.25500000000E-02 0.  1.
    8880023    1    1    2    0    0 -0.31919962113E+03  0.12443243122E+04 -0.27139252010E+03  0.14689096290E+04  0.65864270000E+03 0.  0.
    8880022    1    1    2    0    0  0.31919962113E+03 -0.12443243122E+04  0.16196712032E+04  0.20729104784E+04  0.15294330000E+03 0.  0.
<mgrwt>
<rscale>  0 0.14045820E+04</rscale>
<asrwt>0</asrwt>
<pdfrwt beam="1">  1        2 0.37616144E+00 0.14436210E+04</pdfrwt>
<pdfrwt beam="2">  1       -2 0.16873396E+00 0.14436210E+04</pdfrwt>
<totfact> 0.77267839E-01</totfact>
</mgrwt>
</event>
<event>
 4    1  0.6502538E-008  0.1371862E+04  0.7818608E-02  0.9005861E-01
          2   -1    0    0  501    0  0.00000000000E+00  0.00000000000E+00  0.21123461024E+04  0.21123461024E+04  0.25500000000E-02 0. -1.
         -2   -1    0    0    0  501 -0.00000000000E+00 -0.00000000000E+00 -0.12694965375E+04  0.12694965375E+04  0.25500000000E-02 0.  1.
    8880023    1    1    2    0    0 -0.10788417809E+04  0.53319389613E+03 -0.59953937155E+03  0.14971482837E+04  0.65864270000E+03 0.  0.
    8880022    1    1    2    0    0  0.10788417809E+04 -0.53319389613E+03  0.14423889365E+04  0.18846943561E+04  0.15294330000E+03 0.  0.
<mgrwt>
<rscale>  0 0.13303199E+04</rscale>
<asrwt>0</asrwt>
<pdfrwt beam="1">  1        2 0.32497632E+00 0.13718621E+04</pdfrwt>
<pdfrwt beam="2">  1       -2 0.19530716E+00 0.13718621E+04</pdfrwt>
<totfact> 0.78680548E-01</totfact>
</mgrwt>
</event>
<event>
 4    1  0.6502538E-008  0.1102861E+04  0.7818608E-02  0.9257877E-01
         -2   -1    0    0    0  501 -0.00000000000E+00  0.00000000000E+00  0.58341095223E+03  0.58341095223E+03  0.25500000000E-02 0.  1.
          2   -1    0    0  501    0  0.00000000000E+00 -0.00000000000E+00 -0.37437795724E+04  0.37437795724E+04  0.25500000000E-02 0. -1.
    8880023    1    1    2    0    0  0.55671602784E+03 -0.68742960628E+03 -0.32432765707E+04  0.34256598371E+04  0.65864270000E+03 0.  0.
    8880022    1    1    2    0    0 -0.55671602784E+03  0.68742960628E+03  0.82907950541E+02  0.90153068751E+03  0.15294330000E+03 0.  0.
<mgrwt>
<rscale>  0 0.10475497E+04</rscale>
<asrwt>0</asrwt>
<pdfrwt beam="1">  1        2 0.57596607E+00 0.11028610E+04</pdfrwt>
<pdfrwt beam="2">  1       -2 0.89755533E-01 0.11028610E+04</pdfrwt>
<totfact> 0.58956835E-01</totfact>
</mgrwt>
</event>
<event>
 4    1  0.6502538E-008  0.8697553E+03  0.7818608E-02  0.9576441E-01
         -2   -1    0    0    0  501 -0.00000000000E+00  0.00000000000E+00  0.63217469148E+03  0.63217469148E+03  0.25500000000E-02 0.  1.
          2   -1    0    0  501    0  0.00000000000E+00 -0.00000000000E+00 -0.14832310186E+04  0.14832310186E+04  0.25500000000E-02 0. -1.
    8880023    1    1    2    0    0  0.18248372176E+03  0.53792536140E+03 -0.11608663384E+04  0.14505464022E+04  0.65864270000E+03 0.  0.
    8880022    1    1    2    0    0 -0.18248372176E+03 -0.53792536140E+03  0.30981001126E+03  0.66485930785E+03  0.15294330000E+03 0.  0.
<mgrwt>
<rscale>  0 0.78875303E+03</rscale>
<asrwt>0</asrwt>
<pdfrwt beam="1">  1        2 0.22818939E+00 0.86975526E+03</pdfrwt>
<pdfrwt beam="2">  1       -2 0.97257645E-01 0.86975526E+03</pdfrwt>
<totfact> 0.11550364E+01</totfact>
</mgrwt>
</event>
<event>
 4    1  0.6502538E-008  0.7375170E+03  0.7818608E-02  0.9867240E-01
          2   -1    0    0  501    0  0.00000000000E+00  0.00000000000E+00  0.69430112775E+03  0.69430112775E+03  0.25500000000E-02 0. -1.
         -2   -1    0    0    0  501 -0.00000000000E+00 -0.00000000000E+00 -0.91129687610E+03  0.91129687610E+03  0.25500000000E-02 0.  1.
    8880023    1    1    2    0    0  0.95930821924E+02  0.31767656022E+03  0.43641146040E+03  0.85696341143E+03  0.65864270000E+03 0.  0.
    8880022    1    1    2    0    0 -0.95930821924E+02 -0.31767656022E+03 -0.65340720875E+03  0.74863459242E+03  0.15294330000E+03 0.  0.
<mgrwt>
<rscale>  0 0.61875594E+03</rscale>
<asrwt>0</asrwt>
<pdfrwt beam="1">  1        2 0.10681556E+00 0.73751700E+03</pdfrwt>
<pdfrwt beam="2">  1       -2 0.14019952E+00 0.73751700E+03</pdfrwt>
<totfact> 0.15048815E+01</totfact>
</mgrwt>
</event>
<event>
 4    1  0.6502538E-008  0.6701941E+03  0.7818608E-02  0.1015524E+00
          2   -1    0    0  501    0  0.00000000000E+00  0.00000000000E+00  0.83381328122E+03  0.83381328122E+03  0.25500000000E-02 0. -1.
         -2   -1    0    0    0  501 -0.00000000000E+00 -0.00000000000E+00 -0.86332114529E+03  0.86332114529E+03  0.25500000000E-02 0.  1.
    8880023    1    1    2    0    0  0.53773014827E+02 -0.11161685702E+03  0.68362227107E+03  0.95733979112E+03  0.65864270000E+03 0. -1.
    8880022    1    1    2    0    0 -0.53773014827E+02  0.11161685702E+03 -0.71313013514E+03  0.73979463539E+03  0.15294330000E+03 0.  0.
<mgrwt>
<rscale>  0 0.49336973E+03</rscale>
<asrwt>0</asrwt>
<pdfrwt beam="1">  1        2 0.12827897E+00 0.67019405E+03</pdfrwt>
<pdfrwt beam="2">  1       -2 0.13281864E+00 0.67019405E+03</pdfrwt>
<totfact> 0.13730831E+01</totfact>
</mgrwt>
</event>
<event>
 4    1  0.6502538E-008  0.7065315E+03  0.7818608E-02  0.9971114E-01
          2   -1    0    0  501    0  0.00000000000E+00  0.00000000000E+00  0.13672127244E+04  0.13672127244E+04  0.25500000000E-02 0. -1.
         -2   -1    0    0    0  501 -0.00000000000E+00 -0.00000000000E+00 -0.54046896581E+03  0.54046896582E+03  0.25500000000E-02 0.  1.
    8880023    1    1    2    0    0  0.82779060149E+02 -0.24191761659E+03  0.12226982460E+04  0.14121535728E+04  0.65864270000E+03 0. -1.
    8880022    1    1    2    0    0 -0.82779060149E+02  0.24191761659E+03 -0.39595448745E+03  0.49552811743E+03  0.15294330000E+03 0.  0.
<mgrwt>
<rscale>  0 0.56935191E+03</rscale>
<asrwt>0</asrwt>
<pdfrwt beam="1">  1        2 0.21034042E+00 0.70653147E+03</pdfrwt>
<pdfrwt beam="2">  1       -2 0.83149073E-01 0.70653147E+03</pdfrwt>
<totfact> 0.19662800E+01</totfact>
</mgrwt>
</event>
<event>
 4    1  0.6502538E-008  0.7114938E+03  0.7818608E-02  0.9952495E-01
         -2   -1    0    0    0  501 -0.00000000000E+00  0.00000000000E+00  0.61905618481E+03  0.61905618481E+03  0.25500000000E-02 0.  1.
          2   -1    0    0  501    0  0.00000000000E+00 -0.00000000000E+00 -0.10542296390E+04  0.10542296390E+04  0.25500000000E-02 0. -1.
    8880023    1    1    2    0    0  0.24410571885E+03 -0.11325010577E+03 -0.87982554481E+03  0.11315106646E+04  0.65864270000E+03 0. -1.
    8880022    1    1    2    0    0 -0.24410571885E+03  0.11325010577E+03  0.44465209065E+03  0.54177515923E+03  0.15294330000E+03 0.  0.
<mgrwt>
<rscale>  0 0.57783223E+03</rscale>
<asrwt>0</asrwt>
<pdfrwt beam="1">  1        2 0.16218918E+00 0.71149378E+03</pdfrwt>
<pdfrwt beam="2">  1       -2 0.95239413E-01 0.71149378E+03</pdfrwt>
<totfact> 0.22015145E+01</totfact>
</mgrwt>
</event>
<event>
 4    1  0.6502538E-008  0.7328896E+03  0.7818608E-02  0.9881165E-01
         -2   -1    0    0    0  501 -0.00000000000E+00  0.00000000000E+00  0.79344941809E+03  0.79344941809E+03  0.25500000000E-02 0.  1.
          2   -1    0    0  501    0  0.00000000000E+00 -0.00000000000E+00 -0.84510846868E+03  0.84510846868E+03  0.25500000000E-02 0. -1.
    8880023    1    1    2    0    0 -0.31586563636E+03 -0.59546643667E+02 -0.62533673346E+03  0.96341742743E+03  0.65864270000E+03 0. -1.
    8880022    1    1    2    0    0  0.31586563636E+03  0.59546643667E+02  0.57367768287E+03  0.67514045934E+03  0.15294330000E+03 0.  0.
<mgrwt>
<rscale>  0 0.61182842E+03</rscale>
<asrwt>0</asrwt>
<pdfrwt beam="1">  1        2 0.13001669E+00 0.73288956E+03</pdfrwt>
<pdfrwt beam="2">  1       -2 0.12206914E+00 0.73288956E+03</pdfrwt>
<totfact> 0.16554858E+01</totfact>
</mgrwt>
</event>
<event>
 4    1  0.6502538E-008  0.6669441E+03  0.7818608E-02  0.1017955E+00
          2   -1    0    0  501    0  0.00000000000E+00  0.00000000000E+00  0.29614939825E+04  0.29614939825E+04  0.25500000000E-02 0. -1.
         -2   -1    0    0    0  501 -0.00000000000E+00 -0.00000000000E+00 -0.93755451898E+02  0.93755451933E+02  0.25500000000E-02 0.  1.
    8880023    1    1    2    0    0 -0.80645532416E+02  0.67085767156E+02  0.27627941204E+04  0.28421551260E+04  0.65864270000E+03 0. -1.
    8880022    1    1    2    0    0  0.80645532416E+02 -0.67085767156E+02  0.10494441019E+03  0.21309430846E+03  0.15294330000E+03 0.  0.
<mgrwt>
<rscale>  0 0.48431769E+03</rscale>
<asrwt>0</asrwt>
<pdfrwt beam="1">  1        2 0.45561452E+00 0.66694408E+03</pdfrwt>
<pdfrwt beam="2">  1       -2 0.14423914E-01 0.66694408E+03</pdfrwt>
<totfact> 0.73457671E+01</totfact>
</mgrwt>
</event>
<event>
 4    1  0.6502538E-008  0.9145924E+03  0.7818608E-02  0.9503001E-01
          2   -1    0    0  501    0  0.00000000000E+00  0.00000000000E+00  0.23701463747E+04  0.23701463747E+04  0.25500000000E-02 0. -1.
         -2   -1    0    0    0  501 -0.00000000000E+00 -0.00000000000E+00 -0.41823525646E+03  0.41823525647E+03  0.25500000000E-02 0.  1.
    8880023    1    1    2    0    0 -0.40982985807E+03  0.48446732997E+03  0.19294734812E+04  0.21352628005E+04  0.65864270000E+03 0. -1.
    8880022    1    1    2    0    0  0.40982985807E+03 -0.48446732997E+03  0.22437637042E+02  0.65311883065E+03  0.15294330000E+03 0.  0.
<mgrwt>
<rscale>  0 0.84062953E+03</rscale>
<asrwt>0</asrwt>
<pdfrwt beam="1">  1        2 0.36463789E+00 0.91459243E+03</pdfrwt>
<pdfrwt beam="2">  1       -2 0.64343887E-01 0.91459243E+03</pdfrwt>
<totfact> 0.94117081E+00</totfact>
</mgrwt>
</event>
<event>
 4    1  0.6502538E-008  0.6946474E+03  0.7818608E-02  0.1002017E+00
          2   -1    0    0  501    0  0.00000000000E+00  0.00000000000E+00  0.18192862622E+04  0.18192862622E+04  0.25500000000E-02 0. -1.
         -2   -1    0    0    0  501 -0.00000000000E+00 -0.00000000000E+00 -0.30754971059E+03  0.30754971060E+03  0.25500000000E-02 0.  1.
    8880023    1    1    2    0    0 -0.84526480917E+02  0.20391191896E+03  0.16744650891E+04  0.18128343381E+04  0.65864270000E+03 0. -1.
    8880022    1    1    2    0    0  0.84526480917E+02 -0.20391191896E+03 -0.16272853746E+03  0.31400163469E+03  0.15294330000E+03 0.  0.
<mgrwt>
<rscale>  0 0.54774396E+03</rscale>
<asrwt>0</asrwt>
<pdfrwt beam="1">  1        2 0.27989018E+00 0.69464739E+03</pdfrwt>
<pdfrwt beam="2">  1       -2 0.47315342E-01 0.69464739E+03</pdfrwt>
<totfact> 0.36901072E+01</totfact>
</mgrwt>
</event>
<event>
 4    1  0.6502538E-008  0.6963873E+03  0.7818608E-02  0.1001253E+00
          2   -1    0    0  501    0  0.00000000000E+00  0.00000000000E+00  0.79864068623E+03  0.79864068624E+03  0.25500000000E-02 0. -1.
         -2   -1    0    0    0  501 -0.00000000000E+00 -0.00000000000E+00 -0.38714488286E+03  0.38714488287E+03  0.25500000000E-02 0.  1.
    8880023    1    1    2    0    0  0.21662212625E+03  0.64960759116E+02  0.53506798592E+01  0.69640784160E+03  0.65864270000E+03 0.  1.
    8880022    1    1    2    0    0 -0.21662212625E+03 -0.64960759116E+02  0.40614512351E+03  0.48937772750E+03  0.15294330000E+03 0.  0.
<mgrwt>
<rscale>  0 0.55104161E+03</rscale>
<asrwt>0</asrwt>
<pdfrwt beam="1">  1        2 0.12286780E+00 0.69638729E+03</pdfrwt>
<pdfrwt beam="2">  1       -2 0.59560752E-01 0.69638729E+03</pdfrwt>
<totfact> 0.92301322E+01</totfact>
</mgrwt>
</event>
<event>
 4    1  0.6502538E-008  0.9898186E+03  0.7818608E-02  0.9395001E-01
         -2   -1    0    0    0  501 -0.00000000000E+00  0.00000000000E+00  0.11444390156E+04  0.11444390156E+04  0.25500000000E-02 0.  1.
          2   -1    0    0  501    0  0.00000000000E+00 -0.00000000000E+00 -0.11812236536E+04  0.11812236536E+04  0.25500000000E-02 0. -1.
    8880023    1    1    2    0    0  0.73863408699E+03 -0.18718288174E+02 -0.78479870761E+03  0.12631903683E+04  0.65864270000E+03 0. -1.
    8880022    1    1    2    0    0 -0.73863408699E+03  0.18718288174E+02  0.74801406966E+03  0.10624723009E+04  0.15294330000E+03 0.  0.
<mgrwt>
<rscale>  0 0.92488235E+03</rscale>
<asrwt>0</asrwt>
<pdfrwt beam="1">  1        2 0.18172672E+00 0.98981862E+03</pdfrwt>
<pdfrwt beam="2">  1       -2 0.17606754E+00 0.98981862E+03</pdfrwt>
<totfact> 0.37256168E+00</totfact>
</mgrwt>
</event>
<event>
 4    1  0.6502538E-008  0.1942980E+04  0.7818608E-02  0.8647314E-01
         -2   -1    0    0    0  501 -0.00000000000E+00  0.00000000000E+00  0.16744120885E+04  0.16744120885E+04  0.25500000000E-02 0.  1.
          2   -1    0    0  501    0  0.00000000000E+00 -0.00000000000E+00 -0.25217464011E+04  0.25217464011E+04  0.25500000000E-02 0. -1.
    8880023    1    1    2    0    0  0.13906557668E+04  0.11863540483E+04 -0.12602903934E+04  0.23159234598E+04  0.65864270000E+03 0.  0.
    8880022    1    1    2    0    0 -0.13906557668E+04 -0.11863540483E+04  0.41295608087E+03  0.18802350298E+04  0.15294330000E+03 0.  0.
<mgrwt>
<rscale>  0 0.19152272E+04</rscale>
<asrwt>0</asrwt>
<pdfrwt beam="1">  1        2 0.38796098E+00 0.19429796E+04</pdfrwt>
<pdfrwt beam="2">  1       -2 0.25760186E+00 0.19429796E+04</pdfrwt>
<totfact> 0.17446399E-01</totfact>
</mgrwt>
</event>
<event>
 4    1  0.6502538E-008  0.1035473E+04  0.7818608E-02  0.9336552E-01
         -2   -1    0    0    0  501 -0.00000000000E+00  0.00000000000E+00  0.58880296539E+03  0.58880296539E+03  0.25500000000E-02 0.  1.
          2   -1    0    0  501    0  0.00000000000E+00 -0.00000000000E+00 -0.36724807070E+04  0.36724807070E+04  0.25500000000E-02 0. -1.
    8880023    1    1    2    0    0 -0.21447957183E+03  0.76967048966E+03 -0.32671803712E+04  0.34273418174E+04  0.65864270000E+03 0.  0.
    8880022    1    1    2    0    0  0.21447957183E+03 -0.76967048966E+03  0.18350262957E+03  0.83394185497E+03  0.15294330000E+03 0.  0.
<mgrwt>
<rscale>  0 0.97486341E+03</rscale>
<asrwt>0</asrwt>
<pdfrwt beam="1">  1        2 0.56499701E+00 0.10354730E+04</pdfrwt>
<pdfrwt beam="2">  1       -2 0.90585075E-01 0.10354730E+04</pdfrwt>
<totfact> 0.65787988E-01</totfact>
</mgrwt>
</event>
<event>
 4    1  0.6502538E-008  0.1121264E+04  0.7818608E-02  0.9237742E-01
          2   -1    0    0  501    0  0.00000000000E+00  0.00000000000E+00  0.24185091366E+04  0.24185091366E+04  0.25500000000E-02 0. -1.
         -2   -1    0    0    0  501 -0.00000000000E+00 -0.00000000000E+00 -0.72656467121E+03  0.72656467121E+03  0.25500000000E-02 0.  1.
    8880023    1    1    2    0    0 -0.57001001176E+02 -0.90563468136E+03  0.18957760849E+04  0.22025440882E+04  0.65864270000E+03 0. -1.
    8880022    1    1    2    0    0  0.57001001176E+02  0.90563468136E+03 -0.20383161950E+03  0.94252971960E+03  0.15294330000E+03 0.  0.
<mgrwt>
<rscale>  0 0.10672214E+04</rscale>
<asrwt>0</asrwt>
<pdfrwt beam="1">  1        2 0.37207833E+00 0.11212642E+04</pdfrwt>
<pdfrwt beam="2">  1       -2 0.11177918E+00 0.11212642E+04</pdfrwt>
<totfact> 0.24274651E+00</totfact>
</mgrwt>
</event>
<event>
 4    1  0.6502538E-008  0.6672231E+03  0.7818608E-02  0.1017737E+00
          2   -1    0    0  501    0  0.00000000000E+00  0.00000000000E+00  0.28332043569E+04  0.28332043569E+04  0.25500000000E-02 0. -1.
         -2   -1    0    0    0  501 -0.00000000000E+00 -0.00000000000E+00 -0.21787667857E+03  0.21787667859E+03  0.25500000000E-02 0.  1.
    8880023    1    1    2    0    0 -0.50853455616E+01 -0.10653927459E+03  0.27443741943E+04  0.28243187501E+04  0.65864270000E+03 0. -1.
    8880022    1    1    2    0    0  0.50853455616E+01  0.10653927459E+03 -0.12904651596E+03  0.22676228537E+03  0.15294330000E+03 0.  0.
<mgrwt>
<rscale>  0 0.48512201E+03</rscale>
<asrwt>0</asrwt>
<pdfrwt beam="1">  1        2 0.43587763E+00 0.66722311E+03</pdfrwt>
<pdfrwt beam="2">  1       -2 0.33519486E-01 0.66722311E+03</pdfrwt>
<totfact> 0.19645225E+01</totfact>
</mgrwt>
</event>
<event>
 4    1  0.6502538E-008  0.7583705E+03  0.7818608E-02  0.9809345E-01
          2   -1    0    0  501    0  0.00000000000E+00  0.00000000000E+00  0.19110705106E+04  0.19110705106E+04  0.25500000000E-02 0. -1.
         -2   -1    0    0    0  501 -0.00000000000E+00 -0.00000000000E+00 -0.82489781664E+03  0.82489781665E+03  0.25500000000E-02 0.  1.
    8880023    1    1    2    0    0  0.32814629836E+03  0.18340008835E+03  0.17785098874E+04  0.19334485282E+04  0.65864270000E+03 0. -1.
    8880022    1    1    2    0    0 -0.32814629836E+03 -0.18340008835E+03 -0.69233719338E+03  0.80251979906E+03  0.15294330000E+03 0.  0.
<mgrwt>
<rscale>  0 0.64863466E+03</rscale>
<asrwt>0</asrwt>
<pdfrwt beam="1">  1        2 0.29401084E+00 0.75837048E+03</pdfrwt>
<pdfrwt beam="2">  1       -2 0.12690736E+00 0.75837048E+03</pdfrwt>
<totfact> 0.35695800E+00</totfact>
</mgrwt>
</event>
<event>
 4    1  0.6502538E-008  0.1161894E+04  0.7818608E-02  0.9195084E-01
          2   -1    0    0  501    0  0.00000000000E+00  0.00000000000E+00  0.39489370531E+04  0.39489370531E+04  0.25500000000E-02 0. -1.
         -2   -1    0    0    0  501 -0.00000000000E+00 -0.00000000000E+00 -0.59986142067E+03  0.59986142067E+03  0.25500000000E-02 0.  1.
    8880023    1    1    2    0    0  0.90700517256E+03  0.30582554552E+03  0.33849554878E+04  0.35788156572E+04  0.65864270000E+03 0. -1.
    8880022    1    1    2    0    0 -0.90700517256E+03 -0.30582554552E+03 -0.35879855434E+02  0.96998281654E+03  0.15294330000E+03 0.  0.
<mgrwt>
<rscale>  0 0.11104310E+04</rscale>
<asrwt>0</asrwt>
<pdfrwt beam="1">  1        2 0.60752879E+00 0.11618941E+04</pdfrwt>
<pdfrwt beam="2">  1       -2 0.92286371E-01 0.11618941E+04</pdfrwt>
<totfact> 0.38230724E-01</totfact>
</mgrwt>
</event>
<event>
 4    1  0.6502538E-008  0.8207578E+03  0.7818608E-02  0.9667590E-01
          2   -1    0    0  501    0  0.00000000000E+00  0.00000000000E+00  0.35144424686E+03  0.35144424687E+03  0.25500000000E-02 0. -1.
         -2   -1    0    0    0  501 -0.00000000000E+00 -0.00000000000E+00 -0.18073228534E+04  0.18073228534E+04  0.25500000000E-02 0.  1.
    8880023    1    1    2    0    0 -0.31801739792E+03  0.37242192627E+03 -0.26566385406E+03  0.86268223939E+03  0.65864270000E+03 0. -1.
    8880022    1    1    2    0    0  0.31801739792E+03 -0.37242192627E+03 -0.11902147525E+04  0.12960848609E+04  0.15294330000E+03 0.  0.
<mgrwt>
<rscale>  0 0.72979707E+03</rscale>
<asrwt>0</asrwt>
<pdfrwt beam="1">  1        2 0.54068347E-01 0.82075780E+03</pdfrwt>
<pdfrwt beam="2">  1       -2 0.27804966E+00 0.82075780E+03</pdfrwt>
<totfact> 0.40824614E+00</totfact>
</mgrwt>
</event>
<event>
 4    1  0.6502538E-008  0.7560304E+03  0.7818608E-02  0.9815495E-01
          2   -1    0    0  501    0  0.00000000000E+00  0.00000000000E+00  0.26639535945E+04  0.26639535945E+04  0.25500000000E-02 0. -1.
         -2   -1    0    0    0  501 -0.00000000000E+00 -0.00000000000E+00 -0.46016655769E+03  0.46016655770E+03  0.25500000000E-02 0.  1.
    8880023    1    1    2    0    0 -0.32287721315E+03  0.18309043455E+03  0.25086085605E+04  0.26200570448E+04  0.65864270000E+03 0. -1.
    8880022    1    1    2    0    0  0.32287721315E+03 -0.18309043455E+03 -0.30482152364E+03  0.50406310744E+03  0.15294330000E+03 0.  0.
<mgrwt>
<rscale>  0 0.64537595E+03</rscale>
<asrwt>0</asrwt>
<pdfrwt beam="1">  1        2 0.40983901E+00 0.75603043E+03</pdfrwt>
<pdfrwt beam="2">  1       -2 0.70794856E-01 0.75603043E+03</pdfrwt>
<totfact> 0.53310406E+00</totfact>
</mgrwt>
</event>
<event>
 4    1  0.6502538E-008  0.1517790E+04  0.7818608E-02  0.8897175E-01
          2   -1    0    0  501    0  0.00000000000E+00  0.00000000000E+00  0.18871960691E+04  0.18871960691E+04  0.25500000000E-02 0. -1.
         -2   -1    0    0    0  501 -0.00000000000E+00 -0.00000000000E+00 -0.13384737424E+04  0.13384737424E+04  0.25500000000E-02 0.  1.
    8880023    1    1    2    0    0 -0.12825692126E+04  0.47422693167E+03  0.95222728810E+03  0.17917650466E+04  0.65864270000E+03 0.  0.
    8880022    1    1    2    0    0  0.12825692126E+04 -0.47422693167E+03 -0.40350496140E+03  0.14339047649E+04  0.15294330000E+03 0.  0.
<mgrwt>
<rscale>  0 0.14810173E+04</rscale>
<asrwt>0</asrwt>
<pdfrwt beam="1">  1        2 0.29033785E+00 0.15177896E+04</pdfrwt>
<pdfrwt beam="2">  1       -2 0.20591904E+00 0.15177896E+04</pdfrwt>
<totfact> 0.88071779E-01</totfact>
</mgrwt>
</event>
<event>
 4    1  0.6502538E-008  0.9957015E+03  0.7818608E-02  0.9387203E-01
          2   -1    0    0  501    0  0.00000000000E+00  0.00000000000E+00  0.18589494322E+04  0.18589494322E+04  0.25500000000E-02 0. -1.
         -2   -1    0    0    0  501 -0.00000000000E+00 -0.00000000000E+00 -0.64540892862E+03  0.64540892863E+03  0.25500000000E-02 0.  1.
    8880023    1    1    2    0    0 -0.81420540871E+02 -0.74228162857E+03  0.14015925426E+04  0.17192682113E+04  0.65864270000E+03 0. -1.
    8880022    1    1    2    0    0  0.81420540871E+02  0.74228162857E+03 -0.18805203899E+03  0.78509014958E+03  0.15294330000E+03 0.  0.
<mgrwt>
<rscale>  0 0.93136341E+03</rscale>
<asrwt>0</asrwt>
<pdfrwt beam="1">  1        2 0.28599222E+00 0.99570152E+03</pdfrwt>
<pdfrwt beam="2">  1       -2 0.99293682E-01 0.99570152E+03</pdfrwt>
<totfact> 0.67174142E+00</totfact>
</mgrwt>
</event>
<event>
 4    1  0.6502538E-008  0.7584266E+03  0.7818608E-02  0.9809198E-01
         -2   -1    0    0    0  501 -0.00000000000E+00  0.00000000000E+00  0.32176328006E+03  0.32176328007E+03  0.25500000000E-02 0.  1.
          2   -1    0    0  501    0  0.00000000000E+00 -0.00000000000E+00 -0.43031999098E+04  0.43031999098E+04  0.25500000000E-02 0. -1.
    8880023    1    1    2    0    0 -0.29585387467E+03 -0.23210153372E+03 -0.41251791604E+04  0.41943192473E+04  0.65864270000E+03 0.  0.
    8880022    1    1    2    0    0  0.29585387467E+03  0.23210153372E+03  0.14374253065E+03  0.43064394253E+03  0.15294330000E+03 0.  0.
<mgrwt>
<rscale>  0 0.64871249E+03</rscale>
<asrwt>0</asrwt>
<pdfrwt beam="1">  1        2 0.66203072E+00 0.75842656E+03</pdfrwt>
<pdfrwt beam="2">  1       -2 0.49502046E-01 0.75842656E+03</pdfrwt>
<totfact> 0.81986918E-01</totfact>
</mgrwt>
</event>
<event>
 4    1  0.6502538E-008  0.9817590E+03  0.7818608E-02  0.9405821E-01
         -2   -1    0    0    0  501 -0.00000000000E+00  0.00000000000E+00  0.13813753649E+04  0.13813753649E+04  0.25500000000E-02 0.  1.
          2   -1    0    0  501    0  0.00000000000E+00 -0.00000000000E+00 -0.10065539826E+04  0.10065539826E+04  0.25500000000E-02 0. -1.
    8880023    1    1    2    0    0 -0.37083725712E+03  0.62651436212E+03 -0.60839498866E+03  0.11549870933E+04  0.65864270000E+03 0.  0.
    8880022    1    1    2    0    0  0.37083725712E+03 -0.62651436212E+03  0.98321637097E+03  0.12329422543E+04  0.15294330000E+03 0.  0.
<mgrwt>
<rscale>  0 0.91598153E+03</rscale>
<asrwt>0</asrwt>
<pdfrwt beam="1">  1        2 0.15485446E+00 0.98175899E+03</pdfrwt>
<pdfrwt beam="2">  1       -2 0.21251929E+00 0.98175899E+03</pdfrwt>
<totfact> 0.27384140E+00</totfact>
</mgrwt>
</event>
<event>
 4    1  0.6502538E-008  0.7549044E+03  0.7818608E-02  0.9818483E-01
          2   -1    0    0  501    0  0.00000000000E+00  0.00000000000E+00  0.21739905842E+04  0.21739905842E+04  0.25500000000E-02 0. -1.
         -2   -1    0    0    0  501 -0.00000000000E+00 -0.00000000000E+00 -0.44197192546E+03  0.44197192547E+03  0.25500000000E-02 0.  1.
    8880023    1    1    2    0    0 -0.12220093655E+03  0.34804802015E+03  0.19982049852E+04  0.21360486564E+04  0.65864270000E+03 0. -1.
    8880022    1    1    2    0    0  0.12220093655E+03 -0.34804802015E+03 -0.26618632644E+03  0.47991385333E+03  0.15294330000E+03 0.  0.
<mgrwt>
<rscale>  0 0.64380031E+03</rscale>
<asrwt>0</asrwt>
<pdfrwt beam="1">  1        2 0.33446010E+00 0.75490443E+03</pdfrwt>
<pdfrwt beam="2">  1       -2 0.67995679E-01 0.75490443E+03</pdfrwt>
<totfact> 0.10987336E+01</totfact>
</mgrwt>
</event>
<event>
 4    1  0.6502538E-008  0.1078460E+04  0.7818608E-02  0.9285425E-01
         -2   -1    0    0    0  501 -0.00000000000E+00  0.00000000000E+00  0.16697355920E+04  0.16697355920E+04  0.25500000000E-02 0.  1.
          2   -1    0    0  501    0  0.00000000000E+00 -0.00000000000E+00 -0.11808449918E+04  0.11808449918E+04  0.25500000000E-02 0. -1.
    8880023    1    1    2    0    0  0.82929453186E+03 -0.20380602609E+03 -0.76755729703E+03  0.13237147455E+04  0.65864270000E+03 0.  0.
    8880022    1    1    2    0    0 -0.82929453186E+03  0.20380602609E+03  0.12564478972E+04  0.15268658383E+04  0.15294330000E+03 0.  0.
<mgrwt>
<rscale>  0 0.10213576E+04</rscale>
<asrwt>0</asrwt>
<pdfrwt beam="1">  1        2 0.18166846E+00 0.10784603E+04</pdfrwt>
<pdfrwt beam="2">  1       -2 0.25688240E+00 0.10784603E+04</pdfrwt>
<totfact> 0.11196856E+00</totfact>
</mgrwt>
</event>
<event>
 4    1  0.6502538E-008  0.1528918E+04  0.7818608E-02  0.8889481E-01
          2   -1    0    0  501    0  0.00000000000E+00  0.00000000000E+00  0.33565623746E+04  0.33565623746E+04  0.25500000000E-02 0. -1.
         -2   -1    0    0    0  501 -0.00000000000E+00 -0.00000000000E+00 -0.13941430874E+04  0.13941430874E+04  0.25500000000E-02 0.  1.
    8880023    1    1    2    0    0 -0.12678316513E+04  0.54441072159E+03  0.27559818075E+04  0.31516703602E+04  0.65864270000E+03 0. -1.
    8880022    1    1    2    0    0  0.12678316513E+04 -0.54441072159E+03 -0.79356252038E+03  0.15990351017E+04  0.15294330000E+03 0.  0.
<mgrwt>
<rscale>  0 0.14924617E+04</rscale>
<asrwt>0</asrwt>
<pdfrwt beam="1">  1        2 0.51639421E+00 0.15289180E+04</pdfrwt>
<pdfrwt beam="2">  1       -2 0.21448355E+00 0.15289180E+04</pdfrwt>
<totfact> 0.10296218E-01</totfact>
</mgrwt>
</event>
<event>
 4    1  0.6502538E-008  0.6738733E+03  0.7818608E-02  0.1013026E+00
          2   -1    0    0  501    0  0.00000000000E+00  0.00000000000E+00  0.15350638719E+03  0.15350638721E+03  0.25500000000E-02 0. -1.
         -2   -1    0    0    0  501 -0.00000000000E+00 -0.00000000000E+00 -0.23480481914E+04  0.23480481914E+04  0.25500000000E-02 0.  1.
    8880023    1    1    2    0    0 -0.12992717634E+03  0.58429365746E+02 -0.62801346906E+03  0.92114395483E+03  0.65864270000E+03 0.  0.
    8880022    1    1    2    0    0  0.12992717634E+03 -0.58429365746E+02 -0.15665283351E+04  0.15804106238E+04  0.15294330000E+03 0.  1.
<mgrwt>
<rscale>  0 0.50289507E+03</rscale>
<asrwt>0</asrwt>
<pdfrwt beam="1">  1        2 0.23616369E-01 0.67387333E+03</pdfrwt>
<pdfrwt beam="2">  1       -2 0.36123816E+00 0.67387333E+03</pdfrwt>
<totfact> 0.32932701E+00</totfact>
</mgrwt>
</event>
<event>
 4    1  0.6502538E-008  0.1442901E+04  0.7818608E-02  0.8951045E-01
          2   -1    0    0  501    0  0.00000000000E+00  0.00000000000E+00  0.32925702353E+04  0.32925702353E+04  0.25500000000E-02 0. -1.
         -2   -1    0    0    0  501 -0.00000000000E+00 -0.00000000000E+00 -0.75891027038E+03  0.75891027038E+03  0.25500000000E-02 0.  1.
    8880023    1    1    2    0    0 -0.25893786394E+03 -0.12574193639E+04  0.23329616869E+04  0.27431136894E+04  0.65864270000E+03 0.  0.
    8880022    1    1    2    0    0  0.25893786394E+03  0.12574193639E+04  0.20069827800E+03  0.13083668163E+04  0.15294330000E+03 0.  0.
<mgrwt>
<rscale>  0 0.14038382E+04</rscale>
<asrwt>0</asrwt>
<pdfrwt beam="1">  1        2 0.50654927E+00 0.14429007E+04</pdfrwt>
<pdfrwt beam="2">  1       -2 0.11675543E+00 0.14429007E+04</pdfrwt>
<totfact> 0.61616892E-01</totfact>
</mgrwt>
</event>
<event>
 4    1  0.6502538E-008  0.7821826E+03  0.7818608E-02  0.9750735E-01
          2   -1    0    0  501    0  0.00000000000E+00  0.00000000000E+00  0.30737369653E+04  0.30737369653E+04  0.25500000000E-02 0. -1.
         -2   -1    0    0    0  501 -0.00000000000E+00 -0.00000000000E+00 -0.24272746773E+03  0.24272746774E+03  0.25500000000E-02 0.  1.
    8880023    1    1    2    0    0 -0.41169677321E+03  0.92223478943E+02  0.27517430600E+04  0.28607515582E+04  0.65864270000E+03 0. -1.
    8880022    1    1    2    0    0  0.41169677321E+03 -0.92223478943E+02  0.79266437535E+02  0.45571287482E+03  0.15294330000E+03 0.  0.
<mgrwt>
<rscale>  0 0.68074762E+03</rscale>
<asrwt>0</asrwt>
<pdfrwt beam="1">  1        2 0.47288265E+00 0.78218259E+03</pdfrwt>
<pdfrwt beam="2">  1       -2 0.37342684E-01 0.78218259E+03</pdfrwt>
<totfact> 0.11198398E+01</totfact>
</mgrwt>
</event>
<event>
 4    1  0.6502538E-008  0.6964365E+03  0.7818608E-02  0.1001232E+00
          2   -1    0    0  501    0  0.00000000000E+00  0.00000000000E+00  0.21150568948E+04  0.21150568948E+04  0.25500000000E-02 0. -1.
         -2   -1    0    0    0  501 -0.00000000000E+00 -0.00000000000E+00 -0.54552222346E+03  0.54552222347E+03  0.25500000000E-02 0.  1.
    8880023    1    1    2    0    0  0.21940158293E+03  0.55466027873E+02  0.20183823761E+04  0.21351560031E+04  0.65864270000E+03 0.  0.
    8880022    1    1    2    0    0 -0.21940158293E+03 -0.55466027873E+02 -0.44884770482E+03  0.52542311519E+03  0.15294330000E+03 0.  0.
<mgrwt>
<rscale>  0 0.55113406E+03</rscale>
<asrwt>0</asrwt>
<pdfrwt beam="1">  1        2 0.32539337E+00 0.69643646E+03</pdfrwt>
<pdfrwt beam="2">  1       -2 0.83926497E-01 0.69643646E+03</pdfrwt>
<totfact> 0.74904072E+00</totfact>
</mgrwt>
</event>
<event>
 4    1  0.6502538E-008  0.8088898E+03  0.7818608E-02  0.9691894E-01
         -2   -1    0    0    0  501 -0.00000000000E+00  0.00000000000E+00  0.62683631009E+03  0.62683631010E+03  0.25500000000E-02 0.  1.
          2   -1    0    0  501    0  0.00000000000E+00 -0.00000000000E+00 -0.13478683027E+04  0.13478683027E+04  0.25500000000E-02 0. -1.
    8880023    1    1    2    0    0 -0.38165131792E+03 -0.27355950298E+03 -0.10906379174E+04  0.13578636910E+04  0.65864270000E+03 0. -1.
    8880022    1    1    2    0    0  0.38165131792E+03  0.27355950298E+03  0.36960592481E+03  0.61684092181E+03  0.15294330000E+03 0.  0.
<mgrwt>
<rscale>  0 0.71501472E+03</rscale>
<asrwt>0</asrwt>
<pdfrwt beam="1">  1        2 0.20736435E+00 0.80888982E+03</pdfrwt>
<pdfrwt beam="2">  1       -2 0.96436356E-01 0.80888982E+03</pdfrwt>
<totfact> 0.14155546E+01</totfact>
</mgrwt>
</event>
<event>
 4    1  0.6502538E-008  0.1279667E+04  0.7818608E-02  0.9083320E-01
         -2   -1    0    0    0  501 -0.00000000000E+00  0.00000000000E+00  0.15156666090E+04  0.15156666090E+04  0.25500000000E-02 0.  1.
          2   -1    0    0  501    0  0.00000000000E+00 -0.00000000000E+00 -0.12064291992E+04  0.12064291992E+04  0.25500000000E-02 0. -1.
    8880023    1    1    2    0    0 -0.84324351697E+03  0.70191030607E+03 -0.47484206147E+03  0.13649259673E+04  0.65864270000E+03 0.  0.
    8880022    1    1    2    0    0  0.84324351697E+03 -0.70191030607E+03  0.78407947133E+03  0.13571698409E+04  0.15294330000E+03 0.  0.
<mgrwt>
<rscale>  0 0.12343379E+04</rscale>
<asrwt>0</asrwt>
<pdfrwt beam="1">  1        2 0.18560449E+00 0.12796671E+04</pdfrwt>
<pdfrwt beam="2">  1       -2 0.23317948E+00 0.12796671E+04</pdfrwt>
<totfact> 0.14776958E+00</totfact>
</mgrwt>
</event>
<event>
 4    1  0.6502538E-008  0.1009394E+04  0.7818608E-02  0.9369369E-01
         -2   -1    0    0    0  501 -0.00000000000E+00  0.00000000000E+00  0.62208709137E+03  0.62208709137E+03  0.25500000000E-02 0.  1.
          2   -1    0    0  501    0  0.00000000000E+00 -0.00000000000E+00 -0.20312599883E+04  0.20312599883E+04  0.25500000000E-02 0. -1.
    8880023    1    1    2    0    0  0.15664493209E+03  0.74868478766E+03  0.37158717854E+02  0.10100779785E+04  0.65864270000E+03 0.  1.
    8880022    1    1    2    0    0 -0.15664493209E+03 -0.74868478766E+03 -0.14463316148E+04  0.16432691012E+04  0.15294330000E+03 0.  0.
<mgrwt>
<rscale>  0 0.94639942E+03</rscale>
<asrwt>0</asrwt>
<pdfrwt beam="1">  1        2 0.31250153E+00 0.10093943E+04</pdfrwt>
<pdfrwt beam="2">  1       -2 0.95705707E-01 0.10093943E+04</pdfrwt>
<totfact> 0.58803306E+00</totfact>
</mgrwt>
</event>
<event>
 4    1  0.6502538E-008  0.1649405E+04  0.7818608E-02  0.8810760E-01
         -2   -1    0    0    0  501 -0.00000000000E+00  0.00000000000E+00  0.12888967543E+04  0.12888967543E+04  0.25500000000E-02 0.  1.
          2   -1    0    0  501    0  0.00000000000E+00 -0.00000000000E+00 -0.21805338186E+04  0.21805338186E+04  0.25500000000E-02 0. -1.
    8880023    1    1    2    0    0 -0.18250033447E+02  0.15120820979E+04 -0.10278157274E+04  0.19434352859E+04  0.65864270000E+03 0.  0.
    8880022    1    1    2    0    0  0.18250033447E+02 -0.15120820979E+04  0.13617866314E+03  0.15259952870E+04  0.15294330000E+03 0.  0.
<mgrwt>
<rscale>  0 0.16160309E+04</rscale>
<asrwt>0</asrwt>
<pdfrwt beam="1">  1        2 0.33546674E+00 0.16494046E+04</pdfrwt>
<pdfrwt beam="2">  1       -2 0.19829181E+00 0.16494046E+04</pdfrwt>
<totfact> 0.66905859E-01</totfact>
</mgrwt>
</event>
<event>
 4    1  0.6502538E-008  0.1124860E+04  0.7818608E-02  0.9233870E-01
         -2   -1    0    0    0  501 -0.00000000000E+00  0.00000000000E+00  0.32428263674E+04  0.32428263674E+04  0.25500000000E-02 0.  1.
          2   -1    0    0  501    0  0.00000000000E+00 -0.00000000000E+00 -0.58259404877E+03  0.58259404877E+03  0.25500000000E-02 0. -1.
    8880023    1    1    2    0    0  0.46697740995E+03  0.78321875911E+03  0.13097375266E+03  0.11324592073E+04  0.65864270000E+03 0.  0.
    8880022    1    1    2    0    0 -0.46697740995E+03 -0.78321875911E+03  0.25292585660E+04  0.26929612089E+04  0.15294330000E+03 0.  0.
<mgrwt>
<rscale>  0 0.10710572E+04</rscale>
<asrwt>0</asrwt>
<pdfrwt beam="1">  1        2 0.89629852E-01 0.11248599E+04</pdfrwt>
<pdfrwt beam="2">  1       -2 0.49889637E+00 0.11248599E+04</pdfrwt>
<totfact> 0.85598532E-02</totfact>
</mgrwt>
</event>
<event>
 4    1  0.6502538E-008  0.1049144E+04  0.7818608E-02  0.9319912E-01
         -2   -1    0    0    0  501 -0.00000000000E+00  0.00000000000E+00  0.96717126660E+03  0.96717126660E+03  0.25500000000E-02 0.  1.
          2   -1    0    0  501    0  0.00000000000E+00 -0.00000000000E+00 -0.22671156889E+04  0.22671156889E+04  0.25500000000E-02 0. -1.
    8880023    1    1    2    0    0  0.77249764973E+03 -0.26483867864E+03 -0.19265219265E+04  0.21936702314E+04  0.65864270000E+03 0. -1.
    8880022    1    1    2    0    0 -0.77249764973E+03  0.26483867864E+03  0.62657750426E+03  0.10406167241E+04  0.15294330000E+03 0.  0.
<mgrwt>
<rscale>  0 0.98970251E+03</rscale>
<asrwt>0</asrwt>
<pdfrwt beam="1">  1        2 0.34878703E+00 0.10491436E+04</pdfrwt>
<pdfrwt beam="2">  1       -2 0.14879558E+00 0.10491436E+04</pdfrwt>
<totfact> 0.14407755E+00</totfact>
</mgrwt>
</event>
<event>
 4    1  0.6502538E-008  0.7209106E+03  0.7818608E-02  0.9919517E-01
         -2   -1    0    0    0  501 -0.00000000000E+00  0.00000000000E+00  0.61456550794E+03  0.61456550794E+03  0.25500000000E-02 0.  1.
          2   -1    0    0  501    0  0.00000000000E+00 -0.00000000000E+00 -0.68503932735E+03  0.68503932736E+03  0.25500000000E-02 0. -1.
    8880023    1    1    2    0    0 -0.27711487218E+03 -0.95442631717E+02 -0.40699525355E+03  0.82786308711E+03  0.65864270000E+03 0. -1.
    8880022    1    1    2    0    0  0.27711487218E+03  0.95442631717E+02  0.33652143414E+03  0.47174174819E+03  0.15294330000E+03 0.  0.
<mgrwt>
<rscale>  0 0.59324682E+03</rscale>
<asrwt>0</asrwt>
<pdfrwt beam="1">  1        2 0.10539066E+00 0.72091064E+03</pdfrwt>
<pdfrwt beam="2">  1       -2 0.94548540E-01 0.72091064E+03</pdfrwt>
<totfact> 0.40294888E+01</totfact>
</mgrwt>
</event>
<event>
 4    1  0.6502538E-008  0.9631151E+03  0.7818608E-02  0.9431490E-01
         -2   -1    0    0    0  501 -0.00000000000E+00  0.00000000000E+00  0.26877695029E+04  0.26877695029E+04  0.25500000000E-02 0.  1.
          2   -1    0    0  501    0  0.00000000000E+00 -0.00000000000E+00 -0.40174632118E+03  0.40174632118E+03  0.25500000000E-02 0. -1.
    8880023    1    1    2    0    0  0.31955814021E+03  0.62582991130E+03  0.35083595156E+03  0.10250251480E+04  0.65864270000E+03 0.  0.
    8880022    1    1    2    0    0 -0.31955814021E+03 -0.62582991130E+03  0.19351872302E+04  0.20644906761E+04  0.15294330000E+03 0.  0.
<mgrwt>
<rscale>  0 0.89528855E+03</rscale>
<asrwt>0</asrwt>
<pdfrwt beam="1">  1        2 0.61807128E-01 0.96311510E+03</pdfrwt>
<pdfrwt beam="2">  1       -2 0.41350299E+00 0.96311510E+03</pdfrwt>
<totfact> 0.49210692E-01</totfact>
</mgrwt>
</event>
<event>
 4    1  0.6502538E-008  0.1002531E+04  0.7818608E-02  0.9378254E-01
          2   -1    0    0  501    0  0.00000000000E+00  0.00000000000E+00  0.17860034376E+04  0.17860034376E+04  0.25500000000E-02 0. -1.
         -2   -1    0    0    0  501 -0.00000000000E+00 -0.00000000000E+00 -0.14366855797E+04  0.14366855797E+04  0.25500000000E-02 0.  1.
    8880023    1    1    2    0    0  0.33472709087E+03 -0.67765462018E+03  0.15200057023E+04  0.18208474815E+04  0.65864270000E+03 0.  0.
    8880022    1    1    2    0    0 -0.33472709087E+03  0.67765462018E+03 -0.11706878444E+04  0.14018415358E+04  0.15294330000E+03 0.  0.
<mgrwt>
<rscale>  0 0.93887111E+03</rscale>
<asrwt>0</asrwt>
<pdfrwt beam="1">  1        2 0.27476976E+00 0.10025309E+04</pdfrwt>
<pdfrwt beam="2">  1       -2 0.22102855E+00 0.10025309E+04</pdfrwt>
<totfact> 0.85295359E-01</totfact>
</mgrwt>
</event>
<event>
 4    1  0.6502538E-008  0.7723166E+03  0.7818608E-02  0.9774205E-01
         -2   -1    0    0    0  501 -0.00000000000E+00  0.00000000000E+00  0.16818109488E+04  0.16818109488E+04  0.25500000000E-02 0.  1.
          2   -1    0    0  501    0  0.00000000000E+00 -0.00000000000E+00 -0.52442223747E+03  0.52442223748E+03  0.25500000000E-02 0. -1.
    8880023    1    1    2    0    0 -0.36316080773E+03  0.17543375319E+03 -0.18675510459E+03  0.79457564107E+03  0.65864270000E+03 0. -1.
    8880022    1    1    2    0    0  0.36316080773E+03 -0.17543375319E+03  0.13441438159E+04  0.14116575452E+04  0.15294330000E+03 0.  0.
<mgrwt>
<rscale>  0 0.66765413E+03</rscale>
<asrwt>0</asrwt>
<pdfrwt beam="1">  1        2 0.80680344E-01 0.77231663E+03</pdfrwt>
<pdfrwt beam="2">  1       -2 0.25874015E+00 0.77231663E+03</pdfrwt>
<totfact> 0.34008566E+00</totfact>
</mgrwt>
</event>
<event>
 4    1  0.6502538E-008  0.1093071E+04  0.7818608E-02  0.9268810E-01
          2   -1    0    0  501    0  0.00000000000E+00  0.00000000000E+00  0.17224905508E+04  0.17224905508E+04  0.25500000000E-02 0. -1.
         -2   -1    0    0    0  501 -0.00000000000E+00 -0.00000000000E+00 -0.69670797564E+03  0.69670797565E+03  0.25500000000E-02 0.  1.
    8880023    1    1    2    0    0  0.85290154511E+03 -0.18317721855E+03  0.10737625208E+04  0.15322438110E+04  0.65864270000E+03 0. -1.
    8880022    1    1    2    0    0 -0.85290154511E+03  0.18317721855E+03 -0.47979945649E+02  0.88695471544E+03  0.15294330000E+03 0.  0.
<mgrwt>
<rscale>  0 0.10370571E+04</rscale>
<asrwt>0</asrwt>
<pdfrwt beam="1">  1        2 0.26499855E+00 0.10930714E+04</pdfrwt>
<pdfrwt beam="2">  1       -2 0.10718584E+00 0.10930714E+04</pdfrwt>
<totfact> 0.65781875E+00</totfact>
</mgrwt>
</event>
<event>
 4    1  0.6502538E-008  0.6769798E+03  0.7818608E-02  0.1011086E+00
          2   -1    0    0  501    0  0.00000000000E+00  0.00000000000E+00  0.15641146916E+04  0.15641146916E+04  0.25500000000E-02 0. -1.
         -2   -1    0    0    0  501 -0.00000000000E+00 -0.00000000000E+00 -0.50721641120E+03  0.50721641121E+03  0.25500000000E-02 0.  1.
    8880023    1    1    2    0    0  0.86936603664E+02  0.13012889954E+03  0.14618740892E+04  0.16110175550E+04  0.65864270000E+03 0. -1.
    8880022    1    1    2    0    0 -0.86936603664E+02 -0.13012889954E+03 -0.40497580882E+03  0.46031354780E+03  0.15294330000E+03 0.  0.
<mgrwt>
<rscale>  0 0.51045170E+03</rscale>
<asrwt>0</asrwt>
<pdfrwt beam="1">  1        2 0.24063303E+00 0.67697984E+03</pdfrwt>
<pdfrwt beam="2">  1       -2 0.78033295E-01 0.67697984E+03</pdfrwt>
<totfact> 0.17678600E+01</totfact>
</mgrwt>
</event>
<event>
 4    1  0.6502538E-008  0.7930124E+03  0.7818608E-02  0.9726113E-01
          2   -1    0    0  501    0  0.00000000000E+00  0.00000000000E+00  0.20010415791E+04  0.20010415791E+04  0.25500000000E-02 0. -1.
         -2   -1    0    0    0  501 -0.00000000000E+00 -0.00000000000E+00 -0.54086637653E+03  0.54086637653E+03  0.25500000000E-02 0.  1.
    8880023    1    1    2    0    0 -0.29942471405E+03 -0.32465867338E+03  0.17980668504E+04  0.19651750605E+04  0.65864270000E+03 0. -1.
    8880022    1    1    2    0    0  0.29942471405E+03  0.32465867338E+03 -0.33789164787E+03  0.57673289511E+03  0.15294330000E+03 0.  0.
<mgrwt>
<rscale>  0 0.69483069E+03</rscale>
<asrwt>0</asrwt>
<pdfrwt beam="1">  1        2 0.30785255E+00 0.79301237E+03</pdfrwt>
<pdfrwt beam="2">  1       -2 0.83210212E-01 0.79301237E+03</pdfrwt>
<totfact> 0.86823653E+00</totfact>
</mgrwt>
</event>
<event>
 4    1  0.6502538E-008  0.1189732E+04  0.7818608E-02  0.9167169E-01
         -2   -1    0    0    0  501 -0.00000000000E+00  0.00000000000E+00  0.20290206642E+04  0.20290206642E+04  0.25500000000E-02 0.  1.
          2   -1    0    0  501    0  0.00000000000E+00 -0.00000000000E+00 -0.84715344206E+03  0.84715344206E+03  0.25500000000E-02 0. -1.
    8880023    1    1    2    0    0  0.80881295537E+03  0.57225328850E+03 -0.16077406665E+03  0.12005460132E+04  0.65864270000E+03 0. -1.
    8880022    1    1    2    0    0 -0.80881295537E+03 -0.57225328850E+03  0.13426412888E+04  0.16756280931E+04  0.15294330000E+03 0.  0.
<mgrwt>
<rscale>  0 0.11398823E+04</rscale>
<asrwt>0</asrwt>
<pdfrwt beam="1">  1        2 0.13033130E+00 0.11897321E+04</pdfrwt>
<pdfrwt beam="2">  1       -2 0.31215702E+00 0.11897321E+04</pdfrwt>
<totfact> 0.83823662E-01</totfact>
</mgrwt>
</event>
<event>
 4    1  0.6502538E-008  0.1040945E+04  0.7818608E-02  0.9329847E-01
          2   -1    0    0  501    0  0.00000000000E+00  0.00000000000E+00  0.11491180821E+04  0.11491180821E+04  0.25500000000E-02 0. -1.
         -2   -1    0    0    0  501 -0.00000000000E+00 -0.00000000000E+00 -0.10905967398E+04  0.10905967398E+04  0.25500000000E-02 0.  1.
    8880023    1    1    2    0    0 -0.19248003584E+03  0.78275651715E+03  0.65095391694E+03  0.12277245365E+04  0.65864270000E+03 0. -1.
    8880022    1    1    2    0    0  0.19248003584E+03 -0.78275651715E+03 -0.59243257460E+03  0.10119902854E+04  0.15294330000E+03 0.  0.
<mgrwt>
<rscale>  0 0.98080950E+03</rscale>
<asrwt>0</asrwt>
<pdfrwt beam="1">  1        2 0.17678740E+00 0.10409450E+04</pdfrwt>
<pdfrwt beam="2">  1       -2 0.16778412E+00 0.10409450E+04</pdfrwt>
<totfact> 0.44346492E+00</totfact>
</mgrwt>
</event>
<event>
 4    1  0.6502538E-008  0.1576728E+04  0.7818608E-02  0.8857273E-01
          2   -1    0    0  501    0  0.00000000000E+00  0.00000000000E+00  0.39314141509E+04  0.39314141509E+04  0.25500000000E-02 0. -1.
         -2   -1    0    0    0  501 -0.00000000000E+00 -0.00000000000E+00 -0.67867454254E+03  0.67867454254E+03  0.25500000000E-02 0.  1.
    8880023    1    1    2    0    0  0.10628175629E+04  0.96056295730E+03  0.80625554143E+03  0.17709095322E+04  0.65864270000E+03 0.  0.
    8880022    1    1    2    0    0 -0.10628175629E+04 -0.96056295730E+03  0.24464840669E+04  0.28391791612E+04  0.15294330000E+03 0. -1.
<mgrwt>
<rscale>  0 0.15415657E+04</rscale>
<asrwt>0</asrwt>
<pdfrwt beam="1">  1        2 0.60483294E+00 0.15767284E+04</pdfrwt>
<pdfrwt beam="2">  1       -2 0.10441147E+00 0.15767284E+04</pdfrwt>
<totfact> 0.27731840E-01</totfact>
</mgrwt>
</event>
<event>
 4    1  0.6502538E-008  0.1296213E+04  0.7818608E-02  0.9068837E-01
          2   -1    0    0  501    0  0.00000000000E+00  0.00000000000E+00  0.21369270298E+04  0.21369270298E+04  0.25500000000E-02 0. -1.
         -2   -1    0    0    0  501 -0.00000000000E+00 -0.00000000000E+00 -0.91723047466E+03  0.91723047467E+03  0.25500000000E-02 0.  1.
    8880023    1    1    2    0    0 -0.55545395176E+02  0.11150215643E+04  0.14056645682E+04  0.19120830171E+04  0.65864270000E+03 0. -1.
    8880022    1    1    2    0    0  0.55545395176E+02 -0.11150215643E+04 -0.18596801311E+03  0.11420744873E+04  0.15294330000E+03 0.  0.
<mgrwt>
<rscale>  0 0.12516189E+04</rscale>
<asrwt>0</asrwt>
<pdfrwt beam="1">  1        2 0.32875800E+00 0.12962132E+04</pdfrwt>
<pdfrwt beam="2">  1       -2 0.14111238E+00 0.12962132E+04</pdfrwt>
<totfact> 0.19016749E+00</totfact>
</mgrwt>
</event>
<event>
 4    1  0.6502538E-008  0.1452190E+04  0.7818608E-02  0.8944156E-01
         -2   -1    0    0    0  501 -0.00000000000E+00  0.00000000000E+00  0.69479106038E+03  0.69479106039E+03  0.25500000000E-02 0.  1.
          2   -1    0    0  501    0  0.00000000000E+00 -0.00000000000E+00 -0.32389202041E+04  0.32389202041E+04  0.25500000000E-02 0. -1.
    8880023    1    1    2    0    0 -0.59210459546E+03  0.11508502769E+04 -0.21072940843E+04  0.25592074507E+04  0.65864270000E+03 0. -1.
    8880022    1    1    2    0    0  0.59210459546E+03 -0.11508502769E+04 -0.43683505941E+03  0.13745038138E+04  0.15294330000E+03 0.  0.
<mgrwt>
<rscale>  0 0.14134278E+04</rscale>
<asrwt>0</asrwt>
<pdfrwt beam="1">  1        2 0.49829541E+00 0.14521895E+04</pdfrwt>
<pdfrwt beam="2">  1       -2 0.10689093E+00 0.14521895E+04</pdfrwt>
<totfact> 0.82887821E-01</totfact>
</mgrwt>
</event>
<event>
 4    1  0.6502538E-008  0.8051697E+03  0.7818608E-02  0.9699727E-01
         -2   -1    0    0    0  501 -0.00000000000E+00  0.00000000000E+00  0.47780275696E+03  0.47780275697E+03  0.25500000000E-02 0.  1.
          2   -1    0    0  501    0  0.00000000000E+00 -0.00000000000E+00 -0.32881944242E+04  0.32881944242E+04  0.25500000000E-02 0. -1.
    8880023    1    1    2    0    0 -0.26584256834E+03  0.37923058644E+03 -0.30972279841E+04  0.32001749172E+04  0.65864270000E+03 0. -1.
    8880022    1    1    2    0    0  0.26584256834E+03 -0.37923058644E+03  0.28683631680E+03  0.56582226404E+03  0.15294330000E+03 0.  0.
<mgrwt>
<rscale>  0 0.71033019E+03</rscale>
<asrwt>0</asrwt>
<pdfrwt beam="1">  1        2 0.50587605E+00 0.80516974E+03</pdfrwt>
<pdfrwt beam="2">  1       -2 0.73508118E-01 0.80516974E+03</pdfrwt>
<totfact> 0.20189503E+00</totfact>
</mgrwt>
</event>
<event>
 4    1  0.6502538E-008  0.1123158E+04  0.7818608E-02  0.9235700E-01
         -2   -1    0    0    0  501 -0.00000000000E+00  0.00000000000E+00  0.61124351004E+03  0.61124351005E+03  0.25500000000E-02 0.  1.
          2   -1    0    0  501    0  0.00000000000E+00 -0.00000000000E+00 -0.18836653148E+04  0.18836653148E+04  0.25500000000E-02 0. -1.
    8880023    1    1    2    0    0  0.37528982557E+03  0.82875258711E+03 -0.31754608212E+03  0.11671842290E+04  0.65864270000E+03 0.  1.
    8880022    1    1    2    0    0 -0.37528982557E+03 -0.82875258711E+03 -0.95487572262E+03  0.13277245959E+04  0.15294330000E+03 0.  0.
<mgrwt>
<rscale>  0 0.10692418E+04</rscale>
<asrwt>0</asrwt>
<pdfrwt beam="1">  1        2 0.28979466E+00 0.11231578E+04</pdfrwt>
<pdfrwt beam="2">  1       -2 0.94037464E-01 0.11231578E+04</pdfrwt>
<totfact> 0.73005796E+00</totfact>
</mgrwt>
</event>
<event>
 4    1  0.6502538E-008  0.6942703E+03  0.7818608E-02  0.1002186E+00
          2   -1    0    0  501    0  0.00000000000E+00  0.00000000000E+00  0.46245960149E+03  0.46245960150E+03  0.25500000000E-02 0. -1.
         -2   -1    0    0    0  501 -0.00000000000E+00 -0.00000000000E+00 -0.53311500744E+03  0.53311500744E+03  0.25500000000E-02 0.  1.
    8880023    1    1    2    0    0  0.18123122784E+03 -0.12392043361E+03  0.61801502149E+02  0.69701554053E+03  0.65864270000E+03 0. -1.
    8880022    1    1    2    0    0 -0.18123122784E+03  0.12392043361E+03 -0.13245690810E+03  0.29855906841E+03  0.15294330000E+03 0.  0.
<mgrwt>
<rscale>  0 0.54702228E+03</rscale>
<asrwt>0</asrwt>
<pdfrwt beam="1">  1        2 0.71147632E-01 0.69427029E+03</pdfrwt>
<pdfrwt beam="2">  1       -2 0.82017693E-01 0.69427029E+03</pdfrwt>
<totfact> 0.89318561E+01</totfact>
</mgrwt>
</event>
<event>
 4    1  0.6502538E-008  0.1462321E+04  0.7818608E-02  0.8936711E-01
         -2   -1    0    0    0  501 -0.00000000000E+00  0.00000000000E+00  0.16716099750E+04  0.16716099750E+04  0.25500000000E-02 0.  1.
          2   -1    0    0  501    0  0.00000000000E+00 -0.00000000000E+00 -0.20792766380E+04  0.20792766380E+04  0.25500000000E-02 0. -1.
    8880023    1    1    2    0    0 -0.11878538964E+04 -0.54182533927E+03 -0.14604790208E+04  0.20667319018E+04  0.65864270000E+03 0.  0.
    8880022    1    1    2    0    0  0.11878538964E+04  0.54182533927E+03  0.10528123578E+04  0.16841547112E+04  0.15294330000E+03 0.  0.
<mgrwt>
<rscale>  0 0.14238813E+04</rscale>
<asrwt>0</asrwt>
<pdfrwt beam="1">  1        2 0.31988871E+00 0.14623207E+04</pdfrwt>
<pdfrwt beam="2">  1       -2 0.25717076E+00 0.14623207E+04</pdfrwt>
<totfact> 0.32988757E-01</totfact>
</mgrwt>
</event>
<event>
 4    1  0.6502538E-008  0.1355430E+04  0.7818608E-02  0.9019112E-01
         -2   -1    0    0    0  501 -0.00000000000E+00  0.00000000000E+00  0.61989532714E+03  0.61989532715E+03  0.25500000000E-02 0.  1.
          2   -1    0    0  501    0  0.00000000000E+00 -0.00000000000E+00 -0.29731499494E+04  0.29731499494E+04  0.25500000000E-02 0. -1.
    8880023    1    1    2    0    0  0.11825192914E+04  0.70912750859E+02 -0.18582544051E+04  0.23000652454E+04  0.65864270000E+03 0.  0.
    8880022    1    1    2    0    0 -0.11825192914E+04 -0.70912750859E+02 -0.49500021710E+03  0.12929800311E+04  0.15294330000E+03 0.  0.
<mgrwt>
<rscale>  0 0.13132644E+04</rscale>
<asrwt>0</asrwt>
<pdfrwt beam="1">  1        2 0.45740768E+00 0.13554301E+04</pdfrwt>
<pdfrwt beam="2">  1       -2 0.95368514E-01 0.13554301E+04</pdfrwt>
<totfact> 0.16253492E+00</totfact>
</mgrwt>
</event>
<event>
 4    1  0.6502538E-008  0.7573971E+03  0.7818608E-02  0.9811893E-01
          2   -1    0    0  501    0  0.00000000000E+00  0.00000000000E+00  0.19447355150E+04  0.19447355150E+04  0.25500000000E-02 0. -1.
         -2   -1    0    0    0  501 -0.00000000000E+00 -0.00000000000E+00 -0.61218356676E+03  0.61218356677E+03  0.25500000000E-02 0.  1.
    8880023    1    1    2    0    0 -0.48834820661E+02 -0.37074966005E+03  0.17917685086E+04  0.19452724089E+04  0.65864270000E+03 0.  0.
    8880022    1    1    2    0    0  0.48834820661E+02  0.37074966005E+03 -0.45921656035E+03  0.61164667289E+03  0.15294330000E+03 0.  0.
<mgrwt>
<rscale>  0 0.64728169E+03</rscale>
<asrwt>0</asrwt>
<pdfrwt beam="1">  1        2 0.29919008E+00 0.75739709E+03</pdfrwt>
<pdfrwt beam="2">  1       -2 0.94182088E-01 0.75739709E+03</pdfrwt>
<totfact> 0.70467110E+00</totfact>
</mgrwt>
</event>
<event>
 4    1  0.6502538E-008  0.1027946E+04  0.7818608E-02  0.9345876E-01
         -2   -1    0    0    0  501 -0.00000000000E+00  0.00000000000E+00  0.90458152185E+03  0.90458152185E+03  0.25500000000E-02 0.  1.
          2   -1    0    0  501    0  0.00000000000E+00 -0.00000000000E+00 -0.15600637663E+04  0.15600637663E+04  0.25500000000E-02 0. -1.
    8880023    1    1    2    0    0  0.78795329453E+03 -0.44630795029E+02 -0.11328348665E+04  0.15297017171E+04  0.65864270000E+03 0. -1.
    8880022    1    1    2    0    0 -0.78795329453E+03  0.44630795029E+02  0.47735262208E+03  0.93494357105E+03  0.15294330000E+03 0.  0.
<mgrwt>
<rscale>  0 0.96666959E+03</rscale>
<asrwt>0</asrwt>
<pdfrwt beam="1">  1        2 0.24000981E+00 0.10279458E+04</pdfrwt>
<pdfrwt beam="2">  1       -2 0.13916639E+00 0.10279458E+04</pdfrwt>
<totfact> 0.42417320E+00</totfact>
</mgrwt>
</event>
<event>
 4    1  0.6502538E-008  0.8163616E+03  0.7818608E-02  0.9676475E-01
          2   -1    0    0  501    0  0.00000000000E+00  0.00000000000E+00  0.23609030653E+04  0.23609030653E+04  0.25500000000E-02 0. -1.
         -2   -1    0    0    0  501 -0.00000000000E+00 -0.00000000000E+00 -0.49944235660E+03  0.49944235661E+03  0.25500000000E-02 0.  1.
    8880023    1    1    2    0    0  0.19190849104E+03  0.44250100714E+03 -0.11113123556E+03  0.82389099281E+03  0.65864270000E+03 0.  0.
    8880022    1    1    2    0    0 -0.19190849104E+03 -0.44250100714E+03  0.19725919442E+04  0.20364544291E+04  0.15294330000E+03 0.  0.
<mgrwt>
<rscale>  0 0.72434885E+03</rscale>
<asrwt>0</asrwt>
<pdfrwt beam="1">  1        2 0.36321586E+00 0.81636157E+03</pdfrwt>
<pdfrwt beam="2">  1       -2 0.76837285E-01 0.81636157E+03</pdfrwt>
<totfact> 0.65498231E+00</totfact>
</mgrwt>
</event>
<event>
 4    1  0.6502538E-008  0.1041774E+04  0.7818608E-02  0.9328836E-01
         -2   -1    0    0    0  501 -0.00000000000E+00  0.00000000000E+00  0.88828922987E+03  0.88828922987E+03  0.25500000000E-02 0.  1.
          2   -1    0    0  501    0  0.00000000000E+00 -0.00000000000E+00 -0.15027920042E+04  0.15027920042E+04  0.25500000000E-02 0. -1.
    8880023    1    1    2    0    0 -0.56042596862E+03 -0.58086648216E+03 -0.10347417539E+04  0.14683268846E+04  0.65864270000E+03 0.  0.
    8880022    1    1    2    0    0  0.56042596862E+03  0.58086648216E+03  0.42023897964E+03  0.92275434945E+03  0.15294330000E+03 0.  0.
<mgrwt>
<rscale>  0 0.98170969E+03</rscale>
<asrwt>0</asrwt>
<pdfrwt beam="1">  1        2 0.23119877E+00 0.10417741E+04</pdfrwt>
<pdfrwt beam="2">  1       -2 0.13665988E+00 0.10417741E+04</pdfrwt>
<totfact> 0.47807398E+00</totfact>
</mgrwt>
</event>
<event>
 4    1  0.6502538E-008  0.6671902E+03  0.7818608E-02  0.1017763E+00
          2   -1    0    0  501    0  0.00000000000E+00  0.00000000000E+00  0.15735470485E+04  0.15735470485E+04  0.25500000000E-02 0. -1.
         -2   -1    0    0    0  501 -0.00000000000E+00 -0.00000000000E+00 -0.32336879947E+03  0.32336879948E+03  0.25500000000E-02 0.  1.
    8880023    1    1    2    0    0  0.10313840894E+03  0.26364573336E+02  0.14666571019E+04  0.16112808206E+04  0.65864270000E+03 0. -1.
    8880022    1    1    2    0    0 -0.10313840894E+03 -0.26364573336E+02 -0.21647885283E+03  0.28563502738E+03  0.15294330000E+03 0.  0.
<mgrwt>
<rscale>  0 0.48502756E+03</rscale>
<asrwt>0</asrwt>
<pdfrwt beam="1">  1        2 0.24208417E+00 0.66719025E+03</pdfrwt>
<pdfrwt beam="2">  1       -2 0.49749045E-01 0.66719025E+03</pdfrwt>
<totfact> 0.45577310E+01</totfact>
</mgrwt>
</event>
<event>
 4    1  0.6502538E-008  0.7442438E+03  0.7818608E-02  0.9847753E-01
          2   -1    0    0  501    0  0.00000000000E+00  0.00000000000E+00  0.15987381905E+04  0.15987381905E+04  0.25500000000E-02 0. -1.
         -2   -1    0    0    0  501 -0.00000000000E+00 -0.00000000000E+00 -0.31660484765E+03  0.31660484766E+03  0.25500000000E-02 0.  1.
    8880023    1    1    2    0    0  0.31890332633E+03  0.13560719630E+03  0.13393684039E+04  0.15322553870E+04  0.65864270000E+03 0.  0.
    8880022    1    1    2    0    0 -0.31890332633E+03 -0.13560719630E+03 -0.57235061104E+02  0.38308765116E+03  0.15294330000E+03 0.  0.
<mgrwt>
<rscale>  0 0.62861604E+03</rscale>
<asrwt>0</asrwt>
<pdfrwt beam="1">  1        2 0.24595973E+00 0.74424381E+03</pdfrwt>
<pdfrwt beam="2">  1       -2 0.48708437E-01 0.74424381E+03</pdfrwt>
<totfact> 0.45665589E+01</totfact>
</mgrwt>
</event>
<event>
 4    1  0.6502538E-008  0.2135805E+04  0.7818608E-02  0.8556508E-01
          2   -1    0    0  501    0  0.00000000000E+00  0.00000000000E+00  0.27360459415E+04  0.27360459415E+04  0.25500000000E-02 0. -1.
         -2   -1    0    0    0  501 -0.00000000000E+00 -0.00000000000E+00 -0.20133623454E+04  0.20133623454E+04  0.25500000000E-02 0.  1.
    8880023    1    1    2    0    0  0.12325136074E+04  0.16151667426E+04  0.14550237615E+04  0.25843292653E+04  0.65864270000E+03 0.  0.
    8880022    1    1    2    0    0 -0.12325136074E+04 -0.16151667426E+04 -0.73234016542E+03  0.21650790216E+04  0.15294330000E+03 0.  0.
<mgrwt>
<rscale>  0 0.21107827E+04</rscale>
<asrwt>0</asrwt>
<pdfrwt beam="1">  1        2 0.42093015E+00 0.21358051E+04</pdfrwt>
<pdfrwt beam="2">  1       -2 0.30974805E+00 0.21358051E+04</pdfrwt>
<totfact> 0.61088216E-02</totfact>
</mgrwt>
</event>
<event>
 4    1  0.6502538E-008  0.8387678E+03  0.7818608E-02  0.9632508E-01
          2   -1    0    0  501    0  0.00000000000E+00  0.00000000000E+00  0.18205038098E+04  0.18205038098E+04  0.25500000000E-02 0. -1.
         -2   -1    0    0    0  501 -0.00000000000E+00 -0.00000000000E+00 -0.14641327720E+04  0.14641327720E+04  0.25500000000E-02 0.  1.
    8880023    1    1    2    0    0 -0.31174421659E+01 -0.51933749305E+03  0.16672551898E+04  0.18663523848E+04  0.65864270000E+03 0. -1.
    8880022    1    1    2    0    0  0.31174421659E+01  0.51933749305E+03 -0.13108841521E+04  0.14182841970E+04  0.15294330000E+03 0.  0.
<mgrwt>
<rscale>  0 0.75181441E+03</rscale>
<asrwt>0</asrwt>
<pdfrwt beam="1">  1        2 0.28007751E+00 0.83876776E+03</pdfrwt>
<pdfrwt beam="2">  1       -2 0.22525120E+00 0.83876776E+03</pdfrwt>
<totfact> 0.78963121E-01</totfact>
</mgrwt>
</event>
<event>
 4    1  0.6502538E-008  0.1906933E+04  0.7818608E-02  0.8665583E-01
          2   -1    0    0  501    0  0.00000000000E+00  0.00000000000E+00  0.13623583586E+04  0.13623583586E+04  0.25500000000E-02 0. -1.
         -2   -1    0    0    0  501 -0.00000000000E+00 -0.00000000000E+00 -0.31244294037E+04  0.31244294037E+04  0.25500000000E-02 0.  1.
    8880023    1    1    2    0    0 -0.17888216953E+04 -0.51972390224E+02  0.87096373251E+02  0.19089212062E+04  0.65864270000E+03 0.  0.
    8880022    1    1    2    0    0  0.17888216953E+04  0.51972390224E+02 -0.18491674184E+04  0.25778665561E+04  0.15294330000E+03 0.  0.
<mgrwt>
<rscale>  0 0.18785997E+04</rscale>
<asrwt>0</asrwt>
<pdfrwt beam="1">  1        2 0.20959359E+00 0.19069332E+04</pdfrwt>
<pdfrwt beam="2">  1       -2 0.48068144E+00 0.19069332E+04</pdfrwt>
<totfact> 0.29839187E-02</totfact>
</mgrwt>
</event>
<event>
 4    1  0.6502538E-008  0.1068084E+04  0.7818608E-02  0.9297451E-01
         -2   -1    0    0    0  501 -0.00000000000E+00  0.00000000000E+00  0.14946752752E+04  0.14946752752E+04  0.25500000000E-02 0.  1.
          2   -1    0    0  501    0  0.00000000000E+00 -0.00000000000E+00 -0.63719490064E+03  0.63719490065E+03  0.25500000000E-02 0. -1.
    8880023    1    1    2    0    0 -0.70489684748E+03  0.45838243836E+03  0.65723481908E+03  0.12540980181E+04  0.65864270000E+03 0.  1.
    8880022    1    1    2    0    0  0.70489684748E+03 -0.45838243836E+03  0.20024555548E+03  0.87777215773E+03  0.15294330000E+03 0.  0.
<mgrwt>
<rscale>  0 0.10101787E+04</rscale>
<asrwt>0</asrwt>
<pdfrwt beam="1">  1        2 0.98029985E-01 0.10680844E+04</pdfrwt>
<pdfrwt beam="2">  1       -2 0.22995004E+00 0.10680844E+04</pdfrwt>
<totfact> 0.39025823E+00</totfact>
</mgrwt>
</event>
<event>
 4    1  0.6502538E-008  0.1708103E+04  0.7818608E-02  0.8775149E-01
         -2   -1    0    0    0  501 -0.00000000000E+00  0.00000000000E+00  0.21383462609E+04  0.21383462609E+04  0.25500000000E-02 0.  1.
          2   -1    0    0  501    0  0.00000000000E+00 -0.00000000000E+00 -0.27720722764E+04  0.27720722764E+04  0.25500000000E-02 0. -1.
    8880023    1    1    2    0    0 -0.12920649902E+04  0.90242728522E+03 -0.21310788498E+04  0.27311378974E+04  0.65864270000E+03 0.  0.
    8880022    1    1    2    0    0  0.12920649902E+04 -0.90242728522E+03  0.14973528343E+04  0.21792806399E+04  0.15294330000E+03 0.  0.
<mgrwt>
<rscale>  0 0.16760393E+04</rscale>
<asrwt>0</asrwt>
<pdfrwt beam="1">  1        2 0.42647266E+00 0.17081034E+04</pdfrwt>
<pdfrwt beam="2">  1       -2 0.32897635E+00 0.17081034E+04</pdfrwt>
<totfact> 0.46297378E-02</totfact>
</mgrwt>
</event>
<event>
 4    1  0.6502538E-008  0.6869441E+03  0.7818608E-02  0.1005640E+00
         -2   -1    0    0    0  501 -0.00000000000E+00  0.00000000000E+00  0.61739332617E+03  0.61739332617E+03  0.25500000000E-02 0.  1.
          2   -1    0    0  501    0  0.00000000000E+00 -0.00000000000E+00 -0.17852043366E+04  0.17852043366E+04  0.25500000000E-02 0. -1.
    8880023    1    1    2    0    0  0.14398498137E+03 -0.13172047895E+03 -0.16901408676E+04  0.18244090325E+04  0.65864270000E+03 0. -1.
    8880022    1    1    2    0    0 -0.14398498137E+03  0.13172047895E+03  0.52232985716E+03  0.57818863023E+03  0.15294330000E+03 0.  0.
<mgrwt>
<rscale>  0 0.53244791E+03</rscale>
<asrwt>0</asrwt>
<pdfrwt beam="1">  1        2 0.27464682E+00 0.68694408E+03</pdfrwt>
<pdfrwt beam="2">  1       -2 0.94983589E-01 0.68694408E+03</pdfrwt>
<totfact> 0.85329840E+00</totfact>
</mgrwt>
</event>
<event>
 4    1  0.6502538E-008  0.8806848E+03  0.7818608E-02  0.9557778E-01
         -2   -1    0    0    0  501 -0.00000000000E+00  0.00000000000E+00  0.11674416271E+04  0.11674416271E+04  0.25500000000E-02 0.  1.
          2   -1    0    0  501    0  0.00000000000E+00 -0.00000000000E+00 -0.14826943486E+04  0.14826943486E+04  0.25500000000E-02 0. -1.
    8880023    1    1    2    0    0 -0.26515667069E+03  0.52104465659E+03 -0.12548073951E+04  0.15330190472E+04  0.65864270000E+03 0. -1.
    8880022    1    1    2    0    0  0.26515667069E+03 -0.52104465659E+03  0.93955467361E+03  0.11171169285E+04  0.15294330000E+03 0.  0.
<mgrwt>
<rscale>  0 0.80154857E+03</rscale>
<asrwt>0</asrwt>
<pdfrwt beam="1">  1        2 0.22810682E+00 0.88068485E+03</pdfrwt>
<pdfrwt beam="2">  1       -2 0.17960640E+00 0.88068485E+03</pdfrwt>
<totfact> 0.23892194E+00</totfact>
</mgrwt>
</event>
<event>
 4    1  0.6502538E-008  0.7607440E+03  0.7818608E-02  0.9803185E-01
          2   -1    0    0  501    0  0.00000000000E+00  0.00000000000E+00  0.19728801054E+04  0.19728801054E+04  0.25500000000E-02 0. -1.
         -2   -1    0    0    0  501 -0.00000000000E+00 -0.00000000000E+00 -0.65886329634E+03  0.65886329635E+03  0.25500000000E-02 0.  1.
    8880023    1    1    2    0    0 -0.35803000321E+03 -0.12936669096E+03  0.18245508209E+04  0.19767946601E+04  0.65864270000E+03 0. -1.
    8880022    1    1    2    0    0  0.35803000321E+03  0.12936669096E+03 -0.51053401183E+03  0.65494874164E+03  0.15294330000E+03 0.  0.
<mgrwt>
<rscale>  0 0.65191890E+03</rscale>
<asrwt>0</asrwt>
<pdfrwt beam="1">  1        2 0.30352001E+00 0.76074400E+03</pdfrwt>
<pdfrwt beam="2">  1       -2 0.10136359E+00 0.76074400E+03</pdfrwt>
<totfact> 0.57180378E+00</totfact>
</mgrwt>
</event>
<event>
 4    1  0.6502538E-008  0.7409999E+03  0.7818608E-02  0.9857044E-01
          2   -1    0    0  501    0  0.00000000000E+00  0.00000000000E+00  0.18366373176E+04  0.18366373176E+04  0.25500000000E-02 0. -1.
         -2   -1    0    0    0  501 -0.00000000000E+00 -0.00000000000E+00 -0.30443326857E+03  0.30443326858E+03  0.25500000000E-02 0.  1.
    8880023    1    1    2    0    0  0.12865911860E+03 -0.31419334325E+03  0.15993707846E+04  0.17626876464E+04  0.65864270000E+03 0. -1.
    8880022    1    1    2    0    0 -0.12865911860E+03  0.31419334325E+03 -0.67166735595E+02  0.37838293979E+03  0.15294330000E+03 0.  0.
<mgrwt>
<rscale>  0 0.62389054E+03</rscale>
<asrwt>0</asrwt>
<pdfrwt beam="1">  1        2 0.28255959E+00 0.74099989E+03</pdfrwt>
<pdfrwt beam="2">  1       -2 0.46835888E-01 0.74099989E+03</pdfrwt>
<totfact> 0.36637962E+01</totfact>
</mgrwt>
</event>
<event>
 4    1  0.6502538E-008  0.7840625E+03  0.7818608E-02  0.9746379E-01
         -2   -1    0    0    0  501 -0.00000000000E+00  0.00000000000E+00  0.41671854284E+03  0.41671854285E+03  0.25500000000E-02 0.  1.
          2   -1    0    0  501    0  0.00000000000E+00 -0.00000000000E+00 -0.19416649258E+04  0.19416649258E+04  0.25500000000E-02 0. -1.
    8880023    1    1    2    0    0  0.40029201493E+03 -0.14391023789E+03 -0.17012107184E+04  0.18731983259E+04  0.65864270000E+03 0. -1.
    8880022    1    1    2    0    0 -0.40029201493E+03  0.14391023789E+03  0.17626433538E+03  0.48518514273E+03  0.15294330000E+03 0.  0.
<mgrwt>
<rscale>  0 0.68321282E+03</rscale>
<asrwt>0</asrwt>
<pdfrwt beam="1">  1        2 0.29871767E+00 0.78406254E+03</pdfrwt>
<pdfrwt beam="2">  1       -2 0.64110546E-01 0.78406254E+03</pdfrwt>
<totfact> 0.16649643E+01</totfact>
</mgrwt>
</event>
<event>
 4    1  0.6502538E-008  0.7300827E+03  0.7818608E-02  0.9889838E-01
         -2   -1    0    0    0  501 -0.00000000000E+00  0.00000000000E+00  0.40901075074E+03  0.40901075075E+03  0.25500000000E-02 0.  1.
          2   -1    0    0  501    0  0.00000000000E+00 -0.00000000000E+00 -0.16335249639E+04  0.16335249639E+04  0.25500000000E-02 0. -1.
    8880023    1    1    2    0    0  0.24852487135E+03 -0.19350937893E+03 -0.14518371000E+04  0.16250697409E+04  0.65864270000E+03 0.  0.
    8880022    1    1    2    0    0 -0.24852487135E+03  0.19350937893E+03  0.22732288683E+03  0.41746597383E+03  0.15294330000E+03 0.  0.
<mgrwt>
<rscale>  0 0.60756296E+03</rscale>
<asrwt>0</asrwt>
<pdfrwt beam="1">  1        2 0.25131153E+00 0.73008266E+03</pdfrwt>
<pdfrwt beam="2">  1       -2 0.62924732E-01 0.73008266E+03</pdfrwt>
<totfact> 0.25710387E+01</totfact>
</mgrwt>
</event>
<event>
 4    1  0.6502538E-008  0.8473351E+03  0.7818608E-02  0.9616501E-01
         -2   -1    0    0    0  501 -0.00000000000E+00  0.00000000000E+00  0.39371350399E+03  0.39371350400E+03  0.25500000000E-02 0.  1.
          2   -1    0    0  501    0  0.00000000000E+00 -0.00000000000E+00 -0.16121728874E+04  0.16121728874E+04  0.25500000000E-02 0. -1.
    8880023    1    1    2    0    0  0.50156971681E+03 -0.18053894421E+03 -0.11762961965E+04  0.14497066735E+04  0.65864270000E+03 0. -1.
    8880022    1    1    2    0    0 -0.50156971681E+03  0.18053894421E+03 -0.42163186912E+02  0.55617971784E+03  0.15294330000E+03 0.  0.
<mgrwt>
<rscale>  0 0.76213566E+03</rscale>
<asrwt>0</asrwt>
<pdfrwt beam="1">  1        2 0.24802659E+00 0.84733506E+03</pdfrwt>
<pdfrwt beam="2">  1       -2 0.60571309E-01 0.84733506E+03</pdfrwt>
<totfact> 0.28263781E+01</totfact>
</mgrwt>
</event>
<event>
 4    1  0.6502538E-008  0.8190491E+03  0.7818608E-02  0.9671027E-01
         -2   -1    0    0    0  501 -0.00000000000E+00  0.00000000000E+00  0.27176467577E+03  0.27176467578E+03  0.25500000000E-02 0.  1.
          2   -1    0    0  501    0  0.00000000000E+00 -0.00000000000E+00 -0.32531367379E+04  0.32531367379E+04  0.25500000000E-02 0. -1.
    8880023    1    1    2    0    0 -0.82837472545E+01  0.48678802052E+03 -0.28933563633E+04  0.30070504567E+04  0.65864270000E+03 0. -1.
    8880022    1    1    2    0    0  0.82837472545E+01 -0.48678802052E+03 -0.88015698742E+02  0.51785095696E+03  0.15294330000E+03 0.  0.
<mgrwt>
<rscale>  0 0.72768317E+03</rscale>
<asrwt>0</asrwt>
<pdfrwt beam="1">  1        2 0.50048255E+00 0.81904909E+03</pdfrwt>
<pdfrwt beam="2">  1       -2 0.41809953E-01 0.81904909E+03</pdfrwt>
<totfact> 0.68740598E+00</totfact>
</mgrwt>
</event>
<event>
 4    1  0.6502538E-008  0.1384778E+04  0.7818608E-02  0.8995602E-01
          2   -1    0    0  501    0  0.00000000000E+00  0.00000000000E+00  0.39783280515E+04  0.39783280515E+04  0.25500000000E-02 0. -1.
         -2   -1    0    0    0  501 -0.00000000000E+00 -0.00000000000E+00 -0.74037301130E+03  0.74037301130E+03  0.25500000000E-02 0.  1.
    8880023    1    1    2    0    0 -0.61390970198E+03 -0.10520999307E+04  0.32041198806E+04  0.34905578067E+04  0.65864270000E+03 0. -1.
    8880022    1    1    2    0    0  0.61390970198E+03  0.10520999307E+04  0.33835159602E+02  0.12281432561E+04  0.15294330000E+03 0.  0.
<mgrwt>
<rscale>  0 0.13437117E+04</rscale>
<asrwt>0</asrwt>
<pdfrwt beam="1">  1        2 0.61205049E+00 0.13847778E+04</pdfrwt>
<pdfrwt beam="2">  1       -2 0.11390354E+00 0.13847778E+04</pdfrwt>
<totfact> 0.21121930E-01</totfact>
</mgrwt>
</event>
<event>
 4    1  0.6502538E-008  0.9800603E+03  0.7818608E-02  0.9408123E-01
         -2   -1    0    0    0  501 -0.00000000000E+00  0.00000000000E+00  0.15102521461E+04  0.15102521461E+04  0.25500000000E-02 0.  1.
          2   -1    0    0  501    0  0.00000000000E+00 -0.00000000000E+00 -0.68494161353E+03  0.68494161353E+03  0.25500000000E-02 0. -1.
    8880023    1    1    2    0    0 -0.27994325544E+03  0.66958177046E+03 -0.12686774980E+03  0.98823762619E+03  0.65864270000E+03 0. -1.
    8880022    1    1    2    0    0  0.27994325544E+03 -0.66958177046E+03  0.95217828235E+03  0.12069561334E+04  0.15294330000E+03 0.  0.
<mgrwt>
<rscale>  0 0.91410222E+03</rscale>
<asrwt>0</asrwt>
<pdfrwt beam="1">  1        2 0.10537563E+00 0.98006029E+03</pdfrwt>
<pdfrwt beam="2">  1       -2 0.23234648E+00 0.98006029E+03</pdfrwt>
<totfact> 0.34754534E+00</totfact>
</mgrwt>
</event>
<event>
 4    1  0.6502538E-008  0.6865931E+03  0.7818608E-02  0.1005816E+00
          2   -1    0    0  501    0  0.00000000000E+00  0.00000000000E+00  0.11207918939E+04  0.11207918939E+04  0.25500000000E-02 0. -1.
         -2   -1    0    0    0  501 -0.00000000000E+00 -0.00000000000E+00 -0.68566664556E+03  0.68566664557E+03  0.25500000000E-02 0.  1.
    8880023    1    1    2    0    0  0.14820381683E+03  0.12504181726E+03  0.98672479748E+03  0.12020964436E+04  0.65864270000E+03 0. -1.
    8880022    1    1    2    0    0 -0.14820381683E+03 -0.12504181726E+03 -0.55159954912E+03  0.60436209593E+03  0.15294330000E+03 0.  0.
<mgrwt>
<rscale>  0 0.53172026E+03</rscale>
<asrwt>0</asrwt>
<pdfrwt beam="1">  1        2 0.17242952E+00 0.68659306E+03</pdfrwt>
<pdfrwt beam="2">  1       -2 0.10548718E+00 0.68659306E+03</pdfrwt>
<totfact> 0.15776939E+01</totfact>
</mgrwt>
</event>
<event>
 4    1  0.6502538E-008  0.1128552E+04  0.7818608E-02  0.9229913E-01
          2   -1    0    0  501    0  0.00000000000E+00  0.00000000000E+00  0.41775934089E+04  0.41775934089E+04  0.25500000000E-02 0. -1.
         -2   -1    0    0    0  501 -0.00000000000E+00 -0.00000000000E+00 -0.55252321727E+03  0.55252321728E+03  0.25500000000E-02 0.  1.
    8880023    1    1    2    0    0  0.39761409674E+03  0.82566531438E+03  0.36296107131E+04  0.38010135906E+04  0.65864270000E+03 0.  0.
    8880022    1    1    2    0    0 -0.39761409674E+03 -0.82566531438E+03 -0.45405214700E+01  0.92910303554E+03  0.15294330000E+03 0.  0.
<mgrwt>
<rscale>  0 0.10749938E+04</rscale>
<asrwt>0</asrwt>
<pdfrwt beam="1">  1        2 0.64270667E+00 0.11285523E+04</pdfrwt>
<pdfrwt beam="2">  1       -2 0.85003573E-01 0.11285523E+04</pdfrwt>
<totfact> 0.30288274E-01</totfact>
</mgrwt>
</event>
<event>
 4    1  0.6502538E-008  0.7284641E+03  0.7818608E-02  0.9894922E-01
          2   -1    0    0  501    0  0.00000000000E+00  0.00000000000E+00  0.27947255694E+04  0.27947255694E+04  0.25500000000E-02 0. -1.
         -2   -1    0    0    0  501 -0.00000000000E+00 -0.00000000000E+00 -0.14697474374E+03  0.14697474376E+03  0.25500000000E-02 0.  1.
    8880023    1    1    2    0    0 -0.86703531736E+02 -0.29888492613E+03  0.24189536123E+04  0.25262613654E+04  0.65864270000E+03 0.  0.
    8880022    1    1    2    0    0  0.86703531736E+02  0.29888492613E+03  0.22879721337E+03  0.41543894779E+03  0.15294330000E+03 0.  0.
<mgrwt>
<rscale>  0 0.60508005E+03</rscale>
<asrwt>0</asrwt>
<pdfrwt beam="1">  1        2 0.42995777E+00 0.72846407E+03</pdfrwt>
<pdfrwt beam="2">  1       -2 0.22611499E-01 0.72846407E+03</pdfrwt>
<totfact> 0.42116941E+01</totfact>
</mgrwt>
</event>
<event>
 4    1  0.6502538E-008  0.8765160E+03  0.7818608E-02  0.9564834E-01
          2   -1    0    0  501    0  0.00000000000E+00  0.00000000000E+00  0.22841296593E+04  0.22841296593E+04  0.25500000000E-02 0. -1.
         -2   -1    0    0    0  501 -0.00000000000E+00 -0.00000000000E+00 -0.45480924776E+03  0.45480924776E+03  0.25500000000E-02 0.  1.
    8880023    1    1    2    0    0  0.45202566027E+03  0.36075321819E+03  0.19415983541E+04  0.21302780233E+04  0.65864270000E+03 0.  0.
    8880022    1    1    2    0    0 -0.45202566027E+03 -0.36075321819E+03 -0.11227794252E+03  0.60866088372E+03  0.15294330000E+03 0.  0.
<mgrwt>
<rscale>  0 0.79668069E+03</rscale>
<asrwt>0</asrwt>
<pdfrwt beam="1">  1        2 0.35140457E+00 0.87651599E+03</pdfrwt>
<pdfrwt beam="2">  1       -2 0.69970653E-01 0.87651599E+03</pdfrwt>
<totfact> 0.88124576E+00</totfact>
</mgrwt>
</event>
<event>
 4    1  0.6502538E-008  0.8743113E+03  0.7818608E-02  0.9568597E-01
         -2   -1    0    0    0  501 -0.00000000000E+00  0.00000000000E+00  0.34677918825E+03  0.34677918826E+03  0.25500000000E-02 0.  1.
          2   -1    0    0  501    0  0.00000000000E+00 -0.00000000000E+00 -0.16487862740E+04  0.16487862740E+04  0.25500000000E-02 0. -1.
    8880023    1    1    2    0    0  0.14004299756E+02  0.57481640090E+03 -0.10000336728E+04  0.13283401553E+04  0.65864270000E+03 0.  0.
    8880022    1    1    2    0    0 -0.14004299756E+02 -0.57481640090E+03 -0.30197341299E+03  0.66722530702E+03  0.15294330000E+03 0. -1.
<mgrwt>
<rscale>  0 0.79410006E+03</rscale>
<asrwt>0</asrwt>
<pdfrwt beam="1">  1        2 0.25365942E+00 0.87431128E+03</pdfrwt>
<pdfrwt beam="2">  1       -2 0.53350645E-01 0.87431128E+03</pdfrwt>
<totfact> 0.35091222E+01</totfact>
</mgrwt>
</event>
<event>
 4    1  0.6502538E-008  0.7812650E+03  0.7818608E-02  0.9752874E-01
          2   -1    0    0  501    0  0.00000000000E+00  0.00000000000E+00  0.30267110436E+04  0.30267110436E+04  0.25500000000E-02 0. -1.
         -2   -1    0    0    0  501 -0.00000000000E+00 -0.00000000000E+00 -0.48272452015E+03  0.48272452016E+03  0.25500000000E-02 0.  1.
    8880023    1    1    2    0    0  0.86998815472E+02 -0.41109120632E+03  0.28581093792E+04  0.29629654408E+04  0.65864270000E+03 0.  0.
    8880022    1    1    2    0    0 -0.86998815472E+02  0.41109120632E+03 -0.31412285570E+03  0.54647012297E+03  0.15294330000E+03 0.  0.
<mgrwt>
<rscale>  0 0.67954104E+03</rscale>
<asrwt>0</asrwt>
<pdfrwt beam="1">  1        2 0.46564785E+00 0.78126499E+03</pdfrwt>
<pdfrwt beam="2">  1       -2 0.74265311E-01 0.78126499E+03</pdfrwt>
<totfact> 0.29018098E+00</totfact>
</mgrwt>
</event>
<event>
 4    1  0.6502538E-008  0.1022769E+04  0.7818608E-02  0.9352357E-01
         -2   -1    0    0    0  501 -0.00000000000E+00  0.00000000000E+00  0.12959333287E+04  0.12959333287E+04  0.25500000000E-02 0.  1.
          2   -1    0    0  501    0  0.00000000000E+00 -0.00000000000E+00 -0.80175097069E+03  0.80175097069E+03  0.25500000000E-02 0. -1.
    8880023    1    1    2    0    0 -0.19335761492E+03  0.75819436012E+03 -0.19812659035E+03  0.10417822263E+04  0.65864270000E+03 0.  0.
    8880022    1    1    2    0    0  0.19335761492E+03 -0.75819436012E+03  0.69230894836E+03  0.10559020731E+04  0.15294330000E+03 0.  0.
<mgrwt>
<rscale>  0 0.96102415E+03</rscale>
<asrwt>0</asrwt>
<pdfrwt beam="1">  1        2 0.12334630E+00 0.10227688E+04</pdfrwt>
<pdfrwt beam="2">  1       -2 0.19937436E+00 0.10227688E+04</pdfrwt>
<totfact> 0.45680662E+00</totfact>
</mgrwt>
</event>
<event>
 4    1  0.6502538E-008  0.6752187E+03  0.7818608E-02  0.1012169E+00
         -2   -1    0    0    0  501 -0.00000000000E+00  0.00000000000E+00  0.24992888803E+03  0.24992888804E+03  0.25500000000E-02 0.  1.
          2   -1    0    0  501    0  0.00000000000E+00 -0.00000000000E+00 -0.12173787051E+04  0.12173787051E+04  0.25500000000E-02 0. -1.
    8880023    1    1    2    0    0 -0.12869591239E+03 -0.74480756792E+02 -0.10417420309E+04  0.12414292917E+04  0.65864270000E+03 0. -1.
    8880022    1    1    2    0    0  0.12869591239E+03  0.74480756792E+02  0.74292213882E+02  0.22587830143E+03  0.15294330000E+03 0.  0.
<mgrwt>
<rscale>  0 0.50621702E+03</rscale>
<asrwt>0</asrwt>
<pdfrwt beam="1">  1        2 0.18728903E+00 0.67521865E+03</pdfrwt>
<pdfrwt beam="2">  1       -2 0.38450599E-01 0.67521865E+03</pdfrwt>
<totfact> 0.12057638E+02</totfact>
</mgrwt>
</event>
<event>
 4    1  0.6502538E-008  0.8044481E+03  0.7818608E-02  0.9701260E-01
          2   -1    0    0  501    0  0.00000000000E+00  0.00000000000E+00  0.13486971420E+04  0.13486971420E+04  0.25500000000E-02 0. -1.
         -2   -1    0    0    0  501 -0.00000000000E+00 -0.00000000000E+00 -0.96377286466E+03  0.96377286466E+03  0.25500000000E-02 0.  1.
    8880023    1    1    2    0    0  0.46186515528E+03  0.26529366107E+01  0.11514173081E+04  0.14045990472E+04  0.65864270000E+03 0. -1.
    8880022    1    1    2    0    0 -0.46186515528E+03 -0.26529366107E+01 -0.76649303078E+03  0.90787095944E+03  0.15294330000E+03 0.  0.
<mgrwt>
<rscale>  0 0.70941838E+03</rscale>
<asrwt>0</asrwt>
<pdfrwt beam="1">  1        2 0.20749187E+00 0.80444805E+03</pdfrwt>
<pdfrwt beam="2">  1       -2 0.14827275E+00 0.80444805E+03</pdfrwt>
<totfact> 0.48609803E+00</totfact>
</mgrwt>
</event>
<event>
 4    1  0.6502538E-008  0.9361462E+03  0.7818608E-02  0.9470333E-01
          2   -1    0    0  501    0  0.00000000000E+00  0.00000000000E+00  0.19578625557E+04  0.19578625557E+04  0.25500000000E-02 0. -1.
         -2   -1    0    0    0  501 -0.00000000000E+00 -0.00000000000E+00 -0.40144188256E+03  0.40144188256E+03  0.25500000000E-02 0.  1.
    8880023    1    1    2    0    0  0.48209230349E+03  0.45841740587E+03  0.13562323984E+04  0.16479490380E+04  0.65864270000E+03 0.  0.
    8880022    1    1    2    0    0 -0.48209230349E+03 -0.45841740587E+03  0.20018827468E+03  0.71135540022E+03  0.15294330000E+03 0.  0.
<mgrwt>
<rscale>  0 0.86506812E+03</rscale>
<asrwt>0</asrwt>
<pdfrwt beam="1">  1        2 0.30120962E+00 0.93614620E+03</pdfrwt>
<pdfrwt beam="2">  1       -2 0.61760290E-01 0.93614620E+03</pdfrwt>
<totfact> 0.17345216E+01</totfact>
</mgrwt>
</event>
<event>
 4    1  0.6502538E-008  0.9886589E+03  0.7818608E-02  0.9396548E-01
         -2   -1    0    0    0  501 -0.00000000000E+00  0.00000000000E+00  0.35129613588E+03  0.35129613589E+03  0.25500000000E-02 0.  1.
          2   -1    0    0  501    0  0.00000000000E+00 -0.00000000000E+00 -0.34510793047E+04  0.34510793047E+04  0.25500000000E-02 0. -1.
    8880023    1    1    2    0    0 -0.65360880055E+03  0.34122085917E+03 -0.52432246204E+03  0.11190890891E+04  0.65864270000E+03 0.  0.
    8880022    1    1    2    0    0  0.65360880055E+03 -0.34122085917E+03 -0.25754607068E+04  0.26832863515E+04  0.15294330000E+03 0.  0.
<mgrwt>
<rscale>  0 0.92360312E+03</rscale>
<asrwt>0</asrwt>
<pdfrwt beam="1">  1        2 0.53093525E+00 0.98865886E+03</pdfrwt>
<pdfrwt beam="2">  1       -2 0.54045562E-01 0.98865886E+03</pdfrwt>
<totfact> 0.29410859E+00</totfact>
</mgrwt>
</event>
<event>
 4    1  0.6502538E-008  0.7158934E+03  0.7818608E-02  0.9936734E-01
          2   -1    0    0  501    0  0.00000000000E+00  0.00000000000E+00  0.15425243784E+04  0.15425243784E+04  0.25500000000E-02 0. -1.
         -2   -1    0    0    0  501 -0.00000000000E+00 -0.00000000000E+00 -0.32377704587E+03  0.32377704588E+03  0.25500000000E-02 0.  1.
    8880023    1    1    2    0    0  0.10164040032E+03 -0.26146213470E+03  0.13442780313E+04  0.15230189922E+04  0.65864270000E+03 0.  0.
    8880022    1    1    2    0    0 -0.10164040032E+03  0.26146213470E+03 -0.12553069875E+03  0.34328243212E+03  0.15294330000E+03 0.  1.
<mgrwt>
<rscale>  0 0.58513552E+03</rscale>
<asrwt>0</asrwt>
<pdfrwt beam="1">  1        2 0.23731144E+00 0.71589345E+03</pdfrwt>
<pdfrwt beam="2">  1       -2 0.49811854E-01 0.71589345E+03</pdfrwt>
<totfact> 0.47017244E+01</totfact>
</mgrwt>
</event>
<event>
 4    1  0.6502538E-008  0.1240076E+04  0.7818608E-02  0.9119117E-01
          2   -1    0    0  501    0  0.00000000000E+00  0.00000000000E+00  0.24840348300E+04  0.24840348300E+04  0.25500000000E-02 0. -1.
         -2   -1    0    0    0  501 -0.00000000000E+00 -0.00000000000E+00 -0.10563994792E+04  0.10563994792E+04  0.25500000000E-02 0.  1.
    8880023    1    1    2    0    0 -0.58563484406E+03  0.87235896955E+03  0.19855648451E+04  0.23409947250E+04  0.65864270000E+03 0. -1.
    8880022    1    1    2    0    0  0.58563484406E+03 -0.87235896955E+03 -0.55792949427E+03  0.11994395841E+04  0.15294330000E+03 0.  0.
<mgrwt>
<rscale>  0 0.11928739E+04</rscale>
<asrwt>0</asrwt>
<pdfrwt beam="1">  1        2 0.38215921E+00 0.12400760E+04</pdfrwt>
<pdfrwt beam="2">  1       -2 0.16252300E+00 0.12400760E+04</pdfrwt>
<totfact> 0.83391486E-01</totfact>
</mgrwt>
</event>
<event>
 4    1  0.6502538E-008  0.7816494E+03  0.7818608E-02  0.9751977E-01
          2   -1    0    0  501    0  0.00000000000E+00  0.00000000000E+00  0.80762137427E+03  0.80762137427E+03  0.25500000000E-02 0. -1.
         -2   -1    0    0    0  501 -0.00000000000E+00 -0.00000000000E+00 -0.67027323869E+03  0.67027323870E+03  0.25500000000E-02 0.  1.
    8880023    1    1    2    0    0  0.37314905737E+03  0.19474425760E+03  0.47711323859E+03  0.91575804315E+03  0.65864270000E+03 0. -1.
    8880022    1    1    2    0    0 -0.37314905737E+03 -0.19474425760E+03 -0.33976510302E+03  0.56213656982E+03  0.15294330000E+03 0.  0.
<mgrwt>
<rscale>  0 0.68004675E+03</rscale>
<asrwt>0</asrwt>
<pdfrwt beam="1">  1        2 0.12424944E+00 0.78164938E+03</pdfrwt>
<pdfrwt beam="2">  1       -2 0.10311896E+00 0.78164938E+03</pdfrwt>
<totfact> 0.26409382E+01</totfact>
</mgrwt>
</event>
<event>
 4    1  0.6502538E-008  0.1524041E+04  0.7818608E-02  0.8892843E-01
         -2   -1    0    0    0  501 -0.00000000000E+00  0.00000000000E+00  0.27033600643E+04  0.27033600643E+04  0.25500000000E-02 0.  1.
          2   -1    0    0  501    0  0.00000000000E+00 -0.00000000000E+00 -0.98350864611E+03  0.98350864611E+03  0.25500000000E-02 0. -1.
    8880023    1    1    2    0    0  0.92186738433E+03 -0.10193391063E+04  0.58310943411E+02  0.15251564052E+04  0.65864270000E+03 0.  0.
    8880022    1    1    2    0    0 -0.92186738433E+03  0.10193391063E+04  0.16615404747E+04  0.21617123052E+04  0.15294330000E+03 0.  0.
<mgrwt>
<rscale>  0 0.14874473E+04</rscale>
<asrwt>0</asrwt>
<pdfrwt beam="1">  1        2 0.15130903E+00 0.15240413E+04</pdfrwt>
<pdfrwt beam="2">  1       -2 0.41590154E+00 0.15240413E+04</pdfrwt>
<totfact> 0.14269034E-01</totfact>
</mgrwt>
</event>
<event>
 4    1  0.6502538E-008  0.1504316E+04  0.7818608E-02  0.8906594E-01
          2   -1    0    0  501    0  0.00000000000E+00  0.00000000000E+00  0.16783977712E+04  0.16783977712E+04  0.25500000000E-02 0. -1.
         -2   -1    0    0    0  501 -0.00000000000E+00 -0.00000000000E+00 -0.21215732242E+04  0.21215732242E+04  0.25500000000E-02 0.  1.
    8880023    1    1    2    0    0 -0.51794194127E+03  0.12493569106E+04  0.10076687897E+04  0.18106250691E+04  0.65864270000E+03 0.  0.
    8880022    1    1    2    0    0  0.51794194127E+03 -0.12493569106E+04 -0.14508442427E+04  0.19893459263E+04  0.15294330000E+03 0.  0.
<mgrwt>
<rscale>  0 0.14671533E+04</rscale>
<asrwt>0</asrwt>
<pdfrwt beam="1">  1        2 0.25821504E+00 0.15043160E+04</pdfrwt>
<pdfrwt beam="2">  1       -2 0.32639588E+00 0.15043160E+04</pdfrwt>
<totfact> 0.20706919E-01</totfact>
</mgrwt>
</event>
<event>
 4    1  0.6502538E-008  0.7085054E+03  0.7818608E-02  0.9963593E-01
         -2   -1    0    0    0  501 -0.00000000000E+00  0.00000000000E+00  0.11654713216E+04  0.11654713216E+04  0.25500000000E-02 0.  1.
          2   -1    0    0  501    0  0.00000000000E+00 -0.00000000000E+00 -0.47268877540E+03  0.47268877541E+03  0.25500000000E-02 0. -1.
    8880023    1    1    2    0    0 -0.13708758084E+03  0.22220874479E+03 -0.16594511840E+03  0.72767968205E+03  0.65864270000E+03 0. -1.
    8880022    1    1    2    0    0  0.13708758084E+03 -0.22220874479E+03  0.85872766462E+03  0.91048041499E+03  0.15294330000E+03 0.  0.
<mgrwt>
<rscale>  0 0.57275835E+03</rscale>
<asrwt>0</asrwt>
<pdfrwt beam="1">  1        2 0.72721350E-01 0.70850543E+03</pdfrwt>
<pdfrwt beam="2">  1       -2 0.17930328E+00 0.70850543E+03</pdfrwt>
<totfact> 0.12298628E+01</totfact>
</mgrwt>
</event>
<event>
 4    1  0.6502538E-008  0.9174176E+03  0.7818608E-02  0.9498630E-01
         -2   -1    0    0    0  501 -0.00000000000E+00  0.00000000000E+00  0.50910156017E+03  0.50910156018E+03  0.25500000000E-02 0.  1.
          2   -1    0    0  501    0  0.00000000000E+00 -0.00000000000E+00 -0.21498107052E+04  0.21498107052E+04  0.25500000000E-02 0. -1.
    8880023    1    1    2    0    0  0.55633164095E+03  0.31359203394E+03 -0.17662815286E+04  0.19903279888E+04  0.65864270000E+03 0.  0.
    8880022    1    1    2    0    0 -0.55633164095E+03 -0.31359203394E+03  0.12557238349E+03  0.66858427665E+03  0.15294330000E+03 0.  1.
<mgrwt>
<rscale>  0 0.84384901E+03</rscale>
<asrwt>0</asrwt>
<pdfrwt beam="1">  1        2 0.33074010E+00 0.91741761E+03</pdfrwt>
<pdfrwt beam="2">  1       -2 0.78323318E-01 0.91741761E+03</pdfrwt>
<totfact> 0.81055279E+00</totfact>
</mgrwt>
</event>
<event>
 4    1  0.6502538E-008  0.1013513E+04  0.7818608E-02  0.9364088E-01
          2   -1    0    0  501    0  0.00000000000E+00  0.00000000000E+00  0.13324912362E+04  0.13324912362E+04  0.25500000000E-02 0. -1.
         -2   -1    0    0    0  501 -0.00000000000E+00 -0.00000000000E+00 -0.80065502736E+03  0.80065502736E+03  0.25500000000E-02 0.  1.
    8880023    1    1    2    0    0 -0.41034181174E+03  0.65193397228E+03 -0.22967773310E+03  0.10392114193E+04  0.65864270000E+03 0.  1.
    8880022    1    1    2    0    0  0.41034181174E+03 -0.65193397228E+03  0.76151394190E+03  0.10939348442E+04  0.15294330000E+03 0.  0.
<mgrwt>
<rscale>  0 0.95090940E+03</rscale>
<asrwt>0</asrwt>
<pdfrwt beam="1">  1        2 0.20499865E+00 0.10135130E+04</pdfrwt>
<pdfrwt beam="2">  1       -2 0.12317770E+00 0.10135130E+04</pdfrwt>
<totfact> 0.78071741E+00</totfact>
</mgrwt>
</event>
<event>
 4    1  0.6502538E-008  0.7107678E+03  0.7818608E-02  0.9955161E-01
          2   -1    0    0  501    0  0.00000000000E+00  0.00000000000E+00  0.16289816889E+04  0.16289816889E+04  0.25500000000E-02 0. -1.
         -2   -1    0    0    0  501 -0.00000000000E+00 -0.00000000000E+00 -0.16475747925E+03  0.16475747927E+03  0.25500000000E-02 0.  1.
    8880023    1    1    2    0    0  0.16452357315E+03 -0.21050586017E+03  0.11632313048E+04  0.13631940427E+04  0.65864270000E+03 0. -1.
    8880022    1    1    2    0    0 -0.16452357315E+03  0.21050586017E+03  0.30099290487E+03  0.43054512549E+03  0.15294330000E+03 0.  1.
<mgrwt>
<rscale>  0 0.57660851E+03</rscale>
<asrwt>0</asrwt>
<pdfrwt beam="1">  1        2 0.25061256E+00 0.71076785E+03</pdfrwt>
<pdfrwt beam="2">  1       -2 0.25347305E-01 0.71076785E+03</pdfrwt>
<totfact> 0.15338586E+02</totfact>
</mgrwt>
</event>
<event>
 4    1  0.6502538E-008  0.1291978E+04  0.7818608E-02  0.9072518E-01
         -2   -1    0    0    0  501 -0.00000000000E+00  0.00000000000E+00  0.12958744117E+04  0.12958744117E+04  0.25500000000E-02 0.  1.
          2   -1    0    0  501    0  0.00000000000E+00 -0.00000000000E+00 -0.25753490847E+04  0.25753490847E+04  0.25500000000E-02 0. -1.
    8880023    1    1    2    0    0  0.15209216033E+03  0.11010295233E+04 -0.21108195240E+04  0.24748267224E+04  0.65864270000E+03 0.  0.
    8880022    1    1    2    0    0 -0.15209216033E+03 -0.11010295233E+04  0.83134485102E+03  0.13963967741E+04  0.15294330000E+03 0.  0.
<mgrwt>
<rscale>  0 0.12471985E+04</rscale>
<asrwt>0</asrwt>
<pdfrwt beam="1">  1        2 0.39620755E+00 0.12919784E+04</pdfrwt>
<pdfrwt beam="2">  1       -2 0.19936529E+00 0.12919784E+04</pdfrwt>
<totfact> 0.40741635E-01</totfact>
</mgrwt>
</event>
<event>
 4    1  0.6502538E-008  0.1339873E+04  0.7818608E-02  0.9031869E-01
         -2   -1    0    0    0  501 -0.00000000000E+00  0.00000000000E+00  0.57657873458E+03  0.57657873459E+03  0.25500000000E-02 0.  1.
          2   -1    0    0  501    0  0.00000000000E+00 -0.00000000000E+00 -0.48812860656E+04  0.48812860656E+04  0.25500000000E-02 0. -1.
    8880023    1    1    2    0    0  0.24622878630E+03 -0.11405358077E+04 -0.40335038122E+04  0.42502251414E+04  0.65864270000E+03 0.  0.
    8880022    1    1    2    0    0 -0.24622878630E+03  0.11405358077E+04 -0.27120351884E+03  0.12076396588E+04  0.15294330000E+03 0.  0.
<mgrwt>
<rscale>  0 0.12970982E+04</rscale>
<asrwt>0</asrwt>
<pdfrwt beam="1">  1        2 0.75096706E+00 0.13398734E+04</pdfrwt>
<pdfrwt beam="2">  1       -2 0.88704424E-01 0.13398734E+04</pdfrwt>
<totfact> 0.53465499E-02</totfact>
</mgrwt>
</event>
<event>
 4    1  0.6502538E-008  0.9394097E+03  0.7818608E-02  0.9465518E-01
          2   -1    0    0  501    0  0.00000000000E+00  0.00000000000E+00  0.28046591441E+04  0.28046591441E+04  0.25500000000E-02 0. -1.
         -2   -1    0    0    0  501 -0.00000000000E+00 -0.00000000000E+00 -0.55852099323E+03  0.55852099323E+03  0.25500000000E-02 0.  1.
    8880023    1    1    2    0    0 -0.45653645983E+03  0.49015797466E+03  0.24683473354E+04  0.26410659124E+04  0.65864270000E+03 0.  0.
    8880022    1    1    2    0    0  0.45653645983E+03 -0.49015797466E+03 -0.22220918445E+03  0.72211422499E+03  0.15294330000E+03 0.  0.
<mgrwt>
<rscale>  0 0.86874499E+03</rscale>
<asrwt>0</asrwt>
<pdfrwt beam="1">  1        2 0.43148602E+00 0.93940970E+03</pdfrwt>
<pdfrwt beam="2">  1       -2 0.85926306E-01 0.93940970E+03</pdfrwt>
<totfact> 0.27694284E+00</totfact>
</mgrwt>
</event>
<event>
 4    1  0.6502538E-008  0.8751911E+03  0.7818608E-02  0.9567093E-01
          2   -1    0    0  501    0  0.00000000000E+00  0.00000000000E+00  0.22131856095E+04  0.22131856095E+04  0.25500000000E-02 0. -1.
         -2   -1    0    0    0  501 -0.00000000000E+00 -0.00000000000E+00 -0.31913346406E+03  0.31913346407E+03  0.25500000000E-02 0.  1.
    8880023    1    1    2    0    0  0.46564399468E+03 -0.33959513394E+03  0.16880942094E+04  0.19014787537E+04  0.65864270000E+03 0. -1.
    8880022    1    1    2    0    0 -0.46564399468E+03  0.33959513394E+03  0.20595793611E+03  0.63084031991E+03  0.15294330000E+03 0.  0.
<mgrwt>
<rscale>  0 0.79513037E+03</rscale>
<asrwt>0</asrwt>
<pdfrwt beam="1">  1        2 0.34049008E+00 0.87519106E+03</pdfrwt>
<pdfrwt beam="2">  1       -2 0.49097458E-01 0.87519106E+03</pdfrwt>
<totfact> 0.20366867E+01</totfact>
</mgrwt>
</event>
<event>
 4    1  0.6502538E-008  0.2737327E+04  0.7818608E-02  0.8329150E-01
          2   -1    0    0  501    0  0.00000000000E+00  0.00000000000E+00  0.27682260376E+04  0.27682260376E+04  0.25500000000E-02 0. -1.
         -2   -1    0    0    0  501 -0.00000000000E+00 -0.00000000000E+00 -0.29781666722E+04  0.29781666722E+04  0.25500000000E-02 0.  1.
    8880023    1    1    2    0    0  0.20257349673E+04  0.17191699477E+04  0.87303281689E+03  0.28731766344E+04  0.65864270000E+03 0.  0.
    8880022    1    1    2    0    0 -0.20257349673E+04 -0.17191699477E+04 -0.10829734514E+04  0.28732160755E+04  0.15294330000E+03 0.  0.
<mgrwt>
<rscale>  0 0.27181199E+04</rscale>
<asrwt>0</asrwt>
<pdfrwt beam="1">  1        2 0.42588093E+00 0.27373267E+04</pdfrwt>
<pdfrwt beam="2">  1       -2 0.45817949E+00 0.27373267E+04</pdfrwt>
<totfact> 0.60312393E-03</totfact>
</mgrwt>
</event>
<event>
 4    1  0.6502538E-008  0.6658009E+03  0.7818608E-02  0.1018871E+00
          2   -1    0    0  501    0  0.00000000000E+00  0.00000000000E+00  0.18466754391E+04  0.18466754391E+04  0.25500000000E-02 0. -1.
         -2   -1    0    0    0  501 -0.00000000000E+00 -0.00000000000E+00 -0.27129265043E+03  0.27129265044E+03  0.25500000000E-02 0.  1.
    8880023    1    1    2    0    0  0.28515279040E+02 -0.93099180643E+02  0.17462269421E+04  0.18688497313E+04  0.65864270000E+03 0. -1.
    8880022    1    1    2    0    0 -0.28515279040E+02  0.93099180643E+02 -0.17084415351E+03  0.24911835817E+03  0.15294330000E+03 0.  0.
<mgrwt>
<rscale>  0 0.48096327E+03</rscale>
<asrwt>0</asrwt>
<pdfrwt beam="1">  1        2 0.28410391E+00 0.66580086E+03</pdfrwt>
<pdfrwt beam="2">  1       -2 0.41737331E-01 0.66580086E+03</pdfrwt>
<totfact> 0.45922436E+01</totfact>
</mgrwt>
</event>
<event>
 4    1  0.6502538E-008  0.8363597E+03  0.7818608E-02  0.9637083E-01
         -2   -1    0    0    0  501 -0.00000000000E+00  0.00000000000E+00  0.96619324676E+03  0.96619324677E+03  0.25500000000E-02 0.  1.
          2   -1    0    0  501    0  0.00000000000E+00 -0.00000000000E+00 -0.65325992980E+03  0.65325992981E+03  0.25500000000E-02 0. -1.
    8880023    1    1    2    0    0  0.85308360690E+01 -0.51537806909E+03 -0.21750135865E+03  0.86417844022E+03  0.65864270000E+03 0.  0.
    8880022    1    1    2    0    0 -0.85308360690E+01  0.51537806909E+03  0.53043467561E+03  0.75527473635E+03  0.15294330000E+03 0.  0.
<mgrwt>
<rscale>  0 0.74889665E+03</rscale>
<asrwt>0</asrwt>
<pdfrwt beam="1">  1        2 0.10050153E+00 0.83635969E+03</pdfrwt>
<pdfrwt beam="2">  1       -2 0.14864511E+00 0.83635969E+03</pdfrwt>
<totfact> 0.13802675E+01</totfact>
</mgrwt>
</event>
<event>
 4    1  0.6502538E-008  0.1280350E+04  0.7818608E-02  0.9082718E-01
          2   -1    0    0  501    0  0.00000000000E+00  0.00000000000E+00  0.35632805598E+04  0.35632805598E+04  0.25500000000E-02 0. -1.
         -2   -1    0    0    0  501 -0.00000000000E+00 -0.00000000000E+00 -0.43982351272E+03  0.43982351273E+03  0.25500000000E-02 0.  1.
    8880023    1    1    2    0    0  0.33889039972E+03 -0.10443363692E+04  0.22618726927E+04  0.25991082008E+04  0.65864270000E+03 0.  0.
    8880022    1    1    2    0    0 -0.33889039972E+03  0.10443363692E+04  0.86158435442E+03  0.14039958718E+04  0.15294330000E+03 0.  0.
<mgrwt>
<rscale>  0 0.12350513E+04</rscale>
<asrwt>0</asrwt>
<pdfrwt beam="1">  1        2 0.54819699E+00 0.12803497E+04</pdfrwt>
<pdfrwt beam="2">  1       -2 0.67665158E-01 0.12803497E+04</pdfrwt>
<totfact> 0.14620844E+00</totfact>
</mgrwt>
</event>
<event>
 4    1  0.6502538E-008  0.9470421E+03  0.7818608E-02  0.9454383E-01
          2   -1    0    0  501    0  0.00000000000E+00  0.00000000000E+00  0.50776190171E+04  0.50776190171E+04  0.25500000000E-02 0. -1.
         -2   -1    0    0    0  501 -0.00000000000E+00 -0.00000000000E+00 -0.23452619425E+03  0.23452619426E+03  0.25500000000E-02 0.  1.
    8880023    1    1    2    0    0 -0.62154132871E+03 -0.27706482648E+03  0.43649710425E+04  0.44665267210E+04  0.65864270000E+03 0. -1.
    8880022    1    1    2    0    0  0.62154132871E+03  0.27706482648E+03  0.47812178036E+03  0.84561849036E+03  0.15294330000E+03 0.  0.
<mgrwt>
<rscale>  0 0.87732195E+03</rscale>
<asrwt>0</asrwt>
<pdfrwt beam="1">  1        2 0.78117208E+00 0.94704210E+03</pdfrwt>
<pdfrwt beam="2">  1       -2 0.36080956E-01 0.94704210E+03</pdfrwt>
<totfact> 0.22121225E-01</totfact>
</mgrwt>
</event>
<event>
 4    1  0.6502538E-008  0.6642884E+03  0.7818608E-02  0.1020138E+00
          2   -1    0    0  501    0  0.00000000000E+00  0.00000000000E+00  0.15112777520E+04  0.15112777520E+04  0.25500000000E-02 0. -1.
         -2   -1    0    0    0  501 -0.00000000000E+00 -0.00000000000E+00 -0.30521833895E+03  0.30521833896E+03  0.25500000000E-02 0.  1.
    8880023    1    1    2    0    0 -0.65038718317E+02 -0.56910318158E+02  0.14031658523E+04  0.15524668868E+04  0.65864270000E+03 0. -1.
    8880022    1    1    2    0    0  0.65038718317E+02  0.56910318158E+02 -0.19710643932E+03  0.26402920412E+03  0.15294330000E+03 0.  0.
<mgrwt>
<rscale>  0 0.47636824E+03</rscale>
<asrwt>0</asrwt>
<pdfrwt beam="1">  1        2 0.23250427E+00 0.66428836E+03</pdfrwt>
<pdfrwt beam="2">  1       -2 0.46956668E-01 0.66428836E+03</pdfrwt>
<totfact> 0.55450329E+01</totfact>
</mgrwt>
</event>
<event>
 4    1  0.6502538E-008  0.1898434E+04  0.7818608E-02  0.8669956E-01
          2   -1    0    0  501    0  0.00000000000E+00  0.00000000000E+00  0.26691514790E+04  0.26691514790E+04  0.25500000000E-02 0. -1.
         -2   -1    0    0    0  501 -0.00000000000E+00 -0.00000000000E+00 -0.14281229941E+04  0.14281229941E+04  0.25500000000E-02 0.  1.
    8880023    1    1    2    0    0  0.95665381779E+03 -0.15016835478E+04  0.13138238203E+04  0.23087189612E+04  0.65864270000E+03 0.  0.
    8880022    1    1    2    0    0 -0.95665381779E+03  0.15016835478E+04 -0.72795335467E+02  0.17885555118E+04  0.15294330000E+03 0.  0.
<mgrwt>
<rscale>  0 0.18699593E+04</rscale>
<asrwt>0</asrwt>
<pdfrwt beam="1">  1        2 0.41063868E+00 0.18984336E+04</pdfrwt>
<pdfrwt beam="2">  1       -2 0.21971123E+00 0.18984336E+04</pdfrwt>
<totfact> 0.24760682E-01</totfact>
</mgrwt>
</event>
<event>
 4    1  0.6502538E-008  0.1541238E+04  0.7818608E-02  0.8881052E-01
          2   -1    0    0  501    0  0.00000000000E+00  0.00000000000E+00  0.24945378693E+04  0.24945378693E+04  0.25500000000E-02 0. -1.
         -2   -1    0    0    0  501 -0.00000000000E+00 -0.00000000000E+00 -0.12130776732E+04  0.12130776732E+04  0.25500000000E-02 0.  1.
    8880023    1    1    2    0    0 -0.11672353740E+04  0.76102905681E+03 -0.32543456488E+03  0.15752210975E+04  0.65864270000E+03 0.  0.
    8880022    1    1    2    0    0  0.11672353740E+04 -0.76102905681E+03  0.16068947610E+04  0.21323944451E+04  0.15294330000E+03 0.  0.
<mgrwt>
<rscale>  0 0.15051245E+04</rscale>
<asrwt>0</asrwt>
<pdfrwt beam="1">  1        2 0.38377505E+00 0.15412378E+04</pdfrwt>
<pdfrwt beam="2">  1       -2 0.18662734E+00 0.15412378E+04</pdfrwt>
<totfact> 0.53640789E-01</totfact>
</mgrwt>
</event>
<event>
 4    1  0.6502538E-008  0.1019626E+04  0.7818608E-02  0.9356320E-01
          2   -1    0    0  501    0  0.00000000000E+00  0.00000000000E+00  0.35283214109E+04  0.35283214109E+04  0.25500000000E-02 0. -1.
         -2   -1    0    0    0  501 -0.00000000000E+00 -0.00000000000E+00 -0.54974435561E+03  0.54974435561E+03  0.25500000000E-02 0.  1.
    8880023    1    1    2    0    0  0.58453183145E+03 -0.51395425522E+03  0.31110237123E+04  0.32738517350E+04  0.65864270000E+03 0. -1.
    8880022    1    1    2    0    0 -0.58453183145E+03  0.51395425522E+03 -0.13244665699E+03  0.80421403146E+03  0.15294330000E+03 0.  0.
<mgrwt>
<rscale>  0 0.95759251E+03</rscale>
<asrwt>0</asrwt>
<pdfrwt beam="1">  1        2 0.54281870E+00 0.10196257E+04</pdfrwt>
<pdfrwt beam="2">  1       -2 0.84576051E-01 0.10196257E+04</pdfrwt>
<totfact> 0.97681711E-01</totfact>
</mgrwt>
</event>
<event>
 4    1  0.6502538E-008  0.7483916E+03  0.7818608E-02  0.9836144E-01
         -2   -1    0    0    0  501 -0.00000000000E+00  0.00000000000E+00  0.14303331134E+04  0.14303331134E+04  0.25500000000E-02 0.  1.
          2   -1    0    0  501    0  0.00000000000E+00 -0.00000000000E+00 -0.11490671139E+04  0.11490671139E+04  0.25500000000E-02 0. -1.
    8880023    1    1    2    0    0 -0.10725291776E+03 -0.33878696518E+03 -0.99542708327E+03  0.12453774852E+04  0.65864270000E+03 0.  0.
    8880022    1    1    2    0    0  0.10725291776E+03  0.33878696518E+03  0.12766930828E+04  0.13340227422E+04  0.15294330000E+03 0.  0.
<mgrwt>
<rscale>  0 0.63458391E+03</rscale>
<asrwt>0</asrwt>
<pdfrwt beam="1">  1        2 0.17677956E+00 0.74839161E+03</pdfrwt>
<pdfrwt beam="2">  1       -2 0.22005125E+00 0.74839161E+03</pdfrwt>
<totfact> 0.20680819E+00</totfact>
</mgrwt>
</event>
<event>
 4    1  0.6502538E-008  0.6968859E+03  0.7818608E-02  0.1001037E+00
         -2   -1    0    0    0  501 -0.00000000000E+00  0.00000000000E+00  0.64668082873E+03  0.64668082873E+03  0.25500000000E-02 0.  1.
          2   -1    0    0  501    0  0.00000000000E+00 -0.00000000000E+00 -0.46846348866E+03  0.46846348866E+03  0.25500000000E-02 0. -1.
    8880023    1    1    2    0    0 -0.22666278333E+03  0.21534257220E+02 -0.12311062700E+03  0.70767660292E+03  0.65864270000E+03 0. -1.
    8880022    1    1    2    0    0  0.22666278333E+03 -0.21534257220E+02  0.30132796707E+03  0.40746771447E+03  0.15294330000E+03 0.  0.
<mgrwt>
<rscale>  0 0.55197721E+03</rscale>
<asrwt>0</asrwt>
<pdfrwt beam="1">  1        2 0.72071306E-01 0.69688589E+03</pdfrwt>
<pdfrwt beam="2">  1       -2 0.99489358E-01 0.69688589E+03</pdfrwt>
<totfact> 0.56353405E+01</totfact>
</mgrwt>
</event>
<event>
 4    1  0.6502538E-008  0.6749907E+03  0.7818608E-02  0.1012312E+00
         -2   -1    0    0    0  501 -0.00000000000E+00  0.00000000000E+00  0.94928071825E+03  0.94928071825E+03  0.25500000000E-02 0.  1.
          2   -1    0    0  501    0  0.00000000000E+00 -0.00000000000E+00 -0.38358175964E+03  0.38358175965E+03  0.25500000000E-02 0. -1.
    8880023    1    1    2    0    0 -0.19021324691E+02 -0.14642540499E+03 -0.54551485605E+02  0.67719146544E+03  0.65864270000E+03 0. -1.
    8880022    1    1    2    0    0  0.19021324691E+02  0.14642540499E+03  0.62025044422E+03  0.65567101246E+03  0.15294330000E+03 0.  0.
<mgrwt>
<rscale>  0 0.50565961E+03</rscale>
<asrwt>0</asrwt>
<pdfrwt beam="1">  1        2 0.59012579E-01 0.67499068E+03</pdfrwt>
<pdfrwt beam="2">  1       -2 0.14604319E+00 0.67499068E+03</pdfrwt>
<totfact> 0.27304158E+01</totfact>
</mgrwt>
</event>
<event>
 4    1  0.6502538E-008  0.8656400E+03  0.7818608E-02  0.9583609E-01
          2   -1    0    0  501    0  0.00000000000E+00  0.00000000000E+00  0.15970847348E+04  0.15970847348E+04  0.25500000000E-02 0. -1.
         -2   -1    0    0    0  501 -0.00000000000E+00 -0.00000000000E+00 -0.99843010197E+03  0.99843010197E+03  0.25500000000E-02 0.  1.
    8880023    1    1    2    0    0 -0.30708654086E+03 -0.47034053644E+03  0.13752101495E+04  0.16249724691E+04  0.65864270000E+03 0. -1.
    8880022    1    1    2    0    0  0.30708654086E+03  0.47034053644E+03 -0.77655551672E+03  0.97054236763E+03  0.15294330000E+03 0.  0.
<mgrwt>
<rscale>  0 0.78390633E+03</rscale>
<asrwt>0</asrwt>
<pdfrwt beam="1">  1        2 0.24570534E+00 0.86563998E+03</pdfrwt>
<pdfrwt beam="2">  1       -2 0.15360463E+00 0.86563998E+03</pdfrwt>
<totfact> 0.31826193E+00</totfact>
</mgrwt>
</event>
<event>
 4    1  0.6502538E-008  0.6670650E+03  0.7818608E-02  0.1017860E+00
         -2   -1    0    0    0  501 -0.00000000000E+00  0.00000000000E+00  0.35935204876E+03  0.35935204877E+03  0.25500000000E-02 0.  1.
          2   -1    0    0  501    0  0.00000000000E+00 -0.00000000000E+00 -0.83457503640E+03  0.83457503640E+03  0.25500000000E-02 0. -1.
    8880023    1    1    2    0    0 -0.92014897946E+02 -0.51949289536E+02 -0.65531612335E+03  0.93510154417E+03  0.65864270000E+03 0. -1.
    8880022    1    1    2    0    0  0.92014897946E+02  0.51949289536E+02  0.18009313571E+03  0.25882554100E+03  0.15294330000E+03 0.  0.
<mgrwt>
<rscale>  0 0.48466683E+03</rscale>
<asrwt>0</asrwt>
<pdfrwt beam="1">  1        2 0.12839616E+00 0.66706497E+03</pdfrwt>
<pdfrwt beam="2">  1       -2 0.55284931E-01 0.66706497E+03</pdfrwt>
<totfact> 0.10192922E+02</totfact>
</mgrwt>
</event>
<event>
 4    1  0.6502538E-008  0.9354582E+03  0.7818608E-02  0.9471353E-01
         -2   -1    0    0    0  501 -0.00000000000E+00  0.00000000000E+00  0.98318591700E+03  0.98318591701E+03  0.25500000000E-02 0.  1.
          2   -1    0    0  501    0  0.00000000000E+00 -0.00000000000E+00 -0.18422692532E+04  0.18422692532E+04  0.25500000000E-02 0. -1.
    8880023    1    1    2    0    0 -0.14572741035E+03 -0.64810135703E+03 -0.15781936418E+04  0.18346054683E+04  0.65864270000E+03 0. -1.
    8880022    1    1    2    0    0  0.14572741035E+03  0.64810135703E+03  0.71911030560E+03  0.99084970190E+03  0.15294330000E+03 0.  0.
<mgrwt>
<rscale>  0 0.86429224E+03</rscale>
<asrwt>0</asrwt>
<pdfrwt beam="1">  1        2 0.28342604E+00 0.93545821E+03</pdfrwt>
<pdfrwt beam="2">  1       -2 0.15125937E+00 0.93545821E+03</pdfrwt>
<totfact> 0.24063481E+00</totfact>
</mgrwt>
</event>
<event>
 4    1  0.6502538E-008  0.8455221E+03  0.7818608E-02  0.9619854E-01
          2   -1    0    0  501    0  0.00000000000E+00  0.00000000000E+00  0.23045381584E+04  0.23045381584E+04  0.25500000000E-02 0. -1.
         -2   -1    0    0    0  501 -0.00000000000E+00 -0.00000000000E+00 -0.11341297379E+04  0.11341297379E+04  0.25500000000E-02 0.  1.
    8880023    1    1    2    0    0 -0.32946868422E+03  0.41538880232E+03  0.21522571428E+04  0.23123837238E+04  0.65864270000E+03 0. -1.
    8880022    1    1    2    0    0  0.32946868422E+03 -0.41538880232E+03 -0.98184872227E+03  0.11262841726E+04  0.15294330000E+03 0.  0.
<mgrwt>
<rscale>  0 0.75995908E+03</rscale>
<asrwt>0</asrwt>
<pdfrwt beam="1">  1        2 0.35454433E+00 0.84552213E+03</pdfrwt>
<pdfrwt beam="2">  1       -2 0.17448150E+00 0.84552213E+03</pdfrwt>
<totfact> 0.91881880E-01</totfact>
</mgrwt>
</event>
<event>
 4    1  0.6502538E-008  0.6893796E+03  0.7818608E-02  0.1004449E+00
          2   -1    0    0  501    0  0.00000000000E+00  0.00000000000E+00  0.70285880234E+03  0.70285880234E+03  0.25500000000E-02 0. -1.
         -2   -1    0    0    0  501 -0.00000000000E+00 -0.00000000000E+00 -0.75060346411E+03  0.75060346412E+03  0.25500000000E-02 0.  1.
    8880023    1    1    2    0    0 -0.81566079898E+02  0.18649665517E+03  0.49854100629E+03  0.85075693885E+03  0.65864270000E+03 0. -1.
    8880022    1    1    2    0    0  0.81566079898E+02 -0.18649665517E+03 -0.54628566807E+03  0.60270532761E+03  0.15294330000E+03 0.  0.
<mgrwt>
<rscale>  0 0.53741800E+03</rscale>
<asrwt>0</asrwt>
<pdfrwt beam="1">  1        2 0.10813212E+00 0.68937960E+03</pdfrwt>
<pdfrwt beam="2">  1       -2 0.11547746E+00 0.68937960E+03</pdfrwt>
<totfact> 0.24255016E+01</totfact>
</mgrwt>
</event>
<event>
 4    1  0.6502538E-008  0.8602601E+03  0.7818608E-02  0.9593101E-01
         -2   -1    0    0    0  501 -0.00000000000E+00  0.00000000000E+00  0.10148439547E+04  0.10148439547E+04  0.25500000000E-02 0.  1.
          2   -1    0    0  501    0  0.00000000000E+00 -0.00000000000E+00 -0.13041569175E+04  0.13041569175E+04  0.25500000000E-02 0. -1.
    8880023    1    1    2    0    0  0.16305263383E+03 -0.52882048091E+03  0.74369963694E+03  0.11371616502E+04  0.65864270000E+03 0.  0.
    8880022    1    1    2    0    0 -0.16305263383E+03  0.52882048091E+03 -0.10330125998E+04  0.11818392220E+04  0.15294330000E+03 0.  0.
<mgrwt>
<rscale>  0 0.77754495E+03</rscale>
<asrwt>0</asrwt>
<pdfrwt beam="1">  1        2 0.20063953E+00 0.86026012E+03</pdfrwt>
<pdfrwt beam="2">  1       -2 0.15612984E+00 0.86026012E+03</pdfrwt>
<totfact> 0.44611592E+00</totfact>
</mgrwt>
</event>
<event>
 4    1  0.6502538E-008  0.6899594E+03  0.7818608E-02  0.1004172E+00
         -2   -1    0    0    0  501 -0.00000000000E+00  0.00000000000E+00  0.44715273766E+03  0.44715273767E+03  0.25500000000E-02 0.  1.
          2   -1    0    0  501    0  0.00000000000E+00 -0.00000000000E+00 -0.77570282462E+03  0.77570282462E+03  0.25500000000E-02 0. -1.
    8880023    1    1    2    0    0 -0.12294687702E+03 -0.16467488666E+03 -0.55147083537E+03  0.88326895190E+03  0.65864270000E+03 0.  0.
    8880022    1    1    2    0    0  0.12294687702E+03  0.16467488666E+03  0.22292074842E+03  0.33958661039E+03  0.15294330000E+03 0.  0.
<mgrwt>
<rscale>  0 0.53858177E+03</rscale>
<asrwt>0</asrwt>
<pdfrwt beam="1">  1        2 0.11933890E+00 0.68995939E+03</pdfrwt>
<pdfrwt beam="2">  1       -2 0.68792729E-01 0.68995939E+03</pdfrwt>
<totfact> 0.70500281E+01</totfact>
</mgrwt>
</event>
<event>
 4    1  0.6502538E-008  0.1292560E+04  0.7818608E-02  0.9072011E-01
          2   -1    0    0  501    0  0.00000000000E+00  0.00000000000E+00  0.31925835072E+04  0.31925835072E+04  0.25500000000E-02 0. -1.
         -2   -1    0    0    0  501 -0.00000000000E+00 -0.00000000000E+00 -0.48202349560E+03  0.48202349561E+03  0.25500000000E-02 0.  1.
    8880023    1    1    2    0    0  0.14540863937E+03  0.11026144407E+04  0.10261090411E+04  0.16503370104E+04  0.65864270000E+03 0.  0.
    8880022    1    1    2    0    0 -0.14540863937E+03 -0.11026144407E+04  0.16844509704E+04  0.20242699924E+04  0.15294330000E+03 0.  0.
<mgrwt>
<rscale>  0 0.12478062E+04</rscale>
<asrwt>0</asrwt>
<pdfrwt beam="1">  1        2 0.49116669E+00 0.12925604E+04</pdfrwt>
<pdfrwt beam="2">  1       -2 0.74157461E-01 0.12925604E+04</pdfrwt>
<totfact> 0.21178694E+00</totfact>
</mgrwt>
</event>
<event>
 4    1  0.6502538E-008  0.1231334E+04  0.7818608E-02  0.9127249E-01
          2   -1    0    0  501    0  0.00000000000E+00  0.00000000000E+00  0.10956903288E+04  0.10956903288E+04  0.25500000000E-02 0. -1.
         -2   -1    0    0    0  501 -0.00000000000E+00 -0.00000000000E+00 -0.16039206411E+04  0.16039206411E+04  0.25500000000E-02 0.  1.
    8880023    1    1    2    0    0 -0.71118344803E+03 -0.75933673618E+03  0.41591304896E+03  0.12996799784E+04  0.65864270000E+03 0.  0.
    8880022    1    1    2    0    0  0.71118344803E+03  0.75933673618E+03 -0.92414336132E+03  0.13999309915E+04  0.15294330000E+03 0.  0.
<mgrwt>
<rscale>  0 0.11836952E+04</rscale>
<asrwt>0</asrwt>
<pdfrwt beam="1">  1        2 0.16856774E+00 0.12313344E+04</pdfrwt>
<pdfrwt beam="2">  1       -2 0.24675702E+00 0.12313344E+04</pdfrwt>
<totfact> 0.14306593E+00</totfact>
</mgrwt>
</event>
<event>
 4    1  0.6502538E-008  0.6783652E+03  0.7818608E-02  0.1010264E+00
         -2   -1    0    0    0  501 -0.00000000000E+00  0.00000000000E+00  0.49160742165E+03  0.49160742166E+03  0.25500000000E-02 0.  1.
          2   -1    0    0  501    0  0.00000000000E+00 -0.00000000000E+00 -0.83343956623E+03  0.83343956624E+03  0.25500000000E-02 0. -1.
    8880023    1    1    2    0    0  0.15670722966E+03  0.42568153104E+02 -0.65339352723E+03  0.94186119528E+03  0.65864270000E+03 0. -1.
    8880022    1    1    2    0    0 -0.15670722966E+03 -0.42568153104E+02  0.31156138265E+03  0.38318579261E+03  0.15294330000E+03 0.  0.
<mgrwt>
<rscale>  0 0.51369895E+03</rscale>
<asrwt>0</asrwt>
<pdfrwt beam="1">  1        2 0.12822147E+00 0.67836525E+03</pdfrwt>
<pdfrwt beam="2">  1       -2 0.75631911E-01 0.67836525E+03</pdfrwt>
<totfact> 0.52117287E+01</totfact>
</mgrwt>
</event>
<event>
 4    1  0.6502538E-008  0.8964707E+03  0.7818608E-02  0.9531721E-01
         -2   -1    0    0    0  501 -0.00000000000E+00  0.00000000000E+00  0.29124590316E+03  0.29124590317E+03  0.25500000000E-02 0.  1.
          2   -1    0    0  501    0  0.00000000000E+00 -0.00000000000E+00 -0.42298705376E+04  0.42298705376E+04  0.25500000000E-02 0. -1.
    8880023    1    1    2    0    0  0.33848068339E+03  0.50525267301E+03 -0.37652526235E+04  0.38705021588E+04  0.65864270000E+03 0.  0.
    8880022    1    1    2    0    0 -0.33848068339E+03 -0.50525267301E+03 -0.17337201089E+03  0.65061428188E+03  0.15294330000E+03 0.  0.
<mgrwt>
<rscale>  0 0.81985004E+03</rscale>
<asrwt>0</asrwt>
<pdfrwt beam="1">  1        2 0.65074927E+00 0.89647066E+03</pdfrwt>
<pdfrwt beam="2">  1       -2 0.44807065E-01 0.89647066E+03</pdfrwt>
<totfact> 0.11235498E+00</totfact>
</mgrwt>
</event>
<event>
 4    1  0.6502538E-008  0.6758095E+03  0.7818608E-02  0.1011801E+00
         -2   -1    0    0    0  501 -0.00000000000E+00  0.00000000000E+00  0.60096843542E+03  0.60096843542E+03  0.25500000000E-02 0.  1.
          2   -1    0    0  501    0  0.00000000000E+00 -0.00000000000E+00 -0.85354949325E+03  0.85354949326E+03  0.25500000000E-02 0. -1.
    8880023    1    1    2    0    0  0.14121750968E+03  0.54459700053E+02 -0.69075320844E+03  0.96636351607E+03  0.65864270000E+03 0. -1.
    8880022    1    1    2    0    0 -0.14121750968E+03 -0.54459700053E+02  0.43817215060E+03  0.48815441261E+03  0.15294330000E+03 0.  0.
<mgrwt>
<rscale>  0 0.50765154E+03</rscale>
<asrwt>0</asrwt>
<pdfrwt beam="1">  1        2 0.13131531E+00 0.67580948E+03</pdfrwt>
<pdfrwt beam="2">  1       -2 0.92456682E-01 0.67580948E+03</pdfrwt>
<totfact> 0.32014912E+01</totfact>
</mgrwt>
</event>
<event>
 4    1  0.6502538E-008  0.7165673E+03  0.7818608E-02  0.9934377E-01
         -2   -1    0    0    0  501 -0.00000000000E+00  0.00000000000E+00  0.33272526674E+03  0.33272526675E+03  0.25500000000E-02 0.  1.
          2   -1    0    0  501    0  0.00000000000E+00 -0.00000000000E+00 -0.10595464724E+04  0.10595464724E+04  0.25500000000E-02 0. -1.
    8880023    1    1    2    0    0 -0.26361372045E+03  0.10082801216E+03 -0.78842216908E+03  0.10654004902E+04  0.65864270000E+03 0. -1.
    8880022    1    1    2    0    0  0.26361372045E+03 -0.10082801216E+03  0.61600963425E+02  0.32687124890E+03  0.15294330000E+03 0.  0.
<mgrwt>
<rscale>  0 0.58623779E+03</rscale>
<asrwt>0</asrwt>
<pdfrwt beam="1">  1        2 0.16300715E+00 0.71656729E+03</pdfrwt>
<pdfrwt beam="2">  1       -2 0.51188503E-01 0.71656729E+03</pdfrwt>
<totfact> 0.84710119E+01</totfact>
</mgrwt>
</event>
<event>
 4    1  0.6502538E-008  0.9218365E+03  0.7818608E-02  0.9491849E-01
         -2   -1    0    0    0  501 -0.00000000000E+00  0.00000000000E+00  0.81555253456E+03  0.81555253456E+03  0.25500000000E-02 0.  1.
          2   -1    0    0  501    0  0.00000000000E+00 -0.00000000000E+00 -0.17217807688E+04  0.17217807688E+04  0.25500000000E-02 0. -1.
    8880023    1    1    2    0    0  0.62298470722E+03 -0.16692026680E+03 -0.14239279048E+04  0.16962762762E+04  0.65864270000E+03 0.  0.
    8880022    1    1    2    0    0 -0.62298470722E+03  0.16692026680E+03  0.51769967060E+03  0.84105702711E+03  0.15294330000E+03 0.  0.
<mgrwt>
<rscale>  0 0.84887448E+03</rscale>
<asrwt>0</asrwt>
<pdfrwt beam="1">  1        2 0.26488935E+00 0.92183650E+03</pdfrwt>
<pdfrwt beam="2">  1       -2 0.12546962E+00 0.92183650E+03</pdfrwt>
<totfact> 0.45530250E+00</totfact>
</mgrwt>
</event>
<event>
 4    1  0.6502538E-008  0.1016859E+04  0.7818608E-02  0.9359825E-01
         -2   -1    0    0    0  501 -0.00000000000E+00  0.00000000000E+00  0.51540999861E+03  0.51540999862E+03  0.25500000000E-02 0.  1.
          2   -1    0    0  501    0  0.00000000000E+00 -0.00000000000E+00 -0.20400343795E+04  0.20400343795E+04  0.25500000000E-02 0. -1.
    8880023    1    1    2    0    0  0.47637544654E+03 -0.61094954805E+03 -0.14377561426E+04  0.17610070551E+04  0.65864270000E+03 0. -1.
    8880022    1    1    2    0    0 -0.47637544654E+03  0.61094954805E+03 -0.86868238291E+02  0.79443732300E+03  0.15294330000E+03 0.  0.
<mgrwt>
<rscale>  0 0.95456963E+03</rscale>
<asrwt>0</asrwt>
<pdfrwt beam="1">  1        2 0.31385144E+00 0.10168594E+04</pdfrwt>
<pdfrwt beam="2">  1       -2 0.79293847E-01 0.10168594E+04</pdfrwt>
<totfact> 0.89572719E+00</totfact>
</mgrwt>
</event>
<event>
 4    1  0.6502538E-008  0.1083481E+04  0.7818608E-02  0.9279674E-01
         -2   -1    0    0    0  501 -0.00000000000E+00  0.00000000000E+00  0.48669545355E+03  0.48669545356E+03  0.25500000000E-02 0.  1.
          2   -1    0    0  501    0  0.00000000000E+00 -0.00000000000E+00 -0.43139279369E+04  0.43139279369E+04  0.25500000000E-02 0. -1.
    8880023    1    1    2    0    0 -0.41406290303E+03  0.75410458187E+03 -0.37726227036E+04  0.39251259952E+04  0.65864270000E+03 0.  0.
    8880022    1    1    2    0    0  0.41406290303E+03 -0.75410458187E+03 -0.54609779734E+02  0.87549739526E+03  0.15294330000E+03 0.  0.
<mgrwt>
<rscale>  0 0.10267582E+04</rscale>
<asrwt>0</asrwt>
<pdfrwt beam="1">  1        2 0.66368120E+00 0.10834814E+04</pdfrwt>
<pdfrwt beam="2">  1       -2 0.74876226E-01 0.10834814E+04</pdfrwt>
<totfact> 0.30971794E-01</totfact>
</mgrwt>
</event>
<event>
 4    1  0.6502538E-008  0.8145210E+03  0.7818608E-02  0.9680236E-01
         -2   -1    0    0    0  501 -0.00000000000E+00  0.00000000000E+00  0.80605541166E+03  0.80605541167E+03  0.25500000000E-02 0.  1.
          2   -1    0    0  501    0  0.00000000000E+00 -0.00000000000E+00 -0.26241859242E+04  0.26241859242E+04  0.25500000000E-02 0. -1.
    8880023    1    1    2    0    0  0.44976568316E+03  0.16536352437E+03 -0.24734569828E+04  0.26041186449E+04  0.65864270000E+03 0. -1.
    8880022    1    1    2    0    0 -0.44976568316E+03 -0.16536352437E+03  0.65532647022E+03  0.82612269096E+03  0.15294330000E+03 0.  0.
<mgrwt>
<rscale>  0 0.72205843E+03</rscale>
<asrwt>0</asrwt>
<pdfrwt beam="1">  1        2 0.40372091E+00 0.81452101E+03</pdfrwt>
<pdfrwt beam="2">  1       -2 0.12400853E+00 0.81452101E+03</pdfrwt>
<totfact> 0.15006244E+00</totfact>
</mgrwt>
</event>
<event>
 4    1  0.6502538E-008  0.9113074E+03  0.7818608E-02  0.9508118E-01
          2   -1    0    0  501    0  0.00000000000E+00  0.00000000000E+00  0.12772554327E+04  0.12772554327E+04  0.25500000000E-02 0. -1.
         -2   -1    0    0    0  501 -0.00000000000E+00 -0.00000000000E+00 -0.15647587914E+04  0.15647587914E+04  0.25500000000E-02 0.  1.
    8880023    1    1    2    0    0  0.27357851865E+03 -0.56729685309E+03  0.10290574674E+04  0.13745691699E+04  0.65864270000E+03 0.  0.
    8880022    1    1    2    0    0 -0.27357851865E+03  0.56729685309E+03 -0.13165608261E+04  0.14674450542E+04  0.15294330000E+03 0.  0.
<mgrwt>
<rscale>  0 0.83687947E+03</rscale>
<asrwt>0</asrwt>
<pdfrwt beam="1">  1        2 0.19650084E+00 0.91130737E+03</pdfrwt>
<pdfrwt beam="2">  1       -2 0.24073212E+00 0.91130737E+03</pdfrwt>
<totfact> 0.12604993E+00</totfact>
</mgrwt>
</event>
<event>
 4    1  0.6502538E-008  0.6860715E+03  0.7818608E-02  0.1006079E+00
          2   -1    0    0  501    0  0.00000000000E+00  0.00000000000E+00  0.25997418388E+04  0.25997418388E+04  0.25500000000E-02 0. -1.
         -2   -1    0    0    0  501 -0.00000000000E+00 -0.00000000000E+00 -0.44739385784E+03  0.44739385785E+03  0.25500000000E-02 0.  1.
    8880023    1    1    2    0    0  0.19194146023E+03  0.65064542960E+01  0.25162807071E+04  0.26081339424E+04  0.65864270000E+03 0. -1.
    8880022    1    1    2    0    0 -0.19194146023E+03 -0.65064542960E+01 -0.36393272614E+03  0.43900175429E+03  0.15294330000E+03 0.  0.
<mgrwt>
<rscale>  0 0.53063346E+03</rscale>
<asrwt>0</asrwt>
<pdfrwt beam="1">  1        2 0.39996028E+00 0.68607147E+03</pdfrwt>
<pdfrwt beam="2">  1       -2 0.68829825E-01 0.68607147E+03</pdfrwt>
<totfact> 0.62542684E+00</totfact>
</mgrwt>
</event>
<event>
 4    1  0.6502538E-008  0.7337022E+03  0.7818608E-02  0.9878687E-01
          2   -1    0    0  501    0  0.00000000000E+00  0.00000000000E+00  0.61948235274E+03  0.61948235275E+03  0.25500000000E-02 0. -1.
         -2   -1    0    0    0  501 -0.00000000000E+00 -0.00000000000E+00 -0.89378165682E+03  0.89378165683E+03  0.25500000000E-02 0.  1.
    8880023    1    1    2    0    0  0.24327357570E+03 -0.21290076008E+03  0.33515514187E+03  0.80662751110E+03  0.65864270000E+03 0. -1.
    8880022    1    1    2    0    0 -0.24327357570E+03  0.21290076008E+03 -0.60945444595E+03  0.70663649848E+03  0.15294330000E+03 0.  0.
<mgrwt>
<rscale>  0 0.61305421E+03</rscale>
<asrwt>0</asrwt>
<pdfrwt beam="1">  1        2 0.95304978E-01 0.73370224E+03</pdfrwt>
<pdfrwt beam="2">  1       -2 0.13750487E+00 0.73370224E+03</pdfrwt>
<totfact> 0.18227189E+01</totfact>
</mgrwt>
</event>
<event>
 4    1  0.6502538E-008  0.7059598E+03  0.7818608E-02  0.9973322E-01
         -2   -1    0    0    0  501 -0.00000000000E+00  0.00000000000E+00  0.29932426492E+03  0.29932426493E+03  0.25500000000E-02 0.  1.
          2   -1    0    0  501    0  0.00000000000E+00 -0.00000000000E+00 -0.22507683405E+04  0.22507683405E+04  0.25500000000E-02 0. -1.
    8880023    1    1    2    0    0 -0.58520424328E+02  0.24727379242E+03 -0.21020736149E+04  0.22174518388E+04  0.65864270000E+03 0. -1.
    8880022    1    1    2    0    0  0.58520424328E+02 -0.24727379242E+03  0.15062953936E+03  0.33264076663E+03  0.15294330000E+03 0.  0.
<mgrwt>
<rscale>  0 0.56835671E+03</rscale>
<asrwt>0</asrwt>
<pdfrwt beam="1">  1        2 0.34627204E+00 0.70595975E+03</pdfrwt>
<pdfrwt beam="2">  1       -2 0.46049888E-01 0.70595975E+03</pdfrwt>
<totfact> 0.22609940E+01</totfact>
</mgrwt>
</event>
<event>
 4    1  0.6502538E-008  0.1277659E+04  0.7818608E-02  0.9085097E-01
         -2   -1    0    0    0  501 -0.00000000000E+00  0.00000000000E+00  0.18678936518E+04  0.18678936518E+04  0.25500000000E-02 0.  1.
          2   -1    0    0  501    0  0.00000000000E+00 -0.00000000000E+00 -0.10318755085E+04  0.10318755085E+04  0.25500000000E-02 0. -1.
    8880023    1    1    2    0    0 -0.32277241222E+03 -0.10461448852E+04 -0.30239431812E+03  0.13129560849E+04  0.65864270000E+03 0.  0.
    8880022    1    1    2    0    0  0.32277241222E+03  0.10461448852E+04  0.11384124614E+04  0.15868130754E+04  0.15294330000E+03 0.  0.
<mgrwt>
<rscale>  0 0.12322382E+04</rscale>
<asrwt>0</asrwt>
<pdfrwt beam="1">  1        2 0.15875008E+00 0.12776585E+04</pdfrwt>
<pdfrwt beam="2">  1       -2 0.28736825E+00 0.12776585E+04</pdfrwt>
<totfact> 0.88359850E-01</totfact>
</mgrwt>
</event>
<event>
 4    1  0.6502538E-008  0.6638638E+03  0.7818608E-02  0.1020506E+00
         -2   -1    0    0    0  501 -0.00000000000E+00  0.00000000000E+00  0.18224587176E+04  0.18224587176E+04  0.25500000000E-02 0.  1.
          2   -1    0    0  501    0  0.00000000000E+00 -0.00000000000E+00 -0.15089864268E+03  0.15089864271E+03  0.25500000000E-02 0. -1.
    8880023    1    1    2    0    0  0.80383873101E+02 -0.21055717471E+02  0.62286782098E+03  0.91031831739E+03  0.65864270000E+03 0. -1.
    8880022    1    1    2    0    0 -0.80383873101E+02  0.21055717471E+02  0.10486922539E+04  0.10630390429E+04  0.15294330000E+03 0.  0.
<mgrwt>
<rscale>  0 0.47504352E+03</rscale>
<asrwt>0</asrwt>
<pdfrwt beam="1">  1        2 0.23215175E-01 0.66386378E+03</pdfrwt>
<pdfrwt beam="2">  1       -2 0.28037828E+00 0.66386378E+03</pdfrwt>
<totfact> 0.10435355E+01</totfact>
</mgrwt>
</event>
<event>
 4    1  0.6502538E-008  0.1511539E+04  0.7818608E-02  0.8901530E-01
         -2   -1    0    0    0  501 -0.00000000000E+00  0.00000000000E+00  0.14941703496E+04  0.14941703496E+04  0.25500000000E-02 0.  1.
          2   -1    0    0  501    0  0.00000000000E+00 -0.00000000000E+00 -0.16933733341E+04  0.16933733341E+04  0.25500000000E-02 0. -1.
    8880023    1    1    2    0    0  0.85748343115E+03 -0.10562495169E+04 -0.77935534679E+03  0.17006310121E+04  0.65864270000E+03 0.  0.
    8880022    1    1    2    0    0 -0.85748343115E+03  0.10562495169E+04  0.58015236226E+03  0.14869126716E+04  0.15294330000E+03 0.  0.
<mgrwt>
<rscale>  0 0.14745870E+04</rscale>
<asrwt>0</asrwt>
<pdfrwt beam="1">  1        2 0.26051897E+00 0.15115393E+04</pdfrwt>
<pdfrwt beam="2">  1       -2 0.22987236E+00 0.15115393E+04</pdfrwt>
<totfact> 0.79487189E-01</totfact>
</mgrwt>
</event>
<event>
 4    1  0.6502538E-008  0.9016073E+03  0.7818608E-02  0.9523456E-01
          2   -1    0    0  501    0  0.00000000000E+00  0.00000000000E+00  0.13066885422E+04  0.13066885422E+04  0.25500000000E-02 0. -1.
         -2   -1    0    0    0  501 -0.00000000000E+00 -0.00000000000E+00 -0.12555192770E+04  0.12555192770E+04  0.25500000000E-02 0.  1.
    8880023    1    1    2    0    0  0.18294775605E+02  0.61542735140E+03  0.10468503619E+04  0.13815901744E+04  0.65864270000E+03 0. -1.
    8880022    1    1    2    0    0 -0.18294775605E+02 -0.61542735140E+03 -0.99568109670E+03  0.11806176447E+04  0.15294330000E+03 0.  0.
<mgrwt>
<rscale>  0 0.82576358E+03</rscale>
<asrwt>0</asrwt>
<pdfrwt beam="1">  1        2 0.20102901E+00 0.90160730E+03</pdfrwt>
<pdfrwt beam="2">  1       -2 0.19315681E+00 0.90160730E+03</pdfrwt>
<totfact> 0.24304594E+00</totfact>
</mgrwt>
</event>
<event>
 4    1  0.6502538E-008  0.6725250E+03  0.7818608E-02  0.1013914E+00
         -2   -1    0    0    0  501 -0.00000000000E+00  0.00000000000E+00  0.57712593221E+03  0.57712593221E+03  0.25500000000E-02 0.  1.
          2   -1    0    0  501    0  0.00000000000E+00 -0.00000000000E+00 -0.16079137981E+04  0.16079137981E+04  0.25500000000E-02 0. -1.
    8880023    1    1    2    0    0  0.74600341112E+02 -0.11364202424E+03 -0.15159824791E+04  0.16584609744E+04  0.65864270000E+03 0. -1.
    8880022    1    1    2    0    0 -0.74600341112E+02  0.11364202424E+03  0.48519461314E+03  0.52657875593E+03  0.15294330000E+03 0.  0.
<mgrwt>
<rscale>  0 0.49948333E+03</rscale>
<asrwt>0</asrwt>
<pdfrwt beam="1">  1        2 0.24737135E+00 0.67252504E+03</pdfrwt>
<pdfrwt beam="2">  1       -2 0.88788605E-01 0.67252504E+03</pdfrwt>
<totfact> 0.12493300E+01</totfact>
</mgrwt>
</event>
<event>
 4    1  0.6502538E-008  0.7521396E+03  0.7818608E-02  0.9825899E-01
         -2   -1    0    0    0  501 -0.00000000000E+00  0.00000000000E+00  0.94590640320E+03  0.94590640320E+03  0.25500000000E-02 0.  1.
          2   -1    0    0  501    0  0.00000000000E+00 -0.00000000000E+00 -0.58250199534E+03  0.58250199534E+03  0.25500000000E-02 0. -1.
    8880023    1    1    2    0    0  0.21398269158E+02  0.36255476175E+03 -0.25579311283E+03  0.79444582195E+03  0.65864270000E+03 0. -1.
    8880022    1    1    2    0    0 -0.21398269158E+02 -0.36255476175E+03  0.61919752069E+03  0.73396257659E+03  0.15294330000E+03 0.  0.
<mgrwt>
<rscale>  0 0.63990974E+03</rscale>
<asrwt>0</asrwt>
<pdfrwt beam="1">  1        2 0.89615692E-01 0.75213965E+03</pdfrwt>
<pdfrwt beam="2">  1       -2 0.14552406E+00 0.75213965E+03</pdfrwt>
<totfact> 0.16914003E+01</totfact>
</mgrwt>
</event>
<event>
 4    1  0.6502538E-008  0.1589844E+04  0.7818608E-02  0.8848668E-01
         -2   -1    0    0    0  501 -0.00000000000E+00  0.00000000000E+00  0.15018104574E+04  0.15018104574E+04  0.25500000000E-02 0.  1.
          2   -1    0    0  501    0  0.00000000000E+00 -0.00000000000E+00 -0.18733875217E+04  0.18733875217E+04  0.25500000000E-02 0. -1.
    8880023    1    1    2    0    0 -0.11426123286E+04  0.88782308517E+03  0.51517313177E+03  0.16712289867E+04  0.65864270000E+03 0.  0.
    8880022    1    1    2    0    0  0.11426123286E+04 -0.88782308517E+03 -0.88675019605E+03  0.17039689925E+04  0.15294330000E+03 0.  0.
<mgrwt>
<rscale>  0 0.15550188E+04</rscale>
<asrwt>0</asrwt>
<pdfrwt beam="1">  1        2 0.28821347E+00 0.15898437E+04</pdfrwt>
<pdfrwt beam="2">  1       -2 0.23104776E+00 0.15898437E+04</pdfrwt>
<totfact> 0.61531943E-01</totfact>
</mgrwt>
</event>
<event>
 4    1  0.6502538E-008  0.1186005E+04  0.7818608E-02  0.9170848E-01
         -2   -1    0    0    0  501 -0.00000000000E+00  0.00000000000E+00  0.18705549224E+04  0.18705549224E+04  0.25500000000E-02 0.  1.
          2   -1    0    0  501    0  0.00000000000E+00 -0.00000000000E+00 -0.88951186304E+03  0.88951186304E+03  0.25500000000E-02 0. -1.
    8880023    1    1    2    0    0  0.57039335160E+03  0.80464250119E+03 -0.21176175339E+03  0.12047619585E+04  0.65864270000E+03 0.  0.
    8880022    1    1    2    0    0 -0.57039335160E+03 -0.80464250119E+03  0.11928048127E+04  0.15553048269E+04  0.15294330000E+03 0.  0.
<mgrwt>
<rscale>  0 0.11359460E+04</rscale>
<asrwt>0</asrwt>
<pdfrwt beam="1">  1        2 0.13684798E+00 0.11860052E+04</pdfrwt>
<pdfrwt beam="2">  1       -2 0.28777768E+00 0.11860052E+04</pdfrwt>
<totfact> 0.11025750E+00</totfact>
</mgrwt>
</event>
<event>
 4    1  0.6502538E-008  0.7050275E+03  0.7818608E-02  0.9976951E-01
          2   -1    0    0  501    0  0.00000000000E+00  0.00000000000E+00  0.16198110621E+04  0.16198110621E+04  0.25500000000E-02 0. -1.
         -2   -1    0    0    0  501 -0.00000000000E+00 -0.00000000000E+00 -0.50392648955E+03  0.50392648956E+03  0.25500000000E-02 0.  1.
    8880023    1    1    2    0    0 -0.93493346149E+01  0.25132880074E+03  0.14895988525E+04  0.16480195762E+04  0.65864270000E+03 0. -1.
    8880022    1    1    2    0    0  0.93493346149E+01 -0.25132880074E+03 -0.37371427990E+03  0.47571797544E+03  0.15294330000E+03 0.  0.
<mgrwt>
<rscale>  0 0.56672533E+03</rscale>
<asrwt>0</asrwt>
<pdfrwt beam="1">  1        2 0.24920170E+00 0.70502750E+03</pdfrwt>
<pdfrwt beam="2">  1       -2 0.77527152E-01 0.70502750E+03</pdfrwt>
<totfact> 0.16649840E+01</totfact>
</mgrwt>
</event>
<event>
 4    1  0.6502538E-008  0.6840916E+03  0.7818608E-02  0.1007098E+00
          2   -1    0    0  501    0  0.00000000000E+00  0.00000000000E+00  0.27874786750E+04  0.27874786750E+04  0.25500000000E-02 0. -1.
         -2   -1    0    0    0  501 -0.00000000000E+00 -0.00000000000E+00 -0.24428006271E+03  0.24428006272E+03  0.25500000000E-02 0.  1.
    8880023    1    1    2    0    0  0.56374378638E+02 -0.17604837099E+03  0.26728784123E+04  0.27590324957E+04  0.65864270000E+03 0. -1.
    8880022    1    1    2    0    0 -0.56374378638E+02  0.17604837099E+03 -0.12967980002E+03  0.27272624194E+03  0.15294330000E+03 0.  0.
<mgrwt>
<rscale>  0 0.52644546E+03</rscale>
<asrwt>0</asrwt>
<pdfrwt beam="1">  1        2 0.42884286E+00 0.68409159E+03</pdfrwt>
<pdfrwt beam="2">  1       -2 0.37581549E-01 0.68409159E+03</pdfrwt>
<totfact> 0.16758089E+01</totfact>
</mgrwt>
</event>
<event>
 4    1  0.6502538E-008  0.6844847E+03  0.7818608E-02  0.1006893E+00
          2   -1    0    0  501    0  0.00000000000E+00  0.00000000000E+00  0.14777429871E+04  0.14777429871E+04  0.25500000000E-02 0. -1.
         -2   -1    0    0    0  501 -0.00000000000E+00 -0.00000000000E+00 -0.20925418616E+03  0.20925418617E+03  0.25500000000E-02 0.  1.
    8880023    1    1    2    0    0 -0.16889528527E+03 -0.78635261981E+02  0.12736215459E+04  0.14459015078E+04  0.65864270000E+03 0.  0.
    8880022    1    1    2    0    0  0.16889528527E+03  0.78635261981E+02 -0.51327449723E+01  0.24109566545E+03  0.15294330000E+03 0.  0.
<mgrwt>
<rscale>  0 0.52728517E+03</rscale>
<asrwt>0</asrwt>
<pdfrwt beam="1">  1        2 0.22734508E+00 0.68448472E+03</pdfrwt>
<pdfrwt beam="2">  1       -2 0.32192951E-01 0.68448472E+03</pdfrwt>
<totfact> 0.12004739E+02</totfact>
</mgrwt>
</event>
<event>
 4    1  0.6502538E-008  0.1103309E+04  0.7818608E-02  0.9257381E-01
          2   -1    0    0  501    0  0.00000000000E+00  0.00000000000E+00  0.32240829611E+04  0.32240829611E+04  0.25500000000E-02 0. -1.
         -2   -1    0    0    0  501 -0.00000000000E+00 -0.00000000000E+00 -0.60697367406E+03  0.60697367407E+03  0.25500000000E-02 0.  1.
    8880023    1    1    2    0    0 -0.60117364201E+02 -0.88310029368E+03  0.27119613861E+04  0.29278020753E+04  0.65864270000E+03 0.  0.
    8880022    1    1    2    0    0  0.60117364201E+02  0.88310029368E+03 -0.94852099080E+02  0.90325455985E+03  0.15294330000E+03 0.  0.
<mgrwt>
<rscale>  0 0.10480292E+04</rscale>
<asrwt>0</asrwt>
<pdfrwt beam="1">  1        2 0.49601275E+00 0.11033089E+04</pdfrwt>
<pdfrwt beam="2">  1       -2 0.93380567E-01 0.11033089E+04</pdfrwt>
<totfact> 0.12246716E+00</totfact>
</mgrwt>
</event>
<event>
 4    1  0.6502538E-008  0.7343270E+03  0.7818608E-02  0.9876791E-01
         -2   -1    0    0    0  501 -0.00000000000E+00  0.00000000000E+00  0.78006924721E+03  0.78006924721E+03  0.25500000000E-02 0.  1.
          2   -1    0    0  501    0  0.00000000000E+00 -0.00000000000E+00 -0.52056383304E+03  0.52056383304E+03  0.25500000000E-02 0. -1.
    8880023    1    1    2    0    0 -0.31339501321E+03 -0.84908984038E+02 -0.15689358971E+03  0.75090064232E+03  0.65864270000E+03 0. -1.
    8880022    1    1    2    0    0  0.31339501321E+03  0.84908984038E+02  0.41639900388E+03  0.54973243794E+03  0.15294330000E+03 0.  0.
<mgrwt>
<rscale>  0 0.61399388E+03</rscale>
<asrwt>0</asrwt>
<pdfrwt beam="1">  1        2 0.80086744E-01 0.73432702E+03</pdfrwt>
<pdfrwt beam="2">  1       -2 0.12001065E+00 0.73432702E+03</pdfrwt>
<totfact> 0.31609331E+01</totfact>
</mgrwt>
</event>
<event>
 4    1  0.6502538E-008  0.1265236E+04  0.7818608E-02  0.9096177E-01
          2   -1    0    0  501    0  0.00000000000E+00  0.00000000000E+00  0.29465543027E+04  0.29465543027E+04  0.25500000000E-02 0. -1.
         -2   -1    0    0    0  501 -0.00000000000E+00 -0.00000000000E+00 -0.10172051901E+04  0.10172051901E+04  0.25500000000E-02 0.  1.
    8880023    1    1    2    0    0 -0.55971391274E+03 -0.92397698270E+03  0.24480502272E+04  0.27556801792E+04  0.65864270000E+03 0.  0.
    8880022    1    1    2    0    0  0.55971391274E+03  0.92397698270E+03 -0.51870111458E+03  0.12080793136E+04  0.15294330000E+03 0.  0.
<mgrwt>
<rscale>  0 0.12192440E+04</rscale>
<asrwt>0</asrwt>
<pdfrwt beam="1">  1        2 0.45331603E+00 0.12652365E+04</pdfrwt>
<pdfrwt beam="2">  1       -2 0.15649311E+00 0.12652365E+04</pdfrwt>
<totfact> 0.49013290E-01</totfact>
</mgrwt>
</event>
<event>
 4    1  0.6502538E-008  0.1125852E+04  0.7818608E-02  0.9232804E-01
          2   -1    0    0  501    0  0.00000000000E+00  0.00000000000E+00  0.21601282717E+04  0.21601282717E+04  0.25500000000E-02 0. -1.
         -2   -1    0    0    0  501 -0.00000000000E+00 -0.00000000000E+00 -0.86549751180E+03  0.86549751180E+03  0.25500000000E-02 0.  1.
    8880023    1    1    2    0    0 -0.58500787057E+03  0.70107015094E+03  0.16803715202E+04  0.20226695769E+04  0.65864270000E+03 0.  0.
    8880022    1    1    2    0    0  0.58500787057E+03 -0.70107015094E+03 -0.38574076031E+03  0.10029562066E+04  0.15294330000E+03 0.  0.
<mgrwt>
<rscale>  0 0.10721157E+04</rscale>
<asrwt>0</asrwt>
<pdfrwt beam="1">  1        2 0.33232742E+00 0.11258525E+04</pdfrwt>
<pdfrwt beam="2">  1       -2 0.13315347E+00 0.11258525E+04</pdfrwt>
<totfact> 0.21873976E+00</totfact>
</mgrwt>
</event>
<event>
 4    1  0.6502538E-008  0.9606778E+03  0.7818608E-02  0.9434915E-01
          2   -1    0    0  501    0  0.00000000000E+00  0.00000000000E+00  0.11828949245E+04  0.11828949245E+04  0.25500000000E-02 0. -1.
         -2   -1    0    0    0  501 -0.00000000000E+00 -0.00000000000E+00 -0.77157671247E+03  0.77157671247E+03  0.25500000000E-02 0.  1.
    8880023    1    1    2    0    0 -0.48165071235E+03  0.50705438338E+03  0.69365303080E+03  0.11849288121E+04  0.65864270000E+03 0.  0.
    8880022    1    1    2    0    0  0.48165071235E+03 -0.50705438338E+03 -0.28233481875E+03  0.76954282487E+03  0.15294330000E+03 0.  0.
<mgrwt>
<rscale>  0 0.89257200E+03</rscale>
<asrwt>0</asrwt>
<pdfrwt beam="1">  1        2 0.18198383E+00 0.96067776E+03</pdfrwt>
<pdfrwt beam="2">  1       -2 0.11870411E+00 0.96067776E+03</pdfrwt>
<totfact> 0.10541764E+01</totfact>
</mgrwt>
</event>
<event>
 4    1  0.6502538E-008  0.7942711E+03  0.7818608E-02  0.9723323E-01
          2   -1    0    0  501    0  0.00000000000E+00  0.00000000000E+00  0.19157397674E+04  0.19157397674E+04  0.25500000000E-02 0. -1.
         -2   -1    0    0    0  501 -0.00000000000E+00 -0.00000000000E+00 -0.33626401507E+03  0.33626401508E+03  0.25500000000E-02 0.  1.
    8880023    1    1    2    0    0  0.42370557524E+03 -0.13240103196E+03  0.15954367778E+04  0.17822135579E+04  0.65864270000E+03 0.  0.
    8880022    1    1    2    0    0 -0.42370557524E+03  0.13240103196E+03 -0.15961025470E+02  0.46979022457E+03  0.15294330000E+03 0.  0.
<mgrwt>
<rscale>  0 0.69644991E+03</rscale>
<asrwt>0</asrwt>
<pdfrwt beam="1">  1        2 0.29472920E+00 0.79427115E+03</pdfrwt>
<pdfrwt beam="2">  1       -2 0.51732925E-01 0.79427115E+03</pdfrwt>
<totfact> 0.26933528E+01</totfact>
</mgrwt>
</event>
<event>
 4    1  0.6502538E-008  0.7247774E+03  0.7818608E-02  0.9906741E-01
          2   -1    0    0  501    0  0.00000000000E+00  0.00000000000E+00  0.15421428152E+04  0.15421428152E+04  0.25500000000E-02 0. -1.
         -2   -1    0    0    0  501 -0.00000000000E+00 -0.00000000000E+00 -0.11597674022E+04  0.11597674022E+04  0.25500000000E-02 0.  1.
    8880023    1    1    2    0    0  0.27198603978E+03  0.13234651448E+03  0.14287166373E+04  0.16020403995E+04  0.65864270000E+03 0. -1.
    8880022    1    1    2    0    0 -0.27198603978E+03 -0.13234651448E+03 -0.10463412243E+04  0.10998698180E+04  0.15294330000E+03 0.  0.
<mgrwt>
<rscale>  0 0.59935722E+03</rscale>
<asrwt>0</asrwt>
<pdfrwt beam="1">  1        2 0.23725274E+00 0.72477735E+03</pdfrwt>
<pdfrwt beam="2">  1       -2 0.17842575E+00 0.72477735E+03</pdfrwt>
<totfact> 0.23121748E+00</totfact>
</mgrwt>
</event>
<event>
 4    1  0.6502538E-008  0.1287450E+04  0.7818608E-02  0.9076474E-01
         -2   -1    0    0    0  501 -0.00000000000E+00  0.00000000000E+00  0.11772208584E+04  0.11772208584E+04  0.25500000000E-02 0.  1.
          2   -1    0    0  501    0  0.00000000000E+00 -0.00000000000E+00 -0.21668663650E+04  0.21668663650E+04  0.25500000000E-02 0. -1.
    8880023    1    1    2    0    0 -0.90094913303E+03  0.64187836825E+03 -0.16140587934E+04  0.20646339082E+04  0.65864270000E+03 0.  0.
    8880022    1    1    2    0    0  0.90094913303E+03 -0.64187836825E+03  0.62441328687E+03  0.12794533152E+04  0.15294330000E+03 0.  0.
<mgrwt>
<rscale>  0 0.12424697E+04</rscale>
<asrwt>0</asrwt>
<pdfrwt beam="1">  1        2 0.33336406E+00 0.12874500E+04</pdfrwt>
<pdfrwt beam="2">  1       -2 0.18111090E+00 0.12874500E+04</pdfrwt>
<totfact> 0.92427255E-01</totfact>
</mgrwt>
</event>
<event>
 4    1  0.6502538E-008  0.1016116E+04  0.7818608E-02  0.9360770E-01
          2   -1    0    0  501    0  0.00000000000E+00  0.00000000000E+00  0.15056120729E+04  0.15056120729E+04  0.25500000000E-02 0. -1.
         -2   -1    0    0    0  501 -0.00000000000E+00 -0.00000000000E+00 -0.64850416885E+03  0.64850416885E+03  0.25500000000E-02 0.  1.
    8880023    1    1    2    0    0  0.74690631200E+03  0.20202098017E+03  0.90944586365E+03  0.13636654650E+04  0.65864270000E+03 0. -1.
    8880022    1    1    2    0    0 -0.74690631200E+03 -0.20202098017E+03 -0.52337959631E+02  0.79045077669E+03  0.15294330000E+03 0.  0.
<mgrwt>
<rscale>  0 0.95375681E+03</rscale>
<asrwt>0</asrwt>
<pdfrwt beam="1">  1        2 0.23163263E+00 0.10161160E+04</pdfrwt>
<pdfrwt beam="2">  1       -2 0.99769871E-01 0.10161160E+04</pdfrwt>
<totfact> 0.10402522E+01</totfact>
</mgrwt>
</event>
<event>
 4    1  0.6502538E-008  0.1099829E+04  0.7818608E-02  0.9261247E-01
          2   -1    0    0  501    0  0.00000000000E+00  0.00000000000E+00  0.35305371117E+04  0.35305371117E+04  0.25500000000E-02 0. -1.
         -2   -1    0    0    0  501 -0.00000000000E+00 -0.00000000000E+00 -0.39852177295E+03  0.39852177296E+03  0.25500000000E-02 0.  1.
    8880023    1    1    2    0    0  0.81982324824E+03  0.32203030979E+03  0.27407743990E+04  0.29532131977E+04  0.65864270000E+03 0. -1.
    8880022    1    1    2    0    0 -0.81982324824E+03 -0.32203030979E+03  0.39124093978E+03  0.97584568696E+03  0.15294330000E+03 0.  0.
<mgrwt>
<rscale>  0 0.10443022E+04</rscale>
<asrwt>0</asrwt>
<pdfrwt beam="1">  1        2 0.54315956E+00 0.10998290E+04</pdfrwt>
<pdfrwt beam="2">  1       -2 0.61311041E-01 0.10998290E+04</pdfrwt>
<totfact> 0.19552951E+00</totfact>
</mgrwt>
</event>
<event>
 4    1  0.6502538E-008  0.8417217E+03  0.7818608E-02  0.9626942E-01
          2   -1    0    0  501    0  0.00000000000E+00  0.00000000000E+00  0.30978177391E+04  0.30978177391E+04  0.25500000000E-02 0. -1.
         -2   -1    0    0    0  501 -0.00000000000E+00 -0.00000000000E+00 -0.25388816588E+03  0.25388816590E+03  0.25500000000E-02 0.  1.
    8880023    1    1    2    0    0  0.44078466540E+03  0.28353860059E+03  0.26366031184E+04  0.27677014776E+04  0.65864270000E+03 0.  0.
    8880022    1    1    2    0    0 -0.44078466540E+03 -0.28353860059E+03  0.20732645484E+03  0.58400442735E+03  0.15294330000E+03 0.  0.
<mgrwt>
<rscale>  0 0.75538342E+03</rscale>
<asrwt>0</asrwt>
<pdfrwt beam="1">  1        2 0.47658733E+00 0.84172173E+03</pdfrwt>
<pdfrwt beam="2">  1       -2 0.39059719E-01 0.84172173E+03</pdfrwt>
<totfact> 0.98181153E+00</totfact>
</mgrwt>
</event>
<event>
 4    1  0.6502538E-008  0.7314704E+03  0.7818608E-02  0.9885528E-01
          2   -1    0    0  501    0  0.00000000000E+00  0.00000000000E+00  0.17269839923E+04  0.17269839923E+04  0.25500000000E-02 0. -1.
         -2   -1    0    0    0  501 -0.00000000000E+00 -0.00000000000E+00 -0.75269555516E+03  0.75269555516E+03  0.25500000000E-02 0.  1.
    8880023    1    1    2    0    0  0.14830528232E+03 -0.28150363816E+03  0.16011073773E+04  0.17602823055E+04  0.65864270000E+03 0. -1.
    8880022    1    1    2    0    0 -0.14830528232E+03  0.28150363816E+03 -0.62681894015E+03  0.71939724200E+03  0.15294330000E+03 0.  0.
<mgrwt>
<rscale>  0 0.60967807E+03</rscale>
<asrwt>0</asrwt>
<pdfrwt beam="1">  1        2 0.26568984E+00 0.73147041E+03</pdfrwt>
<pdfrwt beam="2">  1       -2 0.11579932E+00 0.73147041E+03</pdfrwt>
<totfact> 0.56720067E+00</totfact>
</mgrwt>
</event>
<event>
 4    1  0.6502538E-008  0.7342158E+03  0.7818608E-02  0.9877128E-01
          2   -1    0    0  501    0  0.00000000000E+00  0.00000000000E+00  0.12918998322E+04  0.12918998323E+04  0.25500000000E-02 0. -1.
         -2   -1    0    0    0  501 -0.00000000000E+00 -0.00000000000E+00 -0.88328610441E+03  0.88328610441E+03  0.25500000000E-02 0.  1.
    8880023    1    1    2    0    0 -0.35966020442E+02  0.32244234210E+03  0.11426477886E+04  0.13582035170E+04  0.65864270000E+03 0. -1.
    8880022    1    1    2    0    0  0.35966020442E+02 -0.32244234210E+03 -0.73403406077E+03  0.81698241963E+03  0.15294330000E+03 0.  0.
<mgrwt>
<rscale>  0 0.61382676E+03</rscale>
<asrwt>0</asrwt>
<pdfrwt beam="1">  1        2 0.19875382E+00 0.73421579E+03</pdfrwt>
<pdfrwt beam="2">  1       -2 0.13589017E+00 0.73421579E+03</pdfrwt>
<totfact> 0.66400299E+00</totfact>
</mgrwt>
</event>
<event>
 4    1  0.6502538E-008  0.1038621E+04  0.7818608E-02  0.9332687E-01
         -2   -1    0    0    0  501 -0.00000000000E+00  0.00000000000E+00  0.14957095578E+04  0.14957095578E+04  0.25500000000E-02 0.  1.
          2   -1    0    0  501    0  0.00000000000E+00 -0.00000000000E+00 -0.88383978247E+03  0.88383978248E+03  0.25500000000E-02 0. -1.
    8880023    1    1    2    0    0 -0.12091796902E+03 -0.79391590178E+03 -0.36940551086E+03  0.11023584952E+04  0.65864270000E+03 0. -1.
    8880022    1    1    2    0    0  0.12091796902E+03  0.79391590178E+03  0.98127528616E+03  0.12771908450E+04  0.15294330000E+03 0.  0.
<mgrwt>
<rscale>  0 0.97828531E+03</rscale>
<asrwt>0</asrwt>
<pdfrwt beam="1">  1        2 0.13597535E+00 0.10386211E+04</pdfrwt>
<pdfrwt beam="2">  1       -2 0.23010916E+00 0.10386211E+04</pdfrwt>
<totfact> 0.25430625E+00</totfact>
</mgrwt>
</event>
<event>
 4    1  0.6502538E-008  0.1557546E+04  0.7818608E-02  0.8870035E-01
          2   -1    0    0  501    0  0.00000000000E+00  0.00000000000E+00  0.14256911015E+04  0.14256911015E+04  0.25500000000E-02 0. -1.
         -2   -1    0    0    0  501 -0.00000000000E+00 -0.00000000000E+00 -0.17239165695E+04  0.17239165695E+04  0.25500000000E-02 0.  1.
    8880023    1    1    2    0    0 -0.38310107710E+03  0.13584445653E+04  0.33811950579E+03  0.15938234151E+04  0.65864270000E+03 0.  0.
    8880022    1    1    2    0    0  0.38310107710E+03 -0.13584445653E+04 -0.63634497380E+03  0.15557842559E+04  0.15294330000E+03 0.  0.
<mgrwt>
<rscale>  0 0.15218759E+04</rscale>
<asrwt>0</asrwt>
<pdfrwt beam="1">  1        2 0.21933709E+00 0.15575456E+04</pdfrwt>
<pdfrwt beam="2">  1       -2 0.26521793E+00 0.15575456E+04</pdfrwt>
<totfact> 0.67879144E-01</totfact>
</mgrwt>
</event>
<event>
 4    1  0.6502538E-008  0.1086391E+04  0.7818608E-02  0.9276362E-01
          2   -1    0    0  501    0  0.00000000000E+00  0.00000000000E+00  0.18188217283E+04  0.18188217283E+04  0.25500000000E-02 0. -1.
         -2   -1    0    0    0  501 -0.00000000000E+00 -0.00000000000E+00 -0.77395405116E+03  0.77395405117E+03  0.25500000000E-02 0.  1.
    8880023    1    1    2    0    0  0.79074173271E+03  0.34808378964E+03  0.12854025355E+04  0.16830046634E+04  0.65864270000E+03 0.  0.
    8880022    1    1    2    0    0 -0.79074173271E+03 -0.34808378964E+03 -0.24053485840E+03  0.90977111604E+03  0.15294330000E+03 0.  0.
<mgrwt>
<rscale>  0 0.10298849E+04</rscale>
<asrwt>0</asrwt>
<pdfrwt beam="1">  1        2 0.27981873E+00 0.10863908E+04</pdfrwt>
<pdfrwt beam="2">  1       -2 0.11906985E+00 0.10863908E+04</pdfrwt>
<totfact> 0.45015702E+00</totfact>
</mgrwt>
</event>
<event>
 4    1  0.6502538E-008  0.1281495E+04  0.7818608E-02  0.9081707E-01
         -2   -1    0    0    0  501 -0.00000000000E+00  0.00000000000E+00  0.15210831810E+04  0.15210831810E+04  0.25500000000E-02 0.  1.
          2   -1    0    0  501    0  0.00000000000E+00 -0.00000000000E+00 -0.15954078614E+04  0.15954078614E+04  0.25500000000E-02 0. -1.
    8880023    1    1    2    0    0 -0.36710912401E+03 -0.10361713932E+04 -0.10360453674E+04  0.16479139767E+04  0.65864270000E+03 0.  0.
    8880022    1    1    2    0    0  0.36710912401E+03  0.10361713932E+04  0.96172068704E+03  0.14685770657E+04  0.15294330000E+03 0.  0.
<mgrwt>
<rscale>  0 0.12362487E+04</rscale>
<asrwt>0</asrwt>
<pdfrwt beam="1">  1        2 0.24544736E+00 0.12814954E+04</pdfrwt>
<pdfrwt beam="2">  1       -2 0.23401280E+00 0.12814954E+04</pdfrwt>
<totfact> 0.87050875E-01</totfact>
</mgrwt>
</event>
<event>
 4    1  0.6502538E-008  0.1066180E+04  0.7818608E-02  0.9299679E-01
         -2   -1    0    0    0  501 -0.00000000000E+00  0.00000000000E+00  0.14090105542E+04  0.14090105542E+04  0.25500000000E-02 0.  1.
          2   -1    0    0  501    0  0.00000000000E+00 -0.00000000000E+00 -0.16807120230E+04  0.16807120230E+04  0.25500000000E-02 0. -1.
    8880023    1    1    2    0    0 -0.68953957735E+03 -0.47693354734E+03 -0.13468448859E+04  0.17177694229E+04  0.65864270000E+03 0.  0.
    8880022    1    1    2    0    0  0.68953957735E+03  0.47693354734E+03  0.10751434171E+04  0.13719531544E+04  0.15294330000E+03 0.  0.
<mgrwt>
<rscale>  0 0.10081245E+04</rscale>
<asrwt>0</asrwt>
<pdfrwt beam="1">  1        2 0.25857108E+00 0.10661804E+04</pdfrwt>
<pdfrwt beam="2">  1       -2 0.21677085E+00 0.10661804E+04</pdfrwt>
<totfact> 0.10280718E+00</totfact>
</mgrwt>
</event>
<event>
 4    1  0.6502538E-008  0.7724842E+03  0.7818608E-02  0.9773797E-01
         -2   -1    0    0    0  501 -0.00000000000E+00  0.00000000000E+00  0.46686592581E+03  0.46686592582E+03  0.25500000000E-02 0.  1.
          2   -1    0    0  501    0  0.00000000000E+00 -0.00000000000E+00 -0.78728908759E+03  0.78728908759E+03  0.25500000000E-02 0. -1.
    8880023    1    1    2    0    0 -0.40068869900E+03 -0.48684305987E+02 -0.27568024379E+03  0.82020204720E+03  0.65864270000E+03 0. -1.
    8880022    1    1    2    0    0  0.40068869900E+03  0.48684305987E+02 -0.44742917985E+02  0.43395296621E+03  0.15294330000E+03 0.  1.
<mgrwt>
<rscale>  0 0.66787880E+03</rscale>
<asrwt>0</asrwt>
<pdfrwt beam="1">  1        2 0.12112140E+00 0.77248418E+03</pdfrwt>
<pdfrwt beam="2">  1       -2 0.71825527E-01 0.77248418E+03</pdfrwt>
<totfact> 0.62536701E+01</totfact>
</mgrwt>
</event>
<event>
 4    1  0.6502538E-008  0.7909049E+03  0.7818608E-02  0.9730818E-01
         -2   -1    0    0    0  501 -0.00000000000E+00  0.00000000000E+00  0.39983877043E+03  0.39983877043E+03  0.25500000000E-02 0.  1.
          2   -1    0    0  501    0  0.00000000000E+00 -0.00000000000E+00 -0.31895484186E+04  0.31895484186E+04  0.25500000000E-02 0. -1.
    8880023    1    1    2    0    0  0.38885081995E+03  0.20128451959E+03 -0.29836298219E+04  0.30866774271E+04  0.65864270000E+03 0. -1.
    8880022    1    1    2    0    0 -0.38885081995E+03 -0.20128451959E+03  0.19392017376E+03  0.50270976200E+03  0.15294330000E+03 0.  0.
<mgrwt>
<rscale>  0 0.69211190E+03</rscale>
<asrwt>0</asrwt>
<pdfrwt beam="1">  1        2 0.49069974E+00 0.79090494E+03</pdfrwt>
<pdfrwt beam="2">  1       -2 0.61513659E-01 0.79090494E+03</pdfrwt>
<totfact> 0.34464302E+00</totfact>
</mgrwt>
</event>
<event>
 4    1  0.6502538E-008  0.1341870E+04  0.7818608E-02  0.9030220E-01
          2   -1    0    0  501    0  0.00000000000E+00  0.00000000000E+00  0.12204577969E+04  0.12204577969E+04  0.25500000000E-02 0. -1.
         -2   -1    0    0    0  501 -0.00000000000E+00 -0.00000000000E+00 -0.21200867179E+04  0.21200867179E+04  0.25500000000E-02 0.  1.
    8880023    1    1    2    0    0  0.51640514779E+03 -0.10488709485E+04  0.56870495173E+03  0.14574086838E+04  0.65864270000E+03 0.  0.
    8880022    1    1    2    0    0 -0.51640514779E+03  0.10488709485E+04 -0.14683338727E+04  0.18831358310E+04  0.15294330000E+03 0.  0.
<mgrwt>
<rscale>  0 0.12991740E+04</rscale>
<asrwt>0</asrwt>
<pdfrwt beam="1">  1        2 0.18776274E+00 0.13418699E+04</pdfrwt>
<pdfrwt beam="2">  1       -2 0.32616719E+00 0.13418699E+04</pdfrwt>
<totfact> 0.38836786E-01</totfact>
</mgrwt>
</event>
<event>
 4    1  0.6502538E-008  0.1074851E+04  0.7818608E-02  0.9289587E-01
          2   -1    0    0  501    0  0.00000000000E+00  0.00000000000E+00  0.23375183491E+04  0.23375183491E+04  0.25500000000E-02 0. -1.
         -2   -1    0    0    0  501 -0.00000000000E+00 -0.00000000000E+00 -0.46716942157E+03  0.46716942158E+03  0.25500000000E-02 0.  1.
    8880023    1    1    2    0    0  0.71715380131E+03  0.45517579300E+03  0.15454809516E+04  0.18825026309E+04  0.65864270000E+03 0. -1.
    8880022    1    1    2    0    0 -0.71715380131E+03 -0.45517579300E+03  0.32486797595E+03  0.92218513981E+03  0.15294330000E+03 0.  0.
<mgrwt>
<rscale>  0 0.10174720E+04</rscale>
<asrwt>0</asrwt>
<pdfrwt beam="1">  1        2 0.35961821E+00 0.10748511E+04</pdfrwt>
<pdfrwt beam="2">  1       -2 0.71872219E-01 0.10748511E+04</pdfrwt>
<totfact> 0.75653276E+00</totfact>
</mgrwt>
</event>
<event>
 4    1  0.6502538E-008  0.1266105E+04  0.7818608E-02  0.9095397E-01
         -2   -1    0    0    0  501 -0.00000000000E+00  0.00000000000E+00  0.90069608028E+03  0.90069608029E+03  0.25500000000E-02 0.  1.
          2   -1    0    0  501    0  0.00000000000E+00 -0.00000000000E+00 -0.18502258842E+04  0.18502258842E+04  0.25500000000E-02 0. -1.
    8880023    1    1    2    0    0  0.10776435453E+04  0.88860973692E+02  0.54744088960E+02  0.12672880513E+04  0.65864270000E+03 0.  0.
    8880022    1    1    2    0    0 -0.10776435453E+04 -0.88860973692E+02 -0.10042738928E+04  0.14836339132E+04  0.15294330000E+03 0.  0.
<mgrwt>
<rscale>  0 0.12201531E+04</rscale>
<asrwt>0</asrwt>
<pdfrwt beam="1">  1        2 0.28465014E+00 0.12661051E+04</pdfrwt>
<pdfrwt beam="2">  1       -2 0.13856863E+00 0.12661051E+04</pdfrwt>
<totfact> 0.28865599E+00</totfact>
</mgrwt>
</event>
<event>
 4    1  0.6502538E-008  0.1068734E+04  0.7818608E-02  0.9296693E-01
         -2   -1    0    0    0  501 -0.00000000000E+00  0.00000000000E+00  0.14399667273E+04  0.14399667273E+04  0.25500000000E-02 0.  1.
          2   -1    0    0  501    0  0.00000000000E+00 -0.00000000000E+00 -0.18601727096E+04  0.18601727097E+04  0.25500000000E-02 0. -1.
    8880023    1    1    2    0    0 -0.13950146488E+03  0.83001267079E+03 -0.15501800051E+04  0.18828834130E+04  0.65864270000E+03 0.  0.
    8880022    1    1    2    0    0  0.13950146488E+03 -0.83001267079E+03  0.11299740228E+04  0.14172560240E+04  0.15294330000E+03 0.  0.
<mgrwt>
<rscale>  0 0.10108791E+04</rscale>
<asrwt>0</asrwt>
<pdfrwt beam="1">  1        2 0.28618042E+00 0.10687338E+04</pdfrwt>
<pdfrwt beam="2">  1       -2 0.22153334E+00 0.10687338E+04</pdfrwt>
<totfact> 0.76321063E-01</totfact>
</mgrwt>
</event>
<event>
 4    1  0.6502538E-008  0.8868504E+03  0.7818608E-02  0.9547479E-01
          2   -1    0    0  501    0  0.00000000000E+00  0.00000000000E+00  0.15234366705E+04  0.15234366706E+04  0.25500000000E-02 0. -1.
         -2   -1    0    0    0  501 -0.00000000000E+00 -0.00000000000E+00 -0.45421966172E+03  0.45421966173E+03  0.25500000000E-02 0.  1.
    8880023    1    1    2    0    0  0.55274292028E+03  0.21718360290E+03  0.10356524552E+04  0.13634807177E+04  0.65864270000E+03 0.  0.
    8880022    1    1    2    0    0 -0.55274292028E+03 -0.21718360290E+03  0.33564553632E+02  0.61417561459E+03  0.15294330000E+03 0.  0.
<mgrwt>
<rscale>  0 0.80872068E+03</rscale>
<asrwt>0</asrwt>
<pdfrwt beam="1">  1        2 0.23437487E+00 0.88685042E+03</pdfrwt>
<pdfrwt beam="2">  1       -2 0.69879947E-01 0.88685042E+03</pdfrwt>
<totfact> 0.23178023E+01</totfact>
</mgrwt>
</event>
<event>
 4    1  0.6502538E-008  0.7378260E+03  0.7818608E-02  0.9866326E-01
         -2   -1    0    0    0  501 -0.00000000000E+00  0.00000000000E+00  0.23848624275E+03  0.23848624276E+03  0.25500000000E-02 0.  1.
          2   -1    0    0  501    0  0.00000000000E+00 -0.00000000000E+00 -0.24599020013E+04  0.24599020013E+04  0.25500000000E-02 0. -1.
    8880023    1    1    2    0    0  0.13217674873E+03  0.30513324839E+03 -0.22124778347E+04  0.23322618565E+04  0.65864270000E+03 0. -1.
    8880022    1    1    2    0    0 -0.13217674873E+03 -0.30513324839E+03 -0.89379239000E+01  0.36612638757E+03  0.15294330000E+03 0.  0.
<mgrwt>
<rscale>  0 0.61921413E+03</rscale>
<asrwt>0</asrwt>
<pdfrwt beam="1">  1        2 0.37844644E+00 0.73782599E+03</pdfrwt>
<pdfrwt beam="2">  1       -2 0.36690193E-01 0.73782599E+03</pdfrwt>
<totfact> 0.26848230E+01</totfact>
</mgrwt>
</event>
<event>
 4    1  0.6502538E-008  0.7429706E+03  0.7818608E-02  0.9851377E-01
          2   -1    0    0  501    0  0.00000000000E+00  0.00000000000E+00  0.13178496898E+04  0.13178496898E+04  0.25500000000E-02 0. -1.
         -2   -1    0    0    0  501 -0.00000000000E+00 -0.00000000000E+00 -0.42851532073E+03  0.42851532073E+03  0.25500000000E-02 0.  1.
    8880023    1    1    2    0    0  0.30170044381E+03  0.16483922474E+03  0.10906101567E+04  0.13196347403E+04  0.65864270000E+03 0.  0.
    8880022    1    1    2    0    0 -0.30170044381E+03 -0.16483922474E+03 -0.20127578760E+03  0.42673027019E+03  0.15294330000E+03 0.  0.
<mgrwt>
<rscale>  0 0.62676764E+03</rscale>
<asrwt>0</asrwt>
<pdfrwt beam="1">  1        2 0.20274610E+00 0.74297061E+03</pdfrwt>
<pdfrwt beam="2">  1       -2 0.65925436E-01 0.74297061E+03</pdfrwt>
<totfact> 0.34891612E+01</totfact>
</mgrwt>
</event>
<event>
 4    1  0.6502538E-008  0.7387540E+03  0.7818608E-02  0.9863592E-01
          2   -1    0    0  501    0  0.00000000000E+00  0.00000000000E+00  0.81141520588E+03  0.81141520588E+03  0.25500000000E-02 0. -1.
         -2   -1    0    0    0  501 -0.00000000000E+00 -0.00000000000E+00 -0.13950329020E+04  0.13950329020E+04  0.25500000000E-02 0.  1.
    8880023    1    1    2    0    0  0.32888296690E+03  0.61508181936E+02  0.60960737635E+03  0.95779884210E+03  0.65864270000E+03 0.  0.
    8880022    1    1    2    0    0 -0.32888296690E+03 -0.61508181936E+02 -0.11932250725E+04  0.12486492658E+04  0.15294330000E+03 0.  0.
<mgrwt>
<rscale>  0 0.62058707E+03</rscale>
<asrwt>0</asrwt>
<pdfrwt beam="1">  1        2 0.12483311E+00 0.73875400E+03</pdfrwt>
<pdfrwt beam="2">  1       -2 0.21462045E+00 0.73875400E+03</pdfrwt>
<totfact> 0.37092857E+00</totfact>
</mgrwt>
</event>
<event>
 4    1  0.6502538E-008  0.1160757E+04  0.7818608E-02  0.9196246E-01
          2   -1    0    0  501    0  0.00000000000E+00  0.00000000000E+00  0.19004110009E+04  0.19004110009E+04  0.25500000000E-02 0. -1.
         -2   -1    0    0    0  501 -0.00000000000E+00 -0.00000000000E+00 -0.14085705496E+04  0.14085705496E+04  0.25500000000E-02 0.  1.
    8880023    1    1    2    0    0  0.12265186605E+02  0.95571768694E+03  0.15097027666E+04  0.19043527461E+04  0.65864270000E+03 0. -1.
    8880022    1    1    2    0    0 -0.12265186605E+02 -0.95571768694E+03 -0.10178623153E+04  0.14046288043E+04  0.15294330000E+03 0.  0.
<mgrwt>
<rscale>  0 0.11092256E+04</rscale>
<asrwt>0</asrwt>
<pdfrwt beam="1">  1        2 0.29237092E+00 0.11607571E+04</pdfrwt>
<pdfrwt beam="2">  1       -2 0.21670316E+00 0.11607571E+04</pdfrwt>
<totfact> 0.76829880E-01</totfact>
</mgrwt>
</event>
<event>
 4    1  0.6502538E-008  0.1398336E+04  0.7818608E-02  0.8984977E-01
         -2   -1    0    0    0  501 -0.00000000000E+00  0.00000000000E+00  0.86866737966E+03  0.86866737967E+03  0.25500000000E-02 0.  1.
          2   -1    0    0  501    0  0.00000000000E+00 -0.00000000000E+00 -0.38283032030E+04  0.38283032030E+04  0.25500000000E-02 0. -1.
    8880023    1    1    2    0    0 -0.93568506480E+03 -0.80375812950E+03 -0.31435093819E+04  0.34404934401E+04  0.65864270000E+03 0.  0.
    8880022    1    1    2    0    0  0.93568506480E+03  0.80375812950E+03  0.18387355854E+03  0.12564771426E+04  0.15294330000E+03 0.  0.
<mgrwt>
<rscale>  0 0.13577572E+04</rscale>
<asrwt>0</asrwt>
<pdfrwt beam="1">  1        2 0.58896971E+00 0.13983361E+04</pdfrwt>
<pdfrwt beam="2">  1       -2 0.13364114E+00 0.13983361E+04</pdfrwt>
<totfact> 0.18428119E-01</totfact>
</mgrwt>
</event>
<event>
 4    1  0.6502538E-008  0.6964414E+03  0.7818608E-02  0.1001230E+00
         -2   -1    0    0    0  501 -0.00000000000E+00  0.00000000000E+00  0.13071671661E+04  0.13071671661E+04  0.25500000000E-02 0.  1.
          2   -1    0    0  501    0  0.00000000000E+00 -0.00000000000E+00 -0.46245081820E+03  0.46245081821E+03  0.25500000000E-02 0. -1.
    8880023    1    1    2    0    0  0.75684827130E+02  0.21328902529E+03 -0.17157001868E+03  0.71726346550E+03  0.65864270000E+03 0.  0.
    8880022    1    1    2    0    0 -0.75684827130E+02 -0.21328902529E+03  0.10162863666E+04  0.10523545188E+04  0.15294330000E+03 0.  0.
<mgrwt>
<rscale>  0 0.55114333E+03</rscale>
<asrwt>0</asrwt>
<pdfrwt beam="1">  1        2 0.71146280E-01 0.69644139E+03</pdfrwt>
<pdfrwt beam="2">  1       -2 0.20110264E+00 0.69644139E+03</pdfrwt>
<totfact> 0.90402874E+00</totfact>
</mgrwt>
</event>
<event>
 4    1  0.6502538E-008  0.7652839E+03  0.7818608E-02  0.9791615E-01
         -2   -1    0    0    0  501 -0.00000000000E+00  0.00000000000E+00  0.34150418970E+03  0.34150418971E+03  0.25500000000E-02 0.  1.
          2   -1    0    0  501    0  0.00000000000E+00 -0.00000000000E+00 -0.22108233462E+04  0.22108233462E+04  0.25500000000E-02 0. -1.
    8880023    1    1    2    0    0 -0.27581838441E+03 -0.27526987320E+03 -0.19771116951E+04  0.21200542789E+04  0.65864270000E+03 0. -1.
    8880022    1    1    2    0    0  0.27581838441E+03  0.27526987320E+03  0.10779253866E+03  0.43227325696E+03  0.15294330000E+03 0.  0.
<mgrwt>
<rscale>  0 0.65814470E+03</rscale>
<asrwt>0</asrwt>
<pdfrwt beam="1">  1        2 0.34012666E+00 0.76528393E+03</pdfrwt>
<pdfrwt beam="2">  1       -2 0.52539107E-01 0.76528393E+03</pdfrwt>
<totfact> 0.18047439E+01</totfact>
</mgrwt>
</event>
<event>
 4    1  0.6502538E-008  0.7996203E+03  0.7818608E-02  0.9711618E-01
          2   -1    0    0  501    0  0.00000000000E+00  0.00000000000E+00  0.89383848808E+03  0.89383848808E+03  0.25500000000E-02 0. -1.
         -2   -1    0    0    0  501 -0.00000000000E+00 -0.00000000000E+00 -0.77869600090E+03  0.77869600091E+03  0.25500000000E-02 0.  1.
    8880023    1    1    2    0    0  0.11338200986E+03 -0.43900679932E+03  0.59358949512E+03  0.99586201102E+03  0.65864270000E+03 0. -1.
    8880022    1    1    2    0    0 -0.11338200986E+03  0.43900679932E+03 -0.47844700795E+03  0.67667247797E+03  0.15294330000E+03 0.  0.
<mgrwt>
<rscale>  0 0.70329279E+03</rscale>
<asrwt>0</asrwt>
<pdfrwt beam="1">  1        2 0.13751361E+00 0.79962032E+03</pdfrwt>
<pdfrwt beam="2">  1       -2 0.11979939E+00 0.79962032E+03</pdfrwt>
<totfact> 0.15952312E+01</totfact>
</mgrwt>
</event>
<event>
 4    1  0.6502538E-008  0.1095570E+04  0.7818608E-02  0.9266005E-01
          2   -1    0    0  501    0  0.00000000000E+00  0.00000000000E+00  0.76946158779E+03  0.76946158780E+03  0.25500000000E-02 0. -1.
         -2   -1    0    0    0  501 -0.00000000000E+00 -0.00000000000E+00 -0.35655314425E+04  0.35655314425E+04  0.25500000000E-02 0.  1.
    8880023    1    1    2    0    0  0.84772073053E+03 -0.21870608436E+03  0.28192280090E+03  0.11312618884E+04  0.65864270000E+03 0.  0.
    8880022    1    1    2    0    0 -0.84772073053E+03  0.21870608436E+03 -0.30779926556E+04  0.32037311419E+04  0.15294330000E+03 0.  0.
<mgrwt>
<rscale>  0 0.10397368E+04</rscale>
<asrwt>0</asrwt>
<pdfrwt beam="1">  1        2 0.11837871E+00 0.10955697E+04</pdfrwt>
<pdfrwt beam="2">  1       -2 0.54854329E+00 0.10955697E+04</pdfrwt>
<totfact> 0.30861849E-02</totfact>
</mgrwt>
</event>
<event>
 4    1  0.6502538E-008  0.9898009E+03  0.7818608E-02  0.9395024E-01
         -2   -1    0    0    0  501 -0.00000000000E+00  0.00000000000E+00  0.30158890239E+03  0.30158890240E+03  0.25500000000E-02 0.  1.
          2   -1    0    0  501    0  0.00000000000E+00 -0.00000000000E+00 -0.29169787971E+04  0.29169787971E+04  0.25500000000E-02 0. -1.
    8880023    1    1    2    0    0  0.51602660122E+03 -0.52878363393E+03 -0.20475955896E+04  0.22742808730E+04  0.65864270000E+03 0.  0.
    8880022    1    1    2    0    0 -0.51602660122E+03  0.52878363393E+03 -0.56779430513E+03  0.94428682647E+03  0.15294330000E+03 0.  0.
<mgrwt>
<rscale>  0 0.92486279E+03</rscale>
<asrwt>0</asrwt>
<pdfrwt beam="1">  1        2 0.44876595E+00 0.98980088E+03</pdfrwt>
<pdfrwt beam="2">  1       -2 0.46398295E-01 0.98980088E+03</pdfrwt>
<totfact> 0.88318472E+00</totfact>
</mgrwt>
</event>
<event>
 4    1  0.6502538E-008  0.7665050E+03  0.7818608E-02  0.9788549E-01
         -2   -1    0    0    0  501 -0.00000000000E+00  0.00000000000E+00  0.52219407276E+03  0.52219407277E+03  0.25500000000E-02 0.  1.
          2   -1    0    0  501    0  0.00000000000E+00 -0.00000000000E+00 -0.14336737208E+04  0.14336737208E+04  0.25500000000E-02 0. -1.
    8880023    1    1    2    0    0 -0.30045338911E+03 -0.25188776795E+03 -0.12152870822E+04  0.14368203037E+04  0.65864270000E+03 0. -1.
    8880022    1    1    2    0    0  0.30045338911E+03  0.25188776795E+03  0.30380743417E+03  0.51904748987E+03  0.15294330000E+03 0.  0.
<mgrwt>
<rscale>  0 0.65980718E+03</rscale>
<asrwt>0</asrwt>
<pdfrwt beam="1">  1        2 0.22056519E+00 0.76650499E+03</pdfrwt>
<pdfrwt beam="2">  1       -2 0.80337550E-01 0.76650499E+03</pdfrwt>
<totfact> 0.19349890E+01</totfact>
</mgrwt>
</event>
<event>
 4    1  0.6502538E-008  0.1041303E+04  0.7818608E-02  0.9329410E-01
         -2   -1    0    0    0  501 -0.00000000000E+00  0.00000000000E+00  0.66547259675E+03  0.66547259676E+03  0.25500000000E-02 0.  1.
          2   -1    0    0  501    0  0.00000000000E+00 -0.00000000000E+00 -0.23386152793E+04  0.23386152793E+04  0.25500000000E-02 0. -1.
    8880023    1    1    2    0    0 -0.48575606921E+03  0.64384981361E+03 -0.18874733871E+04  0.21556594199E+04  0.65864270000E+03 0.  0.
    8880022    1    1    2    0    0  0.48575606921E+03 -0.64384981361E+03  0.21433070458E+03  0.84842845615E+03  0.15294330000E+03 0.  0.
<mgrwt>
<rscale>  0 0.98119809E+03</rscale>
<asrwt>0</asrwt>
<pdfrwt beam="1">  1        2 0.35978696E+00 0.10413029E+04</pdfrwt>
<pdfrwt beam="2">  1       -2 0.10238040E+00 0.10413029E+04</pdfrwt>
<totfact> 0.33659576E+00</totfact>
</mgrwt>
</event>
<event>
 4    1  0.6502538E-008  0.7501056E+03  0.7818608E-02  0.9831431E-01
          2   -1    0    0  501    0  0.00000000000E+00  0.00000000000E+00  0.18915092294E+04  0.18915092294E+04  0.25500000000E-02 0. -1.
         -2   -1    0    0    0  501 -0.00000000000E+00 -0.00000000000E+00 -0.30174205064E+03  0.30174205065E+03  0.25500000000E-02 0.  1.
    8880023    1    1    2    0    0 -0.29807082900E+03  0.20000495143E+03  0.16365619783E+04  0.18002759552E+04  0.65864270000E+03 0. -1.
    8880022    1    1    2    0    0  0.29807082900E+03 -0.20000495143E+03 -0.46794799528E+02  0.39297532489E+03  0.15294330000E+03 0.  0.
<mgrwt>
<rscale>  0 0.63702701E+03</rscale>
<asrwt>0</asrwt>
<pdfrwt beam="1">  1        2 0.29100142E+00 0.75010560E+03</pdfrwt>
<pdfrwt beam="2">  1       -2 0.46421854E-01 0.75010560E+03</pdfrwt>
<totfact> 0.34776982E+01</totfact>
</mgrwt>
</event>
<event>
 4    1  0.6502538E-008  0.1047007E+04  0.7818608E-02  0.9322488E-01
          2   -1    0    0  501    0  0.00000000000E+00  0.00000000000E+00  0.14434548338E+04  0.14434548338E+04  0.25500000000E-02 0. -1.
         -2   -1    0    0    0  501 -0.00000000000E+00 -0.00000000000E+00 -0.85222204148E+03  0.85222204148E+03  0.25500000000E-02 0.  1.
    8880023    1    1    2    0    0 -0.10630962070E+03  0.80691519706E+03  0.93050850857E+03  0.14007391483E+04  0.65864270000E+03 0.  0.
    8880022    1    1    2    0    0  0.10630962070E+03 -0.80691519706E+03 -0.33927571621E+03  0.89493772706E+03  0.15294330000E+03 0.  0.
<mgrwt>
<rscale>  0 0.98738693E+03</rscale>
<asrwt>0</asrwt>
<pdfrwt beam="1">  1        2 0.22206997E+00 0.10470072E+04</pdfrwt>
<pdfrwt beam="2">  1       -2 0.13111108E+00 0.10470072E+04</pdfrwt>
<totfact> 0.57397393E+00</totfact>
</mgrwt>
</event>
<event>
 4    1  0.6502538E-008  0.7008209E+03  0.7818608E-02  0.9993813E-01
         -2   -1    0    0    0  501 -0.00000000000E+00  0.00000000000E+00  0.17422517646E+03  0.17422517647E+03  0.25500000000E-02 0.  1.
          2   -1    0    0  501    0  0.00000000000E+00 -0.00000000000E+00 -0.48700097619E+04  0.48700097619E+04  0.25500000000E-02 0. -1.
    8880023    1    1    2    0    0 -0.11543317699E+03  0.20979736422E+03 -0.47079654439E+04  0.47598412347E+04  0.65864270000E+03 0.  0.
    8880022    1    1    2    0    0  0.11543317699E+03 -0.20979736422E+03  0.12180858413E+02  0.28439370371E+03  0.15294330000E+03 0.  1.
<mgrwt>
<rscale>  0 0.55922375E+03</rscale>
<asrwt>0</asrwt>
<pdfrwt beam="1">  1        2 0.74923217E+00 0.70082092E+03</pdfrwt>
<pdfrwt beam="2">  1       -2 0.26803877E-01 0.70082092E+03</pdfrwt>
<totfact> 0.73670527E-01</totfact>
</mgrwt>
</event>
<event>
 4    1  0.6502538E-008  0.7841541E+03  0.7818608E-02  0.9746168E-01
          2   -1    0    0  501    0  0.00000000000E+00  0.00000000000E+00  0.46323028221E+03  0.46323028222E+03  0.25500000000E-02 0. -1.
         -2   -1    0    0    0  501 -0.00000000000E+00 -0.00000000000E+00 -0.94832991123E+03  0.94832991124E+03  0.25500000000E-02 0.  1.
    8880023    1    1    2    0    0  0.19002684188E+03 -0.38075882018E+03 -0.52734175469E+02  0.78592530135E+03  0.65864270000E+03 0.  0.
    8880022    1    1    2    0    0 -0.19002684188E+03  0.38075882018E+03 -0.43236545355E+03  0.62563489210E+03  0.15294330000E+03 0.  0.
<mgrwt>
<rscale>  0 0.68333269E+03</rscale>
<asrwt>0</asrwt>
<pdfrwt beam="1">  1        2 0.71266198E-01 0.78415412E+03</pdfrwt>
<pdfrwt beam="2">  1       -2 0.14589691E+00 0.78415412E+03</pdfrwt>
<totfact> 0.21912364E+01</totfact>
</mgrwt>
</event>
<event>
 4    1  0.6502538E-008  0.7421253E+03  0.7818608E-02  0.9853799E-01
         -2   -1    0    0    0  501 -0.00000000000E+00  0.00000000000E+00  0.19022980486E+03  0.19022980488E+03  0.25500000000E-02 0.  1.
          2   -1    0    0  501    0  0.00000000000E+00 -0.00000000000E+00 -0.17911578098E+04  0.17911578099E+04  0.25500000000E-02 0. -1.
    8880023    1    1    2    0    0 -0.31959369944E+03 -0.12165371420E+03 -0.76737838182E+03  0.10675296464E+04  0.65864270000E+03 0.  0.
    8880022    1    1    2    0    0  0.31959369944E+03  0.12165371420E+03 -0.83354962317E+03  0.91385796829E+03  0.15294330000E+03 0.  0.
<mgrwt>
<rscale>  0 0.62553597E+03</rscale>
<asrwt>0</asrwt>
<pdfrwt beam="1">  1        2 0.27556273E+00 0.74212530E+03</pdfrwt>
<pdfrwt beam="2">  1       -2 0.29266125E-01 0.74212530E+03</pdfrwt>
<totfact> 0.95886046E+01</totfact>
</mgrwt>
</event>
<event>
 4    1  0.6502538E-008  0.1171286E+04  0.7818608E-02  0.9185553E-01
         -2   -1    0    0    0  501 -0.00000000000E+00  0.00000000000E+00  0.10995339094E+04  0.10995339094E+04  0.25500000000E-02 0.  1.
          2   -1    0    0  501    0  0.00000000000E+00 -0.00000000000E+00 -0.22909472644E+04  0.22909472644E+04  0.25500000000E-02 0. -1.
    8880023    1    1    2    0    0 -0.20785982893E+03 -0.94598857373E+03 -0.18639754448E+04  0.22014347038E+04  0.65864270000E+03 0.  0.
    8880022    1    1    2    0    0  0.20785982893E+03  0.94598857373E+03  0.67256208986E+03  0.11890464700E+04  0.15294330000E+03 0.  0.
<mgrwt>
<rscale>  0 0.11203800E+04</rscale>
<asrwt>0</asrwt>
<pdfrwt beam="1">  1        2 0.35245342E+00 0.11712857E+04</pdfrwt>
<pdfrwt beam="2">  1       -2 0.16915906E+00 0.11712857E+04</pdfrwt>
<totfact> 0.96952354E-01</totfact>
</mgrwt>
</event>
<event>
 4    1  0.6502538E-008  0.1958375E+04  0.7818608E-02  0.8639645E-01
         -2   -1    0    0    0  501 -0.00000000000E+00  0.00000000000E+00  0.96997779088E+03  0.96997779088E+03  0.25500000000E-02 0.  1.
          2   -1    0    0  501    0  0.00000000000E+00 -0.00000000000E+00 -0.42392907454E+04  0.42392907454E+04  0.25500000000E-02 0. -1.
    8880023    1    1    2    0    0 -0.12578331356E+04  0.13488060515E+04 -0.78133518217E+03  0.21084868590E+04  0.65864270000E+03 0.  0.
    8880022    1    1    2    0    0  0.12578331356E+04 -0.13488060515E+04 -0.24879777724E+04  0.31007816773E+04  0.15294330000E+03 0.  0.
<mgrwt>
<rscale>  0 0.19308631E+04</rscale>
<asrwt>0</asrwt>
<pdfrwt beam="1">  1        2 0.65219857E+00 0.19583749E+04</pdfrwt>
<pdfrwt beam="2">  1       -2 0.14922735E+00 0.19583749E+04</pdfrwt>
<totfact> 0.59459889E-02</totfact>
</mgrwt>
</event>
<event>
 4    1  0.6502538E-008  0.1007077E+04  0.7818608E-02  0.9372357E-01
         -2   -1    0    0    0  501 -0.00000000000E+00  0.00000000000E+00  0.68023498947E+03  0.68023498948E+03  0.25500000000E-02 0.  1.
          2   -1    0    0  501    0  0.00000000000E+00 -0.00000000000E+00 -0.26087115826E+04  0.26087115826E+04  0.25500000000E-02 0. -1.
    8880023    1    1    2    0    0  0.61897565949E+03 -0.44414201394E+03 -0.22367379845E+04  0.24529981682E+04  0.65864270000E+03 0.  0.
    8880022    1    1    2    0    0 -0.61897565949E+03  0.44414201394E+03  0.30826139135E+03  0.83594840391E+03  0.15294330000E+03 0.  0.
<mgrwt>
<rscale>  0 0.94385901E+03</rscale>
<asrwt>0</asrwt>
<pdfrwt beam="1">  1        2 0.40134024E+00 0.10070766E+04</pdfrwt>
<pdfrwt beam="2">  1       -2 0.10465154E+00 0.10070766E+04</pdfrwt>
<totfact> 0.22493517E+00</totfact>
</mgrwt>
</event>
<event>
 4    1  0.6502538E-008  0.1041859E+04  0.7818608E-02  0.9328733E-01
         -2   -1    0    0    0  501 -0.00000000000E+00  0.00000000000E+00  0.60804263292E+03  0.60804263293E+03  0.25500000000E-02 0.  1.
          2   -1    0    0  501    0  0.00000000000E+00 -0.00000000000E+00 -0.43402595987E+04  0.43402595987E+04  0.25500000000E-02 0. -1.
    8880023    1    1    2    0    0  0.57057508771E+03  0.57105483223E+03 -0.39607575876E+04  0.40954939173E+04  0.65864270000E+03 0. -1.
    8880022    1    1    2    0    0 -0.57057508771E+03 -0.57105483223E+03  0.22854062188E+03  0.85280831433E+03  0.15294330000E+03 0.  0.
<mgrwt>
<rscale>  0 0.98180161E+03</rscale>
<asrwt>0</asrwt>
<pdfrwt beam="1">  1        2 0.66773223E+00 0.10418588E+04</pdfrwt>
<pdfrwt beam="2">  1       -2 0.93545023E-01 0.10418588E+04</pdfrwt>
<totfact> 0.17795126E-01</totfact>
</mgrwt>
</event>
<event>
 4    1  0.6502538E-008  0.9737653E+03  0.7818608E-02  0.9416715E-01
         -2   -1    0    0    0  501 -0.00000000000E+00  0.00000000000E+00  0.28667821074E+03  0.28667821075E+03  0.25500000000E-02 0.  1.
          2   -1    0    0  501    0  0.00000000000E+00 -0.00000000000E+00 -0.34762847800E+04  0.34762847800E+04  0.25500000000E-02 0. -1.
    8880023    1    1    2    0    0 -0.66214533411E+03  0.27563069711E+03 -0.27276194652E+04  0.28962263168E+04  0.65864270000E+03 0.  0.
    8880022    1    1    2    0    0  0.66214533411E+03 -0.27563069711E+03 -0.46198710401E+03  0.86673667395E+03  0.15294330000E+03 0.  0.
<mgrwt>
<rscale>  0 0.90712758E+03</rscale>
<asrwt>0</asrwt>
<pdfrwt beam="1">  1        2 0.53481302E+00 0.97376534E+03</pdfrwt>
<pdfrwt beam="2">  1       -2 0.44104342E-01 0.97376534E+03</pdfrwt>
<totfact> 0.42851165E+00</totfact>
</mgrwt>
</event>
<event>
 4    1  0.6502538E-008  0.9558224E+03  0.7818608E-02  0.9441786E-01
          2   -1    0    0  501    0  0.00000000000E+00  0.00000000000E+00  0.18155699904E+04  0.18155699904E+04  0.25500000000E-02 0. -1.
         -2   -1    0    0    0  501 -0.00000000000E+00 -0.00000000000E+00 -0.71820959889E+03  0.71820959889E+03  0.25500000000E-02 0.  1.
    8880023    1    1    2    0    0  0.61299642905E+03  0.32252391230E+03  0.14538357418E+04  0.17398950734E+04  0.65864270000E+03 0. -1.
    8880022    1    1    2    0    0 -0.61299642905E+03 -0.32252391230E+03 -0.35647535036E+03  0.79388451583E+03  0.15294330000E+03 0.  0.
<mgrwt>
<rscale>  0 0.88715215E+03</rscale>
<asrwt>0</asrwt>
<pdfrwt beam="1">  1        2 0.27931846E+00 0.95582242E+03</pdfrwt>
<pdfrwt beam="2">  1       -2 0.11049379E+00 0.95582242E+03</pdfrwt>
<totfact> 0.55127173E+00</totfact>
</mgrwt>
</event>
<event>
 4    1  0.6502538E-008  0.7728753E+03  0.7818608E-02  0.9772847E-01
         -2   -1    0    0    0  501 -0.00000000000E+00  0.00000000000E+00  0.10076151148E+04  0.10076151148E+04  0.25500000000E-02 0.  1.
          2   -1    0    0  501    0  0.00000000000E+00 -0.00000000000E+00 -0.30154986631E+04  0.30154986631E+04  0.25500000000E-02 0. -1.
    8880023    1    1    2    0    0 -0.73305289519E+02  0.39768379431E+03 -0.29163467311E+04  0.30170208034E+04  0.65864270000E+03 0. -1.
    8880022    1    1    2    0    0  0.73305289519E+02 -0.39768379431E+03  0.90846318284E+03  0.10060929745E+04  0.15294330000E+03 0.  0.
<mgrwt>
<rscale>  0 0.66840300E+03</rscale>
<asrwt>0</asrwt>
<pdfrwt beam="1">  1        2 0.46392287E+00 0.77287533E+03</pdfrwt>
<pdfrwt beam="2">  1       -2 0.15501771E+00 0.77287533E+03</pdfrwt>
<totfact> 0.49766451E-01</totfact>
</mgrwt>
</event>
<event>
 4    1  0.6502538E-008  0.1308057E+04  0.7818608E-02  0.9058633E-01
         -2   -1    0    0    0  501 -0.00000000000E+00  0.00000000000E+00  0.57818278485E+03  0.57818278486E+03  0.25500000000E-02 0.  1.
          2   -1    0    0  501    0  0.00000000000E+00 -0.00000000000E+00 -0.31791820868E+04  0.31791820868E+04  0.25500000000E-02 0. -1.
    8880023    1    1    2    0    0 -0.26026827597E+03 -0.10997560664E+04 -0.21787822081E+04  0.25412802084E+04  0.65864270000E+03 0.  0.
    8880022    1    1    2    0    0  0.26026827597E+03  0.10997560664E+04 -0.42221709389E+03  0.12160846633E+04  0.15294330000E+03 0.  0.
<mgrwt>
<rscale>  0 0.12639729E+04</rscale>
<asrwt>0</asrwt>
<pdfrwt beam="1">  1        2 0.48910493E+00 0.13080570E+04</pdfrwt>
<pdfrwt beam="2">  1       -2 0.88951199E-01 0.13080570E+04</pdfrwt>
<totfact> 0.14261282E+00</totfact>
</mgrwt>
</event>
<event>
 4    1  0.6502538E-008  0.9239823E+03  0.7818608E-02  0.9488580E-01
         -2   -1    0    0    0  501 -0.00000000000E+00  0.00000000000E+00  0.34497603313E+03  0.34497603314E+03  0.25500000000E-02 0.  1.
          2   -1    0    0  501    0  0.00000000000E+00 -0.00000000000E+00 -0.30049850123E+04  0.30049850123E+04  0.25500000000E-02 0. -1.
    8880023    1    1    2    0    0  0.26566556637E+03  0.59106252330E+03 -0.24998484779E+04  0.26651427200E+04  0.65864270000E+03 0. -1.
    8880022    1    1    2    0    0 -0.26566556637E+03 -0.59106252330E+03 -0.16016050129E+03  0.68481832539E+03  0.15294330000E+03 0.  0.
<mgrwt>
<rscale>  0 0.85131050E+03</rscale>
<asrwt>0</asrwt>
<pdfrwt beam="1">  1        2 0.46230537E+00 0.92398231E+03</pdfrwt>
<pdfrwt beam="2">  1       -2 0.53073238E-01 0.92398231E+03</pdfrwt>
<totfact> 0.59871370E+00</totfact>
</mgrwt>
</event>
<event>
 4    1  0.6502538E-008  0.6738782E+03  0.7818608E-02  0.1013023E+00
          2   -1    0    0  501    0  0.00000000000E+00  0.00000000000E+00  0.11472475492E+04  0.11472475492E+04  0.25500000000E-02 0. -1.
         -2   -1    0    0    0  501 -0.00000000000E+00 -0.00000000000E+00 -0.52104021861E+03  0.52104021861E+03  0.25500000000E-02 0.  1.
    8880023    1    1    2    0    0  0.25818657979E+02  0.14012490031E+03  0.10199730981E+04  0.12224798231E+04  0.65864270000E+03 0. -1.
    8880022    1    1    2    0    0 -0.25818657979E+02 -0.14012490031E+03 -0.39376576757E+03  0.44580794465E+03  0.15294330000E+03 0.  0.
<mgrwt>
<rscale>  0 0.50290717E+03</rscale>
<asrwt>0</asrwt>
<pdfrwt beam="1">  1        2 0.17649962E+00 0.67387818E+03</pdfrwt>
<pdfrwt beam="2">  1       -2 0.80160035E-01 0.67387818E+03</pdfrwt>
<totfact> 0.28788505E+01</totfact>
</mgrwt>
</event>
<event>
 4    1  0.6502538E-008  0.7444657E+03  0.7818608E-02  0.9847125E-01
          2   -1    0    0  501    0  0.00000000000E+00  0.00000000000E+00  0.11312107033E+04  0.11312107033E+04  0.25500000000E-02 0. -1.
         -2   -1    0    0    0  501 -0.00000000000E+00 -0.00000000000E+00 -0.59909696309E+03  0.59909696309E+03  0.25500000000E-02 0.  1.
    8880023    1    1    2    0    0 -0.11836927469E+03  0.32620180092E+03  0.92291974306E+03  0.11857529079E+04  0.65864270000E+03 0. -1.
    8880022    1    1    2    0    0  0.11836927469E+03 -0.32620180092E+03 -0.39080600287E+03  0.54455475851E+03  0.15294330000E+03 0.  0.
<mgrwt>
<rscale>  0 0.62893729E+03</rscale>
<asrwt>0</asrwt>
<pdfrwt beam="1">  1        2 0.17403241E+00 0.74446565E+03</pdfrwt>
<pdfrwt beam="2">  1       -2 0.92168764E-01 0.74446565E+03</pdfrwt>
<totfact> 0.21237078E+01</totfact>
</mgrwt>
</event>
<event>
 4    1  0.6502538E-008  0.1129406E+04  0.7818608E-02  0.9229001E-01
          2   -1    0    0  501    0  0.00000000000E+00  0.00000000000E+00  0.11759250412E+04  0.11759250412E+04  0.25500000000E-02 0. -1.
         -2   -1    0    0    0  501 -0.00000000000E+00 -0.00000000000E+00 -0.12029378971E+04  0.12029378971E+04  0.25500000000E-02 0.  1.
    8880023    1    1    2    0    0  0.26939155205E+03  0.87702709732E+03  0.57855962875E+03  0.12689719414E+04  0.65864270000E+03 0. -1.
    8880022    1    1    2    0    0 -0.26939155205E+03 -0.87702709732E+03 -0.60557248464E+03  0.11098909969E+04  0.15294330000E+03 0.  0.
<mgrwt>
<rscale>  0 0.10759038E+04</rscale>
<asrwt>0</asrwt>
<pdfrwt beam="1">  1        2 0.18091154E+00 0.11294063E+04</pdfrwt>
<pdfrwt beam="2">  1       -2 0.18506737E+00 0.11294063E+04</pdfrwt>
<totfact> 0.32056204E+00</totfact>
</mgrwt>
</event>
<event>
 4    1  0.6502538E-008  0.1002953E+04  0.7818608E-02  0.9377705E-01
         -2   -1    0    0    0  501 -0.00000000000E+00  0.00000000000E+00  0.81723633204E+03  0.81723633204E+03  0.25500000000E-02 0.  1.
          2   -1    0    0  501    0  0.00000000000E+00 -0.00000000000E+00 -0.29291023261E+04  0.29291023261E+04  0.25500000000E-02 0. -1.
    8880023    1    1    2    0    0  0.73953197949E+02 -0.75275149425E+03 -0.26314042626E+04  0.28160615204E+04  0.65864270000E+03 0. -1.
    8880022    1    1    2    0    0 -0.73953197949E+02  0.75275149425E+03  0.51953826847E+03  0.93027713774E+03  0.15294330000E+03 0.  0.
<mgrwt>
<rscale>  0 0.93933423E+03</rscale>
<asrwt>0</asrwt>
<pdfrwt beam="1">  1        2 0.45063112E+00 0.10029527E+04</pdfrwt>
<pdfrwt beam="2">  1       -2 0.12572867E+00 0.10029527E+04</pdfrwt>
<totfact> 0.92496281E-01</totfact>
</mgrwt>
</event>
<event>
 4    1  0.6502538E-008  0.1541355E+04  0.7818608E-02  0.8880972E-01
          2   -1    0    0  501    0  0.00000000000E+00  0.00000000000E+00  0.10987571732E+04  0.10987571732E+04  0.25500000000E-02 0. -1.
         -2   -1    0    0    0  501 -0.00000000000E+00 -0.00000000000E+00 -0.19821488778E+04  0.19821488778E+04  0.25500000000E-02 0.  1.
    8880023    1    1    2    0    0 -0.13838634512E+04 -0.16397542444E+03 -0.34736501146E+03  0.15800122306E+04  0.65864270000E+03 0. -1.
    8880022    1    1    2    0    0  0.13838634512E+04  0.16397542444E+03 -0.53602669316E+03  0.15008938204E+04  0.15294330000E+03 0.  1.
<mgrwt>
<rscale>  0 0.15052453E+04</rscale>
<asrwt>0</asrwt>
<pdfrwt beam="1">  1        2 0.16903957E+00 0.15413553E+04</pdfrwt>
<pdfrwt beam="2">  1       -2 0.30494598E+00 0.15413553E+04</pdfrwt>
<totfact> 0.60971793E-01</totfact>
</mgrwt>
</event>
<event>
 4    1  0.6502538E-008  0.1517640E+04  0.7818608E-02  0.8897279E-01
         -2   -1    0    0    0  501 -0.00000000000E+00  0.00000000000E+00  0.83855701252E+03  0.83855701252E+03  0.25500000000E-02 0.  1.
          2   -1    0    0  501    0  0.00000000000E+00 -0.00000000000E+00 -0.30930382050E+04  0.30930382050E+04  0.25500000000E-02 0. -1.
    8880023    1    1    2    0    0  0.12892735349E+04  0.45518524412E+03 -0.20347053433E+04  0.25383569281E+04  0.65864270000E+03 0.  0.
    8880022    1    1    2    0    0 -0.12892735349E+04 -0.45518524412E+03 -0.21977584920E+03  0.13932382894E+04  0.15294330000E+03 0.  0.
<mgrwt>
<rscale>  0 0.14808631E+04</rscale>
<asrwt>0</asrwt>
<pdfrwt beam="1">  1        2 0.47585202E+00 0.15176396E+04</pdfrwt>
<pdfrwt beam="2">  1       -2 0.12900877E+00 0.15176396E+04</pdfrwt>
<totfact> 0.63953055E-01</totfact>
</mgrwt>
</event>
<event>
 4    1  0.6502538E-008  0.1526902E+04  0.7818608E-02  0.8890869E-01
          2   -1    0    0  501    0  0.00000000000E+00  0.00000000000E+00  0.21472438934E+04  0.21472438934E+04  0.25500000000E-02 0. -1.
         -2   -1    0    0    0  501 -0.00000000000E+00 -0.00000000000E+00 -0.11646280166E+04  0.11646280166E+04  0.25500000000E-02 0.  1.
    8880023    1    1    2    0    0 -0.86401210593E+03 -0.10728948508E+04 -0.13296054262E+03  0.15326803294E+04  0.65864270000E+03 0.  0.
    8880022    1    1    2    0    0  0.86401210593E+03  0.10728948508E+04  0.11155764194E+04  0.17791915806E+04  0.15294330000E+03 0.  0.
<mgrwt>
<rscale>  0 0.14903892E+04</rscale>
<asrwt>0</asrwt>
<pdfrwt beam="1">  1        2 0.33034521E+00 0.15269023E+04</pdfrwt>
<pdfrwt beam="2">  1       -2 0.17917354E+00 0.15269023E+04</pdfrwt>
<totfact> 0.95321619E-01</totfact>
</mgrwt>
</event>
<event>
 4    1  0.6502538E-008  0.1246272E+04  0.7818608E-02  0.9113404E-01
          2   -1    0    0  501    0  0.00000000000E+00  0.00000000000E+00  0.18943369407E+04  0.18943369407E+04  0.25500000000E-02 0. -1.
         -2   -1    0    0    0  501 -0.00000000000E+00 -0.00000000000E+00 -0.10459497959E+04  0.10459497959E+04  0.25500000000E-02 0.  1.
    8880023    1    1    2    0    0 -0.17814764911E+02 -0.10578597196E+04  0.12808540668E+04  0.17871155248E+04  0.65864270000E+03 0.  0.
    8880022    1    1    2    0    0  0.17814764911E+02  0.10578597196E+04 -0.43246692193E+03  0.11531712118E+04  0.15294330000E+03 0.  0.
<mgrwt>
<rscale>  0 0.11993747E+04</rscale>
<asrwt>0</asrwt>
<pdfrwt beam="1">  1        2 0.29143645E+00 0.12462723E+04</pdfrwt>
<pdfrwt beam="2">  1       -2 0.16091535E+00 0.12462723E+04</pdfrwt>
<totfact> 0.18344332E+00</totfact>
</mgrwt>
</event>
<event>
 4    1  0.6502538E-008  0.7035573E+03  0.7818608E-02  0.9982752E-01
          2   -1    0    0  501    0  0.00000000000E+00  0.00000000000E+00  0.11972062001E+04  0.11972062001E+04  0.25500000000E-02 0. -1.
         -2   -1    0    0    0  501 -0.00000000000E+00 -0.00000000000E+00 -0.49513704966E+03  0.49513704967E+03  0.25500000000E-02 0.  1.
    8880023    1    1    2    0    0 -0.12097242042E+03  0.21575056371E+03  0.10342383152E+04  0.12508563991E+04  0.65864270000E+03 0. -1.
    8880022    1    1    2    0    0  0.12097242042E+03 -0.21575056371E+03 -0.33216916480E+03  0.44148685065E+03  0.15294330000E+03 0.  0.
<mgrwt>
<rscale>  0 0.56413025E+03</rscale>
<asrwt>0</asrwt>
<pdfrwt beam="1">  1        2 0.18418557E+00 0.70355727E+03</pdfrwt>
<pdfrwt beam="2">  1       -2 0.76174931E-01 0.70355727E+03</pdfrwt>
<totfact> 0.30026210E+01</totfact>
</mgrwt>
</event>
<event>
 4    1  0.6502538E-008  0.7186847E+03  0.7818608E-02  0.9927062E-01
          2   -1    0    0  501    0  0.00000000000E+00  0.00000000000E+00  0.23137281491E+04  0.23137281491E+04  0.25500000000E-02 0. -1.
         -2   -1    0    0    0  501 -0.00000000000E+00 -0.00000000000E+00 -0.12801640344E+03  0.12801640347E+03  0.25500000000E-02 0.  1.
    8880023    1    1    2    0    0  0.23248749722E+03  0.16925439421E+03  0.17921468844E+04  0.19308801485E+04  0.65864270000E+03 0.  0.
    8880022    1    1    2    0    0 -0.23248749722E+03 -0.16925439421E+03  0.39356486130E+03  0.51086440411E+03  0.15294330000E+03 0. -1.
<mgrwt>
<rscale>  0 0.58967493E+03</rscale>
<asrwt>0</asrwt>
<pdfrwt beam="1">  1        2 0.35595813E+00 0.71868470E+03</pdfrwt>
<pdfrwt beam="2">  1       -2 0.19694834E-01 0.71868470E+03</pdfrwt>
<totfact> 0.10123258E+02</totfact>
</mgrwt>
</event>
<event>
 4    1  0.6502538E-008  0.9531888E+03  0.7818608E-02  0.9445541E-01
          2   -1    0    0  501    0  0.00000000000E+00  0.00000000000E+00  0.14814198223E+04  0.14814198223E+04  0.25500000000E-02 0. -1.
         -2   -1    0    0    0  501 -0.00000000000E+00 -0.00000000000E+00 -0.62629468850E+03  0.62629468851E+03  0.25500000000E-02 0.  1.
    8880023    1    1    2    0    0 -0.54792161094E+03 -0.41778061932E+03  0.10061199256E+04  0.13859459761E+04  0.65864270000E+03 0. -1.
    8880022    1    1    2    0    0  0.54792161094E+03  0.41778061932E+03 -0.15099479179E+03  0.72176853477E+03  0.15294330000E+03 0.  0.
<mgrwt>
<rscale>  0 0.88420765E+03</rscale>
<asrwt>0</asrwt>
<pdfrwt beam="1">  1        2 0.22791074E+00 0.95318883E+03</pdfrwt>
<pdfrwt beam="2">  1       -2 0.96353030E-01 0.95318883E+03</pdfrwt>
<totfact> 0.11729518E+01</totfact>
</mgrwt>
</event>
<event>
 4    1  0.6502538E-008  0.7200595E+03  0.7818608E-02  0.9922385E-01
         -2   -1    0    0    0  501 -0.00000000000E+00  0.00000000000E+00  0.19250691094E+03  0.19250691096E+03  0.25500000000E-02 0.  1.
          2   -1    0    0  501    0  0.00000000000E+00 -0.00000000000E+00 -0.14748831454E+04  0.14748831454E+04  0.25500000000E-02 0. -1.
    8880023    1    1    2    0    0 -0.23154399242E+03  0.17624648805E+03 -0.10104431906E+04  0.12407582732E+04  0.65864270000E+03 0.  0.
    8880022    1    1    2    0    0  0.23154399242E+03 -0.17624648805E+03 -0.27193304383E+03  0.42663178306E+03  0.15294330000E+03 0.  1.
<mgrwt>
<rscale>  0 0.59188586E+03</rscale>
<asrwt>0</asrwt>
<pdfrwt beam="1">  1        2 0.22690509E+00 0.72005948E+03</pdfrwt>
<pdfrwt beam="2">  1       -2 0.29616449E-01 0.72005948E+03</pdfrwt>
<totfact> 0.14029572E+02</totfact>
</mgrwt>
</event>
<event>
 4    1  0.6502538E-008  0.7001487E+03  0.7818608E-02  0.9996585E-01
         -2   -1    0    0    0  501 -0.00000000000E+00  0.00000000000E+00  0.23203907774E+04  0.23203907774E+04  0.25500000000E-02 0.  1.
          2   -1    0    0  501    0  0.00000000000E+00 -0.00000000000E+00 -0.52319913001E+03  0.52319913001E+03  0.25500000000E-02 0. -1.
    8880023    1    1    2    0    0 -0.18045209153E+03 -0.15438600986E+03 -0.27501145858E+03  0.75222304271E+03  0.65864270000E+03 0. -1.
    8880022    1    1    2    0    0  0.18045209153E+03  0.15438600986E+03  0.20722031060E+04  0.20913668647E+04  0.15294330000E+03 0.  0.
<mgrwt>
<rscale>  0 0.55800236E+03</rscale>
<asrwt>0</asrwt>
<pdfrwt beam="1">  1        2 0.80492174E-01 0.70014870E+03</pdfrwt>
<pdfrwt beam="2">  1       -2 0.35698320E+00 0.70014870E+03</pdfrwt>
<totfact> 0.87476885E-01</totfact>
</mgrwt>
</event>
<event>
 4    1  0.6502538E-008  0.7305142E+03  0.7818608E-02  0.9888493E-01
          2   -1    0    0  501    0  0.00000000000E+00  0.00000000000E+00  0.24012270163E+04  0.24012270163E+04  0.25500000000E-02 0. -1.
         -2   -1    0    0    0  501 -0.00000000000E+00 -0.00000000000E+00 -0.67030697767E+03  0.67030697768E+03  0.25500000000E-02 0.  1.
    8880023    1    1    2    0    0 -0.14053620395E+03  0.28300236297E+03  0.22942681074E+04  0.24077618480E+04  0.65864270000E+03 0. -1.
    8880022    1    1    2    0    0  0.14053620395E+03 -0.28300236297E+03 -0.56334806878E+03  0.66377214591E+03  0.15294330000E+03 0.  0.
<mgrwt>
<rscale>  0 0.60822198E+03</rscale>
<asrwt>0</asrwt>
<pdfrwt beam="1">  1        2 0.36941954E+00 0.73051418E+03</pdfrwt>
<pdfrwt beam="2">  1       -2 0.10312415E+00 0.73051418E+03</pdfrwt>
<totfact> 0.32023432E+00</totfact>
</mgrwt>
</event>
<event>
 4    1  0.6502538E-008  0.1032953E+04  0.7818608E-02  0.9339660E-01
          2   -1    0    0  501    0  0.00000000000E+00  0.00000000000E+00  0.47462938126E+03  0.47462938127E+03  0.25500000000E-02 0. -1.
         -2   -1    0    0    0  501 -0.00000000000E+00 -0.00000000000E+00 -0.22818843743E+04  0.22818843743E+04  0.25500000000E-02 0.  1.
    8880023    1    1    2    0    0 -0.61544548021E+03  0.50438974645E+03 -0.35273261037E+03  0.10915185093E+04  0.65864270000E+03 0.  0.
    8880022    1    1    2    0    0  0.61544548021E+03 -0.50438974645E+03 -0.14545223826E+04  0.16649952463E+04  0.15294330000E+03 0.  0.
<mgrwt>
<rscale>  0 0.97212237E+03</rscale>
<asrwt>0</asrwt>
<pdfrwt beam="1">  1        2 0.73019906E-01 0.10329532E+04</pdfrwt>
<pdfrwt beam="2">  1       -2 0.35105913E+00 0.10329532E+04</pdfrwt>
<totfact> 0.10129787E+00</totfact>
</mgrwt>
</event>
<event>
 4    1  0.6502538E-008  0.1394927E+04  0.7818608E-02  0.8987635E-01
          2   -1    0    0  501    0  0.00000000000E+00  0.00000000000E+00  0.17116816796E+04  0.17116816796E+04  0.25500000000E-02 0. -1.
         -2   -1    0    0    0  501 -0.00000000000E+00 -0.00000000000E+00 -0.13602986395E+04  0.13602986395E+04  0.25500000000E-02 0.  1.
    8880023    1    1    2    0    0  0.85321738883E+03 -0.88545531436E+03  0.95813356138E+03  0.16922887325E+04  0.65864270000E+03 0.  0.
    8880022    1    1    2    0    0 -0.85321738883E+03  0.88545531436E+03 -0.60675052123E+03  0.13796915867E+04  0.15294330000E+03 0.  0.
<mgrwt>
<rscale>  0 0.13542268E+04</rscale>
<asrwt>0</asrwt>
<pdfrwt beam="1">  1        2 0.26333564E+00 0.13949270E+04</pdfrwt>
<pdfrwt beam="2">  1       -2 0.20927671E+00 0.13949270E+04</pdfrwt>
<totfact> 0.10620788E+00</totfact>
</mgrwt>
</event>
<event>
 4    1  0.6502538E-008  0.1176773E+04  0.7818608E-02  0.9180038E-01
         -2   -1    0    0    0  501 -0.00000000000E+00  0.00000000000E+00  0.29387690885E+04  0.29387690885E+04  0.25500000000E-02 0.  1.
          2   -1    0    0  501    0  0.00000000000E+00 -0.00000000000E+00 -0.72114570230E+03  0.72114570230E+03  0.25500000000E-02 0. -1.
    8880023    1    1    2    0    0 -0.55477359321E+03 -0.80200407946E+03 -0.59263408155E+02  0.11782642492E+04  0.65864270000E+03 0.  0.
    8880022    1    1    2    0    0  0.55477359321E+03  0.80200407946E+03  0.22768867944E+04  0.24816505416E+04  0.15294330000E+03 0.  0.
<mgrwt>
<rscale>  0 0.11261865E+04</rscale>
<asrwt>0</asrwt>
<pdfrwt beam="1">  1        2 0.11094549E+00 0.11767729E+04</pdfrwt>
<pdfrwt beam="2">  1       -2 0.45211832E+00 0.11767729E+04</pdfrwt>
<totfact> 0.13149995E-01</totfact>
</mgrwt>
</event>
<event>
 4    1  0.6502538E-008  0.1015110E+04  0.7818608E-02  0.9362051E-01
         -2   -1    0    0    0  501 -0.00000000000E+00  0.00000000000E+00  0.32342129036E+04  0.32342129036E+04  0.25500000000E-02 0.  1.
          2   -1    0    0  501    0  0.00000000000E+00 -0.00000000000E+00 -0.71025547820E+03  0.71025547820E+03  0.25500000000E-02 0. -1.
    8880023    1    1    2    0    0  0.86803217797E+02  0.76753042597E+03 -0.26282076221E+03  0.10485812857E+04  0.65864270000E+03 0. -1.
    8880022    1    1    2    0    0 -0.86803217797E+02 -0.76753042597E+03  0.27867781876E+04  0.28958870961E+04  0.15294330000E+03 0.  0.
<mgrwt>
<rscale>  0 0.95265644E+03</rscale>
<asrwt>0</asrwt>
<pdfrwt beam="1">  1        2 0.10927007E+00 0.10151098E+04</pdfrwt>
<pdfrwt beam="2">  1       -2 0.49757122E+00 0.10151098E+04</pdfrwt>
<totfact> 0.69309735E-02</totfact>
</mgrwt>
</event>
<event>
 4    1  0.6502538E-008  0.1113614E+04  0.7818608E-02  0.9246048E-01
          2   -1    0    0  501    0  0.00000000000E+00  0.00000000000E+00  0.18572679402E+04  0.18572679402E+04  0.25500000000E-02 0. -1.
         -2   -1    0    0    0  501 -0.00000000000E+00 -0.00000000000E+00 -0.68535416596E+03  0.68535416596E+03  0.25500000000E-02 0.  1.
    8880023    1    1    2    0    0 -0.70807702042E+03  0.55222564177E+03  0.11923384343E+04  0.16315046351E+04  0.65864270000E+03 0.  0.
    8880022    1    1    2    0    0  0.70807702042E+03 -0.55222564177E+03 -0.20424660054E+02  0.91111747103E+03  0.15294330000E+03 0.  0.
<mgrwt>
<rscale>  0 0.10590522E+04</rscale>
<asrwt>0</asrwt>
<pdfrwt beam="1">  1        2 0.28573353E+00 0.11136141E+04</pdfrwt>
<pdfrwt beam="2">  1       -2 0.10543910E+00 0.11136141E+04</pdfrwt>
<totfact> 0.57543489E+00</totfact>
</mgrwt>
</event>
<event>
 4    1  0.6502538E-008  0.1227412E+04  0.7818608E-02  0.9130926E-01
         -2   -1    0    0    0  501 -0.00000000000E+00  0.00000000000E+00  0.32200970274E+04  0.32200970274E+04  0.25500000000E-02 0.  1.
          2   -1    0    0  501    0  0.00000000000E+00 -0.00000000000E+00 -0.85979628683E+03  0.85979628684E+03  0.25500000000E-02 0. -1.
    8880023    1    1    2    0    0  0.98922755454E+02  0.10309918521E+04 -0.26310174170E+03  0.12552938475E+04  0.65864270000E+03 0.  0.
    8880022    1    1    2    0    0 -0.98922755454E+02 -0.10309918521E+04  0.26234024822E+04  0.28245994668E+04  0.15294330000E+03 0.  0.
<mgrwt>
<rscale>  0 0.11795738E+04</rscale>
<asrwt>0</asrwt>
<pdfrwt beam="1">  1        2 0.13227635E+00 0.12274120E+04</pdfrwt>
<pdfrwt beam="2">  1       -2 0.49539954E+00 0.12274120E+04</pdfrwt>
<totfact> 0.53766195E-02</totfact>
</mgrwt>
</event>
<event>
 4    1  0.6502538E-008  0.1400068E+04  0.7818608E-02  0.8983630E-01
          2   -1    0    0  501    0  0.00000000000E+00  0.00000000000E+00  0.15784664315E+04  0.15784664315E+04  0.25500000000E-02 0. -1.
         -2   -1    0    0    0  501 -0.00000000000E+00 -0.00000000000E+00 -0.16921511200E+04  0.16921511200E+04  0.25500000000E-02 0.  1.
    8880023    1    1    2    0    0  0.10615534864E+04 -0.63204680895E+03  0.90070227914E+03  0.16647683848E+04  0.65864270000E+03 0.  0.
    8880022    1    1    2    0    0 -0.10615534864E+04  0.63204680895E+03 -0.10143869676E+04  0.16058491667E+04  0.15294330000E+03 0.  0.
<mgrwt>
<rscale>  0 0.13595500E+04</rscale>
<asrwt>0</asrwt>
<pdfrwt beam="1">  1        2 0.24284099E+00 0.14000676E+04</pdfrwt>
<pdfrwt beam="2">  1       -2 0.26033094E+00 0.14000676E+04</pdfrwt>
<totfact> 0.60470526E-01</totfact>
</mgrwt>
</event>
<event>
 4    1  0.6502538E-008  0.7398150E+03  0.7818608E-02  0.9860486E-01
          2   -1    0    0  501    0  0.00000000000E+00  0.00000000000E+00  0.10865195237E+04  0.10865195237E+04  0.25500000000E-02 0. -1.
         -2   -1    0    0    0  501 -0.00000000000E+00 -0.00000000000E+00 -0.91096436280E+03  0.91096436281E+03  0.25500000000E-02 0.  1.
    8880023    1    1    2    0    0 -0.22210199050E+03  0.25335102339E+03  0.91138571669E+03  0.11738612210E+04  0.65864270000E+03 0. -1.
    8880022    1    1    2    0    0  0.22210199050E+03 -0.25335102339E+03 -0.73583055583E+03  0.82362266551E+03  0.15294330000E+03 0.  0.
<mgrwt>
<rscale>  0 0.62215104E+03</rscale>
<asrwt>0</asrwt>
<pdfrwt beam="1">  1        2 0.16715685E+00 0.73981500E+03</pdfrwt>
<pdfrwt beam="2">  1       -2 0.14014836E+00 0.73981500E+03</pdfrwt>
<totfact> 0.81161692E+00</totfact>
</mgrwt>
</event>
<event>
 4    1  0.6502538E-008  0.6739435E+03  0.7818608E-02  0.1012981E+00
         -2   -1    0    0    0  501 -0.00000000000E+00  0.00000000000E+00  0.12127488748E+04  0.12127488748E+04  0.25500000000E-02 0.  1.
          2   -1    0    0  501    0  0.00000000000E+00 -0.00000000000E+00 -0.16882517423E+04  0.16882517423E+04  0.25500000000E-02 0. -1.
    8880023    1    1    2    0    0 -0.14082274104E+03 -0.23634673272E+02 -0.16110515300E+04  0.17463352716E+04  0.65864270000E+03 0. -1.
    8880022    1    1    2    0    0  0.14082274104E+03  0.23634673272E+02  0.11355486625E+04  0.11546653455E+04  0.15294330000E+03 0.  0.
<mgrwt>
<rscale>  0 0.50307032E+03</rscale>
<asrwt>0</asrwt>
<pdfrwt beam="1">  1        2 0.25973104E+00 0.67394351E+03</pdfrwt>
<pdfrwt beam="2">  1       -2 0.18657675E+00 0.67394351E+03</pdfrwt>
<totfact> 0.17084156E+00</totfact>
</mgrwt>
</event>
<event>
 4    1  0.6502538E-008  0.1259699E+04  0.7818608E-02  0.9101168E-01
          2   -1    0    0  501    0  0.00000000000E+00  0.00000000000E+00  0.31416922673E+04  0.31416922673E+04  0.25500000000E-02 0. -1.
         -2   -1    0    0    0  501 -0.00000000000E+00 -0.00000000000E+00 -0.45259337223E+03  0.45259337224E+03  0.25500000000E-02 0.  1.
    8880023    1    1    2    0    0 -0.10262182779E+04  0.31608086618E+03  0.17706654637E+04  0.21730387614E+04  0.65864270000E+03 0.  0.
    8880022    1    1    2    0    0  0.10262182779E+04 -0.31608086618E+03  0.91843343132E+03  0.14212468781E+04  0.15294330000E+03 0.  0.
<mgrwt>
<rscale>  0 0.12134461E+04</rscale>
<asrwt>0</asrwt>
<pdfrwt beam="1">  1        2 0.48333728E+00 0.12596989E+04</pdfrwt>
<pdfrwt beam="2">  1       -2 0.69629749E-01 0.12596989E+04</pdfrwt>
<totfact> 0.26348249E+00</totfact>
</mgrwt>
</event>
<event>
 4    1  0.6502538E-008  0.1045051E+04  0.7818608E-02  0.9324855E-01
          2   -1    0    0  501    0  0.00000000000E+00  0.00000000000E+00  0.19295046287E+04  0.19295046287E+04  0.25500000000E-02 0. -1.
         -2   -1    0    0    0  501 -0.00000000000E+00 -0.00000000000E+00 -0.61508094506E+03  0.61508094506E+03  0.25500000000E-02 0.  1.
    8880023    1    1    2    0    0  0.78931934211E+03 -0.18787071326E+03  0.13629672555E+04  0.17175012008E+04  0.65864270000E+03 0.  0.
    8880022    1    1    2    0    0 -0.78931934211E+03  0.18787071326E+03 -0.48543571845E+02  0.82708437303E+03  0.15294330000E+03 0.  0.
<mgrwt>
<rscale>  0 0.98526509E+03</rscale>
<asrwt>0</asrwt>
<pdfrwt beam="1">  1        2 0.29684686E+00 0.10450505E+04</pdfrwt>
<pdfrwt beam="2">  1       -2 0.94627841E-01 0.10450505E+04</pdfrwt>
<totfact> 0.68430489E+00</totfact>
</mgrwt>
</event>
<event>
 4    1  0.6502538E-008  0.8172100E+03  0.7818608E-02  0.9674750E-01
          2   -1    0    0  501    0  0.00000000000E+00  0.00000000000E+00  0.58711747946E+03  0.58711747947E+03  0.25500000000E-02 0. -1.
         -2   -1    0    0    0  501 -0.00000000000E+00 -0.00000000000E+00 -0.77770835648E+03  0.77770835648E+03  0.25500000000E-02 0.  1.
    8880023    1    1    2    0    0  0.29314869411E+03  0.38481924226E+03 -0.24853720485E+03  0.85416798964E+03  0.65864270000E+03 0.  1.
    8880022    1    1    2    0    0 -0.29314869411E+03 -0.38481924226E+03  0.57946327837E+02  0.51065784631E+03  0.15294330000E+03 0. -1.
<mgrwt>
<rscale>  0 0.72540277E+03</rscale>
<asrwt>0</asrwt>
<pdfrwt beam="1">  1        2 0.90325766E-01 0.81721002E+03</pdfrwt>
<pdfrwt beam="2">  1       -2 0.11964744E+00 0.81721002E+03</pdfrwt>
<totfact> 0.27437083E+01</totfact>
</mgrwt>
</event>
<event>
 4    1  0.6502538E-008  0.6888895E+03  0.7818608E-02  0.1004685E+00
         -2   -1    0    0    0  501 -0.00000000000E+00  0.00000000000E+00  0.32621776705E+03  0.32621776706E+03  0.25500000000E-02 0.  1.
          2   -1    0    0  501    0  0.00000000000E+00 -0.00000000000E+00 -0.27360790738E+04  0.27360790738E+04  0.25500000000E-02 0. -1.
    8880023    1    1    2    0    0  0.92427259686E+02  0.17948725922E+03 -0.26349125195E+04  0.27234780458E+04  0.65864270000E+03 0. -1.
    8880022    1    1    2    0    0 -0.92427259686E+02 -0.17948725922E+03  0.22505121268E+03  0.33881879508E+03  0.15294330000E+03 0.  0.
<mgrwt>
<rscale>  0 0.53642850E+03</rscale>
<asrwt>0</asrwt>
<pdfrwt beam="1">  1        2 0.42093523E+00 0.68888945E+03</pdfrwt>
<pdfrwt beam="2">  1       -2 0.50187351E-01 0.68888945E+03</pdfrwt>
<totfact> 0.10125497E+01</totfact>
</mgrwt>
</event>
<event>
 4    1  0.6502538E-008  0.1330634E+04  0.7818608E-02  0.9039547E-01
          2   -1    0    0  501    0  0.00000000000E+00  0.00000000000E+00  0.20994253229E+04  0.20994253230E+04  0.25500000000E-02 0. -1.
         -2   -1    0    0    0  501 -0.00000000000E+00 -0.00000000000E+00 -0.77340933263E+03  0.77340933263E+03  0.25500000000E-02 0.  1.
    8880023    1    1    2    0    0  0.81059469900E+03 -0.82444705295E+03  0.99190591258E+03  0.16596578728E+04  0.65864270000E+03 0.  0.
    8880022    1    1    2    0    0 -0.81059469900E+03  0.82444705295E+03  0.33411007774E+03  0.12131767828E+04  0.15294330000E+03 0.  0.
<mgrwt>
<rscale>  0 0.12874876E+04</rscale>
<asrwt>0</asrwt>
<pdfrwt beam="1">  1        2 0.32298851E+00 0.13306340E+04</pdfrwt>
<pdfrwt beam="2">  1       -2 0.11898605E+00 0.13306340E+04</pdfrwt>
<totfact> 0.30746805E+00</totfact>
</mgrwt>
</event>
<event>
 4    1  0.6502538E-008  0.1014777E+04  0.7818608E-02  0.9362476E-01
         -2   -1    0    0    0  501 -0.00000000000E+00  0.00000000000E+00  0.93832089185E+03  0.93832089186E+03  0.25500000000E-02 0.  1.
          2   -1    0    0  501    0  0.00000000000E+00 -0.00000000000E+00 -0.19558093941E+04  0.19558093941E+04  0.25500000000E-02 0. -1.
    8880023    1    1    2    0    0 -0.58227795268E+03 -0.50686653064E+03 -0.16140773361E+04  0.19065720934E+04  0.65864270000E+03 0. -1.
    8880022    1    1    2    0    0  0.58227795268E+03  0.50686653064E+03  0.59658883385E+03  0.98755819259E+03  0.15294330000E+03 0.  0.
<mgrwt>
<rscale>  0 0.95229192E+03</rscale>
<asrwt>0</asrwt>
<pdfrwt beam="1">  1        2 0.30089375E+00 0.10147766E+04</pdfrwt>
<pdfrwt beam="2">  1       -2 0.14435706E+00 0.10147766E+04</pdfrwt>
<totfact> 0.23330605E+00</totfact>
</mgrwt>
</event>
<event>
 4    1  0.6502538E-008  0.1117226E+04  0.7818608E-02  0.9242115E-01
          2   -1    0    0  501    0  0.00000000000E+00  0.00000000000E+00  0.31656099560E+04  0.31656099560E+04  0.25500000000E-02 0. -1.
         -2   -1    0    0    0  501 -0.00000000000E+00 -0.00000000000E+00 -0.51372713219E+03  0.51372713220E+03  0.25500000000E-02 0.  1.
    8880023    1    1    2    0    0  0.33441108845E+03 -0.83818461318E+03  0.30175600135E+03  0.11572601749E+04  0.65864270000E+03 0.  1.
    8880022    1    1    2    0    0 -0.33441108845E+03  0.83818461318E+03  0.23501268225E+04  0.25220769133E+04  0.15294330000E+03 0.  0.
<mgrwt>
<rscale>  0 0.10629108E+04</rscale>
<asrwt>0</asrwt>
<pdfrwt beam="1">  1        2 0.48701691E+00 0.11172262E+04</pdfrwt>
<pdfrwt beam="2">  1       -2 0.79034944E-01 0.11172262E+04</pdfrwt>
<totfact> 0.19547533E+00</totfact>
</mgrwt>
</event>
<event>
 4    1  0.6502538E-008  0.7642189E+03  0.7818608E-02  0.9794305E-01
          2   -1    0    0  501    0  0.00000000000E+00  0.00000000000E+00  0.15136676532E+04  0.15136676532E+04  0.25500000000E-02 0. -1.
         -2   -1    0    0    0  501 -0.00000000000E+00 -0.00000000000E+00 -0.12302701811E+04  0.12302701811E+04  0.25500000000E-02 0.  1.
    8880023    1    1    2    0    0 -0.22078150205E+02  0.38695326299E+03  0.13763342049E+04  0.15742700920E+04  0.65864270000E+03 0. -1.
    8880022    1    1    2    0    0  0.22078150205E+02 -0.38695326299E+03 -0.10929367328E+04  0.11696677423E+04  0.15294330000E+03 0.  0.
<mgrwt>
<rscale>  0 0.65669054E+03</rscale>
<asrwt>0</asrwt>
<pdfrwt beam="1">  1        2 0.23287195E+00 0.76421887E+03</pdfrwt>
<pdfrwt beam="2">  1       -2 0.18927234E+00 0.76421887E+03</pdfrwt>
<totfact> 0.20105396E+00</totfact>
</mgrwt>
</event>
<event>
 4    1  0.6502538E-008  0.7024788E+03  0.7818608E-02  0.9987070E-01
          2   -1    0    0  501    0  0.00000000000E+00  0.00000000000E+00  0.98201225657E+03  0.98201225657E+03  0.25500000000E-02 0. -1.
         -2   -1    0    0    0  501 -0.00000000000E+00 -0.00000000000E+00 -0.52443477456E+03  0.52443477456E+03  0.25500000000E-02 0.  1.
    8880023    1    1    2    0    0 -0.14227328285E+03 -0.19855605777E+03  0.79619363259E+03  0.10617912704E+04  0.65864270000E+03 0.  0.
    8880022    1    1    2    0    0  0.14227328285E+03  0.19855605777E+03 -0.33861615058E+03  0.44465576072E+03  0.15294330000E+03 0.  0.
<mgrwt>
<rscale>  0 0.56220859E+03</rscale>
<asrwt>0</asrwt>
<pdfrwt beam="1">  1        2 0.15107881E+00 0.70247876E+03</pdfrwt>
<pdfrwt beam="2">  1       -2 0.80682273E-01 0.70247876E+03</pdfrwt>
<totfact> 0.35799993E+01</totfact>
</mgrwt>
</event>
<event>
 4    1  0.6502538E-008  0.1556749E+04  0.7818608E-02  0.8870570E-01
          2   -1    0    0  501    0  0.00000000000E+00  0.00000000000E+00  0.27026218673E+04  0.27026218673E+04  0.25500000000E-02 0. -1.
         -2   -1    0    0    0  501 -0.00000000000E+00 -0.00000000000E+00 -0.12952967817E+04  0.12952967817E+04  0.25500000000E-02 0.  1.
    8880023    1    1    2    0    0 -0.63017674374E+03  0.12619560535E+04 -0.48701942643E+03  0.16311511080E+04  0.65864270000E+03 0. -1.
    8880022    1    1    2    0    0  0.63017674374E+03 -0.12619560535E+04  0.18943445120E+04  0.23667675409E+04  0.15294330000E+03 0.  0.
<mgrwt>
<rscale>  0 0.15210574E+04</rscale>
<asrwt>0</asrwt>
<pdfrwt beam="1">  1        2 0.41578798E+00 0.15567485E+04</pdfrwt>
<pdfrwt beam="2">  1       -2 0.19927643E+00 0.15567485E+04</pdfrwt>
<totfact> 0.33249052E-01</totfact>
</mgrwt>
</event>
<event>
 4    1  0.8333192E-008  0.1259838E+04  0.7818608E-02  0.9101042E-01
         -2   -1    0    0    0  501 -0.00000000000E+00  0.00000000000E+00  0.19758205109E+04  0.19758205109E+04  0.25500000000E-02 0.  1.
          2   -1    0    0  501    0  0.00000000000E+00 -0.00000000000E+00 -0.24048488679E+04  0.24048488679E+04  0.25500000000E-02 0. -1.
    8880023    1    1    2    0    0 -0.10324893917E+04  0.29554519434E+03 -0.20642580649E+04  0.24183367984E+04  0.65864270000E+03 0. -1.
    8880022    1    1    2    0    0  0.10324893917E+04 -0.29554519434E+03  0.16352297079E+04  0.19623325805E+04  0.15294330000E+03 0.  0.
<mgrwt>
<rscale>  0 0.12135917E+04</rscale>
<asrwt>0</asrwt>
<pdfrwt beam="1">  1        2 0.36997675E+00 0.12598379E+04</pdfrwt>
<pdfrwt beam="2">  1       -2 0.30397239E+00 0.12598379E+04</pdfrwt>
<totfact> 0.11527023E-01</totfact>
</mgrwt>
</event>
<event>
 4    1  0.6502538E-008  0.9087012E+03  0.7818608E-02  0.9512205E-01
         -2   -1    0    0    0  501 -0.00000000000E+00  0.00000000000E+00  0.60667860212E+03  0.60667860213E+03  0.25500000000E-02 0.  1.
          2   -1    0    0  501    0  0.00000000000E+00 -0.00000000000E+00 -0.17316425233E+04  0.17316425233E+04  0.25500000000E-02 0. -1.
    8880023    1    1    2    0    0  0.55431411400E+03  0.29097006623E+03 -0.13740998759E+04  0.16473883549E+04  0.65864270000E+03 0. -1.
    8880022    1    1    2    0    0 -0.55431411400E+03 -0.29097006623E+03  0.24913595480E+03  0.69093277054E+03  0.15294330000E+03 0.  0.
<mgrwt>
<rscale>  0 0.83389930E+03</rscale>
<asrwt>0</asrwt>
<pdfrwt beam="1">  1        2 0.26640654E+00 0.90870123E+03</pdfrwt>
<pdfrwt beam="2">  1       -2 0.93335170E-01 0.90870123E+03</pdfrwt>
<totfact> 0.92221620E+00</totfact>
</mgrwt>
</event>
<event>
 4    1  0.6502538E-008  0.9783742E+03  0.7818608E-02  0.9410414E-01
          2   -1    0    0  501    0  0.00000000000E+00  0.00000000000E+00  0.23896588264E+04  0.23896588264E+04  0.25500000000E-02 0. -1.
         -2   -1    0    0    0  501 -0.00000000000E+00 -0.00000000000E+00 -0.91292313255E+03  0.91292313255E+03  0.25500000000E-02 0.  1.
    8880023    1    1    2    0    0 -0.26333338717E+03  0.67384077797E+03  0.21120708956E+04  0.23276725588E+04  0.65864270000E+03 0.  0.
    8880022    1    1    2    0    0  0.26333338717E+03 -0.67384077797E+03 -0.63533520174E+03  0.97490940012E+03  0.15294330000E+03 0.  0.
<mgrwt>
<rscale>  0 0.91223569E+03</rscale>
<asrwt>0</asrwt>
<pdfrwt beam="1">  1        2 0.36763982E+00 0.97837420E+03</pdfrwt>
<pdfrwt beam="2">  1       -2 0.14044971E+00 0.97837420E+03</pdfrwt>
<totfact> 0.14459658E+00</totfact>
</mgrwt>
</event>
<event>
 4    1  0.6502538E-008  0.6597056E+03  0.7818608E-02  0.1024460E+00
          2   -1    0    0  501    0  0.00000000000E+00  0.00000000000E+00  0.85076012543E+03  0.85076012543E+03  0.25500000000E-02 0. -1.
         -2   -1    0    0    0  501 -0.00000000000E+00 -0.00000000000E+00 -0.56713089356E+03  0.56713089357E+03  0.25500000000E-02 0.  1.
    8880023    1    1    2    0    0  0.95083637809E+01 -0.36205748532E+02  0.70652202878E+03  0.96663584075E+03  0.65864270000E+03 0. -1.
    8880022    1    1    2    0    0 -0.95083637809E+01  0.36205748532E+02 -0.42289279691E+03  0.45125517825E+03  0.15294330000E+03 0.  0.
<mgrwt>
<rscale>  0 0.46110898E+03</rscale>
<asrwt>0</asrwt>
<pdfrwt beam="1">  1        2 0.13088617E+00 0.65970559E+03</pdfrwt>
<pdfrwt beam="2">  1       -2 0.87250907E-01 0.65970559E+03</pdfrwt>
<totfact> 0.36806494E+01</totfact>
</mgrwt>
</event>
<event>
 4    1  0.6502538E-008  0.9259545E+03  0.7818608E-02  0.9485589E-01
         -2   -1    0    0    0  501 -0.00000000000E+00  0.00000000000E+00  0.69901303938E+03  0.69901303939E+03  0.25500000000E-02 0.  1.
          2   -1    0    0  501    0  0.00000000000E+00 -0.00000000000E+00 -0.14007921754E+04  0.14007921754E+04  0.25500000000E-02 0. -1.
    8880023    1    1    2    0    0 -0.11208751301E+03 -0.64110674691E+03 -0.10042697132E+04  0.13659975603E+04  0.65864270000E+03 0. -1.
    8880022    1    1    2    0    0  0.11208751301E+03  0.64110674691E+03  0.30249057722E+03  0.73380765451E+03  0.15294330000E+03 0.  0.
<mgrwt>
<rscale>  0 0.85354692E+03</rscale>
<asrwt>0</asrwt>
<pdfrwt beam="1">  1        2 0.21550649E+00 0.92595447E+03</pdfrwt>
<pdfrwt beam="2">  1       -2 0.10754047E+00 0.92595447E+03</pdfrwt>
<totfact> 0.10050186E+01</totfact>
</mgrwt>
</event>
<event>
 4    1  0.6502538E-008  0.6896829E+03  0.7818608E-02  0.1004304E+00
         -2   -1    0    0    0  501 -0.00000000000E+00  0.00000000000E+00  0.59330928818E+03  0.59330928818E+03  0.25500000000E-02 0.  1.
          2   -1    0    0  501    0  0.00000000000E+00 -0.00000000000E+00 -0.32047469141E+04  0.32047469141E+04  0.25500000000E-02 0. -1.
    8880023    1    1    2    0    0 -0.23607795548E+02 -0.20321169923E+03 -0.31379542348E+04  0.32128522078E+04  0.65864270000E+03 0. -1.
    8880022    1    1    2    0    0  0.23607795548E+02  0.20321169923E+03  0.52651660892E+03  0.58520399452E+03  0.15294330000E+03 0.  0.
<mgrwt>
<rscale>  0 0.53802772E+03</rscale>
<asrwt>0</asrwt>
<pdfrwt beam="1">  1        2 0.49303798E+00 0.68968292E+03</pdfrwt>
<pdfrwt beam="2">  1       -2 0.91278354E-01 0.68968292E+03</pdfrwt>
<totfact> 0.14368057E+00</totfact>
</mgrwt>
</event>
<event>
 4    1  0.6502538E-008  0.9552476E+03  0.7818608E-02  0.9442604E-01
         -2   -1    0    0    0  501 -0.00000000000E+00  0.00000000000E+00  0.14898169496E+04  0.14898169496E+04  0.25500000000E-02 0.  1.
          2   -1    0    0  501    0  0.00000000000E+00 -0.00000000000E+00 -0.89954150228E+03  0.89954150229E+03  0.25500000000E-02 0. -1.
    8880023    1    1    2    0    0  0.17870531489E+02  0.69164183032E+03 -0.50831928434E+03  0.10820750799E+04  0.65864270000E+03 0. -1.
    8880022    1    1    2    0    0 -0.17870531489E+02 -0.69164183032E+03  0.10985947316E+04  0.13072833720E+04  0.15294330000E+03 0.  0.
<mgrwt>
<rscale>  0 0.88650976E+03</rscale>
<asrwt>0</asrwt>
<pdfrwt beam="1">  1        2 0.13839100E+00 0.95524760E+03</pdfrwt>
<pdfrwt beam="2">  1       -2 0.22920261E+00 0.95524760E+03</pdfrwt>
<totfact> 0.25377768E+00</totfact>
</mgrwt>
</event>
<event>
 4    1  0.6502538E-008  0.9775975E+03  0.7818608E-02  0.9411472E-01
          2   -1    0    0  501    0  0.00000000000E+00  0.00000000000E+00  0.22140235147E+04  0.22140235147E+04  0.25500000000E-02 0. -1.
         -2   -1    0    0    0  501 -0.00000000000E+00 -0.00000000000E+00 -0.43837142699E+03  0.43837142700E+03  0.25500000000E-02 0.  1.
    8880023    1    1    2    0    0  0.41175557184E+03 -0.59358565442E+03  0.33479357427E+03  0.10333361136E+04  0.65864270000E+03 0.  1.
    8880022    1    1    2    0    0 -0.41175557184E+03  0.59358565442E+03  0.14408585135E+04  0.16190588281E+04  0.15294330000E+03 0. -1.
<mgrwt>
<rscale>  0 0.91137543E+03</rscale>
<asrwt>0</asrwt>
<pdfrwt beam="1">  1        2 0.34061900E+00 0.97759746E+03</pdfrwt>
<pdfrwt beam="2">  1       -2 0.67441759E-01 0.97759746E+03</pdfrwt>
<totfact> 0.10313523E+01</totfact>
</mgrwt>
</event>
<event>
 4    1  0.6502538E-008  0.8485593E+03  0.7818608E-02  0.9614247E-01
         -2   -1    0    0    0  501 -0.00000000000E+00  0.00000000000E+00  0.63230324501E+03  0.63230324501E+03  0.25500000000E-02 0.  1.
          2   -1    0    0  501    0  0.00000000000E+00 -0.00000000000E+00 -0.12021139755E+04  0.12021139755E+04  0.25500000000E-02 0. -1.
    8880023    1    1    2    0    0 -0.36010374164E+03  0.39568666543E+03 -0.85888031917E+03  0.12073641749E+04  0.65864270000E+03 0. -1.
    8880022    1    1    2    0    0  0.36010374164E+03 -0.39568666543E+03  0.28906958865E+03  0.62705304563E+03  0.15294330000E+03 0.  0.
<mgrwt>
<rscale>  0 0.76360326E+03</rscale>
<asrwt>0</asrwt>
<pdfrwt beam="1">  1        2 0.18494061E+00 0.84855928E+03</pdfrwt>
<pdfrwt beam="2">  1       -2 0.97277422E-01 0.84855928E+03</pdfrwt>
<totfact> 0.16791467E+01</totfact>
</mgrwt>
</event>
<event>
 4    1  0.6502538E-008  0.1365561E+04  0.7818608E-02  0.9010916E-01
         -2   -1    0    0    0  501 -0.00000000000E+00  0.00000000000E+00  0.10362195606E+04  0.10362195606E+04  0.25500000000E-02 0.  1.
          2   -1    0    0  501    0  0.00000000000E+00 -0.00000000000E+00 -0.25195617565E+04  0.25195617565E+04  0.25500000000E-02 0. -1.
    8880023    1    1    2    0    0 -0.11904680795E+04 -0.11718362579E+03  0.30462470403E+03  0.13991256795E+04  0.65864270000E+03 0. -1.
    8880022    1    1    2    0    0  0.11904680795E+04  0.11718362579E+03 -0.17879668999E+04  0.21566556375E+04  0.15294330000E+03 0.  0.
<mgrwt>
<rscale>  0 0.13237820E+04</rscale>
<asrwt>0</asrwt>
<pdfrwt beam="1">  1        2 0.38762488E+00 0.13655609E+04</pdfrwt>
<pdfrwt beam="2">  1       -2 0.15941840E+00 0.13655609E+04</pdfrwt>
<totfact> 0.82622687E-01</totfact>
</mgrwt>
</event>
<event>
 4    1  0.6502538E-008  0.7712194E+03  0.7818608E-02  0.9776882E-01
          2   -1    0    0  501    0  0.00000000000E+00  0.00000000000E+00  0.11303214345E+04  0.11303214345E+04  0.25500000000E-02 0. -1.
         -2   -1    0    0    0  501 -0.00000000000E+00 -0.00000000000E+00 -0.81162932200E+03  0.81162932200E+03  0.25500000000E-02 0.  1.
    8880023    1    1    2    0    0 -0.21015935658E+03 -0.34176338728E+03  0.92163670137E+03  0.12017460562E+04  0.65864270000E+03 0. -1.
    8880022    1    1    2    0    0  0.21015935658E+03  0.34176338728E+03 -0.60294458889E+03  0.74020470028E+03  0.15294330000E+03 0.  0.
<mgrwt>
<rscale>  0 0.66618069E+03</rscale>
<asrwt>0</asrwt>
<pdfrwt beam="1">  1        2 0.17389560E+00 0.77121941E+03</pdfrwt>
<pdfrwt beam="2">  1       -2 0.12486605E+00 0.77121941E+03</pdfrwt>
<totfact> 0.10197724E+01</totfact>
</mgrwt>
</event>
<event>
 4    1  0.6502538E-008  0.7053809E+03  0.7818608E-02  0.9975571E-01
          2   -1    0    0  501    0  0.00000000000E+00  0.00000000000E+00  0.23767733239E+03  0.23767733240E+03  0.25500000000E-02 0. -1.
         -2   -1    0    0    0  501 -0.00000000000E+00 -0.00000000000E+00 -0.14172499335E+04  0.14172499335E+04  0.25500000000E-02 0.  1.
    8880023    1    1    2    0    0  0.22962401149E+03  0.10499913677E+03 -0.37704473733E+03  0.79982807252E+03  0.65864270000E+03 0.  0.
    8880022    1    1    2    0    0 -0.22962401149E+03 -0.10499913677E+03 -0.80252786379E+03  0.85509919339E+03  0.15294330000E+03 0.  0.
<mgrwt>
<rscale>  0 0.56734502E+03</rscale>
<asrwt>0</asrwt>
<pdfrwt beam="1">  1        2 0.36565744E-01 0.70538090E+03</pdfrwt>
<pdfrwt beam="2">  1       -2 0.21803845E+00 0.70538090E+03</pdfrwt>
<totfact> 0.14833649E+01</totfact>
</mgrwt>
</event>
<event>
 4    1  0.6502538E-008  0.7801583E+03  0.7818608E-02  0.9755465E-01
         -2   -1    0    0    0  501 -0.00000000000E+00  0.00000000000E+00  0.21925326919E+03  0.21925326921E+03  0.25500000000E-02 0.  1.
          2   -1    0    0  501    0  0.00000000000E+00 -0.00000000000E+00 -0.19272319653E+04  0.19272319653E+04  0.25500000000E-02 0. -1.
    8880023    1    1    2    0    0 -0.16790943734E+03  0.38294020236E+03 -0.14077948478E+04  0.16095133791E+04  0.65864270000E+03 0. -1.
    8880022    1    1    2    0    0  0.16790943734E+03 -0.38294020236E+03 -0.30018384837E+03  0.53697185547E+03  0.15294330000E+03 0.  0.
<mgrwt>
<rscale>  0 0.67808291E+03</rscale>
<asrwt>0</asrwt>
<pdfrwt beam="1">  1        2 0.29649721E+00 0.78015831E+03</pdfrwt>
<pdfrwt beam="2">  1       -2 0.33731273E-01 0.78015831E+03</pdfrwt>
<totfact> 0.61724658E+01</totfact>
</mgrwt>
</event>
<event>
 4    1  0.6502538E-008  0.1236919E+04  0.7818608E-02  0.9122044E-01
         -2   -1    0    0    0  501 -0.00000000000E+00  0.00000000000E+00  0.13322735691E+04  0.13322735691E+04  0.25500000000E-02 0.  1.
          2   -1    0    0  501    0  0.00000000000E+00 -0.00000000000E+00 -0.22125503844E+04  0.22125503844E+04  0.25500000000E-02 0. -1.
    8880023    1    1    2    0    0 -0.52891384867E+03 -0.90355334474E+03 -0.17720562633E+04  0.21610534729E+04  0.65864270000E+03 0.  0.
    8880022    1    1    2    0    0  0.52891384867E+03  0.90355334474E+03  0.89177944796E+03  0.13837704806E+04  0.15294330000E+03 0.  0.
<mgrwt>
<rscale>  0 0.11895601E+04</rscale>
<asrwt>0</asrwt>
<pdfrwt beam="1">  1        2 0.34039237E+00 0.12369190E+04</pdfrwt>
<pdfrwt beam="2">  1       -2 0.20496516E+00 0.12369190E+04</pdfrwt>
<totfact> 0.60708148E-01</totfact>
</mgrwt>
</event>
<event>
 4    1  0.6502538E-008  0.7340020E+03  0.7818608E-02  0.9877776E-01
         -2   -1    0    0    0  501 -0.00000000000E+00  0.00000000000E+00  0.10030329223E+04  0.10030329223E+04  0.25500000000E-02 0.  1.
          2   -1    0    0  501    0  0.00000000000E+00 -0.00000000000E+00 -0.12216374241E+04  0.12216374241E+04  0.25500000000E-02 0. -1.
    8880023    1    1    2    0    0  0.23173877926E+03  0.22637558576E+03 -0.10719552120E+04  0.12991716401E+04  0.65864270000E+03 0. -1.
    8880022    1    1    2    0    0 -0.23173877926E+03 -0.22637558576E+03  0.85335071019E+03  0.92549870623E+03  0.15294330000E+03 0.  0.
<mgrwt>
<rscale>  0 0.61350538E+03</rscale>
<asrwt>0</asrwt>
<pdfrwt beam="1">  1        2 0.18794422E+00 0.73400203E+03</pdfrwt>
<pdfrwt beam="2">  1       -2 0.15431276E+00 0.73400203E+03</pdfrwt>
<totfact> 0.52319860E+00</totfact>
</mgrwt>
</event>
<event>
 4    1  0.6502538E-008  0.1180284E+04  0.7818608E-02  0.9176530E-01
         -2   -1    0    0    0  501 -0.00000000000E+00  0.00000000000E+00  0.78006918433E+03  0.78006918433E+03  0.25500000000E-02 0.  1.
          2   -1    0    0  501    0  0.00000000000E+00 -0.00000000000E+00 -0.34367092362E+04  0.34367092362E+04  0.25500000000E-02 0. -1.
    8880023    1    1    2    0    0  0.97816693648E+03 -0.49483064179E+02 -0.29546452711E+04  0.31816659180E+04  0.65864270000E+03 0. -1.
    8880022    1    1    2    0    0 -0.97816693648E+03  0.49483064179E+02  0.29800521922E+03  0.10351125026E+04  0.15294330000E+03 0.  0.
<mgrwt>
<rscale>  0 0.11298991E+04</rscale>
<asrwt>0</asrwt>
<pdfrwt beam="1">  1        2 0.52872449E+00 0.11802836E+04</pdfrwt>
<pdfrwt beam="2">  1       -2 0.12001065E+00 0.11802836E+04</pdfrwt>
<totfact> 0.47733166E-01</totfact>
</mgrwt>
</event>
<event>
 4    1  0.6502538E-008  0.1134546E+04  0.7818608E-02  0.9223534E-01
          2   -1    0    0  501    0  0.00000000000E+00  0.00000000000E+00  0.32537807101E+04  0.32537807101E+04  0.25500000000E-02 0. -1.
         -2   -1    0    0    0  501 -0.00000000000E+00 -0.00000000000E+00 -0.67402578736E+03  0.67402578736E+03  0.25500000000E-02 0.  1.
    8880023    1    1    2    0    0  0.61220320991E+03  0.69180359383E+03  0.27511310027E+04  0.29758892760E+04  0.65864270000E+03 0.  0.
    8880022    1    1    2    0    0 -0.61220320991E+03 -0.69180359383E+03 -0.17137607999E+03  0.95191722144E+03  0.15294330000E+03 0.  0.
<mgrwt>
<rscale>  0 0.10813786E+04</rscale>
<asrwt>0</asrwt>
<pdfrwt beam="1">  1        2 0.50058166E+00 0.11345462E+04</pdfrwt>
<pdfrwt beam="2">  1       -2 0.10369627E+00 0.11345462E+04</pdfrwt>
<totfact> 0.90931088E-01</totfact>
</mgrwt>
</event>
<event>
 4    1  0.6502538E-008  0.1103067E+04  0.7818608E-02  0.9257649E-01
         -2   -1    0    0    0  501 -0.00000000000E+00  0.00000000000E+00  0.91235891788E+03  0.91235891789E+03  0.25500000000E-02 0.  1.
          2   -1    0    0  501    0  0.00000000000E+00 -0.00000000000E+00 -0.15710149251E+04  0.15710149251E+04  0.25500000000E-02 0. -1.
    8880023    1    1    2    0    0  0.88053117643E+03 -0.87242547841E+02 -0.10323130632E+04  0.15107702941E+04  0.65864270000E+03 0.  0.
    8880022    1    1    2    0    0 -0.88053117643E+03  0.87242547841E+02  0.37365705599E+03  0.97260354889E+03  0.15294330000E+03 0.  0.
<mgrwt>
<rscale>  0 0.10477702E+04</rscale>
<asrwt>0</asrwt>
<pdfrwt beam="1">  1        2 0.24169460E+00 0.11030669E+04</pdfrwt>
<pdfrwt beam="2">  1       -2 0.14036291E+00 0.11030669E+04</pdfrwt>
<totfact> 0.40570174E+00</totfact>
</mgrwt>
</event>
<event>
 4    1  0.6502538E-008  0.9292161E+03  0.7818608E-02  0.9480670E-01
          2   -1    0    0  501    0  0.00000000000E+00  0.00000000000E+00  0.11558273397E+04  0.11558273397E+04  0.25500000000E-02 0. -1.
         -2   -1    0    0    0  501 -0.00000000000E+00 -0.00000000000E+00 -0.10820610370E+04  0.10820610370E+04  0.25500000000E-02 0.  1.
    8880023    1    1    2    0    0 -0.62335046293E+03 -0.20264897323E+03  0.81548208189E+03  0.12363064499E+04  0.65864270000E+03 0.  0.
    8880022    1    1    2    0    0  0.62335046293E+03  0.20264897323E+03 -0.74171577912E+03  0.10015819268E+04  0.15294330000E+03 0.  0.
<mgrwt>
<rscale>  0 0.85724056E+03</rscale>
<asrwt>0</asrwt>
<pdfrwt beam="1">  1        2 0.17781959E+00 0.92921613E+03</pdfrwt>
<pdfrwt beam="2">  1       -2 0.16647093E+00 0.92921613E+03</pdfrwt>
<totfact> 0.45445189E+00</totfact>
</mgrwt>
</event>
<event>
 4    1  0.6502538E-008  0.1270412E+04  0.7818608E-02  0.9091542E-01
         -2   -1    0    0    0  501 -0.00000000000E+00  0.00000000000E+00  0.13468297043E+04  0.13468297043E+04  0.25500000000E-02 0.  1.
          2   -1    0    0  501    0  0.00000000000E+00 -0.00000000000E+00 -0.20081048900E+04  0.20081048900E+04  0.25500000000E-02 0. -1.
    8880023    1    1    2    0    0 -0.10032825719E+04 -0.41660577266E+03 -0.15060512310E+04  0.19703138850E+04  0.65864270000E+03 0. -1.
    8880022    1    1    2    0    0  0.10032825719E+04  0.41660577266E+03  0.84477604527E+03  0.13846207093E+04  0.15294330000E+03 0.  0.
<mgrwt>
<rscale>  0 0.12246598E+04</rscale>
<asrwt>0</asrwt>
<pdfrwt beam="1">  1        2 0.30893921E+00 0.12704119E+04</pdfrwt>
<pdfrwt beam="2">  1       -2 0.20720457E+00 0.12704119E+04</pdfrwt>
<totfact> 0.76001751E-01</totfact>
</mgrwt>
</event>
<event>
 4    1  0.6502538E-008  0.7476322E+03  0.7818608E-02  0.9838248E-01
          2   -1    0    0  501    0  0.00000000000E+00  0.00000000000E+00  0.45573680943E+03  0.45573680944E+03  0.25500000000E-02 0. -1.
         -2   -1    0    0    0  501 -0.00000000000E+00 -0.00000000000E+00 -0.89267657376E+03  0.89267657377E+03  0.25500000000E-02 0.  1.
    8880023    1    1    2    0    0 -0.37626658441E+02 -0.35174983681E+03  0.23452371033E+02  0.74799995528E+03  0.65864270000E+03 0. -1.
    8880022    1    1    2    0    0  0.37626658441E+02  0.35174983681E+03 -0.46039213536E+03  0.60041342793E+03  0.15294330000E+03 0.  0.
<mgrwt>
<rscale>  0 0.63349725E+03</rscale>
<asrwt>0</asrwt>
<pdfrwt beam="1">  1        2 0.70113355E-01 0.74763221E+03</pdfrwt>
<pdfrwt beam="2">  1       -2 0.13733486E+00 0.74763221E+03</pdfrwt>
<totfact> 0.26206384E+01</totfact>
</mgrwt>
</event>
<event>
 4    1  0.6502538E-008  0.1250778E+04  0.7818608E-02  0.9109276E-01
          2   -1    0    0  501    0  0.00000000000E+00  0.00000000000E+00  0.12432836890E+04  0.12432836890E+04  0.25500000000E-02 0. -1.
         -2   -1    0    0    0  501 -0.00000000000E+00 -0.00000000000E+00 -0.20303356653E+04  0.20303356653E+04  0.25500000000E-02 0.  1.
    8880023    1    1    2    0    0  0.16456990730E+02 -0.10631858304E+04  0.70445701610E+03  0.14355155298E+04  0.65864270000E+03 0.  0.
    8880022    1    1    2    0    0 -0.16456990730E+02  0.10631858304E+04 -0.14915089924E+04  0.18381038245E+04  0.15294330000E+03 0.  1.
<mgrwt>
<rscale>  0 0.12040987E+04</rscale>
<asrwt>0</asrwt>
<pdfrwt beam="1">  1        2 0.19127441E+00 0.12507778E+04</pdfrwt>
<pdfrwt beam="2">  1       -2 0.31235933E+00 0.12507778E+04</pdfrwt>
<totfact> 0.46265346E-01</totfact>
</mgrwt>
</event>
<event>
 4    1  0.6502538E-008  0.1084610E+04  0.7818608E-02  0.9278387E-01
         -2   -1    0    0    0  501 -0.00000000000E+00  0.00000000000E+00  0.14917586429E+04  0.14917586429E+04  0.25500000000E-02 0.  1.
          2   -1    0    0  501    0  0.00000000000E+00 -0.00000000000E+00 -0.74350738360E+03  0.74350738360E+03  0.25500000000E-02 0. -1.
    8880023    1    1    2    0    0 -0.27092345009E+03  0.81802798938E+03  0.81624462945E+03  0.13574368525E+04  0.65864270000E+03 0.  0.
    8880022    1    1    2    0    0  0.27092345009E+03 -0.81802798938E+03 -0.67993370178E+02  0.87782917395E+03  0.15294330000E+03 0.  0.
<mgrwt>
<rscale>  0 0.10279716E+04</rscale>
<asrwt>0</asrwt>
<pdfrwt beam="1">  1        2 0.11438575E+00 0.10846103E+04</pdfrwt>
<pdfrwt beam="2">  1       -2 0.22950133E+00 0.10846103E+04</pdfrwt>
<totfact> 0.32234675E+00</totfact>
</mgrwt>
</event>
<event>
 4    1  0.6502538E-008  0.1194885E+04  0.7818608E-02  0.9162110E-01
          2   -1    0    0  501    0  0.00000000000E+00  0.00000000000E+00  0.15973316826E+04  0.15973316826E+04  0.25500000000E-02 0. -1.
         -2   -1    0    0    0  501 -0.00000000000E+00 -0.00000000000E+00 -0.27179055541E+04  0.27179055541E+04  0.25500000000E-02 0.  1.
    8880023    1    1    2    0    0 -0.98937429726E+03 -0.12279669777E+03  0.12559455758E+04  0.17335368541E+04  0.65864270000E+03 0. -1.
    8880022    1    1    2    0    0  0.98937429726E+03  0.12279669777E+03 -0.23765194473E+04  0.25817003826E+04  0.15294330000E+03 0.  0.
<mgrwt>
<rscale>  0 0.11453217E+04</rscale>
<asrwt>0</asrwt>
<pdfrwt beam="1">  1        2 0.24574334E+00 0.11948852E+04</pdfrwt>
<pdfrwt beam="2">  1       -2 0.41813932E+00 0.11948852E+04</pdfrwt>
<totfact> 0.62141341E-02</totfact>
</mgrwt>
</event>
<event>
 4    1  0.6502538E-008  0.1048389E+04  0.7818608E-02  0.9320821E-01
         -2   -1    0    0    0  501 -0.00000000000E+00  0.00000000000E+00  0.47376146597E+03  0.47376146598E+03  0.25500000000E-02 0.  1.
          2   -1    0    0  501    0  0.00000000000E+00 -0.00000000000E+00 -0.28818951669E+04  0.28818951669E+04  0.25500000000E-02 0. -1.
    8880023    1    1    2    0    0 -0.81561114023E+03 -0.93513262284E+01 -0.22884830012E+04  0.25171955889E+04  0.65864270000E+03 0.  0.
    8880022    1    1    2    0    0  0.81561114023E+03  0.93513262284E+01 -0.11965069968E+03  0.83846104401E+03  0.15294330000E+03 0.  0.
<mgrwt>
<rscale>  0 0.98888458E+03</rscale>
<asrwt>0</asrwt>
<pdfrwt beam="1">  1        2 0.44336848E+00 0.10483889E+04</pdfrwt>
<pdfrwt beam="2">  1       -2 0.72886381E-01 0.10483889E+04</pdfrwt>
<totfact> 0.35483151E+00</totfact>
</mgrwt>
</event>
<event>
 4    1  0.6502538E-008  0.1007012E+04  0.7818608E-02  0.9372440E-01
          2   -1    0    0  501    0  0.00000000000E+00  0.00000000000E+00  0.65587704717E+03  0.65587704718E+03  0.25500000000E-02 0. -1.
         -2   -1    0    0    0  501 -0.00000000000E+00 -0.00000000000E+00 -0.17352191118E+04  0.17352191118E+04  0.25500000000E-02 0.  1.
    8880023    1    1    2    0    0 -0.70972652848E+03  0.27668032114E+03  0.63667432352E+02  0.10090230392E+04  0.65864270000E+03 0.  0.
    8880022    1    1    2    0    0  0.70972652848E+03 -0.27668032114E+03 -0.11430094970E+04  0.13820731198E+04  0.15294330000E+03 0.  0.
<mgrwt>
<rscale>  0 0.94378864E+03</rscale>
<asrwt>0</asrwt>
<pdfrwt beam="1">  1        2 0.10090416E+00 0.10070124E+04</pdfrwt>
<pdfrwt beam="2">  1       -2 0.26695679E+00 0.10070124E+04</pdfrwt>
<totfact> 0.22490657E+00</totfact>
</mgrwt>
</event>
<event>
 4    1  0.6502538E-008  0.6642492E+03  0.7818608E-02  0.1020172E+00
          2   -1    0    0  501    0  0.00000000000E+00  0.00000000000E+00  0.30994693548E+04  0.30994693548E+04  0.25500000000E-02 0. -1.
         -2   -1    0    0    0  501 -0.00000000000E+00 -0.00000000000E+00 -0.43964107128E+03  0.43964107129E+03  0.25500000000E-02 0.  1.
    8880023    1    1    2    0    0  0.85858026505E+02  0.67251098525E+01  0.30445874906E+04  0.31162060301E+04  0.65864270000E+03 0. -1.
    8880022    1    1    2    0    0 -0.85858026505E+02 -0.67251098525E+01 -0.38475920701E+03  0.42290439606E+03  0.15294330000E+03 0.  0.
<mgrwt>
<rscale>  0 0.47624681E+03</rscale>
<asrwt>0</asrwt>
<pdfrwt beam="1">  1        2 0.47684145E+00 0.66424923E+03</pdfrwt>
<pdfrwt beam="2">  1       -2 0.67637086E-01 0.66424923E+03</pdfrwt>
<totfact> 0.32910851E+00</totfact>
</mgrwt>
</event>
<event>
 4    1  0.6502538E-008  0.2614692E+04  0.7818608E-02  0.8370060E-01
          2   -1    0    0  501    0  0.00000000000E+00  0.00000000000E+00  0.54614124285E+04  0.54614124285E+04  0.25500000000E-02 0. -1.
         -2   -1    0    0    0  501 -0.00000000000E+00 -0.00000000000E+00 -0.16927562427E+04  0.16927562427E+04  0.25500000000E-02 0.  1.
    8880023    1    1    2    0    0 -0.21322510600E+04 -0.13624648378E+04  0.38075451554E+04  0.46188759816E+04  0.65864270000E+03 0.  0.
    8880022    1    1    2    0    0  0.21322510600E+04  0.13624648378E+04 -0.38888969610E+02  0.25352926896E+04  0.15294330000E+03 0.  0.
<mgrwt>
<rscale>  0 0.25945359E+04</rscale>
<asrwt>0</asrwt>
<pdfrwt beam="1">  1        2 0.84021731E+00 0.26146922E+04</pdfrwt>
<pdfrwt beam="2">  1       -2 0.26042403E+00 0.26146922E+04</pdfrwt>
<totfact> 0.32547853E-04</totfact>
</mgrwt>
</event>
<event>
 4    1  0.6502538E-008  0.8912906E+03  0.7818608E-02  0.9540160E-01
          2   -1    0    0  501    0  0.00000000000E+00  0.00000000000E+00  0.18925635576E+04  0.18925635576E+04  0.25500000000E-02 0. -1.
         -2   -1    0    0    0  501 -0.00000000000E+00 -0.00000000000E+00 -0.54791262641E+03  0.54791262642E+03  0.25500000000E-02 0.  1.
    8880023    1    1    2    0    0  0.38602938672E+03  0.45996734169E+03  0.15497361104E+04  0.17877586138E+04  0.65864270000E+03 0.  0.
    8880022    1    1    2    0    0 -0.38602938672E+03 -0.45996734169E+03 -0.20508517920E+03  0.65271757030E+03  0.15294330000E+03 0.  0.
<mgrwt>
<rscale>  0 0.81386635E+03</rscale>
<asrwt>0</asrwt>
<pdfrwt beam="1">  1        2 0.29116363E+00 0.89129055E+03</pdfrwt>
<pdfrwt beam="2">  1       -2 0.84294249E-01 0.89129055E+03</pdfrwt>
<totfact> 0.95384317E+00</totfact>
</mgrwt>
</event>
<event>
 4    1  0.6502538E-008  0.8002666E+03  0.7818608E-02  0.9710220E-01
          2   -1    0    0  501    0  0.00000000000E+00  0.00000000000E+00  0.24387835115E+04  0.24387835115E+04  0.25500000000E-02 0. -1.
         -2   -1    0    0    0  501 -0.00000000000E+00 -0.00000000000E+00 -0.26170000227E+03  0.26170000228E+03  0.25500000000E-02 0.  1.
    8880023    1    1    2    0    0  0.41747335574E+03  0.17981239894E+03  0.20553991503E+04  0.22056954402E+04  0.65864270000E+03 0. -1.
    8880022    1    1    2    0    0 -0.41747335574E+03 -0.17981239894E+03  0.12168435896E+03  0.49478807362E+03  0.15294330000E+03 0.  0.
<mgrwt>
<rscale>  0 0.70411556E+03</rscale>
<asrwt>0</asrwt>
<pdfrwt beam="1">  1        2 0.37519747E+00 0.80026665E+03</pdfrwt>
<pdfrwt beam="2">  1       -2 0.40261538E-01 0.80026665E+03</pdfrwt>
<totfact> 0.22847141E+01</totfact>
</mgrwt>
</event>
<event>
 4    1  0.6502538E-008  0.7675179E+03  0.7818608E-02  0.9786019E-01
         -2   -1    0    0    0  501 -0.00000000000E+00  0.00000000000E+00  0.98956180297E+03  0.98956180297E+03  0.25500000000E-02 0.  1.
          2   -1    0    0  501    0  0.00000000000E+00 -0.00000000000E+00 -0.85084982048E+03  0.85084982049E+03  0.25500000000E-02 0. -1.
    8880023    1    1    2    0    0  0.13156875133E+03 -0.37143400384E+03 -0.61015012947E+03  0.98049321379E+03  0.65864270000E+03 0. -1.
    8880022    1    1    2    0    0 -0.13156875133E+03  0.37143400384E+03  0.74886211196E+03  0.85991840966E+03  0.15294330000E+03 0.  0.
<mgrwt>
<rscale>  0 0.66118257E+03</rscale>
<asrwt>0</asrwt>
<pdfrwt beam="1">  1        2 0.13089997E+00 0.76751792E+03</pdfrwt>
<pdfrwt beam="2">  1       -2 0.15224028E+00 0.76751792E+03</pdfrwt>
<totfact> 0.92645996E+00</totfact>
</mgrwt>
</event>
<event>
 4    1  0.6502538E-008  0.6904717E+03  0.7818608E-02  0.1003929E+00
          2   -1    0    0  501    0  0.00000000000E+00  0.00000000000E+00  0.99943875464E+03  0.99943875464E+03  0.25500000000E-02 0. -1.
         -2   -1    0    0    0  501 -0.00000000000E+00 -0.00000000000E+00 -0.68358306026E+03  0.68358306026E+03  0.25500000000E-02 0.  1.
    8880023    1    1    2    0    0  0.18064137849E+03 -0.10153656511E+03  0.84697106137E+03  0.10927539370E+04  0.65864270000E+03 0. -1.
    8880022    1    1    2    0    0 -0.18064137849E+03  0.10153656511E+03 -0.53111536698E+03  0.59026787795E+03  0.15294330000E+03 0.  0.
<mgrwt>
<rscale>  0 0.53960420E+03</rscale>
<asrwt>0</asrwt>
<pdfrwt beam="1">  1        2 0.15375981E+00 0.69047171E+03</pdfrwt>
<pdfrwt beam="2">  1       -2 0.10516662E+00 0.69047171E+03</pdfrwt>
<totfact> 0.18890551E+01</totfact>
</mgrwt>
</event>
<event>
 4    1  0.6502538E-008  0.9978387E+03  0.7818608E-02  0.9384391E-01
         -2   -1    0    0    0  501 -0.00000000000E+00  0.00000000000E+00  0.12495401346E+04  0.12495401346E+04  0.25500000000E-02 0.  1.
          2   -1    0    0  501    0  0.00000000000E+00 -0.00000000000E+00 -0.41049970552E+04  0.41049970552E+04  0.25500000000E-02 0. -1.
    8880023    1    1    2    0    0 -0.69335293355E+03 -0.28483960088E+03 -0.39192187209E+04  0.40442499276E+04  0.65864270000E+03 0. -1.
    8880022    1    1    2    0    0  0.69335293355E+03  0.28483960088E+03  0.10637618003E+04  0.13102872622E+04  0.15294330000E+03 0.  0.
<mgrwt>
<rscale>  0 0.93371470E+03</rscale>
<asrwt>0</asrwt>
<pdfrwt beam="1">  1        2 0.63153800E+00 0.99783871E+03</pdfrwt>
<pdfrwt beam="2">  1       -2 0.19223695E+00 0.99783871E+03</pdfrwt>
<totfact> 0.44212091E-02</totfact>
</mgrwt>
</event>
<event>
 4    1  0.6502538E-008  0.9850550E+03  0.7818608E-02  0.9401377E-01
          2   -1    0    0  501    0  0.00000000000E+00  0.00000000000E+00  0.20711769843E+04  0.20711769843E+04  0.25500000000E-02 0. -1.
         -2   -1    0    0    0  501 -0.00000000000E+00 -0.00000000000E+00 -0.56325333418E+03  0.56325333419E+03  0.25500000000E-02 0.  1.
    8880023    1    1    2    0    0  0.33083195309E+03 -0.65350845333E+03  0.16016349981E+04  0.18803106002E+04  0.65864270000E+03 0. -1.
    8880022    1    1    2    0    0 -0.33083195309E+03  0.65350845333E+03 -0.93711347994E+02  0.75411971829E+03  0.15294330000E+03 0.  0.
<mgrwt>
<rscale>  0 0.91962461E+03</rscale>
<asrwt>0</asrwt>
<pdfrwt beam="1">  1        2 0.31864261E+00 0.98505497E+03</pdfrwt>
<pdfrwt beam="2">  1       -2 0.86654360E-01 0.98505497E+03</pdfrwt>
<totfact> 0.70615561E+00</totfact>
</mgrwt>
</event>
<event>
 4    1  0.6502538E-008  0.1294050E+04  0.7818608E-02  0.9070715E-01
         -2   -1    0    0    0  501 -0.00000000000E+00  0.00000000000E+00  0.27813298119E+04  0.27813298119E+04  0.25500000000E-02 0.  1.
          2   -1    0    0  501    0  0.00000000000E+00 -0.00000000000E+00 -0.75187891700E+03  0.75187891700E+03  0.25500000000E-02 0. -1.
    8880023    1    1    2    0    0 -0.10911912235E+04  0.22373572047E+03  0.97263017126E+02  0.12977003736E+04  0.65864270000E+03 0.  0.
    8880022    1    1    2    0    0  0.10911912235E+04 -0.22373572047E+03  0.19321878778E+04  0.22355083554E+04  0.15294330000E+03 0.  0.
<mgrwt>
<rscale>  0 0.12493614E+04</rscale>
<asrwt>0</asrwt>
<pdfrwt beam="1">  1        2 0.11567368E+00 0.12940503E+04</pdfrwt>
<pdfrwt beam="2">  1       -2 0.42789690E+00 0.12940503E+04</pdfrwt>
<totfact> 0.17762634E-01</totfact>
</mgrwt>
</event>
<event>
 4    1  0.6502538E-008  0.6943735E+03  0.7818608E-02  0.1002139E+00
          2   -1    0    0  501    0  0.00000000000E+00  0.00000000000E+00  0.11042411447E+04  0.11042411447E+04  0.25500000000E-02 0. -1.
         -2   -1    0    0    0  501 -0.00000000000E+00 -0.00000000000E+00 -0.47930070100E+03  0.47930070101E+03  0.25500000000E-02 0.  1.
    8880023    1    1    2    0    0 -0.85737434055E+02 -0.20246834820E+03  0.94087257359E+03  0.11693569795E+04  0.65864270000E+03 0. -1.
    8880022    1    1    2    0    0  0.85737434055E+02  0.20246834820E+03 -0.31593212991E+03  0.41418486615E+03  0.15294330000E+03 0.  0.
<mgrwt>
<rscale>  0 0.54722003E+03</rscale>
<asrwt>0</asrwt>
<pdfrwt beam="1">  1        2 0.16988325E+00 0.69437349E+03</pdfrwt>
<pdfrwt beam="2">  1       -2 0.73738569E-01 0.69437349E+03</pdfrwt>
<totfact> 0.36723922E+01</totfact>
</mgrwt>
</event>
<event>
 4    1  0.6502538E-008  0.6983288E+03  0.7818608E-02  0.1000421E+00
         -2   -1    0    0    0  501 -0.00000000000E+00  0.00000000000E+00  0.34643540661E+03  0.34643540661E+03  0.25500000000E-02 0.  1.
          2   -1    0    0  501    0  0.00000000000E+00 -0.00000000000E+00 -0.17210462973E+04  0.17210462973E+04  0.25500000000E-02 0. -1.
    8880023    1    1    2    0    0 -0.12534577189E+03  0.19529801845E+03 -0.15763146037E+04  0.17240739006E+04  0.65864270000E+03 0.  0.
    8880022    1    1    2    0    0  0.12534577189E+03 -0.19529801845E+03  0.20170371301E+03  0.34340780334E+03  0.15294330000E+03 0.  0.
<mgrwt>
<rscale>  0 0.55466201E+03</rscale>
<asrwt>0</asrwt>
<pdfrwt beam="1">  1        2 0.26477635E+00 0.69832878E+03</pdfrwt>
<pdfrwt beam="2">  1       -2 0.53297756E-01 0.69832878E+03</pdfrwt>
<totfact> 0.32740791E+01</totfact>
</mgrwt>
</event>
<event>
 4    1  0.6502538E-008  0.9375339E+03  0.7818608E-02  0.9468282E-01
         -2   -1    0    0    0  501 -0.00000000000E+00  0.00000000000E+00  0.27391829139E+03  0.27391829140E+03  0.25500000000E-02 0.  1.
          2   -1    0    0  501    0  0.00000000000E+00 -0.00000000000E+00 -0.37281657751E+04  0.37281657751E+04  0.25500000000E-02 0. -1.
    8880023    1    1    2    0    0 -0.41985739043E+03  0.51853577248E+03 -0.30850437267E+04  0.32243549087E+04  0.65864270000E+03 0.  0.
    8880022    1    1    2    0    0  0.41985739043E+03 -0.51853577248E+03 -0.36920375705E+03  0.77772915779E+03  0.15294330000E+03 0.  0.
<mgrwt>
<rscale>  0 0.86663229E+03</rscale>
<asrwt>0</asrwt>
<pdfrwt beam="1">  1        2 0.57356393E+00 0.93753388E+03</pdfrwt>
<pdfrwt beam="2">  1       -2 0.42141278E-01 0.93753388E+03</pdfrwt>
<totfact> 0.31342541E+00</totfact>
</mgrwt>
</event>
<event>
 4    1  0.1063177E-007  0.8877015E+03  0.7818608E-02  0.9546070E-01
         -2   -1    0    0    0  501 -0.00000000000E+00  0.00000000000E+00  0.19397761943E+04  0.19397761943E+04  0.25500000000E-02 0.  1.
          2   -1    0    0  501    0  0.00000000000E+00 -0.00000000000E+00 -0.19030911687E+04  0.19030911687E+04  0.25500000000E-02 0. -1.
    8880023    1    1    2    0    0 -0.64355402842E+02  0.59166045890E+03 -0.17452059778E+04  0.19579984238E+04  0.65864270000E+03 0. -1.
    8880022    1    1    2    0    0  0.64355402842E+02 -0.59166045890E+03  0.17818910034E+04  0.18848689391E+04  0.15294330000E+03 0.  0.
<mgrwt>
<rscale>  0 0.80970821E+03</rscale>
<asrwt>0</asrwt>
<pdfrwt beam="1">  1        2 0.29278326E+00 0.88770148E+03</pdfrwt>
<pdfrwt beam="2">  1       -2 0.29842711E+00 0.88770148E+03</pdfrwt>
<totfact> 0.25340724E-01</totfact>
</mgrwt>
</event>
<event>
 4    1  0.6502538E-008  0.7383524E+03  0.7818608E-02  0.9864773E-01
         -2   -1    0    0    0  501 -0.00000000000E+00  0.00000000000E+00  0.60091281022E+03  0.60091281022E+03  0.25500000000E-02 0.  1.
          2   -1    0    0  501    0  0.00000000000E+00 -0.00000000000E+00 -0.81581510475E+03  0.81581510475E+03  0.25500000000E-02 0. -1.
    8880023    1    1    2    0    0 -0.12898553955E+03 -0.30776103999E+03 -0.54922386249E+03  0.92022344272E+03  0.65864270000E+03 0. -1.
    8880022    1    1    2    0    0  0.12898553955E+03  0.30776103999E+03  0.33432156796E+03  0.49650447225E+03  0.15294330000E+03 0.  0.
<mgrwt>
<rscale>  0 0.61999357E+03</rscale>
<asrwt>0</asrwt>
<pdfrwt beam="1">  1        2 0.12551002E+00 0.73835245E+03</pdfrwt>
<pdfrwt beam="2">  1       -2 0.92448124E-01 0.73835245E+03</pdfrwt>
<totfact> 0.33831183E+01</totfact>
</mgrwt>
</event>
<event>
 4    1  0.6502538E-008  0.6722158E+03  0.7818608E-02  0.1014122E+00
          2   -1    0    0  501    0  0.00000000000E+00  0.00000000000E+00  0.29880178522E+04  0.29880178522E+04  0.25500000000E-02 0. -1.
         -2   -1    0    0    0  501 -0.00000000000E+00 -0.00000000000E+00 -0.10159860231E+03  0.10159860235E+03  0.25500000000E-02 0.  1.
    8880023    1    1    2    0    0  0.96860616982E+02  0.93176593891E+02  0.27795243648E+04  0.28596555312E+04  0.65864270000E+03 0. -1.
    8880022    1    1    2    0    0 -0.96860616982E+02 -0.93176593891E+02  0.10689488514E+03  0.22996092332E+03  0.15294330000E+03 0.  0.
<mgrwt>
<rscale>  0 0.49868845E+03</rscale>
<asrwt>0</asrwt>
<pdfrwt beam="1">  1        2 0.45969512E+00 0.67221579E+03</pdfrwt>
<pdfrwt beam="2">  1       -2 0.15630552E-01 0.67221579E+03</pdfrwt>
<totfact> 0.61754369E+01</totfact>
</mgrwt>
</event>
<event>
 4    1  0.6502538E-008  0.6605508E+03  0.7818608E-02  0.1023599E+00
          2   -1    0    0  501    0  0.00000000000E+00  0.00000000000E+00  0.33571838345E+04  0.33571838345E+04  0.25500000000E-02 0. -1.
         -2   -1    0    0    0  501 -0.00000000000E+00 -0.00000000000E+00 -0.14322347998E+03  0.14322348001E+03  0.25500000000E-02 0.  1.
    8880023    1    1    2    0    0  0.44771636153E+02 -0.22642819132E+02  0.32653100942E+04  0.33314527483E+04  0.65864270000E+03 0. -1.
    8880022    1    1    2    0    0 -0.44771636153E+02  0.22642819132E+02 -0.51349739675E+02  0.16895456621E+03  0.15294330000E+03 0.  0.
<mgrwt>
<rscale>  0 0.46409907E+03</rscale>
<asrwt>0</asrwt>
<pdfrwt beam="1">  1        2 0.51648980E+00 0.66055083E+03</pdfrwt>
<pdfrwt beam="2">  1       -2 0.22034383E-01 0.66055083E+03</pdfrwt>
<totfact> 0.19969718E+01</totfact>
</mgrwt>
</event>
<event>
 4    1  0.6502538E-008  0.7511419E+03  0.7818608E-02  0.9828605E-01
         -2   -1    0    0    0  501 -0.00000000000E+00  0.00000000000E+00  0.75794119389E+02  0.75794119432E+02  0.25500000000E-02 0.  1.
          2   -1    0    0  501    0  0.00000000000E+00 -0.00000000000E+00 -0.45737771725E+04  0.45737771725E+04  0.25500000000E-02 0. -1.
    8880023    1    1    2    0    0 -0.33907394491E+03 -0.12422874477E+03 -0.34448080292E+04  0.35257504855E+04  0.65864270000E+03 0. -1.
    8880022    1    1    2    0    0  0.33907394491E+03  0.12422874477E+03 -0.10531750239E+04  0.11238208065E+04  0.15294330000E+03 0.  0.
<mgrwt>
<rscale>  0 0.63849789E+03</rscale>
<asrwt>0</asrwt>
<pdfrwt beam="1">  1        2 0.70365781E+00 0.75114188E+03</pdfrwt>
<pdfrwt beam="2">  1       -2 0.11660637E-01 0.75114188E+03</pdfrwt>
<totfact> 0.63021977E+00</totfact>
</mgrwt>
</event>
<event>
 4    1  0.6502538E-008  0.6651529E+03  0.7818608E-02  0.1019405E+00
         -2   -1    0    0    0  501 -0.00000000000E+00  0.00000000000E+00  0.28260805831E+03  0.28260805832E+03  0.25500000000E-02 0.  1.
          2   -1    0    0  501    0  0.00000000000E+00 -0.00000000000E+00 -0.10459426118E+04  0.10459426118E+04  0.25500000000E-02 0. -1.
    8880023    1    1    2    0    0  0.90977894280E+02  0.18471896403E+02 -0.88872531832E+03  0.11100725588E+04  0.65864270000E+03 0. -1.
    8880022    1    1    2    0    0 -0.90977894280E+02 -0.18471896403E+02  0.12539076481E+03  0.21847811131E+03  0.15294330000E+03 0.  0.
<mgrwt>
<rscale>  0 0.47901770E+03</rscale>
<asrwt>0</asrwt>
<pdfrwt beam="1">  1        2 0.16091425E+00 0.66515291E+03</pdfrwt>
<pdfrwt beam="2">  1       -2 0.43478163E-01 0.66515291E+03</pdfrwt>
<totfact> 0.12042757E+02</totfact>
</mgrwt>
</event>
<event>
 4    1  0.6502538E-008  0.6751223E+03  0.7818608E-02  0.1012229E+00
          2   -1    0    0  501    0  0.00000000000E+00  0.00000000000E+00  0.14627677409E+04  0.14627677409E+04  0.25500000000E-02 0. -1.
         -2   -1    0    0    0  501 -0.00000000000E+00 -0.00000000000E+00 -0.21644738447E+03  0.21644738448E+03  0.25500000000E-02 0.  1.
    8880023    1    1    2    0    0  0.31815072900E+02 -0.14480221123E+03  0.12952714720E+04  0.14606567946E+04  0.65864270000E+03 0. -1.
    8880022    1    1    2    0    0 -0.31815072900E+02  0.14480221123E+03 -0.48951115517E+02  0.21855833081E+03  0.15294330000E+03 0.  0.
<mgrwt>
<rscale>  0 0.50598164E+03</rscale>
<asrwt>0</asrwt>
<pdfrwt beam="1">  1        2 0.22504119E+00 0.67512227E+03</pdfrwt>
<pdfrwt beam="2">  1       -2 0.33299598E-01 0.67512227E+03</pdfrwt>
<totfact> 0.11494505E+02</totfact>
</mgrwt>
</event>
<event>
 4    1  0.6502538E-008  0.1479222E+04  0.7818608E-02  0.8924449E-01
          2   -1    0    0  501    0  0.00000000000E+00  0.00000000000E+00  0.23479019351E+04  0.23479019351E+04  0.25500000000E-02 0. -1.
         -2   -1    0    0    0  501 -0.00000000000E+00 -0.00000000000E+00 -0.11675706640E+04  0.11675706640E+04  0.25500000000E-02 0.  1.
    8880023    1    1    2    0    0  0.78325826388E+03  0.10680791958E+04  0.15391559468E+04  0.21347360285E+04  0.65864270000E+03 0.  0.
    8880022    1    1    2    0    0 -0.78325826388E+03 -0.10680791958E+04 -0.35882467572E+03  0.13807365706E+04  0.15294330000E+03 0.  0.
<mgrwt>
<rscale>  0 0.14413074E+04</rscale>
<asrwt>0</asrwt>
<pdfrwt beam="1">  1        2 0.36121568E+00 0.14792217E+04</pdfrwt>
<pdfrwt beam="2">  1       -2 0.17962626E+00 0.14792217E+04</pdfrwt>
<totfact> 0.73242469E-01</totfact>
</mgrwt>
</event>
<event>
 4    1  0.6569801E-008  0.9286002E+03  0.7818608E-02  0.9481596E-01
          2   -1    0    0  501    0  0.00000000000E+00  0.00000000000E+00  0.30836149776E+04  0.30836149776E+04  0.25500000000E-02 0. -1.
         -2   -1    0    0    0  501 -0.00000000000E+00 -0.00000000000E+00 -0.10285472222E+04  0.10285472222E+04  0.25500000000E-02 0.  1.
    8880023    1    1    2    0    0  0.63438114147E+03 -0.16139584831E+03  0.28927312555E+04  0.30381231666E+04  0.65864270000E+03 0.  0.
    8880022    1    1    2    0    0 -0.63438114147E+03  0.16139584831E+03 -0.83766350013E+03  0.10740390333E+04  0.15294330000E+03 0.  1.
<mgrwt>
<rscale>  0 0.85654349E+03</rscale>
<asrwt>0</asrwt>
<pdfrwt beam="1">  1        2 0.47440230E+00 0.92860016E+03</pdfrwt>
<pdfrwt beam="2">  1       -2 0.15823803E+00 0.92860016E+03</pdfrwt>
<totfact> 0.41319837E-01</totfact>
</mgrwt>
</event>
<event>
 4    1  0.6502538E-008  0.1116297E+04  0.7818608E-02  0.9243125E-01
         -2   -1    0    0    0  501 -0.00000000000E+00  0.00000000000E+00  0.21973664400E+04  0.21973664401E+04  0.25500000000E-02 0.  1.
          2   -1    0    0  501    0  0.00000000000E+00 -0.00000000000E+00 -0.69133938545E+03  0.69133938546E+03  0.25500000000E-02 0. -1.
    8880023    1    1    2    0    0  0.60830486262E+03 -0.66503723557E+03 -0.12356553964E+02  0.11163656306E+04  0.65864270000E+03 0.  1.
    8880022    1    1    2    0    0 -0.60830486262E+03  0.66503723557E+03  0.15183836086E+04  0.17723401949E+04  0.15294330000E+03 0.  0.
<mgrwt>
<rscale>  0 0.10619187E+04</rscale>
<asrwt>0</asrwt>
<pdfrwt beam="1">  1        2 0.10635991E+00 0.11162972E+04</pdfrwt>
<pdfrwt beam="2">  1       -2 0.33805637E+00 0.11162972E+04</pdfrwt>
<totfact> 0.76643715E-01</totfact>
</mgrwt>
</event>
<event>
 4    1  0.6502538E-008  0.7898393E+03  0.7818608E-02  0.9733212E-01
          2   -1    0    0  501    0  0.00000000000E+00  0.00000000000E+00  0.21956997733E+04  0.21956997733E+04  0.25500000000E-02 0. -1.
         -2   -1    0    0    0  501 -0.00000000000E+00 -0.00000000000E+00 -0.26999661419E+03  0.26999661420E+03  0.25500000000E-02 0.  1.
    8880023    1    1    2    0    0  0.19042958229E+03  0.39213837304E+03  0.18310198428E+04  0.19941112808E+04  0.65864270000E+03 0.  0.
    8880022    1    1    2    0    0 -0.19042958229E+03 -0.39213837304E+03  0.94683316328E+02  0.47158510667E+03  0.15294330000E+03 0.  0.
<mgrwt>
<rscale>  0 0.69073327E+03</rscale>
<asrwt>0</asrwt>
<pdfrwt beam="1">  1        2 0.33779994E+00 0.78983931E+03</pdfrwt>
<pdfrwt beam="2">  1       -2 0.41537944E-01 0.78983931E+03</pdfrwt>
<totfact> 0.29404472E+01</totfact>
</mgrwt>
</event>
<event>
 4    1  0.6502538E-008  0.1009342E+04  0.7818608E-02  0.9369436E-01
          2   -1    0    0  501    0  0.00000000000E+00  0.00000000000E+00  0.12166104535E+04  0.12166104535E+04  0.25500000000E-02 0. -1.
         -2   -1    0    0    0  501 -0.00000000000E+00 -0.00000000000E+00 -0.91485668664E+03  0.91485668665E+03  0.25500000000E-02 0.  1.
    8880023    1    1    2    0    0  0.39403294921E+03  0.65551498962E+03  0.72624628628E+03  0.12434652151E+04  0.65864270000E+03 0.  0.
    8880022    1    1    2    0    0 -0.39403294921E+03 -0.65551498962E+03 -0.42449251945E+03  0.88800192498E+03  0.15294330000E+03 0.  0.
<mgrwt>
<rscale>  0 0.94634260E+03</rscale>
<asrwt>0</asrwt>
<pdfrwt beam="1">  1        2 0.18717084E+00 0.10093424E+04</pdfrwt>
<pdfrwt beam="2">  1       -2 0.14074718E+00 0.10093424E+04</pdfrwt>
<totfact> 0.64970432E+00</totfact>
</mgrwt>
</event>
<event>
 4    1  0.6502538E-008  0.7438690E+03  0.7818608E-02  0.9848817E-01
         -2   -1    0    0    0  501 -0.00000000000E+00  0.00000000000E+00  0.17811828329E+03  0.17811828330E+03  0.25500000000E-02 0.  1.
          2   -1    0    0  501    0  0.00000000000E+00 -0.00000000000E+00 -0.20691799225E+04  0.20691799225E+04  0.25500000000E-02 0. -1.
    8880023    1    1    2    0    0 -0.32008772834E+03 -0.13067024849E+03 -0.16184345612E+04  0.17811994562E+04  0.65864270000E+03 0. -1.
    8880022    1    1    2    0    0  0.32008772834E+03  0.13067024849E+03 -0.27262707799E+03  0.46609874956E+03  0.15294330000E+03 0.  0.
<mgrwt>
<rscale>  0 0.62807271E+03</rscale>
<asrwt>0</asrwt>
<pdfrwt beam="1">  1        2 0.31833535E+00 0.74386899E+03</pdfrwt>
<pdfrwt beam="2">  1       -2 0.27402814E-01 0.74386899E+03</pdfrwt>
<totfact> 0.76314236E+01</totfact>
</mgrwt>
</event>
<event>
 4    1  0.6502538E-008  0.9176981E+03  0.7818608E-02  0.9498198E-01
         -2   -1    0    0    0  501 -0.00000000000E+00  0.00000000000E+00  0.14492942822E+04  0.14492942822E+04  0.25500000000E-02 0.  1.
          2   -1    0    0  501    0  0.00000000000E+00 -0.00000000000E+00 -0.47546446034E+03  0.47546446035E+03  0.25500000000E-02 0. -1.
    8880023    1    1    2    0    0  0.44740727808E+03 -0.45627431921E+03  0.25842360677E+03  0.95339000081E+03  0.65864270000E+03 0.  0.
    8880022    1    1    2    0    0 -0.44740727808E+03  0.45627431921E+03  0.71540621512E+03  0.97136874178E+03  0.15294330000E+03 0.  0.
<mgrwt>
<rscale>  0 0.84416833E+03</rscale>
<asrwt>0</asrwt>
<pdfrwt beam="1">  1        2 0.73148378E-01 0.91769806E+03</pdfrwt>
<pdfrwt beam="2">  1       -2 0.22296835E+00 0.91769806E+03</pdfrwt>
<totfact> 0.62101696E+00</totfact>
</mgrwt>
</event>
<event>
 4    1  0.6502538E-008  0.7559404E+03  0.7818608E-02  0.9815733E-01
          2   -1    0    0  501    0  0.00000000000E+00  0.00000000000E+00  0.24204310803E+04  0.24204310803E+04  0.25500000000E-02 0. -1.
         -2   -1    0    0    0  501 -0.00000000000E+00 -0.00000000000E+00 -0.63210770234E+03  0.63210770235E+03  0.25500000000E-02 0.  1.
    8880023    1    1    2    0    0  0.69974837369E+02  0.36433401135E+03  0.22891745926E+04  0.24107605172E+04  0.65864270000E+03 0. -1.
    8880022    1    1    2    0    0 -0.69974837369E+02 -0.36433401135E+03 -0.50085121467E+03  0.64177826541E+03  0.15294330000E+03 0.  0.
<mgrwt>
<rscale>  0 0.64525022E+03</rscale>
<asrwt>0</asrwt>
<pdfrwt beam="1">  1        2 0.37237401E+00 0.75594044E+03</pdfrwt>
<pdfrwt beam="2">  1       -2 0.97247340E-01 0.75594044E+03</pdfrwt>
<totfact> 0.35732830E+00</totfact>
</mgrwt>
</event>
<event>
 4    1  0.6502538E-008  0.7583192E+03  0.7818608E-02  0.9809478E-01
          2   -1    0    0  501    0  0.00000000000E+00  0.00000000000E+00  0.12118802318E+04  0.12118802318E+04  0.25500000000E-02 0. -1.
         -2   -1    0    0    0  501 -0.00000000000E+00 -0.00000000000E+00 -0.75510644707E+03  0.75510644707E+03  0.25500000000E-02 0.  1.
    8880023    1    1    2    0    0 -0.29329904152E+03  0.23497545794E+03  0.10211320124E+04  0.12719113910E+04  0.65864270000E+03 0. -1.
    8880022    1    1    2    0    0  0.29329904152E+03 -0.23497545794E+03 -0.56435822768E+03  0.69507528784E+03  0.15294330000E+03 0.  0.
<mgrwt>
<rscale>  0 0.64856346E+03</rscale>
<asrwt>0</asrwt>
<pdfrwt beam="1">  1        2 0.18644311E+00 0.75831919E+03</pdfrwt>
<pdfrwt beam="2">  1       -2 0.11617022E+00 0.75831919E+03</pdfrwt>
<totfact> 0.10920403E+01</totfact>
</mgrwt>
</event>
<event>
 4    1  0.6502538E-008  0.6634935E+03  0.7818608E-02  0.1020832E+00
         -2   -1    0    0    0  501 -0.00000000000E+00  0.00000000000E+00  0.92831976896E+03  0.92831976897E+03  0.25500000000E-02 0.  1.
          2   -1    0    0  501    0  0.00000000000E+00 -0.00000000000E+00 -0.12200007930E+04  0.12200007930E+04  0.25500000000E-02 0. -1.
    8880023    1    1    2    0    0 -0.48582179644E+02 -0.63664383266E+02 -0.11202307736E+04  0.13019756427E+04  0.65864270000E+03 0. -1.
    8880022    1    1    2    0    0  0.48582179644E+02  0.63664383266E+02  0.82854974954E+03  0.84634491926E+03  0.15294330000E+03 0.  0.
<mgrwt>
<rscale>  0 0.47387489E+03</rscale>
<asrwt>0</asrwt>
<pdfrwt beam="1">  1        2 0.18769243E+00 0.66349347E+03</pdfrwt>
<pdfrwt beam="2">  1       -2 0.14281843E+00 0.66349347E+03</pdfrwt>
<totfact> 0.64972356E+00</totfact>
</mgrwt>
</event>
<event>
 4    1  0.6502538E-008  0.8393455E+03  0.7818608E-02  0.9631416E-01
          2   -1    0    0  501    0  0.00000000000E+00  0.00000000000E+00  0.25228869279E+04  0.25228869279E+04  0.25500000000E-02 0. -1.
         -2   -1    0    0    0  501 -0.00000000000E+00 -0.00000000000E+00 -0.32921595385E+03  0.32921595386E+03  0.25500000000E-02 0.  1.
    8880023    1    1    2    0    0  0.45857368763E+02 -0.51825448404E+03  0.21500283686E+04  0.23080560653E+04  0.65864270000E+03 0.  0.
    8880022    1    1    2    0    0 -0.45857368763E+02  0.51825448404E+03  0.43642605455E+02  0.54404681648E+03  0.15294330000E+03 0.  1.
<mgrwt>
<rscale>  0 0.75251328E+03</rscale>
<asrwt>0</asrwt>
<pdfrwt beam="1">  1        2 0.38813645E+00 0.83934547E+03</pdfrwt>
<pdfrwt beam="2">  1       -2 0.50648608E-01 0.83934547E+03</pdfrwt>
<totfact> 0.12868102E+01</totfact>
</mgrwt>
</event>
<event>
 4    1  0.6502538E-008  0.1102470E+04  0.7818608E-02  0.9258311E-01
         -2   -1    0    0    0  501 -0.00000000000E+00  0.00000000000E+00  0.13352362277E+04  0.13352362277E+04  0.25500000000E-02 0.  1.
          2   -1    0    0  501    0  0.00000000000E+00 -0.00000000000E+00 -0.90962822635E+03  0.90962822635E+03  0.25500000000E-02 0. -1.
    8880023    1    1    2    0    0 -0.25190132642E+03 -0.84745279748E+03 -0.23926860354E+03  0.11281357157E+04  0.65864270000E+03 0.  0.
    8880022    1    1    2    0    0  0.25190132642E+03  0.84745279748E+03  0.66487660487E+03  0.11167287383E+04  0.15294330000E+03 0.  0.
<mgrwt>
<rscale>  0 0.10471313E+04</rscale>
<asrwt>0</asrwt>
<pdfrwt beam="1">  1        2 0.13994280E+00 0.11024703E+04</pdfrwt>
<pdfrwt beam="2">  1       -2 0.20542096E+00 0.11024703E+04</pdfrwt>
<totfact> 0.34787631E+00</totfact>
</mgrwt>
</event>
<event>
 4    1  0.6502538E-008  0.6732194E+03  0.7818608E-02  0.1013453E+00
         -2   -1    0    0    0  501 -0.00000000000E+00  0.00000000000E+00  0.23680650209E+03  0.23680650210E+03  0.25500000000E-02 0.  1.
          2   -1    0    0  501    0  0.00000000000E+00 -0.00000000000E+00 -0.46661323527E+04  0.46661323527E+04  0.25500000000E-02 0. -1.
    8880023    1    1    2    0    0 -0.13905612742E+03 -0.88072995764E+01 -0.45911673875E+04  0.46402631781E+04  0.65864270000E+03 0. -1.
    8880022    1    1    2    0    0  0.13905612742E+03  0.88072995764E+01  0.16184153688E+03  0.26267567678E+03  0.15294330000E+03 0.  0.
<mgrwt>
<rscale>  0 0.50125110E+03</rscale>
<asrwt>0</asrwt>
<pdfrwt beam="1">  1        2 0.71786645E+00 0.67321942E+03</pdfrwt>
<pdfrwt beam="2">  1       -2 0.36431773E-01 0.67321942E+03</pdfrwt>
<totfact> 0.69618530E-01</totfact>
</mgrwt>
</event>
<event>
 4    1  0.6502538E-008  0.1879708E+04  0.7818608E-02  0.8679681E-01
         -2   -1    0    0    0  501 -0.00000000000E+00  0.00000000000E+00  0.11023124677E+04  0.11023124677E+04  0.25500000000E-02 0.  1.
          2   -1    0    0  501    0  0.00000000000E+00 -0.00000000000E+00 -0.39189885840E+04  0.39189885840E+04  0.25500000000E-02 0. -1.
    8880023    1    1    2    0    0 -0.17167878850E+04 -0.39004134512E+03 -0.26462805692E+04  0.32459365290E+04  0.65864270000E+03 0.  0.
    8880022    1    1    2    0    0  0.17167878850E+04  0.39004134512E+03 -0.17039554715E+03  0.17753645227E+04  0.15294330000E+03 0.  0.
<mgrwt>
<rscale>  0 0.18509186E+04</rscale>
<asrwt>0</asrwt>
<pdfrwt beam="1">  1        2 0.60292132E+00 0.18797082E+04</pdfrwt>
<pdfrwt beam="2">  1       -2 0.16958653E+00 0.18797082E+04</pdfrwt>
<totfact> 0.77770738E-02</totfact>
</mgrwt>
</event>
<event>
 4    1  0.6502538E-008  0.7501944E+03  0.7818608E-02  0.9831188E-01
         -2   -1    0    0    0  501 -0.00000000000E+00  0.00000000000E+00  0.12245163254E+04  0.12245163254E+04  0.25500000000E-02 0.  1.
          2   -1    0    0  501    0  0.00000000000E+00 -0.00000000000E+00 -0.88719621828E+03  0.88719621829E+03  0.25500000000E-02 0. -1.
    8880023    1    1    2    0    0 -0.35678290469E+03  0.41077875009E+02 -0.68594583044E+03  0.10165202022E+04  0.65864270000E+03 0.  0.
    8880022    1    1    2    0    0  0.35678290469E+03 -0.41077875009E+02  0.10232659376E+04  0.10951923415E+04  0.15294330000E+03 0.  1.
<mgrwt>
<rscale>  0 0.63715324E+03</rscale>
<asrwt>0</asrwt>
<pdfrwt beam="1">  1        2 0.13649173E+00 0.75019440E+03</pdfrwt>
<pdfrwt beam="2">  1       -2 0.18838713E+00 0.75019440E+03</pdfrwt>
<totfact> 0.48545318E+00</totfact>
</mgrwt>
</event>
<event>
 4    1  0.6502538E-008  0.9772878E+03  0.7818608E-02  0.9411894E-01
         -2   -1    0    0    0  501 -0.00000000000E+00  0.00000000000E+00  0.96054121471E+03  0.96054121471E+03  0.25500000000E-02 0.  1.
          2   -1    0    0  501    0  0.00000000000E+00 -0.00000000000E+00 -0.12126626694E+04  0.12126626694E+04  0.25500000000E-02 0. -1.
    8880023    1    1    2    0    0 -0.31421363245E+03  0.65003931699E+03 -0.79272009294E+03  0.12583706419E+04  0.65864270000E+03 0. -1.
    8880022    1    1    2    0    0  0.31421363245E+03 -0.65003931699E+03  0.54059863820E+03  0.91483324223E+03  0.15294330000E+03 0.  0.
<mgrwt>
<rscale>  0 0.91103246E+03</rscale>
<asrwt>0</asrwt>
<pdfrwt beam="1">  1        2 0.18656349E+00 0.97728784E+03</pdfrwt>
<pdfrwt beam="2">  1       -2 0.14777557E+00 0.97728784E+03</pdfrwt>
<totfact> 0.57661794E+00</totfact>
</mgrwt>
</event>
<event>
 4    1  0.6502538E-008  0.6693220E+03  0.7818608E-02  0.1016154E+00
          2   -1    0    0  501    0  0.00000000000E+00  0.00000000000E+00  0.13628965330E+04  0.13628965330E+04  0.25500000000E-02 0. -1.
         -2   -1    0    0    0  501 -0.00000000000E+00 -0.00000000000E+00 -0.95227073670E+03  0.95227073670E+03  0.25500000000E-02 0.  1.
    8880023    1    1    2    0    0 -0.11493473965E+03  0.31172405060E+02  0.12692595367E+04  0.14349256743E+04  0.65864270000E+03 0. -1.
    8880022    1    1    2    0    0  0.11493473965E+03 -0.31172405060E+02 -0.85863374033E+03  0.88024159540E+03  0.15294330000E+03 0.  0.
<mgrwt>
<rscale>  0 0.49100547E+03</rscale>
<asrwt>0</asrwt>
<pdfrwt beam="1">  1        2 0.20967639E+00 0.66932198E+03</pdfrwt>
<pdfrwt beam="2">  1       -2 0.14650319E+00 0.66932198E+03</pdfrwt>
<totfact> 0.50252337E+00</totfact>
</mgrwt>
</event>
<event>
 4    1  0.6502538E-008  0.1775856E+04  0.7818608E-02  0.8736011E-01
         -2   -1    0    0    0  501 -0.00000000000E+00  0.00000000000E+00  0.20846859898E+04  0.20846859898E+04  0.25500000000E-02 0.  1.
          2   -1    0    0  501    0  0.00000000000E+00 -0.00000000000E+00 -0.20353623324E+04  0.20353623324E+04  0.25500000000E-02 0. -1.
    8880023    1    1    2    0    0  0.15981061812E+04 -0.40732251965E+03  0.11642500600E+04  0.21234743723E+04  0.65864270000E+03 0.  0.
    8880022    1    1    2    0    0 -0.15981061812E+04  0.40732251965E+03 -0.11149264026E+04  0.19965739499E+04  0.15294330000E+03 0.  0.
<mgrwt>
<rscale>  0 0.17451749E+04</rscale>
<asrwt>0</asrwt>
<pdfrwt beam="1">  1        2 0.31313267E+00 0.17758562E+04</pdfrwt>
<pdfrwt beam="2">  1       -2 0.32072092E+00 0.17758562E+04</pdfrwt>
<totfact> 0.13759818E-01</totfact>
</mgrwt>
</event>
<event>
 4    1  0.6502538E-008  0.8996746E+03  0.7818608E-02  0.9526554E-01
          2   -1    0    0  501    0  0.00000000000E+00  0.00000000000E+00  0.14739910348E+04  0.14739910348E+04  0.25500000000E-02 0. -1.
         -2   -1    0    0    0  501 -0.00000000000E+00 -0.00000000000E+00 -0.51910021464E+03  0.51910021465E+03  0.25500000000E-02 0.  1.
    8880023    1    1    2    0    0  0.61034970666E+03 -0.55474651021E+02  0.10176531375E+04  0.13583196663E+04  0.65864270000E+03 0. -1.
    8880022    1    1    2    0    0 -0.61034970666E+03  0.55474651021E+02 -0.62762317305E+02  0.63477158318E+03  0.15294330000E+03 0.  0.
<mgrwt>
<rscale>  0 0.82354085E+03</rscale>
<asrwt>0</asrwt>
<pdfrwt beam="1">  1        2 0.22676785E+00 0.89967461E+03</pdfrwt>
<pdfrwt beam="2">  1       -2 0.79861573E-01 0.89967461E+03</pdfrwt>
<totfact> 0.18343501E+01</totfact>
</mgrwt>
</event>
<event>
 4    1  0.6502538E-008  0.1114392E+04  0.7818608E-02  0.9245199E-01
          2   -1    0    0  501    0  0.00000000000E+00  0.00000000000E+00  0.23911624898E+04  0.23911624898E+04  0.25500000000E-02 0. -1.
         -2   -1    0    0    0  501 -0.00000000000E+00 -0.00000000000E+00 -0.67104885477E+03  0.67104885477E+03  0.25500000000E-02 0.  1.
    8880023    1    1    2    0    0  0.53895467410E+03  0.71943532714E+03  0.18311970865E+04  0.21436306367E+04  0.65864270000E+03 0.  0.
    8880022    1    1    2    0    0 -0.53895467410E+03 -0.71943532714E+03 -0.11108345148E+03  0.91858070787E+03  0.15294330000E+03 0.  0.
<mgrwt>
<rscale>  0 0.10598834E+04</rscale>
<asrwt>0</asrwt>
<pdfrwt beam="1">  1        2 0.36787114E+00 0.11143920E+04</pdfrwt>
<pdfrwt beam="2">  1       -2 0.10323829E+00 0.11143920E+04</pdfrwt>
<totfact> 0.30532588E+00</totfact>
</mgrwt>
</event>
<event>
 4    1  0.6502538E-008  0.9394473E+03  0.7818608E-02  0.9465462E-01
          2   -1    0    0  501    0  0.00000000000E+00  0.00000000000E+00  0.32429715599E+04  0.32429715599E+04  0.25500000000E-02 0. -1.
         -2   -1    0    0    0  501 -0.00000000000E+00 -0.00000000000E+00 -0.22797239775E+03  0.22797239776E+03  0.25500000000E-02 0.  1.
    8880023    1    1    2    0    0  0.45626088708E+03 -0.49048652821E+03  0.11595689442E+04  0.14923677074E+04  0.65864270000E+03 0.  0.
    8880022    1    1    2    0    0 -0.45626088708E+03  0.49048652821E+03  0.18554302180E+04  0.19785762503E+04  0.15294330000E+03 0.  0.
<mgrwt>
<rscale>  0 0.86878733E+03</rscale>
<asrwt>0</asrwt>
<pdfrwt beam="1">  1        2 0.49891863E+00 0.93944730E+03</pdfrwt>
<pdfrwt beam="2">  1       -2 0.35072682E-01 0.93944730E+03</pdfrwt>
<totfact> 0.96254312E+00</totfact>
</mgrwt>
</event>
<event>
 4    1  0.6502538E-008  0.8329944E+03  0.7818608E-02  0.9643534E-01
          2   -1    0    0  501    0  0.00000000000E+00  0.00000000000E+00  0.25091813036E+04  0.25091813036E+04  0.25500000000E-02 0. -1.
         -2   -1    0    0    0  501 -0.00000000000E+00 -0.00000000000E+00 -0.29408659242E+03  0.29408659244E+03  0.25500000000E-02 0.  1.
    8880023    1    1    2    0    0 -0.38732740612E+03  0.33173313794E+03  0.20991389043E+04  0.22583763504E+04  0.65864270000E+03 0. -1.
    8880022    1    1    2    0    0  0.38732740612E+03 -0.33173313794E+03  0.11595580690E+03  0.54489154564E+03  0.15294330000E+03 0.  0.
<mgrwt>
<rscale>  0 0.74480609E+03</rscale>
<asrwt>0</asrwt>
<pdfrwt beam="1">  1        2 0.38602791E+00 0.83299436E+03</pdfrwt>
<pdfrwt beam="2">  1       -2 0.45244089E-01 0.83299436E+03</pdfrwt>
<totfact> 0.16473409E+01</totfact>
</mgrwt>
</event>
<event>
 4    1  0.6502538E-008  0.1133059E+04  0.7818608E-02  0.9225112E-01
          2   -1    0    0  501    0  0.00000000000E+00  0.00000000000E+00  0.21631335743E+04  0.21631335743E+04  0.25500000000E-02 0. -1.
         -2   -1    0    0    0  501 -0.00000000000E+00 -0.00000000000E+00 -0.61787229068E+03  0.61787229069E+03  0.25500000000E-02 0.  1.
    8880023    1    1    2    0    0  0.89895475490E+03 -0.20467935155E+03  0.14520431956E+04  0.18418069759E+04  0.65864270000E+03 0.  0.
    8880022    1    1    2    0    0 -0.89895475490E+03  0.20467935155E+03  0.93218087995E+02  0.93919888908E+03  0.15294330000E+03 0.  0.
<mgrwt>
<rscale>  0 0.10797953E+04</rscale>
<asrwt>0</asrwt>
<pdfrwt beam="1">  1        2 0.33278979E+00 0.11330594E+04</pdfrwt>
<pdfrwt beam="2">  1       -2 0.95057274E-01 0.11330594E+04</pdfrwt>
<totfact> 0.49791585E+00</totfact>
</mgrwt>
</event>
<event>
 4    1  0.6502538E-008  0.1165303E+04  0.7818608E-02  0.9191611E-01
          2   -1    0    0  501    0  0.00000000000E+00  0.00000000000E+00  0.19905742434E+04  0.19905742434E+04  0.25500000000E-02 0. -1.
         -2   -1    0    0    0  501 -0.00000000000E+00 -0.00000000000E+00 -0.19852459584E+04  0.19852459585E+04  0.25500000000E-02 0.  1.
    8880023    1    1    2    0    0  0.16511589054E+03  0.94702580293E+03 -0.16711025461E+04  0.20372812900E+04  0.65864270000E+03 0.  1.
    8880022    1    1    2    0    0 -0.16511589054E+03 -0.94702580293E+03  0.16764308310E+04  0.19385389118E+04  0.15294330000E+03 0.  0.
<mgrwt>
<rscale>  0 0.11140439E+04</rscale>
<asrwt>0</asrwt>
<pdfrwt beam="1">  1        2 0.30624219E+00 0.11653031E+04</pdfrwt>
<pdfrwt beam="2">  1       -2 0.30542246E+00 0.11653031E+04</pdfrwt>
<totfact> 0.19565554E-01</totfact>
</mgrwt>
</event>
<event>
 4    1  0.6502538E-008  0.7759574E+03  0.7818608E-02  0.9765420E-01
         -2   -1    0    0    0  501 -0.00000000000E+00  0.00000000000E+00  0.54819124299E+03  0.54819124300E+03  0.25500000000E-02 0.  1.
          2   -1    0    0  501    0  0.00000000000E+00 -0.00000000000E+00 -0.16534120719E+04  0.16534120719E+04  0.25500000000E-02 0. -1.
    8880023    1    1    2    0    0  0.33685668637E+03  0.23415222491E+03 -0.14498338835E+04  0.16444233602E+04  0.65864270000E+03 0.  0.
    8880022    1    1    2    0    0 -0.33685668637E+03 -0.23415222491E+03  0.34461305454E+03  0.55717995474E+03  0.15294330000E+03 0.  0.
<mgrwt>
<rscale>  0 0.67251771E+03</rscale>
<asrwt>0</asrwt>
<pdfrwt beam="1">  1        2 0.25437109E+00 0.77595741E+03</pdfrwt>
<pdfrwt beam="2">  1       -2 0.84337115E-01 0.77595741E+03</pdfrwt>
<totfact> 0.13074697E+01</totfact>
</mgrwt>
</event>
<event>
 4    1  0.6502538E-008  0.7083271E+03  0.7818608E-02  0.9964266E-01
          2   -1    0    0  501    0  0.00000000000E+00  0.00000000000E+00  0.67962368866E+03  0.67962368866E+03  0.25500000000E-02 0. -1.
         -2   -1    0    0    0  501 -0.00000000000E+00 -0.00000000000E+00 -0.47399671186E+03  0.47399671187E+03  0.25500000000E-02 0.  1.
    8880023    1    1    2    0    0  0.12136185770E+03  0.23062595101E+03  0.38094838330E+03  0.80426917558E+03  0.65864270000E+03 0. -1.
    8880022    1    1    2    0    0 -0.12136185770E+03 -0.23062595101E+03 -0.17532140650E+03  0.34935122495E+03  0.15294330000E+03 0.  0.
<mgrwt>
<rscale>  0 0.57245241E+03</rscale>
<asrwt>0</asrwt>
<pdfrwt beam="1">  1        2 0.10455749E+00 0.70832707E+03</pdfrwt>
<pdfrwt beam="2">  1       -2 0.72922571E-01 0.70832707E+03</pdfrwt>
<totfact> 0.73369144E+01</totfact>
</mgrwt>
</event>
<event>
 4    1  0.6502538E-008  0.7039990E+03  0.7818608E-02  0.9980999E-01
         -2   -1    0    0    0  501 -0.00000000000E+00  0.00000000000E+00  0.13055721328E+03  0.13055721330E+03  0.25500000000E-02 0.  1.
          2   -1    0    0  501    0  0.00000000000E+00 -0.00000000000E+00 -0.29344081438E+04  0.29344081438E+04  0.25500000000E-02 0. -1.
    8880023    1    1    2    0    0 -0.52385478992E+01 -0.24854964577E+03 -0.26357240896E+04  0.27281231738E+04  0.65864270000E+03 0. -1.
    8880022    1    1    2    0    0  0.52385478992E+01  0.24854964577E+03 -0.16812684096E+03  0.33684218332E+03  0.15294330000E+03 0.  0.
<mgrwt>
<rscale>  0 0.56491283E+03</rscale>
<asrwt>0</asrwt>
<pdfrwt beam="1">  1        2 0.45144735E+00 0.70399899E+03</pdfrwt>
<pdfrwt beam="2">  1       -2 0.20085727E-01 0.70399899E+03</pdfrwt>
<totfact> 0.42999837E+01</totfact>
</mgrwt>
</event>
<event>
 4    1  0.6502538E-008  0.1036750E+04  0.7818608E-02  0.9334982E-01
         -2   -1    0    0    0  501 -0.00000000000E+00  0.00000000000E+00  0.63424030939E+03  0.63424030939E+03  0.25500000000E-02 0.  1.
          2   -1    0    0  501    0  0.00000000000E+00 -0.00000000000E+00 -0.18076854716E+04  0.18076854716E+04  0.25500000000E-02 0. -1.
    8880023    1    1    2    0    0 -0.30586129386E+03 -0.73992486552E+03 -0.12490956776E+04  0.16232960777E+04  0.65864270000E+03 0. -1.
    8880022    1    1    2    0    0  0.30586129386E+03  0.73992486552E+03  0.75650515387E+02  0.81862970334E+03  0.15294330000E+03 0.  0.
<mgrwt>
<rscale>  0 0.97625159E+03</rscale>
<asrwt>0</asrwt>
<pdfrwt beam="1">  1        2 0.27810545E+00 0.10367498E+04</pdfrwt>
<pdfrwt beam="2">  1       -2 0.97575433E-01 0.10367498E+04</pdfrwt>
<totfact> 0.74366788E+00</totfact>
</mgrwt>
</event>
<event>
 4    1  0.6502538E-008  0.7574562E+03  0.7818608E-02  0.9811738E-01
          2   -1    0    0  501    0  0.00000000000E+00  0.00000000000E+00  0.31827081025E+04  0.31827081025E+04  0.25500000000E-02 0. -1.
         -2   -1    0    0    0  501 -0.00000000000E+00 -0.00000000000E+00 -0.26754638214E+03  0.26754638216E+03  0.25500000000E-02 0.  1.
    8880023    1    1    2    0    0  0.13681621392E+03  0.34815377440E+03  0.29489871135E+04  0.30447109762E+04  0.65864270000E+03 0. -1.
    8880022    1    1    2    0    0 -0.13681621392E+03 -0.34815377440E+03 -0.33825393092E+02  0.40554350846E+03  0.15294330000E+03 0.  0.
<mgrwt>
<rscale>  0 0.64736399E+03</rscale>
<asrwt>0</asrwt>
<pdfrwt beam="1">  1        2 0.48964741E+00 0.75745623E+03</pdfrwt>
<pdfrwt beam="2">  1       -2 0.41160981E-01 0.75745623E+03</pdfrwt>
<totfact> 0.79520160E+00</totfact>
</mgrwt>
</event>
<event>
 4    1  0.6502538E-008  0.1464267E+04  0.7818608E-02  0.8935289E-01
          2   -1    0    0  501    0  0.00000000000E+00  0.00000000000E+00  0.23813540888E+04  0.23813540888E+04  0.25500000000E-02 0. -1.
         -2   -1    0    0    0  501 -0.00000000000E+00 -0.00000000000E+00 -0.21555458466E+04  0.21555458466E+04  0.25500000000E-02 0.  1.
    8880023    1    1    2    0    0 -0.63656591372E+03 -0.11423888636E+04  0.19051991973E+04  0.24028863198E+04  0.65864270000E+03 0.  0.
    8880022    1    1    2    0    0  0.63656591372E+03  0.11423888636E+04 -0.16793909551E+04  0.21340136155E+04  0.15294330000E+03 0.  0.
<mgrwt>
<rscale>  0 0.14258892E+04</rscale>
<asrwt>0</asrwt>
<pdfrwt beam="1">  1        2 0.36636217E+00 0.14642673E+04</pdfrwt>
<pdfrwt beam="2">  1       -2 0.33162244E+00 0.14642673E+04</pdfrwt>
<totfact> 0.77964300E-02</totfact>
</mgrwt>
</event>
<event>
 4    1  0.6502538E-008  0.6908019E+03  0.7818608E-02  0.1003774E+00
         -2   -1    0    0    0  501 -0.00000000000E+00  0.00000000000E+00  0.26289320858E+03  0.26289320859E+03  0.25500000000E-02 0.  1.
          2   -1    0    0  501    0  0.00000000000E+00 -0.00000000000E+00 -0.91821068278E+03  0.91821068278E+03  0.25500000000E-02 0. -1.
    8880023    1    1    2    0    0 -0.36204847673E+01  0.20828807063E+03 -0.60401033407E+03  0.91762504227E+03  0.65864270000E+03 0.  0.
    8880022    1    1    2    0    0  0.36204847673E+01 -0.20828807063E+03 -0.51307140134E+02  0.26347884910E+03  0.15294330000E+03 0.  0.
<mgrwt>
<rscale>  0 0.54026022E+03</rscale>
<asrwt>0</asrwt>
<pdfrwt beam="1">  1        2 0.14126318E+00 0.69080188E+03</pdfrwt>
<pdfrwt beam="2">  1       -2 0.40445109E-01 0.69080188E+03</pdfrwt>
<totfact> 0.16735044E+02</totfact>
</mgrwt>
</event>
<event>
 4    1  0.6502538E-008  0.7879539E+03  0.7818608E-02  0.9737474E-01
         -2   -1    0    0    0  501 -0.00000000000E+00  0.00000000000E+00  0.72236649632E+03  0.72236649632E+03  0.25500000000E-02 0.  1.
          2   -1    0    0  501    0  0.00000000000E+00 -0.00000000000E+00 -0.23809710932E+04  0.23809710932E+04  0.25500000000E-02 0. -1.
    8880023    1    1    2    0    0 -0.40180892993E+03 -0.16003342374E+03 -0.22331657912E+04  0.23681006673E+04  0.65864270000E+03 0.  0.
    8880022    1    1    2    0    0  0.40180892993E+03  0.16003342374E+03  0.57456119431E+03  0.73523692230E+03  0.15294330000E+03 0.  0.
<mgrwt>
<rscale>  0 0.68828757E+03</rscale>
<asrwt>0</asrwt>
<pdfrwt beam="1">  1        2 0.36630324E+00 0.78795388E+03</pdfrwt>
<pdfrwt beam="2">  1       -2 0.11113331E+00 0.78795388E+03</pdfrwt>
<totfact> 0.27162615E+00</totfact>
</mgrwt>
</event>
<event>
 4    1  0.6502538E-008  0.6765443E+03  0.7818608E-02  0.1011350E+00
          2   -1    0    0  501    0  0.00000000000E+00  0.00000000000E+00  0.90632181728E+03  0.90632181728E+03  0.25500000000E-02 0. -1.
         -2   -1    0    0    0  501 -0.00000000000E+00 -0.00000000000E+00 -0.80708216520E+03  0.80708216520E+03  0.25500000000E-02 0.  1.
    8880023    1    1    2    0    0  0.68443392617E+02  0.13862736573E+03  0.76016106702E+03  0.10176232597E+04  0.65864270000E+03 0. -1.
    8880022    1    1    2    0    0 -0.68443392617E+02 -0.13862736573E+03 -0.66092141494E+03  0.69578072283E+03  0.15294330000E+03 0.  0.
<mgrwt>
<rscale>  0 0.50941603E+03</rscale>
<asrwt>0</asrwt>
<pdfrwt beam="1">  1        2 0.13943413E+00 0.67654435E+03</pdfrwt>
<pdfrwt beam="2">  1       -2 0.12416649E+00 0.67654435E+03</pdfrwt>
<totfact> 0.14504001E+01</totfact>
</mgrwt>
</event>
<event>
 4    1  0.6502538E-008  0.9980045E+03  0.7818608E-02  0.9384173E-01
         -2   -1    0    0    0  501 -0.00000000000E+00  0.00000000000E+00  0.41151742024E+03  0.41151742025E+03  0.25500000000E-02 0.  1.
          2   -1    0    0  501    0  0.00000000000E+00 -0.00000000000E+00 -0.28782918509E+04  0.28782918509E+04  0.25500000000E-02 0. -1.
    8880023    1    1    2    0    0 -0.36484648956E+03 -0.65504944081E+03 -0.22991664748E+04  0.25064276204E+04  0.65864270000E+03 0. -1.
    8880022    1    1    2    0    0  0.36484648956E+03  0.65504944081E+03 -0.16760795577E+03  0.78338165073E+03  0.15294330000E+03 0.  0.
<mgrwt>
<rscale>  0 0.93389700E+03</rscale>
<asrwt>0</asrwt>
<pdfrwt beam="1">  1        2 0.44281412E+00 0.99800448E+03</pdfrwt>
<pdfrwt beam="2">  1       -2 0.63310374E-01 0.99800448E+03</pdfrwt>
<totfact> 0.48812466E+00</totfact>
</mgrwt>
</event>
<event>
 4    1  0.6502538E-008  0.9864325E+03  0.7818608E-02  0.9399527E-01
         -2   -1    0    0    0  501 -0.00000000000E+00  0.00000000000E+00  0.62043417416E+03  0.62043417416E+03  0.25500000000E-02 0.  1.
          2   -1    0    0  501    0  0.00000000000E+00 -0.00000000000E+00 -0.20369387489E+04  0.20369387489E+04  0.25500000000E-02 0. -1.
    8880023    1    1    2    0    0  0.72715586377E+03  0.10238773898E+03 -0.16050598136E+04  0.18839496041E+04  0.65864270000E+03 0.  0.
    8880022    1    1    2    0    0 -0.72715586377E+03 -0.10238773898E+03  0.18855523879E+03  0.77342331902E+03  0.15294330000E+03 0.  0.
<mgrwt>
<rscale>  0 0.92114595E+03</rscale>
<asrwt>0</asrwt>
<pdfrwt beam="1">  1        2 0.31337519E+00 0.98643251E+03</pdfrwt>
<pdfrwt beam="2">  1       -2 0.95451413E-01 0.98643251E+03</pdfrwt>
<totfact> 0.58910375E+00</totfact>
</mgrwt>
</event>
<event>
 4    1  0.6502538E-008  0.7312901E+03  0.7818608E-02  0.9886086E-01
         -2   -1    0    0    0  501 -0.00000000000E+00  0.00000000000E+00  0.48426697103E+03  0.48426697104E+03  0.25500000000E-02 0.  1.
          2   -1    0    0  501    0  0.00000000000E+00 -0.00000000000E+00 -0.14795773588E+04  0.14795773588E+04  0.25500000000E-02 0. -1.
    8880023    1    1    2    0    0 -0.27103401300E+03 -0.16587817408E+03 -0.13040723366E+04  0.14951220252E+04  0.65864270000E+03 0. -1.
    8880022    1    1    2    0    0  0.27103401300E+03  0.16587817408E+03  0.30876194882E+03  0.46872230467E+03  0.15294330000E+03 0.  0.
<mgrwt>
<rscale>  0 0.60940395E+03</rscale>
<asrwt>0</asrwt>
<pdfrwt beam="1">  1        2 0.22762728E+00 0.73129010E+03</pdfrwt>
<pdfrwt beam="2">  1       -2 0.74502612E-01 0.73129010E+03</pdfrwt>
<totfact> 0.21671258E+01</totfact>
</mgrwt>
</event>
<event>
 4    1  0.6502538E-008  0.7491281E+03  0.7818608E-02  0.9834113E-01
          2   -1    0    0  501    0  0.00000000000E+00  0.00000000000E+00  0.11385649838E+04  0.11385649838E+04  0.25500000000E-02 0. -1.
         -2   -1    0    0    0  501 -0.00000000000E+00 -0.00000000000E+00 -0.53418789132E+03  0.53418789133E+03  0.25500000000E-02 0.  1.
    8880023    1    1    2    0    0 -0.10983065703E+02  0.35673814296E+03  0.90994584166E+03  0.11786409001E+04  0.65864270000E+03 0.  0.
    8880022    1    1    2    0    0  0.10983065703E+02 -0.35673814296E+03 -0.30556874918E+03  0.49411197503E+03  0.15294330000E+03 0.  0.
<mgrwt>
<rscale>  0 0.63563532E+03</rscale>
<asrwt>0</asrwt>
<pdfrwt beam="1">  1        2 0.17516384E+00 0.74912812E+03</pdfrwt>
<pdfrwt beam="2">  1       -2 0.82182754E-01 0.74912812E+03</pdfrwt>
<totfact> 0.27319757E+01</totfact>
</mgrwt>
</event>
<event>
 4    1  0.6502538E-008  0.1140219E+04  0.7818608E-02  0.9217545E-01
         -2   -1    0    0    0  501 -0.00000000000E+00  0.00000000000E+00  0.11802340994E+04  0.11802340994E+04  0.25500000000E-02 0.  1.
          2   -1    0    0  501    0  0.00000000000E+00 -0.00000000000E+00 -0.15026854207E+04  0.15026854207E+04  0.25500000000E-02 0. -1.
    8880023    1    1    2    0    0 -0.88230007636E+03 -0.29637031323E+03 -0.10039799993E+04  0.15192349498E+04  0.65864270000E+03 0. -1.
    8880022    1    1    2    0    0  0.88230007636E+03  0.29637031323E+03  0.68152867800E+03  0.11636845703E+04  0.15294330000E+03 0.  0.
<mgrwt>
<rscale>  0 0.10874152E+04</rscale>
<asrwt>0</asrwt>
<pdfrwt beam="1">  1        2 0.23118237E+00 0.11402188E+04</pdfrwt>
<pdfrwt beam="2">  1       -2 0.18157448E+00 0.11402188E+04</pdfrwt>
<totfact> 0.21847065E+00</totfact>
</mgrwt>
</event>
<event>
 4    1  0.6502538E-008  0.8117095E+03  0.7818608E-02  0.9686027E-01
          2   -1    0    0  501    0  0.00000000000E+00  0.00000000000E+00  0.12049024928E+04  0.12049024928E+04  0.25500000000E-02 0. -1.
         -2   -1    0    0    0  501 -0.00000000000E+00 -0.00000000000E+00 -0.19250239776E+04  0.19250239776E+04  0.25500000000E-02 0.  1.
    8880023    1    1    2    0    0 -0.46481846844E+03 -0.94899659317E+02  0.10293166037E+04  0.13108642306E+04  0.65864270000E+03 0. -1.
    8880022    1    1    2    0    0  0.46481846844E+03  0.94899659317E+02 -0.17494380885E+04  0.18190622399E+04  0.15294330000E+03 0.  0.
<mgrwt>
<rscale>  0 0.71854867E+03</rscale>
<asrwt>0</asrwt>
<pdfrwt beam="1">  1        2 0.18536961E+00 0.81170953E+03</pdfrwt>
<pdfrwt beam="2">  1       -2 0.29615753E+00 0.81170953E+03</pdfrwt>
<totfact> 0.65382339E-01</totfact>
</mgrwt>
</event>
<event>
 4    1  0.6502538E-008  0.1243157E+04  0.7818608E-02  0.9116271E-01
         -2   -1    0    0    0  501 -0.00000000000E+00  0.00000000000E+00  0.13057893097E+04  0.13057893097E+04  0.25500000000E-02 0.  1.
          2   -1    0    0  501    0  0.00000000000E+00 -0.00000000000E+00 -0.23592034797E+04  0.23592034797E+04  0.25500000000E-02 0. -1.
    8880023    1    1    2    0    0 -0.49331968039E+03  0.93180670726E+03 -0.19229619551E+04  0.22898080561E+04  0.65864270000E+03 0.  0.
    8880022    1    1    2    0    0  0.49331968039E+03 -0.93180670726E+03  0.86954778513E+03  0.13751847332E+04  0.15294330000E+03 0.  0.
<mgrwt>
<rscale>  0 0.11961064E+04</rscale>
<asrwt>0</asrwt>
<pdfrwt beam="1">  1        2 0.36295438E+00 0.12431566E+04</pdfrwt>
<pdfrwt beam="2">  1       -2 0.20089066E+00 0.12431566E+04</pdfrwt>
<totfact> 0.53316885E-01</totfact>
</mgrwt>
</event>
<event>
 4    1  0.6502538E-008  0.6768817E+03  0.7818608E-02  0.1011146E+00
          2   -1    0    0  501    0  0.00000000000E+00  0.00000000000E+00  0.11265371755E+04  0.11265371755E+04  0.25500000000E-02 0. -1.
         -2   -1    0    0    0  501 -0.00000000000E+00 -0.00000000000E+00 -0.12204444572E+04  0.12204444572E+04  0.25500000000E-02 0.  1.
    8880023    1    1    2    0    0 -0.12088182028E+03  0.98722909832E+02  0.10132081202E+04  0.12185070900E+04  0.65864270000E+03 0. -1.
    8880022    1    1    2    0    0  0.12088182028E+03 -0.98722909832E+02 -0.11071154019E+04  0.11284745427E+04  0.15294330000E+03 0.  0.
<mgrwt>
<rscale>  0 0.51021893E+03</rscale>
<asrwt>0</asrwt>
<pdfrwt beam="1">  1        2 0.17331341E+00 0.67688170E+03</pdfrwt>
<pdfrwt beam="2">  1       -2 0.18776069E+00 0.67688170E+03</pdfrwt>
<totfact> 0.34888326E+00</totfact>
</mgrwt>
</event>
<event>
 4    1  0.6502538E-008  0.7808543E+03  0.7818608E-02  0.9753834E-01
         -2   -1    0    0    0  501 -0.00000000000E+00  0.00000000000E+00  0.86233258905E+03  0.86233258906E+03  0.25500000000E-02 0.  1.
          2   -1    0    0  501    0  0.00000000000E+00 -0.00000000000E+00 -0.44966393067E+03  0.44966393068E+03  0.25500000000E-02 0. -1.
    8880023    1    1    2    0    0 -0.51151051319E+02  0.41630130843E+03  0.15357248319E+03  0.79581274387E+03  0.65864270000E+03 0. -1.
    8880022    1    1    2    0    0  0.51151051319E+02 -0.41630130843E+03  0.25909617519E+03  0.51618377586E+03  0.15294330000E+03 0.  1.
<mgrwt>
<rscale>  0 0.67900029E+03</rscale>
<asrwt>0</asrwt>
<pdfrwt beam="1">  1        2 0.69179067E-01 0.78085429E+03</pdfrwt>
<pdfrwt beam="2">  1       -2 0.13266655E+00 0.78085429E+03</pdfrwt>
<totfact> 0.28996148E+01</totfact>
</mgrwt>
</event>
<event>
 4    1  0.6502538E-008  0.7214271E+03  0.7818608E-02  0.9917786E-01
          2   -1    0    0  501    0  0.00000000000E+00  0.00000000000E+00  0.15676393501E+04  0.15676393501E+04  0.25500000000E-02 0. -1.
         -2   -1    0    0    0  501 -0.00000000000E+00 -0.00000000000E+00 -0.49839762826E+03  0.49839762826E+03  0.25500000000E-02 0.  1.
    8880023    1    1    2    0    0 -0.27255573632E+03 -0.11117647362E+03  0.14141246813E+04  0.15875155616E+04  0.65864270000E+03 0.  0.
    8880022    1    1    2    0    0  0.27255573632E+03  0.11117647362E+03 -0.34488295940E+03  0.47852141685E+03  0.15294330000E+03 0.  0.
<mgrwt>
<rscale>  0 0.59406971E+03</rscale>
<asrwt>0</asrwt>
<pdfrwt beam="1">  1        2 0.24117528E+00 0.72142709E+03</pdfrwt>
<pdfrwt beam="2">  1       -2 0.76676560E-01 0.72142709E+03</pdfrwt>
<totfact> 0.18190379E+01</totfact>
</mgrwt>
</event>
<event>
 4    1  0.6502538E-008  0.9037101E+03  0.7818608E-02  0.9520102E-01
          2   -1    0    0  501    0  0.00000000000E+00  0.00000000000E+00  0.43512891985E+04  0.43512891985E+04  0.25500000000E-02 0. -1.
         -2   -1    0    0    0  501 -0.00000000000E+00 -0.00000000000E+00 -0.60370922108E+03  0.60370922109E+03  0.25500000000E-02 0.  1.
    8880023    1    1    2    0    0 -0.47623449295E+03 -0.39507279564E+03  0.41192090418E+04  0.42171762048E+04  0.65864270000E+03 0. -1.
    8880022    1    1    2    0    0  0.47623449295E+03  0.39507279564E+03 -0.37162906437E+03  0.73782221479E+03  0.15294330000E+03 0.  0.
<mgrwt>
<rscale>  0 0.82817892E+03</rscale>
<asrwt>0</asrwt>
<pdfrwt beam="1">  1        2 0.66942910E+00 0.90371014E+03</pdfrwt>
<pdfrwt beam="2">  1       -2 0.92878342E-01 0.90371014E+03</pdfrwt>
<totfact> 0.18238440E-01</totfact>
</mgrwt>
</event>
<event>
 4    1  0.6502538E-008  0.8658866E+03  0.7818608E-02  0.9583177E-01
         -2   -1    0    0    0  501 -0.00000000000E+00  0.00000000000E+00  0.49269433185E+03  0.49269433185E+03  0.25500000000E-02 0.  1.
          2   -1    0    0  501    0  0.00000000000E+00 -0.00000000000E+00 -0.14178148079E+04  0.14178148079E+04  0.25500000000E-02 0. -1.
    8880023    1    1    2    0    0  0.20403719886E+03 -0.52375390267E+03 -0.10004544475E+04  0.13231283524E+04  0.65864270000E+03 0. -1.
    8880022    1    1    2    0    0 -0.20403719886E+03  0.52375390267E+03  0.75333971487E+02  0.58738078735E+03  0.15294330000E+03 0.  0.
<mgrwt>
<rscale>  0 0.78419720E+03</rscale>
<asrwt>0</asrwt>
<pdfrwt beam="1">  1        2 0.21812535E+00 0.86588656E+03</pdfrwt>
<pdfrwt beam="2">  1       -2 0.75799128E-01 0.86588656E+03</pdfrwt>
<totfact> 0.22256148E+01</totfact>
</mgrwt>
</event>
<event>
 4    1  0.6502538E-008  0.9600121E+03  0.7818608E-02  0.9435853E-01
         -2   -1    0    0    0  501 -0.00000000000E+00  0.00000000000E+00  0.39347944136E+03  0.39347944137E+03  0.25500000000E-02 0.  1.
          2   -1    0    0  501    0  0.00000000000E+00 -0.00000000000E+00 -0.31417525695E+04  0.31417525695E+04  0.25500000000E-02 0. -1.
    8880023    1    1    2    0    0 -0.66045167456E+03 -0.22719282593E+03 -0.26437373518E+04  0.28126447316E+04  0.65864270000E+03 0.  0.
    8880022    1    1    2    0    0  0.66045167456E+03  0.22719282593E+03 -0.10453577631E+03  0.72258727925E+03  0.15294330000E+03 0.  0.
<mgrwt>
<rscale>  0 0.89182958E+03</rscale>
<asrwt>0</asrwt>
<pdfrwt beam="1">  1        2 0.48334653E+00 0.96001208E+03</pdfrwt>
<pdfrwt beam="2">  1       -2 0.60535301E-01 0.96001208E+03</pdfrwt>
<totfact> 0.37131300E+00</totfact>
</mgrwt>
</event>
<event>
 4    1  0.6502538E-008  0.8527469E+03  0.7818608E-02  0.9606598E-01
          2   -1    0    0  501    0  0.00000000000E+00  0.00000000000E+00  0.11873147331E+04  0.11873147331E+04  0.25500000000E-02 0. -1.
         -2   -1    0    0    0  501 -0.00000000000E+00 -0.00000000000E+00 -0.80129310408E+03  0.80129310408E+03  0.25500000000E-02 0.  1.
    8880023    1    1    2    0    0  0.34464951493E+03  0.41783224589E+03  0.89038597173E+03  0.12328683866E+04  0.65864270000E+03 0. -1.
    8880022    1    1    2    0    0 -0.34464951493E+03 -0.41783224589E+03 -0.50436434273E+03  0.75573945052E+03  0.15294330000E+03 0.  0.
<mgrwt>
<rscale>  0 0.76861028E+03</rscale>
<asrwt>0</asrwt>
<pdfrwt beam="1">  1        2 0.18266380E+00 0.85274690E+03</pdfrwt>
<pdfrwt beam="2">  1       -2 0.12327586E+00 0.85274690E+03</pdfrwt>
<totfact> 0.96408446E+00</totfact>
</mgrwt>
</event>
<event>
 4    1  0.6502538E-008  0.8143259E+03  0.7818608E-02  0.9680636E-01
          2   -1    0    0  501    0  0.00000000000E+00  0.00000000000E+00  0.21757690031E+04  0.21757690031E+04  0.25500000000E-02 0. -1.
         -2   -1    0    0    0  501 -0.00000000000E+00 -0.00000000000E+00 -0.45793028182E+03  0.45793028183E+03  0.25500000000E-02 0.  1.
    8880023    1    1    2    0    0 -0.21685707431E+03 -0.42695367741E+03  0.19248696857E+04  0.20900358720E+04  0.65864270000E+03 0. -1.
    8880022    1    1    2    0    0  0.21685707431E+03  0.42695367741E+03 -0.20703096436E+03  0.54366341292E+03  0.15294330000E+03 0.  0.
<mgrwt>
<rscale>  0 0.72181528E+03</rscale>
<asrwt>0</asrwt>
<pdfrwt beam="1">  1        2 0.33473368E+00 0.81432588E+03</pdfrwt>
<pdfrwt beam="2">  1       -2 0.70450814E-01 0.81432588E+03</pdfrwt>
<totfact> 0.10057960E+01</totfact>
</mgrwt>
</event>
<event>
 4    1  0.6502538E-008  0.9540492E+03  0.7818608E-02  0.9444312E-01
          2   -1    0    0  501    0  0.00000000000E+00  0.00000000000E+00  0.24217691314E+04  0.24217691315E+04  0.25500000000E-02 0. -1.
         -2   -1    0    0    0  501 -0.00000000000E+00 -0.00000000000E+00 -0.65800471625E+03  0.65800471625E+03  0.25500000000E-02 0.  1.
    8880023    1    1    2    0    0  0.51268732180E+03  0.46211613012E+03  0.20927924104E+04  0.22999978015E+04  0.65864270000E+03 0. -1.
    8880022    1    1    2    0    0 -0.51268732180E+03 -0.46211613012E+03 -0.32902799517E+03  0.77977604623E+03  0.15294330000E+03 0.  0.
<mgrwt>
<rscale>  0 0.88516993E+03</rscale>
<asrwt>0</asrwt>
<pdfrwt beam="1">  1        2 0.37257986E+00 0.95404917E+03</pdfrwt>
<pdfrwt beam="2">  1       -2 0.10123150E+00 0.95404917E+03</pdfrwt>
<totfact> 0.31411753E+00</totfact>
</mgrwt>
</event>
<event>
 4    1  0.6502538E-008  0.1313165E+04  0.7818608E-02  0.9054274E-01
          2   -1    0    0  501    0  0.00000000000E+00  0.00000000000E+00  0.10687999687E+04  0.10687999687E+04  0.25500000000E-02 0. -1.
         -2   -1    0    0    0  501 -0.00000000000E+00 -0.00000000000E+00 -0.16886446993E+04  0.16886446993E+04  0.25500000000E-02 0.  1.
    8880023    1    1    2    0    0  0.46952931029E+03 -0.10344729358E+04 -0.88159486013E+03  0.15816484223E+04  0.65864270000E+03 0. -1.
    8880022    1    1    2    0    0 -0.46952931029E+03  0.10344729358E+04  0.26175012955E+03  0.11757962457E+04  0.15294330000E+03 0.  0.
<mgrwt>
<rscale>  0 0.12692969E+04</rscale>
<asrwt>0</asrwt>
<pdfrwt beam="1">  1        2 0.16443076E+00 0.13131650E+04</pdfrwt>
<pdfrwt beam="2">  1       -2 0.25979149E+00 0.13131650E+04</pdfrwt>
<totfact> 0.12273096E+00</totfact>
</mgrwt>
</event>
<event>
 4    1  0.6502538E-008  0.1398790E+04  0.7818608E-02  0.8984623E-01
         -2   -1    0    0    0  501 -0.00000000000E+00  0.00000000000E+00  0.12963170067E+04  0.12963170067E+04  0.25500000000E-02 0.  1.
          2   -1    0    0  501    0  0.00000000000E+00 -0.00000000000E+00 -0.23587861643E+04  0.23587861644E+04  0.25500000000E-02 0. -1.
    8880023    1    1    2    0    0 -0.53283531020E+03  0.11130546300E+04 -0.17451611362E+04  0.22365602328E+04  0.65864270000E+03 0. -1.
    8880022    1    1    2    0    0  0.53283531020E+03 -0.11130546300E+04  0.68269197852E+03  0.14185429383E+04  0.15294330000E+03 0.  0.
<mgrwt>
<rscale>  0 0.13582275E+04</rscale>
<asrwt>0</asrwt>
<pdfrwt beam="1">  1        2 0.36289018E+00 0.13987903E+04</pdfrwt>
<pdfrwt beam="2">  1       -2 0.19943339E+00 0.13987903E+04</pdfrwt>
<totfact> 0.53497986E-01</totfact>
</mgrwt>
</event>
<event>
 4    1  0.6502538E-008  0.7587795E+03  0.7818608E-02  0.9808278E-01
          2   -1    0    0  501    0  0.00000000000E+00  0.00000000000E+00  0.11988105343E+04  0.11988105343E+04  0.25500000000E-02 0. -1.
         -2   -1    0    0    0  501 -0.00000000000E+00 -0.00000000000E+00 -0.66849266846E+03  0.66849266847E+03  0.25500000000E-02 0.  1.
    8880023    1    1    2    0    0  0.30385224312E+03  0.22273272917E+03  0.99405323730E+03  0.12505551164E+04  0.65864270000E+03 0. -1.
    8880022    1    1    2    0    0 -0.30385224312E+03 -0.22273272917E+03 -0.46373537146E+03  0.61674808638E+03  0.15294330000E+03 0.  0.
<mgrwt>
<rscale>  0 0.64920204E+03</rscale>
<asrwt>0</asrwt>
<pdfrwt beam="1">  1        2 0.18443239E+00 0.75877945E+03</pdfrwt>
<pdfrwt beam="2">  1       -2 0.10284503E+00 0.75877945E+03</pdfrwt>
<totfact> 0.14925456E+01</totfact>
</mgrwt>
</event>
<event>
 4    1  0.6502538E-008  0.1147185E+04  0.7818608E-02  0.9210255E-01
         -2   -1    0    0    0  501 -0.00000000000E+00  0.00000000000E+00  0.10535537531E+04  0.10535537531E+04  0.25500000000E-02 0.  1.
          2   -1    0    0  501    0  0.00000000000E+00 -0.00000000000E+00 -0.15270623636E+04  0.15270623636E+04  0.25500000000E-02 0. -1.
    8880023    1    1    2    0    0 -0.90748215539E+03 -0.24227992349E+03 -0.97444644358E+03  0.15051842084E+04  0.65864270000E+03 0.  0.
    8880022    1    1    2    0    0  0.90748215539E+03  0.24227992349E+03  0.50093783303E+03  0.10754319082E+04  0.15294330000E+03 0.  0.
<mgrwt>
<rscale>  0 0.10948209E+04</rscale>
<asrwt>0</asrwt>
<pdfrwt beam="1">  1        2 0.23493267E+00 0.11471851E+04</pdfrwt>
<pdfrwt beam="2">  1       -2 0.16208519E+00 0.11471851E+04</pdfrwt>
<totfact> 0.29095634E+00</totfact>
</mgrwt>
</event>
<event>
 4    1  0.6502538E-008  0.7604291E+03  0.7818608E-02  0.9803998E-01
         -2   -1    0    0    0  501 -0.00000000000E+00  0.00000000000E+00  0.49721782365E+03  0.49721782365E+03  0.25500000000E-02 0.  1.
          2   -1    0    0  501    0  0.00000000000E+00 -0.00000000000E+00 -0.17801651932E+04  0.17801651932E+04  0.25500000000E-02 0. -1.
    8880023    1    1    2    0    0 -0.37966998741E+03 -0.17115154665E+02 -0.15919467901E+04  0.17642412013E+04  0.65864270000E+03 0. -1.
    8880022    1    1    2    0    0  0.37966998741E+03  0.17115154665E+02  0.30899942056E+03  0.51314181547E+03  0.15294330000E+03 0.  0.
<mgrwt>
<rscale>  0 0.65148438E+03</rscale>
<asrwt>0</asrwt>
<pdfrwt beam="1">  1        2 0.27387156E+00 0.76042911E+03</pdfrwt>
<pdfrwt beam="2">  1       -2 0.76495051E-01 0.76042911E+03</pdfrwt>
<totfact> 0.13910774E+01</totfact>
</mgrwt>
</event>
<event>
 4    1  0.6502538E-008  0.9834104E+03  0.7818608E-02  0.9403591E-01
          2   -1    0    0  501    0  0.00000000000E+00  0.00000000000E+00  0.22453565412E+04  0.22453565412E+04  0.25500000000E-02 0. -1.
         -2   -1    0    0    0  501 -0.00000000000E+00 -0.00000000000E+00 -0.48368717897E+03  0.48368717898E+03  0.25500000000E-02 0.  1.
    8880023    1    1    2    0    0 -0.72003657042E+03  0.12179125295E+03  0.17205984270E+04  0.19818059757E+04  0.65864270000E+03 0.  0.
    8880022    1    1    2    0    0  0.72003657042E+03 -0.12179125295E+03  0.41070935236E+02  0.74723774448E+03  0.15294330000E+03 0.  0.
<mgrwt>
<rscale>  0 0.91780737E+03</rscale>
<asrwt>0</asrwt>
<pdfrwt beam="1">  1        2 0.34543946E+00 0.98341038E+03</pdfrwt>
<pdfrwt beam="2">  1       -2 0.74413413E-01 0.98341038E+03</pdfrwt>
<totfact> 0.79759302E+00</totfact>
</mgrwt>
</event>
<event>
 4    1  0.6502538E-008  0.7358848E+03  0.7818608E-02  0.9872101E-01
         -2   -1    0    0    0  501 -0.00000000000E+00  0.00000000000E+00  0.90614753048E+03  0.90614753048E+03  0.25500000000E-02 0.  1.
          2   -1    0    0  501    0  0.00000000000E+00 -0.00000000000E+00 -0.80773566227E+03  0.80773566227E+03  0.25500000000E-02 0. -1.
    8880023    1    1    2    0    0 -0.15146442997E+03  0.29116109520E+03 -0.58526213511E+03  0.94024370775E+03  0.65864270000E+03 0.  0.
    8880022    1    1    2    0    0  0.15146442997E+03 -0.29116109520E+03  0.68367400333E+03  0.77363948500E+03  0.15294330000E+03 0.  0.
<mgrwt>
<rscale>  0 0.61632672E+03</rscale>
<asrwt>0</asrwt>
<pdfrwt beam="1">  1        2 0.12426702E+00 0.73588482E+03</pdfrwt>
<pdfrwt beam="2">  1       -2 0.13940731E+00 0.73588482E+03</pdfrwt>
<totfact> 0.12560693E+01</totfact>
</mgrwt>
</event>
<event>
 4    1  0.6502538E-008  0.6615323E+03  0.7818608E-02  0.1022639E+00
         -2   -1    0    0    0  501 -0.00000000000E+00  0.00000000000E+00  0.70572469071E+03  0.70572469072E+03  0.25500000000E-02 0.  1.
          2   -1    0    0  501    0  0.00000000000E+00 -0.00000000000E+00 -0.98841827051E+03  0.98841827051E+03  0.25500000000E-02 0. -1.
    8880023    1    1    2    0    0 -0.34073476494E+02  0.51514672415E+02 -0.86497661947E+03  0.10889488150E+04  0.65864270000E+03 0. -1.
    8880022    1    1    2    0    0  0.34073476494E+02 -0.51514672415E+02  0.58228303968E+03  0.60519414619E+03  0.15294330000E+03 0.  0.
<mgrwt>
<rscale>  0 0.46746296E+03</rscale>
<asrwt>0</asrwt>
<pdfrwt beam="1">  1        2 0.15206435E+00 0.66153229E+03</pdfrwt>
<pdfrwt beam="2">  1       -2 0.10857303E+00 0.66153229E+03</pdfrwt>
<totfact> 0.17843272E+01</totfact>
</mgrwt>
</event>
<event>
 4    1  0.6502538E-008  0.1124874E+04  0.7818608E-02  0.9233854E-01
         -2   -1    0    0    0  501 -0.00000000000E+00  0.00000000000E+00  0.71030227596E+03  0.71030227597E+03  0.25500000000E-02 0.  1.
          2   -1    0    0  501    0  0.00000000000E+00 -0.00000000000E+00 -0.17652061163E+04  0.17652061163E+04  0.25500000000E-02 0. -1.
    8880023    1    1    2    0    0 -0.84894079715E+03  0.33291399844E+03 -0.10675400273E+04  0.15508011231E+04  0.65864270000E+03 0.  0.
    8880022    1    1    2    0    0  0.84894079715E+03 -0.33291399844E+03  0.12636186912E+02  0.92470726917E+03  0.15294330000E+03 0.  0.
<mgrwt>
<rscale>  0 0.10710727E+04</rscale>
<asrwt>0</asrwt>
<pdfrwt beam="1">  1        2 0.27157017E+00 0.11248744E+04</pdfrwt>
<pdfrwt beam="2">  1       -2 0.10927727E+00 0.11248744E+04</pdfrwt>
<totfact> 0.59251677E+00</totfact>
</mgrwt>
</event>
<event>
 4    1  0.6502538E-008  0.1551586E+04  0.7818608E-02  0.8874043E-01
         -2   -1    0    0    0  501 -0.00000000000E+00  0.00000000000E+00  0.86458311169E+03  0.86458311169E+03  0.25500000000E-02 0.  1.
          2   -1    0    0  501    0  0.00000000000E+00 -0.00000000000E+00 -0.26780544888E+04  0.26780544888E+04  0.25500000000E-02 0. -1.
    8880023    1    1    2    0    0 -0.13930479128E+04 -0.18172920631E+03 -0.13463489470E+04  0.20542817931E+04  0.65864270000E+03 0. -1.
    8880022    1    1    2    0    0  0.13930479128E+04  0.18172920631E+03 -0.46712243008E+03  0.14883558074E+04  0.15294330000E+03 0.  0.
<mgrwt>
<rscale>  0 0.15157552E+04</rscale>
<asrwt>0</asrwt>
<pdfrwt beam="1">  1        2 0.41200838E+00 0.15515857E+04</pdfrwt>
<pdfrwt beam="2">  1       -2 0.13301279E+00 0.15515857E+04</pdfrwt>
<totfact> 0.10577180E+00</totfact>
</mgrwt>
</event>
<event>
 4    1  0.6502538E-008  0.1080187E+04  0.7818608E-02  0.9283442E-01
         -2   -1    0    0    0  501 -0.00000000000E+00  0.00000000000E+00  0.59409993644E+03  0.59409993645E+03  0.25500000000E-02 0.  1.
          2   -1    0    0  501    0  0.00000000000E+00 -0.00000000000E+00 -0.29888906614E+04  0.29888906614E+04  0.25500000000E-02 0. -1.
    8880023    1    1    2    0    0 -0.49840030671E+03  0.69612637129E+03 -0.24840210995E+04  0.27087203288E+04  0.65864270000E+03 0.  0.
    8880022    1    1    2    0    0  0.49840030671E+03 -0.69612637129E+03  0.89230374584E+02  0.87427026902E+03  0.15294330000E+03 0.  0.
<mgrwt>
<rscale>  0 0.10232160E+04</rscale>
<asrwt>0</asrwt>
<pdfrwt beam="1">  1        2 0.45982932E+00 0.10801875E+04</pdfrwt>
<pdfrwt beam="2">  1       -2 0.91399992E-01 0.10801875E+04</pdfrwt>
<totfact> 0.18183027E+00</totfact>
</mgrwt>
</event>
<event>
 4    1  0.6502538E-008  0.6868284E+03  0.7818608E-02  0.1005698E+00
          2   -1    0    0  501    0  0.00000000000E+00  0.00000000000E+00  0.29560148896E+04  0.29560148896E+04  0.25500000000E-02 0. -1.
         -2   -1    0    0    0  501 -0.00000000000E+00 -0.00000000000E+00 -0.28236514533E+03  0.28236514534E+03  0.25500000000E-02 0.  1.
    8880023    1    1    2    0    0  0.18848144184E+03 -0.48967489337E+02  0.28517956181E+04  0.29333379489E+04  0.65864270000E+03 0. -1.
    8880022    1    1    2    0    0 -0.18848144184E+03  0.48967489337E+02 -0.17814587377E+03  0.30504208609E+03  0.15294330000E+03 0.  0.
<mgrwt>
<rscale>  0 0.53220848E+03</rscale>
<asrwt>0</asrwt>
<pdfrwt beam="1">  1        2 0.45477150E+00 0.68682842E+03</pdfrwt>
<pdfrwt beam="2">  1       -2 0.43440793E-01 0.68682842E+03</pdfrwt>
<totfact> 0.10015333E+01</totfact>
</mgrwt>
</event>
<event>
 4    1  0.6502538E-008  0.1149894E+04  0.7818608E-02  0.9207438E-01
          2   -1    0    0  501    0  0.00000000000E+00  0.00000000000E+00  0.21806443776E+04  0.21806443776E+04  0.25500000000E-02 0. -1.
         -2   -1    0    0    0  501 -0.00000000000E+00 -0.00000000000E+00 -0.13255845221E+04  0.13255845221E+04  0.25500000000E-02 0.  1.
    8880023    1    1    2    0    0  0.84990834259E+03 -0.40755691685E+03  0.18173329634E+04  0.21505711189E+04  0.65864270000E+03 0. -1.
    8880022    1    1    2    0    0 -0.84990834259E+03  0.40755691685E+03 -0.96227310799E+03  0.13556577808E+04  0.15294330000E+03 0.  0.
<mgrwt>
<rscale>  0 0.10976988E+04</rscale>
<asrwt>0</asrwt>
<pdfrwt beam="1">  1        2 0.33548375E+00 0.11498944E+04</pdfrwt>
<pdfrwt beam="2">  1       -2 0.20393608E+00 0.11498944E+04</pdfrwt>
<totfact> 0.64993949E-01</totfact>
</mgrwt>
</event>
<event>
 4    1  0.6502538E-008  0.8589448E+03  0.7818608E-02  0.9595443E-01
          2   -1    0    0  501    0  0.00000000000E+00  0.00000000000E+00  0.37779480869E+04  0.37779480869E+04  0.25500000000E-02 0. -1.
         -2   -1    0    0    0  501 -0.00000000000E+00 -0.00000000000E+00 -0.57098720597E+03  0.57098720598E+03  0.25500000000E-02 0.  1.
    8880023    1    1    2    0    0 -0.13185568630E+03 -0.53534104132E+03  0.35696288642E+04  0.36715169054E+04  0.65864270000E+03 0.  0.
    8880022    1    1    2    0    0  0.13185568630E+03  0.53534104132E+03 -0.36266798328E+03  0.67741838744E+03  0.15294330000E+03 0.  0.
<mgrwt>
<rscale>  0 0.77598513E+03</rscale>
<asrwt>0</asrwt>
<pdfrwt beam="1">  1        2 0.58122277E+00 0.85894479E+03</pdfrwt>
<pdfrwt beam="2">  1       -2 0.87844188E-01 0.85894479E+03</pdfrwt>
<totfact> 0.61256382E-01</totfact>
</mgrwt>
</event>
<event>
 4    1  0.6502538E-008  0.8207711E+03  0.7818608E-02  0.9667563E-01
         -2   -1    0    0    0  501 -0.00000000000E+00  0.00000000000E+00  0.89610609794E+03  0.89610609794E+03  0.25500000000E-02 0.  1.
          2   -1    0    0  501    0  0.00000000000E+00 -0.00000000000E+00 -0.16520907907E+04  0.16520907907E+04  0.25500000000E-02 0. -1.
    8880023    1    1    2    0    0  0.45382240971E+03 -0.18412012233E+03 -0.14612883534E+04  0.16760157688E+04  0.65864270000E+03 0. -1.
    8880022    1    1    2    0    0 -0.45382240971E+03  0.18412012233E+03  0.70530366071E+03  0.87218111985E+03  0.15294330000E+03 0.  0.
<mgrwt>
<rscale>  0 0.72981351E+03</rscale>
<asrwt>0</asrwt>
<pdfrwt beam="1">  1        2 0.25416781E+00 0.82077110E+03</pdfrwt>
<pdfrwt beam="2">  1       -2 0.13786248E+00 0.82077110E+03</pdfrwt>
<totfact> 0.39680101E+00</totfact>
</mgrwt>
</event>
<event>
 4    1  0.6502538E-008  0.7170861E+03  0.7818608E-02  0.9932572E-01
         -2   -1    0    0    0  501 -0.00000000000E+00  0.00000000000E+00  0.27055094840E+03  0.27055094842E+03  0.25500000000E-02 0.  1.
          2   -1    0    0  501    0  0.00000000000E+00 -0.00000000000E+00 -0.20390951861E+04  0.20390951861E+04  0.25500000000E-02 0. -1.
    8880023    1    1    2    0    0  0.27364189058E+03  0.74312535697E+02 -0.18442029179E+04  0.19787109050E+04  0.65864270000E+03 0. -1.
    8880022    1    1    2    0    0 -0.27364189058E+03 -0.74312535697E+02  0.75658680119E+02  0.33093522952E+03  0.15294330000E+03 0.  0.
<mgrwt>
<rscale>  0 0.58708359E+03</rscale>
<asrwt>0</asrwt>
<pdfrwt beam="1">  1        2 0.31370694E+00 0.71708608E+03</pdfrwt>
<pdfrwt beam="2">  1       -2 0.41623224E-01 0.71708608E+03</pdfrwt>
<totfact> 0.36034306E+01</totfact>
</mgrwt>
</event>
<event>
 4    1  0.6502538E-008  0.7751968E+03  0.7818608E-02  0.9767243E-01
         -2   -1    0    0    0  501 -0.00000000000E+00  0.00000000000E+00  0.21082740349E+04  0.21082740349E+04  0.25500000000E-02 0.  1.
          2   -1    0    0  501    0  0.00000000000E+00 -0.00000000000E+00 -0.54108309300E+03  0.54108309300E+03  0.25500000000E-02 0. -1.
    8880023    1    1    2    0    0 -0.12209295252E+03  0.39014503077E+03 -0.22307218016E+03  0.80665434848E+03  0.65864270000E+03 0.  0.
    8880022    1    1    2    0    0  0.12209295252E+03 -0.39014503077E+03  0.17902631221E+04  0.18427027795E+04  0.15294330000E+03 0.  0.
<mgrwt>
<rscale>  0 0.67150479E+03</rscale>
<asrwt>0</asrwt>
<pdfrwt beam="1">  1        2 0.83243553E-01 0.77519678E+03</pdfrwt>
<pdfrwt beam="2">  1       -2 0.32434985E+00 0.77519678E+03</pdfrwt>
<totfact> 0.13183169E+00</totfact>
</mgrwt>
</event>
<event>
 4    1  0.6502538E-008  0.1180256E+04  0.7818608E-02  0.9176558E-01
          2   -1    0    0  501    0  0.00000000000E+00  0.00000000000E+00  0.15449448407E+04  0.15449448407E+04  0.25500000000E-02 0. -1.
         -2   -1    0    0    0  501 -0.00000000000E+00 -0.00000000000E+00 -0.93600783684E+03  0.93600783684E+03  0.25500000000E-02 0.  1.
    8880023    1    1    2    0    0 -0.85505615051E+03  0.47757066908E+03 -0.20551937497E+03  0.11980163539E+04  0.65864270000E+03 0.  0.
    8880022    1    1    2    0    0  0.85505615051E+03 -0.47757066908E+03  0.81445637886E+03  0.12829363237E+04  0.15294330000E+03 0.  0.
<mgrwt>
<rscale>  0 0.11298703E+04</rscale>
<asrwt>0</asrwt>
<pdfrwt beam="1">  1        2 0.23768382E+00 0.11802563E+04</pdfrwt>
<pdfrwt beam="2">  1       -2 0.14400121E+00 0.11802563E+04</pdfrwt>
<totfact> 0.38931300E+00</totfact>
</mgrwt>
</event>
<event>
 4    1  0.6502538E-008  0.9292272E+03  0.7818608E-02  0.9480653E-01
         -2   -1    0    0    0  501 -0.00000000000E+00  0.00000000000E+00  0.15285293384E+04  0.15285293384E+04  0.25500000000E-02 0.  1.
          2   -1    0    0  501    0  0.00000000000E+00 -0.00000000000E+00 -0.16520628996E+04  0.16520628996E+04  0.25500000000E-02 0. -1.
    8880023    1    1    2    0    0  0.10348346816E+03 -0.64725899032E+03 -0.14332062098E+04  0.17080817530E+04  0.65864270000E+03 0.  0.
    8880022    1    1    2    0    0 -0.10348346816E+03  0.64725899032E+03  0.13096726486E+04  0.14725104850E+04  0.15294330000E+03 0.  0.
<mgrwt>
<rscale>  0 0.85725312E+03</rscale>
<asrwt>0</asrwt>
<pdfrwt beam="1">  1        2 0.25416352E+00 0.92922722E+03</pdfrwt>
<pdfrwt beam="2">  1       -2 0.23515836E+00 0.92922722E+03</pdfrwt>
<totfact> 0.83524569E-01</totfact>
</mgrwt>
</event>
<event>
 4    1  0.6502538E-008  0.7579092E+03  0.7818608E-02  0.9810551E-01
         -2   -1    0    0    0  501 -0.00000000000E+00  0.00000000000E+00  0.54668522257E+03  0.54668522258E+03  0.25500000000E-02 0.  1.
          2   -1    0    0  501    0  0.00000000000E+00 -0.00000000000E+00 -0.85678257989E+03  0.85678257989E+03  0.25500000000E-02 0. -1.
    8880023    1    1    2    0    0 -0.30650535973E+03  0.21603399020E+03 -0.54663497104E+03  0.93447109013E+03  0.65864270000E+03 0.  0.
    8880022    1    1    2    0    0  0.30650535973E+03 -0.21603399020E+03  0.23653761373E+03  0.46899671234E+03  0.15294330000E+03 0.  0.
<mgrwt>
<rscale>  0 0.64799401E+03</rscale>
<asrwt>0</asrwt>
<pdfrwt beam="1">  1        2 0.13181270E+00 0.75790925E+03</pdfrwt>
<pdfrwt beam="2">  1       -2 0.84105419E-01 0.75790925E+03</pdfrwt>
<totfact> 0.39281951E+01</totfact>
</mgrwt>
</event>
<event>
 4    1  0.6502538E-008  0.8996148E+03  0.7818608E-02  0.9526650E-01
          2   -1    0    0  501    0  0.00000000000E+00  0.00000000000E+00  0.97922158314E+03  0.97922158314E+03  0.25500000000E-02 0. -1.
         -2   -1    0    0    0  501 -0.00000000000E+00 -0.00000000000E+00 -0.11681166742E+04  0.11681166742E+04  0.25500000000E-02 0.  1.
    8880023    1    1    2    0    0 -0.60911666809E+03  0.66883530015E+02  0.64087632420E+03  0.11045493158E+04  0.65864270000E+03 0.  0.
    8880022    1    1    2    0    0  0.60911666809E+03 -0.66883530015E+02 -0.82977141528E+03  0.10427889415E+04  0.15294330000E+03 0.  0.
<mgrwt>
<rscale>  0 0.82347198E+03</rscale>
<asrwt>0</asrwt>
<pdfrwt beam="1">  1        2 0.15064947E+00 0.89961477E+03</pdfrwt>
<pdfrwt beam="2">  1       -2 0.17971026E+00 0.89961477E+03</pdfrwt>
<totfact> 0.47429000E+00</totfact>
</mgrwt>
</event>
<event>
 4    1  0.6502538E-008  0.7819662E+03  0.7818608E-02  0.9751238E-01
          2   -1    0    0  501    0  0.00000000000E+00  0.00000000000E+00  0.20100008325E+04  0.20100008325E+04  0.25500000000E-02 0. -1.
         -2   -1    0    0    0  501 -0.00000000000E+00 -0.00000000000E+00 -0.51645749656E+03  0.51645749657E+03  0.25500000000E-02 0.  1.
    8880023    1    1    2    0    0  0.41641539473E+03 -0.65262108158E+02  0.18139750391E+04  0.19753421406E+04  0.65864270000E+03 0. -1.
    8880022    1    1    2    0    0 -0.41641539473E+03  0.65262108158E+02 -0.32043170319E+03  0.55111618843E+03  0.15294330000E+03 0.  0.
<mgrwt>
<rscale>  0 0.68046327E+03</rscale>
<asrwt>0</asrwt>
<pdfrwt beam="1">  1        2 0.30923090E+00 0.78196619E+03</pdfrwt>
<pdfrwt beam="2">  1       -2 0.79455000E-01 0.78196619E+03</pdfrwt>
<totfact> 0.95439921E+00</totfact>
</mgrwt>
</event>
<event>
 4    1  0.6502538E-008  0.1388340E+04  0.7818608E-02  0.8992796E-01
          2   -1    0    0  501    0  0.00000000000E+00  0.00000000000E+00  0.36405050852E+04  0.36405050852E+04  0.25500000000E-02 0. -1.
         -2   -1    0    0    0  501 -0.00000000000E+00 -0.00000000000E+00 -0.61415935448E+03  0.61415935449E+03  0.25500000000E-02 0.  1.
    8880023    1    1    2    0    0 -0.12188900478E+04  0.89359326549E+02  0.26068401644E+04  0.29534901197E+04  0.65864270000E+03 0.  0.
    8880022    1    1    2    0    0  0.12188900478E+04 -0.89359326549E+02  0.41950556634E+03  0.13011743200E+04  0.15294330000E+03 0.  0.
<mgrwt>
<rscale>  0 0.13474033E+04</rscale>
<asrwt>0</asrwt>
<pdfrwt beam="1">  1        2 0.56007771E+00 0.13883401E+04</pdfrwt>
<pdfrwt beam="2">  1       -2 0.94486054E-01 0.13883401E+04</pdfrwt>
<totfact> 0.59615530E-01</totfact>
</mgrwt>
</event>
<event>
 4    1  0.6502538E-008  0.8050037E+03  0.7818608E-02  0.9700080E-01
         -2   -1    0    0    0  501 -0.00000000000E+00  0.00000000000E+00  0.56655074908E+03  0.56655074909E+03  0.25500000000E-02 0.  1.
          2   -1    0    0  501    0  0.00000000000E+00 -0.00000000000E+00 -0.89140418789E+03  0.89140418789E+03  0.25500000000E-02 0. -1.
    8880023    1    1    2    0    0 -0.35264830580E+02 -0.46149443730E+03 -0.49104188954E+03  0.94294913303E+03  0.65864270000E+03 0. -1.
    8880022    1    1    2    0    0  0.35264830580E+02  0.46149443730E+03  0.16618845073E+03  0.51500580395E+03  0.15294330000E+03 0.  0.
<mgrwt>
<rscale>  0 0.71012047E+03</rscale>
<asrwt>0</asrwt>
<pdfrwt beam="1">  1        2 0.13713911E+00 0.80500368E+03</pdfrwt>
<pdfrwt beam="2">  1       -2 0.87161654E-01 0.80500368E+03</pdfrwt>
<totfact> 0.34149598E+01</totfact>
</mgrwt>
</event>
<event>
 4    1  0.6502538E-008  0.8092975E+03  0.7818608E-02  0.9691042E-01
         -2   -1    0    0    0  501 -0.00000000000E+00  0.00000000000E+00  0.28936516421E+03  0.28936516423E+03  0.25500000000E-02 0.  1.
          2   -1    0    0  501    0  0.00000000000E+00 -0.00000000000E+00 -0.16979172556E+04  0.16979172556E+04  0.25500000000E-02 0. -1.
    8880023    1    1    2    0    0  0.29812870434E+03 -0.36369149842E+03 -0.12071427531E+04  0.14533258627E+04  0.65864270000E+03 0.  0.
    8880022    1    1    2    0    0 -0.29812870434E+03  0.36369149842E+03 -0.20140933822E+03  0.53395655714E+03  0.15294330000E+03 0.  0.
<mgrwt>
<rscale>  0 0.71552654E+03</rscale>
<asrwt>0</asrwt>
<pdfrwt beam="1">  1        2 0.26121803E+00 0.80929750E+03</pdfrwt>
<pdfrwt beam="2">  1       -2 0.44517719E-01 0.80929750E+03</pdfrwt>
<totfact> 0.47920241E+01</totfact>
</mgrwt>
</event>
<event>
 4    1  0.6502538E-008  0.1597437E+04  0.7818608E-02  0.8843730E-01
          2   -1    0    0  501    0  0.00000000000E+00  0.00000000000E+00  0.23384745670E+04  0.23384745670E+04  0.25500000000E-02 0. -1.
         -2   -1    0    0    0  501 -0.00000000000E+00 -0.00000000000E+00 -0.13064549705E+04  0.13064549705E+04  0.25500000000E-02 0.  1.
    8880023    1    1    2    0    0 -0.13943206719E+04  0.41697160309E+03 -0.34643960896E+03  0.16345721344E+04  0.65864270000E+03 0.  0.
    8880022    1    1    2    0    0  0.13943206719E+04 -0.41697160309E+03  0.13784592055E+04  0.20103574030E+04  0.15294330000E+03 0.  0.
<mgrwt>
<rscale>  0 0.15628048E+04</rscale>
<asrwt>0</asrwt>
<pdfrwt beam="1">  1        2 0.35976532E+00 0.15974372E+04</pdfrwt>
<pdfrwt beam="2">  1       -2 0.20099307E+00 0.15974372E+04</pdfrwt>
<totfact> 0.52511217E-01</totfact>
</mgrwt>
</event>
<event>
 4    1  0.6502538E-008  0.6817163E+03  0.7818608E-02  0.1008369E+00
         -2   -1    0    0    0  501 -0.00000000000E+00  0.00000000000E+00  0.95819575743E+03  0.95819575743E+03  0.25500000000E-02 0.  1.
          2   -1    0    0  501    0  0.00000000000E+00 -0.00000000000E+00 -0.89519984783E+03  0.89519984783E+03  0.25500000000E-02 0. -1.
    8880023    1    1    2    0    0 -0.63717741090E+02 -0.16391124805E+03 -0.74654527609E+03  0.10109732456E+04  0.65864270000E+03 0.  0.
    8880022    1    1    2    0    0  0.63717741090E+02  0.16391124805E+03  0.80954118568E+03  0.84242235969E+03  0.15294330000E+03 0.  0.
<mgrwt>
<rscale>  0 0.52128018E+03</rscale>
<asrwt>0</asrwt>
<pdfrwt beam="1">  1        2 0.13772305E+00 0.68171626E+03</pdfrwt>
<pdfrwt beam="2">  1       -2 0.14741473E+00 0.68171626E+03</pdfrwt>
<totfact> 0.95057398E+00</totfact>
</mgrwt>
</event>
<event>
 4    1  0.6502538E-008  0.1888358E+04  0.7818608E-02  0.8675173E-01
         -2   -1    0    0    0  501 -0.00000000000E+00  0.00000000000E+00  0.18612292205E+04  0.18612292205E+04  0.25500000000E-02 0.  1.
          2   -1    0    0  501    0  0.00000000000E+00 -0.00000000000E+00 -0.23284475927E+04  0.23284475927E+04  0.25500000000E-02 0. -1.
    8880023    1    1    2    0    0  0.17663378581E+04  0.11017005665E+03  0.75474143881E+03  0.20336006776E+04  0.65864270000E+03 0.  0.
    8880022    1    1    2    0    0 -0.17663378581E+04 -0.11017005665E+03 -0.12219598110E+04  0.21560761357E+04  0.15294330000E+03 0.  0.
<mgrwt>
<rscale>  0 0.18597153E+04</rscale>
<asrwt>0</asrwt>
<pdfrwt beam="1">  1        2 0.35822271E+00 0.18883583E+04</pdfrwt>
<pdfrwt beam="2">  1       -2 0.28634296E+00 0.18883583E+04</pdfrwt>
<totfact> 0.15110146E-01</totfact>
</mgrwt>
</event>
<event>
 4    1  0.6502538E-008  0.6663566E+03  0.7818608E-02  0.1018421E+00
         -2   -1    0    0    0  501 -0.00000000000E+00  0.00000000000E+00  0.30695340544E+03  0.30695340545E+03  0.25500000000E-02 0.  1.
          2   -1    0    0  501    0  0.00000000000E+00 -0.00000000000E+00 -0.17001370935E+04  0.17001370935E+04  0.25500000000E-02 0. -1.
    8880023    1    1    2    0    0  0.40925746359E+02  0.92444232354E+02 -0.15985014595E+04  0.17318308160E+04  0.65864270000E+03 0. -1.
    8880022    1    1    2    0    0 -0.40925746359E+02 -0.92444232354E+02  0.20531777142E+03  0.27525968301E+03  0.15294330000E+03 0.  0.
<mgrwt>
<rscale>  0 0.48260589E+03</rscale>
<asrwt>0</asrwt>
<pdfrwt beam="1">  1        2 0.26155955E+00 0.66635656E+03</pdfrwt>
<pdfrwt beam="2">  1       -2 0.47223602E-01 0.66635656E+03</pdfrwt>
<totfact> 0.43170318E+01</totfact>
</mgrwt>
</event>
<event>
 4    1  0.6502538E-008  0.7167837E+03  0.7818608E-02  0.9933623E-01
          2   -1    0    0  501    0  0.00000000000E+00  0.00000000000E+00  0.30697066106E+04  0.30697066106E+04  0.25500000000E-02 0. -1.
         -2   -1    0    0    0  501 -0.00000000000E+00 -0.00000000000E+00 -0.52426539429E+03  0.52426539429E+03  0.25500000000E-02 0.  1.
    8880023    1    1    2    0    0 -0.13721529890E+01  0.28278389641E+03  0.29734738195E+04  0.30586476384E+04  0.65864270000E+03 0. -1.
    8880022    1    1    2    0    0  0.13721529890E+01 -0.28278389641E+03 -0.42803260318E+03  0.53532436641E+03  0.15294330000E+03 0.  0.
<mgrwt>
<rscale>  0 0.58659084E+03</rscale>
<asrwt>0</asrwt>
<pdfrwt beam="1">  1        2 0.47226256E+00 0.71678366E+03</pdfrwt>
<pdfrwt beam="2">  1       -2 0.80656214E-01 0.71678366E+03</pdfrwt>
<totfact> 0.23007833E+00</totfact>
</mgrwt>
</event>
<event>
 4    1  0.6502538E-008  0.1217997E+04  0.7818608E-02  0.9139824E-01
         -2   -1    0    0    0  501 -0.00000000000E+00  0.00000000000E+00  0.73905599262E+03  0.73905599263E+03  0.25500000000E-02 0.  1.
          2   -1    0    0  501    0  0.00000000000E+00 -0.00000000000E+00 -0.25164357405E+04  0.25164357405E+04  0.25500000000E-02 0. -1.
    8880023    1    1    2    0    0 -0.99202325212E+03 -0.25611748745E+03 -0.18523080150E+04  0.22168810272E+04  0.65864270000E+03 0.  0.
    8880022    1    1    2    0    0  0.99202325212E+03  0.25611748745E+03  0.74928267166E+02  0.10386107059E+04  0.15294330000E+03 0.  1.
<mgrwt>
<rscale>  0 0.11696733E+04</rscale>
<asrwt>0</asrwt>
<pdfrwt beam="1">  1        2 0.38714396E+00 0.12179969E+04</pdfrwt>
<pdfrwt beam="2">  1       -2 0.11370092E+00 0.12179969E+04</pdfrwt>
<totfact> 0.20224300E+00</totfact>
</mgrwt>
</event>
<event>
 4    1  0.6502538E-008  0.1485169E+04  0.7818608E-02  0.8920180E-01
          2   -1    0    0  501    0  0.00000000000E+00  0.00000000000E+00  0.28577301967E+04  0.28577301967E+04  0.25500000000E-02 0. -1.
         -2   -1    0    0    0  501 -0.00000000000E+00 -0.00000000000E+00 -0.83603378414E+03  0.83603378415E+03  0.25500000000E-02 0.  1.
    8880023    1    1    2    0    0  0.13288144787E+04  0.78545618794E+02  0.18033585757E+04  0.23361998398E+04  0.65864270000E+03 0.  0.
    8880022    1    1    2    0    0 -0.13288144787E+04 -0.78545618794E+02  0.21833783686E+03  0.13575641410E+04  0.15294330000E+03 0.  0.
<mgrwt>
<rscale>  0 0.14474359E+04</rscale>
<asrwt>0</asrwt>
<pdfrwt beam="1">  1        2 0.43965080E+00 0.14851692E+04</pdfrwt>
<pdfrwt beam="2">  1       -2 0.12862058E+00 0.14851692E+04</pdfrwt>
<totfact> 0.90550244E-01</totfact>
</mgrwt>
</event>
<event>
 4    1  0.6502538E-008  0.1064432E+04  0.7818608E-02  0.9301730E-01
         -2   -1    0    0    0  501 -0.00000000000E+00  0.00000000000E+00  0.29772848964E+04  0.29772848964E+04  0.25500000000E-02 0.  1.
          2   -1    0    0  501    0  0.00000000000E+00 -0.00000000000E+00 -0.33803756627E+03  0.33803756628E+03  0.25500000000E-02 0. -1.
    8880023    1    1    2    0    0  0.13397851328E+03 -0.82538155357E+03  0.96096748369E+03  0.14340410252E+04  0.65864270000E+03 0. -1.
    8880022    1    1    2    0    0 -0.13397851328E+03  0.82538155357E+03  0.16782798465E+04  0.18812814375E+04  0.15294330000E+03 0.  0.
<mgrwt>
<rscale>  0 0.10062372E+04</rscale>
<asrwt>0</asrwt>
<pdfrwt beam="1">  1        2 0.52005780E-01 0.10644318E+04</pdfrwt>
<pdfrwt beam="2">  1       -2 0.45804382E+00 0.10644318E+04</pdfrwt>
<totfact> 0.29901196E-01</totfact>
</mgrwt>
</event>
<event>
 4    1  0.6502538E-008  0.9265260E+03  0.7818608E-02  0.9484724E-01
         -2   -1    0    0    0  501 -0.00000000000E+00  0.00000000000E+00  0.55780915397E+03  0.55780915398E+03  0.25500000000E-02 0.  1.
          2   -1    0    0  501    0  0.00000000000E+00 -0.00000000000E+00 -0.41915690421E+04  0.41915690421E+04  0.25500000000E-02 0. -1.
    8880023    1    1    2    0    0  0.64167663159E+03 -0.11353988056E+03 -0.39151469992E+04  0.40232855275E+04  0.65864270000E+03 0. -1.
    8880022    1    1    2    0    0 -0.64167663159E+03  0.11353988056E+03  0.28138711111E+03  0.72609266855E+03  0.15294330000E+03 0.  0.
<mgrwt>
<rscale>  0 0.85419459E+03</rscale>
<asrwt>0</asrwt>
<pdfrwt beam="1">  1        2 0.64485676E+00 0.92652599E+03</pdfrwt>
<pdfrwt beam="2">  1       -2 0.85816796E-01 0.92652599E+03</pdfrwt>
<totfact> 0.30020620E-01</totfact>
</mgrwt>
</event>
<event>
 4    1  0.6502538E-008  0.1080577E+04  0.7818608E-02  0.9282995E-01
         -2   -1    0    0    0  501 -0.00000000000E+00  0.00000000000E+00  0.64314975488E+03  0.64314975489E+03  0.25500000000E-02 0.  1.
          2   -1    0    0  501    0  0.00000000000E+00 -0.00000000000E+00 -0.17959126776E+04  0.17959126776E+04  0.25500000000E-02 0. -1.
    8880023    1    1    2    0    0  0.67578206597E+03  0.52645590667E+03 -0.11372252420E+04  0.15687347385E+04  0.65864270000E+03 0. -1.
    8880022    1    1    2    0    0 -0.67578206597E+03 -0.52645590667E+03 -0.15537680656E+02  0.87032769397E+03  0.15294330000E+03 0.  0.
<mgrwt>
<rscale>  0 0.10236354E+04</rscale>
<asrwt>0</asrwt>
<pdfrwt beam="1">  1        2 0.27629426E+00 0.10805774E+04</pdfrwt>
<pdfrwt beam="2">  1       -2 0.98946117E-01 0.10805774E+04</pdfrwt>
<totfact> 0.72699616E+00</totfact>
</mgrwt>
</event>
<event>
 4    1  0.6502538E-008  0.8276557E+03  0.7818608E-02  0.9653911E-01
          2   -1    0    0  501    0  0.00000000000E+00  0.00000000000E+00  0.14867921722E+04  0.14867921722E+04  0.25500000000E-02 0. -1.
         -2   -1    0    0    0  501 -0.00000000000E+00 -0.00000000000E+00 -0.59838127836E+03  0.59838127836E+03  0.25500000000E-02 0.  1.
    8880023    1    1    2    0    0 -0.15226695133E+03 -0.47751285016E+03  0.12132269350E+04  0.14686502472E+04  0.65864270000E+03 0.  0.
    8880022    1    1    2    0    0  0.15226695133E+03  0.47751285016E+03 -0.32481604124E+03  0.61652320329E+03  0.15294330000E+03 0.  0.
<mgrwt>
<rscale>  0 0.73828482E+03</rscale>
<asrwt>0</asrwt>
<pdfrwt beam="1">  1        2 0.22873725E+00 0.82765570E+03</pdfrwt>
<pdfrwt beam="2">  1       -2 0.92058660E-01 0.82765570E+03</pdfrwt>
<totfact> 0.13138047E+01</totfact>
</mgrwt>
</event>
<event>
 4    1  0.6502538E-008  0.9465765E+03  0.7818608E-02  0.9455057E-01
         -2   -1    0    0    0  501 -0.00000000000E+00  0.00000000000E+00  0.69552041040E+03  0.69552041040E+03  0.25500000000E-02 0.  1.
          2   -1    0    0  501    0  0.00000000000E+00 -0.00000000000E+00 -0.14155645598E+04  0.14155645598E+04  0.25500000000E-02 0. -1.
    8880023    1    1    2    0    0 -0.59568153327E+03  0.32765893423E+03 -0.98450801308E+03  0.13657463529E+04  0.65864270000E+03 0. -1.
    8880022    1    1    2    0    0  0.59568153327E+03 -0.32765893423E+03  0.26446386370E+03  0.74533861733E+03  0.15294330000E+03 0.  0.
<mgrwt>
<rscale>  0 0.87679959E+03</rscale>
<asrwt>0</asrwt>
<pdfrwt beam="1">  1        2 0.21777916E+00 0.94657650E+03</pdfrwt>
<pdfrwt beam="2">  1       -2 0.10700314E+00 0.94657650E+03</pdfrwt>
<totfact> 0.99561706E+00</totfact>
</mgrwt>
</event>
<event>
 4    1  0.6502538E-008  0.1147627E+04  0.7818608E-02  0.9209794E-01
          2   -1    0    0  501    0  0.00000000000E+00  0.00000000000E+00  0.13610999746E+04  0.13610999746E+04  0.25500000000E-02 0. -1.
         -2   -1    0    0    0  501 -0.00000000000E+00 -0.00000000000E+00 -0.16346500618E+04  0.16346500618E+04  0.25500000000E-02 0.  1.
    8880023    1    1    2    0    0  0.78285181497E+03  0.51998161826E+03  0.91862069679E+03  0.14700040947E+04  0.65864270000E+03 0.  0.
    8880022    1    1    2    0    0 -0.78285181497E+03 -0.51998161826E+03 -0.11921707840E+04  0.15257459417E+04  0.15294330000E+03 0.  0.
<mgrwt>
<rscale>  0 0.10952905E+04</rscale>
<asrwt>0</asrwt>
<pdfrwt beam="1">  1        2 0.20939999E+00 0.11476271E+04</pdfrwt>
<pdfrwt beam="2">  1       -2 0.25148463E+00 0.11476271E+04</pdfrwt>
<totfact> 0.93782269E-01</totfact>
</mgrwt>
</event>
<event>
 4    1  0.6502538E-008  0.6788693E+03  0.7818608E-02  0.1009971E+00
         -2   -1    0    0    0  501 -0.00000000000E+00  0.00000000000E+00  0.44974133659E+03  0.44974133659E+03  0.25500000000E-02 0.  1.
          2   -1    0    0  501    0  0.00000000000E+00 -0.00000000000E+00 -0.15585120357E+04  0.15585120357E+04  0.25500000000E-02 0. -1.
    8880023    1    1    2    0    0  0.14716617906E+03 -0.73453457046E+02 -0.14492475261E+04  0.16003692989E+04  0.65864270000E+03 0. -1.
    8880022    1    1    2    0    0 -0.14716617906E+03  0.73453457046E+02  0.34047682700E+03  0.40788407342E+03  0.15294330000E+03 0.  0.
<mgrwt>
<rscale>  0 0.51486317E+03</rscale>
<asrwt>0</asrwt>
<pdfrwt beam="1">  1        2 0.23977108E+00 0.67886928E+03</pdfrwt>
<pdfrwt beam="2">  1       -2 0.69190976E-01 0.67886928E+03</pdfrwt>
<totfact> 0.23201021E+01</totfact>
</mgrwt>
</event>
<event>
 4    1  0.6502538E-008  0.1440956E+04  0.7818608E-02  0.8952495E-01
          2   -1    0    0  501    0  0.00000000000E+00  0.00000000000E+00  0.43317127967E+04  0.43317127967E+04  0.25500000000E-02 0. -1.
         -2   -1    0    0    0  501 -0.00000000000E+00 -0.00000000000E+00 -0.47303988223E+03  0.47303988224E+03  0.25500000000E-02 0.  1.
    8880023    1    1    2    0    0 -0.28549637572E+03 -0.12494137051E+04  0.13078745067E+04  0.19459929904E+04  0.65864270000E+03 0.  0.
    8880022    1    1    2    0    0  0.28549637572E+03  0.12494137051E+04  0.25507984077E+04  0.28587596885E+04  0.15294330000E+03 0.  0.
<mgrwt>
<rscale>  0 0.14018295E+04</rscale>
<asrwt>0</asrwt>
<pdfrwt beam="1">  1        2 0.66641738E+00 0.14409556E+04</pdfrwt>
<pdfrwt beam="2">  1       -2 0.72775364E-01 0.14409556E+04</pdfrwt>
<totfact> 0.30021586E-01</totfact>
</mgrwt>
</event>
<event>
 4    1  0.6502538E-008  0.1156256E+04  0.7818608E-02  0.9200864E-01
          2   -1    0    0  501    0  0.00000000000E+00  0.00000000000E+00  0.47083520832E+04  0.47083520832E+04  0.25500000000E-02 0. -1.
         -2   -1    0    0    0  501 -0.00000000000E+00 -0.00000000000E+00 -0.80243032165E+03  0.80243032166E+03  0.25500000000E-02 0.  1.
    8880023    1    1    2    0    0  0.94241717784E+03  0.12234050150E+03  0.43132870835E+04  0.44655764472E+04  0.65864270000E+03 0.  0.
    8880022    1    1    2    0    0 -0.94241717784E+03 -0.12234050150E+03 -0.40736532190E+03  0.10452059576E+04  0.15294330000E+03 0.  0.
<mgrwt>
<rscale>  0 0.11044515E+04</rscale>
<asrwt>0</asrwt>
<pdfrwt beam="1">  1        2 0.72436185E+00 0.11562558E+04</pdfrwt>
<pdfrwt beam="2">  1       -2 0.12345082E+00 0.11562558E+04</pdfrwt>
<totfact> 0.38833660E-02</totfact>
</mgrwt>
</event>
<event>
 4    1  0.6502538E-008  0.1709304E+04  0.7818608E-02  0.8774438E-01
         -2   -1    0    0    0  501 -0.00000000000E+00  0.00000000000E+00  0.16299330268E+04  0.16299330268E+04  0.25500000000E-02 0.  1.
          2   -1    0    0  501    0  0.00000000000E+00 -0.00000000000E+00 -0.20926848613E+04  0.20926848613E+04  0.25500000000E-02 0. -1.
    8880023    1    1    2    0    0 -0.12066870913E+04 -0.10157842616E+04  0.60336337181E+03  0.18126690175E+04  0.65864270000E+03 0.  0.
    8880022    1    1    2    0    0  0.12066870913E+04  0.10157842616E+04 -0.10661152063E+04  0.19099488706E+04  0.15294330000E+03 0.  0.
<mgrwt>
<rscale>  0 0.16772660E+04</rscale>
<asrwt>0</asrwt>
<pdfrwt beam="1">  1        2 0.32195152E+00 0.17093044E+04</pdfrwt>
<pdfrwt beam="2">  1       -2 0.25075893E+00 0.17093044E+04</pdfrwt>
<totfact> 0.34583183E-01</totfact>
</mgrwt>
</event>
<event>
 4    1  0.6502538E-008  0.6768506E+03  0.7818608E-02  0.1011164E+00
         -2   -1    0    0    0  501 -0.00000000000E+00  0.00000000000E+00  0.85777606398E+03  0.85777606398E+03  0.25500000000E-02 0.  1.
          2   -1    0    0  501    0  0.00000000000E+00 -0.00000000000E+00 -0.14693996391E+04  0.14693996391E+04  0.25500000000E-02 0. -1.
    8880023    1    1    2    0    0 -0.11075773658E+03  0.10976879405E+03 -0.13753239293E+04  0.15328543900E+04  0.65864270000E+03 0. -1.
    8880022    1    1    2    0    0  0.11075773658E+03 -0.10976879405E+03  0.76370035417E+03  0.79432131303E+03  0.15294330000E+03 0.  0.
<mgrwt>
<rscale>  0 0.51014499E+03</rscale>
<asrwt>0</asrwt>
<pdfrwt beam="1">  1        2 0.22606148E+00 0.67685055E+03</pdfrwt>
<pdfrwt beam="2">  1       -2 0.13196555E+00 0.67685055E+03</pdfrwt>
<totfact> 0.57252930E+00</totfact>
</mgrwt>
</event>
<event>
 4    1  0.6502538E-008  0.1526540E+04  0.7818608E-02  0.8891119E-01
         -2   -1    0    0    0  501 -0.00000000000E+00  0.00000000000E+00  0.96710700709E+03  0.96710700709E+03  0.25500000000E-02 0.  1.
          2   -1    0    0  501    0  0.00000000000E+00 -0.00000000000E+00 -0.29423950058E+04  0.29423950058E+04  0.25500000000E-02 0. -1.
    8880023    1    1    2    0    0 -0.42282532729E+03  0.13106230430E+04 -0.20093798137E+04  0.25234760668E+04  0.65864270000E+03 0.  0.
    8880022    1    1    2    0    0  0.42282532729E+03 -0.13106230430E+04  0.34091815006E+02  0.13860259460E+04  0.15294330000E+03 0.  0.
<mgrwt>
<rscale>  0 0.14900166E+04</rscale>
<asrwt>0</asrwt>
<pdfrwt beam="1">  1        2 0.45267615E+00 0.15265400E+04</pdfrwt>
<pdfrwt beam="2">  1       -2 0.14878569E+00 0.15265400E+04</pdfrwt>
<totfact> 0.54698613E-01</totfact>
</mgrwt>
</event>
<event>
 4    1  0.6502538E-008  0.1362521E+04  0.7818608E-02  0.9013366E-01
          2   -1    0    0  501    0  0.00000000000E+00  0.00000000000E+00  0.12985803615E+04  0.12985803615E+04  0.25500000000E-02 0. -1.
         -2   -1    0    0    0  501 -0.00000000000E+00 -0.00000000000E+00 -0.19977314609E+04  0.19977314609E+04  0.25500000000E-02 0.  1.
    8880023    1    1    2    0    0 -0.13752274669E+03  0.11847960360E+04  0.63240353987E+03  0.15021313512E+04  0.65864270000E+03 0.  0.
    8880022    1    1    2    0    0  0.13752274669E+03 -0.11847960360E+04 -0.13315546393E+04  0.17941804712E+04  0.15294330000E+03 0.  0.
<mgrwt>
<rscale>  0 0.13206272E+04</rscale>
<asrwt>0</asrwt>
<pdfrwt beam="1">  1        2 0.19978159E+00 0.13625213E+04</pdfrwt>
<pdfrwt beam="2">  1       -2 0.30734330E+00 0.13625213E+04</pdfrwt>
<totfact> 0.45444909E-01</totfact>
</mgrwt>
</event>
<event>
 4    1  0.6502538E-008  0.7668245E+03  0.7818608E-02  0.9787749E-01
         -2   -1    0    0    0  501 -0.00000000000E+00  0.00000000000E+00  0.62819065091E+03  0.62819065091E+03  0.25500000000E-02 0.  1.
          2   -1    0    0  501    0  0.00000000000E+00 -0.00000000000E+00 -0.78919809059E+03  0.78919809060E+03  0.25500000000E-02 0. -1.
    8880023    1    1    2    0    0  0.35505493992E+03 -0.16776667544E+03 -0.46587300075E+03  0.89724998013E+03  0.65864270000E+03 0.  0.
    8880022    1    1    2    0    0 -0.35505493992E+03  0.16776667544E+03  0.30486556107E+03  0.52013876138E+03  0.15294330000E+03 0.  0.
<mgrwt>
<rscale>  0 0.66024143E+03</rscale>
<asrwt>0</asrwt>
<pdfrwt beam="1">  1        2 0.12141509E+00 0.76682454E+03</pdfrwt>
<pdfrwt beam="2">  1       -2 0.96644715E-01 0.76682454E+03</pdfrwt>
<totfact> 0.31794449E+01</totfact>
</mgrwt>
</event>
<event>
 4    1  0.6502538E-008  0.1401546E+04  0.7818608E-02  0.8982482E-01
         -2   -1    0    0    0  501 -0.00000000000E+00  0.00000000000E+00  0.12074965445E+04  0.12074965445E+04  0.25500000000E-02 0.  1.
          2   -1    0    0  501    0  0.00000000000E+00 -0.00000000000E+00 -0.18809049148E+04  0.18809049148E+04  0.25500000000E-02 0. -1.
    8880023    1    1    2    0    0  0.64150829197E+03  0.10578226182E+04 -0.10884551268E+04  0.17745608893E+04  0.65864270000E+03 0.  0.
    8880022    1    1    2    0    0 -0.64150829197E+03 -0.10578226182E+04  0.41504675655E+03  0.13138405700E+04  0.15294330000E+03 0.  0.
<mgrwt>
<rscale>  0 0.13610808E+04</rscale>
<asrwt>0</asrwt>
<pdfrwt beam="1">  1        2 0.28936999E+00 0.14015462E+04</pdfrwt>
<pdfrwt beam="2">  1       -2 0.18576870E+00 0.14015462E+04</pdfrwt>
<totfact> 0.12236442E+00</totfact>
</mgrwt>
</event>
<event>
 4    1  0.6502538E-008  0.9592876E+03  0.7818608E-02  0.9436875E-01
         -2   -1    0    0    0  501 -0.00000000000E+00  0.00000000000E+00  0.91252433867E+03  0.91252433867E+03  0.25500000000E-02 0.  1.
          2   -1    0    0  501    0  0.00000000000E+00 -0.00000000000E+00 -0.13447675009E+04  0.13447675009E+04  0.25500000000E-02 0. -1.
    8880023    1    1    2    0    0 -0.10312603635E+01  0.69743921838E+03 -0.96938455900E+03  0.13637958631E+04  0.65864270000E+03 0.  0.
    8880022    1    1    2    0    0  0.10312603635E+01 -0.69743921838E+03  0.53714139674E+03  0.89349597646E+03  0.15294330000E+03 0.  0.
<mgrwt>
<rscale>  0 0.89102137E+03</rscale>
<asrwt>0</asrwt>
<pdfrwt beam="1">  1        2 0.20688731E+00 0.95928762E+03</pdfrwt>
<pdfrwt beam="2">  1       -2 0.14038836E+00 0.95928762E+03</pdfrwt>
<totfact> 0.55327300E+00</totfact>
</mgrwt>
</event>
<event>
 4    1  0.6502538E-008  0.8056210E+03  0.7818608E-02  0.9698772E-01
         -2   -1    0    0    0  501 -0.00000000000E+00  0.00000000000E+00  0.13402952754E+04  0.13402952754E+04  0.25500000000E-02 0.  1.
          2   -1    0    0  501    0  0.00000000000E+00 -0.00000000000E+00 -0.10260666088E+04  0.10260666088E+04  0.25500000000E-02 0. -1.
    8880023    1    1    2    0    0 -0.16620242051E+03 -0.43311855787E+03 -0.80887902291E+03  0.11416262128E+04  0.65864270000E+03 0. -1.
    8880022    1    1    2    0    0  0.16620242051E+03  0.43311855787E+03  0.11231076895E+04  0.12247356715E+04  0.15294330000E+03 0.  0.
<mgrwt>
<rscale>  0 0.71089977E+03</rscale>
<asrwt>0</asrwt>
<pdfrwt beam="1">  1        2 0.15785640E+00 0.80562096E+03</pdfrwt>
<pdfrwt beam="2">  1       -2 0.20619927E+00 0.80562096E+03</pdfrwt>
<totfact> 0.29875992E+00</totfact>
</mgrwt>
</event>
<event>
 4    1  0.6502538E-008  0.1862439E+04  0.7818608E-02  0.8688761E-01
          2   -1    0    0  501    0  0.00000000000E+00  0.00000000000E+00  0.19076594192E+04  0.19076594192E+04  0.25500000000E-02 0. -1.
         -2   -1    0    0    0  501 -0.00000000000E+00 -0.00000000000E+00 -0.22358080127E+04  0.22358080127E+04  0.25500000000E-02 0.  1.
    8880023    1    1    2    0    0  0.14699773926E+04 -0.93489938474E+03 -0.11732552088E+04  0.22011834057E+04  0.65864270000E+03 0.  0.
    8880022    1    1    2    0    0 -0.14699773926E+04  0.93489938474E+03  0.84510661525E+03  0.19422840262E+04  0.15294330000E+03 0.  0.
<mgrwt>
<rscale>  0 0.18333524E+04</rscale>
<asrwt>0</asrwt>
<pdfrwt beam="1">  1        2 0.29348606E+00 0.18624394E+04</pdfrwt>
<pdfrwt beam="2">  1       -2 0.34397046E+00 0.18624394E+04</pdfrwt>
<totfact> 0.11514270E-01</totfact>
</mgrwt>
</event>
<event>
 4    1  0.6502538E-008  0.9358862E+03  0.7818608E-02  0.9470718E-01
          2   -1    0    0  501    0  0.00000000000E+00  0.00000000000E+00  0.32867930674E+04  0.32867930674E+04  0.25500000000E-02 0. -1.
         -2   -1    0    0    0  501 -0.00000000000E+00 -0.00000000000E+00 -0.25807830441E+03  0.25807830443E+03  0.25500000000E-02 0.  1.
    8880023    1    1    2    0    0  0.30150943553E+03  0.59259159810E+03  0.25363588445E+04  0.27035160692E+04  0.65864270000E+03 0.  0.
    8880022    1    1    2    0    0 -0.30150943553E+03 -0.59259159810E+03  0.49235591848E+03  0.84135530266E+03  0.15294330000E+03 0.  0.
<mgrwt>
<rscale>  0 0.86477492E+03</rscale>
<asrwt>0</asrwt>
<pdfrwt beam="1">  1        2 0.50566046E+00 0.93588618E+03</pdfrwt>
<pdfrwt beam="2">  1       -2 0.39704356E-01 0.93588618E+03</pdfrwt>
<totfact> 0.70970778E+00</totfact>
</mgrwt>
</event>
<event>
 4    1  0.6502538E-008  0.8834383E+03  0.7818608E-02  0.9553159E-01
         -2   -1    0    0    0  501 -0.00000000000E+00  0.00000000000E+00  0.53726910621E+03  0.53726910621E+03  0.25500000000E-02 0.  1.
          2   -1    0    0  501    0  0.00000000000E+00 -0.00000000000E+00 -0.22010210625E+04  0.22010210625E+04  0.25500000000E-02 0. -1.
    8880023    1    1    2    0    0  0.58751271951E+03  0.38495161203E+02 -0.18923768209E+04  0.20884332193E+04  0.65864270000E+03 0.  0.
    8880022    1    1    2    0    0 -0.58751271951E+03 -0.38495161203E+02  0.22862486456E+03  0.64985694944E+03  0.15294330000E+03 0.  0.
<mgrwt>
<rscale>  0 0.80475550E+03</rscale>
<asrwt>0</asrwt>
<pdfrwt beam="1">  1        2 0.33861862E+00 0.88343833E+03</pdfrwt>
<pdfrwt beam="2">  1       -2 0.82656787E-01 0.88343833E+03</pdfrwt>
<totfact> 0.67546159E+00</totfact>
</mgrwt>
</event>
<event>
 4    1  0.6502538E-008  0.6938414E+03  0.7818608E-02  0.1002378E+00
          2   -1    0    0  501    0  0.00000000000E+00  0.00000000000E+00  0.10675306670E+04  0.10675306670E+04  0.25500000000E-02 0. -1.
         -2   -1    0    0    0  501 -0.00000000000E+00 -0.00000000000E+00 -0.26801868337E+03  0.26801868339E+03  0.25500000000E-02 0.  1.
    8880023    1    1    2    0    0  0.17715260557E+03 -0.12736787674E+03  0.81291492959E+03  0.10687593324E+04  0.65864270000E+03 0. -1.
    8880022    1    1    2    0    0 -0.17715260557E+03  0.12736787674E+03 -0.13402945982E+02  0.26679001792E+03  0.15294330000E+03 0.  0.
<mgrwt>
<rscale>  0 0.54619830E+03</rscale>
<asrwt>0</asrwt>
<pdfrwt beam="1">  1        2 0.16423549E+00 0.69384136E+03</pdfrwt>
<pdfrwt beam="2">  1       -2 0.41233644E-01 0.69384136E+03</pdfrwt>
<totfact> 0.12931945E+02</totfact>
</mgrwt>
</event>
<event>
 4    1  0.6502538E-008  0.1480515E+04  0.7818608E-02  0.8923519E-01
          2   -1    0    0  501    0  0.00000000000E+00  0.00000000000E+00  0.26134256462E+04  0.26134256462E+04  0.25500000000E-02 0. -1.
         -2   -1    0    0    0  501 -0.00000000000E+00 -0.00000000000E+00 -0.86739589941E+03  0.86739589942E+03  0.25500000000E-02 0.  1.
    8880023    1    1    2    0    0  0.12738106458E+04  0.36813047080E+03  0.15294248405E+04  0.21286296423E+04  0.65864270000E+03 0.  0.
    8880022    1    1    2    0    0 -0.12738106458E+04 -0.36813047080E+03  0.21660490626E+03  0.13521919033E+04  0.15294330000E+03 0.  0.
<mgrwt>
<rscale>  0 0.14426399E+04</rscale>
<asrwt>0</asrwt>
<pdfrwt beam="1">  1        2 0.40206548E+00 0.14805147E+04</pdfrwt>
<pdfrwt beam="2">  1       -2 0.13344552E+00 0.14805147E+04</pdfrwt>
<totfact> 0.11533159E+00</totfact>
</mgrwt>
</event>
<event>
 4    1  0.6502538E-008  0.7183656E+03  0.7818608E-02  0.9928156E-01
         -2   -1    0    0    0  501 -0.00000000000E+00  0.00000000000E+00  0.59252880398E+03  0.59252880399E+03  0.25500000000E-02 0.  1.
          2   -1    0    0  501    0  0.00000000000E+00 -0.00000000000E+00 -0.67440065024E+03  0.67440065025E+03  0.25500000000E-02 0. -1.
    8880023    1    1    2    0    0 -0.25583654402E+03 -0.12956281397E+03 -0.39143256618E+03  0.81808833273E+03  0.65864270000E+03 0.  0.
    8880022    1    1    2    0    0  0.25583654402E+03  0.12956281397E+03  0.30956071992E+03  0.44884112150E+03  0.15294330000E+03 0.  0.
<mgrwt>
<rscale>  0 0.58915938E+03</rscale>
<asrwt>0</asrwt>
<pdfrwt beam="1">  1        2 0.10375395E+00 0.71836555E+03</pdfrwt>
<pdfrwt beam="2">  1       -2 0.91158278E-01 0.71836555E+03</pdfrwt>
<totfact> 0.44737484E+01</totfact>
</mgrwt>
</event>
<event>
 4    1  0.6502538E-008  0.7753844E+03  0.7818608E-02  0.9766793E-01
          2   -1    0    0  501    0  0.00000000000E+00  0.00000000000E+00  0.34047831026E+04  0.34047831026E+04  0.25500000000E-02 0. -1.
         -2   -1    0    0    0  501 -0.00000000000E+00 -0.00000000000E+00 -0.29212514845E+03  0.29212514846E+03  0.25500000000E-02 0.  1.
    8880023    1    1    2    0    0  0.19760573241E+03 -0.35827746178E+03  0.31635102835E+04  0.32571487969E+04  0.65864270000E+03 0. -1.
    8880022    1    1    2    0    0 -0.19760573241E+03  0.35827746178E+03 -0.50852329355E+02  0.43975945415E+03  0.15294330000E+03 0.  0.
<mgrwt>
<rscale>  0 0.67175480E+03</rscale>
<asrwt>0</asrwt>
<pdfrwt beam="1">  1        2 0.52381281E+00 0.77538440E+03</pdfrwt>
<pdfrwt beam="2">  1       -2 0.44942328E-01 0.77538440E+03</pdfrwt>
<totfact> 0.47763325E+00</totfact>
</mgrwt>
</event>
<event>
 4    1  0.6502538E-008  0.1084416E+04  0.7818608E-02  0.9278609E-01
          2   -1    0    0  501    0  0.00000000000E+00  0.00000000000E+00  0.13112561899E+04  0.13112561899E+04  0.25500000000E-02 0. -1.
         -2   -1    0    0    0  501 -0.00000000000E+00 -0.00000000000E+00 -0.98943363454E+03  0.98943363455E+03  0.25500000000E-02 0.  1.
    8880023    1    1    2    0    0  0.59413800764E+03 -0.62381695004E+03 -0.41069857000E+03  0.11595822873E+04  0.65864270000E+03 0.  0.
    8880022    1    1    2    0    0 -0.59413800764E+03  0.62381695004E+03  0.73252112534E+03  0.11411075372E+04  0.15294330000E+03 0.  0.
<mgrwt>
<rscale>  0 0.10277626E+04</rscale>
<asrwt>0</asrwt>
<pdfrwt beam="1">  1        2 0.20173172E+00 0.10844159E+04</pdfrwt>
<pdfrwt beam="2">  1       -2 0.15222056E+00 0.10844159E+04</pdfrwt>
<totfact> 0.46120088E+00</totfact>
</mgrwt>
</event>
<event>
 4    1  0.6502538E-008  0.1076503E+04  0.7818608E-02  0.9287679E-01
          2   -1    0    0  501    0  0.00000000000E+00  0.00000000000E+00  0.17038539159E+04  0.17038539159E+04  0.25500000000E-02 0. -1.
         -2   -1    0    0    0  501 -0.00000000000E+00 -0.00000000000E+00 -0.68993402261E+03  0.68993402261E+03  0.25500000000E-02 0.  1.
    8880023    1    1    2    0    0 -0.55950799855E+02 -0.84965776552E+03  0.10816082043E+04  0.15260194377E+04  0.65864270000E+03 0.  0.
    8880022    1    1    2    0    0  0.55950799855E+02  0.84965776552E+03 -0.67688310966E+02  0.86776850079E+03  0.15294330000E+03 0.  0.
<mgrwt>
<rscale>  0 0.10192510E+04</rscale>
<asrwt>0</asrwt>
<pdfrwt beam="1">  1        2 0.26213137E+00 0.10765031E+04</pdfrwt>
<pdfrwt beam="2">  1       -2 0.10614370E+00 0.10765031E+04</pdfrwt>
<totfact> 0.69091690E+00</totfact>
</mgrwt>
</event>
<event>
 4    1  0.6502538E-008  0.1411639E+04  0.7818608E-02  0.8974692E-01
          2   -1    0    0  501    0  0.00000000000E+00  0.00000000000E+00  0.32880581499E+04  0.32880581499E+04  0.25500000000E-02 0. -1.
         -2   -1    0    0    0  501 -0.00000000000E+00 -0.00000000000E+00 -0.72794570037E+03  0.72794570037E+03  0.25500000000E-02 0.  1.
    8880023    1    1    2    0    0  0.12199784389E+04 -0.26564293058E+03  0.23489719533E+04  0.27405096244E+04  0.65864270000E+03 0. -1.
    8880022    1    1    2    0    0 -0.12199784389E+04  0.26564293058E+03  0.21114049627E+03  0.12754942259E+04  0.15294330000E+03 0.  0.
<mgrwt>
<rscale>  0 0.13715257E+04</rscale>
<asrwt>0</asrwt>
<pdfrwt beam="1">  1        2 0.50585511E+00 0.14116387E+04</pdfrwt>
<pdfrwt beam="2">  1       -2 0.11199164E+00 0.14116387E+04</pdfrwt>
<totfact> 0.69003268E-01</totfact>
</mgrwt>
</event>
<event>
 4    1  0.6502538E-008  0.7198335E+03  0.7818608E-02  0.9923150E-01
         -2   -1    0    0    0  501 -0.00000000000E+00  0.00000000000E+00  0.18729538782E+03  0.18729538783E+03  0.25500000000E-02 0.  1.
          2   -1    0    0  501    0  0.00000000000E+00 -0.00000000000E+00 -0.18952837971E+04  0.18952837971E+04  0.25500000000E-02 0. -1.
    8880023    1    1    2    0    0 -0.28913978863E+03  0.27354505647E+02 -0.15687691230E+04  0.17260350095E+04  0.65864270000E+03 0. -1.
    8880022    1    1    2    0    0  0.28913978863E+03 -0.27354505647E+02 -0.13921928622E+03  0.35654417541E+03  0.15294330000E+03 0.  0.
<mgrwt>
<rscale>  0 0.59152356E+03</rscale>
<asrwt>0</asrwt>
<pdfrwt beam="1">  1        2 0.29158211E+00 0.71983352E+03</pdfrwt>
<pdfrwt beam="2">  1       -2 0.28814676E-01 0.71983352E+03</pdfrwt>
<totfact> 0.86800125E+01</totfact>
</mgrwt>
</event>
<event>
 4    1  0.6869223E-008  0.1331527E+04  0.7818608E-02  0.9038802E-01
          2   -1    0    0  501    0  0.00000000000E+00  0.00000000000E+00  0.15756985193E+04  0.15756985193E+04  0.25500000000E-02 0. -1.
         -2   -1    0    0    0  501 -0.00000000000E+00 -0.00000000000E+00 -0.24480831603E+04  0.24480831603E+04  0.25500000000E-02 0.  1.
    8880023    1    1    2    0    0  0.37747502202E+03  0.10939223672E+04  0.11031684075E+04  0.17291455345E+04  0.65864270000E+03 0.  0.
    8880022    1    1    2    0    0 -0.37747502202E+03 -0.10939223672E+04 -0.19755530486E+04  0.22946361451E+04  0.15294330000E+03 0.  0.
<mgrwt>
<rscale>  0 0.12884166E+04</rscale>
<asrwt>0</asrwt>
<pdfrwt beam="1">  1        2 0.24241516E+00 0.13315268E+04</pdfrwt>
<pdfrwt beam="2">  1       -2 0.37662818E+00 0.13315268E+04</pdfrwt>
<totfact> 0.11666748E-01</totfact>
</mgrwt>
</event>
<event>
 4    1  0.6502538E-008  0.6616516E+03  0.7818608E-02  0.1022525E+00
          2   -1    0    0  501    0  0.00000000000E+00  0.00000000000E+00  0.50799585592E+03  0.50799585593E+03  0.25500000000E-02 0. -1.
         -2   -1    0    0    0  501 -0.00000000000E+00 -0.00000000000E+00 -0.42072964130E+03  0.42072964131E+03  0.25500000000E-02 0.  1.
    8880023    1    1    2    0    0  0.24010568424E+02 -0.58276204940E+02  0.23974730978E+03  0.70374825205E+03  0.65864270000E+03 0. -1.
    8880022    1    1    2    0    0 -0.24010568424E+02  0.58276204940E+02 -0.15248109515E+03  0.22497724519E+03  0.15294330000E+03 0.  0.
<mgrwt>
<rscale>  0 0.46786442E+03</rscale>
<asrwt>0</asrwt>
<pdfrwt beam="1">  1        2 0.78153208E-01 0.66165159E+03</pdfrwt>
<pdfrwt beam="2">  1       -2 0.64727638E-01 0.66165159E+03</pdfrwt>
<totfact> 0.13517666E+02</totfact>
</mgrwt>
</event>
<event>
 4    1  0.6502538E-008  0.1034706E+04  0.7818608E-02  0.9337497E-01
         -2   -1    0    0    0  501 -0.00000000000E+00  0.00000000000E+00  0.51615483630E+03  0.51615483631E+03  0.25500000000E-02 0.  1.
          2   -1    0    0  501    0  0.00000000000E+00 -0.00000000000E+00 -0.40184506399E+04  0.40184506399E+04  0.25500000000E-02 0. -1.
    8880023    1    1    2    0    0 -0.64960913706E+03  0.46348022230E+03 -0.35722406224E+04  0.37190750487E+04  0.65864270000E+03 0.  0.
    8880022    1    1    2    0    0  0.64960913706E+03 -0.46348022230E+03  0.69944818825E+02  0.81553042746E+03  0.15294330000E+03 0.  0.
<mgrwt>
<rscale>  0 0.97402906E+03</rscale>
<asrwt>0</asrwt>
<pdfrwt beam="1">  1        2 0.61822315E+00 0.10347058E+04</pdfrwt>
<pdfrwt beam="2">  1       -2 0.79408439E-01 0.10347058E+04</pdfrwt>
<totfact> 0.48619894E-01</totfact>
</mgrwt>
</event>
<event>
 4    1  0.6502538E-008  0.8780428E+03  0.7818608E-02  0.9562241E-01
          2   -1    0    0  501    0  0.00000000000E+00  0.00000000000E+00  0.34830314934E+04  0.34830314934E+04  0.25500000000E-02 0. -1.
         -2   -1    0    0    0  501 -0.00000000000E+00 -0.00000000000E+00 -0.38096476733E+03  0.38096476734E+03  0.25500000000E-02 0.  1.
    8880023    1    1    2    0    0  0.39456431726E+03  0.42599061742E+03  0.31418440354E+04  0.32622297828E+04  0.65864270000E+03 0. -1.
    8880022    1    1    2    0    0 -0.39456431726E+03 -0.42599061742E+03 -0.39777309394E+02  0.60176647791E+03  0.15294330000E+03 0.  0.
<mgrwt>
<rscale>  0 0.79846532E+03</rscale>
<asrwt>0</asrwt>
<pdfrwt beam="1">  1        2 0.53585102E+00 0.87804283E+03</pdfrwt>
<pdfrwt beam="2">  1       -2 0.58609962E-01 0.87804283E+03</pdfrwt>
<totfact> 0.24063600E+00</totfact>
</mgrwt>
</event>
<event>
 4    1  0.6502538E-008  0.8000302E+03  0.7818608E-02  0.9710731E-01
          2   -1    0    0  501    0  0.00000000000E+00  0.00000000000E+00  0.37854018928E+04  0.37854018928E+04  0.25500000000E-02 0. -1.
         -2   -1    0    0    0  501 -0.00000000000E+00 -0.00000000000E+00 -0.11139440413E+04  0.11139440413E+04  0.25500000000E-02 0.  1.
    8880023    1    1    2    0    0  0.40240552308E+03  0.21049429365E+03  0.36889255504E+04  0.37746814402E+04  0.65864270000E+03 0. -1.
    8880022    1    1    2    0    0 -0.40240552308E+03 -0.21049429365E+03 -0.10174676989E+04  0.11246644939E+04  0.15294330000E+03 0.  0.
<mgrwt>
<rscale>  0 0.70381461E+03</rscale>
<asrwt>0</asrwt>
<pdfrwt beam="1">  1        2 0.58236953E+00 0.80003016E+03</pdfrwt>
<pdfrwt beam="2">  1       -2 0.17137600E+00 0.80003016E+03</pdfrwt>
<totfact> 0.11459813E-01</totfact>
</mgrwt>
</event>
<event>
 4    1  0.6502538E-008  0.1338889E+04  0.7818608E-02  0.9032684E-01
         -2   -1    0    0    0  501 -0.00000000000E+00  0.00000000000E+00  0.68351230606E+03  0.68351230606E+03  0.25500000000E-02 0.  1.
          2   -1    0    0  501    0  0.00000000000E+00 -0.00000000000E+00 -0.37735003126E+04  0.37735003126E+04  0.25500000000E-02 0. -1.
    8880023    1    1    2    0    0  0.11451786410E+04 -0.21766978520E+03 -0.29912217239E+04  0.32771987830E+04  0.65864270000E+03 0. -1.
    8880022    1    1    2    0    0 -0.11451786410E+04  0.21766978520E+03 -0.98766282618E+02  0.11798138357E+04  0.15294330000E+03 0.  0.
<mgrwt>
<rscale>  0 0.12960749E+04</rscale>
<asrwt>0</asrwt>
<pdfrwt beam="1">  1        2 0.58053850E+00 0.13388893E+04</pdfrwt>
<pdfrwt beam="2">  1       -2 0.10515574E+00 0.13388893E+04</pdfrwt>
<totfact> 0.37143627E-01</totfact>
</mgrwt>
</event>
<event>
 4    1  0.6502538E-008  0.1280114E+04  0.7818608E-02  0.9082926E-01
          2   -1    0    0  501    0  0.00000000000E+00  0.00000000000E+00  0.21550164784E+04  0.21550164784E+04  0.25500000000E-02 0. -1.
         -2   -1    0    0    0  501 -0.00000000000E+00 -0.00000000000E+00 -0.12598903737E+04  0.12598903737E+04  0.25500000000E-02 0.  1.
    8880023    1    1    2    0    0 -0.34456207392E+03 -0.10421891051E+04  0.16393467891E+04  0.20799397238E+04  0.65864270000E+03 0. -1.
    8880022    1    1    2    0    0  0.34456207392E+03  0.10421891051E+04 -0.74422068439E+03  0.13349671283E+04  0.15294330000E+03 0.  0.
<mgrwt>
<rscale>  0 0.12348047E+04</rscale>
<asrwt>0</asrwt>
<pdfrwt beam="1">  1        2 0.33154099E+00 0.12801138E+04</pdfrwt>
<pdfrwt beam="2">  1       -2 0.19382929E+00 0.12801138E+04</pdfrwt>
<totfact> 0.76996816E-01</totfact>
</mgrwt>
</event>
<event>
 4    1  0.6502538E-008  0.7150290E+03  0.7818608E-02  0.9939779E-01
          2   -1    0    0  501    0  0.00000000000E+00  0.00000000000E+00  0.90879770888E+03  0.90879770889E+03  0.25500000000E-02 0. -1.
         -2   -1    0    0    0  501 -0.00000000000E+00 -0.00000000000E+00 -0.48591209329E+03  0.48591209330E+03  0.25500000000E-02 0.  1.
    8880023    1    1    2    0    0 -0.15695192490E+03  0.22983127977E+03  0.67951600875E+03  0.98641195061E+03  0.65864270000E+03 0. -1.
    8880022    1    1    2    0    0  0.15695192490E+03 -0.22983127977E+03 -0.25663039316E+03  0.40829785157E+03  0.15294330000E+03 0.  0.
<mgrwt>
<rscale>  0 0.58371541E+03</rscale>
<asrwt>0</asrwt>
<pdfrwt beam="1">  1        2 0.13981503E+00 0.71502904E+03</pdfrwt>
<pdfrwt beam="2">  1       -2 0.74755708E-01 0.71502904E+03</pdfrwt>
<totfact> 0.47344901E+01</totfact>
</mgrwt>
</event>
<event>
 4    1  0.6502538E-008  0.1254110E+04  0.7818608E-02  0.9106238E-01
          2   -1    0    0  501    0  0.00000000000E+00  0.00000000000E+00  0.13864448649E+04  0.13864448649E+04  0.25500000000E-02 0. -1.
         -2   -1    0    0    0  501 -0.00000000000E+00 -0.00000000000E+00 -0.17400371773E+04  0.17400371773E+04  0.25500000000E-02 0.  1.
    8880023    1    1    2    0    0 -0.10653494880E+04  0.63338373504E+02  0.84662668871E+03  0.15131319300E+04  0.65864270000E+03 0.  0.
    8880022    1    1    2    0    0  0.10653494880E+04 -0.63338373504E+02 -0.12002190011E+04  0.16133501123E+04  0.15294330000E+03 0.  0.
<mgrwt>
<rscale>  0 0.12075910E+04</rscale>
<asrwt>0</asrwt>
<pdfrwt beam="1">  1        2 0.21329921E+00 0.12541098E+04</pdfrwt>
<pdfrwt beam="2">  1       -2 0.26769803E+00 0.12541098E+04</pdfrwt>
<totfact> 0.71297231E-01</totfact>
</mgrwt>
</event>
<event>
 4    1  0.6502538E-008  0.7765341E+03  0.7818608E-02  0.9764042E-01
         -2   -1    0    0    0  501 -0.00000000000E+00  0.00000000000E+00  0.28215074542E+03  0.28215074543E+03  0.25500000000E-02 0.  1.
          2   -1    0    0  501    0  0.00000000000E+00 -0.00000000000E+00 -0.24027880651E+04  0.24027880651E+04  0.25500000000E-02 0. -1.
    8880023    1    1    2    0    0 -0.17479770268E+03 -0.37234492304E+03 -0.21073735677E+04  0.22458914797E+04  0.65864270000E+03 0. -1.
    8880022    1    1    2    0    0  0.17479770268E+03  0.37234492304E+03 -0.13263751993E+02  0.43904733083E+03  0.15294330000E+03 0.  0.
<mgrwt>
<rscale>  0 0.67328457E+03</rscale>
<asrwt>0</asrwt>
<pdfrwt beam="1">  1        2 0.36965969E+00 0.77653408E+03</pdfrwt>
<pdfrwt beam="2">  1       -2 0.43407809E-01 0.77653408E+03</pdfrwt>
<totfact> 0.20712853E+01</totfact>
</mgrwt>
</event>
<event>
 4    1  0.6502538E-008  0.7406273E+03  0.7818608E-02  0.9858124E-01
          2   -1    0    0  501    0  0.00000000000E+00  0.00000000000E+00  0.58569447626E+03  0.58569447626E+03  0.25500000000E-02 0. -1.
         -2   -1    0    0    0  501 -0.00000000000E+00 -0.00000000000E+00 -0.61106309512E+03  0.61106309512E+03  0.25500000000E-02 0.  1.
    8880023    1    1    2    0    0 -0.33471628027E+03 -0.51803523617E+02 -0.22611129364E+03  0.77437401604E+03  0.65864270000E+03 0.  1.
    8880022    1    1    2    0    0  0.33471628027E+03  0.51803523617E+02  0.20074267478E+03  0.42238355535E+03  0.15294330000E+03 0.  0.
<mgrwt>
<rscale>  0 0.62334435E+03</rscale>
<asrwt>0</asrwt>
<pdfrwt beam="1">  1        2 0.90106843E-01 0.74062730E+03</pdfrwt>
<pdfrwt beam="2">  1       -2 0.94009706E-01 0.74062730E+03</pdfrwt>
<totfact> 0.49399944E+01</totfact>
</mgrwt>
</event>
<event>
 4    1  0.6502538E-008  0.1015400E+04  0.7818608E-02  0.9361682E-01
         -2   -1    0    0    0  501 -0.00000000000E+00  0.00000000000E+00  0.22431873924E+03  0.22431873926E+03  0.25500000000E-02 0.  1.
          2   -1    0    0  501    0  0.00000000000E+00 -0.00000000000E+00 -0.41985248197E+04  0.41985248197E+04  0.25500000000E-02 0. -1.
    8880023    1    1    2    0    0  0.53742016697E+02  0.77093346452E+03 -0.30161609365E+04  0.31824933012E+04  0.65864270000E+03 0.  0.
    8880022    1    1    2    0    0 -0.53742016697E+02 -0.77093346452E+03 -0.95804514404E+03  0.12403502578E+04  0.15294330000E+03 0.  0.
<mgrwt>
<rscale>  0 0.95297363E+03</rscale>
<asrwt>0</asrwt>
<pdfrwt beam="1">  1        2 0.64592684E+00 0.10153998E+04</pdfrwt>
<pdfrwt beam="2">  1       -2 0.34510578E-01 0.10153998E+04</pdfrwt>
<totfact> 0.19446111E+00</totfact>
</mgrwt>
</event>
<event>
 4    1  0.6502538E-008  0.9090844E+03  0.7818608E-02  0.9511603E-01
         -2   -1    0    0    0  501 -0.00000000000E+00  0.00000000000E+00  0.36814499068E+03  0.36814499069E+03  0.25500000000E-02 0.  1.
          2   -1    0    0  501    0  0.00000000000E+00 -0.00000000000E+00 -0.40580116632E+04  0.40580116632E+04  0.25500000000E-02 0. -1.
    8880023    1    1    2    0    0  0.41321720039E+03 -0.47103695363E+03 -0.36699368589E+04  0.37808558582E+04  0.65864270000E+03 0. -1.
    8880022    1    1    2    0    0 -0.41321720039E+03  0.47103695363E+03 -0.19929813642E+02  0.64530079565E+03  0.15294330000E+03 0.  0.
<mgrwt>
<rscale>  0 0.83433777E+03</rscale>
<asrwt>0</asrwt>
<pdfrwt beam="1">  1        2 0.62430945E+00 0.90908441E+03</pdfrwt>
<pdfrwt beam="2">  1       -2 0.56637694E-01 0.90908441E+03</pdfrwt>
<totfact> 0.96487502E-01</totfact>
</mgrwt>
</event>
<event>
 4    1  0.6502538E-008  0.1135654E+04  0.7818608E-02  0.9222361E-01
          2   -1    0    0  501    0  0.00000000000E+00  0.00000000000E+00  0.19959120010E+04  0.19959120010E+04  0.25500000000E-02 0. -1.
         -2   -1    0    0    0  501 -0.00000000000E+00 -0.00000000000E+00 -0.67186351314E+03  0.67186351315E+03  0.25500000000E-02 0.  1.
    8880023    1    1    2    0    0 -0.76724150236E+03  0.51695296741E+03  0.13048967953E+04  0.17298744885E+04  0.65864270000E+03 0.  0.
    8880022    1    1    2    0    0  0.76724150236E+03 -0.51695296741E+03  0.19151692541E+02  0.93790102559E+03  0.15294330000E+03 0.  0.
<mgrwt>
<rscale>  0 0.10825579E+04</rscale>
<asrwt>0</asrwt>
<pdfrwt beam="1">  1        2 0.30706338E+00 0.11356540E+04</pdfrwt>
<pdfrwt beam="2">  1       -2 0.10336362E+00 0.11356540E+04</pdfrwt>
<totfact> 0.50495264E+00</totfact>
</mgrwt>
</event>
<event>
 4    1  0.6502538E-008  0.1192429E+04  0.7818608E-02  0.9164517E-01
          2   -1    0    0  501    0  0.00000000000E+00  0.00000000000E+00  0.11374297952E+04  0.11374297952E+04  0.25500000000E-02 0. -1.
         -2   -1    0    0    0  501 -0.00000000000E+00 -0.00000000000E+00 -0.18097897358E+04  0.18097897358E+04  0.25500000000E-02 0.  1.
    8880023    1    1    2    0    0 -0.59686721296E+03 -0.79487570468E+03  0.59228480047E+03  0.13314238044E+04  0.65864270000E+03 0.  0.
    8880022    1    1    2    0    0  0.59686721296E+03  0.79487570468E+03 -0.12646447411E+04  0.16157957266E+04  0.15294330000E+03 0.  0.
<mgrwt>
<rscale>  0 0.11427300E+04</rscale>
<asrwt>0</asrwt>
<pdfrwt beam="1">  1        2 0.17498920E+00 0.11924295E+04</pdfrwt>
<pdfrwt beam="2">  1       -2 0.27842919E+00 0.11924295E+04</pdfrwt>
<totfact> 0.86826404E-01</totfact>
</mgrwt>
</event>
<event>
 4    1  0.6502538E-008  0.1325257E+04  0.7818608E-02  0.9044050E-01
          2   -1    0    0  501    0  0.00000000000E+00  0.00000000000E+00  0.15698204663E+04  0.15698204663E+04  0.25500000000E-02 0. -1.
         -2   -1    0    0    0  501 -0.00000000000E+00 -0.00000000000E+00 -0.12674192892E+04  0.12674192893E+04  0.25500000000E-02 0.  1.
    8880023    1    1    2    0    0 -0.11499643914E+04  0.87631445860E+01 -0.51101385235E+03  0.14203662407E+04  0.65864270000E+03 0.  0.
    8880022    1    1    2    0    0  0.11499643914E+04 -0.87631445860E+01  0.81341502941E+03  0.14168735149E+04  0.15294330000E+03 0.  0.
<mgrwt>
<rscale>  0 0.12818908E+04</rscale>
<asrwt>0</asrwt>
<pdfrwt beam="1">  1        2 0.24151084E+00 0.13252566E+04</pdfrwt>
<pdfrwt beam="2">  1       -2 0.19498758E+00 0.13252566E+04</pdfrwt>
<totfact> 0.15936232E+00</totfact>
</mgrwt>
</event>
<event>
 4    1  0.6502538E-008  0.1584550E+04  0.7818608E-02  0.8852130E-01
         -2   -1    0    0    0  501 -0.00000000000E+00  0.00000000000E+00  0.13589376357E+04  0.13589376357E+04  0.25500000000E-02 0.  1.
          2   -1    0    0  501    0  0.00000000000E+00 -0.00000000000E+00 -0.21560081204E+04  0.21560081204E+04  0.25500000000E-02 0. -1.
    8880023    1    1    2    0    0  0.12843521749E+04  0.65377890269E+03 -0.12260787911E+04  0.20035136064E+04  0.65864270000E+03 0.  0.
    8880022    1    1    2    0    0 -0.12843521749E+04 -0.65377890269E+03  0.42900830641E+03  0.15114321496E+04  0.15294330000E+03 0.  0.
<mgrwt>
<rscale>  0 0.15495893E+04</rscale>
<asrwt>0</asrwt>
<pdfrwt beam="1">  1        2 0.33169356E+00 0.15845496E+04</pdfrwt>
<pdfrwt beam="2">  1       -2 0.20906733E+00 0.15845496E+04</pdfrwt>
<totfact> 0.59060069E-01</totfact>
</mgrwt>
</event>
<event>
 4    1  0.6502538E-008  0.1149843E+04  0.7818608E-02  0.9207491E-01
         -2   -1    0    0    0  501 -0.00000000000E+00  0.00000000000E+00  0.16048048827E+04  0.16048048827E+04  0.25500000000E-02 0.  1.
          2   -1    0    0  501    0  0.00000000000E+00 -0.00000000000E+00 -0.16481448808E+04  0.16481448808E+04  0.25500000000E-02 0. -1.
    8880023    1    1    2    0    0 -0.55514513576E+03 -0.76167150819E+03 -0.12603606722E+04  0.17060623783E+04  0.65864270000E+03 0. -1.
    8880022    1    1    2    0    0  0.55514513576E+03  0.76167150819E+03  0.12170206742E+04  0.15468873852E+04  0.15294330000E+03 0.  0.
<mgrwt>
<rscale>  0 0.10976447E+04</rscale>
<asrwt>0</asrwt>
<pdfrwt beam="1">  1        2 0.25356075E+00 0.11498434E+04</pdfrwt>
<pdfrwt beam="2">  1       -2 0.24689306E+00 0.11498434E+04</pdfrwt>
<totfact> 0.68837423E-01</totfact>
</mgrwt>
</event>
<event>
 4    1  0.6502538E-008  0.6834588E+03  0.7818608E-02  0.1007431E+00
         -2   -1    0    0    0  501 -0.00000000000E+00  0.00000000000E+00  0.31017804518E+03  0.31017804519E+03  0.25500000000E-02 0.  1.
          2   -1    0    0  501    0  0.00000000000E+00 -0.00000000000E+00 -0.25483083510E+04  0.25483083510E+04  0.25500000000E-02 0. -1.
    8880023    1    1    2    0    0 -0.18130918887E+03  0.20800108654E+02 -0.24476730874E+04  0.25413027005E+04  0.65864270000E+03 0.  0.
    8880022    1    1    2    0    0  0.18130918887E+03 -0.20800108654E+02  0.20954278158E+03  0.31718369569E+03  0.15294330000E+03 0.  1.
<mgrwt>
<rscale>  0 0.52508493E+03</rscale>
<asrwt>0</asrwt>
<pdfrwt beam="1">  1        2 0.39204743E+00 0.68345876E+03</pdfrwt>
<pdfrwt beam="2">  1       -2 0.47719701E-01 0.68345876E+03</pdfrwt>
<totfact> 0.14398605E+01</totfact>
</mgrwt>
</event>
<event>
 4    1  0.6502538E-008  0.7355211E+03  0.7818608E-02  0.9873191E-01
          2   -1    0    0  501    0  0.00000000000E+00  0.00000000000E+00  0.40832477095E+03  0.40832477096E+03  0.25500000000E-02 0. -1.
         -2   -1    0    0    0  501 -0.00000000000E+00 -0.00000000000E+00 -0.18150359916E+04  0.18150359916E+04  0.25500000000E-02 0.  1.
    8880023    1    1    2    0    0 -0.14584724013E+02  0.32706017600E+03  0.35689503100E+02  0.73638646090E+03  0.65864270000E+03 0. -1.
    8880022    1    1    2    0    0  0.14584724013E+02 -0.32706017600E+03 -0.14424007237E+04  0.14869743017E+04  0.15294330000E+03 0.  0.
<mgrwt>
<rscale>  0 0.61578330E+03</rscale>
<asrwt>0</asrwt>
<pdfrwt beam="1">  1        2 0.62819196E-01 0.73552109E+03</pdfrwt>
<pdfrwt beam="2">  1       -2 0.27923630E+00 0.73552109E+03</pdfrwt>
<totfact> 0.34310932E+00</totfact>
</mgrwt>
</event>
<event>
 4    1  0.6502538E-008  0.7160651E+03  0.7818608E-02  0.9936132E-01
         -2   -1    0    0    0  501 -0.00000000000E+00  0.00000000000E+00  0.20648529338E+03  0.20648529339E+03  0.25500000000E-02 0.  1.
          2   -1    0    0  501    0  0.00000000000E+00 -0.00000000000E+00 -0.39457449246E+04  0.39457449246E+04  0.25500000000E-02 0. -1.
    8880023    1    1    2    0    0 -0.27855269732E+03 -0.36707633577E+02 -0.37638832303E+04  0.38313922056E+04  0.65864270000E+03 0. -1.
    8880022    1    1    2    0    0  0.27855269732E+03  0.36707633577E+02  0.24623599076E+02  0.32083801239E+03  0.15294330000E+03 0.  0.
<mgrwt>
<rscale>  0 0.58541674E+03</rscale>
<asrwt>0</asrwt>
<pdfrwt beam="1">  1        2 0.60703762E+00 0.71606512E+03</pdfrwt>
<pdfrwt beam="2">  1       -2 0.31766971E-01 0.71606512E+03</pdfrwt>
<totfact> 0.38724558E+00</totfact>
</mgrwt>
</event>
<event>
 4    1  0.6502538E-008  0.8686911E+03  0.7818608E-02  0.9578287E-01
         -2   -1    0    0    0  501 -0.00000000000E+00  0.00000000000E+00  0.23222407209E+04  0.23222407209E+04  0.25500000000E-02 0.  1.
          2   -1    0    0  501    0  0.00000000000E+00 -0.00000000000E+00 -0.75567105529E+03  0.75567105530E+03  0.25500000000E-02 0. -1.
    8880023    1    1    2    0    0 -0.34962350562E+03 -0.44562035994E+03 -0.44958011827E+03  0.97813423919E+03  0.65864270000E+03 0. -1.
    8880022    1    1    2    0    0  0.34962350562E+03  0.44562035994E+03  0.20161497838E+04  0.20997775370E+04  0.15294330000E+03 0.  0.
<mgrwt>
<rscale>  0 0.78750136E+03</rscale>
<asrwt>0</asrwt>
<pdfrwt beam="1">  1        2 0.11625709E+00 0.86869115E+03</pdfrwt>
<pdfrwt beam="2">  1       -2 0.35726780E+00 0.86869115E+03</pdfrwt>
<totfact> 0.53775621E-01</totfact>
</mgrwt>
</event>
<event>
 4    1  0.6502538E-008  0.9196102E+03  0.7818608E-02  0.9495257E-01
         -2   -1    0    0    0  501 -0.00000000000E+00  0.00000000000E+00  0.73860553726E+03  0.73860553727E+03  0.25500000000E-02 0.  1.
          2   -1    0    0  501    0  0.00000000000E+00 -0.00000000000E+00 -0.17355828014E+04  0.17355828014E+04  0.25500000000E-02 0. -1.
    8880023    1    1    2    0    0 -0.39095658548E+03 -0.50894556823E+03 -0.14190585231E+04  0.16909789891E+04  0.65864270000E+03 0.  1.
    8880022    1    1    2    0    0  0.39095658548E+03  0.50894556823E+03  0.42208125896E+03  0.78320934962E+03  0.15294330000E+03 0.  0.
<mgrwt>
<rscale>  0 0.84634406E+03</rscale>
<asrwt>0</asrwt>
<pdfrwt beam="1">  1        2 0.26701274E+00 0.91961016E+03</pdfrwt>
<pdfrwt beam="2">  1       -2 0.11363162E+00 0.91961016E+03</pdfrwt>
<totfact> 0.57230290E+00</totfact>
</mgrwt>
</event>
<event>
 4    1  0.6502538E-008  0.6744137E+03  0.7818608E-02  0.1012678E+00
         -2   -1    0    0    0  501 -0.00000000000E+00  0.00000000000E+00  0.34042022537E+03  0.34042022538E+03  0.25500000000E-02 0.  1.
          2   -1    0    0  501    0  0.00000000000E+00 -0.00000000000E+00 -0.19956763115E+04  0.19956763115E+04  0.25500000000E-02 0. -1.
    8880023    1    1    2    0    0 -0.61282829216E+02  0.13140780215E+03 -0.18982195762E+04  0.20144655275E+04  0.65864270000E+03 0. -1.
    8880022    1    1    2    0    0  0.61282829216E+02 -0.13140780215E+03  0.24296349013E+03  0.32163100935E+03  0.15294330000E+03 0.  0.
<mgrwt>
<rscale>  0 0.50423883E+03</rscale>
<asrwt>0</asrwt>
<pdfrwt beam="1">  1        2 0.30702712E+00 0.67441367E+03</pdfrwt>
<pdfrwt beam="2">  1       -2 0.52372343E-01 0.67441367E+03</pdfrwt>
<totfact> 0.24146167E+01</totfact>
</mgrwt>
</event>
<event>
 4    1  0.6502538E-008  0.8372802E+03  0.7818608E-02  0.9635330E-01
          2   -1    0    0  501    0  0.00000000000E+00  0.00000000000E+00  0.24901189143E+04  0.24901189143E+04  0.25500000000E-02 0. -1.
         -2   -1    0    0    0  501 -0.00000000000E+00 -0.00000000000E+00 -0.34943822466E+03  0.34943822467E+03  0.25500000000E-02 0.  1.
    8880023    1    1    2    0    0  0.39239890607E+03 -0.33652777900E+03  0.21426823430E+04  0.23004620573E+04  0.65864270000E+03 0.  0.
    8880022    1    1    2    0    0 -0.39239890607E+03  0.33652777900E+03 -0.20016533630E+01  0.53909508174E+03  0.15294330000E+03 0.  0.
<mgrwt>
<rscale>  0 0.75001283E+03</rscale>
<asrwt>0</asrwt>
<pdfrwt beam="1">  1        2 0.38309522E+00 0.83728015E+03</pdfrwt>
<pdfrwt beam="2">  1       -2 0.53759726E-01 0.83728015E+03</pdfrwt>
<totfact> 0.11886669E+01</totfact>
</mgrwt>
</event>
<event>
 4    1  0.6502538E-008  0.9530093E+03  0.7818608E-02  0.9445797E-01
          2   -1    0    0  501    0  0.00000000000E+00  0.00000000000E+00  0.34412941601E+03  0.34412941602E+03  0.25500000000E-02 0. -1.
         -2   -1    0    0    0  501 -0.00000000000E+00 -0.00000000000E+00 -0.22485667807E+04  0.22485667807E+04  0.25500000000E-02 0.  1.
    8880023    1    1    2    0    0 -0.33739115770E+03  0.60048629422E+03 -0.15065787833E+04  0.17826963902E+04  0.65864270000E+03 0.  1.
    8880022    1    1    2    0    0  0.33739115770E+03 -0.60048629422E+03 -0.39785858134E+03  0.80999980655E+03  0.15294330000E+03 0.  0.
<mgrwt>
<rscale>  0 0.88400684E+03</rscale>
<asrwt>0</asrwt>
<pdfrwt beam="1">  1        2 0.52942988E-01 0.95300933E+03</pdfrwt>
<pdfrwt beam="2">  1       -2 0.34593334E+00 0.95300933E+03</pdfrwt>
<totfact> 0.15882233E+00</totfact>
</mgrwt>
</event>
<event>
 4    1  0.6502538E-008  0.1376445E+04  0.7818608E-02  0.9002205E-01
         -2   -1    0    0    0  501 -0.00000000000E+00  0.00000000000E+00  0.14234382312E+04  0.14234382312E+04  0.25500000000E-02 0.  1.
          2   -1    0    0  501    0  0.00000000000E+00 -0.00000000000E+00 -0.20449151315E+04  0.20449151315E+04  0.25500000000E-02 0. -1.
    8880023    1    1    2    0    0  0.83347715373E+03 -0.87527586486E+03 -0.14467124742E+04  0.19968923843E+04  0.65864270000E+03 0.  0.
    8880022    1    1    2    0    0 -0.83347715373E+03  0.87527586486E+03  0.82523557385E+03  0.14714609783E+04  0.15294330000E+03 0.  0.
<mgrwt>
<rscale>  0 0.13350736E+04</rscale>
<asrwt>0</asrwt>
<pdfrwt beam="1">  1        2 0.31460233E+00 0.13764455E+04</pdfrwt>
<pdfrwt beam="2">  1       -2 0.21899050E+00 0.13764455E+04</pdfrwt>
<totfact> 0.60166908E-01</totfact>
</mgrwt>
</event>
<event>
 4    1  0.6502538E-008  0.1305289E+04  0.7818608E-02  0.9061006E-01
         -2   -1    0    0    0  501 -0.00000000000E+00  0.00000000000E+00  0.85416825799E+03  0.85416825800E+03  0.25500000000E-02 0.  1.
          2   -1    0    0  501    0  0.00000000000E+00 -0.00000000000E+00 -0.27607152949E+04  0.27607152949E+04  0.25500000000E-02 0. -1.
    8880023    1    1    2    0    0 -0.10988817837E+04 -0.24985599788E+03 -0.20888115841E+04  0.24631104796E+04  0.65864270000E+03 0. -1.
    8880022    1    1    2    0    0  0.10988817837E+04  0.24985599788E+03  0.18226454724E+03  0.11517730733E+04  0.15294330000E+03 0.  0.
<mgrwt>
<rscale>  0 0.12610868E+04</rscale>
<asrwt>0</asrwt>
<pdfrwt beam="1">  1        2 0.42472542E+00 0.13052890E+04</pdfrwt>
<pdfrwt beam="2">  1       -2 0.13141050E+00 0.13052890E+04</pdfrwt>
<totfact> 0.10009142E+00</totfact>
</mgrwt>
</event>
<event>
 4    1  0.6502538E-008  0.8339367E+03  0.7818608E-02  0.9641721E-01
         -2   -1    0    0    0  501 -0.00000000000E+00  0.00000000000E+00  0.82730054121E+03  0.82730054122E+03  0.25500000000E-02 0.  1.
          2   -1    0    0  501    0  0.00000000000E+00 -0.00000000000E+00 -0.19023013810E+04  0.19023013810E+04  0.25500000000E-02 0. -1.
    8880023    1    1    2    0    0  0.72412177188E+02  0.50635630848E+03 -0.17084844445E+04  0.19011495307E+04  0.65864270000E+03 0. -1.
    8880022    1    1    2    0    0 -0.72412177188E+02 -0.50635630848E+03  0.63348360474E+03  0.82845239153E+03  0.15294330000E+03 0.  0.
<mgrwt>
<rscale>  0 0.74595306E+03</rscale>
<asrwt>0</asrwt>
<pdfrwt beam="1">  1        2 0.29266175E+00 0.83393671E+03</pdfrwt>
<pdfrwt beam="2">  1       -2 0.12727701E+00 0.83393671E+03</pdfrwt>
<totfact> 0.35398517E+00</totfact>
</mgrwt>
</event>
<event>
 4    1  0.6502538E-008  0.7499865E+03  0.7818608E-02  0.9831757E-01
          2   -1    0    0  501    0  0.00000000000E+00  0.00000000000E+00  0.25275446445E+04  0.25275446445E+04  0.25500000000E-02 0. -1.
         -2   -1    0    0    0  501 -0.00000000000E+00 -0.00000000000E+00 -0.39360551706E+03  0.39360551707E+03  0.25500000000E-02 0.  1.
    8880023    1    1    2    0    0  0.35832526765E+03 -0.16510455925E+02  0.23559399847E+04  0.24724346322E+04  0.65864270000E+03 0. -1.
    8880022    1    1    2    0    0 -0.35832526765E+03  0.16510455925E+02 -0.22200085733E+03  0.44871552933E+03  0.15294330000E+03 0.  0.
<mgrwt>
<rscale>  0 0.63685772E+03</rscale>
<asrwt>0</asrwt>
<pdfrwt beam="1">  1        2 0.38885302E+00 0.74998653E+03</pdfrwt>
<pdfrwt beam="2">  1       -2 0.60554696E-01 0.74998653E+03</pdfrwt>
<totfact> 0.89447472E+00</totfact>
</mgrwt>
</event>
<event>
 4    1  0.6502538E-008  0.1177818E+04  0.7818608E-02  0.9178993E-01
          2   -1    0    0  501    0  0.00000000000E+00  0.00000000000E+00  0.10038965306E+04  0.10038965306E+04  0.25500000000E-02 0. -1.
         -2   -1    0    0    0  501 -0.00000000000E+00 -0.00000000000E+00 -0.15230299058E+04  0.15230299058E+04  0.25500000000E-02 0.  1.
    8880023    1    1    2    0    0  0.86155053264E+03  0.45953751648E+03  0.33079376482E+03  0.12233882337E+04  0.65864270000E+03 0.  0.
    8880022    1    1    2    0    0 -0.86155053264E+03 -0.45953751648E+03 -0.84992714004E+03  0.13035382026E+04  0.15294330000E+03 0.  0.
<mgrwt>
<rscale>  0 0.11272915E+04</rscale>
<asrwt>0</asrwt>
<pdfrwt beam="1">  1        2 0.15444562E+00 0.11778176E+04</pdfrwt>
<pdfrwt beam="2">  1       -2 0.23431229E+00 0.11778176E+04</pdfrwt>
<totfact> 0.19632112E+00</totfact>
</mgrwt>
</event>
<event>
 4    1  0.6502538E-008  0.7121246E+03  0.7818608E-02  0.9950194E-01
          2   -1    0    0  501    0  0.00000000000E+00  0.00000000000E+00  0.17345838300E+04  0.17345838300E+04  0.25500000000E-02 0. -1.
         -2   -1    0    0    0  501 -0.00000000000E+00 -0.00000000000E+00 -0.26247109514E+03  0.26247109515E+03  0.25500000000E-02 0.  1.
    8880023    1    1    2    0    0  0.26763663615E+03 -0.41011415209E+02  0.15236395550E+04  0.16818439301E+04  0.65864270000E+03 0.  0.
    8880022    1    1    2    0    0 -0.26763663615E+03  0.41011415209E+02 -0.51526820201E+02  0.31521099505E+03  0.15294330000E+03 0.  0.
<mgrwt>
<rscale>  0 0.57889125E+03</rscale>
<asrwt>0</asrwt>
<pdfrwt beam="1">  1        2 0.26685904E+00 0.71212465E+03</pdfrwt>
<pdfrwt beam="2">  1       -2 0.40380170E-01 0.71212465E+03</pdfrwt>
<totfact> 0.56052722E+01</totfact>
</mgrwt>
</event>
<event>
 4    1  0.6502538E-008  0.1203057E+04  0.7818608E-02  0.9154156E-01
          2   -1    0    0  501    0  0.00000000000E+00  0.00000000000E+00  0.31394449936E+04  0.31394449936E+04  0.25500000000E-02 0. -1.
         -2   -1    0    0    0  501 -0.00000000000E+00 -0.00000000000E+00 -0.52196230145E+03  0.52196230146E+03  0.25500000000E-02 0.  1.
    8880023    1    1    2    0    0  0.42044649350E+03  0.91474670134E+03  0.22985129661E+04  0.25943224246E+04  0.65864270000E+03 0.  0.
    8880022    1    1    2    0    0 -0.42044649350E+03 -0.91474670134E+03  0.31896972607E+03  0.10670848704E+04  0.15294330000E+03 0.  0.
<mgrwt>
<rscale>  0 0.11539403E+04</rscale>
<asrwt>0</asrwt>
<pdfrwt beam="1">  1        2 0.48299155E+00 0.12030574E+04</pdfrwt>
<pdfrwt beam="2">  1       -2 0.80301891E-01 0.12030574E+04</pdfrwt>
<totfact> 0.19370540E+00</totfact>
</mgrwt>
</event>
<event>
 4    1  0.6502538E-008  0.1114225E+04  0.7818608E-02  0.9245382E-01
         -2   -1    0    0    0  501 -0.00000000000E+00  0.00000000000E+00  0.99466160789E+03  0.99466160790E+03  0.25500000000E-02 0.  1.
          2   -1    0    0  501    0  0.00000000000E+00 -0.00000000000E+00 -0.17721331835E+04  0.17721331835E+04  0.25500000000E-02 0. -1.
    8880023    1    1    2    0    0  0.65421147334E+03  0.61619308299E+03 -0.13030722402E+04  0.17144952718E+04  0.65864270000E+03 0.  0.
    8880022    1    1    2    0    0 -0.65421147334E+03 -0.61619308299E+03  0.52560066462E+03  0.10522995196E+04  0.15294330000E+03 0.  0.
<mgrwt>
<rscale>  0 0.10597046E+04</rscale>
<asrwt>0</asrwt>
<pdfrwt beam="1">  1        2 0.27263587E+00 0.11142247E+04</pdfrwt>
<pdfrwt beam="2">  1       -2 0.15302486E+00 0.11142247E+04</pdfrwt>
<totfact> 0.24930111E+00</totfact>
</mgrwt>
</event>
<event>
 4    1  0.6502538E-008  0.9477649E+03  0.7818608E-02  0.9453337E-01
         -2   -1    0    0    0  501 -0.00000000000E+00  0.00000000000E+00  0.38754009217E+03  0.38754009218E+03  0.25500000000E-02 0.  1.
          2   -1    0    0  501    0  0.00000000000E+00 -0.00000000000E+00 -0.34140401125E+04  0.34140401125E+04  0.25500000000E-02 0. -1.
    8880023    1    1    2    0    0 -0.31683846478E+03  0.60337505727E+03 -0.29505203902E+04  0.30990044937E+04  0.65864270000E+03 0. -1.
    8880022    1    1    2    0    0  0.31683846478E+03 -0.60337505727E+03 -0.75979630123E+02  0.70257571101E+03  0.15294330000E+03 0.  0.
<mgrwt>
<rscale>  0 0.87813261E+03</rscale>
<asrwt>0</asrwt>
<pdfrwt beam="1">  1        2 0.52523692E+00 0.94776489E+03</pdfrwt>
<pdfrwt beam="2">  1       -2 0.59621555E-01 0.94776489E+03</pdfrwt>
<totfact> 0.25531474E+00</totfact>
</mgrwt>
</event>
<event>
 4    1  0.6502538E-008  0.6645500E+03  0.7818608E-02  0.1019914E+00
          2   -1    0    0  501    0  0.00000000000E+00  0.00000000000E+00  0.69809322579E+03  0.69809322579E+03  0.25500000000E-02 0. -1.
         -2   -1    0    0    0  501 -0.00000000000E+00 -0.00000000000E+00 -0.27974162487E+03  0.27974162488E+03  0.25500000000E-02 0.  1.
    8880023    1    1    2    0    0  0.60139659316E+02  0.64805428811E+02  0.44414002740E+03  0.79930413012E+03  0.65864270000E+03 0. -1.
    8880022    1    1    2    0    0 -0.60139659316E+02 -0.64805428811E+02 -0.25788426483E+02  0.17853072055E+03  0.15294330000E+03 0.  0.
<mgrwt>
<rscale>  0 0.47717678E+03</rscale>
<asrwt>0</asrwt>
<pdfrwt beam="1">  1        2 0.10739896E+00 0.66455002E+03</pdfrwt>
<pdfrwt beam="2">  1       -2 0.43037173E-01 0.66455002E+03</pdfrwt>
<totfact> 0.21329030E+02</totfact>
</mgrwt>
</event>
<event>
 4    1  0.6502538E-008  0.1160824E+04  0.7818608E-02  0.9196178E-01
         -2   -1    0    0    0  501 -0.00000000000E+00  0.00000000000E+00  0.42602454495E+03  0.42602454496E+03  0.25500000000E-02 0.  1.
          2   -1    0    0  501    0  0.00000000000E+00 -0.00000000000E+00 -0.33407596571E+04  0.33407596571E+04  0.25500000000E-02 0. -1.
    8880023    1    1    2    0    0  0.56864114957E+03  0.76834147709E+03 -0.24101541493E+04  0.26751363726E+04  0.65864270000E+03 0.  0.
    8880022    1    1    2    0    0 -0.56864114957E+03 -0.76834147709E+03 -0.50458096279E+03  0.10916478294E+04  0.15294330000E+03 0.  0.
<mgrwt>
<rscale>  0 0.11092962E+04</rscale>
<asrwt>0</asrwt>
<pdfrwt beam="1">  1        2 0.51396301E+00 0.11608237E+04</pdfrwt>
<pdfrwt beam="2">  1       -2 0.65542240E-01 0.11608237E+04</pdfrwt>
<totfact> 0.22596312E+00</totfact>
</mgrwt>
</event>
<event>
 4    1  0.6502538E-008  0.8540556E+03  0.7818608E-02  0.9604226E-01
         -2   -1    0    0    0  501 -0.00000000000E+00  0.00000000000E+00  0.70744961414E+03  0.70744961414E+03  0.25500000000E-02 0.  1.
          2   -1    0    0  501    0  0.00000000000E+00 -0.00000000000E+00 -0.99458463783E+03  0.99458463783E+03  0.25500000000E-02 0. -1.
    8880023    1    1    2    0    0  0.41774439329E+03  0.34798049134E+03 -0.61179847908E+03  0.10505752642E+04  0.65864270000E+03 0.  0.
    8880022    1    1    2    0    0 -0.41774439329E+03 -0.34798049134E+03  0.32466345539E+03  0.65145898778E+03  0.15294330000E+03 0.  0.
<mgrwt>
<rscale>  0 0.77017101E+03</rscale>
<asrwt>0</asrwt>
<pdfrwt beam="1">  1        2 0.15301302E+00 0.85405562E+03</pdfrwt>
<pdfrwt beam="2">  1       -2 0.10883840E+00 0.85405562E+03</pdfrwt>
<totfact> 0.17220585E+01</totfact>
</mgrwt>
</event>
<event>
 4    1  0.6502538E-008  0.7243742E+03  0.7818608E-02  0.9908054E-01
          2   -1    0    0  501    0  0.00000000000E+00  0.00000000000E+00  0.13091955346E+04  0.13091955346E+04  0.25500000000E-02 0. -1.
         -2   -1    0    0    0  501 -0.00000000000E+00 -0.00000000000E+00 -0.29849361444E+03  0.29849361445E+03  0.25500000000E-02 0.  1.
    8880023    1    1    2    0    0  0.20768481112E+03 -0.21857434648E+03  0.10410281768E+04  0.12682498164E+04  0.65864270000E+03 0. -1.
    8880022    1    1    2    0    0 -0.20768481112E+03  0.21857434648E+03 -0.30326256594E+02  0.33943933267E+03  0.15294330000E+03 0.  0.
<mgrwt>
<rscale>  0 0.59872542E+03</rscale>
<asrwt>0</asrwt>
<pdfrwt beam="1">  1        2 0.20141470E+00 0.72437417E+03</pdfrwt>
<pdfrwt beam="2">  1       -2 0.45922095E-01 0.72437417E+03</pdfrwt>
<totfact> 0.74885136E+01</totfact>
</mgrwt>
</event>
<event>
 4    1  0.6502538E-008  0.1223770E+04  0.7818608E-02  0.9134355E-01
          2   -1    0    0  501    0  0.00000000000E+00  0.00000000000E+00  0.25170233118E+04  0.25170233118E+04  0.25500000000E-02 0. -1.
         -2   -1    0    0    0  501 -0.00000000000E+00 -0.00000000000E+00 -0.97264483299E+03  0.97264483300E+03  0.25500000000E-02 0.  1.
    8880023    1    1    2    0    0  0.96294718278E+03  0.36950771446E+03  0.20056398743E+04  0.23495115960E+04  0.65864270000E+03 0.  0.
    8880022    1    1    2    0    0 -0.96294718278E+03 -0.36950771446E+03 -0.46126139550E+03  0.11401565488E+04  0.15294330000E+03 0.  0.
<mgrwt>
<rscale>  0 0.11757455E+04</rscale>
<asrwt>0</asrwt>
<pdfrwt beam="1">  1        2 0.38723435E+00 0.12237702E+04</pdfrwt>
<pdfrwt beam="2">  1       -2 0.14963767E+00 0.12237702E+04</pdfrwt>
<totfact> 0.10004525E+00</totfact>
</mgrwt>
</event>
<event>
 4    1  0.6502538E-008  0.7541915E+03  0.7818608E-02  0.9820384E-01
         -2   -1    0    0    0  501 -0.00000000000E+00  0.00000000000E+00  0.82909453499E+03  0.82909453500E+03  0.25500000000E-02 0.  1.
          2   -1    0    0  501    0  0.00000000000E+00 -0.00000000000E+00 -0.10653673544E+04  0.10653673544E+04  0.25500000000E-02 0. -1.
    8880023    1    1    2    0    0 -0.26381569892E+03  0.25572618405E+03 -0.86671518512E+03  0.11489125391E+04  0.65864270000E+03 0. -1.
    8880022    1    1    2    0    0  0.26381569892E+03 -0.25572618405E+03  0.63044236570E+03  0.74554935027E+03  0.15294330000E+03 0.  0.
<mgrwt>
<rscale>  0 0.64280006E+03</rscale>
<asrwt>0</asrwt>
<pdfrwt beam="1">  1        2 0.16390267E+00 0.75419149E+03</pdfrwt>
<pdfrwt beam="2">  1       -2 0.12755300E+00 0.75419149E+03</pdfrwt>
<totfact> 0.10615808E+01</totfact>
</mgrwt>
</event>
<event>
 4    1  0.6502538E-008  0.7232367E+03  0.7818608E-02  0.9911783E-01
          2   -1    0    0  501    0  0.00000000000E+00  0.00000000000E+00  0.13161729857E+04  0.13161729857E+04  0.25500000000E-02 0. -1.
         -2   -1    0    0    0  501 -0.00000000000E+00 -0.00000000000E+00 -0.61846769462E+03  0.61846769462E+03  0.25500000000E-02 0.  1.
    8880023    1    1    2    0    0  0.21970204452E+03  0.20246499031E+03  0.11578030847E+04  0.13651297557E+04  0.65864270000E+03 0.  0.
    8880022    1    1    2    0    0 -0.21970204452E+03 -0.20246499031E+03 -0.46009779357E+03  0.56951092468E+03  0.15294330000E+03 0.  0.
<mgrwt>
<rscale>  0 0.59693636E+03</rscale>
<asrwt>0</asrwt>
<pdfrwt beam="1">  1        2 0.20248815E+00 0.72323666E+03</pdfrwt>
<pdfrwt beam="2">  1       -2 0.95148877E-01 0.72323666E+03</pdfrwt>
<totfact> 0.15389078E+01</totfact>
</mgrwt>
</event>
<event>
 4    1  0.6502538E-008  0.1732010E+04  0.7818608E-02  0.8761108E-01
         -2   -1    0    0    0  501 -0.00000000000E+00  0.00000000000E+00  0.10222141184E+04  0.10222141184E+04  0.25500000000E-02 0.  1.
          2   -1    0    0  501    0  0.00000000000E+00 -0.00000000000E+00 -0.30782887225E+04  0.30782887225E+04  0.25500000000E-02 0. -1.
    8880023    1    1    2    0    0 -0.15720089835E+04 -0.30795752708E+03 -0.37255965707E+03  0.17716266500E+04  0.65864270000E+03 0.  0.
    8880022    1    1    2    0    0  0.15720089835E+04  0.30795752708E+03 -0.16835149470E+04  0.23288761909E+04  0.15294330000E+03 0.  0.
<mgrwt>
<rscale>  0 0.17004492E+04</rscale>
<asrwt>0</asrwt>
<pdfrwt beam="1">  1        2 0.47358288E+00 0.17320105E+04</pdfrwt>
<pdfrwt beam="2">  1       -2 0.15726371E+00 0.17320105E+04</pdfrwt>
<totfact> 0.37894476E-01</totfact>
</mgrwt>
</event>
<event>
 4    1  0.6502538E-008  0.1536097E+04  0.7818608E-02  0.8884559E-01
          2   -1    0    0  501    0  0.00000000000E+00  0.00000000000E+00  0.10600064170E+04  0.10600064170E+04  0.25500000000E-02 0. -1.
         -2   -1    0    0    0  501 -0.00000000000E+00 -0.00000000000E+00 -0.28577563434E+04  0.28577563434E+04  0.25500000000E-02 0.  1.
    8880023    1    1    2    0    0  0.18365924110E+03  0.13755187572E+04 -0.19841223568E+04  0.25092497487E+04  0.65864270000E+03 0.  1.
    8880022    1    1    2    0    0 -0.18365924110E+03 -0.13755187572E+04  0.18637243036E+03  0.14085130117E+04  0.15294330000E+03 0.  0.
<mgrwt>
<rscale>  0 0.14998410E+04</rscale>
<asrwt>0</asrwt>
<pdfrwt beam="1">  1        2 0.16307791E+00 0.15360966E+04</pdfrwt>
<pdfrwt beam="2">  1       -2 0.43965482E+00 0.15360966E+04</pdfrwt>
<totfact> 0.88445954E-02</totfact>
</mgrwt>
</event>
<event>
 4    1  0.6502538E-008  0.8880069E+03  0.7818608E-02  0.9545565E-01
          2   -1    0    0  501    0  0.00000000000E+00  0.00000000000E+00  0.18852422374E+04  0.18852422375E+04  0.25500000000E-02 0. -1.
         -2   -1    0    0    0  501 -0.00000000000E+00 -0.00000000000E+00 -0.50518944510E+03  0.50518944510E+03  0.25500000000E-02 0.  1.
    8880023    1    1    2    0    0 -0.12892675730E+03 -0.58148423291E+03  0.15194411241E+04  0.17599027126E+04  0.65864270000E+03 0.  0.
    8880022    1    1    2    0    0  0.12892675730E+03  0.58148423291E+03 -0.13938833179E+03  0.63052896994E+03  0.15294330000E+03 0.  0.
<mgrwt>
<rscale>  0 0.81006244E+03</rscale>
<asrwt>0</asrwt>
<pdfrwt beam="1">  1        2 0.29003727E+00 0.88800689E+03</pdfrwt>
<pdfrwt beam="2">  1       -2 0.77721454E-01 0.88800689E+03</pdfrwt>
<totfact> 0.11569936E+01</totfact>
</mgrwt>
</event>
<event>
 4    1  0.6502538E-008  0.8870469E+03  0.7818608E-02  0.9547154E-01
          2   -1    0    0  501    0  0.00000000000E+00  0.00000000000E+00  0.21382051985E+04  0.21382051985E+04  0.25500000000E-02 0. -1.
         -2   -1    0    0    0  501 -0.00000000000E+00 -0.00000000000E+00 -0.29127723292E+03  0.29127723293E+03  0.25500000000E-02 0.  1.
    8880023    1    1    2    0    0  0.58998581400E+03 -0.70418817228E+02  0.70467504212E+03  0.11328809257E+04  0.65864270000E+03 0.  0.
    8880022    1    1    2    0    0 -0.58998581400E+03  0.70418817228E+02  0.11422529234E+04  0.12966015057E+04  0.15294330000E+03 0.  0.
<mgrwt>
<rscale>  0 0.80894877E+03</rscale>
<asrwt>0</asrwt>
<pdfrwt beam="1">  1        2 0.32895463E+00 0.88704694E+03</pdfrwt>
<pdfrwt beam="2">  1       -2 0.44811884E-01 0.88704694E+03</pdfrwt>
<totfact> 0.26898250E+01</totfact>
</mgrwt>
</event>
<event>
 4    1  0.6502538E-008  0.9024473E+03  0.7818608E-02  0.9522114E-01
          2   -1    0    0  501    0  0.00000000000E+00  0.00000000000E+00  0.71897495117E+03  0.71897495118E+03  0.25500000000E-02 0. -1.
         -2   -1    0    0    0  501 -0.00000000000E+00 -0.00000000000E+00 -0.10641024723E+04  0.10641024723E+04  0.25500000000E-02 0.  1.
    8880023    1    1    2    0    0 -0.55857074612E+03 -0.26191524610E+03 -0.61549707869E+03  0.10923587939E+04  0.65864270000E+03 0.  0.
    8880022    1    1    2    0    0  0.55857074612E+03  0.26191524610E+03  0.27036955754E+03  0.69071862956E+03  0.15294330000E+03 0.  0.
<mgrwt>
<rscale>  0 0.82672876E+03</rscale>
<asrwt>0</asrwt>
<pdfrwt beam="1">  1        2 0.11061153E+00 0.90244727E+03</pdfrwt>
<pdfrwt beam="2">  1       -2 0.16370807E+00 0.90244727E+03</pdfrwt>
<totfact> 0.93769462E+00</totfact>
</mgrwt>
</event>
<event>
 4    1  0.6502538E-008  0.9402041E+03  0.7818608E-02  0.9464351E-01
          2   -1    0    0  501    0  0.00000000000E+00  0.00000000000E+00  0.21271329873E+04  0.21271329873E+04  0.25500000000E-02 0. -1.
         -2   -1    0    0    0  501 -0.00000000000E+00 -0.00000000000E+00 -0.53666807817E+03  0.53666807818E+03  0.25500000000E-02 0.  1.
    8880023    1    1    2    0    0 -0.55200511563E+03  0.38139728780E+03  0.17231509040E+04  0.19629653036E+04  0.65864270000E+03 0.  0.
    8880022    1    1    2    0    0  0.55200511563E+03 -0.38139728780E+03 -0.13268599494E+03  0.70083576185E+03  0.15294330000E+03 0.  0.
<mgrwt>
<rscale>  0 0.86963914E+03</rscale>
<asrwt>0</asrwt>
<pdfrwt beam="1">  1        2 0.32725123E+00 0.94020410E+03</pdfrwt>
<pdfrwt beam="2">  1       -2 0.82564320E-01 0.94020410E+03</pdfrwt>
<totfact> 0.73848475E+00</totfact>
</mgrwt>
</event>
<event>
 4    1  0.6502538E-008  0.1012291E+04  0.7818608E-02  0.9365651E-01
         -2   -1    0    0    0  501 -0.00000000000E+00  0.00000000000E+00  0.69914859207E+03  0.69914859207E+03  0.25500000000E-02 0.  1.
          2   -1    0    0  501    0  0.00000000000E+00 -0.00000000000E+00 -0.24070236219E+04  0.24070236219E+04  0.25500000000E-02 0. -1.
    8880023    1    1    2    0    0 -0.20113360859E+03 -0.74193494438E+03 -0.20224292469E+04  0.22616260644E+04  0.65864270000E+03 0. -1.
    8880022    1    1    2    0    0  0.20113360859E+03  0.74193494438E+03  0.31455421711E+03  0.84454614954E+03  0.15294330000E+03 0.  0.
<mgrwt>
<rscale>  0 0.94957159E+03</rscale>
<asrwt>0</asrwt>
<pdfrwt beam="1">  1        2 0.37031132E+00 0.10122907E+04</pdfrwt>
<pdfrwt beam="2">  1       -2 0.10756132E+00 0.10122907E+04</pdfrwt>
<totfact> 0.27446002E+00</totfact>
</mgrwt>
</event>
<event>
 4    1  0.6502538E-008  0.1304749E+04  0.7818608E-02  0.9061469E-01
         -2   -1    0    0    0  501 -0.00000000000E+00  0.00000000000E+00  0.17941467723E+04  0.17941467723E+04  0.25500000000E-02 0.  1.
          2   -1    0    0  501    0  0.00000000000E+00 -0.00000000000E+00 -0.91070845416E+03  0.91070845417E+03  0.25500000000E-02 0. -1.
    8880023    1    1    2    0    0 -0.45558458978E+03  0.10300503340E+04  0.69046186736E+02  0.13065751380E+04  0.65864270000E+03 0.  0.
    8880022    1    1    2    0    0  0.45558458978E+03 -0.10300503340E+04  0.81439213141E+03  0.13982800885E+04  0.15294330000E+03 0.  0.
<mgrwt>
<rscale>  0 0.12605242E+04</rscale>
<asrwt>0</asrwt>
<pdfrwt beam="1">  1        2 0.14010899E+00 0.13047495E+04</pdfrwt>
<pdfrwt beam="2">  1       -2 0.27602258E+00 0.13047495E+04</pdfrwt>
<totfact> 0.12412183E+00</totfact>
</mgrwt>
</event>
<event>
 4    1  0.6502538E-008  0.1193643E+04  0.7818608E-02  0.9163327E-01
          2   -1    0    0  501    0  0.00000000000E+00  0.00000000000E+00  0.23731557227E+04  0.23731557227E+04  0.25500000000E-02 0. -1.
         -2   -1    0    0    0  501 -0.00000000000E+00 -0.00000000000E+00 -0.51932383126E+03  0.51932383127E+03  0.25500000000E-02 0.  1.
    8880023    1    1    2    0    0  0.89357090503E+03 -0.43875330536E+03  0.11946780446E+04  0.16887981708E+04  0.65864270000E+03 0.  0.
    8880022    1    1    2    0    0 -0.89357090503E+03  0.43875330536E+03  0.65915384682E+03  0.12036813831E+04  0.15294330000E+03 0.  0.
<mgrwt>
<rscale>  0 0.11440108E+04</rscale>
<asrwt>0</asrwt>
<pdfrwt beam="1">  1        2 0.36510087E+00 0.11936430E+04</pdfrwt>
<pdfrwt beam="2">  1       -2 0.79895976E-01 0.11936430E+04</pdfrwt>
<totfact> 0.56276429E+00</totfact>
</mgrwt>
</event>
<event>
 4    1  0.6502538E-008  0.1032824E+04  0.7818608E-02  0.9339820E-01
          2   -1    0    0  501    0  0.00000000000E+00  0.00000000000E+00  0.95751395816E+03  0.95751395816E+03  0.25500000000E-02 0. -1.
         -2   -1    0    0    0  501 -0.00000000000E+00 -0.00000000000E+00 -0.15656968130E+04  0.15656968130E+04  0.25500000000E-02 0.  1.
    8880023    1    1    2    0    0  0.42561393691E+03  0.67213696283E+03  0.50240988744E+03  0.11485387331E+04  0.65864270000E+03 0. -1.
    8880022    1    1    2    0    0 -0.42561393691E+03 -0.67213696283E+03 -0.11105927423E+04  0.13746720381E+04  0.15294330000E+03 0.  0.
<mgrwt>
<rscale>  0 0.97198180E+03</rscale>
<asrwt>0</asrwt>
<pdfrwt beam="1">  1        2 0.14730984E+00 0.10328241E+04</pdfrwt>
<pdfrwt beam="2">  1       -2 0.24087643E+00 0.10328241E+04</pdfrwt>
<totfact> 0.19478017E+00</totfact>
</mgrwt>
</event>
<event>
 4    1  0.6502538E-008  0.8670126E+03  0.7818608E-02  0.9581209E-01
         -2   -1    0    0    0  501 -0.00000000000E+00  0.00000000000E+00  0.14034326615E+03  0.14034326618E+03  0.25500000000E-02 0.  1.
          2   -1    0    0  501    0  0.00000000000E+00 -0.00000000000E+00 -0.45422131836E+04  0.45422131836E+04  0.25500000000E-02 0. -1.
    8880023    1    1    2    0    0  0.56081369442E+03  0.58211326031E+02 -0.35165627904E+04  0.36218675602E+04  0.65864270000E+03 0. -1.
    8880022    1    1    2    0    0 -0.56081369442E+03 -0.58211326031E+02 -0.88530712706E+03  0.10606888896E+04  0.15294330000E+03 0.  0.
<mgrwt>
<rscale>  0 0.78552468E+03</rscale>
<asrwt>0</asrwt>
<pdfrwt beam="1">  1        2 0.69880192E+00 0.86701255E+03</pdfrwt>
<pdfrwt beam="2">  1       -2 0.21591275E-01 0.86701255E+03</pdfrwt>
<totfact> 0.23057091E+00</totfact>
</mgrwt>
</event>
<event>
 4    1  0.2523070E-007  0.7178866E+03  0.7818608E-02  0.9929803E-01
         -2   -1    0    0    0  501 -0.00000000000E+00  0.00000000000E+00  0.24603390710E+04  0.24603390710E+04  0.25500000000E-02 0.  1.
          2   -1    0    0  501    0  0.00000000000E+00 -0.00000000000E+00 -0.23922246194E+04  0.23922246194E+04  0.25500000000E-02 0. -1.
    8880023    1    1    2    0    0  0.25012835902E+03 -0.13779246434E+03 -0.23272168844E+04  0.24354259571E+04  0.65864270000E+03 0. -1.
    8880022    1    1    2    0    0 -0.25012835902E+03  0.13779246434E+03  0.23953313360E+04  0.24171377333E+04  0.15294330000E+03 0.  0.
<mgrwt>
<rscale>  0 0.58838402E+03</rscale>
<asrwt>0</asrwt>
<pdfrwt beam="1">  1        2 0.36803456E+00 0.71788660E+03</pdfrwt>
<pdfrwt beam="2">  1       -2 0.37851370E+00 0.71788660E+03</pdfrwt>
<totfact> 0.45557696E-02</totfact>
</mgrwt>
</event>
<event>
 4    1  0.6502538E-008  0.8573709E+03  0.7818608E-02  0.9598257E-01
         -2   -1    0    0    0  501 -0.00000000000E+00  0.00000000000E+00  0.63764795303E+03  0.63764795304E+03  0.25500000000E-02 0.  1.
          2   -1    0    0  501    0  0.00000000000E+00 -0.00000000000E+00 -0.15516041822E+04  0.15516041822E+04  0.25500000000E-02 0. -1.
    8880023    1    1    2    0    0 -0.11424887872E+03 -0.53686302155E+03 -0.12589395774E+04  0.15231591434E+04  0.65864270000E+03 0.  0.
    8880022    1    1    2    0    0  0.11424887872E+03  0.53686302155E+03  0.34498334826E+03  0.66609299185E+03  0.15294330000E+03 0.  0.
<mgrwt>
<rscale>  0 0.77411633E+03</rscale>
<asrwt>0</asrwt>
<pdfrwt beam="1">  1        2 0.23870834E+00 0.85737093E+03</pdfrwt>
<pdfrwt beam="2">  1       -2 0.98099685E-01 0.85737093E+03</pdfrwt>
<totfact> 0.10380334E+01</totfact>
</mgrwt>
</event>
<event>
 4    1  0.6502538E-008  0.7502573E+03  0.7818608E-02  0.9831016E-01
         -2   -1    0    0    0  501 -0.00000000000E+00  0.00000000000E+00  0.50441962938E+03  0.50441962938E+03  0.25500000000E-02 0.  1.
          2   -1    0    0  501    0  0.00000000000E+00 -0.00000000000E+00 -0.12242767518E+04  0.12242767518E+04  0.25500000000E-02 0. -1.
    8880023    1    1    2    0    0  0.20980589899E+03  0.29164576536E+03 -0.99853221156E+03  0.12489806049E+04  0.65864270000E+03 0. -1.
    8880022    1    1    2    0    0 -0.20980589899E+03 -0.29164576536E+03  0.27867508912E+03  0.47971577628E+03  0.15294330000E+03 0.  0.
<mgrwt>
<rscale>  0 0.63724259E+03</rscale>
<asrwt>0</asrwt>
<pdfrwt beam="1">  1        2 0.18835027E+00 0.75025727E+03</pdfrwt>
<pdfrwt beam="2">  1       -2 0.77603020E-01 0.75025727E+03</pdfrwt>
<totfact> 0.27629384E+01</totfact>
</mgrwt>
</event>
<event>
 4    1  0.6502538E-008  0.2359402E+04  0.7818608E-02  0.8463504E-01
         -2   -1    0    0    0  501 -0.00000000000E+00  0.00000000000E+00  0.21820103248E+04  0.21820103248E+04  0.25500000000E-02 0.  1.
          2   -1    0    0  501    0  0.00000000000E+00 -0.00000000000E+00 -0.29900937652E+04  0.29900937652E+04  0.25500000000E-02 0. -1.
    8880023    1    1    2    0    0 -0.32978049331E+03 -0.22414757440E+04  0.68212231288E+03  0.24560272271E+04  0.65864270000E+03 0.  1.
    8880022    1    1    2    0    0  0.32978049331E+03  0.22414757440E+04 -0.14902057534E+04  0.27160768628E+04  0.15294330000E+03 0.  0.
<mgrwt>
<rscale>  0 0.23369230E+04</rscale>
<asrwt>0</asrwt>
<pdfrwt beam="1">  1        2 0.46001442E+00 0.23594022E+04</pdfrwt>
<pdfrwt beam="2">  1       -2 0.33569390E+00 0.23594022E+04</pdfrwt>
<totfact> 0.28758112E-02</totfact>
</mgrwt>
</event>
<event>
 4    1  0.6502538E-008  0.7500995E+03  0.7818608E-02  0.9831448E-01
         -2   -1    0    0    0  501 -0.00000000000E+00  0.00000000000E+00  0.43689412237E+03  0.43689412238E+03  0.25500000000E-02 0.  1.
          2   -1    0    0  501    0  0.00000000000E+00 -0.00000000000E+00 -0.16111707680E+04  0.16111707680E+04  0.25500000000E-02 0. -1.
    8880023    1    1    2    0    0  0.35760222596E+03  0.30978910472E+02 -0.14065005774E+04  0.15940179187E+04  0.65864270000E+03 0. -1.
    8880022    1    1    2    0    0 -0.35760222596E+03 -0.30978910472E+02  0.23222393177E+03  0.45404697159E+03  0.15294330000E+03 0.  0.
<mgrwt>
<rscale>  0 0.63701834E+03</rscale>
<asrwt>0</asrwt>
<pdfrwt beam="1">  1        2 0.24787242E+00 0.75009949E+03</pdfrwt>
<pdfrwt beam="2">  1       -2 0.67214481E-01 0.75009949E+03</pdfrwt>
<totfact> 0.22898324E+01</totfact>
</mgrwt>
</event>
<event>
 4    1  0.6502538E-008  0.8187241E+03  0.7818608E-02  0.9671683E-01
         -2   -1    0    0    0  501 -0.00000000000E+00  0.00000000000E+00  0.59113676029E+03  0.59113676029E+03  0.25500000000E-02 0.  1.
          2   -1    0    0  501    0  0.00000000000E+00 -0.00000000000E+00 -0.33321023647E+04  0.33321023647E+04  0.25500000000E-02 0. -1.
    8880023    1    1    2    0    0 -0.48621218369E+03 -0.98345929051E+01 -0.31593702365E+04  0.32637293859E+04  0.65864270000E+03 0.  0.
    8880022    1    1    2    0    0  0.48621218369E+03  0.98345929051E+01  0.41840463210E+03  0.65950973909E+03  0.15294330000E+03 0.  0.
<mgrwt>
<rscale>  0 0.72728064E+03</rscale>
<asrwt>0</asrwt>
<pdfrwt beam="1">  1        2 0.51263112E+00 0.81872414E+03</pdfrwt>
<pdfrwt beam="2">  1       -2 0.90944119E-01 0.81872414E+03</pdfrwt>
<totfact> 0.11645166E+00</totfact>
</mgrwt>
</event>
<event>
 4    1  0.6502538E-008  0.1087409E+04  0.7818608E-02  0.9275206E-01
          2   -1    0    0  501    0  0.00000000000E+00  0.00000000000E+00  0.31913210921E+04  0.31913210921E+04  0.25500000000E-02 0. -1.
         -2   -1    0    0    0  501 -0.00000000000E+00 -0.00000000000E+00 -0.50156214483E+03  0.50156214484E+03  0.25500000000E-02 0.  1.
    8880023    1    1    2    0    0  0.51092163261E+03 -0.69828852032E+03  0.25894645008E+04  0.28085199624E+04  0.65864270000E+03 0. -1.
    8880022    1    1    2    0    0 -0.51092163261E+03  0.69828852032E+03  0.10029444647E+03  0.88436327450E+03  0.15294330000E+03 0.  0.
<mgrwt>
<rscale>  0 0.10309784E+04</rscale>
<asrwt>0</asrwt>
<pdfrwt beam="1">  1        2 0.49097246E+00 0.10874088E+04</pdfrwt>
<pdfrwt beam="2">  1       -2 0.77163410E-01 0.10874088E+04</pdfrwt>
<totfact> 0.19946324E+00</totfact>
</mgrwt>
</event>
<event>
 4    1  0.6502538E-008  0.1023879E+04  0.7818608E-02  0.9350962E-01
          2   -1    0    0  501    0  0.00000000000E+00  0.00000000000E+00  0.56457693443E+03  0.56457693443E+03  0.25500000000E-02 0. -1.
         -2   -1    0    0    0  501 -0.00000000000E+00 -0.00000000000E+00 -0.16746257898E+04  0.16746257898E+04  0.25500000000E-02 0.  1.
    8880023    1    1    2    0    0 -0.58158784013E+02 -0.78175168217E+03 -0.22738846605E+03  0.10488249890E+04  0.65864270000E+03 0.  0.
    8880022    1    1    2    0    0  0.58158784013E+02  0.78175168217E+03 -0.88266038937E+03  0.11903777353E+04  0.15294330000E+03 0.  0.
<mgrwt>
<rscale>  0 0.96223557E+03</rscale>
<asrwt>0</asrwt>
<pdfrwt beam="1">  1        2 0.86857991E-01 0.10238791E+04</pdfrwt>
<pdfrwt beam="2">  1       -2 0.25763473E+00 0.10238791E+04</pdfrwt>
<totfact> 0.30715263E+00</totfact>
</mgrwt>
</event>
<event>
 4    1  0.6502538E-008  0.1076711E+04  0.7818608E-02  0.9287439E-01
         -2   -1    0    0    0  501 -0.00000000000E+00  0.00000000000E+00  0.70126086592E+03  0.70126086592E+03  0.25500000000E-02 0.  1.
          2   -1    0    0  501    0  0.00000000000E+00 -0.00000000000E+00 -0.23215476557E+04  0.23215476557E+04  0.25500000000E-02 0. -1.
    8880023    1    1    2    0    0  0.85112474975E+03 -0.32921137575E+02 -0.18382764377E+04  0.21303914215E+04  0.65864270000E+03 0.  0.
    8880022    1    1    2    0    0 -0.85112474975E+03  0.32921137575E+02  0.21798964798E+03  0.89241710011E+03  0.15294330000E+03 0.  0.
<mgrwt>
<rscale>  0 0.10194751E+04</rscale>
<asrwt>0</asrwt>
<pdfrwt beam="1">  1        2 0.35716117E+00 0.10767114E+04</pdfrwt>
<pdfrwt beam="2">  1       -2 0.10788629E+00 0.10767114E+04</pdfrwt>
<totfact> 0.30191373E+00</totfact>
</mgrwt>
</event>
<event>
 4    1  0.6502538E-008  0.9753686E+03  0.7818608E-02  0.9414517E-01
         -2   -1    0    0    0  501 -0.00000000000E+00  0.00000000000E+00  0.94587249080E+03  0.94587249080E+03  0.25500000000E-02 0.  1.
          2   -1    0    0  501    0  0.00000000000E+00 -0.00000000000E+00 -0.18484193394E+04  0.18484193394E+04  0.25500000000E-02 0. -1.
    8880023    1    1    2    0    0  0.68526651490E+03 -0.21896022087E+03 -0.15387450565E+04  0.18218343311E+04  0.65864270000E+03 0. -1.
    8880022    1    1    2    0    0 -0.68526651490E+03  0.21896022087E+03  0.63619820793E+03  0.97245749909E+03  0.15294330000E+03 0.  0.
<mgrwt>
<rscale>  0 0.90890557E+03</rscale>
<asrwt>0</asrwt>
<pdfrwt beam="1">  1        2 0.28437220E+00 0.97536864E+03</pdfrwt>
<pdfrwt beam="2">  1       -2 0.14551885E+00 0.97536864E+03</pdfrwt>
<totfact> 0.26308450E+00</totfact>
</mgrwt>
</event>
<event>
 4    1  0.6502538E-008  0.6648085E+03  0.7818608E-02  0.1019695E+00
          2   -1    0    0  501    0  0.00000000000E+00  0.00000000000E+00  0.15420857463E+04  0.15420857463E+04  0.25500000000E-02 0. -1.
         -2   -1    0    0    0  501 -0.00000000000E+00 -0.00000000000E+00 -0.33518891606E+03  0.33518891607E+03  0.25500000000E-02 0.  1.
    8880023    1    1    2    0    0 -0.89024100155E+02  0.15323152869E+02  0.14389144308E+04  0.15850694101E+04  0.65864270000E+03 0. -1.
    8880022    1    1    2    0    0  0.89024100155E+02 -0.15323152869E+02 -0.23201760061E+03  0.29220525223E+03  0.15294330000E+03 0.  0.
<mgrwt>
<rscale>  0 0.47796965E+03</rscale>
<asrwt>0</asrwt>
<pdfrwt beam="1">  1        2 0.23724397E+00 0.66480847E+03</pdfrwt>
<pdfrwt beam="2">  1       -2 0.51567525E-01 0.66480847E+03</pdfrwt>
<totfact> 0.44101237E+01</totfact>
</mgrwt>
</event>
<event>
 4    1  0.6502538E-008  0.9521256E+03  0.7818608E-02  0.9447062E-01
         -2   -1    0    0    0  501 -0.00000000000E+00  0.00000000000E+00  0.67763522502E+03  0.67763522502E+03  0.25500000000E-02 0.  1.
          2   -1    0    0  501    0  0.00000000000E+00 -0.00000000000E+00 -0.12201279596E+04  0.12201279596E+04  0.25500000000E-02 0. -1.
    8880023    1    1    2    0    0 -0.68158697421E+03 -0.90399880589E+02 -0.69284950407E+03  0.11775328375E+04  0.65864270000E+03 0. -1.
    8880022    1    1    2    0    0  0.68158697421E+03  0.90399880589E+02  0.15035676946E+03  0.72023034716E+03  0.15294330000E+03 0.  0.
<mgrwt>
<rscale>  0 0.88301793E+03</rscale>
<asrwt>0</asrwt>
<pdfrwt beam="1">  1        2 0.18771199E+00 0.95212559E+03</pdfrwt>
<pdfrwt beam="2">  1       -2 0.10425157E+00 0.95212559E+03</pdfrwt>
<totfact> 0.13753360E+01</totfact>
</mgrwt>
</event>
<event>
 4    1  0.6502538E-008  0.1112487E+04  0.7818608E-02  0.9247279E-01
          2   -1    0    0  501    0  0.00000000000E+00  0.00000000000E+00  0.30858558255E+04  0.30858558255E+04  0.25500000000E-02 0. -1.
         -2   -1    0    0    0  501 -0.00000000000E+00 -0.00000000000E+00 -0.56552968109E+03  0.56552968110E+03  0.25500000000E-02 0.  1.
    8880023    1    1    2    0    0 -0.49603811564E+03  0.74683620942E+03  0.16258959531E+03  0.11243058830E+04  0.65864270000E+03 0.  1.
    8880022    1    1    2    0    0  0.49603811564E+03 -0.74683620942E+03  0.23577365491E+04  0.25270796236E+04  0.15294330000E+03 0.  0.
<mgrwt>
<rscale>  0 0.10578481E+04</rscale>
<asrwt>0</asrwt>
<pdfrwt beam="1">  1        2 0.47474705E+00 0.11124875E+04</pdfrwt>
<pdfrwt beam="2">  1       -2 0.87004566E-01 0.11124875E+04</pdfrwt>
<totfact> 0.17654699E+00</totfact>
</mgrwt>
</event>
<event>
 4    1  0.6502538E-008  0.8807177E+03  0.7818608E-02  0.9557723E-01
          2   -1    0    0  501    0  0.00000000000E+00  0.00000000000E+00  0.11770121864E+04  0.11770121864E+04  0.25500000000E-02 0. -1.
         -2   -1    0    0    0  501 -0.00000000000E+00 -0.00000000000E+00 -0.10754217428E+04  0.10754217428E+04  0.25500000000E-02 0.  1.
    8880023    1    1    2    0    0  0.35040322866E+03  0.46805021366E+03  0.89460405379E+03  0.12553804381E+04  0.65864270000E+03 0.  0.
    8880022    1    1    2    0    0 -0.35040322866E+03 -0.46805021366E+03 -0.79301361016E+03  0.99705349108E+03  0.15294330000E+03 0.  0.
<mgrwt>
<rscale>  0 0.80158685E+03</rscale>
<asrwt>0</asrwt>
<pdfrwt beam="1">  1        2 0.18107880E+00 0.88071768E+03</pdfrwt>
<pdfrwt beam="2">  1       -2 0.16544950E+00 0.88071768E+03</pdfrwt>
<totfact> 0.45141951E+00</totfact>
</mgrwt>
</event>
<event>
 4    1  0.6502538E-008  0.7990202E+03  0.7818608E-02  0.9712919E-01
         -2   -1    0    0    0  501 -0.00000000000E+00  0.00000000000E+00  0.32612470508E+03  0.32612470509E+03  0.25500000000E-02 0.  1.
          2   -1    0    0  501    0  0.00000000000E+00 -0.00000000000E+00 -0.18241497642E+04  0.18241497642E+04  0.25500000000E-02 0. -1.
    8880023    1    1    2    0    0 -0.44665991743E+03 -0.71539611509E+02 -0.14685620754E+04  0.16718575817E+04  0.65864270000E+03 0.  0.
    8880022    1    1    2    0    0  0.44665991743E+03  0.71539611509E+02 -0.29462983630E+02  0.47841688752E+03  0.15294330000E+03 0.  0.
<mgrwt>
<rscale>  0 0.70252801E+03</rscale>
<asrwt>0</asrwt>
<pdfrwt beam="1">  1        2 0.28063842E+00 0.79902015E+03</pdfrwt>
<pdfrwt beam="2">  1       -2 0.50173032E-01 0.79902015E+03</pdfrwt>
<totfact> 0.32155217E+01</totfact>
</mgrwt>
</event>
<event>
 4    1  0.6502538E-008  0.7379595E+03  0.7818608E-02  0.9865931E-01
         -2   -1    0    0    0  501 -0.00000000000E+00  0.00000000000E+00  0.54718156420E+03  0.54718156421E+03  0.25500000000E-02 0.  1.
          2   -1    0    0  501    0  0.00000000000E+00 -0.00000000000E+00 -0.18550074813E+04  0.18550074813E+04  0.25500000000E-02 0. -1.
    8880023    1    1    2    0    0  0.79926748107E+02  0.32308781687E+03 -0.17074478346E+04  0.18600973998E+04  0.65864270000E+03 0. -1.
    8880022    1    1    2    0    0 -0.79926748107E+02 -0.32308781687E+03  0.39962191748E+03  0.54209164577E+03  0.15294330000E+03 0.  1.
<mgrwt>
<rscale>  0 0.61941194E+03</rscale>
<asrwt>0</asrwt>
<pdfrwt beam="1">  1        2 0.28538576E+00 0.73795950E+03</pdfrwt>
<pdfrwt beam="2">  1       -2 0.84181780E-01 0.73795950E+03</pdfrwt>
<totfact> 0.10241655E+01</totfact>
</mgrwt>
</event>
<event>
 4    1  0.6502538E-008  0.7578908E+03  0.7818608E-02  0.9810599E-01
         -2   -1    0    0    0  501 -0.00000000000E+00  0.00000000000E+00  0.32431086959E+03  0.32431086960E+03  0.25500000000E-02 0.  1.
          2   -1    0    0  501    0  0.00000000000E+00 -0.00000000000E+00 -0.35098227019E+04  0.35098227019E+04  0.25500000000E-02 0. -1.
    8880023    1    1    2    0    0  0.35741213508E+03  0.11333497926E+03 -0.33215740072E+04  0.34069417875E+04  0.65864270000E+03 0. -1.
    8880022    1    1    2    0    0 -0.35741213508E+03 -0.11333497926E+03  0.13606217494E+03  0.42719178396E+03  0.15294330000E+03 0.  0.
<mgrwt>
<rscale>  0 0.64796836E+03</rscale>
<asrwt>0</asrwt>
<pdfrwt beam="1">  1        2 0.53997270E+00 0.75789080E+03</pdfrwt>
<pdfrwt beam="2">  1       -2 0.49893982E-01 0.75789080E+03</pdfrwt>
<totfact> 0.32979297E+00</totfact>
</mgrwt>
</event>
<event>
 4    1  0.6502538E-008  0.9015444E+03  0.7818608E-02  0.9523557E-01
          2   -1    0    0  501    0  0.00000000000E+00  0.00000000000E+00  0.12058641585E+04  0.12058641585E+04  0.25500000000E-02 0. -1.
         -2   -1    0    0    0  501 -0.00000000000E+00 -0.00000000000E+00 -0.91215082319E+03  0.91215082320E+03  0.25500000000E-02 0.  1.
    8880023    1    1    2    0    0  0.61550541543E+03 -0.11185923737E+02  0.87593677958E+03  0.12569993991E+04  0.65864270000E+03 0. -1.
    8880022    1    1    2    0    0 -0.61550541543E+03  0.11185923737E+02 -0.58222344429E+03  0.86101558256E+03  0.15294330000E+03 0.  0.
<mgrwt>
<rscale>  0 0.82569124E+03</rscale>
<asrwt>0</asrwt>
<pdfrwt beam="1">  1        2 0.18551756E+00 0.90154437E+03</pdfrwt>
<pdfrwt beam="2">  1       -2 0.14033090E+00 0.90154437E+03</pdfrwt>
<totfact> 0.67203102E+00</totfact>
</mgrwt>
</event>
<event>
 4    1  0.6502538E-008  0.1181243E+04  0.7818608E-02  0.9175575E-01
          2   -1    0    0  501    0  0.00000000000E+00  0.00000000000E+00  0.25513083399E+04  0.25513083399E+04  0.25500000000E-02 0. -1.
         -2   -1    0    0    0  501 -0.00000000000E+00 -0.00000000000E+00 -0.54800481996E+03  0.54800481996E+03  0.25500000000E-02 0.  1.
    8880023    1    1    2    0    0  0.79068214977E+02 -0.97738051170E+03  0.16836024248E+04  0.20566603459E+04  0.65864270000E+03 0. -1.
    8880022    1    1    2    0    0 -0.79068214977E+02  0.97738051170E+03  0.31970109514E+03  0.10426528140E+04  0.15294330000E+03 0.  0.
<mgrwt>
<rscale>  0 0.11309133E+04</rscale>
<asrwt>0</asrwt>
<pdfrwt beam="1">  1        2 0.39250898E+00 0.11812428E+04</pdfrwt>
<pdfrwt beam="2">  1       -2 0.84308434E-01 0.11812428E+04</pdfrwt>
<totfact> 0.39428687E+00</totfact>
</mgrwt>
</event>
<event>
 4    1  0.6502538E-008  0.7786910E+03  0.7818608E-02  0.9758921E-01
         -2   -1    0    0    0  501 -0.00000000000E+00  0.00000000000E+00  0.55781645309E+03  0.55781645310E+03  0.25500000000E-02 0.  1.
          2   -1    0    0  501    0  0.00000000000E+00 -0.00000000000E+00 -0.14776548125E+04  0.14776548125E+04  0.25500000000E-02 0. -1.
    8880023    1    1    2    0    0  0.38443163321E+03  0.15735871074E+03 -0.12572651161E+04  0.14788763379E+04  0.65864270000E+03 0.  0.
    8880022    1    1    2    0    0 -0.38443163321E+03 -0.15735871074E+03  0.33742675663E+03  0.55659492772E+03  0.15294330000E+03 0.  1.
<mgrwt>
<rscale>  0 0.67614455E+03</rscale>
<asrwt>0</asrwt>
<pdfrwt beam="1">  1        2 0.22733151E+00 0.77869099E+03</pdfrwt>
<pdfrwt beam="2">  1       -2 0.85817916E-01 0.77869099E+03</pdfrwt>
<totfact> 0.15717983E+01</totfact>
</mgrwt>
</event>
<event>
 4    1  0.6502538E-008  0.7161533E+03  0.7818608E-02  0.9935823E-01
         -2   -1    0    0    0  501 -0.00000000000E+00  0.00000000000E+00  0.30089951649E+03  0.30089951650E+03  0.25500000000E-02 0.  1.
          2   -1    0    0  501    0  0.00000000000E+00 -0.00000000000E+00 -0.11340333993E+04  0.11340333993E+04  0.25500000000E-02 0. -1.
    8880023    1    1    2    0    0 -0.23908639175E+03  0.14799671414E+03 -0.23009717894E+03  0.75221024198E+03  0.65864270000E+03 0.  0.
    8880022    1    1    2    0    0  0.23908639175E+03 -0.14799671414E+03 -0.60303670383E+03  0.68272267378E+03  0.15294330000E+03 0.  0.
<mgrwt>
<rscale>  0 0.58556106E+03</rscale>
<asrwt>0</asrwt>
<pdfrwt beam="1">  1        2 0.17446667E+00 0.71615329E+03</pdfrwt>
<pdfrwt beam="2">  1       -2 0.46292234E-01 0.71615329E+03</pdfrwt>
<totfact> 0.93482209E+01</totfact>
</mgrwt>
</event>
<event>
 4    1  0.6502538E-008  0.1350754E+04  0.7818608E-02  0.9022925E-01
          2   -1    0    0  501    0  0.00000000000E+00  0.00000000000E+00  0.25839533227E+04  0.25839533227E+04  0.25500000000E-02 0. -1.
         -2   -1    0    0    0  501 -0.00000000000E+00 -0.00000000000E+00 -0.77690240643E+03  0.77690240644E+03  0.25500000000E-02 0.  1.
    8880023    1    1    2    0    0  0.63557466329E+03 -0.99336317572E+03  0.16935979070E+04  0.21662893686E+04  0.65864270000E+03 0.  0.
    8880022    1    1    2    0    0 -0.63557466329E+03  0.99336317572E+03  0.11345300927E+03  0.11945663606E+04  0.15294330000E+03 0.  0.
<mgrwt>
<rscale>  0 0.13084069E+04</rscale>
<asrwt>0</asrwt>
<pdfrwt beam="1">  1        2 0.39753127E+00 0.13507538E+04</pdfrwt>
<pdfrwt beam="2">  1       -2 0.11952345E+00 0.13507538E+04</pdfrwt>
<totfact> 0.16092228E+00</totfact>
</mgrwt>
</event>
<event>
 4    1  0.6502538E-008  0.1215776E+04  0.7818608E-02  0.9141938E-01
          2   -1    0    0  501    0  0.00000000000E+00  0.00000000000E+00  0.31515466610E+04  0.31515466610E+04  0.25500000000E-02 0. -1.
         -2   -1    0    0    0  501 -0.00000000000E+00 -0.00000000000E+00 -0.79318003949E+03  0.79318003949E+03  0.25500000000E-02 0.  1.
    8880023    1    1    2    0    0  0.41186215278E+03  0.93523806533E+03  0.26117166996E+04  0.28808288732E+04  0.65864270000E+03 0.  0.
    8880022    1    1    2    0    0 -0.41186215278E+03 -0.93523806533E+03 -0.25335007809E+03  0.10638978272E+04  0.15294330000E+03 0.  0.
<mgrwt>
<rscale>  0 0.11673360E+04</rscale>
<asrwt>0</asrwt>
<pdfrwt beam="1">  1        2 0.48485335E+00 0.12157758E+04</pdfrwt>
<pdfrwt beam="2">  1       -2 0.12202769E+00 0.12157758E+04</pdfrwt>
<totfact> 0.70165819E-01</totfact>
</mgrwt>
</event>
<event>
 4    1  0.6502538E-008  0.9897874E+03  0.7818608E-02  0.9395043E-01
         -2   -1    0    0    0  501 -0.00000000000E+00  0.00000000000E+00  0.14010016040E+04  0.14010016040E+04  0.25500000000E-02 0.  1.
          2   -1    0    0  501    0  0.00000000000E+00 -0.00000000000E+00 -0.20707314784E+04  0.20707314784E+04  0.25500000000E-02 0. -1.
    8880023    1    1    2    0    0  0.29967242842E+03  0.67532604325E+03 -0.18341883219E+04  0.20842086833E+04  0.65864270000E+03 0.  0.
    8880022    1    1    2    0    0 -0.29967242842E+03 -0.67532604325E+03  0.11644584475E+04  0.13875243991E+04  0.15294330000E+03 0.  0.
<mgrwt>
<rscale>  0 0.92484789E+03</rscale>
<asrwt>0</asrwt>
<pdfrwt beam="1">  1        2 0.31857407E+00 0.98978737E+03</pdfrwt>
<pdfrwt beam="2">  1       -2 0.21553871E+00 0.98978737E+03</pdfrwt>
<totfact> 0.64526902E-01</totfact>
</mgrwt>
</event>
<event>
 4    1  0.6502538E-008  0.1444734E+04  0.7818608E-02  0.8949680E-01
         -2   -1    0    0    0  501 -0.00000000000E+00  0.00000000000E+00  0.20264226303E+04  0.20264226303E+04  0.25500000000E-02 0.  1.
          2   -1    0    0  501    0  0.00000000000E+00 -0.00000000000E+00 -0.98983063441E+03  0.98983063442E+03  0.25500000000E-02 0. -1.
    8880023    1    1    2    0    0 -0.12858618727E+04  0.23265457989E+01  0.16232290526E+03  0.14538243017E+04  0.65864270000E+03 0.  1.
    8880022    1    1    2    0    0  0.12858618727E+04 -0.23265457989E+01  0.87426909060E+03  0.15624289630E+04  0.15294330000E+03 0. -1.
<mgrwt>
<rscale>  0 0.14057313E+04</rscale>
<asrwt>0</asrwt>
<pdfrwt beam="1">  1        2 0.15228164E+00 0.14447340E+04</pdfrwt>
<pdfrwt beam="2">  1       -2 0.31175732E+00 0.14447340E+04</pdfrwt>
<totfact> 0.65636293E-01</totfact>
</mgrwt>
</event>
<event>
 4    1  0.6502538E-008  0.6798210E+03  0.7818608E-02  0.1009425E+00
          2   -1    0    0  501    0  0.00000000000E+00  0.00000000000E+00  0.75389135105E+03  0.75389135105E+03  0.25500000000E-02 0. -1.
         -2   -1    0    0    0  501 -0.00000000000E+00 -0.00000000000E+00 -0.54807215137E+03  0.54807215138E+03  0.25500000000E-02 0.  1.
    8880023    1    1    2    0    0 -0.15130385934E+03 -0.73847595166E+02  0.56017811545E+03  0.88088367703E+03  0.65864270000E+03 0. -1.
    8880022    1    1    2    0    0  0.15130385934E+03  0.73847595166E+02 -0.35435891577E+03  0.42107982541E+03  0.15294330000E+03 0.  0.
<mgrwt>
<rscale>  0 0.51703756E+03</rscale>
<asrwt>0</asrwt>
<pdfrwt beam="1">  1        2 0.11598328E+00 0.67982096E+03</pdfrwt>
<pdfrwt beam="2">  1       -2 0.84318793E-01 0.67982096E+03</pdfrwt>
<totfact> 0.46592055E+01</totfact>
</mgrwt>
</event>
<event>
 4    1  0.6502538E-008  0.9627696E+03  0.7818608E-02  0.9431975E-01
         -2   -1    0    0    0  501 -0.00000000000E+00  0.00000000000E+00  0.58822483730E+03  0.58822483730E+03  0.25500000000E-02 0.  1.
          2   -1    0    0  501    0  0.00000000000E+00 -0.00000000000E+00 -0.17023902645E+04  0.17023902645E+04  0.25500000000E-02 0. -1.
    8880023    1    1    2    0    0 -0.15297727891E+03 -0.68535608119E+03 -0.12306990747E+04  0.15625445353E+04  0.65864270000E+03 0.  0.
    8880022    1    1    2    0    0  0.15297727891E+03  0.68535608119E+03  0.11653364749E+03  0.72807056657E+03  0.15294330000E+03 0.  0.
<mgrwt>
<rscale>  0 0.89490359E+03</rscale>
<asrwt>0</asrwt>
<pdfrwt beam="1">  1        2 0.26190619E+00 0.96276955E+03</pdfrwt>
<pdfrwt beam="2">  1       -2 0.90496129E-01 0.96276955E+03</pdfrwt>
<totfact> 0.10221095E+01</totfact>
</mgrwt>
</event>
<event>
 4    1  0.6502538E-008  0.1020764E+04  0.7818608E-02  0.9354883E-01
          2   -1    0    0  501    0  0.00000000000E+00  0.00000000000E+00  0.12132742950E+04  0.12132742950E+04  0.25500000000E-02 0. -1.
         -2   -1    0    0    0  501 -0.00000000000E+00 -0.00000000000E+00 -0.88790790000E+03  0.88790790001E+03  0.25500000000E-02 0.  1.
    8880023    1    1    2    0    0  0.57293430221E+03  0.52905072264E+03  0.68458506953E+03  0.12290709115E+04  0.65864270000E+03 0.  0.
    8880022    1    1    2    0    0 -0.57293430221E+03 -0.52905072264E+03 -0.35921867451E+03  0.87211128355E+03  0.15294330000E+03 0.  0.
<mgrwt>
<rscale>  0 0.95883534E+03</rscale>
<asrwt>0</asrwt>
<pdfrwt beam="1">  1        2 0.18665758E+00 0.10207637E+04</pdfrwt>
<pdfrwt beam="2">  1       -2 0.13660122E+00 0.10207637E+04</pdfrwt>
<totfact> 0.70462938E+00</totfact>
</mgrwt>
</event>
<event>
 4    1  0.6502538E-008  0.1014943E+04  0.7818608E-02  0.9362263E-01
         -2   -1    0    0    0  501 -0.00000000000E+00  0.00000000000E+00  0.55689454571E+03  0.55689454571E+03  0.25500000000E-02 0.  1.
          2   -1    0    0  501    0  0.00000000000E+00 -0.00000000000E+00 -0.22470471464E+04  0.22470471464E+04  0.25500000000E-02 0. -1.
    8880023    1    1    2    0    0 -0.15658484064E+03 -0.75616211377E+03 -0.17408454798E+04  0.20151062368E+04  0.65864270000E+03 0. -1.
    8880022    1    1    2    0    0  0.15658484064E+03  0.75616211377E+03  0.50692879116E+02  0.78883545535E+03  0.15294330000E+03 0.  0.
<mgrwt>
<rscale>  0 0.95247444E+03</rscale>
<asrwt>0</asrwt>
<pdfrwt beam="1">  1        2 0.34569956E+00 0.10149434E+04</pdfrwt>
<pdfrwt beam="2">  1       -2 0.85676085E-01 0.10149434E+04</pdfrwt>
<totfact> 0.57681238E+00</totfact>
</mgrwt>
</event>
<event>
 4    1  0.6502538E-008  0.1123094E+04  0.7818608E-02  0.9235770E-01
          2   -1    0    0  501    0  0.00000000000E+00  0.00000000000E+00  0.22010648387E+04  0.22010648387E+04  0.25500000000E-02 0. -1.
         -2   -1    0    0    0  501 -0.00000000000E+00 -0.00000000000E+00 -0.63878336813E+03  0.63878336813E+03  0.25500000000E-02 0.  1.
    8880023    1    1    2    0    0 -0.33975273625E+03 -0.84385848537E+03  0.15540013347E+04  0.19173574053E+04  0.65864270000E+03 0. -1.
    8880022    1    1    2    0    0  0.33975273625E+03  0.84385848537E+03  0.82801357773E+01  0.92249080146E+03  0.15294330000E+03 0.  0.
<mgrwt>
<rscale>  0 0.10691733E+04</rscale>
<asrwt>0</asrwt>
<pdfrwt beam="1">  1        2 0.33862536E+00 0.11230936E+04</pdfrwt>
<pdfrwt beam="2">  1       -2 0.98274364E-01 0.11230936E+04</pdfrwt>
<totfact> 0.43889429E+00</totfact>
</mgrwt>
</event>
<event>
 4    1  0.6502538E-008  0.1453660E+04  0.7818608E-02  0.8943071E-01
         -2   -1    0    0    0  501 -0.00000000000E+00  0.00000000000E+00  0.96697383934E+03  0.96697383935E+03  0.25500000000E-02 0.  1.
          2   -1    0    0  501    0  0.00000000000E+00 -0.00000000000E+00 -0.21681966473E+04  0.21681966473E+04  0.25500000000E-02 0. -1.
    8880023    1    1    2    0    0 -0.72051686318E+03  0.10771135077E+04 -0.11064686183E+04  0.18268555138E+04  0.65864270000E+03 0. -1.
    8880022    1    1    2    0    0  0.72051686318E+03 -0.10771135077E+04 -0.94754189639E+02  0.13083149728E+04  0.15294330000E+03 0.  0.
<mgrwt>
<rscale>  0 0.14149457E+04</rscale>
<asrwt>0</asrwt>
<pdfrwt beam="1">  1        2 0.33356871E+00 0.14536603E+04</pdfrwt>
<pdfrwt beam="2">  1       -2 0.14876521E+00 0.14536603E+04</pdfrwt>
<totfact> 0.15634130E+00</totfact>
</mgrwt>
</event>
<event>
 4    1  0.6502538E-008  0.1141905E+04  0.7818608E-02  0.9215774E-01
          2   -1    0    0  501    0  0.00000000000E+00  0.00000000000E+00  0.68539365319E+03  0.68539365319E+03  0.25500000000E-02 0. -1.
         -2   -1    0    0    0  501 -0.00000000000E+00 -0.00000000000E+00 -0.25874454122E+04  0.25874454122E+04  0.25500000000E-02 0.  1.
    8880023    1    1    2    0    0 -0.89912703483E+03 -0.24841188282E+03  0.77223578786E+01  0.11419315782E+04  0.65864270000E+03 0. -1.
    8880022    1    1    2    0    0  0.89912703483E+03  0.24841188282E+03 -0.19097741169E+04  0.21309074872E+04  0.15294330000E+03 0.  0.
<mgrwt>
<rscale>  0 0.10892090E+04</rscale>
<asrwt>0</asrwt>
<pdfrwt beam="1">  1        2 0.10544518E+00 0.11419055E+04</pdfrwt>
<pdfrwt beam="2">  1       -2 0.39806852E+00 0.11419055E+04</pdfrwt>
<totfact> 0.32081801E-01</totfact>
</mgrwt>
</event>
<event>
 4    1  0.6502538E-008  0.9922766E+03  0.7818608E-02  0.9391733E-01
          2   -1    0    0  501    0  0.00000000000E+00  0.00000000000E+00  0.31588883806E+04  0.31588883806E+04  0.25500000000E-02 0. -1.
         -2   -1    0    0    0  501 -0.00000000000E+00 -0.00000000000E+00 -0.65056222770E+03  0.65056222770E+03  0.25500000000E-02 0.  1.
    8880023    1    1    2    0    0 -0.63979793834E+03  0.37611323323E+03  0.28204657862E+04  0.29899230799E+04  0.65864270000E+03 0.  0.
    8880022    1    1    2    0    0  0.63979793834E+03 -0.37611323323E+03 -0.31213963332E+03  0.81952752841E+03  0.15294330000E+03 0.  0.
<mgrwt>
<rscale>  0 0.92759180E+03</rscale>
<asrwt>0</asrwt>
<pdfrwt beam="1">  1        2 0.48598284E+00 0.99227656E+03</pdfrwt>
<pdfrwt beam="2">  1       -2 0.10008650E+00 0.99227656E+03</pdfrwt>
<totfact> 0.11651925E+00</totfact>
</mgrwt>
</event>
<event>
 4    1  0.6502538E-008  0.8562437E+03  0.7818608E-02  0.9600280E-01
         -2   -1    0    0    0  501 -0.00000000000E+00  0.00000000000E+00  0.19024653760E+03  0.19024653762E+03  0.25500000000E-02 0.  1.
          2   -1    0    0  501    0  0.00000000000E+00 -0.00000000000E+00 -0.28356295466E+04  0.28356295466E+04  0.25500000000E-02 0. -1.
    8880023    1    1    2    0    0  0.32905500642E+03 -0.43711077098E+03 -0.19371700381E+04  0.21179662382E+04  0.65864270000E+03 0.  0.
    8880022    1    1    2    0    0 -0.32905500642E+03  0.43711077098E+03 -0.70821297093E+03  0.90790984606E+03  0.15294330000E+03 0.  0.
<mgrwt>
<rscale>  0 0.77277620E+03</rscale>
<asrwt>0</asrwt>
<pdfrwt beam="1">  1        2 0.43625067E+00 0.85624367E+03</pdfrwt>
<pdfrwt beam="2">  1       -2 0.29268700E-01 0.85624367E+03</pdfrwt>
<totfact> 0.24489124E+01</totfact>
</mgrwt>
</event>
<event>
 4    1  0.6502538E-008  0.6618257E+03  0.7818608E-02  0.1022359E+00
         -2   -1    0    0    0  501 -0.00000000000E+00  0.00000000000E+00  0.18696826088E+03  0.18696826090E+03  0.25500000000E-02 0.  1.
          2   -1    0    0  501    0  0.00000000000E+00 -0.00000000000E+00 -0.11221611406E+04  0.11221611406E+04  0.25500000000E-02 0. -1.
    8880023    1    1    2    0    0 -0.64585589120E+02 -0.56304912079E+01 -0.93187433612E+03  0.11429798709E+04  0.65864270000E+03 0. -1.
    8880022    1    1    2    0    0  0.64585589120E+02  0.56304912079E+01 -0.33185435673E+01  0.16614953054E+03  0.15294330000E+03 0.  1.
<mgrwt>
<rscale>  0 0.46844739E+03</rscale>
<asrwt>0</asrwt>
<pdfrwt beam="1">  1        2 0.17264017E+00 0.66182566E+03</pdfrwt>
<pdfrwt beam="2">  1       -2 0.28764349E-01 0.66182566E+03</pdfrwt>
<totfact> 0.23768287E+02</totfact>
</mgrwt>
</event>
<event>
 4    1  0.6502538E-008  0.1078086E+04  0.7818608E-02  0.9285856E-01
          2   -1    0    0  501    0  0.00000000000E+00  0.00000000000E+00  0.59557201631E+03  0.59557201631E+03  0.25500000000E-02 0. -1.
         -2   -1    0    0    0  501 -0.00000000000E+00 -0.00000000000E+00 -0.25360459053E+04  0.25360459053E+04  0.25500000000E-02 0.  1.
    8880023    1    1    2    0    0  0.19939721069E+03  0.82987944393E+03 -0.82458835039E+02  0.10812348518E+04  0.65864270000E+03 0.  0.
    8880022    1    1    2    0    0 -0.19939721069E+03 -0.82987944393E+03 -0.18580150540E+04  0.20503830698E+04  0.15294330000E+03 0.  0.
<mgrwt>
<rscale>  0 0.10209548E+04</rscale>
<asrwt>0</asrwt>
<pdfrwt beam="1">  1        2 0.91626465E-01 0.10780860E+04</pdfrwt>
<pdfrwt beam="2">  1       -2 0.39016090E+00 0.10780860E+04</pdfrwt>
<totfact> 0.43366079E-01</totfact>
</mgrwt>
</event>
<event>
 4    1  0.6502538E-008  0.1147439E+04  0.7818608E-02  0.9209990E-01
         -2   -1    0    0    0  501 -0.00000000000E+00  0.00000000000E+00  0.49618667638E+03  0.49618667638E+03  0.25500000000E-02 0.  1.
          2   -1    0    0  501    0  0.00000000000E+00 -0.00000000000E+00 -0.29951389982E+04  0.29951389982E+04  0.25500000000E-02 0. -1.
    8880023    1    1    2    0    0  0.40847000188E+03 -0.84614276471E+03 -0.22205750313E+04  0.24995137521E+04  0.65864270000E+03 0.  0.
    8880022    1    1    2    0    0 -0.40847000188E+03  0.84614276471E+03 -0.27837729044E+03  0.99181192247E+03  0.15294330000E+03 0.  0.
<mgrwt>
<rscale>  0 0.10950903E+04</rscale>
<asrwt>0</asrwt>
<pdfrwt beam="1">  1        2 0.46079061E+00 0.11474387E+04</pdfrwt>
<pdfrwt beam="2">  1       -2 0.76336413E-01 0.11474387E+04</pdfrwt>
<totfact> 0.26937856E+00</totfact>
</mgrwt>
</event>
<event>
 4    1  0.6502538E-008  0.8158399E+03  0.7818608E-02  0.9677539E-01
          2   -1    0    0  501    0  0.00000000000E+00  0.00000000000E+00  0.14128892327E+04  0.14128892327E+04  0.25500000000E-02 0. -1.
         -2   -1    0    0    0  501 -0.00000000000E+00 -0.00000000000E+00 -0.12592610177E+04  0.12592610177E+04  0.25500000000E-02 0.  1.
    8880023    1    1    2    0    0 -0.42379313230E+03  0.22843803629E+03  0.12341190972E+04  0.14794068770E+04  0.65864270000E+03 0. -1.
    8880022    1    1    2    0    0  0.42379313230E+03 -0.22843803629E+03 -0.10804908821E+04  0.11927433734E+04  0.15294330000E+03 0.  0.
<mgrwt>
<rscale>  0 0.72370027E+03</rscale>
<asrwt>0</asrwt>
<pdfrwt beam="1">  1        2 0.21736757E+00 0.81583991E+03</pdfrwt>
<pdfrwt beam="2">  1       -2 0.19373246E+00 0.81583991E+03</pdfrwt>
<totfact> 0.21209140E+00</totfact>
</mgrwt>
</event>
<event>
 4    1  0.6502538E-008  0.1041724E+04  0.7818608E-02  0.9328897E-01
         -2   -1    0    0    0  501 -0.00000000000E+00  0.00000000000E+00  0.53751156473E+03  0.53751156473E+03  0.25500000000E-02 0.  1.
          2   -1    0    0  501    0  0.00000000000E+00 -0.00000000000E+00 -0.31926948725E+04  0.31926948725E+04  0.25500000000E-02 0. -1.
    8880023    1    1    2    0    0  0.77982967004E+03 -0.20795370340E+03 -0.27136032152E+04  0.29066874055E+04  0.65864270000E+03 0. -1.
    8880022    1    1    2    0    0 -0.77982967004E+03  0.20795370340E+03  0.58419907501E+02  0.82351903174E+03  0.15294330000E+03 0.  0.
<mgrwt>
<rscale>  0 0.98165546E+03</rscale>
<asrwt>0</asrwt>
<pdfrwt beam="1">  1        2 0.49118382E+00 0.10417242E+04</pdfrwt>
<pdfrwt beam="2">  1       -2 0.82694089E-01 0.10417242E+04</pdfrwt>
<totfact> 0.17139564E+00</totfact>
</mgrwt>
</event>
<event>
 4    1  0.6502538E-008  0.8680863E+03  0.7818608E-02  0.9579338E-01
          2   -1    0    0  501    0  0.00000000000E+00  0.00000000000E+00  0.17451589849E+04  0.17451589850E+04  0.25500000000E-02 0. -1.
         -2   -1    0    0    0  501 -0.00000000000E+00 -0.00000000000E+00 -0.51603436627E+03  0.51603436628E+03  0.25500000000E-02 0.  1.
    8880023    1    1    2    0    0 -0.55767605513E+03 -0.93599954996E+02  0.14032602413E+04  0.16500645578E+04  0.65864270000E+03 0.  0.
    8880022    1    1    2    0    0  0.55767605513E+03  0.93599954996E+02 -0.17413562259E+03  0.61112879339E+03  0.15294330000E+03 0.  0.
<mgrwt>
<rscale>  0 0.78678936E+03</rscale>
<asrwt>0</asrwt>
<pdfrwt beam="1">  1        2 0.26848600E+00 0.86808625E+03</pdfrwt>
<pdfrwt beam="2">  1       -2 0.79389902E-01 0.86808625E+03</pdfrwt>
<totfact> 0.13196176E+01</totfact>
</mgrwt>
</event>
<event>
 4    1  0.6502538E-008  0.9990954E+03  0.7818608E-02  0.9382742E-01
         -2   -1    0    0    0  501 -0.00000000000E+00  0.00000000000E+00  0.90108963024E+03  0.90108963024E+03  0.25500000000E-02 0.  1.
          2   -1    0    0  501    0  0.00000000000E+00 -0.00000000000E+00 -0.11604157874E+04  0.11604157874E+04  0.25500000000E-02 0. -1.
    8880023    1    1    2    0    0  0.74351444136E+03 -0.10755347051E+03 -0.65905723029E+03  0.11968910195E+04  0.65864270000E+03 0.  0.
    8880022    1    1    2    0    0 -0.74351444136E+03  0.10755347051E+03  0.39973107316E+03  0.86461439810E+03  0.15294330000E+03 0.  0.
<mgrwt>
<rscale>  0 0.93509653E+03</rscale>
<asrwt>0</asrwt>
<pdfrwt beam="1">  1        2 0.17852550E+00 0.99909543E+03</pdfrwt>
<pdfrwt beam="2">  1       -2 0.13862917E+00 0.99909543E+03</pdfrwt>
<totfact> 0.73116380E+00</totfact>
</mgrwt>
</event>
<event>
 4    1  0.6502538E-008  0.1338264E+04  0.7818608E-02  0.9033201E-01
         -2   -1    0    0    0  501 -0.00000000000E+00  0.00000000000E+00  0.13897894564E+04  0.13897894564E+04  0.25500000000E-02 0.  1.
          2   -1    0    0  501    0  0.00000000000E+00 -0.00000000000E+00 -0.18892873350E+04  0.18892873350E+04  0.25500000000E-02 0. -1.
    8880023    1    1    2    0    0 -0.92669166786E+03  0.70596220711E+03 -0.12933265742E+04  0.18610867575E+04  0.65864270000E+03 0. -1.
    8880022    1    1    2    0    0  0.92669166786E+03 -0.70596220711E+03  0.79382869570E+03  0.14179900339E+04  0.15294330000E+03 0.  0.
<mgrwt>
<rscale>  0 0.12954246E+04</rscale>
<asrwt>0</asrwt>
<pdfrwt beam="1">  1        2 0.29065959E+00 0.13382639E+04</pdfrwt>
<pdfrwt beam="2">  1       -2 0.21381376E+00 0.13382639E+04</pdfrwt>
<totfact> 0.79575795E-01</totfact>
</mgrwt>
</event>
<event>
 4    1  0.6502538E-008  0.7266797E+03  0.7818608E-02  0.9900600E-01
          2   -1    0    0  501    0  0.00000000000E+00  0.00000000000E+00  0.93375567239E+03  0.93375567239E+03  0.25500000000E-02 0. -1.
         -2   -1    0    0    0  501 -0.00000000000E+00 -0.00000000000E+00 -0.16737878748E+04  0.16737878748E+04  0.25500000000E-02 0.  1.
    8880023    1    1    2    0    0 -0.22862018277E+01 -0.30699825189E+03  0.77017108477E+03  0.10588800024E+04  0.65864270000E+03 0. -1.
    8880022    1    1    2    0    0  0.22862018277E+01  0.30699825189E+03 -0.15102032872E+04  0.15486635448E+04  0.15294330000E+03 0.  0.
<mgrwt>
<rscale>  0 0.60232218E+03</rscale>
<asrwt>0</asrwt>
<pdfrwt beam="1">  1        2 0.14365472E+00 0.72667968E+03</pdfrwt>
<pdfrwt beam="2">  1       -2 0.25750583E+00 0.72667968E+03</pdfrwt>
<totfact> 0.16712362E+00</totfact>
</mgrwt>
</event>
<event>
 4    1  0.6502538E-008  0.1723159E+04  0.7818608E-02  0.8766277E-01
          2   -1    0    0  501    0  0.00000000000E+00  0.00000000000E+00  0.23161500763E+04  0.23161500763E+04  0.25500000000E-02 0. -1.
         -2   -1    0    0    0  501 -0.00000000000E+00 -0.00000000000E+00 -0.12431096523E+04  0.12431096523E+04  0.25500000000E-02 0.  1.
    8880023    1    1    2    0    0  0.56920605340E+03  0.14871017090E+04  0.91715854461E+03  0.19520391970E+04  0.65864270000E+03 0.  0.
    8880022    1    1    2    0    0 -0.56920605340E+03 -0.14871017090E+04  0.15588187938E+03  0.16072205317E+04  0.15294330000E+03 0.  0.
<mgrwt>
<rscale>  0 0.16914136E+04</rscale>
<asrwt>0</asrwt>
<pdfrwt beam="1">  1        2 0.35633078E+00 0.17231591E+04</pdfrwt>
<pdfrwt beam="2">  1       -2 0.19124764E+00 0.17231591E+04</pdfrwt>
<totfact> 0.62066774E-01</totfact>
</mgrwt>
</event>
<event>
 4    1  0.6502538E-008  0.8429851E+03  0.7818608E-02  0.9624577E-01
         -2   -1    0    0    0  501 -0.00000000000E+00  0.00000000000E+00  0.33441617209E+03  0.33441617210E+03  0.25500000000E-02 0.  1.
          2   -1    0    0  501    0  0.00000000000E+00 -0.00000000000E+00 -0.16326904258E+04  0.16326904258E+04  0.25500000000E-02 0. -1.
    8880023    1    1    2    0    0  0.30017760575E+03  0.43209608598E+03 -0.10968024217E+04  0.13833290935E+04  0.65864270000E+03 0.  0.
    8880022    1    1    2    0    0 -0.30017760575E+03 -0.43209608598E+03 -0.20147183205E+03  0.58377750440E+03  0.15294330000E+03 0. -1.
<mgrwt>
<rscale>  0 0.75690644E+03</rscale>
<asrwt>0</asrwt>
<pdfrwt beam="1">  1        2 0.25118314E+00 0.84298507E+03</pdfrwt>
<pdfrwt beam="2">  1       -2 0.51448643E-01 0.84298507E+03</pdfrwt>
<totfact> 0.38717482E+01</totfact>
</mgrwt>
</event>
<event>
 4    1  0.6502538E-008  0.6599500E+03  0.7818608E-02  0.1024208E+00
         -2   -1    0    0    0  501 -0.00000000000E+00  0.00000000000E+00  0.35577540004E+03  0.35577540005E+03  0.25500000000E-02 0.  1.
          2   -1    0    0  501    0  0.00000000000E+00 -0.00000000000E+00 -0.95445682078E+03  0.95445682078E+03  0.25500000000E-02 0. -1.
    8880023    1    1    2    0    0 -0.27218875447E+02 -0.31351023696E+02 -0.81081055916E+03  0.10454414010E+04  0.65864270000E+03 0. -1.
    8880022    1    1    2    0    0  0.27218875447E+02  0.31351023696E+02  0.21212913842E+03  0.26479081980E+03  0.15294330000E+03 0.  0.
<mgrwt>
<rscale>  0 0.46198278E+03</rscale>
<asrwt>0</asrwt>
<pdfrwt beam="1">  1        2 0.14683951E+00 0.65994997E+03</pdfrwt>
<pdfrwt beam="2">  1       -2 0.54734677E-01 0.65994997E+03</pdfrwt>
<totfact> 0.86468720E+01</totfact>
</mgrwt>
</event>
<event>
 4    1  0.6502538E-008  0.1087828E+04  0.7818608E-02  0.9274731E-01
          2   -1    0    0  501    0  0.00000000000E+00  0.00000000000E+00  0.14808626895E+04  0.14808626895E+04  0.25500000000E-02 0. -1.
         -2   -1    0    0    0  501 -0.00000000000E+00 -0.00000000000E+00 -0.15154617349E+04  0.15154617349E+04  0.25500000000E-02 0.  1.
    8880023    1    1    2    0    0 -0.62108327940E+03 -0.60317033913E+03  0.11092477624E+04  0.15536407894E+04  0.65864270000E+03 0. -1.
    8880022    1    1    2    0    0  0.62108327940E+03  0.60317033913E+03 -0.11438468078E+04  0.14426836350E+04  0.15294330000E+03 0.  0.
<mgrwt>
<rscale>  0 0.10314283E+04</rscale>
<asrwt>0</asrwt>
<pdfrwt beam="1">  1        2 0.22782503E+00 0.10878277E+04</pdfrwt>
<pdfrwt beam="2">  1       -2 0.23314796E+00 0.10878277E+04</pdfrwt>
<totfact> 0.10467831E+00</totfact>
</mgrwt>
</event>
<event>
 4    1  0.6502538E-008  0.1785774E+04  0.7818608E-02  0.8730447E-01
         -2   -1    0    0    0  501 -0.00000000000E+00  0.00000000000E+00  0.18932660161E+04  0.18932660161E+04  0.25500000000E-02 0.  1.
          2   -1    0    0  501    0  0.00000000000E+00 -0.00000000000E+00 -0.31491115932E+04  0.31491115932E+04  0.25500000000E-02 0. -1.
    8880023    1    1    2    0    0 -0.34229421295E+03 -0.16241960273E+04  0.11437335499E+04  0.21206401634E+04  0.65864270000E+03 0.  1.
    8880022    1    1    2    0    0  0.34229421295E+03  0.16241960273E+04 -0.23995791269E+04  0.29217374459E+04  0.15294330000E+03 0.  0.
<mgrwt>
<rscale>  0 0.17552845E+04</rscale>
<asrwt>0</asrwt>
<pdfrwt beam="1">  1        2 0.48447870E+00 0.17857739E+04</pdfrwt>
<pdfrwt beam="2">  1       -2 0.29127170E+00 0.17857739E+04</pdfrwt>
<totfact> 0.45612419E-02</totfact>
</mgrwt>
</event>
<event>
 4    1  0.8966019E-008  0.1216686E+04  0.7818608E-02  0.9141071E-01
         -2   -1    0    0    0  501 -0.00000000000E+00  0.00000000000E+00  0.19476877764E+04  0.19476877764E+04  0.25500000000E-02 0.  1.
          2   -1    0    0  501    0  0.00000000000E+00 -0.00000000000E+00 -0.20855535206E+04  0.20855535206E+04  0.25500000000E-02 0. -1.
    8880023    1    1    2    0    0 -0.64651877585E+03  0.79279742804E+03 -0.17418254197E+04  0.21246835737E+04  0.65864270000E+03 0.  0.
    8880022    1    1    2    0    0  0.64651877585E+03 -0.79279742804E+03  0.16039596755E+04  0.19085577233E+04  0.15294330000E+03 0.  0.
<mgrwt>
<rscale>  0 0.11682937E+04</rscale>
<asrwt>0</asrwt>
<pdfrwt beam="1">  1        2 0.32085439E+00 0.12166859E+04</pdfrwt>
<pdfrwt beam="2">  1       -2 0.29964427E+00 0.12166859E+04</pdfrwt>
<totfact> 0.18642193E-01</totfact>
</mgrwt>
</event>
<event>
 4    1  0.6502538E-008  0.8953852E+03  0.7818608E-02  0.9533481E-01
          2   -1    0    0  501    0  0.00000000000E+00  0.00000000000E+00  0.34306755478E+04  0.34306755478E+04  0.25500000000E-02 0. -1.
         -2   -1    0    0    0  501 -0.00000000000E+00 -0.00000000000E+00 -0.20918523468E+03  0.20918523469E+03  0.25500000000E-02 0.  1.
    8880023    1    1    2    0    0 -0.35313303983E+03  0.49315456719E+03  0.26327512725E+04  0.27808440877E+04  0.65864270000E+03 0.  0.
    8880022    1    1    2    0    0  0.35313303983E+03 -0.49315456719E+03  0.58873904057E+03  0.85901669475E+03  0.15294330000E+03 0.  0.
<mgrwt>
<rscale>  0 0.81859784E+03</rscale>
<asrwt>0</asrwt>
<pdfrwt beam="1">  1        2 0.52779626E+00 0.89538516E+03</pdfrwt>
<pdfrwt beam="2">  1       -2 0.32182342E-01 0.89538516E+03</pdfrwt>
<totfact> 0.85770582E+00</totfact>
</mgrwt>
</event>
<event>
 4    1  0.6502538E-008  0.8333569E+03  0.7818608E-02  0.9642836E-01
         -2   -1    0    0    0  501 -0.00000000000E+00  0.00000000000E+00  0.19743180447E+04  0.19743180447E+04  0.25500000000E-02 0.  1.
          2   -1    0    0  501    0  0.00000000000E+00 -0.00000000000E+00 -0.44329128442E+03  0.44329128443E+03  0.25500000000E-02 0. -1.
    8880023    1    1    2    0    0 -0.43339746151E+03  0.26988923180E+03  0.40144650996E+02  0.83432329247E+03  0.65864270000E+03 0. -1.
    8880022    1    1    2    0    0  0.43339746151E+03 -0.26988923180E+03  0.14908821093E+04  0.15832860367E+04  0.15294330000E+03 0.  0.
<mgrwt>
<rscale>  0 0.74524752E+03</rscale>
<asrwt>0</asrwt>
<pdfrwt beam="1">  1        2 0.68198658E-01 0.83335692E+03</pdfrwt>
<pdfrwt beam="2">  1       -2 0.30374124E+00 0.83335692E+03</pdfrwt>
<totfact> 0.21961238E+00</totfact>
</mgrwt>
</event>
<event>
 4    1  0.6502538E-008  0.1067766E+04  0.7818608E-02  0.9297823E-01
          2   -1    0    0  501    0  0.00000000000E+00  0.00000000000E+00  0.38874087469E+04  0.38874087469E+04  0.25500000000E-02 0. -1.
         -2   -1    0    0    0  501 -0.00000000000E+00 -0.00000000000E+00 -0.46628364895E+03  0.46628364896E+03  0.25500000000E-02 0.  1.
    8880023    1    1    2    0    0 -0.33914185359E+03 -0.76895834420E+03  0.33271763105E+04  0.34943134575E+04  0.65864270000E+03 0. -1.
    8880022    1    1    2    0    0  0.33914185359E+03  0.76895834420E+03  0.93948787431E+02  0.85937893833E+03  0.15294330000E+03 0.  0.
<mgrwt>
<rscale>  0 0.10098353E+04</rscale>
<asrwt>0</asrwt>
<pdfrwt beam="1">  1        2 0.59806290E+00 0.10677661E+04</pdfrwt>
<pdfrwt beam="2">  1       -2 0.71735944E-01 0.10677661E+04</pdfrwt>
<totfact> 0.76788761E-01</totfact>
</mgrwt>
</event>
<event>
 4    1  0.6502538E-008  0.9404507E+03  0.7818608E-02  0.9463989E-01
          2   -1    0    0  501    0  0.00000000000E+00  0.00000000000E+00  0.26357770246E+04  0.26357770246E+04  0.25500000000E-02 0. -1.
         -2   -1    0    0    0  501 -0.00000000000E+00 -0.00000000000E+00 -0.68977710302E+03  0.68977710303E+03  0.25500000000E-02 0.  1.
    8880023    1    1    2    0    0 -0.21971562923E+03 -0.63432038471E+03  0.23472668462E+04  0.25286575810E+04  0.65864270000E+03 0. -1.
    8880022    1    1    2    0    0  0.21971562923E+03  0.63432038471E+03 -0.40126692467E+03  0.79689654663E+03  0.15294330000E+03 0.  0.
<mgrwt>
<rscale>  0 0.86991663E+03</rscale>
<asrwt>0</asrwt>
<pdfrwt beam="1">  1        2 0.40550415E+00 0.94045070E+03</pdfrwt>
<pdfrwt beam="2">  1       -2 0.10611956E+00 0.94045070E+03</pdfrwt>
<totfact> 0.21190214E+00</totfact>
</mgrwt>
</event>
<event>
 4    1  0.6502538E-008  0.7402653E+03  0.7818608E-02  0.9859175E-01
         -2   -1    0    0    0  501 -0.00000000000E+00  0.00000000000E+00  0.26795978992E+03  0.26795978993E+03  0.25500000000E-02 0.  1.
          2   -1    0    0  501    0  0.00000000000E+00 -0.00000000000E+00 -0.25748666543E+04  0.25748666543E+04  0.25500000000E-02 0. -1.
    8880023    1    1    2    0    0  0.33762891738E+03  0.13755753356E+02 -0.23551894696E+04  0.24687871821E+04  0.65864270000E+03 0. -1.
    8880022    1    1    2    0    0 -0.33762891738E+03 -0.13755753356E+02  0.48282605241E+02  0.37403926209E+03  0.15294330000E+03 0.  0.
<mgrwt>
<rscale>  0 0.62281298E+03</rscale>
<asrwt>0</asrwt>
<pdfrwt beam="1">  1        2 0.39613331E+00 0.74026530E+03</pdfrwt>
<pdfrwt beam="2">  1       -2 0.41224585E-01 0.74026530E+03</pdfrwt>
<totfact> 0.18419903E+01</totfact>
</mgrwt>
</event>
<event>
 4    1  0.6502538E-008  0.9650158E+03  0.7818608E-02  0.9428831E-01
         -2   -1    0    0    0  501 -0.00000000000E+00  0.00000000000E+00  0.69091979482E+03  0.69091979482E+03  0.25500000000E-02 0.  1.
          2   -1    0    0  501    0  0.00000000000E+00 -0.00000000000E+00 -0.12287083257E+04  0.12287083257E+04  0.25500000000E-02 0. -1.
    8880023    1    1    2    0    0 -0.52037509489E+03 -0.47608310073E+03 -0.68455996574E+03  0.11831643635E+04  0.65864270000E+03 0. -1.
    8880022    1    1    2    0    0  0.52037509489E+03  0.47608310073E+03  0.14677143490E+03  0.73646375695E+03  0.15294330000E+03 0.  0.
<mgrwt>
<rscale>  0 0.89740516E+03</rscale>
<asrwt>0</asrwt>
<pdfrwt beam="1">  1        2 0.18903205E+00 0.96501584E+03</pdfrwt>
<pdfrwt beam="2">  1       -2 0.10629535E+00 0.96501584E+03</pdfrwt>
<totfact> 0.12956195E+01</totfact>
</mgrwt>
</event>
<event>
 4    1  0.6502538E-008  0.9076154E+03  0.7818608E-02  0.9513915E-01
          2   -1    0    0  501    0  0.00000000000E+00  0.00000000000E+00  0.26068897285E+04  0.26068897285E+04  0.25500000000E-02 0. -1.
         -2   -1    0    0    0  501 -0.00000000000E+00 -0.00000000000E+00 -0.95446552446E+03  0.95446552446E+03  0.25500000000E-02 0.  1.
    8880023    1    1    2    0    0 -0.43998305176E+03 -0.44313707132E+03  0.24055814046E+04  0.25711063086E+04  0.65864270000E+03 0. -1.
    8880022    1    1    2    0    0  0.43998305176E+03  0.44313707132E+03 -0.75315720061E+03  0.99024894429E+03  0.15294330000E+03 0.  0.
<mgrwt>
<rscale>  0 0.83265631E+03</rscale>
<asrwt>0</asrwt>
<pdfrwt beam="1">  1        2 0.40105996E+00 0.90761542E+03</pdfrwt>
<pdfrwt beam="2">  1       -2 0.14684085E+00 0.90761542E+03</pdfrwt>
<totfact> 0.97831993E-01</totfact>
</mgrwt>
</event>
<event>
 4    1  0.6502538E-008  0.6952428E+03  0.7818608E-02  0.1001754E+00
          2   -1    0    0  501    0  0.00000000000E+00  0.00000000000E+00  0.17162952040E+04  0.17162952040E+04  0.25500000000E-02 0. -1.
         -2   -1    0    0    0  501 -0.00000000000E+00 -0.00000000000E+00 -0.18585389069E+03  0.18585389071E+03  0.25500000000E-02 0.  1.
    8880023    1    1    2    0    0 -0.21204940121E+03  0.67730022838E+02  0.14689299742E+04  0.16251516175E+04  0.65864270000E+03 0.  0.
    8880022    1    1    2    0    0  0.21204940121E+03 -0.67730022838E+02  0.61511339171E+02  0.27699747726E+03  0.15294330000E+03 0.  0.
<mgrwt>
<rscale>  0 0.54887826E+03</rscale>
<asrwt>0</asrwt>
<pdfrwt beam="1">  1        2 0.26404541E+00 0.69524277E+03</pdfrwt>
<pdfrwt beam="2">  1       -2 0.28592907E-01 0.69524277E+03</pdfrwt>
<totfact> 0.11048201E+02</totfact>
</mgrwt>
</event>
<event>
 4    1  0.6502538E-008  0.6628030E+03  0.7818608E-02  0.1021452E+00
         -2   -1    0    0    0  501 -0.00000000000E+00  0.00000000000E+00  0.27965374833E+03  0.27965374834E+03  0.25500000000E-02 0.  1.
          2   -1    0    0  501    0  0.00000000000E+00 -0.00000000000E+00 -0.17631787364E+04  0.17631787364E+04  0.25500000000E-02 0. -1.
    8880023    1    1    2    0    0 -0.43427492187E+02 -0.60096920389E+02 -0.16662747510E+04  0.17932594177E+04  0.65864270000E+03 0. -1.
    8880022    1    1    2    0    0  0.43427492187E+02  0.60096920389E+02  0.18274976296E+03  0.24957306705E+03  0.15294330000E+03 0.  0.
<mgrwt>
<rscale>  0 0.47166142E+03</rscale>
<asrwt>0</asrwt>
<pdfrwt beam="1">  1        2 0.27125826E+00 0.66280298E+03</pdfrwt>
<pdfrwt beam="2">  1       -2 0.43023655E-01 0.66280298E+03</pdfrwt>
<totfact> 0.48040489E+01</totfact>
</mgrwt>
</event>
<event>
 4    1  0.6502538E-008  0.8092927E+03  0.7818608E-02  0.9691052E-01
          2   -1    0    0  501    0  0.00000000000E+00  0.00000000000E+00  0.86447879282E+03  0.86447879282E+03  0.25500000000E-02 0. -1.
         -2   -1    0    0    0  501 -0.00000000000E+00 -0.00000000000E+00 -0.96285291016E+03  0.96285291016E+03  0.25500000000E-02 0.  1.
    8880023    1    1    2    0    0 -0.44945236158E+03 -0.13833686613E+03  0.57436651260E+03  0.99239690191E+03  0.65864270000E+03 0.  0.
    8880022    1    1    2    0    0  0.44945236158E+03  0.13833686613E+03 -0.67274062994E+03  0.83493480108E+03  0.15294330000E+03 0.  0.
<mgrwt>
<rscale>  0 0.71552056E+03</rscale>
<asrwt>0</asrwt>
<pdfrwt beam="1">  1        2 0.13299674E+00 0.80929273E+03</pdfrwt>
<pdfrwt beam="2">  1       -2 0.14813122E+00 0.80929273E+03</pdfrwt>
<totfact> 0.97015939E+00</totfact>
</mgrwt>
</event>
<event>
 4    1  0.6502538E-008  0.1026237E+04  0.7818608E-02  0.9348009E-01
          2   -1    0    0  501    0  0.00000000000E+00  0.00000000000E+00  0.47932451998E+04  0.47932451998E+04  0.25500000000E-02 0. -1.
         -2   -1    0    0    0  501 -0.00000000000E+00 -0.00000000000E+00 -0.49966716244E+03  0.49966716245E+03  0.25500000000E-02 0.  1.
    8880023    1    1    2    0    0  0.74702195509E+03 -0.24761033965E+03  0.43687661470E+04  0.44876809752E+04  0.65864270000E+03 0. -1.
    8880022    1    1    2    0    0 -0.74702195509E+03  0.24761033965E+03 -0.75188109734E+02  0.80523138696E+03  0.15294330000E+03 0.  0.
<mgrwt>
<rscale>  0 0.96480737E+03</rscale>
<asrwt>0</asrwt>
<pdfrwt beam="1">  1        2 0.73742235E+00 0.10262372E+04</pdfrwt>
<pdfrwt beam="2">  1       -2 0.76871870E-01 0.10262372E+04</pdfrwt>
<totfact> 0.99241222E-02</totfact>
</mgrwt>
</event>
<event>
 4    1  0.6502538E-008  0.7982240E+03  0.7818608E-02  0.9714649E-01
         -2   -1    0    0    0  501 -0.00000000000E+00  0.00000000000E+00  0.73907673249E+03  0.73907673250E+03  0.25500000000E-02 0.  1.
          2   -1    0    0  501    0  0.00000000000E+00 -0.00000000000E+00 -0.27765551944E+04  0.27765551944E+04  0.25500000000E-02 0. -1.
    8880023    1    1    2    0    0 -0.15256629089E+03  0.42435235942E+03 -0.26340395937E+04  0.27523310458E+04  0.65864270000E+03 0.  0.
    8880022    1    1    2    0    0  0.15256629089E+03 -0.42435235942E+03  0.59656113182E+03  0.76330088109E+03  0.15294330000E+03 0.  0.
<mgrwt>
<rscale>  0 0.70151239E+03</rscale>
<asrwt>0</asrwt>
<pdfrwt beam="1">  1        2 0.42716233E+00 0.79822403E+03</pdfrwt>
<pdfrwt beam="2">  1       -2 0.11370411E+00 0.79822403E+03</pdfrwt>
<totfact> 0.15201075E+00</totfact>
</mgrwt>
</event>
<event>
 4    1  0.6502538E-008  0.6588190E+03  0.7818608E-02  0.1025400E+00
          2   -1    0    0  501    0  0.00000000000E+00  0.00000000000E+00  0.76289240650E+03  0.76289240650E+03  0.25500000000E-02 0. -1.
         -2   -1    0    0    0  501 -0.00000000000E+00 -0.00000000000E+00 -0.37828319534E+03  0.37828319535E+03  0.25500000000E-02 0.  1.
    8880023    1    1    2    0    0 -0.98722137111E+01  0.11607959650E+02  0.59017326220E+03  0.88450375410E+03  0.65864270000E+03 0. -1.
    8880022    1    1    2    0    0  0.98722137111E+01 -0.11607959650E+02 -0.20556405105E+03  0.25667184775E+03  0.15294330000E+03 0.  0.
<mgrwt>
<rscale>  0 0.45787129E+03</rscale>
<asrwt>0</asrwt>
<pdfrwt beam="1">  1        2 0.11736806E+00 0.65881895E+03</pdfrwt>
<pdfrwt beam="2">  1       -2 0.58197415E-01 0.65881895E+03</pdfrwt>
<totfact> 0.10316458E+02</totfact>
</mgrwt>
</event>
<event>
 4    1  0.6502538E-008  0.1292048E+04  0.7818608E-02  0.9072458E-01
         -2   -1    0    0    0  501 -0.00000000000E+00  0.00000000000E+00  0.14440332343E+04  0.14440332343E+04  0.25500000000E-02 0.  1.
          2   -1    0    0  501    0  0.00000000000E+00 -0.00000000000E+00 -0.16773829649E+04  0.16773829649E+04  0.25500000000E-02 0. -1.
    8880023    1    1    2    0    0 -0.10900601923E+04 -0.21759129775E+03 -0.11053720650E+04  0.17003631389E+04  0.65864270000E+03 0. -1.
    8880022    1    1    2    0    0  0.10900601923E+04  0.21759129775E+03  0.87202233437E+03  0.14210530603E+04  0.15294330000E+03 0.  0.
<mgrwt>
<rscale>  0 0.12472709E+04</rscale>
<asrwt>0</asrwt>
<pdfrwt beam="1">  1        2 0.25805892E+00 0.12920478E+04</pdfrwt>
<pdfrwt beam="2">  1       -2 0.22215896E+00 0.12920478E+04</pdfrwt>
<totfact> 0.92831548E-01</totfact>
</mgrwt>
</event>
<event>
 4    1  0.6502538E-008  0.6873511E+03  0.7818608E-02  0.1005438E+00
          2   -1    0    0  501    0  0.00000000000E+00  0.00000000000E+00  0.12464629921E+04  0.12464629921E+04  0.25500000000E-02 0. -1.
         -2   -1    0    0    0  501 -0.00000000000E+00 -0.00000000000E+00 -0.27903824803E+03  0.27903824804E+03  0.25500000000E-02 0.  1.
    8880023    1    1    2    0    0 -0.11556328722E+03  0.15901724804E+03  0.10569877832E+04  0.12608230402E+04  0.65864270000E+03 0. -1.
    8880022    1    1    2    0    0  0.11556328722E+03 -0.15901724804E+03 -0.89563039166E+02  0.26467819995E+03  0.15294330000E+03 0.  1.
<mgrwt>
<rscale>  0 0.53328804E+03</rscale>
<asrwt>0</asrwt>
<pdfrwt beam="1">  1        2 0.19176354E+00 0.68735112E+03</pdfrwt>
<pdfrwt beam="2">  1       -2 0.42928961E-01 0.68735112E+03</pdfrwt>
<totfact> 0.93398634E+01</totfact>
</mgrwt>
</event>
<event>
 4    1  0.6502538E-008  0.1005686E+04  0.7818608E-02  0.9374156E-01
          2   -1    0    0  501    0  0.00000000000E+00  0.00000000000E+00  0.63277330378E+03  0.63277330378E+03  0.25500000000E-02 0. -1.
         -2   -1    0    0    0  501 -0.00000000000E+00 -0.00000000000E+00 -0.13913774615E+04  0.13913774615E+04  0.25500000000E-02 0.  1.
    8880023    1    1    2    0    0 -0.16522451691E+03  0.74181854293E+03 -0.10684616639E+03  0.10113457377E+04  0.65864270000E+03 0. -1.
    8880022    1    1    2    0    0  0.16522451691E+03 -0.74181854293E+03 -0.65175799132E+03  0.10128050276E+04  0.15294330000E+03 0.  0.
<mgrwt>
<rscale>  0 0.94233380E+03</rscale>
<asrwt>0</asrwt>
<pdfrwt beam="1">  1        2 0.97349739E-01 0.10056859E+04</pdfrwt>
<pdfrwt beam="2">  1       -2 0.21405807E+00 0.10056859E+04</pdfrwt>
<totfact> 0.49844078E+00</totfact>
</mgrwt>
</event>
<event>
 4    1  0.6502538E-008  0.2546858E+04  0.7818608E-02  0.8393734E-01
          2   -1    0    0  501    0  0.00000000000E+00  0.00000000000E+00  0.30758933556E+04  0.30758933556E+04  0.25500000000E-02 0. -1.
         -2   -1    0    0    0  501 -0.00000000000E+00 -0.00000000000E+00 -0.22195822320E+04  0.22195822320E+04  0.25500000000E-02 0.  1.
    8880023    1    1    2    0    0 -0.83821182824E+03  0.23130231946E+04 -0.31518569077E+03  0.25662867325E+04  0.65864270000E+03 0.  0.
    8880022    1    1    2    0    0  0.83821182824E+03 -0.23130231946E+04  0.11714968143E+04  0.27291888551E+04  0.15294330000E+03 0.  0.
<mgrwt>
<rscale>  0 0.25261339E+04</rscale>
<asrwt>0</asrwt>
<pdfrwt beam="1">  1        2 0.47321436E+00 0.25468580E+04</pdfrwt>
<pdfrwt beam="2">  1       -2 0.34147419E+00 0.25468580E+04</pdfrwt>
<totfact> 0.22933321E-02</totfact>
</mgrwt>
</event>
<event>
 4    1  0.6502538E-008  0.1389753E+04  0.7818608E-02  0.8991686E-01
          2   -1    0    0  501    0  0.00000000000E+00  0.00000000000E+00  0.35252987854E+04  0.35252987854E+04  0.25500000000E-02 0. -1.
         -2   -1    0    0    0  501 -0.00000000000E+00 -0.00000000000E+00 -0.62996951753E+03  0.62996951754E+03  0.25500000000E-02 0.  1.
    8880023    1    1    2    0    0  0.22226709940E+02  0.12235645178E+04  0.24997402240E+04  0.28600901297E+04  0.65864270000E+03 0.  0.
    8880022    1    1    2    0    0 -0.22226709940E+02 -0.12235645178E+04  0.39558904387E+03  0.12951781733E+04  0.15294330000E+03 0.  0.
<mgrwt>
<rscale>  0 0.13488675E+04</rscale>
<asrwt>0</asrwt>
<pdfrwt beam="1">  1        2 0.54235365E+00 0.13897533E+04</pdfrwt>
<pdfrwt beam="2">  1       -2 0.96918388E-01 0.13897533E+04</pdfrwt>
<totfact> 0.67732887E-01</totfact>
</mgrwt>
</event>
<event>
 4    1  0.6502538E-008  0.1295158E+04  0.7818608E-02  0.9069753E-01
         -2   -1    0    0    0  501 -0.00000000000E+00  0.00000000000E+00  0.83937648374E+03  0.83937648375E+03  0.25500000000E-02 0.  1.
          2   -1    0    0  501    0  0.00000000000E+00 -0.00000000000E+00 -0.41855091023E+04  0.41855091023E+04  0.25500000000E-02 0. -1.
    8880023    1    1    2    0    0  0.58581250231E+03 -0.94891888908E+03 -0.36383149899E+04  0.38619644636E+04  0.65864270000E+03 0. -1.
    8880022    1    1    2    0    0 -0.58581250231E+03  0.94891888908E+03  0.29218237136E+03  0.11629211225E+04  0.15294330000E+03 0.  0.
<mgrwt>
<rscale>  0 0.12505173E+04</rscale>
<asrwt>0</asrwt>
<pdfrwt beam="1">  1        2 0.64392446E+00 0.12951577E+04</pdfrwt>
<pdfrwt beam="2">  1       -2 0.12913485E+00 0.12951577E+04</pdfrwt>
<totfact> 0.10559577E-01</totfact>
</mgrwt>
</event>
<event>
 4    1  0.8925280E-008  0.2172631E+04  0.7818608E-02  0.8540360E-01
         -2   -1    0    0    0  501 -0.00000000000E+00  0.00000000000E+00  0.31748243290E+04  0.31748243290E+04  0.25500000000E-02 0.  1.
          2   -1    0    0  501    0  0.00000000000E+00 -0.00000000000E+00 -0.27031422793E+04  0.27031422793E+04  0.25500000000E-02 0. -1.
    8880023    1    1    2    0    0 -0.95332870215E+03 -0.18378461514E+04 -0.17848213341E+04  0.28117452750E+04  0.65864270000E+03 0.  0.
    8880022    1    1    2    0    0  0.95332870215E+03  0.18378461514E+04  0.22565033838E+04  0.30662213333E+04  0.15294330000E+03 0.  0.
<mgrwt>
<rscale>  0 0.21480674E+04</rscale>
<asrwt>0</asrwt>
<pdfrwt beam="1">  1        2 0.41586804E+00 0.21726307E+04</pdfrwt>
<pdfrwt beam="2">  1       -2 0.48843451E+00 0.21726307E+04</pdfrwt>
<totfact> 0.44133063E-03</totfact>
</mgrwt>
</event>
<event>
 4    1  0.6502538E-008  0.6691580E+03  0.7818608E-02  0.1016274E+00
          2   -1    0    0  501    0  0.00000000000E+00  0.00000000000E+00  0.11955946869E+04  0.11955946869E+04  0.25500000000E-02 0. -1.
         -2   -1    0    0    0  501 -0.00000000000E+00 -0.00000000000E+00 -0.33977783716E+03  0.33977783717E+03  0.25500000000E-02 0.  1.
    8880023    1    1    2    0    0  0.60320472489E+02  0.10160539173E+03  0.10604323815E+04  0.12539095889E+04  0.65864270000E+03 0. -1.
    8880022    1    1    2    0    0 -0.60320472489E+02 -0.10160539173E+03 -0.20461553178E+03  0.28146293520E+03  0.15294330000E+03 0.  0.
<mgrwt>
<rscale>  0 0.49055584E+03</rscale>
<asrwt>0</asrwt>
<pdfrwt beam="1">  1        2 0.18393765E+00 0.66915799E+03</pdfrwt>
<pdfrwt beam="2">  1       -2 0.52273512E-01 0.66915799E+03</pdfrwt>
<totfact> 0.67437209E+01</totfact>
</mgrwt>
</event>
<event>
 4    1  0.6502538E-008  0.1002174E+04  0.7818608E-02  0.9378719E-01
          2   -1    0    0  501    0  0.00000000000E+00  0.00000000000E+00  0.23104480823E+04  0.23104480823E+04  0.25500000000E-02 0. -1.
         -2   -1    0    0    0  501 -0.00000000000E+00 -0.00000000000E+00 -0.42436809110E+03  0.42436809110E+03  0.25500000000E-02 0.  1.
    8880023    1    1    2    0    0  0.21385234813E+03 -0.72443719529E+03  0.16469473258E+04  0.19278972423E+04  0.65864270000E+03 0.  0.
    8880022    1    1    2    0    0 -0.21385234813E+03  0.72443719529E+03  0.23913266545E+03  0.80691893113E+03  0.15294330000E+03 0.  0.
<mgrwt>
<rscale>  0 0.93847893E+03</rscale>
<asrwt>0</asrwt>
<pdfrwt beam="1">  1        2 0.35545355E+00 0.10021738E+04</pdfrwt>
<pdfrwt beam="2">  1       -2 0.65287399E-01 0.10021738E+04</pdfrwt>
<totfact> 0.97457116E+00</totfact>
</mgrwt>
</event>
<event>
 4    1  0.6502538E-008  0.8666986E+03  0.7818608E-02  0.9581757E-01
          2   -1    0    0  501    0  0.00000000000E+00  0.00000000000E+00  0.19488444927E+04  0.19488444927E+04  0.25500000000E-02 0. -1.
         -2   -1    0    0    0  501 -0.00000000000E+00 -0.00000000000E+00 -0.80520900472E+03  0.80520900473E+03  0.25500000000E-02 0.  1.
    8880023    1    1    2    0    0  0.40148266792E+03  0.39518086638E+03  0.17248194382E+04  0.19303286120E+04  0.65864270000E+03 0.  0.
    8880022    1    1    2    0    0 -0.40148266792E+03 -0.39518086638E+03 -0.58118395023E+03  0.82372488539E+03  0.15294330000E+03 0.  0.
<mgrwt>
<rscale>  0 0.78515467E+03</rscale>
<asrwt>0</asrwt>
<pdfrwt beam="1">  1        2 0.29982223E+00 0.86669860E+03</pdfrwt>
<pdfrwt beam="2">  1       -2 0.12387831E+00 0.86669860E+03</pdfrwt>
<totfact> 0.35557879E+00</totfact>
</mgrwt>
</event>
<event>
 4    1  0.6502538E-008  0.8321076E+03  0.7818608E-02  0.9645245E-01
         -2   -1    0    0    0  501 -0.00000000000E+00  0.00000000000E+00  0.52619152478E+03  0.52619152479E+03  0.25500000000E-02 0.  1.
          2   -1    0    0  501    0  0.00000000000E+00 -0.00000000000E+00 -0.14878962551E+04  0.14878962552E+04  0.25500000000E-02 0. -1.
    8880023    1    1    2    0    0  0.42150926257E+03 -0.28446933673E+03 -0.11767039852E+04  0.14411923317E+04  0.65864270000E+03 0. -1.
    8880022    1    1    2    0    0 -0.42150926257E+03  0.28446933673E+03  0.21499925485E+03  0.57289544820E+03  0.15294330000E+03 0.  0.
<mgrwt>
<rscale>  0 0.74372568E+03</rscale>
<asrwt>0</asrwt>
<pdfrwt beam="1">  1        2 0.22890711E+00 0.83210761E+03</pdfrwt>
<pdfrwt beam="2">  1       -2 0.80952543E-01 0.83210761E+03</pdfrwt>
<totfact> 0.17600041E+01</totfact>
</mgrwt>
</event>
<event>
 4    1  0.6502538E-008  0.7505539E+03  0.7818608E-02  0.9830206E-01
          2   -1    0    0  501    0  0.00000000000E+00  0.00000000000E+00  0.24327862677E+04  0.24327862677E+04  0.25500000000E-02 0. -1.
         -2   -1    0    0    0  501 -0.00000000000E+00 -0.00000000000E+00 -0.48617275707E+03  0.48617275707E+03  0.25500000000E-02 0.  1.
    8880023    1    1    2    0    0  0.19057683577E+03 -0.30528910894E+03  0.22829565316E+04  0.24031690955E+04  0.65864270000E+03 0. -1.
    8880022    1    1    2    0    0 -0.19057683577E+03  0.30528910894E+03 -0.33634302093E+03  0.51578992925E+03  0.15294330000E+03 0.  0.
<mgrwt>
<rscale>  0 0.63766391E+03</rscale>
<asrwt>0</asrwt>
<pdfrwt beam="1">  1        2 0.37427481E+00 0.75055391E+03</pdfrwt>
<pdfrwt beam="2">  1       -2 0.74795808E-01 0.75055391E+03</pdfrwt>
<totfact> 0.64055890E+00</totfact>
</mgrwt>
</event>
<event>
 4    1  0.6502538E-008  0.6815479E+03  0.7818608E-02  0.1008461E+00
         -2   -1    0    0    0  501 -0.00000000000E+00  0.00000000000E+00  0.53779778781E+03  0.53779778782E+03  0.25500000000E-02 0.  1.
          2   -1    0    0  501    0  0.00000000000E+00 -0.00000000000E+00 -0.49472684869E+03  0.49472684870E+03  0.25500000000E-02 0. -1.
    8880023    1    1    2    0    0 -0.15662770696E+03 -0.78517768516E+02 -0.18559879151E+03  0.70636704073E+03  0.65864270000E+03 0. -1.
    8880022    1    1    2    0    0  0.15662770696E+03  0.78517768516E+02  0.22866973063E+03  0.32615759578E+03  0.15294330000E+03 0.  0.
<mgrwt>
<rscale>  0 0.52090775E+03</rscale>
<asrwt>0</asrwt>
<pdfrwt beam="1">  1        2 0.76111823E-01 0.68154786E+03</pdfrwt>
<pdfrwt beam="2">  1       -2 0.82738121E-01 0.68154786E+03</pdfrwt>
<totfact> 0.81096646E+01</totfact>
</mgrwt>
</event>
<event>
 4    1  0.6502538E-008  0.1113571E+04  0.7818608E-02  0.9246095E-01
          2   -1    0    0  501    0  0.00000000000E+00  0.00000000000E+00  0.19909415115E+04  0.19909415115E+04  0.25500000000E-02 0. -1.
         -2   -1    0    0    0  501 -0.00000000000E+00 -0.00000000000E+00 -0.20430427360E+04  0.20430427360E+04  0.25500000000E-02 0.  1.
    8880023    1    1    2    0    0  0.40270000865E+03 -0.80253509373E+03  0.17156591589E+04  0.20453670647E+04  0.65864270000E+03 0.  0.
    8880022    1    1    2    0    0 -0.40270000865E+03  0.80253509373E+03 -0.17677603834E+04  0.19886171828E+04  0.15294330000E+03 0.  0.
<mgrwt>
<rscale>  0 0.10590059E+04</rscale>
<asrwt>0</asrwt>
<pdfrwt beam="1">  1        2 0.30629869E+00 0.11135709E+04</pdfrwt>
<pdfrwt beam="2">  1       -2 0.31431427E+00 0.11135709E+04</pdfrwt>
<totfact> 0.17406832E-01</totfact>
</mgrwt>
</event>
<event>
 4    1  0.6502538E-008  0.1329918E+04  0.7818608E-02  0.9040145E-01
          2   -1    0    0  501    0  0.00000000000E+00  0.00000000000E+00  0.13829802947E+04  0.13829802947E+04  0.25500000000E-02 0. -1.
         -2   -1    0    0    0  501 -0.00000000000E+00 -0.00000000000E+00 -0.13794468949E+04  0.13794468949E+04  0.25500000000E-02 0.  1.
    8880023    1    1    2    0    0  0.10860833371E+04 -0.39407391324E+03  0.59329611854E+03  0.14562560746E+04  0.65864270000E+03 0.  0.
    8880022    1    1    2    0    0 -0.10860833371E+04  0.39407391324E+03 -0.58976271877E+03  0.13061711150E+04  0.15294330000E+03 0.  0.
<mgrwt>
<rscale>  0 0.12867423E+04</rscale>
<asrwt>0</asrwt>
<pdfrwt beam="1">  1        2 0.21276620E+00 0.13299178E+04</pdfrwt>
<pdfrwt beam="2">  1       -2 0.21222260E+00 0.13299178E+04</pdfrwt>
<totfact> 0.15702096E+00</totfact>
</mgrwt>
</event>
<event>
 4    1  0.6502538E-008  0.7713208E+03  0.7818608E-02  0.9776634E-01
          2   -1    0    0  501    0  0.00000000000E+00  0.00000000000E+00  0.40142100729E+03  0.40142100730E+03  0.25500000000E-02 0. -1.
         -2   -1    0    0    0  501 -0.00000000000E+00 -0.00000000000E+00 -0.11471477741E+04  0.11471477741E+04  0.25500000000E-02 0.  1.
    8880023    1    1    2    0    0 -0.39479932675E+03 -0.72519076157E+02 -0.10681433531E+03  0.77868159944E+03  0.65864270000E+03 0.  0.
    8880022    1    1    2    0    0  0.39479932675E+03  0.72519076157E+02 -0.63891243145E+03  0.76988718192E+03  0.15294330000E+03 0.  1.
<mgrwt>
<rscale>  0 0.66631696E+03</rscale>
<asrwt>0</asrwt>
<pdfrwt beam="1">  1        2 0.61757078E-01 0.77132077E+03</pdfrwt>
<pdfrwt beam="2">  1       -2 0.17648427E+00 0.77132077E+03</pdfrwt>
<totfact> 0.15396940E+01</totfact>
</mgrwt>
</event>
<event>
 4    1  0.6502538E-008  0.1336889E+04  0.7818608E-02  0.9034341E-01
         -2   -1    0    0    0  501 -0.00000000000E+00  0.00000000000E+00  0.37986714846E+03  0.37986714847E+03  0.25500000000E-02 0.  1.
          2   -1    0    0  501    0  0.00000000000E+00 -0.00000000000E+00 -0.43836343943E+04  0.43836343943E+04  0.25500000000E-02 0. -1.
    8880023    1    1    2    0    0  0.33434543427E+03 -0.11143047139E+04 -0.26772770577E+04  0.29925047226E+04  0.65864270000E+03 0. -1.
    8880022    1    1    2    0    0 -0.33434543427E+03  0.11143047139E+04 -0.13264901882E+04  0.17709968202E+04  0.15294330000E+03 0.  0.
<mgrwt>
<rscale>  0 0.12939946E+04</rscale>
<asrwt>0</asrwt>
<pdfrwt beam="1">  1        2 0.67440526E+00 0.13368890E+04</pdfrwt>
<pdfrwt beam="2">  1       -2 0.58441103E-01 0.13368890E+04</pdfrwt>
<totfact> 0.43974608E-01</totfact>
</mgrwt>
</event>
<event>
 4    1  0.6502538E-008  0.8284271E+03  0.7818608E-02  0.9652401E-01
         -2   -1    0    0    0  501 -0.00000000000E+00  0.00000000000E+00  0.99734246119E+03  0.99734246119E+03  0.25500000000E-02 0.  1.
          2   -1    0    0  501    0  0.00000000000E+00 -0.00000000000E+00 -0.24099249923E+04  0.24099249923E+04  0.25500000000E-02 0. -1.
    8880023    1    1    2    0    0  0.35109914898E+03 -0.35945871137E+03 -0.22618036400E+04  0.24087438822E+04  0.65864270000E+03 0. -1.
    8880022    1    1    2    0    0 -0.35109914898E+03  0.35945871137E+03  0.84922110893E+03  0.99852357131E+03  0.15294330000E+03 0.  0.
<mgrwt>
<rscale>  0 0.73922955E+03</rscale>
<asrwt>0</asrwt>
<pdfrwt beam="1">  1        2 0.37075769E+00 0.82842705E+03</pdfrwt>
<pdfrwt beam="2">  1       -2 0.15343730E+00 0.82842705E+03</pdfrwt>
<totfact> 0.11440655E+00</totfact>
</mgrwt>
</event>
<event>
 4    1  0.6502538E-008  0.6935791E+03  0.7818608E-02  0.1002496E+00
          2   -1    0    0  501    0  0.00000000000E+00  0.00000000000E+00  0.69418496293E+03  0.69418496294E+03  0.25500000000E-02 0. -1.
         -2   -1    0    0    0  501 -0.00000000000E+00 -0.00000000000E+00 -0.55439332433E+03  0.55439332433E+03  0.25500000000E-02 0.  1.
    8880023    1    1    2    0    0 -0.14706657908E+03  0.16004100226E+03  0.46014223463E+03  0.83233573962E+03  0.65864270000E+03 0.  0.
    8880022    1    1    2    0    0  0.14706657908E+03 -0.16004100226E+03 -0.32035059603E+03  0.41624254765E+03  0.15294330000E+03 0.  1.
<mgrwt>
<rscale>  0 0.54569278E+03</rscale>
<asrwt>0</asrwt>
<pdfrwt beam="1">  1        2 0.10679769E+00 0.69357906E+03</pdfrwt>
<pdfrwt beam="2">  1       -2 0.85291280E-01 0.69357906E+03</pdfrwt>
<totfact> 0.50363477E+01</totfact>
</mgrwt>
</event>
<event>
 4    1  0.6502538E-008  0.1376436E+04  0.7818608E-02  0.9002212E-01
         -2   -1    0    0    0  501 -0.00000000000E+00  0.00000000000E+00  0.65151061177E+03  0.65151061178E+03  0.25500000000E-02 0.  1.
          2   -1    0    0  501    0  0.00000000000E+00 -0.00000000000E+00 -0.34107699397E+04  0.34107699397E+04  0.25500000000E-02 0. -1.
    8880023    1    1    2    0    0  0.12046813715E+04  0.97515611020E+02 -0.24422998185E+04  0.28034630568E+04  0.65864270000E+03 0.  0.
    8880022    1    1    2    0    0 -0.12046813715E+04 -0.97515611020E+02 -0.31695950942E+03  0.12588174947E+04  0.15294330000E+03 0.  0.
<mgrwt>
<rscale>  0 0.13350640E+04</rscale>
<asrwt>0</asrwt>
<pdfrwt beam="1">  1        2 0.52473383E+00 0.13764362E+04</pdfrwt>
<pdfrwt beam="2">  1       -2 0.10023240E+00 0.13764362E+04</pdfrwt>
<totfact> 0.75085230E-01</totfact>
</mgrwt>
</event>
<event>
 4    1  0.6502538E-008  0.8452403E+03  0.7818608E-02  0.9620377E-01
         -2   -1    0    0    0  501 -0.00000000000E+00  0.00000000000E+00  0.39008746481E+03  0.39008746482E+03  0.25500000000E-02 0.  1.
          2   -1    0    0  501    0  0.00000000000E+00 -0.00000000000E+00 -0.21124779029E+04  0.21124779029E+04  0.25500000000E-02 0. -1.
    8880023    1    1    2    0    0 -0.45188439286E+03 -0.27644417449E+03 -0.17573821272E+04  0.19500828273E+04  0.65864270000E+03 0.  0.
    8880022    1    1    2    0    0  0.45188439286E+03  0.27644417449E+03  0.34991689122E+02  0.55248254040E+03  0.15294330000E+03 0.  0.
<mgrwt>
<rscale>  0 0.75962031E+03</rscale>
<asrwt>0</asrwt>
<pdfrwt beam="1">  1        2 0.32499659E+00 0.84524026E+03</pdfrwt>
<pdfrwt beam="2">  1       -2 0.60013457E-01 0.84524026E+03</pdfrwt>
<totfact> 0.15324231E+01</totfact>
</mgrwt>
</event>
<event>
 4    1  0.6502538E-008  0.6917572E+03  0.7818608E-02  0.1003328E+00
          2   -1    0    0  501    0  0.00000000000E+00  0.00000000000E+00  0.13367566511E+04  0.13367566511E+04  0.25500000000E-02 0. -1.
         -2   -1    0    0    0  501 -0.00000000000E+00 -0.00000000000E+00 -0.76361558861E+03  0.76361558861E+03  0.25500000000E-02 0.  1.
    8880023    1    1    2    0    0 -0.10493152785E+03 -0.18359524174E+03  0.12202107672E+04  0.14026554676E+04  0.65864270000E+03 0. -1.
    8880022    1    1    2    0    0  0.10493152785E+03  0.18359524174E+03 -0.64706970467E+03  0.69771677208E+03  0.15294330000E+03 0.  0.
<mgrwt>
<rscale>  0 0.54214596E+03</rscale>
<asrwt>0</asrwt>
<pdfrwt beam="1">  1        2 0.20565487E+00 0.69175722E+03</pdfrwt>
<pdfrwt beam="2">  1       -2 0.11747932E+00 0.69175722E+03</pdfrwt>
<totfact> 0.90735203E+00</totfact>
</mgrwt>
</event>
<event>
 4    1  0.6502538E-008  0.1147323E+04  0.7818608E-02  0.9210111E-01
         -2   -1    0    0    0  501 -0.00000000000E+00  0.00000000000E+00  0.81063886980E+03  0.81063886981E+03  0.25500000000E-02 0.  1.
          2   -1    0    0  501    0  0.00000000000E+00 -0.00000000000E+00 -0.27438632345E+04  0.27438632345E+04  0.25500000000E-02 0. -1.
    8880023    1    1    2    0    0 -0.30916153729E+03 -0.88710665911E+03 -0.22711432274E+04  0.25444922571E+04  0.65864270000E+03 0. -1.
    8880022    1    1    2    0    0  0.30916153729E+03  0.88710665911E+03  0.33791886267E+03  0.10100098472E+04  0.15294330000E+03 0.  0.
<mgrwt>
<rscale>  0 0.10949671E+04</rscale>
<asrwt>0</asrwt>
<pdfrwt beam="1">  1        2 0.42213280E+00 0.11473227E+04</pdfrwt>
<pdfrwt beam="2">  1       -2 0.12471367E+00 0.11473227E+04</pdfrwt>
<totfact> 0.11938387E+00</totfact>
</mgrwt>
</event>
<event>
 4    1  0.6502538E-008  0.1135724E+04  0.7818608E-02  0.9222287E-01
          2   -1    0    0  501    0  0.00000000000E+00  0.00000000000E+00  0.30403695015E+04  0.30403695015E+04  0.25500000000E-02 0. -1.
         -2   -1    0    0    0  501 -0.00000000000E+00 -0.00000000000E+00 -0.50870849332E+03  0.50870849332E+03  0.25500000000E-02 0.  1.
    8880023    1    1    2    0    0  0.38027506132E+03  0.84347429314E+03  0.23267859441E+04  0.25891699522E+04  0.65864270000E+03 0.  0.
    8880022    1    1    2    0    0 -0.38027506132E+03 -0.84347429314E+03  0.20487506413E+03  0.95990804266E+03  0.15294330000E+03 0.  0.
<mgrwt>
<rscale>  0 0.10826320E+04</rscale>
<asrwt>0</asrwt>
<pdfrwt beam="1">  1        2 0.46774915E+00 0.11357237E+04</pdfrwt>
<pdfrwt beam="2">  1       -2 0.78262845E-01 0.11357237E+04</pdfrwt>
<totfact> 0.23913576E+00</totfact>
</mgrwt>
</event>
<event>
 4    1  0.6502538E-008  0.6886472E+03  0.7818608E-02  0.1004802E+00
          2   -1    0    0  501    0  0.00000000000E+00  0.00000000000E+00  0.66425166724E+03  0.66425166724E+03  0.25500000000E-02 0. -1.
         -2   -1    0    0    0  501 -0.00000000000E+00 -0.00000000000E+00 -0.11607498048E+04  0.11607498048E+04  0.25500000000E-02 0.  1.
    8880023    1    1    2    0    0 -0.10222279527E+03 -0.17313370028E+03  0.46495541589E+03  0.83091426939E+03  0.65864270000E+03 0. -1.
    8880022    1    1    2    0    0  0.10222279527E+03  0.17313370028E+03 -0.96145355346E+03  0.99408720268E+03  0.15294330000E+03 0.  0.
<mgrwt>
<rscale>  0 0.53593752E+03</rscale>
<asrwt>0</asrwt>
<pdfrwt beam="1">  1        2 0.10219256E+00 0.68864721E+03</pdfrwt>
<pdfrwt beam="2">  1       -2 0.17857689E+00 0.68864721E+03</pdfrwt>
<totfact> 0.83227461E+00</totfact>
</mgrwt>
</event>
<event>
 4    1  0.6502538E-008  0.8812882E+03  0.7818608E-02  0.9556763E-01
         -2   -1    0    0    0  501 -0.00000000000E+00  0.00000000000E+00  0.35816079479E+03  0.35816079480E+03  0.25500000000E-02 0.  1.
          2   -1    0    0  501    0  0.00000000000E+00 -0.00000000000E+00 -0.39880170723E+04  0.39880170723E+04  0.25500000000E-02 0. -1.
    8880023    1    1    2    0    0  0.82688932763E+02  0.57967334317E+03 -0.36356760966E+04  0.37409637168E+04  0.65864270000E+03 0. -1.
    8880022    1    1    2    0    0 -0.82688932763E+02 -0.57967334317E+03  0.58198191704E+01  0.60521415027E+03  0.15294330000E+03 0.  0.
<mgrwt>
<rscale>  0 0.80225181E+03</rscale>
<asrwt>0</asrwt>
<pdfrwt beam="1">  1        2 0.61354106E+00 0.88128818E+03</pdfrwt>
<pdfrwt beam="2">  1       -2 0.55101663E-01 0.88128818E+03</pdfrwt>
<totfact> 0.11687379E+00</totfact>
</mgrwt>
</event>
<event>
 4    1  0.6502538E-008  0.8513552E+03  0.7818608E-02  0.9609130E-01
          2   -1    0    0  501    0  0.00000000000E+00  0.00000000000E+00  0.15996459991E+04  0.15996459991E+04  0.25500000000E-02 0. -1.
         -2   -1    0    0    0  501 -0.00000000000E+00 -0.00000000000E+00 -0.31215016833E+03  0.31215016834E+03  0.25500000000E-02 0.  1.
    8880023    1    1    2    0    0 -0.53214834463E+03  0.88394476573E+02  0.81469612816E+03  0.11783613332E+04  0.65864270000E+03 0. -1.
    8880022    1    1    2    0    0  0.53214834463E+03 -0.88394476573E+02  0.47279970257E+03  0.73343483415E+03  0.15294330000E+03 0.  1.
<mgrwt>
<rscale>  0 0.76694846E+03</rscale>
<asrwt>0</asrwt>
<pdfrwt beam="1">  1        2 0.24609938E+00 0.85135518E+03</pdfrwt>
<pdfrwt beam="2">  1       -2 0.48023103E-01 0.85135518E+03</pdfrwt>
<totfact> 0.46425856E+01</totfact>
</mgrwt>
</event>
<event>
 4    1  0.6502538E-008  0.1037780E+04  0.7818608E-02  0.9333717E-01
         -2   -1    0    0    0  501 -0.00000000000E+00  0.00000000000E+00  0.11010391416E+04  0.11010391416E+04  0.25500000000E-02 0.  1.
          2   -1    0    0  501    0  0.00000000000E+00 -0.00000000000E+00 -0.16218530220E+04  0.16218530220E+04  0.25500000000E-02 0. -1.
    8880023    1    1    2    0    0  0.16467154766E+03 -0.78489576304E+03 -0.12524930702E+04  0.16265691423E+04  0.65864270000E+03 0. -1.
    8880022    1    1    2    0    0 -0.16467154766E+03  0.78489576304E+03  0.73167918976E+03  0.10963230214E+04  0.15294330000E+03 0.  0.
<mgrwt>
<rscale>  0 0.97737183E+03</rscale>
<asrwt>0</asrwt>
<pdfrwt beam="1">  1        2 0.24951585E+00 0.10377805E+04</pdfrwt>
<pdfrwt beam="2">  1       -2 0.16939064E+00 0.10377805E+04</pdfrwt>
<totfact> 0.23079385E+00</totfact>
</mgrwt>
</event>
<event>
 4    1  0.6502538E-008  0.9606504E+03  0.7818608E-02  0.9434953E-01
         -2   -1    0    0    0  501 -0.00000000000E+00  0.00000000000E+00  0.57650511622E+03  0.57650511623E+03  0.25500000000E-02 0.  1.
          2   -1    0    0  501    0  0.00000000000E+00 -0.00000000000E+00 -0.12992113926E+04  0.12992113927E+04  0.25500000000E-02 0. -1.
    8880023    1    1    2    0    0  0.51492000933E+03  0.47317680235E+03 -0.64179954391E+03  0.11553163044E+04  0.65864270000E+03 0.  0.
    8880022    1    1    2    0    0 -0.51492000933E+03 -0.47317680235E+03 -0.80906732513E+02  0.72040020452E+03  0.15294330000E+03 0.  0.
<mgrwt>
<rscale>  0 0.89254144E+03</rscale>
<asrwt>0</asrwt>
<pdfrwt beam="1">  1        2 0.19987867E+00 0.96065036E+03</pdfrwt>
<pdfrwt beam="2">  1       -2 0.88693095E-01 0.96065036E+03</pdfrwt>
<totfact> 0.18068102E+01</totfact>
</mgrwt>
</event>
<event>
 4    1  0.6502538E-008  0.8164326E+03  0.7818608E-02  0.9676331E-01
         -2   -1    0    0    0  501 -0.00000000000E+00  0.00000000000E+00  0.76587950137E+03  0.76587950138E+03  0.25500000000E-02 0.  1.
          2   -1    0    0  501    0  0.00000000000E+00 -0.00000000000E+00 -0.65336850194E+03  0.65336850194E+03  0.25500000000E-02 0. -1.
    8880023    1    1    2    0    0  0.47878110894E+03  0.59335062253E+02 -0.17811030259E+03  0.83563478029E+03  0.65864270000E+03 0.  0.
    8880022    1    1    2    0    0 -0.47878110894E+03 -0.59335062253E+02  0.29062130202E+03  0.58361322302E+03  0.15294330000E+03 0.  0.
<mgrwt>
<rscale>  0 0.72443714E+03</rscale>
<asrwt>0</asrwt>
<pdfrwt beam="1">  1        2 0.10051823E+00 0.81643261E+03</pdfrwt>
<pdfrwt beam="2">  1       -2 0.11782762E+00 0.81643261E+03</pdfrwt>
<totfact> 0.25011554E+01</totfact>
</mgrwt>
</event>
<event>
 4    1  0.6502538E-008  0.9091331E+03  0.7818608E-02  0.9511526E-01
         -2   -1    0    0    0  501 -0.00000000000E+00  0.00000000000E+00  0.75152878165E+03  0.75152878165E+03  0.25500000000E-02 0.  1.
          2   -1    0    0  501    0  0.00000000000E+00 -0.00000000000E+00 -0.15264646109E+04  0.15264646109E+04  0.25500000000E-02 0. -1.
    8880023    1    1    2    0    0  0.61748907849E+03  0.10686416082E+03 -0.11999836140E+04  0.15054845038E+04  0.65864270000E+03 0. -1.
    8880022    1    1    2    0    0 -0.61748907849E+03 -0.10686416082E+03  0.42504778475E+03  0.77250888879E+03  0.15294330000E+03 0.  0.
<mgrwt>
<rscale>  0 0.83439342E+03</rscale>
<asrwt>0</asrwt>
<pdfrwt beam="1">  1        2 0.23484071E+00 0.90913306E+03</pdfrwt>
<pdfrwt beam="2">  1       -2 0.11561981E+00 0.90913306E+03</pdfrwt>
<totfact> 0.71703325E+00</totfact>
</mgrwt>
</event>
<event>
 4    1  0.6502538E-008  0.1196260E+04  0.7818608E-02  0.9160766E-01
         -2   -1    0    0    0  501 -0.00000000000E+00  0.00000000000E+00  0.22948314419E+04  0.22948314419E+04  0.25500000000E-02 0.  1.
          2   -1    0    0  501    0  0.00000000000E+00 -0.00000000000E+00 -0.12687423626E+04  0.12687423626E+04  0.25500000000E-02 0. -1.
    8880023    1    1    2    0    0  0.18937912703E+03 -0.98049165189E+03 -0.82610008246E+03  0.14537812372E+04  0.65864270000E+03 0.  0.
    8880022    1    1    2    0    0 -0.18937912703E+03  0.98049165189E+03  0.18521891617E+04  0.21097925673E+04  0.15294330000E+03 0.  0.
<mgrwt>
<rscale>  0 0.11467725E+04</rscale>
<asrwt>0</asrwt>
<pdfrwt beam="1">  1        2 0.19519113E+00 0.11962602E+04</pdfrwt>
<pdfrwt beam="2">  1       -2 0.35305099E+00 0.11962602E+04</pdfrwt>
<totfact> 0.25192070E-01</totfact>
</mgrwt>
</event>
<event>
 4    1  0.6502538E-008  0.1485708E+04  0.7818608E-02  0.8919795E-01
          2   -1    0    0  501    0  0.00000000000E+00  0.00000000000E+00  0.42457282839E+04  0.42457282839E+04  0.25500000000E-02 0. -1.
         -2   -1    0    0    0  501 -0.00000000000E+00 -0.00000000000E+00 -0.79337164865E+03  0.79337164865E+03  0.25500000000E-02 0.  1.
    8880023    1    1    2    0    0  0.37124208467E+03  0.12789434505E+04  0.33852607861E+04  0.36969335714E+04  0.65864270000E+03 0.  0.
    8880022    1    1    2    0    0 -0.37124208467E+03 -0.12789434505E+04  0.67095849177E+02  0.13421663612E+04  0.15294330000E+03 0.  0.
<mgrwt>
<rscale>  0 0.14479907E+04</rscale>
<asrwt>0</asrwt>
<pdfrwt beam="1">  1        2 0.65318898E+00 0.14857077E+04</pdfrwt>
<pdfrwt beam="2">  1       -2 0.12205717E+00 0.14857077E+04</pdfrwt>
<totfact> 0.10495166E-01</totfact>
</mgrwt>
</event>
<event>
 4    1  0.6502538E-008  0.7204744E+03  0.7818608E-02  0.9920984E-01
          2   -1    0    0  501    0  0.00000000000E+00  0.00000000000E+00  0.10721565366E+04  0.10721565366E+04  0.25500000000E-02 0. -1.
         -2   -1    0    0    0  501 -0.00000000000E+00 -0.00000000000E+00 -0.38368382861E+03  0.38368382862E+03  0.25500000000E-02 0.  1.
    8880023    1    1    2    0    0 -0.29200290369E+03  0.27317971136E+01  0.82827147424E+03  0.10977782107E+04  0.65864270000E+03 0. -1.
    8880022    1    1    2    0    0  0.29200290369E+03 -0.27317971136E+01 -0.13979876625E+03  0.35806215457E+03  0.15294330000E+03 0.  0.
<mgrwt>
<rscale>  0 0.59255004E+03</rscale>
<asrwt>0</asrwt>
<pdfrwt beam="1">  1        2 0.16494716E+00 0.72047440E+03</pdfrwt>
<pdfrwt beam="2">  1       -2 0.59028283E-01 0.72047440E+03</pdfrwt>
<totfact> 0.61894444E+01</totfact>
</mgrwt>
</event>
<event>
 4    1  0.6502538E-008  0.1156923E+04  0.7818608E-02  0.9200178E-01
          2   -1    0    0  501    0  0.00000000000E+00  0.00000000000E+00  0.17232576525E+04  0.17232576525E+04  0.25500000000E-02 0. -1.
         -2   -1    0    0    0  501 -0.00000000000E+00 -0.00000000000E+00 -0.79240533082E+03  0.79240533082E+03  0.25500000000E-02 0.  1.
    8880023    1    1    2    0    0 -0.26544555283E+03  0.91334529806E+03  0.10276872607E+04  0.15474534846E+04  0.65864270000E+03 0.  0.
    8880022    1    1    2    0    0  0.26544555283E+03 -0.91334529806E+03 -0.96834938994E+02  0.96820949873E+03  0.15294330000E+03 0.  0.
<mgrwt>
<rscale>  0 0.11051595E+04</rscale>
<asrwt>0</asrwt>
<pdfrwt beam="1">  1        2 0.26511656E+00 0.11569232E+04</pdfrwt>
<pdfrwt beam="2">  1       -2 0.12190851E+00 0.11569232E+04</pdfrwt>
<totfact> 0.47579737E+00</totfact>
</mgrwt>
</event>
<event>
 4    1  0.6502538E-008  0.1346219E+04  0.7818608E-02  0.9026640E-01
          2   -1    0    0  501    0  0.00000000000E+00  0.00000000000E+00  0.25515386836E+04  0.25515386836E+04  0.25500000000E-02 0. -1.
         -2   -1    0    0    0  501 -0.00000000000E+00 -0.00000000000E+00 -0.11562640898E+04  0.11562640898E+04  0.25500000000E-02 0.  1.
    8880023    1    1    2    0    0  0.10404568820E+04  0.54400797540E+03  0.19744539281E+04  0.23897225197E+04  0.65864270000E+03 0.  0.
    8880022    1    1    2    0    0 -0.10404568820E+04 -0.54400797540E+03 -0.57917933437E+03  0.13180802537E+04  0.15294330000E+03 0.  0.
<mgrwt>
<rscale>  0 0.13036947E+04</rscale>
<asrwt>0</asrwt>
<pdfrwt beam="1">  1        2 0.39254441E+00 0.13462189E+04</pdfrwt>
<pdfrwt beam="2">  1       -2 0.17788678E+00 0.13462189E+04</pdfrwt>
<totfact> 0.58405682E-01</totfact>
</mgrwt>
</event>
<event>
 4    1  0.6502538E-008  0.6795511E+03  0.7818608E-02  0.1009579E+00
          2   -1    0    0  501    0  0.00000000000E+00  0.00000000000E+00  0.34127021354E+04  0.34127021354E+04  0.25500000000E-02 0. -1.
         -2   -1    0    0    0  501 -0.00000000000E+00 -0.00000000000E+00 -0.39370393732E+03  0.39370393733E+03  0.25500000000E-02 0.  1.
    8880023    1    1    2    0    0 -0.16677510379E+03  0.12866055851E+02  0.33427932631E+04  0.34111664393E+04  0.65864270000E+03 0. -1.
    8880022    1    1    2    0    0  0.16677510379E+03 -0.12866055851E+02 -0.32379506505E+03  0.39523963339E+03  0.15294330000E+03 0.  0.
<mgrwt>
<rscale>  0 0.51642406E+03</rscale>
<asrwt>0</asrwt>
<pdfrwt beam="1">  1        2 0.52503108E+00 0.67955108E+03</pdfrwt>
<pdfrwt beam="2">  1       -2 0.60569839E-01 0.67955108E+03</pdfrwt>
<totfact> 0.26114682E+00</totfact>
</mgrwt>
</event>
<event>
 4    1  0.6502538E-008  0.6706679E+03  0.7818608E-02  0.1015189E+00
          2   -1    0    0  501    0  0.00000000000E+00  0.00000000000E+00  0.51085944766E+03  0.51085944767E+03  0.25500000000E-02 0. -1.
         -2   -1    0    0    0  501 -0.00000000000E+00 -0.00000000000E+00 -0.10144707679E+04  0.10144707679E+04  0.25500000000E-02 0.  1.
    8880023    1    1    2    0    0 -0.10256271901E+03  0.73933536363E+02  0.27275136709E+03  0.72400883533E+03  0.65864270000E+03 0. -1.
    8880022    1    1    2    0    0  0.10256271901E+03 -0.73933536363E+02 -0.77636268733E+03  0.80132138023E+03  0.15294330000E+03 0.  0.
<mgrwt>
<rscale>  0 0.49463620E+03</rscale>
<asrwt>0</asrwt>
<pdfrwt beam="1">  1        2 0.78593761E-01 0.67066794E+03</pdfrwt>
<pdfrwt beam="2">  1       -2 0.15607243E+00 0.67066794E+03</pdfrwt>
<totfact> 0.16539775E+01</totfact>
</mgrwt>
</event>
<event>
 4    1  0.6502538E-008  0.9696922E+03  0.7818608E-02  0.9422330E-01
         -2   -1    0    0    0  501 -0.00000000000E+00  0.00000000000E+00  0.10358511282E+04  0.10358511282E+04  0.25500000000E-02 0.  1.
          2   -1    0    0  501    0  0.00000000000E+00 -0.00000000000E+00 -0.11313669111E+04  0.11313669111E+04  0.25500000000E-02 0. -1.
    8880023    1    1    2    0    0 -0.64689585588E+03 -0.29667905621E+03 -0.72028412325E+03  0.12079371404E+04  0.65864270000E+03 0. -1.
    8880022    1    1    2    0    0  0.64689585588E+03  0.29667905621E+03  0.62476834040E+03  0.95928089887E+03  0.15294330000E+03 0.  0.
<mgrwt>
<rscale>  0 0.90260567E+03</rscale>
<asrwt>0</asrwt>
<pdfrwt beam="1">  1        2 0.17405645E+00 0.96969218E+03</pdfrwt>
<pdfrwt beam="2">  1       -2 0.15936171E+00 0.96969218E+03</pdfrwt>
<totfact> 0.52766287E+00</totfact>
</mgrwt>
</event>
<event>
 4    1  0.6502538E-008  0.8758221E+03  0.7818608E-02  0.9566016E-01
         -2   -1    0    0    0  501 -0.00000000000E+00  0.00000000000E+00  0.12470668350E+04  0.12470668350E+04  0.25500000000E-02 0.  1.
          2   -1    0    0  501    0  0.00000000000E+00 -0.00000000000E+00 -0.11184998803E+04  0.11184998803E+04  0.25500000000E-02 0. -1.
    8880023    1    1    2    0    0  0.79638509372E+02 -0.57176205308E+03 -0.84915274482E+03  0.12198871783E+04  0.65864270000E+03 0.  0.
    8880022    1    1    2    0    0 -0.79638509372E+02  0.57176205308E+03  0.97771969952E+03  0.11456795369E+04  0.15294330000E+03 0.  0.
<mgrwt>
<rscale>  0 0.79586895E+03</rscale>
<asrwt>0</asrwt>
<pdfrwt beam="1">  1        2 0.17207690E+00 0.87582210E+03</pdfrwt>
<pdfrwt beam="2">  1       -2 0.19185644E+00 0.87582210E+03</pdfrwt>
<totfact> 0.32178400E+00</totfact>
</mgrwt>
</event>
<event>
 4    1  0.6502538E-008  0.1557116E+04  0.7818608E-02  0.8870323E-01
         -2   -1    0    0    0  501 -0.00000000000E+00  0.00000000000E+00  0.16138380128E+04  0.16138380128E+04  0.25500000000E-02 0.  1.
          2   -1    0    0  501    0  0.00000000000E+00 -0.00000000000E+00 -0.14353098458E+04  0.14353098458E+04  0.25500000000E-02 0. -1.
    8880023    1    1    2    0    0  0.20047167664E+03 -0.13966425618E+04 -0.22592360015E+03  0.15734201657E+04  0.65864270000E+03 0.  0.
    8880022    1    1    2    0    0 -0.20047167664E+03  0.13966425618E+04  0.40445176713E+03  0.14757276929E+04  0.15294330000E+03 0.  0.
<mgrwt>
<rscale>  0 0.15214345E+04</rscale>
<asrwt>0</asrwt>
<pdfrwt beam="1">  1        2 0.22081690E+00 0.15571158E+04</pdfrwt>
<pdfrwt beam="2">  1       -2 0.24828277E+00 0.15571158E+04</pdfrwt>
<totfact> 0.85150332E-01</totfact>
</mgrwt>
</event>
<event>
 4    1  0.6502538E-008  0.9253665E+03  0.7818608E-02  0.9486479E-01
          2   -1    0    0  501    0  0.00000000000E+00  0.00000000000E+00  0.74283257052E+03  0.74283257052E+03  0.25500000000E-02 0. -1.
         -2   -1    0    0    0  501 -0.00000000000E+00 -0.00000000000E+00 -0.13608460021E+04  0.13608460021E+04  0.25500000000E-02 0.  1.
    8880023    1    1    2    0    0 -0.30336801463E+03  0.57485715770E+03  0.29615832183E+03  0.97160324305E+03  0.65864270000E+03 0. -1.
    8880022    1    1    2    0    0  0.30336801463E+03 -0.57485715770E+03 -0.91417175341E+03  0.11320753296E+04  0.15294330000E+03 0.  0.
<mgrwt>
<rscale>  0 0.85288038E+03</rscale>
<asrwt>0</asrwt>
<pdfrwt beam="1">  1        2 0.11428193E+00 0.92536647E+03</pdfrwt>
<pdfrwt beam="2">  1       -2 0.20936092E+00 0.92536647E+03</pdfrwt>
<totfact> 0.43961368E+00</totfact>
</mgrwt>
</event>
<event>
 4    1  0.6502538E-008  0.7507664E+03  0.7818608E-02  0.9829627E-01
         -2   -1    0    0    0  501 -0.00000000000E+00  0.00000000000E+00  0.19182360209E+03  0.19182360210E+03  0.25500000000E-02 0.  1.
          2   -1    0    0  501    0  0.00000000000E+00 -0.00000000000E+00 -0.25328221971E+04  0.25328221971E+04  0.25500000000E-02 0. -1.
    8880023    1    1    2    0    0  0.33633834167E+03  0.12929251776E+03 -0.21723300092E+04  0.22984055147E+04  0.65864270000E+03 0. -1.
    8880022    1    1    2    0    0 -0.33633834167E+03 -0.12929251776E+03 -0.16866858584E+03  0.42624028445E+03  0.15294330000E+03 0.  0.
<mgrwt>
<rscale>  0 0.63796552E+03</rscale>
<asrwt>0</asrwt>
<pdfrwt beam="1">  1        2 0.38966493E+00 0.75076644E+03</pdfrwt>
<pdfrwt beam="2">  1       -2 0.29511325E-01 0.75076644E+03</pdfrwt>
<totfact> 0.36729584E+01</totfact>
</mgrwt>
</event>
<event>
 4    1  0.6502538E-008  0.1222251E+04  0.7818608E-02  0.9135791E-01
          2   -1    0    0  501    0  0.00000000000E+00  0.00000000000E+00  0.22398601006E+04  0.22398601006E+04  0.25500000000E-02 0. -1.
         -2   -1    0    0    0  501 -0.00000000000E+00 -0.00000000000E+00 -0.70662812555E+03  0.70662812555E+03  0.25500000000E-02 0.  1.
    8880023    1    1    2    0    0 -0.10161139542E+04 -0.16613130941E+03  0.14584742488E+04  0.19029042331E+04  0.65864270000E+03 0.  0.
    8880022    1    1    2    0    0  0.10161139542E+04  0.16613130941E+03  0.74757726245E+02  0.10435839930E+04  0.15294330000E+03 0.  0.
<mgrwt>
<rscale>  0 0.11741480E+04</rscale>
<asrwt>0</asrwt>
<pdfrwt beam="1">  1        2 0.34459385E+00 0.12222510E+04</pdfrwt>
<pdfrwt beam="2">  1       -2 0.10871202E+00 0.12222510E+04</pdfrwt>
<totfact> 0.32390497E+00</totfact>
</mgrwt>
</event>
<event>
 4    1  0.6502538E-008  0.1140111E+04  0.7818608E-02  0.9217658E-01
         -2   -1    0    0    0  501 -0.00000000000E+00  0.00000000000E+00  0.14746243582E+04  0.14746243582E+04  0.25500000000E-02 0.  1.
          2   -1    0    0  501    0  0.00000000000E+00 -0.00000000000E+00 -0.95805313342E+03  0.95805313342E+03  0.25500000000E-02 0. -1.
    8880023    1    1    2    0    0  0.86601503817E+03  0.34067801288E+03 -0.30686490626E+03  0.11806861699E+04  0.65864270000E+03 0.  0.
    8880022    1    1    2    0    0 -0.86601503817E+03 -0.34067801288E+03  0.82343613105E+03  0.12519913217E+04  0.15294330000E+03 0.  0.
<mgrwt>
<rscale>  0 0.10873008E+04</rscale>
<asrwt>0</asrwt>
<pdfrwt beam="1">  1        2 0.14739279E+00 0.11401113E+04</pdfrwt>
<pdfrwt beam="2">  1       -2 0.22686528E+00 0.11401113E+04</pdfrwt>
<totfact> 0.23496845E+00</totfact>
</mgrwt>
</event>
<event>
 4    1  0.6502538E-008  0.7162731E+03  0.7818608E-02  0.9935404E-01
         -2   -1    0    0    0  501 -0.00000000000E+00  0.00000000000E+00  0.25862589924E+03  0.25862589925E+03  0.25500000000E-02 0.  1.
          2   -1    0    0  501    0  0.00000000000E+00 -0.00000000000E+00 -0.11385741045E+04  0.11385741045E+04  0.25500000000E-02 0. -1.
    8880023    1    1    2    0    0  0.96608271769E+02  0.26439319914E+03 -0.40069164663E+03  0.82073194398E+03  0.65864270000E+03 0.  0.
    8880022    1    1    2    0    0 -0.96608271769E+02 -0.26439319914E+03 -0.47925655863E+03  0.57646805977E+03  0.15294330000E+03 0.  0.
<mgrwt>
<rscale>  0 0.58575703E+03</rscale>
<asrwt>0</asrwt>
<pdfrwt beam="1">  1        2 0.17516524E+00 0.71627308E+03</pdfrwt>
<pdfrwt beam="2">  1       -2 0.39788600E-01 0.71627308E+03</pdfrwt>
<totfact> 0.12526617E+02</totfact>
</mgrwt>
</event>
<event>
 4    1  0.6502538E-008  0.1246575E+04  0.7818608E-02  0.9113126E-01
         -2   -1    0    0    0  501 -0.00000000000E+00  0.00000000000E+00  0.10358804751E+04  0.10358804751E+04  0.25500000000E-02 0.  1.
          2   -1    0    0  501    0  0.00000000000E+00 -0.00000000000E+00 -0.27335874866E+04  0.27335874866E+04  0.25500000000E-02 0. -1.
    8880023    1    1    2    0    0  0.98974653939E+03 -0.37488717853E+03 -0.22452408260E+04  0.25680839515E+04  0.65864270000E+03 0.  0.
    8880022    1    1    2    0    0 -0.98974653939E+03  0.37488717853E+03  0.54753381452E+03  0.12013840102E+04  0.15294330000E+03 0.  0.
<mgrwt>
<rscale>  0 0.11996919E+04</rscale>
<asrwt>0</asrwt>
<pdfrwt beam="1">  1        2 0.42055192E+00 0.12465748E+04</pdfrwt>
<pdfrwt beam="2">  1       -2 0.15936623E+00 0.12465748E+04</pdfrwt>
<totfact> 0.62876535E-01</totfact>
</mgrwt>
</event>
<event>
 4    1  0.6502538E-008  0.6818838E+03  0.7818608E-02  0.1008278E+00
          2   -1    0    0  501    0  0.00000000000E+00  0.00000000000E+00  0.34551612620E+03  0.34551612621E+03  0.25500000000E-02 0. -1.
         -2   -1    0    0    0  501 -0.00000000000E+00 -0.00000000000E+00 -0.11455518334E+04  0.11455518334E+04  0.25500000000E-02 0.  1.
    8880023    1    1    2    0    0  0.12853133483E+03  0.12097528711E+03 -0.25798861538E+02  0.68237168145E+03  0.65864270000E+03 0. -1.
    8880022    1    1    2    0    0 -0.12853133483E+03 -0.12097528711E+03 -0.77423684569E+03  0.80869627819E+03  0.15294330000E+03 0.  0.
<mgrwt>
<rscale>  0 0.52164989E+03</rscale>
<asrwt>0</asrwt>
<pdfrwt beam="1">  1        2 0.53156328E-01 0.68188381E+03</pdfrwt>
<pdfrwt beam="2">  1       -2 0.17623874E+00 0.68188381E+03</pdfrwt>
<totfact> 0.18434298E+01</totfact>
</mgrwt>
</event>
<event>
 4    1  0.6502538E-008  0.8163914E+03  0.7818608E-02  0.9676414E-01
         -2   -1    0    0    0  501 -0.00000000000E+00  0.00000000000E+00  0.60836254946E+03  0.60836254947E+03  0.25500000000E-02 0.  1.
          2   -1    0    0  501    0  0.00000000000E+00 -0.00000000000E+00 -0.15533213687E+04  0.15533213687E+04  0.25500000000E-02 0. -1.
    8880023    1    1    2    0    0 -0.34616624474E+03 -0.33593700959E+03 -0.13059152435E+04  0.15401005074E+04  0.65864270000E+03 0.  0.
    8880022    1    1    2    0    0  0.34616624474E+03  0.33593700959E+03  0.36095642421E+03  0.62158341082E+03  0.15294330000E+03 0.  1.
<mgrwt>
<rscale>  0 0.72438595E+03</rscale>
<asrwt>0</asrwt>
<pdfrwt beam="1">  1        2 0.23897252E+00 0.81639142E+03</pdfrwt>
<pdfrwt beam="2">  1       -2 0.93594239E-01 0.81639142E+03</pdfrwt>
<totfact> 0.11622984E+01</totfact>
</mgrwt>
</event>
<event>
 4    1  0.6502538E-008  0.8276500E+03  0.7818608E-02  0.9653922E-01
          2   -1    0    0  501    0  0.00000000000E+00  0.00000000000E+00  0.16901207212E+04  0.16901207212E+04  0.25500000000E-02 0. -1.
         -2   -1    0    0    0  501 -0.00000000000E+00 -0.00000000000E+00 -0.32009077698E+03  0.32009077699E+03  0.25500000000E-02 0.  1.
    8880023    1    1    2    0    0  0.26577104622E+03 -0.42492355387E+03  0.12030290592E+04  0.14602340220E+04  0.65864270000E+03 0.  0.
    8880022    1    1    2    0    0 -0.26577104622E+03  0.42492355387E+03  0.16700088503E+03  0.54997747614E+03  0.15294330000E+03 0.  0.
<mgrwt>
<rscale>  0 0.73827781E+03</rscale>
<asrwt>0</asrwt>
<pdfrwt beam="1">  1        2 0.26001858E+00 0.82764998E+03</pdfrwt>
<pdfrwt beam="2">  1       -2 0.49244734E-01 0.82764998E+03</pdfrwt>
<totfact> 0.39426612E+01</totfact>
</mgrwt>
</event>
<event>
 4    1  0.6608946E-008  0.1446932E+04  0.7818608E-02  0.8948048E-01
         -2   -1    0    0    0  501 -0.00000000000E+00  0.00000000000E+00  0.19706415672E+04  0.19706415672E+04  0.25500000000E-02 0.  1.
          2   -1    0    0  501    0  0.00000000000E+00 -0.00000000000E+00 -0.22151604533E+04  0.22151604533E+04  0.25500000000E-02 0. -1.
    8880023    1    1    2    0    0 -0.46194046898E+03 -0.12026689959E+04 -0.17024047371E+04  0.22342322631E+04  0.65864270000E+03 0. -1.
    8880022    1    1    2    0    0  0.46194046898E+03  0.12026689959E+04  0.14578858509E+04  0.19515697573E+04  0.15294330000E+03 0.  0.
<mgrwt>
<rscale>  0 0.14080005E+04</rscale>
<asrwt>0</asrwt>
<pdfrwt beam="1">  1        2 0.34079392E+00 0.14469319E+04</pdfrwt>
<pdfrwt beam="2">  1       -2 0.30317562E+00 0.14469319E+04</pdfrwt>
<totfact> 0.14531078E-01</totfact>
</mgrwt>
</event>
<event>
 4    1  0.6502538E-008  0.7014589E+03  0.7818608E-02  0.9991202E-01
         -2   -1    0    0    0  501 -0.00000000000E+00  0.00000000000E+00  0.13472160623E+04  0.13472160623E+04  0.25500000000E-02 0.  1.
          2   -1    0    0  501    0  0.00000000000E+00 -0.00000000000E+00 -0.48326308649E+03  0.48326308650E+03  0.25500000000E-02 0. -1.
    8880023    1    1    2    0    0  0.19624336070E+03  0.14043855675E+03 -0.19953220619E+03  0.72928578240E+03  0.65864270000E+03 0. -1.
    8880022    1    1    2    0    0 -0.19624336070E+03 -0.14043855675E+03  0.10634851820E+04  0.11011933664E+04  0.15294330000E+03 0.  0.
<mgrwt>
<rscale>  0 0.56037703E+03</rscale>
<asrwt>0</asrwt>
<pdfrwt beam="1">  1        2 0.74348168E-01 0.70145894E+03</pdfrwt>
<pdfrwt beam="2">  1       -2 0.20726401E+00 0.70145894E+03</pdfrwt>
<totfact> 0.78405240E+00</totfact>
</mgrwt>
</event>
<event>
 4    1  0.6502538E-008  0.1205115E+04  0.7818608E-02  0.9152166E-01
          2   -1    0    0  501    0  0.00000000000E+00  0.00000000000E+00  0.24814330963E+04  0.24814330963E+04  0.25500000000E-02 0. -1.
         -2   -1    0    0    0  501 -0.00000000000E+00 -0.00000000000E+00 -0.16777824373E+04  0.16777824373E+04  0.25500000000E-02 0.  1.
    8880023    1    1    2    0    0  0.97867604132E+03  0.24634334884E+03  0.21529741357E+04  0.24673061574E+04  0.65864270000E+03 0.  0.
    8880022    1    1    2    0    0 -0.97867604132E+03 -0.24634334884E+03 -0.13493234766E+04  0.16919093761E+04  0.15294330000E+03 0.  0.
<mgrwt>
<rscale>  0 0.11561089E+04</rscale>
<asrwt>0</asrwt>
<pdfrwt beam="1">  1        2 0.38175894E+00 0.12051150E+04</pdfrwt>
<pdfrwt beam="2">  1       -2 0.25812037E+00 0.12051150E+04</pdfrwt>
<totfact> 0.19972437E-01</totfact>
</mgrwt>
</event>
<event>
 4    1  0.6502538E-008  0.1067894E+04  0.7818608E-02  0.9297673E-01
          2   -1    0    0  501    0  0.00000000000E+00  0.00000000000E+00  0.15044853293E+04  0.15044853293E+04  0.25500000000E-02 0. -1.
         -2   -1    0    0    0  501 -0.00000000000E+00 -0.00000000000E+00 -0.14554358027E+04  0.14554358027E+04  0.25500000000E-02 0.  1.
    8880023    1    1    2    0    0  0.73020182144E+03  0.41640475636E+03  0.11480139352E+04  0.15679074663E+04  0.65864270000E+03 0. -1.
    8880022    1    1    2    0    0 -0.73020182144E+03 -0.41640475636E+03 -0.10989644086E+04  0.13920136657E+04  0.15294330000E+03 0.  0.
<mgrwt>
<rscale>  0 0.10099735E+04</rscale>
<asrwt>0</asrwt>
<pdfrwt beam="1">  1        2 0.23145928E+00 0.10678941E+04</pdfrwt>
<pdfrwt beam="2">  1       -2 0.22391320E+00 0.10678941E+04</pdfrwt>
<totfact> 0.11621164E+00</totfact>
</mgrwt>
</event>
<event>
 4    1  0.6502538E-008  0.8759243E+03  0.7818608E-02  0.9565842E-01
          2   -1    0    0  501    0  0.00000000000E+00  0.00000000000E+00  0.15001811049E+04  0.15001811049E+04  0.25500000000E-02 0. -1.
         -2   -1    0    0    0  501 -0.00000000000E+00 -0.00000000000E+00 -0.57663692260E+03  0.57663692260E+03  0.25500000000E-02 0.  1.
    8880023    1    1    2    0    0 -0.33158944387E+03  0.47273837632E+03  0.11433522309E+04  0.14403116545E+04  0.65864270000E+03 0. -1.
    8880022    1    1    2    0    0  0.33158944387E+03 -0.47273837632E+03 -0.21980804860E+03  0.63650637308E+03  0.15294330000E+03 0.  0.
<mgrwt>
<rscale>  0 0.79598851E+03</rscale>
<asrwt>0</asrwt>
<pdfrwt beam="1">  1        2 0.23079709E+00 0.87592428E+03</pdfrwt>
<pdfrwt beam="2">  1       -2 0.88713374E-01 0.87592428E+03</pdfrwt>
<totfact> 0.13990940E+01</totfact>
</mgrwt>
</event>
<event>
 4    1  0.6502538E-008  0.8415795E+03  0.7818608E-02  0.9627209E-01
          2   -1    0    0  501    0  0.00000000000E+00  0.00000000000E+00  0.15586327084E+04  0.15586327084E+04  0.25500000000E-02 0. -1.
         -2   -1    0    0    0  501 -0.00000000000E+00 -0.00000000000E+00 -0.46093477616E+03  0.46093477617E+03  0.25500000000E-02 0.  1.
    8880023    1    1    2    0    0 -0.49893390554E+03  0.15972085749E+03  0.11986261611E+04  0.14645684261E+04  0.65864270000E+03 0. -1.
    8880022    1    1    2    0    0  0.49893390554E+03 -0.15972085749E+03 -0.10092822893E+03  0.55499905840E+03  0.15294330000E+03 0.  0.
<mgrwt>
<rscale>  0 0.75521179E+03</rscale>
<asrwt>0</asrwt>
<pdfrwt beam="1">  1        2 0.23978964E+00 0.84157947E+03</pdfrwt>
<pdfrwt beam="2">  1       -2 0.70913043E-01 0.84157947E+03</pdfrwt>
<totfact> 0.21556501E+01</totfact>
</mgrwt>
</event>
<event>
 4    1  0.6502538E-008  0.6653151E+03  0.7818608E-02  0.1019271E+00
          2   -1    0    0  501    0  0.00000000000E+00  0.00000000000E+00  0.20572959367E+04  0.20572959367E+04  0.25500000000E-02 0. -1.
         -2   -1    0    0    0  501 -0.00000000000E+00 -0.00000000000E+00 -0.58184224261E+03  0.58184224261E+03  0.25500000000E-02 0.  1.
    8880023    1    1    2    0    0  0.88332743111E+02  0.32113472028E+02  0.19878357482E+04  0.20962192435E+04  0.65864270000E+03 0. -1.
    8880022    1    1    2    0    0 -0.88332743111E+02 -0.32113472028E+02 -0.51238205407E+03  0.54291893588E+03  0.15294330000E+03 0.  0.
<mgrwt>
<rscale>  0 0.47950778E+03</rscale>
<asrwt>0</asrwt>
<pdfrwt beam="1">  1        2 0.31650706E+00 0.66531508E+03</pdfrwt>
<pdfrwt beam="2">  1       -2 0.89514192E-01 0.66531508E+03</pdfrwt>
<totfact> 0.69905799E+00</totfact>
</mgrwt>
</event>
<event>
 4    1  0.6502538E-008  0.1828975E+04  0.7818608E-02  0.8706675E-01
         -2   -1    0    0    0  501 -0.00000000000E+00  0.00000000000E+00  0.18820066743E+04  0.18820066743E+04  0.25500000000E-02 0.  1.
          2   -1    0    0  501    0  0.00000000000E+00 -0.00000000000E+00 -0.18427103056E+04  0.18427103056E+04  0.25500000000E-02 0. -1.
    8880023    1    1    2    0    0 -0.17043998601E+04 -0.79763536184E+02 -0.55520389769E+03  0.19113876318E+04  0.65864270000E+03 0.  0.
    8880022    1    1    2    0    0  0.17043998601E+04  0.79763536184E+02  0.59450026646E+03  0.18133293481E+04  0.15294330000E+03 0.  0.
<mgrwt>
<rscale>  0 0.17992934E+04</rscale>
<asrwt>0</asrwt>
<pdfrwt beam="1">  1        2 0.28349390E+00 0.18289755E+04</pdfrwt>
<pdfrwt beam="2">  1       -2 0.28953949E+00 0.18289755E+04</pdfrwt>
<totfact> 0.27296356E-01</totfact>
</mgrwt>
</event>
<event>
 4    1  0.6502538E-008  0.7033921E+03  0.7818608E-02  0.9983410E-01
          2   -1    0    0  501    0  0.00000000000E+00  0.00000000000E+00  0.34995304100E+04  0.34995304100E+04  0.25500000000E-02 0. -1.
         -2   -1    0    0    0  501 -0.00000000000E+00 -0.00000000000E+00 -0.51477857041E+03  0.51477857042E+03  0.25500000000E-02 0.  1.
    8880023    1    1    2    0    0 -0.12003919446E+02 -0.24658901509E+03  0.34197140737E+04  0.34913041673E+04  0.65864270000E+03 0. -1.
    8880022    1    1    2    0    0  0.12003919446E+02  0.24658901509E+03 -0.43496223410E+03  0.52300481313E+03  0.15294330000E+03 0.  0.
<mgrwt>
<rscale>  0 0.56383695E+03</rscale>
<asrwt>0</asrwt>
<pdfrwt beam="1">  1        2 0.53838929E+00 0.70339210E+03</pdfrwt>
<pdfrwt beam="2">  1       -2 0.79196704E-01 0.70339210E+03</pdfrwt>
<totfact> 0.12660243E+00</totfact>
</mgrwt>
</event>
<event>
 4    1  0.6502538E-008  0.8449154E+03  0.7818608E-02  0.9620981E-01
          2   -1    0    0  501    0  0.00000000000E+00  0.00000000000E+00  0.28464454588E+04  0.28464454588E+04  0.25500000000E-02 0. -1.
         -2   -1    0    0    0  501 -0.00000000000E+00 -0.00000000000E+00 -0.17526555924E+03  0.17526555926E+03  0.25500000000E-02 0.  1.
    8880023    1    1    2    0    0  0.31419399006E+03  0.42585670787E+03  0.13827558918E+04  0.16204616199E+04  0.65864270000E+03 0. -1.
    8880022    1    1    2    0    0 -0.31419399006E+03 -0.42585670787E+03  0.12884240077E+04  0.14012493981E+04  0.15294330000E+03 0.  1.
<mgrwt>
<rscale>  0 0.75922974E+03</rscale>
<asrwt>0</asrwt>
<pdfrwt beam="1">  1        2 0.43791464E+00 0.84491538E+03</pdfrwt>
<pdfrwt beam="2">  1       -2 0.26963935E-01 0.84491538E+03</pdfrwt>
<totfact> 0.28103533E+01</totfact>
</mgrwt>
</event>
<event>
 4    1  0.6502538E-008  0.1008187E+04  0.7818608E-02  0.9370924E-01
          2   -1    0    0  501    0  0.00000000000E+00  0.00000000000E+00  0.11376546866E+04  0.11376546866E+04  0.25500000000E-02 0. -1.
         -2   -1    0    0    0  501 -0.00000000000E+00 -0.00000000000E+00 -0.80423438355E+03  0.80423438356E+03  0.25500000000E-02 0.  1.
    8880023    1    1    2    0    0 -0.72445028336E+03 -0.24042199311E+03  0.52995656739E+03  0.11389886380E+04  0.65864270000E+03 0.  1.
    8880022    1    1    2    0    0  0.72445028336E+03  0.24042199311E+03 -0.19653626432E+03  0.80290043221E+03  0.15294330000E+03 0.  0.
<mgrwt>
<rscale>  0 0.94507645E+03</rscale>
<asrwt>0</asrwt>
<pdfrwt beam="1">  1        2 0.17502380E+00 0.10081871E+04</pdfrwt>
<pdfrwt beam="2">  1       -2 0.12372837E+00 0.10081871E+04</pdfrwt>
<totfact> 0.10076788E+01</totfact>
</mgrwt>
</event>
<event>
 4    1  0.6502538E-008  0.1163228E+04  0.7818608E-02  0.9193724E-01
          2   -1    0    0  501    0  0.00000000000E+00  0.00000000000E+00  0.17875355549E+04  0.17875355549E+04  0.25500000000E-02 0. -1.
         -2   -1    0    0    0  501 -0.00000000000E+00 -0.00000000000E+00 -0.23636338663E+04  0.23636338663E+04  0.25500000000E-02 0.  1.
    8880023    1    1    2    0    0 -0.42961170152E+03 -0.85715944843E+03  0.14770055453E+04  0.18800649248E+04  0.65864270000E+03 0. -1.
    8880022    1    1    2    0    0  0.42961170152E+03  0.85715944843E+03 -0.20531038568E+04  0.22711044964E+04  0.15294330000E+03 0.  0.
<mgrwt>
<rscale>  0 0.11118446E+04</rscale>
<asrwt>0</asrwt>
<pdfrwt beam="1">  1        2 0.27500547E+00 0.11632277E+04</pdfrwt>
<pdfrwt beam="2">  1       -2 0.36363598E+00 0.11632277E+04</pdfrwt>
<totfact> 0.11039649E-01</totfact>
</mgrwt>
</event>
<event>
 4    1  0.6502538E-008  0.7626324E+03  0.7818608E-02  0.9798340E-01
          2   -1    0    0  501    0  0.00000000000E+00  0.00000000000E+00  0.25696441382E+04  0.25696441382E+04  0.25500000000E-02 0. -1.
         -2   -1    0    0    0  501 -0.00000000000E+00 -0.00000000000E+00 -0.52749742243E+03  0.52749742244E+03  0.25500000000E-02 0.  1.
    8880023    1    1    2    0    0  0.31136016882E+03 -0.22550559997E+03  0.24196896717E+04  0.25370270484E+04  0.65864270000E+03 0.  0.
    8880022    1    1    2    0    0 -0.31136016882E+03  0.22550559997E+03 -0.37754295591E+03  0.56011451233E+03  0.15294330000E+03 0.  0.
<mgrwt>
<rscale>  0 0.65451725E+03</rscale>
<asrwt>0</asrwt>
<pdfrwt beam="1">  1        2 0.39532986E+00 0.76263237E+03</pdfrwt>
<pdfrwt beam="2">  1       -2 0.81153450E-01 0.76263237E+03</pdfrwt>
<totfact> 0.44544053E+00</totfact>
</mgrwt>
</event>
<event>
 4    1  0.6502538E-008  0.1002311E+04  0.7818608E-02  0.9378541E-01
          2   -1    0    0  501    0  0.00000000000E+00  0.00000000000E+00  0.21491146831E+04  0.21491146831E+04  0.25500000000E-02 0. -1.
         -2   -1    0    0    0  501 -0.00000000000E+00 -0.00000000000E+00 -0.39175409618E+03  0.39175409619E+03  0.25500000000E-02 0.  1.
    8880023    1    1    2    0    0 -0.40394893497E+02  0.75444334931E+03  0.13105089298E+04  0.16498667753E+04  0.65864270000E+03 0.  0.
    8880022    1    1    2    0    0  0.40394893497E+02 -0.75444334931E+03  0.44685165714E+03  0.89100200406E+03  0.15294330000E+03 0.  0.
<mgrwt>
<rscale>  0 0.93862928E+03</rscale>
<asrwt>0</asrwt>
<pdfrwt beam="1">  1        2 0.33063303E+00 0.10023107E+04</pdfrwt>
<pdfrwt beam="2">  1       -2 0.60269861E-01 0.10023107E+04</pdfrwt>
<totfact> 0.14226484E+01</totfact>
</mgrwt>
</event>
<event>
 4    1  0.6502538E-008  0.8646751E+03  0.7818608E-02  0.9585301E-01
          2   -1    0    0  501    0  0.00000000000E+00  0.00000000000E+00  0.20458604941E+04  0.20458604941E+04  0.25500000000E-02 0. -1.
         -2   -1    0    0    0  501 -0.00000000000E+00 -0.00000000000E+00 -0.64649088172E+03  0.64649088173E+03  0.25500000000E-02 0.  1.
    8880023    1    1    2    0    0 -0.40759562605E+03  0.38434172157E+03  0.17931254646E+04  0.19907189383E+04  0.65864270000E+03 0. -1.
    8880022    1    1    2    0    0  0.40759562605E+03 -0.38434172157E+03 -0.39375585217E+03  0.70163243756E+03  0.15294330000E+03 0.  0.
<mgrwt>
<rscale>  0 0.78276751E+03</rscale>
<asrwt>0</asrwt>
<pdfrwt beam="1">  1        2 0.31474776E+00 0.86467506E+03</pdfrwt>
<pdfrwt beam="2">  1       -2 0.99460138E-01 0.86467506E+03</pdfrwt>
<totfact> 0.53711348E+00</totfact>
</mgrwt>
</event>
<event>
 4    1  0.6502538E-008  0.1182344E+04  0.7818608E-02  0.9174480E-01
          2   -1    0    0  501    0  0.00000000000E+00  0.00000000000E+00  0.92455877455E+03  0.92455877456E+03  0.25500000000E-02 0. -1.
         -2   -1    0    0    0  501 -0.00000000000E+00 -0.00000000000E+00 -0.18750018135E+04  0.18750018135E+04  0.25500000000E-02 0.  1.
    8880023    1    1    2    0    0 -0.33834456744E+03  0.92176414512E+03  0.28287076782E+03  0.12157106001E+04  0.65864270000E+03 0. -1.
    8880022    1    1    2    0    0  0.33834456744E+03 -0.92176414512E+03 -0.12333138068E+04  0.15838499880E+04  0.15294330000E+03 0.  0.
<mgrwt>
<rscale>  0 0.11320768E+04</rscale>
<asrwt>0</asrwt>
<pdfrwt beam="1">  1        2 0.14223981E+00 0.11823436E+04</pdfrwt>
<pdfrwt beam="2">  1       -2 0.28846182E+00 0.11823436E+04</pdfrwt>
<totfact> 0.10341944E+00</totfact>
</mgrwt>
</event>
<event>
 4    1  0.6502538E-008  0.1133086E+04  0.7818608E-02  0.9225083E-01
          2   -1    0    0  501    0  0.00000000000E+00  0.00000000000E+00  0.18894583598E+04  0.18894583598E+04  0.25500000000E-02 0. -1.
         -2   -1    0    0    0  501 -0.00000000000E+00 -0.00000000000E+00 -0.93654419252E+03  0.93654419252E+03  0.25500000000E-02 0.  1.
    8880023    1    1    2    0    0  0.91597623866E+03 -0.10517306886E+03  0.13907800225E+04  0.17939211581E+04  0.65864270000E+03 0.  0.
    8880022    1    1    2    0    0 -0.91597623866E+03  0.10517306886E+03 -0.43786585519E+03  0.10320813943E+04  0.15294330000E+03 0.  0.
<mgrwt>
<rscale>  0 0.10798238E+04</rscale>
<asrwt>0</asrwt>
<pdfrwt beam="1">  1        2 0.29068590E+00 0.11330861E+04</pdfrwt>
<pdfrwt beam="2">  1       -2 0.14408372E+00 0.11330861E+04</pdfrwt>
<totfact> 0.25142826E+00</totfact>
</mgrwt>
</event>
<event>
 4    1  0.6502538E-008  0.1451672E+04  0.7818608E-02  0.8944538E-01
         -2   -1    0    0    0  501 -0.00000000000E+00  0.00000000000E+00  0.69878550547E+03  0.69878550547E+03  0.25500000000E-02 0.  1.
          2   -1    0    0  501    0  0.00000000000E+00 -0.00000000000E+00 -0.28136166017E+04  0.28136166017E+04  0.25500000000E-02 0. -1.
    8880023    1    1    2    0    0 -0.90253478860E+03 -0.92680688927E+03 -0.78281825958E+03  0.16492891464E+04  0.65864270000E+03 0.  1.
    8880022    1    1    2    0    0  0.90253478860E+03  0.92680688927E+03 -0.13320128367E+04  0.18631129608E+04  0.15294330000E+03 0.  0.
<mgrwt>
<rscale>  0 0.14128931E+04</rscale>
<asrwt>0</asrwt>
<pdfrwt beam="1">  1        2 0.43286409E+00 0.14516715E+04</pdfrwt>
<pdfrwt beam="2">  1       -2 0.10750546E+00 0.14516715E+04</pdfrwt>
<totfact> 0.15102441E+00</totfact>
</mgrwt>
</event>
<event>
 4    1  0.7075028E-008  0.1062690E+04  0.7818608E-02  0.9303779E-01
         -2   -1    0    0    0  501 -0.00000000000E+00  0.00000000000E+00  0.19045984101E+04  0.19045984101E+04  0.25500000000E-02 0.  1.
          2   -1    0    0  501    0  0.00000000000E+00 -0.00000000000E+00 -0.22021834502E+04  0.22021834502E+04  0.25500000000E-02 0. -1.
    8880023    1    1    2    0    0 -0.43346776079E+03 -0.71246492917E+03 -0.19662566445E+04  0.22350561455E+04  0.65864270000E+03 0.  0.
    8880022    1    1    2    0    0  0.43346776079E+03  0.71246492917E+03  0.16686716045E+04  0.18717257148E+04  0.15294330000E+03 0.  0.
<mgrwt>
<rscale>  0 0.10043568E+04</rscale>
<asrwt>0</asrwt>
<pdfrwt beam="1">  1        2 0.33879745E+00 0.10626904E+04</pdfrwt>
<pdfrwt beam="2">  1       -2 0.29301514E+00 0.10626904E+04</pdfrwt>
<totfact> 0.18067148E-01</totfact>
</mgrwt>
</event>
<event>
 4    1  0.6502538E-008  0.7376948E+03  0.7818608E-02  0.9866714E-01
         -2   -1    0    0    0  501 -0.00000000000E+00  0.00000000000E+00  0.16248181362E+03  0.16248181364E+03  0.25500000000E-02 0.  1.
          2   -1    0    0  501    0  0.00000000000E+00 -0.00000000000E+00 -0.46983400456E+04  0.46983400456E+04  0.25500000000E-02 0. -1.
    8880023    1    1    2    0    0 -0.26545444253E+03 -0.19979322229E+03 -0.44141251644E+04  0.44753429552E+04  0.65864270000E+03 0.  0.
    8880022    1    1    2    0    0  0.26545444253E+03  0.19979322229E+03 -0.12173306753E+03  0.38547890406E+03  0.15294330000E+03 0.  0.
<mgrwt>
<rscale>  0 0.61901963E+03</rscale>
<asrwt>0</asrwt>
<pdfrwt beam="1">  1        2 0.72282144E+00 0.73769479E+03</pdfrwt>
<pdfrwt beam="2">  1       -2 0.24997206E-01 0.73769479E+03</pdfrwt>
<totfact> 0.12735225E+00</totfact>
</mgrwt>
</event>
<event>
 4    1  0.6502538E-008  0.1017161E+04  0.7818608E-02  0.9359442E-01
         -2   -1    0    0    0  501 -0.00000000000E+00  0.00000000000E+00  0.41072449333E+03  0.41072449334E+03  0.25500000000E-02 0.  1.
          2   -1    0    0  501    0  0.00000000000E+00 -0.00000000000E+00 -0.27340482981E+04  0.27340482981E+04  0.25500000000E-02 0. -1.
    8880023    1    1    2    0    0 -0.73670330993E+03  0.24098829922E+03 -0.20844546652E+04  0.23193897009E+04  0.65864270000E+03 0.  0.
    8880022    1    1    2    0    0  0.73670330993E+03 -0.24098829922E+03 -0.23886913955E+03  0.82538309049E+03  0.15294330000E+03 0.  0.
<mgrwt>
<rscale>  0 0.95489973E+03</rscale>
<asrwt>0</asrwt>
<pdfrwt beam="1">  1        2 0.42062280E+00 0.10171614E+04</pdfrwt>
<pdfrwt beam="2">  1       -2 0.63188385E-01 0.10171614E+04</pdfrwt>
<totfact> 0.59603349E+00</totfact>
</mgrwt>
</event>
<event>
 4    1  0.6502538E-008  0.7495169E+03  0.7818608E-02  0.9833045E-01
         -2   -1    0    0    0  501 -0.00000000000E+00  0.00000000000E+00  0.20237044827E+03  0.20237044828E+03  0.25500000000E-02 0.  1.
          2   -1    0    0  501    0  0.00000000000E+00 -0.00000000000E+00 -0.35192707559E+04  0.35192707559E+04  0.25500000000E-02 0. -1.
    8880023    1    1    2    0    0 -0.23323135193E+03  0.27123507021E+03 -0.32393633006E+04  0.33249436275E+04  0.65864270000E+03 0. -1.
    8880022    1    1    2    0    0  0.23323135193E+03 -0.27123507021E+03 -0.77537007040E+02  0.39669757664E+03  0.15294330000E+03 0.  0.
<mgrwt>
<rscale>  0 0.63618931E+03</rscale>
<asrwt>0</asrwt>
<pdfrwt beam="1">  1        2 0.54142623E+00 0.74951687E+03</pdfrwt>
<pdfrwt beam="2">  1       -2 0.31133918E-01 0.74951687E+03</pdfrwt>
<totfact> 0.81529484E+00</totfact>
</mgrwt>
</event>
<event>
 4    1  0.6502538E-008  0.9683280E+03  0.7818608E-02  0.9424220E-01
         -2   -1    0    0    0  501 -0.00000000000E+00  0.00000000000E+00  0.65393884797E+03  0.65393884798E+03  0.25500000000E-02 0.  1.
          2   -1    0    0  501    0  0.00000000000E+00 -0.00000000000E+00 -0.24164854248E+04  0.24164854248E+04  0.25500000000E-02 0. -1.
    8880023    1    1    2    0    0 -0.65436177989E+03  0.27506281128E+03 -0.20673802932E+04  0.22829192653E+04  0.65864270000E+03 0. -1.
    8880022    1    1    2    0    0  0.65436177989E+03 -0.27506281128E+03  0.30483371635E+03  0.78750500745E+03  0.15294330000E+03 0.  0.
<mgrwt>
<rscale>  0 0.90108957E+03</rscale>
<asrwt>0</asrwt>
<pdfrwt beam="1">  1        2 0.37176698E+00 0.96832799E+03</pdfrwt>
<pdfrwt beam="2">  1       -2 0.10060598E+00 0.96832799E+03</pdfrwt>
<totfact> 0.32035238E+00</totfact>
</mgrwt>
</event>
<event>
 4    1  0.6502538E-008  0.8798351E+03  0.7818608E-02  0.9559210E-01
          2   -1    0    0  501    0  0.00000000000E+00  0.00000000000E+00  0.37272801874E+04  0.37272801874E+04  0.25500000000E-02 0. -1.
         -2   -1    0    0    0  501 -0.00000000000E+00 -0.00000000000E+00 -0.35490618423E+03  0.35490618424E+03  0.25500000000E-02 0.  1.
    8880023    1    1    2    0    0  0.58029314865E+03 -0.59661907977E+02  0.33659943713E+04  0.34790843617E+04  0.65864270000E+03 0. -1.
    8880022    1    1    2    0    0 -0.58029314865E+03  0.59661907977E+02  0.63796317912E+01  0.60310200990E+03  0.15294330000E+03 0.  0.
<mgrwt>
<rscale>  0 0.80055763E+03</rscale>
<asrwt>0</asrwt>
<pdfrwt beam="1">  1        2 0.57342777E+00 0.87983515E+03</pdfrwt>
<pdfrwt beam="2">  1       -2 0.54600947E-01 0.87983515E+03</pdfrwt>
<totfact> 0.18772433E+00</totfact>
</mgrwt>
</event>
<event>
 4    1  0.6502538E-008  0.6617897E+03  0.7818608E-02  0.1022393E+00
          2   -1    0    0  501    0  0.00000000000E+00  0.00000000000E+00  0.62734427365E+03  0.62734427365E+03  0.25500000000E-02 0. -1.
         -2   -1    0    0    0  501 -0.00000000000E+00 -0.00000000000E+00 -0.18068804505E+04  0.18068804505E+04  0.25500000000E-02 0.  1.
    8880023    1    1    2    0    0  0.56614818013E+02 -0.30825097026E+02  0.44740812409E+03  0.79883644133E+03  0.65864270000E+03 0. -1.
    8880022    1    1    2    0    0 -0.56614818013E+02  0.30825097026E+02 -0.16269443010E+04  0.16353882829E+04  0.15294330000E+03 0.  0.
<mgrwt>
<rscale>  0 0.46832728E+03</rscale>
<asrwt>0</asrwt>
<pdfrwt beam="1">  1        2 0.96514504E-01 0.66178972E+03</pdfrwt>
<pdfrwt beam="2">  1       -2 0.27798161E+00 0.66178972E+03</pdfrwt>
<totfact> 0.21416681E+00</totfact>
</mgrwt>
</event>
<event>
 4    1  0.6502538E-008  0.1197873E+04  0.7818608E-02  0.9159193E-01
          2   -1    0    0  501    0  0.00000000000E+00  0.00000000000E+00  0.20757157331E+04  0.20757157331E+04  0.25500000000E-02 0. -1.
         -2   -1    0    0    0  501 -0.00000000000E+00 -0.00000000000E+00 -0.15531863534E+04  0.15531863534E+04  0.25500000000E-02 0.  1.
    8880023    1    1    2    0    0  0.92323830982E+03  0.38564261446E+03  0.16978097927E+04  0.20778492489E+04  0.65864270000E+03 0.  0.
    8880022    1    1    2    0    0 -0.92323830982E+03 -0.38564261446E+03 -0.11752804129E+04  0.15510528375E+04  0.15294330000E+03 0.  0.
<mgrwt>
<rscale>  0 0.11484736E+04</rscale>
<asrwt>0</asrwt>
<pdfrwt beam="1">  1        2 0.31934088E+00 0.11978729E+04</pdfrwt>
<pdfrwt beam="2">  1       -2 0.23895175E+00 0.11978729E+04</pdfrwt>
<totfact> 0.44360408E-01</totfact>
</mgrwt>
</event>
<event>
 4    1  0.6502538E-008  0.7468087E+03  0.7818608E-02  0.9840540E-01
         -2   -1    0    0    0  501 -0.00000000000E+00  0.00000000000E+00  0.92290091866E+03  0.92290091866E+03  0.25500000000E-02 0.  1.
          2   -1    0    0  501    0  0.00000000000E+00 -0.00000000000E+00 -0.17216876218E+04  0.17216876218E+04  0.25500000000E-02 0. -1.
    8880023    1    1    2    0    0  0.21667236227E+03 -0.27742760237E+03 -0.15947349401E+04  0.17609380235E+04  0.65864270000E+03 0. -1.
    8880022    1    1    2    0    0 -0.21667236227E+03  0.27742760237E+03  0.79594823699E+03  0.88365051695E+03  0.15294330000E+03 0.  0.
<mgrwt>
<rscale>  0 0.63231585E+03</rscale>
<asrwt>0</asrwt>
<pdfrwt beam="1">  1        2 0.26487502E+00 0.74680867E+03</pdfrwt>
<pdfrwt beam="2">  1       -2 0.14198476E+00 0.74680867E+03</pdfrwt>
<totfact> 0.34055882E+00</totfact>
</mgrwt>
</event>
<event>
 4    1  0.6502538E-008  0.7322804E+03  0.7818608E-02  0.9883032E-01
          2   -1    0    0  501    0  0.00000000000E+00  0.00000000000E+00  0.33011908147E+04  0.33011908147E+04  0.25500000000E-02 0. -1.
         -2   -1    0    0    0  501 -0.00000000000E+00 -0.00000000000E+00 -0.39486358058E+03  0.39486358058E+03  0.25500000000E-02 0.  1.
    8880023    1    1    2    0    0 -0.30650546433E+03 -0.92080281771E+02  0.31703830760E+04  0.32538536280E+04  0.65864270000E+03 0.  0.
    8880022    1    1    2    0    0  0.30650546433E+03  0.92080281771E+02 -0.26405584183E+03  0.44220076727E+03  0.15294330000E+03 0.  0.
<mgrwt>
<rscale>  0 0.61090693E+03</rscale>
<asrwt>0</asrwt>
<pdfrwt beam="1">  1        2 0.50787551E+00 0.73228040E+03</pdfrwt>
<pdfrwt beam="2">  1       -2 0.60748243E-01 0.73228040E+03</pdfrwt>
<totfact> 0.30359228E+00</totfact>
</mgrwt>
</event>
<event>
 4    1  0.6502538E-008  0.1577948E+04  0.7818608E-02  0.8856469E-01
         -2   -1    0    0    0  501 -0.00000000000E+00  0.00000000000E+00  0.75778504781E+03  0.75778504782E+03  0.25500000000E-02 0.  1.
          2   -1    0    0  501    0  0.00000000000E+00 -0.00000000000E+00 -0.32280174005E+04  0.32280174005E+04  0.25500000000E-02 0. -1.
    8880023    1    1    2    0    0  0.52416301080E+03  0.13346774152E+04 -0.18056671632E+04  0.23979897362E+04  0.65864270000E+03 0.  0.
    8880022    1    1    2    0    0 -0.52416301080E+03 -0.13346774152E+04 -0.66456518941E+03  0.15878127120E+04  0.15294330000E+03 0.  0.
<mgrwt>
<rscale>  0 0.15428173E+04</rscale>
<asrwt>0</asrwt>
<pdfrwt beam="1">  1        2 0.49661805E+00 0.15779483E+04</pdfrwt>
<pdfrwt beam="2">  1       -2 0.11658232E+00 0.15779483E+04</pdfrwt>
<totfact> 0.67153888E-01</totfact>
</mgrwt>
</event>
<event>
 4    1  0.6502538E-008  0.9258197E+03  0.7818608E-02  0.9485793E-01
         -2   -1    0    0    0  501 -0.00000000000E+00  0.00000000000E+00  0.16139606628E+04  0.16139606628E+04  0.25500000000E-02 0.  1.
          2   -1    0    0  501    0  0.00000000000E+00 -0.00000000000E+00 -0.73259897458E+03  0.73259897459E+03  0.25500000000E-02 0. -1.
    8880023    1    1    2    0    0  0.64967202705E+03 -0.35471709634E+02 -0.31350635939E+03  0.97746019282E+03  0.65864270000E+03 0. -1.
    8880022    1    1    2    0    0 -0.64967202705E+03  0.35471709634E+02  0.11948680476E+04  0.13690994446E+04  0.15294330000E+03 0.  0.
<mgrwt>
<rscale>  0 0.85339421E+03</rscale>
<asrwt>0</asrwt>
<pdfrwt beam="1">  1        2 0.11270753E+00 0.92581974E+03</pdfrwt>
<pdfrwt beam="2">  1       -2 0.24830164E+00 0.92581974E+03</pdfrwt>
<totfact> 0.25610251E+00</totfact>
</mgrwt>
</event>
<event>
 4    1  0.6502538E-008  0.8739244E+03  0.7818608E-02  0.9569259E-01
         -2   -1    0    0    0  501 -0.00000000000E+00  0.00000000000E+00  0.57259771351E+03  0.57259771352E+03  0.25500000000E-02 0.  1.
          2   -1    0    0  501    0  0.00000000000E+00 -0.00000000000E+00 -0.26775185606E+04  0.26775185606E+04  0.25500000000E-02 0. -1.
    8880023    1    1    2    0    0  0.20705825718E+03 -0.53578035159E+03 -0.24231164242E+04  0.25758954014E+04  0.65864270000E+03 0. -1.
    8880022    1    1    2    0    0 -0.20705825718E+03  0.53578035159E+03  0.31819557711E+03  0.67422087281E+03  0.15294330000E+03 0.  0.
<mgrwt>
<rscale>  0 0.79364679E+03</rscale>
<asrwt>0</asrwt>
<pdfrwt beam="1">  1        2 0.41192593E+00 0.87392443E+03</pdfrwt>
<pdfrwt beam="2">  1       -2 0.88091957E-01 0.87392443E+03</pdfrwt>
<totfact> 0.31403978E+00</totfact>
</mgrwt>
</event>
<event>
 4    1  0.6502538E-008  0.1913282E+04  0.7818608E-02  0.8662333E-01
          2   -1    0    0  501    0  0.00000000000E+00  0.00000000000E+00  0.33689383568E+04  0.33689383568E+04  0.25500000000E-02 0. -1.
         -2   -1    0    0    0  501 -0.00000000000E+00 -0.00000000000E+00 -0.12700362010E+04  0.12700362010E+04  0.25500000000E-02 0.  1.
    8880023    1    1    2    0    0 -0.17938801976E+04  0.93976005819E+02  0.55680264915E+02  0.19140919913E+04  0.65864270000E+03 0.  0.
    8880022    1    1    2    0    0  0.17938801976E+04 -0.93976005819E+02  0.20432218908E+04  0.27248825665E+04  0.15294330000E+03 0.  0.
<mgrwt>
<rscale>  0 0.18850526E+04</rscale>
<asrwt>0</asrwt>
<pdfrwt beam="1">  1        2 0.51829821E+00 0.19132820E+04</pdfrwt>
<pdfrwt beam="2">  1       -2 0.19539018E+00 0.19132820E+04</pdfrwt>
<totfact> 0.12884615E-01</totfact>
</mgrwt>
</event>
<event>
 4    1  0.6502538E-008  0.9311965E+03  0.7818608E-02  0.9477701E-01
          2   -1    0    0  501    0  0.00000000000E+00  0.00000000000E+00  0.21497842855E+04  0.21497842855E+04  0.25500000000E-02 0. -1.
         -2   -1    0    0    0  501 -0.00000000000E+00 -0.00000000000E+00 -0.90549717175E+03  0.90549717175E+03  0.25500000000E-02 0.  1.
    8880023    1    1    2    0    0  0.10958343048E+03 -0.64908258556E+03  0.18985750507E+04  0.21146427974E+04  0.65864270000E+03 0. -1.
    8880022    1    1    2    0    0 -0.10958343048E+03  0.64908258556E+03 -0.65428793691E+03  0.94063865991E+03  0.15294330000E+03 0.  0.
<mgrwt>
<rscale>  0 0.85948020E+03</rscale>
<asrwt>0</asrwt>
<pdfrwt beam="1">  1        2 0.33073604E+00 0.93119651E+03</pdfrwt>
<pdfrwt beam="2">  1       -2 0.13930726E+00 0.93119651E+03</pdfrwt>
<totfact> 0.20251631E+00</totfact>
</mgrwt>
</event>
<event>
 4    1  0.6502538E-008  0.7544997E+03  0.7818608E-02  0.9819561E-01
         -2   -1    0    0    0  501 -0.00000000000E+00  0.00000000000E+00  0.48695131084E+03  0.48695131085E+03  0.25500000000E-02 0.  1.
          2   -1    0    0  501    0  0.00000000000E+00 -0.00000000000E+00 -0.25320174912E+04  0.25320174912E+04  0.25500000000E-02 0. -1.
    8880023    1    1    2    0    0  0.20517260052E+03 -0.30555491834E+03 -0.23810203633E+04  0.24977045023E+04  0.65864270000E+03 0. -1.
    8880022    1    1    2    0    0 -0.20517260052E+03  0.30555491834E+03  0.33595418295E+03  0.52126429974E+03  0.15294330000E+03 0.  0.
<mgrwt>
<rscale>  0 0.64323274E+03</rscale>
<asrwt>0</asrwt>
<pdfrwt beam="1">  1        2 0.38954115E+00 0.75449971E+03</pdfrwt>
<pdfrwt beam="2">  1       -2 0.74915588E-01 0.75449971E+03</pdfrwt>
<totfact> 0.56048691E+00</totfact>
</mgrwt>
</event>
<event>
 4    1  0.6502538E-008  0.1408314E+04  0.7818608E-02  0.8977250E-01
         -2   -1    0    0    0  501 -0.00000000000E+00  0.00000000000E+00  0.58598438042E+03  0.58598438042E+03  0.25500000000E-02 0.  1.
          2   -1    0    0  501    0  0.00000000000E+00 -0.00000000000E+00 -0.41316211858E+04  0.41316211858E+04  0.25500000000E-02 0. -1.
    8880023    1    1    2    0    0  0.10845312505E+04 -0.61100643250E+03 -0.30675944864E+04  0.33754233857E+04  0.65864270000E+03 0.  0.
    8880022    1    1    2    0    0 -0.10845312505E+04  0.61100643250E+03 -0.47804231897E+03  0.13421821805E+04  0.15294330000E+03 0.  0.
<mgrwt>
<rscale>  0 0.13680852E+04</rscale>
<asrwt>0</asrwt>
<pdfrwt beam="1">  1        2 0.63563401E+00 0.14083136E+04</pdfrwt>
<pdfrwt beam="2">  1       -2 0.90151446E-01 0.14083136E+04</pdfrwt>
<totfact> 0.27654933E-01</totfact>
</mgrwt>
</event>
<event>
 4    1  0.6502538E-008  0.6979113E+03  0.7818608E-02  0.1000598E+00
         -2   -1    0    0    0  501 -0.00000000000E+00  0.00000000000E+00  0.58169949634E+03  0.58169949635E+03  0.25500000000E-02 0.  1.
          2   -1    0    0  501    0  0.00000000000E+00 -0.00000000000E+00 -0.90288721507E+03  0.90288721507E+03  0.25500000000E-02 0. -1.
    8880023    1    1    2    0    0 -0.22058284629E+03 -0.67920289039E+02 -0.71762545279E+03  0.10010326940E+04  0.65864270000E+03 0. -1.
    8880022    1    1    2    0    0  0.22058284629E+03  0.67920289039E+02  0.39643773407E+03  0.48355401740E+03  0.15294330000E+03 0.  0.
<mgrwt>
<rscale>  0 0.55388858E+03</rscale>
<asrwt>0</asrwt>
<pdfrwt beam="1">  1        2 0.13890572E+00 0.69791129E+03</pdfrwt>
<pdfrwt beam="2">  1       -2 0.89492231E-01 0.69791129E+03</pdfrwt>
<totfact> 0.31881929E+01</totfact>
</mgrwt>
</event>
<event>
 4    1  0.6502538E-008  0.1272800E+04  0.7818608E-02  0.9089412E-01
         -2   -1    0    0    0  501 -0.00000000000E+00  0.00000000000E+00  0.10711447946E+04  0.10711447946E+04  0.25500000000E-02 0.  1.
          2   -1    0    0  501    0  0.00000000000E+00 -0.00000000000E+00 -0.28270860221E+04  0.28270860221E+04  0.25500000000E-02 0. -1.
    8880023    1    1    2    0    0  0.41180127598E+03 -0.10082805775E+04 -0.23319594539E+04  0.26567000423E+04  0.65864270000E+03 0.  0.
    8880022    1    1    2    0    0 -0.41180127598E+03  0.10082805775E+04  0.57601822632E+03  0.12415307745E+04  0.15294330000E+03 0.  0.
<mgrwt>
<rscale>  0 0.12271579E+04</rscale>
<asrwt>0</asrwt>
<pdfrwt beam="1">  1        2 0.43493631E+00 0.12728001E+04</pdfrwt>
<pdfrwt beam="2">  1       -2 0.16479151E+00 0.12728001E+04</pdfrwt>
<totfact> 0.50240171E-01</totfact>
</mgrwt>
</event>
<event>
 4    1  0.6502538E-008  0.1174831E+04  0.7818608E-02  0.9181985E-01
          2   -1    0    0  501    0  0.00000000000E+00  0.00000000000E+00  0.11664908318E+04  0.11664908318E+04  0.25500000000E-02 0. -1.
         -2   -1    0    0    0  501 -0.00000000000E+00 -0.00000000000E+00 -0.28257961044E+04  0.28257961044E+04  0.25500000000E-02 0.  1.
    8880023    1    1    2    0    0  0.68953418538E+03  0.68626612052E+03  0.74704013291E+03  0.13922276205E+04  0.65864270000E+03 0.  0.
    8880022    1    1    2    0    0 -0.68953418538E+03 -0.68626612052E+03 -0.24063454055E+04  0.26000593156E+04  0.15294330000E+03 0.  0.
<mgrwt>
<rscale>  0 0.11241325E+04</rscale>
<asrwt>0</asrwt>
<pdfrwt beam="1">  1        2 0.17946013E+00 0.11748314E+04</pdfrwt>
<pdfrwt beam="2">  1       -2 0.43473786E+00 0.11748314E+04</pdfrwt>
<totfact> 0.85908125E-02</totfact>
</mgrwt>
</event>
<event>
 4    1  0.6502538E-008  0.1561352E+04  0.7818608E-02  0.8867486E-01
         -2   -1    0    0    0  501 -0.00000000000E+00  0.00000000000E+00  0.16236863672E+04  0.16236863672E+04  0.25500000000E-02 0.  1.
          2   -1    0    0  501    0  0.00000000000E+00 -0.00000000000E+00 -0.20501861815E+04  0.20501861815E+04  0.25500000000E-02 0. -1.
    8880023    1    1    2    0    0  0.61886518591E+03  0.12731906860E+04 -0.12754891902E+04  0.20161080134E+04  0.65864270000E+03 0.  0.
    8880022    1    1    2    0    0 -0.61886518591E+03 -0.12731906860E+04  0.84898937584E+03  0.16577645353E+04  0.15294330000E+03 0.  0.
<mgrwt>
<rscale>  0 0.15257837E+04</rscale>
<asrwt>0</asrwt>
<pdfrwt beam="1">  1        2 0.31541326E+00 0.15613516E+04</pdfrwt>
<pdfrwt beam="2">  1       -2 0.24979790E+00 0.15613516E+04</pdfrwt>
<totfact> 0.37596151E-01</totfact>
</mgrwt>
</event>
<event>
 4    1  0.6502538E-008  0.8053509E+03  0.7818608E-02  0.9699344E-01
          2   -1    0    0  501    0  0.00000000000E+00  0.00000000000E+00  0.68418934647E+03  0.68418934647E+03  0.25500000000E-02 0. -1.
         -2   -1    0    0    0  501 -0.00000000000E+00 -0.00000000000E+00 -0.94860411524E+03  0.94860411524E+03  0.25500000000E-02 0.  1.
    8880023    1    1    2    0    0 -0.33719040383E+03 -0.31793473708E+03  0.32421762575E+03  0.86816308410E+03  0.65864270000E+03 0. -1.
    8880022    1    1    2    0    0  0.33719040383E+03  0.31793473708E+03 -0.58863239452E+03  0.76463037762E+03  0.15294330000E+03 0.  0.
<mgrwt>
<rscale>  0 0.71055891E+03</rscale>
<asrwt>0</asrwt>
<pdfrwt beam="1">  1        2 0.10525990E+00 0.80535090E+03</pdfrwt>
<pdfrwt beam="2">  1       -2 0.14593909E+00 0.80535090E+03</pdfrwt>
<totfact> 0.13713594E+01</totfact>
</mgrwt>
</event>
<event>
 4    1  0.6502538E-008  0.8084981E+03  0.7818608E-02  0.9692714E-01
         -2   -1    0    0    0  501 -0.00000000000E+00  0.00000000000E+00  0.95575367565E+03  0.95575367566E+03  0.25500000000E-02 0.  1.
          2   -1    0    0  501    0  0.00000000000E+00 -0.00000000000E+00 -0.18270092797E+04  0.18270092797E+04  0.25500000000E-02 0. -1.
    8880023    1    1    2    0    0 -0.41002776857E+03 -0.22745606282E+03 -0.16634850168E+04  0.18495544434E+04  0.65864270000E+03 0.  0.
    8880022    1    1    2    0    0  0.41002776857E+03  0.22745606282E+03  0.79222941273E+03  0.93320851203E+03  0.15294330000E+03 0.  0.
<mgrwt>
<rscale>  0 0.71452269E+03</rscale>
<asrwt>0</asrwt>
<pdfrwt beam="1">  1        2 0.28107835E+00 0.80849814E+03</pdfrwt>
<pdfrwt beam="2">  1       -2 0.14703903E+00 0.80849814E+03</pdfrwt>
<totfact> 0.26946504E+00</totfact>
</mgrwt>
</event>
<event>
 4    1  0.6502538E-008  0.1027681E+04  0.7818608E-02  0.9346206E-01
         -2   -1    0    0    0  501 -0.00000000000E+00  0.00000000000E+00  0.36822927283E+03  0.36822927284E+03  0.25500000000E-02 0.  1.
          2   -1    0    0  501    0  0.00000000000E+00 -0.00000000000E+00 -0.26276968294E+04  0.26276968294E+04  0.25500000000E-02 0. -1.
    8880023    1    1    2    0    0 -0.67569105984E+02  0.78597260056E+03 -0.17934133112E+04  0.20669929908E+04  0.65864270000E+03 0.  0.
    8880022    1    1    2    0    0  0.67569105984E+02 -0.78597260056E+03 -0.46605424536E+03  0.92893311145E+03  0.15294330000E+03 0.  0.
<mgrwt>
<rscale>  0 0.96638131E+03</rscale>
<asrwt>0</asrwt>
<pdfrwt beam="1">  1        2 0.40426104E+00 0.10276812E+04</pdfrwt>
<pdfrwt beam="2">  1       -2 0.56650659E-01 0.10276812E+04</pdfrwt>
<totfact> 0.86607296E+00</totfact>
</mgrwt>
</event>
<event>
 4    1  0.6502538E-008  0.2495916E+04  0.7818608E-02  0.8412039E-01
          2   -1    0    0  501    0  0.00000000000E+00  0.00000000000E+00  0.24207362512E+04  0.24207362512E+04  0.25500000000E-02 0. -1.
         -2   -1    0    0    0  501 -0.00000000000E+00 -0.00000000000E+00 -0.26474029001E+04  0.26474029001E+04  0.25500000000E-02 0.  1.
    8880023    1    1    2    0    0  0.10203566551E+04 -0.21805176358E+04 -0.73699554325E+03  0.26024522091E+04  0.65864270000E+03 0.  0.
    8880022    1    1    2    0    0 -0.10203566551E+04  0.21805176358E+04  0.51032889438E+03  0.24656869422E+04  0.15294330000E+03 0.  0.
<mgrwt>
<rscale>  0 0.24747431E+04</rscale>
<asrwt>0</asrwt>
<pdfrwt beam="1">  1        2 0.37242096E+00 0.24959157E+04</pdfrwt>
<pdfrwt beam="2">  1       -2 0.40729275E+00 0.24959157E+04</pdfrwt>
<totfact> 0.21615989E-02</totfact>
</mgrwt>
</event>
<event>
 4    1  0.6502538E-008  0.8473264E+03  0.7818608E-02  0.9616517E-01
          2   -1    0    0  501    0  0.00000000000E+00  0.00000000000E+00  0.10825423558E+04  0.10825423558E+04  0.25500000000E-02 0. -1.
         -2   -1    0    0    0  501 -0.00000000000E+00 -0.00000000000E+00 -0.83051462881E+03  0.83051462881E+03  0.25500000000E-02 0.  1.
    8880023    1    1    2    0    0  0.12429496394E+03 -0.51836524884E+03  0.77683363088E+03  0.11495357609E+04  0.65864270000E+03 0. -1.
    8880022    1    1    2    0    0 -0.12429496394E+03  0.51836524884E+03 -0.52480590390E+03  0.76352122370E+03  0.15294330000E+03 0.  0.
<mgrwt>
<rscale>  0 0.76212524E+03</rscale>
<asrwt>0</asrwt>
<pdfrwt beam="1">  1        2 0.16654498E+00 0.84732637E+03</pdfrwt>
<pdfrwt beam="2">  1       -2 0.12777148E+00 0.84732637E+03</pdfrwt>
<totfact> 0.10206123E+01</totfact>
</mgrwt>
</event>
<event>
 4    1  0.6502538E-008  0.1251447E+04  0.7818608E-02  0.9108665E-01
          2   -1    0    0  501    0  0.00000000000E+00  0.00000000000E+00  0.73063568855E+03  0.73063568855E+03  0.25500000000E-02 0. -1.
         -2   -1    0    0    0  501 -0.00000000000E+00 -0.00000000000E+00 -0.22976455276E+04  0.22976455276E+04  0.25500000000E-02 0.  1.
    8880023    1    1    2    0    0 -0.43909587704E+03 -0.96928026468E+03 -0.16609573132E+03  0.12624212526E+04  0.65864270000E+03 0.  0.
    8880022    1    1    2    0    0  0.43909587704E+03  0.96928026468E+03 -0.14009141078E+04  0.17658599636E+04  0.15294330000E+03 0.  0.
<mgrwt>
<rscale>  0 0.12048002E+04</rscale>
<asrwt>0</asrwt>
<pdfrwt beam="1">  1        2 0.11240549E+00 0.12514470E+04</pdfrwt>
<pdfrwt beam="2">  1       -2 0.35348392E+00 0.12514470E+04</pdfrwt>
<totfact> 0.56255179E-01</totfact>
</mgrwt>
</event>
<event>
 4    1  0.6502538E-008  0.6979588E+03  0.7818608E-02  0.1000578E+00
         -2   -1    0    0    0  501 -0.00000000000E+00  0.00000000000E+00  0.34937505979E+03  0.34937505980E+03  0.25500000000E-02 0.  1.
          2   -1    0    0  501    0  0.00000000000E+00 -0.00000000000E+00 -0.10886725936E+04  0.10886725936E+04  0.25500000000E-02 0. -1.
    8880023    1    1    2    0    0  0.20088368317E+03  0.11393889187E+03 -0.88336504749E+03  0.11258242930E+04  0.65864270000E+03 0. -1.
    8880022    1    1    2    0    0 -0.20088368317E+03 -0.11393889187E+03  0.14406751373E+03  0.31222336039E+03  0.15294330000E+03 0.  0.
<mgrwt>
<rscale>  0 0.55397680E+03</rscale>
<asrwt>0</asrwt>
<pdfrwt beam="1">  1        2 0.16748809E+00 0.69795883E+03</pdfrwt>
<pdfrwt beam="2">  1       -2 0.53750010E-01 0.69795883E+03</pdfrwt>
<totfact> 0.73640649E+01</totfact>
</mgrwt>
</event>
<event>
 4    1  0.6502538E-008  0.7067811E+03  0.7818608E-02  0.9970154E-01
          2   -1    0    0  501    0  0.00000000000E+00  0.00000000000E+00  0.10919973035E+04  0.10919973035E+04  0.25500000000E-02 0. -1.
         -2   -1    0    0    0  501 -0.00000000000E+00 -0.00000000000E+00 -0.19597829538E+04  0.19597829538E+04  0.25500000000E-02 0.  1.
    8880023    1    1    2    0    0  0.93679942189E+02  0.23864900742E+03  0.96427249240E+03  0.11955588343E+04  0.65864270000E+03 0. -1.
    8880022    1    1    2    0    0 -0.93679942189E+02 -0.23864900742E+03 -0.18320581426E+04  0.18562214230E+04  0.15294330000E+03 0.  0.
<mgrwt>
<rscale>  0 0.56978518E+03</rscale>
<asrwt>0</asrwt>
<pdfrwt beam="1">  1        2 0.16799958E+00 0.70678107E+03</pdfrwt>
<pdfrwt beam="2">  1       -2 0.30150507E+00 0.70678107E+03</pdfrwt>
<totfact> 0.72508967E-01</totfact>
</mgrwt>
</event>
<event>
 4    1  0.6502538E-008  0.8014202E+03  0.7818608E-02  0.9707734E-01
         -2   -1    0    0    0  501 -0.00000000000E+00  0.00000000000E+00  0.79446736464E+03  0.79446736464E+03  0.25500000000E-02 0.  1.
          2   -1    0    0  501    0  0.00000000000E+00 -0.00000000000E+00 -0.94774574530E+03  0.94774574531E+03  0.25500000000E-02 0. -1.
    8880023    1    1    2    0    0 -0.42643442121E+03  0.16314948694E+03 -0.66366164262E+03  0.10405388281E+04  0.65864270000E+03 0.  0.
    8880022    1    1    2    0    0  0.42643442121E+03 -0.16314948694E+03  0.51038326195E+03  0.70167428183E+03  0.15294330000E+03 0.  0.
<mgrwt>
<rscale>  0 0.70558189E+03</rscale>
<asrwt>0</asrwt>
<pdfrwt beam="1">  1        2 0.14580704E+00 0.80142016E+03</pdfrwt>
<pdfrwt beam="2">  1       -2 0.12222575E+00 0.80142016E+03</pdfrwt>
<totfact> 0.13967736E+01</totfact>
</mgrwt>
</event>
<event>
 4    1  0.6502538E-008  0.1028582E+04  0.7818608E-02  0.9345083E-01
          2   -1    0    0  501    0  0.00000000000E+00  0.00000000000E+00  0.98960552529E+03  0.98960552530E+03  0.25500000000E-02 0. -1.
         -2   -1    0    0    0  501 -0.00000000000E+00 -0.00000000000E+00 -0.19909935299E+04  0.19909935299E+04  0.25500000000E-02 0.  1.
    8880023    1    1    2    0    0 -0.78768566426E+03  0.61007836355E+02  0.59828321183E+03  0.11899259093E+04  0.65864270000E+03 0. -1.
    8880022    1    1    2    0    0  0.78768566426E+03 -0.61007836355E+02 -0.15996712165E+04  0.17906731459E+04  0.15294330000E+03 0.  0.
<mgrwt>
<rscale>  0 0.96736279E+03</rscale>
<asrwt>0</asrwt>
<pdfrwt beam="1">  1        2 0.15224700E+00 0.10285820E+04</pdfrwt>
<pdfrwt beam="2">  1       -2 0.30630670E+00 0.10285820E+04</pdfrwt>
<totfact> 0.74431768E-01</totfact>
</mgrwt>
</event>
<event>
 4    1  0.6502538E-008  0.1019399E+04  0.7818608E-02  0.9356606E-01
          2   -1    0    0  501    0  0.00000000000E+00  0.00000000000E+00  0.13687222927E+04  0.13687222927E+04  0.25500000000E-02 0. -1.
         -2   -1    0    0    0  501 -0.00000000000E+00 -0.00000000000E+00 -0.16555479345E+04  0.16555479345E+04  0.25500000000E-02 0.  1.
    8880023    1    1    2    0    0  0.74423732679E+03 -0.22688261356E+03  0.10541305198E+04  0.14664127243E+04  0.65864270000E+03 0. -1.
    8880022    1    1    2    0    0 -0.74423732679E+03  0.22688261356E+03 -0.13409561616E+04  0.15578575029E+04  0.15294330000E+03 0.  0.
<mgrwt>
<rscale>  0 0.95734527E+03</rscale>
<asrwt>0</asrwt>
<pdfrwt beam="1">  1        2 0.21057266E+00 0.10193994E+04</pdfrwt>
<pdfrwt beam="2">  1       -2 0.25469968E+00 0.10193994E+04</pdfrwt>
<totfact> 0.90256412E-01</totfact>
</mgrwt>
</event>
<event>
 4    1  0.6502538E-008  0.7770430E+03  0.7818608E-02  0.9762829E-01
          2   -1    0    0  501    0  0.00000000000E+00  0.00000000000E+00  0.26792837574E+04  0.26792837574E+04  0.25500000000E-02 0. -1.
         -2   -1    0    0    0  501 -0.00000000000E+00 -0.00000000000E+00 -0.73839407215E+03  0.73839407215E+03  0.25500000000E-02 0.  1.
    8880023    1    1    2    0    0  0.32546058728E+03  0.25310273836E+03  0.25503697428E+04  0.26661173307E+04  0.65864270000E+03 0. -1.
    8880022    1    1    2    0    0 -0.32546058728E+03 -0.25310273836E+03 -0.60948005746E+03  0.75156049890E+03  0.15294330000E+03 0.  0.
<mgrwt>
<rscale>  0 0.67396051E+03</rscale>
<asrwt>0</asrwt>
<pdfrwt beam="1">  1        2 0.41219751E+00 0.77704298E+03</pdfrwt>
<pdfrwt beam="2">  1       -2 0.11359909E+00 0.77704298E+03</pdfrwt>
<totfact> 0.17442613E+00</totfact>
</mgrwt>
</event>
<event>
 4    1  0.6502538E-008  0.6655396E+03  0.7818608E-02  0.1019085E+00
         -2   -1    0    0    0  501 -0.00000000000E+00  0.00000000000E+00  0.22453090215E+03  0.22453090216E+03  0.25500000000E-02 0.  1.
          2   -1    0    0  501    0  0.00000000000E+00 -0.00000000000E+00 -0.15729814846E+04  0.15729814846E+04  0.25500000000E-02 0. -1.
    8880023    1    1    2    0    0 -0.81860645584E+02 -0.49311397454E+02 -0.14464801476E+04  0.15922461502E+04  0.65864270000E+03 0. -1.
    8880022    1    1    2    0    0  0.81860645584E+02  0.49311397454E+02  0.98029565138E+02  0.20526623656E+03  0.15294330000E+03 0.  0.
<mgrwt>
<rscale>  0 0.48018286E+03</rscale>
<asrwt>0</asrwt>
<pdfrwt beam="1">  1        2 0.24199714E+00 0.66553962E+03</pdfrwt>
<pdfrwt beam="2">  1       -2 0.34543217E-01 0.66553962E+03</pdfrwt>
<totfact> 0.93277009E+01</totfact>
</mgrwt>
</event>
<event>
 4    1  0.6502538E-008  0.1000731E+04  0.7818608E-02  0.9380602E-01
          2   -1    0    0  501    0  0.00000000000E+00  0.00000000000E+00  0.23920377432E+04  0.23920377432E+04  0.25500000000E-02 0. -1.
         -2   -1    0    0    0  501 -0.00000000000E+00 -0.00000000000E+00 -0.33758496454E+03  0.33758496455E+03  0.25500000000E-02 0.  1.
    8880023    1    1    2    0    0  0.62469365753E+03  0.42119983364E+03  0.13945070449E+04  0.17164240648E+04  0.65864270000E+03 0.  0.
    8880022    1    1    2    0    0 -0.62469365753E+03 -0.42119983364E+03  0.65994573382E+03  0.10131986430E+04  0.15294330000E+03 0.  0.
<mgrwt>
<rscale>  0 0.93689360E+03</rscale>
<asrwt>0</asrwt>
<pdfrwt beam="1">  1        2 0.36800581E+00 0.10007306E+04</pdfrwt>
<pdfrwt beam="2">  1       -2 0.51936148E-01 0.10007306E+04</pdfrwt>
<totfact> 0.14204671E+01</totfact>
</mgrwt>
</event>
<event>
 4    1  0.6502538E-008  0.1032655E+04  0.7818608E-02  0.9340029E-01
         -2   -1    0    0    0  501 -0.00000000000E+00  0.00000000000E+00  0.43114210291E+03  0.43114210292E+03  0.25500000000E-02 0.  1.
          2   -1    0    0  501    0  0.00000000000E+00 -0.00000000000E+00 -0.32402714981E+04  0.32402714981E+04  0.25500000000E-02 0. -1.
    8880023    1    1    2    0    0 -0.74291776700E+03 -0.28397112590E+03 -0.26525947972E+04  0.28465129147E+04  0.65864270000E+03 0.  0.
    8880022    1    1    2    0    0  0.74291776700E+03  0.28397112590E+03 -0.15653459790E+03  0.82490068628E+03  0.15294330000E+03 0.  0.
<mgrwt>
<rscale>  0 0.97179797E+03</rscale>
<asrwt>0</asrwt>
<pdfrwt beam="1">  1        2 0.49850329E+00 0.10326551E+04</pdfrwt>
<pdfrwt beam="2">  1       -2 0.66329556E-01 0.10326551E+04</pdfrwt>
<totfact> 0.26099391E+00</totfact>
</mgrwt>
</event>
<event>
 4    1  0.6502538E-008  0.8069065E+03  0.7818608E-02  0.9696057E-01
          2   -1    0    0  501    0  0.00000000000E+00  0.00000000000E+00  0.77280570238E+03  0.77280570238E+03  0.25500000000E-02 0. -1.
         -2   -1    0    0    0  501 -0.00000000000E+00 -0.00000000000E+00 -0.95083789258E+03  0.95083789258E+03  0.25500000000E-02 0.  1.
    8880023    1    1    2    0    0  0.43553208595E+03 -0.16613140471E+03 -0.65508944494E+03  0.10393460582E+04  0.65864270000E+03 0.  0.
    8880022    1    1    2    0    0 -0.43553208595E+03  0.16613140471E+03  0.47705725474E+03  0.68429753678E+03  0.15294330000E+03 0.  0.
<mgrwt>
<rscale>  0 0.71252037E+03</rscale>
<asrwt>0</asrwt>
<pdfrwt beam="1">  1        2 0.11889319E+00 0.80690647E+03</pdfrwt>
<pdfrwt beam="2">  1       -2 0.14628275E+00 0.80690647E+03</pdfrwt>
<totfact> 0.11656733E+01</totfact>
</mgrwt>
</event>
<event>
 4    1  0.6502538E-008  0.9073450E+03  0.7818608E-02  0.9514342E-01
          2   -1    0    0  501    0  0.00000000000E+00  0.00000000000E+00  0.50052184759E+03  0.50052184759E+03  0.25500000000E-02 0. -1.
         -2   -1    0    0    0  501 -0.00000000000E+00 -0.00000000000E+00 -0.15235005040E+04  0.15235005040E+04  0.25500000000E-02 0.  1.
    8880023    1    1    2    0    0  0.29862721228E+03  0.54798411412E+03 -0.11923634006E+03  0.91514606064E+03  0.65864270000E+03 0.  0.
    8880022    1    1    2    0    0 -0.29862721228E+03 -0.54798411412E+03 -0.90374231631E+03  0.11088762909E+04  0.15294330000E+03 0.  0.
<mgrwt>
<rscale>  0 0.83234665E+03</rscale>
<asrwt>0</asrwt>
<pdfrwt beam="1">  1        2 0.77003362E-01 0.90734503E+03</pdfrwt>
<pdfrwt beam="2">  1       -2 0.23438469E+00 0.90734503E+03</pdfrwt>
<totfact> 0.49738425E+00</totfact>
</mgrwt>
</event>
<event>
 4    1  0.6502538E-008  0.8303921E+03  0.7818608E-02  0.9648570E-01
         -2   -1    0    0    0  501 -0.00000000000E+00  0.00000000000E+00  0.30928874366E+03  0.30928874367E+03  0.25500000000E-02 0.  1.
          2   -1    0    0  501    0  0.00000000000E+00 -0.00000000000E+00 -0.21805887210E+04  0.21805887210E+04  0.25500000000E-02 0. -1.
    8880023    1    1    2    0    0 -0.19428181604E+03  0.46689976278E+03 -0.39045865146E+03  0.91761047144E+03  0.65864270000E+03 0.  0.
    8880022    1    1    2    0    0  0.19428181604E+03 -0.46689976278E+03 -0.14808413259E+04  0.15722669932E+04  0.15294330000E+03 0.  0.
<mgrwt>
<rscale>  0 0.74163240E+03</rscale>
<asrwt>0</asrwt>
<pdfrwt beam="1">  1        2 0.33547518E+00 0.83039209E+03</pdfrwt>
<pdfrwt beam="2">  1       -2 0.47582885E-01 0.83039209E+03</pdfrwt>
<totfact> 0.22749339E+01</totfact>
</mgrwt>
</event>
<event>
 4    1  0.6502538E-008  0.8187882E+03  0.7818608E-02  0.9671554E-01
         -2   -1    0    0    0  501 -0.00000000000E+00  0.00000000000E+00  0.10657566932E+04  0.10657566932E+04  0.25500000000E-02 0.  1.
          2   -1    0    0  501    0  0.00000000000E+00 -0.00000000000E+00 -0.15734024189E+04  0.15734024189E+04  0.25500000000E-02 0. -1.
    8880023    1    1    2    0    0 -0.94924934927E+02  0.47706727879E+03 -0.13939566270E+04  0.16166413380E+04  0.65864270000E+03 0.  0.
    8880022    1    1    2    0    0  0.94924934927E+02 -0.47706727879E+03  0.88631090121E+03  0.10225177741E+04  0.15294330000E+03 0.  0.
<mgrwt>
<rscale>  0 0.72736003E+03</rscale>
<asrwt>0</asrwt>
<pdfrwt beam="1">  1        2 0.24206191E+00 0.81878821E+03</pdfrwt>
<pdfrwt beam="2">  1       -2 0.16396257E+00 0.81878821E+03</pdfrwt>
<totfact> 0.27679124E+00</totfact>
</mgrwt>
</event>
<event>
 4    1  0.6502538E-008  0.7127786E+03  0.7818608E-02  0.9947824E-01
          2   -1    0    0  501    0  0.00000000000E+00  0.00000000000E+00  0.42616605273E+04  0.42616605273E+04  0.25500000000E-02 0. -1.
         -2   -1    0    0    0  501 -0.00000000000E+00 -0.00000000000E+00 -0.27194642485E+03  0.27194642486E+03  0.25500000000E-02 0.  1.
    8880023    1    1    2    0    0  0.12780864858E+02 -0.27217609541E+03  0.41300271500E+04  0.41910831110E+04  0.65864270000E+03 0. -1.
    8880022    1    1    2    0    0 -0.12780864858E+02  0.27217609541E+03 -0.14031304756E+03  0.34252384114E+03  0.15294330000E+03 0.  0.
<mgrwt>
<rscale>  0 0.57998479E+03</rscale>
<asrwt>0</asrwt>
<pdfrwt beam="1">  1        2 0.65564008E+00 0.71277864E+03</pdfrwt>
<pdfrwt beam="2">  1       -2 0.41837912E-01 0.71277864E+03</pdfrwt>
<totfact> 0.12620194E+00</totfact>
</mgrwt>
</event>
<event>
 4    1  0.6502538E-008  0.9937968E+03  0.7818608E-02  0.9389719E-01
         -2   -1    0    0    0  501 -0.00000000000E+00  0.00000000000E+00  0.42277523087E+03  0.42277523088E+03  0.25500000000E-02 0.  1.
          2   -1    0    0  501    0  0.00000000000E+00 -0.00000000000E+00 -0.27734533651E+04  0.27734533651E+04  0.25500000000E-02 0. -1.
    8880023    1    1    2    0    0 -0.14885722703E+03  0.72915249306E+03 -0.22105513515E+04  0.24236685657E+04  0.65864270000E+03 0. -1.
    8880022    1    1    2    0    0  0.14885722703E+03 -0.72915249306E+03 -0.14012678268E+03  0.77256003030E+03  0.15294330000E+03 0.  0.
<mgrwt>
<rscale>  0 0.92926643E+03</rscale>
<asrwt>0</asrwt>
<pdfrwt beam="1">  1        2 0.42668512E+00 0.99379678E+03</pdfrwt>
<pdfrwt beam="2">  1       -2 0.65042345E-01 0.99379678E+03</pdfrwt>
<totfact> 0.53249655E+00</totfact>
</mgrwt>
</event>
<event>
 4    1  0.6502538E-008  0.1078026E+04  0.7818608E-02  0.9285925E-01
          2   -1    0    0  501    0  0.00000000000E+00  0.00000000000E+00  0.15748048275E+04  0.15748048275E+04  0.25500000000E-02 0. -1.
         -2   -1    0    0    0  501 -0.00000000000E+00 -0.00000000000E+00 -0.14838171342E+04  0.14838171342E+04  0.25500000000E-02 0.  1.
    8880023    1    1    2    0    0 -0.50074856736E+03  0.69107153318E+03  0.12245742585E+04  0.16314782599E+04  0.65864270000E+03 0. -1.
    8880022    1    1    2    0    0  0.50074856736E+03 -0.69107153318E+03 -0.11335865652E+04  0.14271437018E+04  0.15294330000E+03 0.  0.
<mgrwt>
<rscale>  0 0.10208898E+04</rscale>
<asrwt>0</asrwt>
<pdfrwt beam="1">  1        2 0.24227767E+00 0.10780256E+04</pdfrwt>
<pdfrwt beam="2">  1       -2 0.22827956E+00 0.10780256E+04</pdfrwt>
<totfact> 0.99522666E-01</totfact>
</mgrwt>
</event>
<event>
 4    1  0.6502538E-008  0.7675524E+03  0.7818608E-02  0.9785933E-01
          2   -1    0    0  501    0  0.00000000000E+00  0.00000000000E+00  0.18443963026E+04  0.18443963026E+04  0.25500000000E-02 0. -1.
         -2   -1    0    0    0  501 -0.00000000000E+00 -0.00000000000E+00 -0.11198059673E+04  0.11198059673E+04  0.25500000000E-02 0.  1.
    8880023    1    1    2    0    0 -0.23827438767E+03 -0.31392959414E+03  0.17195911934E+04  0.18831172434E+04  0.65864270000E+03 0. -1.
    8880022    1    1    2    0    0  0.23827438767E+03  0.31392959414E+03 -0.99500085806E+03  0.10810850265E+04  0.15294330000E+03 0.  0.
<mgrwt>
<rscale>  0 0.66122931E+03</rscale>
<asrwt>0</asrwt>
<pdfrwt beam="1">  1        2 0.28375328E+00 0.76755240E+03</pdfrwt>
<pdfrwt beam="2">  1       -2 0.17227784E+00 0.76755240E+03</pdfrwt>
<totfact> 0.17291624E+00</totfact>
</mgrwt>
</event>
<event>
 4    1  0.6502538E-008  0.8982907E+03  0.7818608E-02  0.9528781E-01
          2   -1    0    0  501    0  0.00000000000E+00  0.00000000000E+00  0.28007886240E+04  0.28007886240E+04  0.25500000000E-02 0. -1.
         -2   -1    0    0    0  501 -0.00000000000E+00 -0.00000000000E+00 -0.41175577585E+03  0.41175577586E+03  0.25500000000E-02 0.  1.
    8880023    1    1    2    0    0  0.25151008650E+03 -0.55664949598E+03  0.24207626733E+04  0.25820569537E+04  0.65864270000E+03 0.  0.
    8880022    1    1    2    0    0 -0.25151008650E+03  0.55664949598E+03 -0.31729825207E+02  0.63048744619E+03  0.15294330000E+03 0.  0.
<mgrwt>
<rscale>  0 0.82194759E+03</rscale>
<asrwt>0</asrwt>
<pdfrwt beam="1">  1        2 0.43089054E+00 0.89829071E+03</pdfrwt>
<pdfrwt beam="2">  1       -2 0.63347045E-01 0.89829071E+03</pdfrwt>
<totfact> 0.55049230E+00</totfact>
</mgrwt>
</event>
<event>
 4    1  0.6502538E-008  0.1071289E+04  0.7818608E-02  0.9293717E-01
         -2   -1    0    0    0  501 -0.00000000000E+00  0.00000000000E+00  0.64429777600E+03  0.64429777601E+03  0.25500000000E-02 0.  1.
          2   -1    0    0  501    0  0.00000000000E+00 -0.00000000000E+00 -0.15574983031E+04  0.15574983031E+04  0.25500000000E-02 0. -1.
    8880023    1    1    2    0    0 -0.78982520459E+03 -0.30004224268E+03 -0.20935568628E+03  0.10915535767E+04  0.65864270000E+03 0.  1.
    8880022    1    1    2    0    0  0.78982520459E+03  0.30004224268E+03 -0.70384484082E+03  0.11102425024E+04  0.15294330000E+03 0.  0.
<mgrwt>
<rscale>  0 0.10136337E+04</rscale>
<asrwt>0</asrwt>
<pdfrwt beam="1">  1        2 0.23961512E+00 0.10712887E+04</pdfrwt>
<pdfrwt beam="2">  1       -2 0.99122735E-01 0.10712887E+04</pdfrwt>
<totfact> 0.98270955E+00</totfact>
</mgrwt>
</event>
<event>
 4    1  0.6502538E-008  0.6714977E+03  0.7818608E-02  0.1014611E+00
          2   -1    0    0  501    0  0.00000000000E+00  0.00000000000E+00  0.62012221177E+03  0.62012221177E+03  0.25500000000E-02 0. -1.
         -2   -1    0    0    0  501 -0.00000000000E+00 -0.00000000000E+00 -0.70490863473E+03  0.70490863474E+03  0.25500000000E-02 0.  1.
    8880023    1    1    2    0    0 -0.99286719756E+02 -0.85094881210E+02  0.41284354886E+03  0.78825693377E+03  0.65864270000E+03 0. -1.
    8880022    1    1    2    0    0  0.99286719756E+02  0.85094881210E+02 -0.49762997183E+03  0.53677391275E+03  0.15294330000E+03 0.  0.
<mgrwt>
<rscale>  0 0.49682421E+03</rscale>
<asrwt>0</asrwt>
<pdfrwt beam="1">  1        2 0.95403417E-01 0.67149773E+03</pdfrwt>
<pdfrwt beam="2">  1       -2 0.10844748E+00 0.67149773E+03</pdfrwt>
<totfact> 0.33033044E+01</totfact>
</mgrwt>
</event>
<event>
 4    1  0.6502538E-008  0.1039210E+04  0.7818608E-02  0.9331966E-01
         -2   -1    0    0    0  501 -0.00000000000E+00  0.00000000000E+00  0.19517635035E+04  0.19517635035E+04  0.25500000000E-02 0.  1.
          2   -1    0    0  501    0  0.00000000000E+00 -0.00000000000E+00 -0.98189425707E+03  0.98189425708E+03  0.25500000000E-02 0. -1.
    8880023    1    1    2    0    0  0.77486037970E+03 -0.21386615593E+03 -0.57338404984E+03  0.11868979803E+04  0.65864270000E+03 0.  0.
    8880022    1    1    2    0    0 -0.77486037970E+03  0.21386615593E+03  0.15432532963E+04  0.17467597803E+04  0.15294330000E+03 0.  0.
<mgrwt>
<rscale>  0 0.97892516E+03</rscale>
<asrwt>0</asrwt>
<pdfrwt beam="1">  1        2 0.15106066E+00 0.10392101E+04</pdfrwt>
<pdfrwt beam="2">  1       -2 0.30027131E+00 0.10392101E+04</pdfrwt>
<totfact> 0.81801532E-01</totfact>
</mgrwt>
</event>
<event>
 4    1  0.6502538E-008  0.8406903E+03  0.7818608E-02  0.9628880E-01
         -2   -1    0    0    0  501 -0.00000000000E+00  0.00000000000E+00  0.26920766873E+03  0.26920766874E+03  0.25500000000E-02 0.  1.
          2   -1    0    0  501    0  0.00000000000E+00 -0.00000000000E+00 -0.42043221792E+04  0.42043221792E+04  0.25500000000E-02 0. -1.
    8880023    1    1    2    0    0 -0.22175487387E+03 -0.47304829928E+03 -0.38273506485E+04  0.39185932565E+04  0.65864270000E+03 0.  0.
    8880022    1    1    2    0    0  0.22175487387E+03  0.47304829928E+03 -0.10776386202E+03  0.55493659144E+03  0.15294330000E+03 0.  0.
<mgrwt>
<rscale>  0 0.75413845E+03</rscale>
<asrwt>0</asrwt>
<pdfrwt beam="1">  1        2 0.64681875E+00 0.84069027E+03</pdfrwt>
<pdfrwt beam="2">  1       -2 0.41416568E-01 0.84069027E+03</pdfrwt>
<totfact> 0.13974787E+00</totfact>
</mgrwt>
</event>
<event>
 4    1  0.6502538E-008  0.7942093E+03  0.7818608E-02  0.9723460E-01
          2   -1    0    0  501    0  0.00000000000E+00  0.00000000000E+00  0.41453337674E+03  0.41453337675E+03  0.25500000000E-02 0. -1.
         -2   -1    0    0    0  501 -0.00000000000E+00 -0.00000000000E+00 -0.97130644615E+03  0.97130644615E+03  0.25500000000E-02 0.  1.
    8880023    1    1    2    0    0 -0.57384421217E+02 -0.44007407322E+03 -0.28729817955E+03  0.84457599537E+03  0.65864270000E+03 0. -1.
    8880022    1    1    2    0    0  0.57384421217E+02  0.44007407322E+03 -0.26947488986E+03  0.54126382753E+03  0.15294330000E+03 0.  1.
<mgrwt>
<rscale>  0 0.69637040E+03</rscale>
<asrwt>0</asrwt>
<pdfrwt beam="1">  1        2 0.63774366E-01 0.79420927E+03</pdfrwt>
<pdfrwt beam="2">  1       -2 0.14943176E+00 0.79420927E+03</pdfrwt>
<totfact> 0.23332144E+01</totfact>
</mgrwt>
</event>
<event>
 4    1  0.6502538E-008  0.6882904E+03  0.7818608E-02  0.1004976E+00
         -2   -1    0    0    0  501 -0.00000000000E+00  0.00000000000E+00  0.11112770767E+04  0.11112770767E+04  0.25500000000E-02 0.  1.
          2   -1    0    0  501    0  0.00000000000E+00 -0.00000000000E+00 -0.22473429440E+03  0.22473429441E+03  0.25500000000E-02 0. -1.
    8880023    1    1    2    0    0  0.18240988724E+03 -0.81609445250E+02  0.42107618581E+03  0.80687596880E+03  0.65864270000E+03 0. -1.
    8880022    1    1    2    0    0 -0.18240988724E+03  0.81609445250E+02  0.46546659650E+03  0.52913540232E+03  0.15294330000E+03 0.  0.
<mgrwt>
<rscale>  0 0.53521193E+03</rscale>
<asrwt>0</asrwt>
<pdfrwt beam="1">  1        2 0.34574507E-01 0.68829040E+03</pdfrwt>
<pdfrwt beam="2">  1       -2 0.17096570E+00 0.68829040E+03</pdfrwt>
<totfact> 0.32360605E+01</totfact>
</mgrwt>
</event>
<event>
 4    1  0.6502538E-008  0.7663766E+03  0.7818608E-02  0.9788870E-01
          2   -1    0    0  501    0  0.00000000000E+00  0.00000000000E+00  0.16626706787E+04  0.16626706787E+04  0.25500000000E-02 0. -1.
         -2   -1    0    0    0  501 -0.00000000000E+00 -0.00000000000E+00 -0.77260946349E+03  0.77260946349E+03  0.25500000000E-02 0.  1.
    8880023    1    1    2    0    0  0.21313491268E+03 -0.32878023893E+03  0.15057928981E+04  0.16895991817E+04  0.65864270000E+03 0. -1.
    8880022    1    1    2    0    0 -0.21313491268E+03  0.32878023893E+03 -0.61573168289E+03  0.74568096050E+03  0.15294330000E+03 0.  0.
<mgrwt>
<rscale>  0 0.65963265E+03</rscale>
<asrwt>0</asrwt>
<pdfrwt beam="1">  1        2 0.25579549E+00 0.76637663E+03</pdfrwt>
<pdfrwt beam="2">  1       -2 0.11886300E+00 0.76637663E+03</pdfrwt>
<totfact> 0.57384818E+00</totfact>
</mgrwt>
</event>
<event>
 4    1  0.6502538E-008  0.6967660E+03  0.7818608E-02  0.1001089E+00
          2   -1    0    0  501    0  0.00000000000E+00  0.00000000000E+00  0.29093532572E+04  0.29093532572E+04  0.25500000000E-02 0. -1.
         -2   -1    0    0    0  501 -0.00000000000E+00 -0.00000000000E+00 -0.97123422054E+03  0.97123422055E+03  0.25500000000E-02 0.  1.
    8880023    1    1    2    0    0 -0.12380790271E+03  0.19064175404E+03  0.28471488185E+04  0.29311668796E+04  0.65864270000E+03 0. -1.
    8880022    1    1    2    0    0  0.12380790271E+03 -0.19064175404E+03 -0.90902978177E+03  0.94942059822E+03  0.15294330000E+03 0.  0.
<mgrwt>
<rscale>  0 0.55175264E+03</rscale>
<asrwt>0</asrwt>
<pdfrwt beam="1">  1        2 0.44759281E+00 0.69676602E+03</pdfrwt>
<pdfrwt beam="2">  1       -2 0.14942065E+00 0.69676602E+03</pdfrwt>
<totfact> 0.64832296E-01</totfact>
</mgrwt>
</event>
<event>
 4    1  0.6502538E-008  0.8350561E+03  0.7818608E-02  0.9639574E-01
          2   -1    0    0  501    0  0.00000000000E+00  0.00000000000E+00  0.62103682973E+03  0.62103682973E+03  0.25500000000E-02 0. -1.
         -2   -1    0    0    0  501 -0.00000000000E+00 -0.00000000000E+00 -0.82749644580E+03  0.82749644580E+03  0.25500000000E-02 0.  1.
    8880023    1    1    2    0    0 -0.32086461664E+03  0.40069244007E+03 -0.33158716329E+03  0.89848137814E+03  0.65864270000E+03 0.  1.
    8880022    1    1    2    0    0  0.32086461664E+03 -0.40069244007E+03  0.12512754722E+03  0.55005189739E+03  0.15294330000E+03 0.  0.
<mgrwt>
<rscale>  0 0.74731398E+03</rscale>
<asrwt>0</asrwt>
<pdfrwt beam="1">  1        2 0.95544128E-01 0.83505613E+03</pdfrwt>
<pdfrwt beam="2">  1       -2 0.12730715E+00 0.83505613E+03</pdfrwt>
<totfact> 0.21910985E+01</totfact>
</mgrwt>
</event>
<event>
 4    1  0.6502538E-008  0.1501177E+04  0.7818608E-02  0.8908805E-01
          2   -1    0    0  501    0  0.00000000000E+00  0.00000000000E+00  0.24408657449E+04  0.24408657449E+04  0.25500000000E-02 0. -1.
         -2   -1    0    0    0  501 -0.00000000000E+00 -0.00000000000E+00 -0.91409919642E+03  0.91409919643E+03  0.25500000000E-02 0.  1.
    8880023    1    1    2    0    0 -0.18014788715E+03  0.13368876915E+04  0.12848879222E+04  0.19759729603E+04  0.65864270000E+03 0.  0.
    8880022    1    1    2    0    0  0.18014788715E+03 -0.13368876915E+04  0.24187862627E+03  0.13789919810E+04  0.15294330000E+03 0.  0.
<mgrwt>
<rscale>  0 0.14639220E+04</rscale>
<asrwt>0</asrwt>
<pdfrwt beam="1">  1        2 0.37551780E+00 0.15011769E+04</pdfrwt>
<pdfrwt beam="2">  1       -2 0.14063065E+00 0.15011769E+04</pdfrwt>
<totfact> 0.12646870E+00</totfact>
</mgrwt>
</event>
<event>
 4    1  0.6502538E-008  0.8745602E+03  0.7818608E-02  0.9568171E-01
         -2   -1    0    0    0  501 -0.00000000000E+00  0.00000000000E+00  0.84400627205E+03  0.84400627205E+03  0.25500000000E-02 0.  1.
          2   -1    0    0  501    0  0.00000000000E+00 -0.00000000000E+00 -0.96781143871E+03  0.96781143872E+03  0.25500000000E-02 0. -1.
    8880023    1    1    2    0    0  0.27083066601E+03  0.50763777509E+03 -0.59058900931E+03  0.10552966145E+04  0.65864270000E+03 0. -1.
    8880022    1    1    2    0    0 -0.27083066601E+03 -0.50763777509E+03  0.46678384265E+03  0.75652109629E+03  0.15294330000E+03 0.  1.
<mgrwt>
<rscale>  0 0.79439165E+03</rscale>
<asrwt>0</asrwt>
<pdfrwt beam="1">  1        2 0.14889407E+00 0.87456021E+03</pdfrwt>
<pdfrwt beam="2">  1       -2 0.12984712E+00 0.87456021E+03</pdfrwt>
<totfact> 0.11553128E+01</totfact>
</mgrwt>
</event>
<event>
 4    1  0.6502538E-008  0.7289464E+03  0.7818608E-02  0.9893401E-01
          2   -1    0    0  501    0  0.00000000000E+00  0.00000000000E+00  0.71254445360E+03  0.71254445361E+03  0.25500000000E-02 0. -1.
         -2   -1    0    0    0  501 -0.00000000000E+00 -0.00000000000E+00 -0.23259400051E+04  0.23259400051E+04  0.25500000000E-02 0.  1.
    8880023    1    1    2    0    0 -0.30705352336E+03  0.57190894169E+02  0.50817648994E+03  0.88859789319E+03  0.65864270000E+03 0. -1.
    8880022    1    1    2    0    0  0.30705352336E+03 -0.57190894169E+02 -0.21215720414E+04  0.21498865655E+04  0.15294330000E+03 0.  0.
<mgrwt>
<rscale>  0 0.60582178E+03</rscale>
<asrwt>0</asrwt>
<pdfrwt beam="1">  1        2 0.10962222E+00 0.72894641E+03</pdfrwt>
<pdfrwt beam="2">  1       -2 0.35783692E+00 0.72894641E+03</pdfrwt>
<totfact> 0.59049839E-01</totfact>
</mgrwt>
</event>
<event>
 4    1  0.6502538E-008  0.1096020E+04  0.7818608E-02  0.9265500E-01
         -2   -1    0    0    0  501 -0.00000000000E+00  0.00000000000E+00  0.10643733431E+04  0.10643733431E+04  0.25500000000E-02 0.  1.
          2   -1    0    0  501    0  0.00000000000E+00 -0.00000000000E+00 -0.25451512951E+04  0.25451512951E+04  0.25500000000E-02 0. -1.
    8880023    1    1    2    0    0 -0.79574642262E+03  0.36638541836E+03 -0.22051754651E+04  0.24625311535E+04  0.65864270000E+03 0.  0.
    8880022    1    1    2    0    0  0.79574642262E+03 -0.36638541836E+03  0.72439751309E+03  0.11469934847E+04  0.15294330000E+03 0.  0.
<mgrwt>
<rscale>  0 0.10402201E+04</rscale>
<asrwt>0</asrwt>
<pdfrwt beam="1">  1        2 0.39156174E+00 0.10960205E+04</pdfrwt>
<pdfrwt beam="2">  1       -2 0.16374975E+00 0.10960205E+04</pdfrwt>
<totfact> 0.76827006E-01</totfact>
</mgrwt>
</event>
<event>
 4    1  0.6502538E-008  0.7062022E+03  0.7818608E-02  0.9972384E-01
          2   -1    0    0  501    0  0.00000000000E+00  0.00000000000E+00  0.17003793061E+04  0.17003793061E+04  0.25500000000E-02 0. -1.
         -2   -1    0    0    0  501 -0.00000000000E+00 -0.00000000000E+00 -0.36082127264E+03  0.36082127265E+03  0.25500000000E-02 0.  1.
    8880023    1    1    2    0    0 -0.25401669355E+03  0.19667153705E+02  0.15458055075E+04  0.16994811417E+04  0.65864270000E+03 0. -1.
    8880022    1    1    2    0    0  0.25401669355E+03 -0.19667153705E+02 -0.20624747412E+03  0.36171943704E+03  0.15294330000E+03 0.  0.
<mgrwt>
<rscale>  0 0.56877915E+03</rscale>
<asrwt>0</asrwt>
<pdfrwt beam="1">  1        2 0.26159682E+00 0.70620216E+03</pdfrwt>
<pdfrwt beam="2">  1       -2 0.55510965E-01 0.70620216E+03</pdfrwt>
<totfact> 0.30858653E+01</totfact>
</mgrwt>
</event>
<event>
 4    1  0.6502538E-008  0.9770460E+03  0.7818608E-02  0.9412224E-01
         -2   -1    0    0    0  501 -0.00000000000E+00  0.00000000000E+00  0.66250837053E+03  0.66250837054E+03  0.25500000000E-02 0.  1.
          2   -1    0    0  501    0  0.00000000000E+00 -0.00000000000E+00 -0.13166468367E+04  0.13166468367E+04  0.25500000000E-02 0. -1.
    8880023    1    1    2    0    0  0.51901280457E+03 -0.50143225737E+03 -0.75476970927E+03  0.12346238781E+04  0.65864270000E+03 0.  0.
    8880022    1    1    2    0    0 -0.51901280457E+03  0.50143225737E+03  0.10063124307E+03  0.74453132919E+03  0.15294330000E+03 0.  0.
<mgrwt>
<rscale>  0 0.91076449E+03</rscale>
<asrwt>0</asrwt>
<pdfrwt beam="1">  1        2 0.20256105E+00 0.97704596E+03</pdfrwt>
<pdfrwt beam="2">  1       -2 0.10192437E+00 0.97704596E+03</pdfrwt>
<totfact> 0.12715883E+01</totfact>
</mgrwt>
</event>
<event>
 4    1  0.6502538E-008  0.7061688E+03  0.7818608E-02  0.9972513E-01
         -2   -1    0    0    0  501 -0.00000000000E+00  0.00000000000E+00  0.18383598576E+04  0.18383598576E+04  0.25500000000E-02 0.  1.
          2   -1    0    0  501    0  0.00000000000E+00 -0.00000000000E+00 -0.65453759956E+03  0.65453759956E+03  0.25500000000E-02 0. -1.
    8880023    1    1    2    0    0 -0.23572236533E+03  0.96432209816E+02 -0.44666027906E+03  0.83557155035E+03  0.65864270000E+03 0. -1.
    8880022    1    1    2    0    0  0.23572236533E+03 -0.96432209816E+02  0.16304825371E+04  0.16573259068E+04  0.15294330000E+03 0.  0.
<mgrwt>
<rscale>  0 0.56872111E+03</rscale>
<asrwt>0</asrwt>
<pdfrwt beam="1">  1        2 0.10069809E+00 0.70616883E+03</pdfrwt>
<pdfrwt beam="2">  1       -2 0.28282459E+00 0.70616883E+03</pdfrwt>
<totfact> 0.18870864E+00</totfact>
</mgrwt>
</event>
<event>
 4    1  0.6502538E-008  0.9475539E+03  0.7818608E-02  0.9453642E-01
         -2   -1    0    0    0  501 -0.00000000000E+00  0.00000000000E+00  0.32870128096E+03  0.32870128097E+03  0.25500000000E-02 0.  1.
          2   -1    0    0  501    0  0.00000000000E+00 -0.00000000000E+00 -0.31563905460E+04  0.31563905460E+04  0.25500000000E-02 0. -1.
    8880023    1    1    2    0    0 -0.56529412078E+03  0.38011933657E+03 -0.25729786671E+04  0.27419113006E+04  0.65864270000E+03 0. -1.
    8880022    1    1    2    0    0  0.56529412078E+03 -0.38011933657E+03 -0.25471059799E+03  0.74318052636E+03  0.15294330000E+03 0.  0.
<mgrwt>
<rscale>  0 0.87789598E+03</rscale>
<asrwt>0</asrwt>
<pdfrwt beam="1">  1        2 0.48559852E+00 0.94755388E+03</pdfrwt>
<pdfrwt beam="2">  1       -2 0.50569430E-01 0.94755388E+03</pdfrwt>
<totfact> 0.52986621E+00</totfact>
</mgrwt>
</event>
<event>
 4    1  0.6502538E-008  0.7959957E+03  0.7818608E-02  0.9719522E-01
         -2   -1    0    0    0  501 -0.00000000000E+00  0.00000000000E+00  0.96653830558E+03  0.96653830558E+03  0.25500000000E-02 0.  1.
          2   -1    0    0  501    0  0.00000000000E+00 -0.00000000000E+00 -0.77951251880E+03  0.77951251880E+03  0.25500000000E-02 0. -1.
    8880023    1    1    2    0    0 -0.83358721439E+02 -0.43914722409E+03 -0.47935999566E+03  0.92919060078E+03  0.65864270000E+03 0. -1.
    8880022    1    1    2    0    0  0.83358721439E+02  0.43914722409E+03  0.66638578244E+03  0.81686022361E+03  0.15294330000E+03 0.  0.
<mgrwt>
<rscale>  0 0.69866266E+03</rscale>
<asrwt>0</asrwt>
<pdfrwt beam="1">  1        2 0.11992500E+00 0.79599571E+03</pdfrwt>
<pdfrwt beam="2">  1       -2 0.14869820E+00 0.79599571E+03</pdfrwt>
<totfact> 0.11050993E+01</totfact>
</mgrwt>
</event>
<event>
 4    1  0.6502538E-008  0.6768171E+03  0.7818608E-02  0.1011185E+00
          2   -1    0    0  501    0  0.00000000000E+00  0.00000000000E+00  0.25879549159E+04  0.25879549159E+04  0.25500000000E-02 0. -1.
         -2   -1    0    0    0  501 -0.00000000000E+00 -0.00000000000E+00 -0.26759124652E+03  0.26759124654E+03  0.25500000000E-02 0.  1.
    8880023    1    1    2    0    0 -0.76792495176E+02  0.13555085305E+03  0.24891914827E+04  0.25795649952E+04  0.65864270000E+03 0. -1.
    8880022    1    1    2    0    0  0.76792495176E+02 -0.13555085305E+03 -0.16882781330E+03  0.27598116718E+03  0.15294330000E+03 0.  0.
<mgrwt>
<rscale>  0 0.51006542E+03</rscale>
<asrwt>0</asrwt>
<pdfrwt beam="1">  1        2 0.39814690E+00 0.67681706E+03</pdfrwt>
<pdfrwt beam="2">  1       -2 0.41167885E-01 0.67681706E+03</pdfrwt>
<totfact> 0.18347360E+01</totfact>
</mgrwt>
</event>
<event>
 4    1  0.6502538E-008  0.9125963E+03  0.7818608E-02  0.9506106E-01
         -2   -1    0    0    0  501 -0.00000000000E+00  0.00000000000E+00  0.34727127742E+03  0.34727127743E+03  0.25500000000E-02 0.  1.
          2   -1    0    0  501    0  0.00000000000E+00 -0.00000000000E+00 -0.25506661979E+04  0.25506661979E+04  0.25500000000E-02 0. -1.
    8880023    1    1    2    0    0  0.59060444334E+03 -0.22407199839E+03 -0.20293477361E+04  0.22251032132E+04  0.65864270000E+03 0. -1.
    8880022    1    1    2    0    0 -0.59060444334E+03  0.22407199839E+03 -0.17404718440E+03  0.67283426218E+03  0.15294330000E+03 0.  0.
<mgrwt>
<rscale>  0 0.83835174E+03</rscale>
<asrwt>0</asrwt>
<pdfrwt beam="1">  1        2 0.39241017E+00 0.91259634E+03</pdfrwt>
<pdfrwt beam="2">  1       -2 0.53426352E-01 0.91259634E+03</pdfrwt>
<totfact> 0.11003154E+01</totfact>
</mgrwt>
</event>
<event>
 4    1  0.6502538E-008  0.9276537E+03  0.7818608E-02  0.9483022E-01
          2   -1    0    0  501    0  0.00000000000E+00  0.00000000000E+00  0.19049552583E+04  0.19049552583E+04  0.25500000000E-02 0. -1.
         -2   -1    0    0    0  501 -0.00000000000E+00 -0.00000000000E+00 -0.43516339481E+03  0.43516339481E+03  0.25500000000E-02 0.  1.
    8880023    1    1    2    0    0 -0.64769574842E+03  0.84978957814E+02  0.13805924624E+04  0.16633030269E+04  0.65864270000E+03 0. -1.
    8880022    1    1    2    0    0  0.64769574842E+03 -0.84978957814E+02  0.89199401163E+02  0.67681562628E+03  0.15294330000E+03 0.  0.
<mgrwt>
<rscale>  0 0.85547200E+03</rscale>
<asrwt>0</asrwt>
<pdfrwt beam="1">  1        2 0.29307004E+00 0.92765371E+03</pdfrwt>
<pdfrwt beam="2">  1       -2 0.66948216E-01 0.92765371E+03</pdfrwt>
<totfact> 0.15607186E+01</totfact>
</mgrwt>
</event>
<event>
 4    1  0.6502538E-008  0.8598526E+03  0.7818608E-02  0.9593826E-01
         -2   -1    0    0    0  501 -0.00000000000E+00  0.00000000000E+00  0.57370922738E+03  0.57370922738E+03  0.25500000000E-02 0.  1.
          2   -1    0    0  501    0  0.00000000000E+00 -0.00000000000E+00 -0.17832995442E+04  0.17832995442E+04  0.25500000000E-02 0. -1.
    8880023    1    1    2    0    0 -0.40184564689E+03  0.37954754296E+03 -0.14886985162E+04  0.17191770530E+04  0.65864270000E+03 0.  0.
    8880022    1    1    2    0    0  0.40184564689E+03 -0.37954754296E+03  0.27910819933E+03  0.63783171859E+03  0.15294330000E+03 0.  0.
<mgrwt>
<rscale>  0 0.77706186E+03</rscale>
<asrwt>0</asrwt>
<pdfrwt beam="1">  1        2 0.27435377E+00 0.85985258E+03</pdfrwt>
<pdfrwt beam="2">  1       -2 0.88262959E-01 0.85985258E+03</pdfrwt>
<totfact> 0.98920642E+00</totfact>
</mgrwt>
</event>
<event>
 4    1  0.6502538E-008  0.1156822E+04  0.7818608E-02  0.9200282E-01
         -2   -1    0    0    0  501 -0.00000000000E+00  0.00000000000E+00  0.16071985056E+04  0.16071985056E+04  0.25500000000E-02 0.  1.
          2   -1    0    0  501    0  0.00000000000E+00 -0.00000000000E+00 -0.14617977602E+04  0.14617977602E+04  0.25500000000E-02 0. -1.
    8880023    1    1    2    0    0 -0.81944850180E+03 -0.48262901430E+03 -0.10302887684E+04  0.15491067637E+04  0.65864270000E+03 0.  0.
    8880022    1    1    2    0    0  0.81944850180E+03  0.48262901430E+03  0.11756895139E+04  0.15198895021E+04  0.15294330000E+03 0.  0.
<mgrwt>
<rscale>  0 0.11050520E+04</rscale>
<asrwt>0</asrwt>
<pdfrwt beam="1">  1        2 0.22489196E+00 0.11568219E+04</pdfrwt>
<pdfrwt beam="2">  1       -2 0.24726131E+00 0.11568219E+04</pdfrwt>
<totfact> 0.87066193E-01</totfact>
</mgrwt>
</event>
<event>
 4    1  0.6502538E-008  0.1784321E+04  0.7818608E-02  0.8731259E-01
          2   -1    0    0  501    0  0.00000000000E+00  0.00000000000E+00  0.17229149241E+04  0.17229149241E+04  0.25500000000E-02 0. -1.
         -2   -1    0    0    0  501 -0.00000000000E+00 -0.00000000000E+00 -0.18060545023E+04  0.18060545023E+04  0.25500000000E-02 0.  1.
    8880023    1    1    2    0    0 -0.16491555471E+04 -0.17400756698E+03 -0.41245878248E+03  0.18313724650E+04  0.65864270000E+03 0.  0.
    8880022    1    1    2    0    0  0.16491555471E+04  0.17400756698E+03  0.32931920426E+03  0.16975969614E+04  0.15294330000E+03 0.  0.
<mgrwt>
<rscale>  0 0.17538041E+04</rscale>
<asrwt>0</asrwt>
<pdfrwt beam="1">  1        2 0.26506383E+00 0.17843214E+04</pdfrwt>
<pdfrwt beam="2">  1       -2 0.27785454E+00 0.17843214E+04</pdfrwt>
<totfact> 0.37725820E-01</totfact>
</mgrwt>
</event>
<event>
 4    1  0.6502538E-008  0.1869983E+04  0.7818608E-02  0.8684781E-01
          2   -1    0    0  501    0  0.00000000000E+00  0.00000000000E+00  0.26455612398E+04  0.26455612398E+04  0.25500000000E-02 0. -1.
         -2   -1    0    0    0  501 -0.00000000000E+00 -0.00000000000E+00 -0.22741309432E+04  0.22741309432E+04  0.25500000000E-02 0.  1.
    8880023    1    1    2    0    0 -0.10287263208E+04 -0.14158907725E+04 -0.14670485359E+04  0.23767764168E+04  0.65864270000E+03 0. -1.
    8880022    1    1    2    0    0  0.10287263208E+04  0.14158907725E+04  0.18384788325E+04  0.25429157661E+04  0.15294330000E+03 0.  0.
<mgrwt>
<rscale>  0 0.18410262E+04</rscale>
<asrwt>0</asrwt>
<pdfrwt beam="1">  1        2 0.40700942E+00 0.18699825E+04</pdfrwt>
<pdfrwt beam="2">  1       -2 0.34986630E+00 0.18699825E+04</pdfrwt>
<totfact> 0.39962250E-02</totfact>
</mgrwt>
</event>
<event>
 4    1  0.6502538E-008  0.1225527E+04  0.7818608E-02  0.9132699E-01
         -2   -1    0    0    0  501 -0.00000000000E+00  0.00000000000E+00  0.12203145552E+04  0.12203145552E+04  0.25500000000E-02 0.  1.
          2   -1    0    0  501    0  0.00000000000E+00 -0.00000000000E+00 -0.17031286235E+04  0.17031286235E+04  0.25500000000E-02 0. -1.
    8880023    1    1    2    0    0 -0.41354641079E+03  0.94714587082E+03 -0.11526416793E+04  0.16824086845E+04  0.65864270000E+03 0. -1.
    8880022    1    1    2    0    0  0.41354641079E+03 -0.94714587082E+03  0.66982761098E+03  0.12410344943E+04  0.15294330000E+03 0.  0.
<mgrwt>
<rscale>  0 0.11775924E+04</rscale>
<asrwt>0</asrwt>
<pdfrwt beam="1">  1        2 0.26201979E+00 0.12255269E+04</pdfrwt>
<pdfrwt beam="2">  1       -2 0.18774070E+00 0.12255269E+04</pdfrwt>
<totfact> 0.15171305E+00</totfact>
</mgrwt>
</event>
<event>
 4    1  0.6502538E-008  0.6740101E+03  0.7818608E-02  0.1012938E+00
          2   -1    0    0  501    0  0.00000000000E+00  0.00000000000E+00  0.25080090693E+04  0.25080090693E+04  0.25500000000E-02 0. -1.
         -2   -1    0    0    0  501 -0.00000000000E+00 -0.00000000000E+00 -0.18166418350E+03  0.18166418352E+03  0.25500000000E-02 0.  1.
    8880023    1    1    2    0    0 -0.68750603959E+02 -0.12551010276E+03  0.23798821148E+04  0.24734850956E+04  0.65864270000E+03 0. -1.
    8880022    1    1    2    0    0  0.68750603959E+02  0.12551010276E+03 -0.53537228973E+02  0.21618815726E+03  0.15294330000E+03 0.  0.
<mgrwt>
<rscale>  0 0.50323647E+03</rscale>
<asrwt>0</asrwt>
<pdfrwt beam="1">  1        2 0.38584753E+00 0.67401012E+03</pdfrwt>
<pdfrwt beam="2">  1       -2 0.27948337E-01 0.67401012E+03</pdfrwt>
<totfact> 0.42414933E+01</totfact>
</mgrwt>
</event>
<event>
 4    1  0.6502538E-008  0.1526894E+04  0.7818608E-02  0.8890875E-01
         -2   -1    0    0    0  501 -0.00000000000E+00  0.00000000000E+00  0.13712935830E+04  0.13712935830E+04  0.25500000000E-02 0.  1.
          2   -1    0    0  501    0  0.00000000000E+00 -0.00000000000E+00 -0.29095009721E+04  0.29095009721E+04  0.25500000000E-02 0. -1.
    8880023    1    1    2    0    0  0.12952079361E+04 -0.46907400734E+03 -0.22527501300E+04  0.27214494991E+04  0.65864270000E+03 0. -1.
    8880022    1    1    2    0    0 -0.12952079361E+04  0.46907400734E+03  0.71454274084E+03  0.15593450560E+04  0.15294330000E+03 0.  0.
<mgrwt>
<rscale>  0 0.14903803E+04</rscale>
<asrwt>0</asrwt>
<pdfrwt beam="1">  1        2 0.44761553E+00 0.15268937E+04</pdfrwt>
<pdfrwt beam="2">  1       -2 0.21096824E+00 0.15268937E+04</pdfrwt>
<totfact> 0.20987163E-01</totfact>
</mgrwt>
</event>
<event>
 4    1  0.6502538E-008  0.8685155E+03  0.7818608E-02  0.9578592E-01
         -2   -1    0    0    0  501 -0.00000000000E+00  0.00000000000E+00  0.36571823845E+03  0.36571823846E+03  0.25500000000E-02 0.  1.
          2   -1    0    0  501    0  0.00000000000E+00 -0.00000000000E+00 -0.15941686038E+04  0.15941686038E+04  0.25500000000E-02 0. -1.
    8880023    1    1    2    0    0  0.47221176817E+03  0.31228987245E+03 -0.42976429718E+03  0.96902862488E+03  0.65864270000E+03 0.  1.
    8880022    1    1    2    0    0 -0.47221176817E+03 -0.31228987245E+03 -0.79868606813E+03  0.99085821734E+03  0.15294330000E+03 0.  1.
<mgrwt>
<rscale>  0 0.78729462E+03</rscale>
<asrwt>0</asrwt>
<pdfrwt beam="1">  1        2 0.24525670E+00 0.86851547E+03</pdfrwt>
<pdfrwt beam="2">  1       -2 0.56264345E-01 0.86851547E+03</pdfrwt>
<totfact> 0.33701951E+01</totfact>
</mgrwt>
</event>
<event>
 4    1  0.6502538E-008  0.6981219E+03  0.7818608E-02  0.1000508E+00
          2   -1    0    0  501    0  0.00000000000E+00  0.00000000000E+00  0.11533518478E+04  0.11533518478E+04  0.25500000000E-02 0. -1.
         -2   -1    0    0    0  501 -0.00000000000E+00 -0.00000000000E+00 -0.22141820623E+03  0.22141820625E+03  0.25500000000E-02 0.  1.
    8880023    1    1    2    0    0 -0.21162984712E+03 -0.93684277966E+02  0.81659940649E+03  0.10743410692E+04  0.65864270000E+03 0.  0.
    8880022    1    1    2    0    0  0.21162984712E+03  0.93684277966E+02  0.11533423512E+03  0.30042898485E+03  0.15294330000E+03 0. -1.
<mgrwt>
<rscale>  0 0.55427904E+03</rscale>
<asrwt>0</asrwt>
<pdfrwt beam="1">  1        2 0.17743874E+00 0.69812187E+03</pdfrwt>
<pdfrwt beam="2">  1       -2 0.34064340E-01 0.69812187E+03</pdfrwt>
<totfact> 0.16559649E+02</totfact>
</mgrwt>
</event>
<event>
 4    1  0.6502538E-008  0.7901248E+03  0.7818608E-02  0.9732570E-01
         -2   -1    0    0    0  501 -0.00000000000E+00  0.00000000000E+00  0.84403907794E+03  0.84403907794E+03  0.25500000000E-02 0.  1.
          2   -1    0    0  501    0  0.00000000000E+00 -0.00000000000E+00 -0.59982542920E+03  0.59982542921E+03  0.25500000000E-02 0. -1.
    8880023    1    1    2    0    0  0.37947923306E+03  0.21559797706E+03 -0.18655712417E+03  0.81185019731E+03  0.65864270000E+03 0. -1.
    8880022    1    1    2    0    0 -0.37947923306E+03 -0.21559797706E+03  0.43077077290E+03  0.63201430984E+03  0.15294330000E+03 0.  1.
<mgrwt>
<rscale>  0 0.69110286E+03</rscale>
<asrwt>0</asrwt>
<pdfrwt beam="1">  1        2 0.92280836E-01 0.79012479E+03</pdfrwt>
<pdfrwt beam="2">  1       -2 0.12985216E+00 0.79012479E+03</pdfrwt>
<totfact> 0.21821680E+01</totfact>
</mgrwt>
</event>
<event>
 4    1  0.1233545E-007  0.2067313E+04  0.7818608E-02  0.8587512E-01
         -2   -1    0    0    0  501 -0.00000000000E+00  0.00000000000E+00  0.31669826766E+04  0.31669826766E+04  0.25500000000E-02 0.  1.
          2   -1    0    0  501    0  0.00000000000E+00 -0.00000000000E+00 -0.26226037354E+04  0.26226037354E+04  0.25500000000E-02 0. -1.
    8880023    1    1    2    0    0 -0.14340827406E+04 -0.13354318510E+04 -0.17923557946E+04  0.27361142221E+04  0.65864270000E+03 0.  0.
    8880022    1    1    2    0    0  0.14340827406E+04  0.13354318510E+04  0.23367347359E+04  0.30534721899E+04  0.15294330000E+03 0.  0.
<mgrwt>
<rscale>  0 0.20413869E+04</rscale>
<asrwt>0</asrwt>
<pdfrwt beam="1">  1        2 0.40347750E+00 0.20673127E+04</pdfrwt>
<pdfrwt beam="2">  1       -2 0.48722810E+00 0.20673127E+04</pdfrwt>
<totfact> 0.50765867E-03</totfact>
</mgrwt>
</event>
<event>
 4    1  0.6502538E-008  0.1316864E+04  0.7818608E-02  0.9051132E-01
          2   -1    0    0  501    0  0.00000000000E+00  0.00000000000E+00  0.13057493671E+04  0.13057493671E+04  0.25500000000E-02 0. -1.
         -2   -1    0    0    0  501 -0.00000000000E+00 -0.00000000000E+00 -0.20128805992E+04  0.20128805992E+04  0.25500000000E-02 0.  1.
    8880023    1    1    2    0    0  0.10116779839E+03  0.11358199006E+04  0.70775069041E+03  0.14950060254E+04  0.65864270000E+03 0.  0.
    8880022    1    1    2    0    0 -0.10116779839E+03 -0.11358199006E+04 -0.14148819225E+04  0.18236239408E+04  0.15294330000E+03 0.  0.
<mgrwt>
<rscale>  0 0.12731514E+04</rscale>
<asrwt>0</asrwt>
<pdfrwt beam="1">  1        2 0.20088452E+00 0.13168644E+04</pdfrwt>
<pdfrwt beam="2">  1       -2 0.30967394E+00 0.13168644E+04</pdfrwt>
<totfact> 0.43784009E-01</totfact>
</mgrwt>
</event>
<event>
 4    1  0.6877949E-008  0.9312242E+03  0.7818608E-02  0.9477659E-01
          2   -1    0    0  501    0  0.00000000000E+00  0.00000000000E+00  0.20373158993E+04  0.20373158993E+04  0.25500000000E-02 0. -1.
         -2   -1    0    0    0  501 -0.00000000000E+00 -0.00000000000E+00 -0.10270823615E+04  0.10270823615E+04  0.25500000000E-02 0.  1.
    8880023    1    1    2    0    0 -0.65687053338E+03 -0.43467263047E+02  0.17989767896E+04  0.20257087639E+04  0.65864270000E+03 0. -1.
    8880022    1    1    2    0    0  0.65687053338E+03  0.43467263047E+02 -0.78874325185E+03  0.10386894969E+04  0.15294330000E+03 0.  0.
<mgrwt>
<rscale>  0 0.85951150E+03</rscale>
<asrwt>0</asrwt>
<pdfrwt beam="1">  1        2 0.31343322E+00 0.93122420E+03</pdfrwt>
<pdfrwt beam="2">  1       -2 0.15801267E+00 0.93122420E+03</pdfrwt>
<totfact> 0.16733286E+00</totfact>
</mgrwt>
</event>
<event>
 4    1  0.6502538E-008  0.7778168E+03  0.7818608E-02  0.9760991E-01
         -2   -1    0    0    0  501 -0.00000000000E+00  0.00000000000E+00  0.18712811983E+04  0.18712811983E+04  0.25500000000E-02 0.  1.
          2   -1    0    0  501    0  0.00000000000E+00 -0.00000000000E+00 -0.47034397705E+03  0.47034397705E+03  0.25500000000E-02 0. -1.
    8880023    1    1    2    0    0 -0.26750797408E+03  0.31563936288E+03 -0.93527300377E+02  0.78341961028E+03  0.65864270000E+03 0. -1.
    8880022    1    1    2    0    0  0.26750797408E+03 -0.31563936288E+03  0.14944645216E+04  0.15582055651E+04  0.15294330000E+03 0.  0.
<mgrwt>
<rscale>  0 0.67498692E+03</rscale>
<asrwt>0</asrwt>
<pdfrwt beam="1">  1        2 0.72360611E-01 0.77781677E+03</pdfrwt>
<pdfrwt beam="2">  1       -2 0.28788942E+00 0.77781677E+03</pdfrwt>
<totfact> 0.25762328E+00</totfact>
</mgrwt>
</event>
<event>
 4    1  0.6502538E-008  0.1193124E+04  0.7818608E-02  0.9163835E-01
         -2   -1    0    0    0  501 -0.00000000000E+00  0.00000000000E+00  0.45014695198E+03  0.45014695199E+03  0.25500000000E-02 0.  1.
          2   -1    0    0  501    0  0.00000000000E+00 -0.00000000000E+00 -0.29825298722E+04  0.29825298722E+04  0.25500000000E-02 0. -1.
    8880023    1    1    2    0    0 -0.99405938659E+03 -0.39771423525E+02 -0.82462150982E+03  0.14503608761E+04  0.65864270000E+03 0.  0.
    8880022    1    1    2    0    0  0.99405938659E+03  0.39771423525E+02 -0.17077614104E+04  0.19823159481E+04  0.15294330000E+03 0.  0.
<mgrwt>
<rscale>  0 0.11434636E+04</rscale>
<asrwt>0</asrwt>
<pdfrwt beam="1">  1        2 0.45885074E+00 0.11931245E+04</pdfrwt>
<pdfrwt beam="2">  1       -2 0.69253379E-01 0.11931245E+04</pdfrwt>
<totfact> 0.33832806E+00</totfact>
</mgrwt>
</event>
<event>
 4    1  0.6502538E-008  0.7020995E+03  0.7818608E-02  0.9988601E-01
          2   -1    0    0  501    0  0.00000000000E+00  0.00000000000E+00  0.25817026730E+04  0.25817026730E+04  0.25500000000E-02 0. -1.
         -2   -1    0    0    0  501 -0.00000000000E+00 -0.00000000000E+00 -0.11921849707E+03  0.11921849710E+03  0.25500000000E-02 0.  1.
    8880023    1    1    2    0    0 -0.13534744998E+03  0.20202620260E+03  0.22086938798E+04  0.23176005651E+04  0.65864270000E+03 0.  0.
    8880022    1    1    2    0    0  0.13534744998E+03 -0.20202620260E+03  0.25379029618E+03  0.38332060498E+03  0.15294330000E+03 0.  0.
<mgrwt>
<rscale>  0 0.56152915E+03</rscale>
<asrwt>0</asrwt>
<pdfrwt beam="1">  1        2 0.39718502E+00 0.70209951E+03</pdfrwt>
<pdfrwt beam="2">  1       -2 0.18341308E-01 0.70209951E+03</pdfrwt>
<totfact> 0.81113895E+01</totfact>
</mgrwt>
</event>
<event>
 4    1  0.6502538E-008  0.1417604E+04  0.7818608E-02  0.8970124E-01
          2   -1    0    0  501    0  0.00000000000E+00  0.00000000000E+00  0.16872754898E+04  0.16872754898E+04  0.25500000000E-02 0. -1.
         -2   -1    0    0    0  501 -0.00000000000E+00 -0.00000000000E+00 -0.15145479991E+04  0.15145479991E+04  0.25500000000E-02 0.  1.
    8880023    1    1    2    0    0  0.10743008497E+04 -0.64935920107E+03  0.96011462779E+03  0.17121390108E+04  0.65864270000E+03 0.  0.
    8880022    1    1    2    0    0 -0.10743008497E+04  0.64935920107E+03 -0.78738713709E+03  0.14896844781E+04  0.15294330000E+03 0.  0.
<mgrwt>
<rscale>  0 0.13776957E+04</rscale>
<asrwt>0</asrwt>
<pdfrwt beam="1">  1        2 0.25958084E+00 0.14176036E+04</pdfrwt>
<pdfrwt beam="2">  1       -2 0.23300739E+00 0.14176036E+04</pdfrwt>
<totfact> 0.77304117E-01</totfact>
</mgrwt>
</event>
<event>
 4    1  0.6502538E-008  0.9355413E+03  0.7818608E-02  0.9471229E-01
         -2   -1    0    0    0  501 -0.00000000000E+00  0.00000000000E+00  0.57052088900E+03  0.57052088901E+03  0.25500000000E-02 0.  1.
          2   -1    0    0  501    0  0.00000000000E+00 -0.00000000000E+00 -0.23499406166E+04  0.23499406166E+04  0.25500000000E-02 0. -1.
    8880023    1    1    2    0    0 -0.56542365594E+03 -0.34888880042E+03 -0.19966120933E+04  0.22049257046E+04  0.65864270000E+03 0.  0.
    8880022    1    1    2    0    0  0.56542365594E+03  0.34888880042E+03  0.21719236566E+03  0.71553580097E+03  0.15294330000E+03 0.  0.
<mgrwt>
<rscale>  0 0.86438595E+03</rscale>
<asrwt>0</asrwt>
<pdfrwt beam="1">  1        2 0.36152932E+00 0.93554129E+03</pdfrwt>
<pdfrwt beam="2">  1       -2 0.87772446E-01 0.93554129E+03</pdfrwt>
<totfact> 0.48286384E+00</totfact>
</mgrwt>
</event>
<event>
 4    1  0.6502538E-008  0.7422812E+03  0.7818608E-02  0.9853351E-01
          2   -1    0    0  501    0  0.00000000000E+00  0.00000000000E+00  0.89339337602E+03  0.89339337602E+03  0.25500000000E-02 0. -1.
         -2   -1    0    0    0  501 -0.00000000000E+00 -0.00000000000E+00 -0.40665098024E+03  0.40665098025E+03  0.25500000000E-02 0.  1.
    8880023    1    1    2    0    0  0.42330718740E+02 -0.33967522776E+03  0.79538763765E+02  0.74653048920E+03  0.65864270000E+03 0.  1.
    8880022    1    1    2    0    0 -0.42330718740E+02  0.33967522776E+03  0.40720363201E+03  0.55351386707E+03  0.15294330000E+03 0. -1.
<mgrwt>
<rscale>  0 0.62576337E+03</rscale>
<asrwt>0</asrwt>
<pdfrwt beam="1">  1        2 0.13744513E+00 0.74228118E+03</pdfrwt>
<pdfrwt beam="2">  1       -2 0.62561690E-01 0.74228118E+03</pdfrwt>
<totfact> 0.71214031E+01</totfact>
</mgrwt>
</event>
<event>
 4    1  0.6502538E-008  0.1359359E+04  0.7818608E-02  0.9015923E-01
          2   -1    0    0  501    0  0.00000000000E+00  0.00000000000E+00  0.94920924286E+03  0.94920924287E+03  0.25500000000E-02 0. -1.
         -2   -1    0    0    0  501 -0.00000000000E+00 -0.00000000000E+00 -0.24881724749E+04  0.24881724749E+04  0.25500000000E-02 0.  1.
    8880023    1    1    2    0    0 -0.11129401213E+04 -0.41881933394E+03  0.14841262770E+03  0.13674362371E+04  0.65864270000E+03 0.  0.
    8880022    1    1    2    0    0  0.11129401213E+04  0.41881933394E+03 -0.16873758598E+04  0.20699454807E+04  0.15294330000E+03 0.  0.
<mgrwt>
<rscale>  0 0.13173437E+04</rscale>
<asrwt>0</asrwt>
<pdfrwt beam="1">  1        2 0.14603219E+00 0.13593585E+04</pdfrwt>
<pdfrwt beam="2">  1       -2 0.38279576E+00 0.13593585E+04</pdfrwt>
<totfact> 0.25219969E-01</totfact>
</mgrwt>
</event>
<event>
 4    1  0.6502538E-008  0.8814673E+03  0.7818608E-02  0.9556462E-01
          2   -1    0    0  501    0  0.00000000000E+00  0.00000000000E+00  0.56863924171E+03  0.56863924172E+03  0.25500000000E-02 0. -1.
         -2   -1    0    0    0  501 -0.00000000000E+00 -0.00000000000E+00 -0.23389844548E+04  0.23389844548E+04  0.25500000000E-02 0.  1.
    8880023    1    1    2    0    0 -0.58517693250E+03 -0.27246488494E+02  0.14996206159E+03  0.89413267452E+03  0.65864270000E+03 0. -1.
    8880022    1    1    2    0    0  0.58517693250E+03  0.27246488494E+02 -0.19203072747E+04  0.20134910220E+04  0.15294330000E+03 0.  0.
<mgrwt>
<rscale>  0 0.80246055E+03</rscale>
<asrwt>0</asrwt>
<pdfrwt beam="1">  1        2 0.87482961E-01 0.88146731E+03</pdfrwt>
<pdfrwt beam="2">  1       -2 0.35984376E+00 0.88146731E+03</pdfrwt>
<totfact> 0.73674023E-01</totfact>
</mgrwt>
</event>
<event>
 4    1  0.6502538E-008  0.7064096E+03  0.7818608E-02  0.9971583E-01
          2   -1    0    0  501    0  0.00000000000E+00  0.00000000000E+00  0.13938373989E+04  0.13938373989E+04  0.25500000000E-02 0. -1.
         -2   -1    0    0    0  501 -0.00000000000E+00 -0.00000000000E+00 -0.27452076333E+03  0.27452076334E+03  0.25500000000E-02 0.  1.
    8880023    1    1    2    0    0 -0.92352838194E+02 -0.23806555223E+03  0.11697132675E+04  0.13664712175E+04  0.65864270000E+03 0. -1.
    8880022    1    1    2    0    0  0.92352838194E+02  0.23806555223E+03 -0.50396631925E+02  0.30188694474E+03  0.15294330000E+03 0.  0.
<mgrwt>
<rscale>  0 0.56914003E+03</rscale>
<asrwt>0</asrwt>
<pdfrwt beam="1">  1        2 0.21443652E+00 0.70640956E+03</pdfrwt>
<pdfrwt beam="2">  1       -2 0.42233964E-01 0.70640956E+03</pdfrwt>
<totfact> 0.79264918E+01</totfact>
</mgrwt>
</event>
<event>
 4    1  0.6502538E-008  0.7327796E+03  0.7818608E-02  0.9881502E-01
         -2   -1    0    0    0  501 -0.00000000000E+00  0.00000000000E+00  0.54615017831E+03  0.54615017831E+03  0.25500000000E-02 0.  1.
          2   -1    0    0  501    0  0.00000000000E+00 -0.00000000000E+00 -0.15314437766E+04  0.15314437766E+04  0.25500000000E-02 0. -1.
    8880023    1    1    2    0    0 -0.16839790994E+03  0.27349197676E+03 -0.13699753169E+04  0.15536403357E+04  0.65864270000E+03 0.  0.
    8880022    1    1    2    0    0  0.16839790994E+03 -0.27349197676E+03  0.38468171864E+03  0.52395361922E+03  0.15294330000E+03 0.  0.
<mgrwt>
<rscale>  0 0.61166223E+03</rscale>
<asrwt>0</asrwt>
<pdfrwt beam="1">  1        2 0.23560673E+00 0.73277959E+03</pdfrwt>
<pdfrwt beam="2">  1       -2 0.84023105E-01 0.73277959E+03</pdfrwt>
<totfact> 0.15482940E+01</totfact>
</mgrwt>
</event>
<event>
 4    1  0.6502538E-008  0.6700839E+03  0.7818608E-02  0.1015603E+00
          2   -1    0    0  501    0  0.00000000000E+00  0.00000000000E+00  0.20468923654E+04  0.20468923654E+04  0.25500000000E-02 0. -1.
         -2   -1    0    0    0  501 -0.00000000000E+00 -0.00000000000E+00 -0.16160247778E+03  0.16160247780E+03  0.25500000000E-02 0.  1.
    8880023    1    1    2    0    0  0.10349875386E+02 -0.12286198422E+03  0.18968232186E+04  0.20117034364E+04  0.65864270000E+03 0.  0.
    8880022    1    1    2    0    0 -0.10349875386E+02  0.12286198422E+03 -0.11533330904E+02  0.19679140689E+03  0.15294330000E+03 0.  0.
<mgrwt>
<rscale>  0 0.49307345E+03</rscale>
<asrwt>0</asrwt>
<pdfrwt beam="1">  1        2 0.31490653E+00 0.67008387E+03</pdfrwt>
<pdfrwt beam="2">  1       -2 0.24861919E-01 0.67008387E+03</pdfrwt>
<totfact> 0.94448191E+01</totfact>
</mgrwt>
</event>
<event>
 4    1  0.6502538E-008  0.1251637E+04  0.7818608E-02  0.9108492E-01
         -2   -1    0    0    0  501 -0.00000000000E+00  0.00000000000E+00  0.39375011062E+03  0.39375011063E+03  0.25500000000E-02 0.  1.
          2   -1    0    0  501    0  0.00000000000E+00 -0.00000000000E+00 -0.44602489623E+04  0.44602489623E+04  0.25500000000E-02 0. -1.
    8880023    1    1    2    0    0 -0.18282499404E+03  0.10485031320E+04 -0.33115147116E+04  0.35401587093E+04  0.65864270000E+03 0.  0.
    8880022    1    1    2    0    0  0.18282499404E+03 -0.10485031320E+04 -0.75498414012E+03  0.13138403636E+04  0.15294330000E+03 0.  0.
<mgrwt>
<rscale>  0 0.12049989E+04</rscale>
<asrwt>0</asrwt>
<pdfrwt beam="1">  1        2 0.68619211E+00 0.12516365E+04</pdfrwt>
<pdfrwt beam="2">  1       -2 0.60576943E-01 0.12516365E+04</pdfrwt>
<totfact> 0.35011583E-01</totfact>
</mgrwt>
</event>
<event>
 4    1  0.6502538E-008  0.1665444E+04  0.7818608E-02  0.8800864E-01
         -2   -1    0    0    0  501 -0.00000000000E+00  0.00000000000E+00  0.14915044247E+04  0.14915044247E+04  0.25500000000E-02 0.  1.
          2   -1    0    0  501    0  0.00000000000E+00 -0.00000000000E+00 -0.36400832319E+04  0.36400832319E+04  0.25500000000E-02 0. -1.
    8880023    1    1    2    0    0  0.11334066641E+04 -0.10272692589E+04 -0.29576982753E+04  0.33943603360E+04  0.65864270000E+03 0.  0.
    8880022    1    1    2    0    0 -0.11334066641E+04  0.10272692589E+04  0.80911946817E+03  0.17372273206E+04  0.15294330000E+03 0.  0.
<mgrwt>
<rscale>  0 0.16324391E+04</rscale>
<asrwt>0</asrwt>
<pdfrwt beam="1">  1        2 0.56001280E+00 0.16654438E+04</pdfrwt>
<pdfrwt beam="2">  1       -2 0.22946222E+00 0.16654438E+04</pdfrwt>
<totfact> 0.51580892E-02</totfact>
</mgrwt>
</event>
<event>
 4    1  0.6502538E-008  0.1002449E+04  0.7818608E-02  0.9378360E-01
          2   -1    0    0  501    0  0.00000000000E+00  0.00000000000E+00  0.26116411371E+04  0.26116411371E+04  0.25500000000E-02 0. -1.
         -2   -1    0    0    0  501 -0.00000000000E+00 -0.00000000000E+00 -0.64096769493E+03  0.64096769493E+03  0.25500000000E-02 0.  1.
    8880023    1    1    2    0    0 -0.52378152088E+03 -0.54474539235E+03  0.22252625154E+04  0.24406347725E+04  0.65864270000E+03 0.  0.
    8880022    1    1    2    0    0  0.52378152088E+03  0.54474539235E+03 -0.25458907323E+03  0.81197405952E+03  0.15294330000E+03 0.  0.
<mgrwt>
<rscale>  0 0.93878162E+03</rscale>
<asrwt>0</asrwt>
<pdfrwt beam="1">  1        2 0.40179095E+00 0.10024494E+04</pdfrwt>
<pdfrwt beam="2">  1       -2 0.98610414E-01 0.10024494E+04</pdfrwt>
<totfact> 0.25846946E+00</totfact>
</mgrwt>
</event>
<event>
 4    1  0.6502538E-008  0.7587844E+03  0.7818608E-02  0.9808265E-01
          2   -1    0    0  501    0  0.00000000000E+00  0.00000000000E+00  0.56503831574E+03  0.56503831575E+03  0.25500000000E-02 0. -1.
         -2   -1    0    0    0  501 -0.00000000000E+00 -0.00000000000E+00 -0.10511543688E+04  0.10511543688E+04  0.25500000000E-02 0.  1.
    8880023    1    1    2    0    0  0.37002777878E+03 -0.70872792497E+02  0.22983848983E+03  0.79283002431E+03  0.65864270000E+03 0. -1.
    8880022    1    1    2    0    0 -0.37002777878E+03  0.70872792497E+02 -0.71595454291E+03  0.82336266026E+03  0.15294330000E+03 0.  0.
<mgrwt>
<rscale>  0 0.64920885E+03</rscale>
<asrwt>0</asrwt>
<pdfrwt beam="1">  1        2 0.86928972E-01 0.75878437E+03</pdfrwt>
<pdfrwt beam="2">  1       -2 0.16171606E+00 0.75878437E+03</pdfrwt>
<totfact> 0.13228785E+01</totfact>
</mgrwt>
</event>
<event>
 4    1  0.6502538E-008  0.1040563E+04  0.7818608E-02  0.9330313E-01
          2   -1    0    0  501    0  0.00000000000E+00  0.00000000000E+00  0.28281078919E+04  0.28281078919E+04  0.25500000000E-02 0. -1.
         -2   -1    0    0    0  501 -0.00000000000E+00 -0.00000000000E+00 -0.77570307963E+03  0.77570307963E+03  0.25500000000E-02 0.  1.
    8880023    1    1    2    0    0 -0.58618476638E+03  0.55258393197E+03  0.24724623916E+04  0.26825066759E+04  0.65864270000E+03 0. -1.
    8880022    1    1    2    0    0  0.58618476638E+03 -0.55258393197E+03 -0.42005757931E+03  0.92130429564E+03  0.15294330000E+03 0.  0.
<mgrwt>
<rscale>  0 0.98039489E+03</rscale>
<asrwt>0</asrwt>
<pdfrwt beam="1">  1        2 0.43509352E+00 0.10405632E+04</pdfrwt>
<pdfrwt beam="2">  1       -2 0.11933894E+00 0.10405632E+04</pdfrwt>
<totfact> 0.12059796E+00</totfact>
</mgrwt>
</event>
<event>
 4    1  0.6502538E-008  0.7935389E+03  0.7818608E-02  0.9724944E-01
         -2   -1    0    0    0  501 -0.00000000000E+00  0.00000000000E+00  0.11933801706E+04  0.11933801706E+04  0.25500000000E-02 0.  1.
          2   -1    0    0  501    0  0.00000000000E+00 -0.00000000000E+00 -0.17274595576E+04  0.17274595576E+04  0.25500000000E-02 0. -1.
    8880023    1    1    2    0    0  0.18542700916E+03  0.40188389385E+03 -0.15837611509E+04  0.17714410600E+04  0.65864270000E+03 0.  0.
    8880022    1    1    2    0    0 -0.18542700916E+03 -0.40188389385E+03  0.10496817639E+04  0.11493986681E+04  0.15294330000E+03 0.  0.
<mgrwt>
<rscale>  0 0.69550846E+03</rscale>
<asrwt>0</asrwt>
<pdfrwt beam="1">  1        2 0.26576301E+00 0.79353894E+03</pdfrwt>
<pdfrwt beam="2">  1       -2 0.18359695E+00 0.79353894E+03</pdfrwt>
<totfact> 0.16652099E+00</totfact>
</mgrwt>
</event>
<event>
 4    1  0.6502538E-008  0.6977263E+03  0.7818608E-02  0.1000677E+00
         -2   -1    0    0    0  501 -0.00000000000E+00  0.00000000000E+00  0.24391150130E+03  0.24391150132E+03  0.25500000000E-02 0.  1.
          2   -1    0    0  501    0  0.00000000000E+00 -0.00000000000E+00 -0.32179196464E+04  0.32179196464E+04  0.25500000000E-02 0. -1.
    8880023    1    1    2    0    0 -0.22538359435E+03 -0.47053547954E+02 -0.30857784290E+04  0.31636767408E+04  0.65864270000E+03 0. -1.
    8880022    1    1    2    0    0  0.22538359435E+03  0.47053547954E+02  0.11177028394E+03  0.29815440691E+03  0.15294330000E+03 0.  0.
<mgrwt>
<rscale>  0 0.55354502E+03</rscale>
<asrwt>0</asrwt>
<pdfrwt beam="1">  1        2 0.49506453E+00 0.69772631E+03</pdfrwt>
<pdfrwt beam="2">  1       -2 0.37524849E-01 0.69772631E+03</pdfrwt>
<totfact> 0.91444643E+00</totfact>
</mgrwt>
</event>
<event>
 4    1  0.6502538E-008  0.8568145E+03  0.7818608E-02  0.9599255E-01
         -2   -1    0    0    0  501 -0.00000000000E+00  0.00000000000E+00  0.19116585782E+03  0.19116585783E+03  0.25500000000E-02 0.  1.
          2   -1    0    0  501    0  0.00000000000E+00 -0.00000000000E+00 -0.33573140048E+04  0.33573140048E+04  0.25500000000E-02 0. -1.
    8880023    1    1    2    0    0 -0.48696172849E+03 -0.25137445996E+03 -0.10398420151E+04  0.13473687197E+04  0.65864270000E+03 0.  0.
    8880022    1    1    2    0    0  0.48696172849E+03  0.25137445996E+03 -0.21263061319E+04  0.22011111430E+04  0.15294330000E+03 0.  0.
<mgrwt>
<rscale>  0 0.77345496E+03</rscale>
<asrwt>0</asrwt>
<pdfrwt beam="1">  1        2 0.51650980E+00 0.85681448E+03</pdfrwt>
<pdfrwt beam="2">  1       -2 0.29410134E-01 0.85681448E+03</pdfrwt>
<totfact> 0.11431040E+01</totfact>
</mgrwt>
</event>
<event>
 4    1  0.6502538E-008  0.1125973E+04  0.7818608E-02  0.9232674E-01
          2   -1    0    0  501    0  0.00000000000E+00  0.00000000000E+00  0.25036575718E+04  0.25036575718E+04  0.25500000000E-02 0. -1.
         -2   -1    0    0    0  501 -0.00000000000E+00 -0.00000000000E+00 -0.57160639611E+03  0.57160639612E+03  0.25500000000E-02 0.  1.
    8880023    1    1    2    0    0  0.10190334414E+03  0.90753604810E+03  0.18232875782E+04  0.21429404493E+04  0.65864270000E+03 0.  0.
    8880022    1    1    2    0    0 -0.10190334414E+03 -0.90753604810E+03  0.10876359743E+03  0.93232351858E+03  0.15294330000E+03 0.  0.
<mgrwt>
<rscale>  0 0.10722447E+04</rscale>
<asrwt>0</asrwt>
<pdfrwt beam="1">  1        2 0.38517808E+00 0.11259734E+04</pdfrwt>
<pdfrwt beam="2">  1       -2 0.87939447E-01 0.11259734E+04</pdfrwt>
<totfact> 0.38369761E+00</totfact>
</mgrwt>
</event>
<event>
 4    1  0.6502538E-008  0.9879326E+03  0.7818608E-02  0.9397519E-01
          2   -1    0    0  501    0  0.00000000000E+00  0.00000000000E+00  0.13219240700E+04  0.13219240700E+04  0.25500000000E-02 0. -1.
         -2   -1    0    0    0  501 -0.00000000000E+00 -0.00000000000E+00 -0.88352507857E+03  0.88352507858E+03  0.25500000000E-02 0.  1.
    8880023    1    1    2    0    0 -0.16385863626E+02  0.73616033899E+03  0.88874429191E+03  0.13288631095E+04  0.65864270000E+03 0. -1.
    8880022    1    1    2    0    0  0.16385863626E+02 -0.73616033899E+03 -0.45034530045E+03  0.87658603907E+03  0.15294330000E+03 0.  0.
<mgrwt>
<rscale>  0 0.92280173E+03</rscale>
<asrwt>0</asrwt>
<pdfrwt beam="1">  1        2 0.20337293E+00 0.98793256E+03</pdfrwt>
<pdfrwt beam="2">  1       -2 0.13592693E+00 0.98793256E+03</pdfrwt>
<totfact> 0.61822077E+00</totfact>
</mgrwt>
</event>
<event>
 4    1  0.6502538E-008  0.9139012E+03  0.7818608E-02  0.9504074E-01
         -2   -1    0    0    0  501 -0.00000000000E+00  0.00000000000E+00  0.13726637958E+04  0.13726637958E+04  0.25500000000E-02 0.  1.
          2   -1    0    0  501    0  0.00000000000E+00 -0.00000000000E+00 -0.14113424436E+04  0.14113424436E+04  0.25500000000E-02 0. -1.
    8880023    1    1    2    0    0  0.27874359590E+03 -0.56895270673E+03 -0.11662170794E+04  0.14816469409E+04  0.65864270000E+03 0. -1.
    8880022    1    1    2    0    0 -0.27874359590E+03  0.56895270673E+03  0.11275384316E+04  0.13023592986E+04  0.15294330000E+03 0.  0.
<mgrwt>
<rscale>  0 0.83984103E+03</rscale>
<asrwt>0</asrwt>
<pdfrwt beam="1">  1        2 0.21712961E+00 0.91390119E+03</pdfrwt>
<pdfrwt beam="2">  1       -2 0.21117905E+00 0.91390119E+03</pdfrwt>
<totfact> 0.16133218E+00</totfact>
</mgrwt>
</event>
<event>
 4    1  0.6502538E-008  0.9048456E+03  0.7818608E-02  0.9518297E-01
         -2   -1    0    0    0  501 -0.00000000000E+00  0.00000000000E+00  0.70558880373E+03  0.70558880373E+03  0.25500000000E-02 0.  1.
          2   -1    0    0  501    0  0.00000000000E+00 -0.00000000000E+00 -0.24836011620E+04  0.24836011620E+04  0.25500000000E-02 0. -1.
    8880023    1    1    2    0    0 -0.50471753483E+03 -0.36082628327E+03 -0.22299373610E+04  0.24065257607E+04  0.65864270000E+03 0. -1.
    8880022    1    1    2    0    0  0.50471753483E+03  0.36082628327E+03  0.45192500276E+03  0.78266420501E+03  0.15294330000E+03 0.  0.
<mgrwt>
<rscale>  0 0.82948185E+03</rscale>
<asrwt>0</asrwt>
<pdfrwt beam="1">  1        2 0.38209248E+00 0.90484562E+03</pdfrwt>
<pdfrwt beam="2">  1       -2 0.10855212E+00 0.90484562E+03</pdfrwt>
<totfact> 0.24673078E+00</totfact>
</mgrwt>
</event>
<event>
 4    1  0.6502538E-008  0.1107560E+04  0.7818608E-02  0.9252685E-01
          2   -1    0    0  501    0  0.00000000000E+00  0.00000000000E+00  0.31932039904E+04  0.31932039904E+04  0.25500000000E-02 0. -1.
         -2   -1    0    0    0  501 -0.00000000000E+00 -0.00000000000E+00 -0.59648591751E+03  0.59648591751E+03  0.25500000000E-02 0.  1.
    8880023    1    1    2    0    0  0.72800128615E+03 -0.51273151691E+03  0.26626441195E+04  0.28838105684E+04  0.65864270000E+03 0.  0.
    8880022    1    1    2    0    0 -0.72800128615E+03  0.51273151691E+03 -0.65926046621E+02  0.90587933949E+03  0.15294330000E+03 0.  0.
<mgrwt>
<rscale>  0 0.10525793E+04</rscale>
<asrwt>0</asrwt>
<pdfrwt beam="1">  1        2 0.49126215E+00 0.11075602E+04</pdfrwt>
<pdfrwt beam="2">  1       -2 0.91767064E-01 0.11075602E+04</pdfrwt>
<totfact> 0.13345379E+00</totfact>
</mgrwt>
</event>
<event>
 4    1  0.6502538E-008  0.7916086E+03  0.7818608E-02  0.9729243E-01
         -2   -1    0    0    0  501 -0.00000000000E+00  0.00000000000E+00  0.88273929850E+03  0.88273929851E+03  0.25500000000E-02 0.  1.
          2   -1    0    0  501    0  0.00000000000E+00 -0.00000000000E+00 -0.19436665173E+04  0.19436665173E+04  0.25500000000E-02 0. -1.
    8880023    1    1    2    0    0 -0.72396111251E+02 -0.43311974964E+03 -0.17925245294E+04  0.19595377795E+04  0.65864270000E+03 0. -1.
    8880022    1    1    2    0    0  0.72396111251E+02  0.43311974964E+03  0.73159731062E+03  0.86686803631E+03  0.15294330000E+03 0.  0.
<mgrwt>
<rscale>  0 0.69302076E+03</rscale>
<asrwt>0</asrwt>
<pdfrwt beam="1">  1        2 0.29902562E+00 0.79160857E+03</pdfrwt>
<pdfrwt beam="2">  1       -2 0.13580605E+00 0.79160857E+03</pdfrwt>
<totfact> 0.28692699E+00</totfact>
</mgrwt>
</event>
<event>
 4    1  0.7034797E-008  0.1024019E+04  0.7818608E-02  0.9350786E-01
         -2   -1    0    0    0  501 -0.00000000000E+00  0.00000000000E+00  0.15802377847E+04  0.15802377847E+04  0.25500000000E-02 0.  1.
          2   -1    0    0  501    0  0.00000000000E+00 -0.00000000000E+00 -0.24467642832E+04  0.24467642832E+04  0.25500000000E-02 0. -1.
    8880023    1    1    2    0    0  0.18035394858E+03  0.76307140716E+03 -0.22259647488E+04  0.24502111722E+04  0.65864270000E+03 0.  0.
    8880022    1    1    2    0    0 -0.18035394858E+03 -0.76307140716E+03  0.13594382503E+04  0.15767908957E+04  0.15294330000E+03 0.  0.
<mgrwt>
<rscale>  0 0.96238866E+03</rscale>
<asrwt>0</asrwt>
<pdfrwt beam="1">  1        2 0.37642527E+00 0.10240194E+04</pdfrwt>
<pdfrwt beam="2">  1       -2 0.24311351E+00 0.10240194E+04</pdfrwt>
<totfact> 0.26615900E-01</totfact>
</mgrwt>
</event>
<event>
 4    1  0.6502538E-008  0.7956894E+03  0.7818608E-02  0.9720195E-01
         -2   -1    0    0    0  501 -0.00000000000E+00  0.00000000000E+00  0.67235453390E+03  0.67235453390E+03  0.25500000000E-02 0.  1.
          2   -1    0    0  501    0  0.00000000000E+00 -0.00000000000E+00 -0.85332446182E+03  0.85332446182E+03  0.25500000000E-02 0. -1.
    8880023    1    1    2    0    0 -0.44638838193E+03  0.69895295917E+01 -0.51473115945E+03  0.94766545459E+03  0.65864270000E+03 0. -1.
    8880022    1    1    2    0    0  0.44638838193E+03 -0.69895295917E+01  0.33376123153E+03  0.57801354114E+03  0.15294330000E+03 0.  0.
<mgrwt>
<rscale>  0 0.69827013E+03</rscale>
<asrwt>0</asrwt>
<pdfrwt beam="1">  1        2 0.13128069E+00 0.79568942E+03</pdfrwt>
<pdfrwt beam="2">  1       -2 0.10343916E+00 0.79568942E+03</pdfrwt>
<totfact> 0.24309201E+01</totfact>
</mgrwt>
</event>
<event>
 4    1  0.6502538E-008  0.9072217E+03  0.7818608E-02  0.9514536E-01
          2   -1    0    0  501    0  0.00000000000E+00  0.00000000000E+00  0.14828831306E+04  0.14828831306E+04  0.25500000000E-02 0. -1.
         -2   -1    0    0    0  501 -0.00000000000E+00 -0.00000000000E+00 -0.58457748726E+03  0.58457748727E+03  0.25500000000E-02 0.  1.
    8880023    1    1    2    0    0  0.62386665323E+03  0.56029371304E+01  0.10697149526E+04  0.14026194352E+04  0.65864270000E+03 0.  0.
    8880022    1    1    2    0    0 -0.62386665323E+03 -0.56029371304E+01 -0.17140930922E+03  0.66484118271E+03  0.15294330000E+03 0.  0.
<mgrwt>
<rscale>  0 0.83220538E+03</rscale>
<asrwt>0</asrwt>
<pdfrwt beam="1">  1        2 0.22813586E+00 0.90722169E+03</pdfrwt>
<pdfrwt beam="2">  1       -2 0.89935000E-01 0.90722169E+03</pdfrwt>
<totfact> 0.13815888E+01</totfact>
</mgrwt>
</event>
<event>
 4    1  0.6502538E-008  0.7466077E+03  0.7818608E-02  0.9841101E-01
         -2   -1    0    0    0  501 -0.00000000000E+00  0.00000000000E+00  0.54141898546E+03  0.54141898547E+03  0.25500000000E-02 0.  1.
          2   -1    0    0  501    0  0.00000000000E+00 -0.00000000000E+00 -0.32919602766E+04  0.32919602766E+04  0.25500000000E-02 0. -1.
    8880023    1    1    2    0    0 -0.19522862488E+02 -0.35104368958E+03 -0.31748774284E+04  0.32614827465E+04  0.65864270000E+03 0.  0.
    8880022    1    1    2    0    0  0.19522862488E+02  0.35104368958E+03  0.42433613723E+03  0.57189651558E+03  0.15294330000E+03 0.  0.
<mgrwt>
<rscale>  0 0.63202703E+03</rscale>
<asrwt>0</asrwt>
<pdfrwt beam="1">  1        2 0.50645541E+00 0.74660768E+03</pdfrwt>
<pdfrwt beam="2">  1       -2 0.83295231E-01 0.74660768E+03</pdfrwt>
<totfact> 0.15366001E+00</totfact>
</mgrwt>
</event>
<event>
 4    1  0.6502538E-008  0.7200649E+03  0.7818608E-02  0.9922366E-01
         -2   -1    0    0    0  501 -0.00000000000E+00  0.00000000000E+00  0.80671720988E+03  0.80671720988E+03  0.25500000000E-02 0.  1.
          2   -1    0    0  501    0  0.00000000000E+00 -0.00000000000E+00 -0.17373336815E+04  0.17373336815E+04  0.25500000000E-02 0. -1.
    8880023    1    1    2    0    0  0.13261299440E+03  0.25903107822E+03 -0.16241126963E+04  0.17765797371E+04  0.65864270000E+03 0. -1.
    8880022    1    1    2    0    0 -0.13261299440E+03 -0.25903107822E+03  0.69349622475E+03  0.76747115420E+03  0.15294330000E+03 0.  0.
<mgrwt>
<rscale>  0 0.59189461E+03</rscale>
<asrwt>0</asrwt>
<pdfrwt beam="1">  1        2 0.26728210E+00 0.72006494E+03</pdfrwt>
<pdfrwt beam="2">  1       -2 0.12411034E+00 0.72006494E+03</pdfrwt>
<totfact> 0.47244672E+00</totfact>
</mgrwt>
</event>
<event>
 4    1  0.6502538E-008  0.9680034E+03  0.7818608E-02  0.9424671E-01
         -2   -1    0    0    0  501 -0.00000000000E+00  0.00000000000E+00  0.41705068881E+03  0.41705068881E+03  0.25500000000E-02 0.  1.
          2   -1    0    0  501    0  0.00000000000E+00 -0.00000000000E+00 -0.21632042312E+04  0.21632042312E+04  0.25500000000E-02 0. -1.
    8880023    1    1    2    0    0  0.41802596616E+03  0.57312710173E+03 -0.15518573870E+04  0.18290139253E+04  0.65864270000E+03 0. -1.
    8880022    1    1    2    0    0 -0.41802596616E+03 -0.57312710173E+03 -0.19429615540E+03  0.75124099472E+03  0.15294330000E+03 0.  0.
<mgrwt>
<rscale>  0 0.90072872E+03</rscale>
<asrwt>0</asrwt>
<pdfrwt beam="1">  1        2 0.33280065E+00 0.96800340E+03</pdfrwt>
<pdfrwt beam="2">  1       -2 0.64161646E-01 0.96800340E+03</pdfrwt>
<totfact> 0.12272325E+01</totfact>
</mgrwt>
</event>
<event>
 4    1  0.6502538E-008  0.1237800E+04  0.7818608E-02  0.9121226E-01
         -2   -1    0    0    0  501 -0.00000000000E+00  0.00000000000E+00  0.26224637128E+04  0.26224637128E+04  0.25500000000E-02 0.  1.
          2   -1    0    0  501    0  0.00000000000E+00 -0.00000000000E+00 -0.76754993067E+03  0.76754993067E+03  0.25500000000E-02 0. -1.
    8880023    1    1    2    0    0  0.43563818618E+03  0.95318270165E+03 -0.18505531325E+02  0.12379380247E+04  0.65864270000E+03 0.  0.
    8880022    1    1    2    0    0 -0.43563818618E+03 -0.95318270165E+03  0.18734193135E+04  0.21520756188E+04  0.15294330000E+03 0.  0.
<mgrwt>
<rscale>  0 0.11904846E+04</rscale>
<asrwt>0</asrwt>
<pdfrwt beam="1">  1        2 0.11808461E+00 0.12377997E+04</pdfrwt>
<pdfrwt beam="2">  1       -2 0.40345594E+00 0.12377997E+04</pdfrwt>
<totfact> 0.25227521E-01</totfact>
</mgrwt>
</event>
<event>
 4    1  0.6502538E-008  0.1243607E+04  0.7818608E-02  0.9115856E-01
          2   -1    0    0  501    0  0.00000000000E+00  0.00000000000E+00  0.47905480144E+04  0.47905480144E+04  0.25500000000E-02 0. -1.
         -2   -1    0    0    0  501 -0.00000000000E+00 -0.00000000000E+00 -0.36453952406E+03  0.36453952407E+03  0.25500000000E-02 0.  1.
    8880023    1    1    2    0    0  0.24016792582E+03  0.10271652501E+04  0.35934989321E+04  0.38026035640E+04  0.65864270000E+03 0.  0.
    8880022    1    1    2    0    0 -0.24016792582E+03 -0.10271652501E+04  0.83250955829E+03  0.13524839745E+04  0.15294330000E+03 0.  0.
<mgrwt>
<rscale>  0 0.11965793E+04</rscale>
<asrwt>0</asrwt>
<pdfrwt beam="1">  1        2 0.73700743E+00 0.12436074E+04</pdfrwt>
<pdfrwt beam="2">  1       -2 0.56083000E-01 0.12436074E+04</pdfrwt>
<totfact> 0.18944485E-01</totfact>
</mgrwt>
</event>
<event>
 4    1  0.6502538E-008  0.7525344E+03  0.7818608E-02  0.9824833E-01
          2   -1    0    0  501    0  0.00000000000E+00  0.00000000000E+00  0.25473154485E+04  0.25473154485E+04  0.25500000000E-02 0. -1.
         -2   -1    0    0    0  501 -0.00000000000E+00 -0.00000000000E+00 -0.15398376603E+03  0.15398376605E+03  0.25500000000E-02 0.  1.
    8880023    1    1    2    0    0 -0.35520672044E+02 -0.36226521681E+03  0.20290021404E+04  0.21640604653E+04  0.65864270000E+03 0. -1.
    8880022    1    1    2    0    0  0.35520672044E+02  0.36226521681E+03  0.36432954206E+03  0.53723874924E+03  0.15294330000E+03 0.  0.
<mgrwt>
<rscale>  0 0.64046715E+03</rscale>
<asrwt>0</asrwt>
<pdfrwt beam="1">  1        2 0.39189467E+00 0.75253439E+03</pdfrwt>
<pdfrwt beam="2">  1       -2 0.23689811E-01 0.75253439E+03</pdfrwt>
<totfact> 0.53744903E+01</totfact>
</mgrwt>
</event>
<event>
 4    1  0.6502538E-008  0.6790222E+03  0.7818608E-02  0.1009882E+00
         -2   -1    0    0    0  501 -0.00000000000E+00  0.00000000000E+00  0.74010163461E+03  0.74010163461E+03  0.25500000000E-02 0.  1.
          2   -1    0    0  501    0  0.00000000000E+00 -0.00000000000E+00 -0.29641031505E+03  0.29641031506E+03  0.25500000000E-02 0. -1.
    8880023    1    1    2    0    0 -0.88655798394E+02 -0.13928788641E+03  0.20693859542E+03  0.70985544615E+03  0.65864270000E+03 0.  0.
    8880022    1    1    2    0    0  0.88655798394E+02  0.13928788641E+03  0.23675272414E+03  0.32665650352E+03  0.15294330000E+03 0. -1.
<mgrwt>
<rscale>  0 0.51521468E+03</rscale>
<asrwt>0</asrwt>
<pdfrwt beam="1">  1        2 0.45601588E-01 0.67902222E+03</pdfrwt>
<pdfrwt beam="2">  1       -2 0.11386179E+00 0.67902222E+03</pdfrwt>
<totfact> 0.68166187E+01</totfact>
</mgrwt>
</event>
<event>
 4    1  0.6502538E-008  0.9263873E+03  0.7818608E-02  0.9484934E-01
         -2   -1    0    0    0  501 -0.00000000000E+00  0.00000000000E+00  0.48302691594E+03  0.48302691594E+03  0.25500000000E-02 0.  1.
          2   -1    0    0  501    0  0.00000000000E+00 -0.00000000000E+00 -0.21649156497E+04  0.21649156497E+04  0.25500000000E-02 0. -1.
    8880023    1    1    2    0    0  0.86150029419E+02  0.64572549567E+03 -0.17451603507E+04  0.19757980917E+04  0.65864270000E+03 0.  0.
    8880022    1    1    2    0    0 -0.86150029419E+02 -0.64572549567E+03  0.63271616915E+02  0.67214447394E+03  0.15294330000E+03 0.  0.
<mgrwt>
<rscale>  0 0.85403745E+03</rscale>
<asrwt>0</asrwt>
<pdfrwt beam="1">  1        2 0.33306394E+00 0.92638731E+03</pdfrwt>
<pdfrwt beam="2">  1       -2 0.74311835E-01 0.92638731E+03</pdfrwt>
<totfact> 0.89305689E+00</totfact>
</mgrwt>
</event>
<event>
 4    1  0.6502538E-008  0.7307096E+03  0.7818608E-02  0.9887886E-01
          2   -1    0    0  501    0  0.00000000000E+00  0.00000000000E+00  0.18801024302E+04  0.18801024302E+04  0.25500000000E-02 0. -1.
         -2   -1    0    0    0  501 -0.00000000000E+00 -0.00000000000E+00 -0.97551846417E+03  0.97551846418E+03  0.25500000000E-02 0.  1.
    8880023    1    1    2    0    0  0.31613647543E+03 -0.13568043579E+02  0.17736003061E+04  0.19182269456E+04  0.65864270000E+03 0. -1.
    8880022    1    1    2    0    0 -0.31613647543E+03  0.13568043579E+02 -0.86901634005E+03  0.93739394877E+03  0.15294330000E+03 0.  0.
<mgrwt>
<rscale>  0 0.60852008E+03</rscale>
<asrwt>0</asrwt>
<pdfrwt beam="1">  1        2 0.28924653E+00 0.73070963E+03</pdfrwt>
<pdfrwt beam="2">  1       -2 0.15007976E+00 0.73070963E+03</pdfrwt>
<totfact> 0.24203371E+00</totfact>
</mgrwt>
</event>
<event>
 4    1  0.6502538E-008  0.1173047E+04  0.7818608E-02  0.9183778E-01
          2   -1    0    0  501    0  0.00000000000E+00  0.00000000000E+00  0.70929110525E+03  0.70929110526E+03  0.25500000000E-02 0. -1.
         -2   -1    0    0    0  501 -0.00000000000E+00 -0.00000000000E+00 -0.21936993745E+04  0.21936993745E+04  0.25500000000E-02 0.  1.
    8880023    1    1    2    0    0  0.85884976677E+03  0.45233521360E+03 -0.15196074404E+04  0.19196997282E+04  0.65864270000E+03 0.  0.
    8880022    1    1    2    0    0 -0.85884976677E+03 -0.45233521360E+03  0.35199171184E+02  0.98329075151E+03  0.15294330000E+03 0.  0.
<mgrwt>
<rscale>  0 0.11222447E+04</rscale>
<asrwt>0</asrwt>
<pdfrwt beam="1">  1        2 0.10912171E+00 0.11730474E+04</pdfrwt>
<pdfrwt beam="2">  1       -2 0.33749221E+00 0.11730474E+04</pdfrwt>
<totfact> 0.74260404E-01</totfact>
</mgrwt>
</event>
<event>
 4    1  0.6502538E-008  0.8207569E+03  0.7818608E-02  0.9667592E-01
         -2   -1    0    0    0  501 -0.00000000000E+00  0.00000000000E+00  0.38764565949E+03  0.38764565950E+03  0.25500000000E-02 0.  1.
          2   -1    0    0  501    0  0.00000000000E+00 -0.00000000000E+00 -0.20373503212E+04  0.20373503212E+04  0.25500000000E-02 0. -1.
    8880023    1    1    2    0    0 -0.14741705827E+03 -0.46701163162E+03 -0.17213063873E+04  0.19069707754E+04  0.65864270000E+03 0.  0.
    8880022    1    1    2    0    0  0.14741705827E+03  0.46701163162E+03  0.71601725620E+02  0.51802520524E+03  0.15294330000E+03 0.  0.
<mgrwt>
<rscale>  0 0.72979594E+03</rscale>
<asrwt>0</asrwt>
<pdfrwt beam="1">  1        2 0.31343850E+00 0.82075688E+03</pdfrwt>
<pdfrwt beam="2">  1       -2 0.59637795E-01 0.82075688E+03</pdfrwt>
<totfact> 0.17131274E+01</totfact>
</mgrwt>
</event>
<event>
 4    1  0.6502538E-008  0.6607796E+03  0.7818608E-02  0.1023372E+00
         -2   -1    0    0    0  501 -0.00000000000E+00  0.00000000000E+00  0.16058409985E+03  0.16058409987E+03  0.25500000000E-02 0.  1.
          2   -1    0    0  501    0  0.00000000000E+00 -0.00000000000E+00 -0.27604788458E+04  0.27604788458E+04  0.25500000000E-02 0. -1.
    8880023    1    1    2    0    0 -0.50530891076E+02  0.16311440046E+02 -0.26656443245E+04  0.27463228698E+04  0.65864270000E+03 0. -1.
    8880022    1    1    2    0    0  0.50530891076E+02 -0.16311440046E+02  0.65749578546E+02  0.17474007589E+03  0.15294330000E+03 0.  0.
<mgrwt>
<rscale>  0 0.46489308E+03</rscale>
<asrwt>0</asrwt>
<pdfrwt beam="1">  1        2 0.42468902E+00 0.66077957E+03</pdfrwt>
<pdfrwt beam="2">  1       -2 0.24705248E-01 0.66077957E+03</pdfrwt>
<totfact> 0.38060400E+01</totfact>
</mgrwt>
</event>
<event>
 4    1  0.6502538E-008  0.8730269E+03  0.7818608E-02  0.9570798E-01
          2   -1    0    0  501    0  0.00000000000E+00  0.00000000000E+00  0.15414036394E+04  0.15414036394E+04  0.25500000000E-02 0. -1.
         -2   -1    0    0    0  501 -0.00000000000E+00 -0.00000000000E+00 -0.51993378969E+03  0.51993378969E+03  0.25500000000E-02 0.  1.
    8880023    1    1    2    0    0 -0.48591449612E+03 -0.30373152959E+03  0.11604521325E+04  0.14521794303E+04  0.65864270000E+03 0.  0.
    8880022    1    1    2    0    0  0.48591449612E+03  0.30373152959E+03 -0.13898228278E+03  0.60915799884E+03  0.15294330000E+03 0.  0.
<mgrwt>
<rscale>  0 0.79259462E+03</rscale>
<asrwt>0</asrwt>
<pdfrwt beam="1">  1        2 0.23713902E+00 0.87302689E+03</pdfrwt>
<pdfrwt beam="2">  1       -2 0.79989813E-01 0.87302689E+03</pdfrwt>
<totfact> 0.16803226E+01</totfact>
</mgrwt>
</event>
<event>
 4    1  0.6502538E-008  0.2042639E+04  0.7818608E-02  0.8599005E-01
          2   -1    0    0  501    0  0.00000000000E+00  0.00000000000E+00  0.22118654738E+04  0.22118654738E+04  0.25500000000E-02 0. -1.
         -2   -1    0    0    0  501 -0.00000000000E+00 -0.00000000000E+00 -0.29482846770E+04  0.29482846770E+04  0.25500000000E-02 0.  1.
    8880023    1    1    2    0    0 -0.58938020416E+03 -0.18415198764E+04  0.12411722508E+04  0.23901638527E+04  0.65864270000E+03 0.  0.
    8880022    1    1    2    0    0  0.58938020416E+03  0.18415198764E+04 -0.19775914540E+04  0.27699862982E+04  0.15294330000E+03 0.  0.
<mgrwt>
<rscale>  0 0.20163711E+04</rscale>
<asrwt>0</asrwt>
<pdfrwt beam="1">  1        2 0.34028699E+00 0.20426391E+04</pdfrwt>
<pdfrwt beam="2">  1       -2 0.45358226E+00 0.20426391E+04</pdfrwt>
<totfact> 0.14641592E-02</totfact>
</mgrwt>
</event>
<event>
 4    1  0.6502538E-008  0.8498556E+03  0.7818608E-02  0.9611869E-01
          2   -1    0    0  501    0  0.00000000000E+00  0.00000000000E+00  0.12999054382E+04  0.12999054382E+04  0.25500000000E-02 0. -1.
         -2   -1    0    0    0  501 -0.00000000000E+00 -0.00000000000E+00 -0.57841334124E+03  0.57841334124E+03  0.25500000000E-02 0.  1.
    8880023    1    1    2    0    0  0.44612043151E+03 -0.29903329981E+03  0.95026067604E+03  0.12748528984E+04  0.65864270000E+03 0. -1.
    8880022    1    1    2    0    0 -0.44612043151E+03  0.29903329981E+03 -0.22876857909E+03  0.60346588106E+03  0.15294330000E+03 0.  0.
<mgrwt>
<rscale>  0 0.76515539E+03</rscale>
<asrwt>0</asrwt>
<pdfrwt beam="1">  1        2 0.19998545E+00 0.84985561E+03</pdfrwt>
<pdfrwt beam="2">  1       -2 0.88986670E-01 0.84985561E+03</pdfrwt>
<totfact> 0.18106640E+01</totfact>
</mgrwt>
</event>
<event>
 4    1  0.6502538E-008  0.6996656E+03  0.7818608E-02  0.9998591E-01
          2   -1    0    0  501    0  0.00000000000E+00  0.00000000000E+00  0.57755586382E+03  0.57755586383E+03  0.25500000000E-02 0. -1.
         -2   -1    0    0    0  501 -0.00000000000E+00 -0.00000000000E+00 -0.55473229499E+03  0.55473229500E+03  0.25500000000E-02 0.  1.
    8880023    1    1    2    0    0  0.23287149297E+03  0.38635084400E+02  0.27765609293E+03  0.75274491974E+03  0.65864270000E+03 0.  0.
    8880022    1    1    2    0    0 -0.23287149297E+03 -0.38635084400E+02 -0.25483252410E+03  0.37954323909E+03  0.15294330000E+03 0.  0.
<mgrwt>
<rscale>  0 0.55712058E+03</rscale>
<asrwt>0</asrwt>
<pdfrwt beam="1">  1        2 0.88854748E-01 0.69966564E+03</pdfrwt>
<pdfrwt beam="2">  1       -2 0.85343430E-01 0.69966564E+03</pdfrwt>
<totfact> 0.62953417E+01</totfact>
</mgrwt>
</event>
<event>
 4    1  0.6502538E-008  0.9745915E+03  0.7818608E-02  0.9415582E-01
          2   -1    0    0  501    0  0.00000000000E+00  0.00000000000E+00  0.12052050695E+04  0.12052050695E+04  0.25500000000E-02 0. -1.
         -2   -1    0    0    0  501 -0.00000000000E+00 -0.00000000000E+00 -0.83736428112E+03  0.83736428112E+03  0.25500000000E-02 0.  1.
    8880023    1    1    2    0    0  0.65615588923E+03 -0.29236577997E+03  0.73574811608E+03  0.12211280837E+04  0.65864270000E+03 0. -1.
    8880022    1    1    2    0    0 -0.65615588923E+03  0.29236577997E+03 -0.36790732767E+03  0.82144126694E+03  0.15294330000E+03 0.  0.
<mgrwt>
<rscale>  0 0.90804385E+03</rscale>
<asrwt>0</asrwt>
<pdfrwt beam="1">  1        2 0.18541616E+00 0.97459146E+03</pdfrwt>
<pdfrwt beam="2">  1       -2 0.12882528E+00 0.97459146E+03</pdfrwt>
<totfact> 0.83125791E+00</totfact>
</mgrwt>
</event>
<event>
 4    1  0.6502538E-008  0.1287864E+04  0.7818608E-02  0.9076112E-01
          2   -1    0    0  501    0  0.00000000000E+00  0.00000000000E+00  0.22034104103E+04  0.22034104103E+04  0.25500000000E-02 0. -1.
         -2   -1    0    0    0  501 -0.00000000000E+00 -0.00000000000E+00 -0.12271108744E+04  0.12271108744E+04  0.25500000000E-02 0.  1.
    8880023    1    1    2    0    0  0.11007110696E+04 -0.11496958975E+03  0.16749566984E+04  0.21128353020E+04  0.65864270000E+03 0.  0.
    8880022    1    1    2    0    0 -0.11007110696E+04  0.11496958975E+03 -0.69865716247E+03  0.13176859827E+04  0.15294330000E+03 0.  0.
<mgrwt>
<rscale>  0 0.12429019E+04</rscale>
<asrwt>0</asrwt>
<pdfrwt beam="1">  1        2 0.33898621E+00 0.12878638E+04</pdfrwt>
<pdfrwt beam="2">  1       -2 0.18878629E+00 0.12878638E+04</pdfrwt>
<totfact> 0.78137975E-01</totfact>
</mgrwt>
</event>
<event>
 4    1  0.6502538E-008  0.7877278E+03  0.7818608E-02  0.9737988E-01
          2   -1    0    0  501    0  0.00000000000E+00  0.00000000000E+00  0.35956205018E+03  0.35956205019E+03  0.25500000000E-02 0. -1.
         -2   -1    0    0    0  501 -0.00000000000E+00 -0.00000000000E+00 -0.21046675813E+04  0.21046675813E+04  0.25500000000E-02 0.  1.
    8880023    1    1    2    0    0  0.40230612126E+03  0.15765356681E+03 -0.14653267163E+03  0.80124084547E+03  0.65864270000E+03 0. -1.
    8880022    1    1    2    0    0 -0.40230612126E+03 -0.15765356681E+03 -0.15985728595E+04  0.16629887861E+04  0.15294330000E+03 0.  0.
<mgrwt>
<rscale>  0 0.68799373E+03</rscale>
<asrwt>0</asrwt>
<pdfrwt beam="1">  1        2 0.55317240E-01 0.78772779E+03</pdfrwt>
<pdfrwt beam="2">  1       -2 0.32379501E+00 0.78772779E+03</pdfrwt>
<totfact> 0.21161388E+00</totfact>
</mgrwt>
</event>
<event>
 4    1  0.6502538E-008  0.7862160E+03  0.7818608E-02  0.9741433E-01
         -2   -1    0    0    0  501 -0.00000000000E+00  0.00000000000E+00  0.11707503717E+04  0.11707503717E+04  0.25500000000E-02 0.  1.
          2   -1    0    0  501    0  0.00000000000E+00 -0.00000000000E+00 -0.18551479457E+04  0.18551479457E+04  0.25500000000E-02 0. -1.
    8880023    1    1    2    0    0 -0.12611088262E+02 -0.42914615555E+03 -0.17217921427E+04  0.18928031729E+04  0.65864270000E+03 0. -1.
    8880022    1    1    2    0    0  0.12611088262E+02  0.42914615555E+03  0.10373945687E+04  0.11330951445E+04  0.15294330000E+03 0.  0.
<mgrwt>
<rscale>  0 0.68602582E+03</rscale>
<asrwt>0</asrwt>
<pdfrwt beam="1">  1        2 0.28540738E+00 0.78621604E+03</pdfrwt>
<pdfrwt beam="2">  1       -2 0.18011544E+00 0.78621604E+03</pdfrwt>
<totfact> 0.14997733E+00</totfact>
</mgrwt>
</event>
<event>
 4    1  0.6502538E-008  0.1260690E+04  0.7818608E-02  0.9100272E-01
          2   -1    0    0  501    0  0.00000000000E+00  0.00000000000E+00  0.18420392170E+04  0.18420392170E+04  0.25500000000E-02 0. -1.
         -2   -1    0    0    0  501 -0.00000000000E+00 -0.00000000000E+00 -0.10680322303E+04  0.10680322303E+04  0.25500000000E-02 0.  1.
    8880023    1    1    2    0    0 -0.10742087173E+04 -0.40053204251E+02  0.12030428872E+04  0.17425989275E+04  0.65864270000E+03 0.  0.
    8880022    1    1    2    0    0  0.10742087173E+04  0.40053204251E+02 -0.42903590048E+03  0.11674725197E+04  0.15294330000E+03 0.  0.
<mgrwt>
<rscale>  0 0.12144838E+04</rscale>
<asrwt>0</asrwt>
<pdfrwt beam="1">  1        2 0.28339065E+00 0.12606898E+04</pdfrwt>
<pdfrwt beam="2">  1       -2 0.16431265E+00 0.12606898E+04</pdfrwt>
<totfact> 0.18484780E+00</totfact>
</mgrwt>
</event>
<event>
 4    1  0.6502538E-008  0.1391696E+04  0.7818608E-02  0.8990162E-01
          2   -1    0    0  501    0  0.00000000000E+00  0.00000000000E+00  0.68432049469E+03  0.68432049469E+03  0.25500000000E-02 0. -1.
         -2   -1    0    0    0  501 -0.00000000000E+00 -0.00000000000E+00 -0.37651623350E+04  0.37651623350E+04  0.25500000000E-02 0.  1.
    8880023    1    1    2    0    0  0.45724581611E+03  0.11375126078E+04 -0.32466164184E+03  0.14290640493E+04  0.65864270000E+03 0. -1.
    8880022    1    1    2    0    0 -0.45724581611E+03 -0.11375126078E+04 -0.27561801985E+04  0.30204187803E+04  0.15294330000E+03 0.  0.
<mgrwt>
<rscale>  0 0.13508805E+04</rscale>
<asrwt>0</asrwt>
<pdfrwt beam="1">  1        2 0.10528008E+00 0.13916964E+04</pdfrwt>
<pdfrwt beam="2">  1       -2 0.57925573E+00 0.13916964E+04</pdfrwt>
<totfact> 0.24486604E-02</totfact>
</mgrwt>
</event>
<event>
 4    1  0.6502538E-008  0.1389112E+04  0.7818608E-02  0.8992189E-01
         -2   -1    0    0    0  501 -0.00000000000E+00  0.00000000000E+00  0.12056999956E+04  0.12056999956E+04  0.25500000000E-02 0.  1.
          2   -1    0    0  501    0  0.00000000000E+00 -0.00000000000E+00 -0.16425104199E+04  0.16425104199E+04  0.25500000000E-02 0. -1.
    8880023    1    1    2    0    0 -0.10026342779E+04 -0.70039048273E+03 -0.74698360842E+03  0.15772181336E+04  0.65864270000E+03 0.  0.
    8880022    1    1    2    0    0  0.10026342779E+04  0.70039048273E+03  0.31017318408E+03  0.12709922819E+04  0.15294330000E+03 0.  0.
<mgrwt>
<rscale>  0 0.13482032E+04</rscale>
<asrwt>0</asrwt>
<pdfrwt beam="1">  1        2 0.25269391E+00 0.13891121E+04</pdfrwt>
<pdfrwt beam="2">  1       -2 0.18549231E+00 0.13891121E+04</pdfrwt>
<totfact> 0.16708148E+00</totfact>
</mgrwt>
</event>
<event>
 4    1  0.6502538E-008  0.7093984E+03  0.7818608E-02  0.9960242E-01
         -2   -1    0    0    0  501 -0.00000000000E+00  0.00000000000E+00  0.64741124929E+03  0.64741124929E+03  0.25500000000E-02 0.  1.
          2   -1    0    0  501    0  0.00000000000E+00 -0.00000000000E+00 -0.16951538936E+04  0.16951538936E+04  0.25500000000E-02 0. -1.
    8880023    1    1    2    0    0 -0.13081478600E+03 -0.22874308294E+03 -0.15784974525E+04  0.17305780306E+04  0.65864270000E+03 0. -1.
    8880022    1    1    2    0    0  0.13081478600E+03  0.22874308294E+03  0.53075480816E+03  0.61198711231E+03  0.15294330000E+03 0.  0.
<mgrwt>
<rscale>  0 0.57428474E+03</rscale>
<asrwt>0</asrwt>
<pdfrwt beam="1">  1        2 0.26079291E+00 0.70939842E+03</pdfrwt>
<pdfrwt beam="2">  1       -2 0.99601731E-01 0.70939842E+03</pdfrwt>
<totfact> 0.85157652E+00</totfact>
</mgrwt>
</event>
<event>
 4    1  0.6502538E-008  0.7592433E+03  0.7818608E-02  0.9807071E-01
         -2   -1    0    0    0  501 -0.00000000000E+00  0.00000000000E+00  0.10620087860E+04  0.10620087860E+04  0.25500000000E-02 0.  1.
          2   -1    0    0  501    0  0.00000000000E+00 -0.00000000000E+00 -0.13468774338E+04  0.13468774338E+04  0.25500000000E-02 0. -1.
    8880023    1    1    2    0    0  0.17545825282E+03 -0.33444660312E+03 -0.11926711617E+04  0.14138298466E+04  0.65864270000E+03 0. -1.
    8880022    1    1    2    0    0 -0.17545825282E+03  0.33444660312E+03  0.90780251389E+03  0.99505637331E+03  0.15294330000E+03 0.  0.
<mgrwt>
<rscale>  0 0.64984475E+03</rscale>
<asrwt>0</asrwt>
<pdfrwt beam="1">  1        2 0.20721191E+00 0.75924326E+03</pdfrwt>
<pdfrwt beam="2">  1       -2 0.16338597E+00 0.75924326E+03</pdfrwt>
<totfact> 0.37797286E+00</totfact>
</mgrwt>
</event>
<event>
 4    1  0.6502538E-008  0.8439256E+03  0.7818608E-02  0.9622822E-01
         -2   -1    0    0    0  501 -0.00000000000E+00  0.00000000000E+00  0.24327136562E+03  0.24327136563E+03  0.25500000000E-02 0.  1.
          2   -1    0    0  501    0  0.00000000000E+00 -0.00000000000E+00 -0.34983342433E+04  0.34983342433E+04  0.25500000000E-02 0. -1.
    8880023    1    1    2    0    0 -0.52508320376E+03 -0.51844720225E+02 -0.30344309729E+04  0.31496002574E+04  0.65864270000E+03 0. -1.
    8880022    1    1    2    0    0  0.52508320376E+03  0.51844720225E+02 -0.22063190488E+03  0.59200535162E+03  0.15294330000E+03 0.  0.
<mgrwt>
<rscale>  0 0.75803905E+03</rscale>
<asrwt>0</asrwt>
<pdfrwt beam="1">  1        2 0.53820523E+00 0.84392562E+03</pdfrwt>
<pdfrwt beam="2">  1       -2 0.37426366E-01 0.84392562E+03</pdfrwt>
<totfact> 0.58371827E+00</totfact>
</mgrwt>
</event>
<event>
 4    1  0.6502538E-008  0.9955524E+03  0.7818608E-02  0.9387400E-01
          2   -1    0    0  501    0  0.00000000000E+00  0.00000000000E+00  0.32566240573E+04  0.32566240573E+04  0.25500000000E-02 0. -1.
         -2   -1    0    0    0  501 -0.00000000000E+00 -0.00000000000E+00 -0.16568466361E+04  0.16568466361E+04  0.25500000000E-02 0.  1.
    8880023    1    1    2    0    0  0.11724953678E+03 -0.73726984921E+03  0.30863594308E+04  0.32429522085E+04  0.65864270000E+03 0.  0.
    8880022    1    1    2    0    0 -0.11724953678E+03  0.73726984921E+03 -0.14865820096E+04  0.16705184850E+04  0.15294330000E+03 0.  0.
<mgrwt>
<rscale>  0 0.93119924E+03</rscale>
<asrwt>0</asrwt>
<pdfrwt beam="1">  1        2 0.50101908E+00 0.99555235E+03</pdfrwt>
<pdfrwt beam="2">  1       -2 0.25489949E+00 0.99555235E+03</pdfrwt>
<totfact> 0.73565905E-02</totfact>
</mgrwt>
</event>
<event>
 4    1  0.6502538E-008  0.8705907E+03  0.7818608E-02  0.9574995E-01
          2   -1    0    0  501    0  0.00000000000E+00  0.00000000000E+00  0.31922317713E+04  0.31922317713E+04  0.25500000000E-02 0. -1.
         -2   -1    0    0    0  501 -0.00000000000E+00 -0.00000000000E+00 -0.22294559700E+03  0.22294559701E+03  0.25500000000E-02 0.  1.
    8880023    1    1    2    0    0  0.32970307089E+03  0.46412699007E+03  0.25424474692E+04  0.26873718235E+04  0.65864270000E+03 0.  0.
    8880022    1    1    2    0    0 -0.32970307089E+03 -0.46412699007E+03  0.42683870510E+03  0.72780554481E+03  0.15294330000E+03 0.  0.
<mgrwt>
<rscale>  0 0.78973498E+03</rscale>
<asrwt>0</asrwt>
<pdfrwt beam="1">  1        2 0.49111254E+00 0.87059071E+03</pdfrwt>
<pdfrwt beam="2">  1       -2 0.34299325E-01 0.87059071E+03</pdfrwt>
<totfact> 0.10938029E+01</totfact>
</mgrwt>
</event>
<event>
 4    1  0.6502538E-008  0.7142836E+03  0.7818608E-02  0.9942425E-01
         -2   -1    0    0    0  501 -0.00000000000E+00  0.00000000000E+00  0.89054869850E+03  0.89054869850E+03  0.25500000000E-02 0.  1.
          2   -1    0    0  501    0  0.00000000000E+00 -0.00000000000E+00 -0.42981300394E+03  0.42981300395E+03  0.25500000000E-02 0. -1.
    8880023    1    1    2    0    0  0.19104049570E+03  0.19973571047E+03 -0.54114920537E+02  0.71633054934E+03  0.65864270000E+03 0.  0.
    8880022    1    1    2    0    0 -0.19104049570E+03 -0.19973571047E+03  0.51485061510E+03  0.60403115310E+03  0.15294330000E+03 0.  0.
<mgrwt>
<rscale>  0 0.58248505E+03</rscale>
<asrwt>0</asrwt>
<pdfrwt beam="1">  1        2 0.66125078E-01 0.71428358E+03</pdfrwt>
<pdfrwt beam="2">  1       -2 0.13700749E+00 0.71428358E+03</pdfrwt>
<totfact> 0.28261700E+01</totfact>
</mgrwt>
</event>
<event>
 4    1  0.6502538E-008  0.6815104E+03  0.7818608E-02  0.1008482E+00
          2   -1    0    0  501    0  0.00000000000E+00  0.00000000000E+00  0.18026784978E+04  0.18026784978E+04  0.25500000000E-02 0. -1.
         -2   -1    0    0    0  501 -0.00000000000E+00 -0.00000000000E+00 -0.19210973152E+03  0.19210973154E+03  0.25500000000E-02 0.  1.
    8880023    1    1    2    0    0 -0.11472178561E+03 -0.13223139013E+03  0.16247520251E+04  0.17618954504E+04  0.65864270000E+03 0. -1.
    8880022    1    1    2    0    0  0.11472178561E+03  0.13223139013E+03 -0.14183258888E+02  0.23289277893E+03  0.15294330000E+03 0.  0.
<mgrwt>
<rscale>  0 0.52082480E+03</rscale>
<asrwt>0</asrwt>
<pdfrwt beam="1">  1        2 0.27733516E+00 0.68151041E+03</pdfrwt>
<pdfrwt beam="2">  1       -2 0.29555342E-01 0.68151041E+03</pdfrwt>
<totfact> 0.93407596E+01</totfact>
</mgrwt>
</event>
<event>
 4    1  0.6502538E-008  0.7292957E+03  0.7818608E-02  0.9892303E-01
          2   -1    0    0  501    0  0.00000000000E+00  0.00000000000E+00  0.40867138898E+03  0.40867138899E+03  0.25500000000E-02 0. -1.
         -2   -1    0    0    0  501 -0.00000000000E+00 -0.00000000000E+00 -0.12420820550E+04  0.12420820550E+04  0.25500000000E-02 0.  1.
    8880023    1    1    2    0    0  0.30917350949E+03 -0.49736427620E+02  0.19325556246E+02  0.72955168055E+03  0.65864270000E+03 0. -1.
    8880022    1    1    2    0    0 -0.30917350949E+03  0.49736427620E+02 -0.85273622227E+03  0.92120176345E+03  0.15294330000E+03 0.  0.
<mgrwt>
<rscale>  0 0.60635790E+03</rscale>
<asrwt>0</asrwt>
<pdfrwt beam="1">  1        2 0.62872522E-01 0.72929567E+03</pdfrwt>
<pdfrwt beam="2">  1       -2 0.19108955E+00 0.72929567E+03</pdfrwt>
<totfact> 0.12058799E+01</totfact>
</mgrwt>
</event>
<event>
 4    1  0.6502538E-008  0.1252498E+04  0.7818608E-02  0.9107706E-01
         -2   -1    0    0    0  501 -0.00000000000E+00  0.00000000000E+00  0.13769583169E+04  0.13769583169E+04  0.25500000000E-02 0.  1.
          2   -1    0    0  501    0  0.00000000000E+00 -0.00000000000E+00 -0.10670672692E+04  0.10670672692E+04  0.25500000000E-02 0. -1.
    8880023    1    1    2    0    0  0.75738567819E+03 -0.74920551880E+03 -0.17301827948E+03  0.12643921489E+04  0.65864270000E+03 0.  0.
    8880022    1    1    2    0    0 -0.75738567819E+03  0.74920551880E+03  0.48290932714E+03  0.11796334372E+04  0.15294330000E+03 0.  0.
<mgrwt>
<rscale>  0 0.12059022E+04</rscale>
<asrwt>0</asrwt>
<pdfrwt beam="1">  1        2 0.16416420E+00 0.12524984E+04</pdfrwt>
<pdfrwt beam="2">  1       -2 0.21183974E+00 0.12524984E+04</pdfrwt>
<totfact> 0.24615212E+00</totfact>
</mgrwt>
</event>
<event>
 4    1  0.6502538E-008  0.7774217E+03  0.7818608E-02  0.9761929E-01
         -2   -1    0    0    0  501 -0.00000000000E+00  0.00000000000E+00  0.83124312894E+03  0.83124312895E+03  0.25500000000E-02 0.  1.
          2   -1    0    0  501    0  0.00000000000E+00 -0.00000000000E+00 -0.57362590738E+03  0.57362590739E+03  0.25500000000E-02 0. -1.
    8880023    1    1    2    0    0  0.32479765721E+02 -0.41172721686E+03 -0.16471582146E+03  0.79467964891E+03  0.65864270000E+03 0. -1.
    8880022    1    1    2    0    0 -0.32479765721E+02  0.41172721686E+03  0.42233304302E+03  0.61018938743E+03  0.15294330000E+03 0.  0.
<mgrwt>
<rscale>  0 0.67446303E+03</rscale>
<asrwt>0</asrwt>
<pdfrwt beam="1">  1        2 0.88250140E-01 0.77742166E+03</pdfrwt>
<pdfrwt beam="2">  1       -2 0.12788356E+00 0.77742166E+03</pdfrwt>
<totfact> 0.23956695E+01</totfact>
</mgrwt>
</event>
<event>
 4    1  0.6502538E-008  0.7749620E+03  0.7818608E-02  0.9767807E-01
         -2   -1    0    0    0  501 -0.00000000000E+00  0.00000000000E+00  0.39223282057E+03  0.39223282058E+03  0.25500000000E-02 0.  1.
          2   -1    0    0  501    0  0.00000000000E+00 -0.00000000000E+00 -0.12890808045E+04  0.12890808045E+04  0.25500000000E-02 0. -1.
    8880023    1    1    2    0    0 -0.33405342384E+03  0.23487045153E+03 -0.96745993819E+03  0.12395744259E+04  0.65864270000E+03 0.  0.
    8880022    1    1    2    0    0  0.33405342384E+03 -0.23487045153E+03  0.70611954314E+02  0.44173919917E+03  0.15294330000E+03 0.  0.
<mgrwt>
<rscale>  0 0.67119174E+03</rscale>
<asrwt>0</asrwt>
<pdfrwt beam="1">  1        2 0.19832012E+00 0.77496195E+03</pdfrwt>
<pdfrwt beam="2">  1       -2 0.60343511E-01 0.77496195E+03</pdfrwt>
<totfact> 0.43643764E+01</totfact>
</mgrwt>
</event>
<event>
 4    1  0.6502538E-008  0.6950718E+03  0.7818608E-02  0.1001829E+00
         -2   -1    0    0    0  501 -0.00000000000E+00  0.00000000000E+00  0.58152629230E+03  0.58152629231E+03  0.25500000000E-02 0.  1.
          2   -1    0    0  501    0  0.00000000000E+00 -0.00000000000E+00 -0.11641143862E+04  0.11641143862E+04  0.25500000000E-02 0. -1.
    8880023    1    1    2    0    0 -0.18353322700E+03 -0.12502089173E+03 -0.10185005251E+04  0.12330726640E+04  0.65864270000E+03 0. -1.
    8880022    1    1    2    0    0  0.18353322700E+03  0.12502089173E+03  0.43591243122E+03  0.51256801450E+03  0.15294330000E+03 0.  0.
<mgrwt>
<rscale>  0 0.54855325E+03</rscale>
<asrwt>0</asrwt>
<pdfrwt beam="1">  1        2 0.17909452E+00 0.69507185E+03</pdfrwt>
<pdfrwt beam="2">  1       -2 0.89465584E-01 0.69507185E+03</pdfrwt>
<totfact> 0.21859032E+01</totfact>
</mgrwt>
</event>
<event>
 4    1  0.6502538E-008  0.8968735E+03  0.7818608E-02  0.9531069E-01
         -2   -1    0    0    0  501 -0.00000000000E+00  0.00000000000E+00  0.41524225587E+03  0.41524225588E+03  0.25500000000E-02 0.  1.
          2   -1    0    0  501    0  0.00000000000E+00 -0.00000000000E+00 -0.25067335649E+04  0.25067335649E+04  0.25500000000E-02 0. -1.
    8880023    1    1    2    0    0  0.11953895662E+03  0.59689384915E+03 -0.21114048832E+04  0.22939949033E+04  0.65864270000E+03 0.  0.
    8880022    1    1    2    0    0 -0.11953895662E+03 -0.59689384915E+03  0.19913574147E+02  0.62798091750E+03  0.15294330000E+03 0.  0.
<mgrwt>
<rscale>  0 0.82031449E+03</rscale>
<asrwt>0</asrwt>
<pdfrwt beam="1">  1        2 0.38565131E+00 0.89687348E+03</pdfrwt>
<pdfrwt beam="2">  1       -2 0.63883426E-01 0.89687348E+03</pdfrwt>
<totfact> 0.80177454E+00</totfact>
</mgrwt>
</event>
<event>
 4    1  0.6502538E-008  0.1766197E+04  0.7818608E-02  0.8741469E-01
          2   -1    0    0  501    0  0.00000000000E+00  0.00000000000E+00  0.21404675336E+04  0.21404675336E+04  0.25500000000E-02 0. -1.
         -2   -1    0    0    0  501 -0.00000000000E+00 -0.00000000000E+00 -0.20540756681E+04  0.20540756681E+04  0.25500000000E-02 0.  1.
    8880023    1    1    2    0    0  0.74211151029E+03  0.14611341348E+04 -0.11745919352E+04  0.21211126500E+04  0.65864270000E+03 0.  0.
    8880022    1    1    2    0    0 -0.74211151029E+03 -0.14611341348E+04  0.12609838007E+04  0.20734305516E+04  0.15294330000E+03 0.  0.
<mgrwt>
<rscale>  0 0.17353265E+04</rscale>
<asrwt>0</asrwt>
<pdfrwt beam="1">  1        2 0.32930270E+00 0.17661972E+04</pdfrwt>
<pdfrwt beam="2">  1       -2 0.31601164E+00 0.17661972E+04</pdfrwt>
<totfact> 0.12855214E-01</totfact>
</mgrwt>
</event>
<event>
 4    1  0.6502538E-008  0.7239792E+03  0.7818608E-02  0.9909345E-01
          2   -1    0    0  501    0  0.00000000000E+00  0.00000000000E+00  0.34212804450E+03  0.34212804451E+03  0.25500000000E-02 0. -1.
         -2   -1    0    0    0  501 -0.00000000000E+00 -0.00000000000E+00 -0.85446089066E+03  0.85446089067E+03  0.25500000000E-02 0.  1.
    8880023    1    1    2    0    0  0.76249810082E+02 -0.29072610072E+03 -0.23872948032E+03  0.76232386176E+03  0.65864270000E+03 0. -1.
    8880022    1    1    2    0    0 -0.76249810082E+02  0.29072610072E+03 -0.27360336584E+03  0.43426507342E+03  0.15294330000E+03 0.  1.
<mgrwt>
<rscale>  0 0.59810535E+03</rscale>
<asrwt>0</asrwt>
<pdfrwt beam="1">  1        2 0.52635084E-01 0.72397922E+03</pdfrwt>
<pdfrwt beam="2">  1       -2 0.13145552E+00 0.72397922E+03</pdfrwt>
<totfact> 0.40541756E+01</totfact>
</mgrwt>
</event>
<event>
 4    1  0.6502538E-008  0.7620371E+03  0.7818608E-02  0.9799862E-01
         -2   -1    0    0    0  501 -0.00000000000E+00  0.00000000000E+00  0.60702003340E+03  0.60702003341E+03  0.25500000000E-02 0.  1.
          2   -1    0    0  501    0  0.00000000000E+00 -0.00000000000E+00 -0.81100498661E+03  0.81100498661E+03  0.25500000000E-02 0. -1.
    8880023    1    1    2    0    0 -0.40758541137E+02  0.38108938453E+03 -0.49889577472E+03  0.91082247336E+03  0.65864270000E+03 0.  0.
    8880022    1    1    2    0    0  0.40758541137E+02 -0.38108938453E+03  0.29491082151E+03  0.50720254666E+03  0.15294330000E+03 0.  0.
<mgrwt>
<rscale>  0 0.65369957E+03</rscale>
<asrwt>0</asrwt>
<pdfrwt beam="1">  1        2 0.12477000E+00 0.76203713E+03</pdfrwt>
<pdfrwt beam="2">  1       -2 0.93387697E-01 0.76203713E+03</pdfrwt>
<totfact> 0.33238151E+01</totfact>
</mgrwt>
</event>
<event>
 4    1  0.6502538E-008  0.7705567E+03  0.7818608E-02  0.9778506E-01
         -2   -1    0    0    0  501 -0.00000000000E+00  0.00000000000E+00  0.82075448557E+03  0.82075448558E+03  0.25500000000E-02 0.  1.
          2   -1    0    0  501    0  0.00000000000E+00 -0.00000000000E+00 -0.21364390490E+04  0.21364390490E+04  0.25500000000E-02 0. -1.
    8880023    1    1    2    0    0 -0.62842135027E+02 -0.39496626815E+03 -0.20037348988E+04  0.21467909162E+04  0.65864270000E+03 0. -1.
    8880022    1    1    2    0    0  0.62842135027E+02  0.39496626815E+03  0.68805033536E+03  0.81040261840E+03  0.15294330000E+03 0.  0.
<mgrwt>
<rscale>  0 0.66528904E+03</rscale>
<asrwt>0</asrwt>
<pdfrwt beam="1">  1        2 0.32868293E+00 0.77055674E+03</pdfrwt>
<pdfrwt beam="2">  1       -2 0.12626992E+00 0.77055674E+03</pdfrwt>
<totfact> 0.27162581E+00</totfact>
</mgrwt>
</event>
<event>
 4    1  0.6502538E-008  0.1448318E+04  0.7818608E-02  0.8947020E-01
         -2   -1    0    0    0  501 -0.00000000000E+00  0.00000000000E+00  0.58042779626E+03  0.58042779626E+03  0.25500000000E-02 0.  1.
          2   -1    0    0  501    0  0.00000000000E+00 -0.00000000000E+00 -0.45302284615E+04  0.45302284615E+04  0.25500000000E-02 0. -1.
    8880023    1    1    2    0    0 -0.28790008296E+03  0.12573493362E+04 -0.34085231598E+04  0.37034651542E+04  0.65864270000E+03 0.  0.
    8880022    1    1    2    0    0  0.28790008296E+03 -0.12573493362E+04 -0.54127750537E+03  0.14071911035E+04  0.15294330000E+03 0.  0.
<mgrwt>
<rscale>  0 0.14094311E+04</rscale>
<asrwt>0</asrwt>
<pdfrwt beam="1">  1        2 0.69695820E+00 0.14483177E+04</pdfrwt>
<pdfrwt beam="2">  1       -2 0.89296587E-01 0.14483177E+04</pdfrwt>
<totfact> 0.12255978E-01</totfact>
</mgrwt>
</event>
<event>
 4    1  0.6502538E-008  0.8678366E+03  0.7818608E-02  0.9579773E-01
         -2   -1    0    0    0  501 -0.00000000000E+00  0.00000000000E+00  0.55413130180E+03  0.55413130180E+03  0.25500000000E-02 0.  1.
          2   -1    0    0  501    0  0.00000000000E+00 -0.00000000000E+00 -0.10780002772E+04  0.10780002773E+04  0.25500000000E-02 0. -1.
    8880023    1    1    2    0    0 -0.20896069738E+03 -0.52503860622E+03 -0.58032522546E+03  0.10439912282E+04  0.65864270000E+03 0. -1.
    8880022    1    1    2    0    0  0.20896069738E+03  0.52503860622E+03  0.56456250001E+02  0.58814035081E+03  0.15294330000E+03 0.  1.
<mgrwt>
<rscale>  0 0.78649537E+03</rscale>
<asrwt>0</asrwt>
<pdfrwt beam="1">  1        2 0.16584620E+00 0.86783657E+03</pdfrwt>
<pdfrwt beam="2">  1       -2 0.85250970E-01 0.86783657E+03</pdfrwt>
<totfact> 0.27066882E+01</totfact>
</mgrwt>
</event>
<event>
 4    1  0.6502538E-008  0.8523978E+03  0.7818608E-02  0.9607232E-01
         -2   -1    0    0    0  501 -0.00000000000E+00  0.00000000000E+00  0.62049478824E+03  0.62049478825E+03  0.25500000000E-02 0.  1.
          2   -1    0    0  501    0  0.00000000000E+00 -0.00000000000E+00 -0.14370748005E+04  0.14370748005E+04  0.25500000000E-02 0. -1.
    8880023    1    1    2    0    0  0.53532699681E+03 -0.78719614320E+02 -0.11287463327E+04  0.14144434457E+04  0.65864270000E+03 0. -1.
    8880022    1    1    2    0    0 -0.53532699681E+03  0.78719614320E+02  0.31216632048E+03  0.64312614303E+03  0.15294330000E+03 0.  0.
<mgrwt>
<rscale>  0 0.76819360E+03</rscale>
<asrwt>0</asrwt>
<pdfrwt beam="1">  1        2 0.22108843E+00 0.85239778E+03</pdfrwt>
<pdfrwt beam="2">  1       -2 0.95460737E-01 0.85239778E+03</pdfrwt>
<totfact> 0.12836710E+01</totfact>
</mgrwt>
</event>
<event>
 4    1  0.6502538E-008  0.1351382E+04  0.7818608E-02  0.9022412E-01
         -2   -1    0    0    0  501 -0.00000000000E+00  0.00000000000E+00  0.63547726618E+03  0.63547726618E+03  0.25500000000E-02 0.  1.
          2   -1    0    0  501    0  0.00000000000E+00 -0.00000000000E+00 -0.26543531225E+04  0.26543531225E+04  0.25500000000E-02 0. -1.
    8880023    1    1    2    0    0  0.93233554030E+03 -0.72330681478E+03 -0.73099811688E+03  0.15364214139E+04  0.65864270000E+03 0.  0.
    8880022    1    1    2    0    0 -0.93233554030E+03  0.72330681478E+03 -0.12878777394E+04  0.17534089747E+04  0.15294330000E+03 0.  0.
<mgrwt>
<rscale>  0 0.13090592E+04</rscale>
<asrwt>0</asrwt>
<pdfrwt beam="1">  1        2 0.40836201E+00 0.13513817E+04</pdfrwt>
<pdfrwt beam="2">  1       -2 0.97765735E-01 0.13513817E+04</pdfrwt>
<totfact> 0.23866066E+00</totfact>
</mgrwt>
</event>
<event>
 4    1  0.6502538E-008  0.1058703E+04  0.7818608E-02  0.9308492E-01
         -2   -1    0    0    0  501 -0.00000000000E+00  0.00000000000E+00  0.20393000167E+04  0.20393000167E+04  0.25500000000E-02 0.  1.
          2   -1    0    0  501    0  0.00000000000E+00 -0.00000000000E+00 -0.78606833181E+03  0.78606833181E+03  0.25500000000E-02 0. -1.
    8880023    1    1    2    0    0 -0.29791783536E+02  0.82834432316E+03 -0.26275564012E+03  0.10908219840E+04  0.65864270000E+03 0. -1.
    8880022    1    1    2    0    0  0.29791783536E+02 -0.82834432316E+03  0.15159873251E+04  0.17345463646E+04  0.15294330000E+03 0.  0.
<mgrwt>
<rscale>  0 0.10000485E+04</rscale>
<asrwt>0</asrwt>
<pdfrwt beam="1">  1        2 0.12093359E+00 0.10587030E+04</pdfrwt>
<pdfrwt beam="2">  1       -2 0.31373846E+00 0.10587030E+04</pdfrwt>
<totfact> 0.92176105E-01</totfact>
</mgrwt>
</event>
<event>
 4    1  0.6502538E-008  0.1011358E+04  0.7818608E-02  0.9366846E-01
         -2   -1    0    0    0  501 -0.00000000000E+00  0.00000000000E+00  0.98335924729E+03  0.98335924729E+03  0.25500000000E-02 0.  1.
          2   -1    0    0  501    0  0.00000000000E+00 -0.00000000000E+00 -0.96550888345E+03  0.96550888346E+03  0.25500000000E-02 0. -1.
    8880023    1    1    2    0    0 -0.75137247708E+03 -0.15644468901E+03 -0.36813928453E+03  0.10762770457E+04  0.65864270000E+03 0.  0.
    8880022    1    1    2    0    0  0.75137247708E+03  0.15644468901E+03  0.38598964837E+03  0.87259108504E+03  0.15294330000E+03 0.  0.
<mgrwt>
<rscale>  0 0.94855084E+03</rscale>
<asrwt>0</asrwt>
<pdfrwt beam="1">  1        2 0.14853983E+00 0.10113584E+04</pdfrwt>
<pdfrwt beam="2">  1       -2 0.15128604E+00 0.10113584E+04</pdfrwt>
<totfact> 0.76923867E+00</totfact>
</mgrwt>
</event>
<event>
 4    1  0.6502538E-008  0.9990712E+03  0.7818608E-02  0.9382774E-01
          2   -1    0    0  501    0  0.00000000000E+00  0.00000000000E+00  0.12689278190E+04  0.12689278190E+04  0.25500000000E-02 0. -1.
         -2   -1    0    0    0  501 -0.00000000000E+00 -0.00000000000E+00 -0.94319608597E+03  0.94319608598E+03  0.25500000000E-02 0.  1.
    8880023    1    1    2    0    0 -0.74499990025E+03 -0.96479386841E+02 -0.47267670997E+03  0.11052450415E+04  0.65864270000E+03 0.  0.
    8880022    1    1    2    0    0  0.74499990025E+03  0.96479386841E+02  0.79840844301E+03  0.11068788634E+04  0.15294330000E+03 0.  0.
<mgrwt>
<rscale>  0 0.93506993E+03</rscale>
<asrwt>0</asrwt>
<pdfrwt beam="1">  1        2 0.19521967E+00 0.99907123E+03</pdfrwt>
<pdfrwt beam="2">  1       -2 0.14510709E+00 0.99907123E+03</pdfrwt>
<totfact> 0.55916449E+00</totfact>
</mgrwt>
</event>
<event>
 4    1  0.6502538E-008  0.1181967E+04  0.7818608E-02  0.9174854E-01
         -2   -1    0    0    0  501 -0.00000000000E+00  0.00000000000E+00  0.52251192266E+03  0.52251192266E+03  0.25500000000E-02 0.  1.
          2   -1    0    0  501    0  0.00000000000E+00 -0.00000000000E+00 -0.26462607889E+04  0.26462607889E+04  0.25500000000E-02 0. -1.
    8880023    1    1    2    0    0  0.82749462725E+03 -0.52771904203E+03 -0.17409548644E+04  0.21042739345E+04  0.65864270000E+03 0. -1.
    8880022    1    1    2    0    0 -0.82749462725E+03  0.52771904203E+03 -0.38279400187E+03  0.10644987770E+04  0.15294330000E+03 0.  0.
<mgrwt>
<rscale>  0 0.11316783E+04</rscale>
<asrwt>0</asrwt>
<pdfrwt beam="1">  1        2 0.40711704E+00 0.11819666E+04</pdfrwt>
<pdfrwt beam="2">  1       -2 0.80386451E-01 0.11819666E+04</pdfrwt>
<totfact> 0.38693907E+00</totfact>
</mgrwt>
</event>
<event>
 4    1  0.6502538E-008  0.1158786E+04  0.7818608E-02  0.9198265E-01
         -2   -1    0    0    0  501 -0.00000000000E+00  0.00000000000E+00  0.98760530469E+03  0.98760530469E+03  0.25500000000E-02 0.  1.
          2   -1    0    0  501    0  0.00000000000E+00 -0.00000000000E+00 -0.12298819059E+04  0.12298819059E+04  0.25500000000E-02 0. -1.
    8880023    1    1    2    0    0 -0.67076208807E+03 -0.67753522379E+03 -0.42592905889E+03  0.12345855692E+04  0.65864270000E+03 0. -1.
    8880022    1    1    2    0    0  0.67076208807E+03  0.67753522379E+03  0.18365245772E+03  0.98290164132E+03  0.15294330000E+03 0.  1.
<mgrwt>
<rscale>  0 0.11071359E+04</rscale>
<asrwt>0</asrwt>
<pdfrwt beam="1">  1        2 0.18921260E+00 0.11587864E+04</pdfrwt>
<pdfrwt beam="2">  1       -2 0.15193928E+00 0.11587864E+04</pdfrwt>
<totfact> 0.51391568E+00</totfact>
</mgrwt>
</event>
<event>
 4    1  0.6502538E-008  0.9114754E+03  0.7818608E-02  0.9507855E-01
          2   -1    0    0  501    0  0.00000000000E+00  0.00000000000E+00  0.37460104738E+04  0.37460104738E+04  0.25500000000E-02 0. -1.
         -2   -1    0    0    0  501 -0.00000000000E+00 -0.00000000000E+00 -0.80840757127E+03  0.80840757127E+03  0.25500000000E-02 0.  1.
    8880023    1    1    2    0    0 -0.52735349256E+03 -0.34478329381E+03  0.35484418425E+04  0.36636357545E+04  0.65864270000E+03 0.  0.
    8880022    1    1    2    0    0  0.52735349256E+03  0.34478329381E+03 -0.61083893990E+03  0.89078229064E+03  0.15294330000E+03 0.  0.
<mgrwt>
<rscale>  0 0.83707147E+03</rscale>
<asrwt>0</asrwt>
<pdfrwt beam="1">  1        2 0.57630930E+00 0.91147541E+03</pdfrwt>
<pdfrwt beam="2">  1       -2 0.12437040E+00 0.91147541E+03</pdfrwt>
<totfact> 0.27745649E-01</totfact>
</mgrwt>
</event>
<event>
 4    1  0.6502538E-008  0.8067975E+03  0.7818608E-02  0.9696287E-01
          2   -1    0    0  501    0  0.00000000000E+00  0.00000000000E+00  0.83895973374E+03  0.83895973375E+03  0.25500000000E-02 0. -1.
         -2   -1    0    0    0  501 -0.00000000000E+00 -0.00000000000E+00 -0.12491659568E+04  0.12491659568E+04  0.25500000000E-02 0.  1.
    8880023    1    1    2    0    0  0.35673812123E+03  0.29974979856E+03  0.57288381090E+03  0.98950396458E+03  0.65864270000E+03 0. -1.
    8880022    1    1    2    0    0 -0.35673812123E+03 -0.29974979856E+03 -0.98309003396E+03  0.10986217260E+04  0.15294330000E+03 0.  0.
<mgrwt>
<rscale>  0 0.71238314E+03</rscale>
<asrwt>0</asrwt>
<pdfrwt beam="1">  1        2 0.12907073E+00 0.80679752E+03</pdfrwt>
<pdfrwt beam="2">  1       -2 0.19217938E+00 0.80679752E+03</pdfrwt>
<totfact> 0.49087883E+00</totfact>
</mgrwt>
</event>
<event>
 4    1  0.6502538E-008  0.1668499E+04  0.7818608E-02  0.8798993E-01
          2   -1    0    0  501    0  0.00000000000E+00  0.00000000000E+00  0.24075434213E+04  0.24075434213E+04  0.25500000000E-02 0. -1.
         -2   -1    0    0    0  501 -0.00000000000E+00 -0.00000000000E+00 -0.14134764122E+04  0.14134764122E+04  0.25500000000E-02 0.  1.
    8880023    1    1    2    0    0  0.67729016688E+03 -0.13752657398E+04  0.14540852578E+04  0.22131994868E+04  0.65864270000E+03 0.  0.
    8880022    1    1    2    0    0 -0.67729016688E+03  0.13752657398E+04 -0.46001824865E+03  0.16078203467E+04  0.15294330000E+03 0.  0.
<mgrwt>
<rscale>  0 0.16355633E+04</rscale>
<asrwt>0</asrwt>
<pdfrwt beam="1">  1        2 0.37039129E+00 0.16684987E+04</pdfrwt>
<pdfrwt beam="2">  1       -2 0.21745791E+00 0.16684987E+04</pdfrwt>
<totfact> 0.37216392E-01</totfact>
</mgrwt>
</event>
<event>
 4    1  0.6502538E-008  0.1422131E+04  0.7818608E-02  0.8966675E-01
         -2   -1    0    0    0  501 -0.00000000000E+00  0.00000000000E+00  0.86726338005E+03  0.86726338005E+03  0.25500000000E-02 0.  1.
          2   -1    0    0  501    0  0.00000000000E+00 -0.00000000000E+00 -0.26993113717E+04  0.26993113717E+04  0.25500000000E-02 0. -1.
    8880023    1    1    2    0    0 -0.96103308562E+03  0.81551287110E+03 -0.18032925422E+04  0.22965887820E+04  0.65864270000E+03 0.  0.
    8880022    1    1    2    0    0  0.96103308562E+03 -0.81551287110E+03 -0.28755449493E+02  0.12699859698E+04  0.15294330000E+03 0.  0.
<mgrwt>
<rscale>  0 0.13823772E+04</rscale>
<asrwt>0</asrwt>
<pdfrwt beam="1">  1        2 0.41527867E+00 0.14221308E+04</pdfrwt>
<pdfrwt beam="2">  1       -2 0.13342514E+00 0.14221308E+04</pdfrwt>
<totfact> 0.10331728E+00</totfact>
</mgrwt>
</event>
<event>
 4    1  0.6502538E-008  0.7025776E+03  0.7818608E-02  0.9986672E-01
         -2   -1    0    0    0  501 -0.00000000000E+00  0.00000000000E+00  0.11756497181E+04  0.11756497182E+04  0.25500000000E-02 0.  1.
          2   -1    0    0  501    0  0.00000000000E+00 -0.00000000000E+00 -0.22051278847E+04  0.22051278847E+04  0.25500000000E-02 0. -1.
    8880023    1    1    2    0    0 -0.24009691055E+03 -0.46459464303E+02 -0.21301062954E+04  0.22429819536E+04  0.65864270000E+03 0. -1.
    8880022    1    1    2    0    0  0.24009691055E+03  0.46459464303E+02  0.11006281289E+04  0.11377956492E+04  0.15294330000E+03 0.  0.
<mgrwt>
<rscale>  0 0.56238527E+03</rscale>
<asrwt>0</asrwt>
<pdfrwt beam="1">  1        2 0.33925044E+00 0.70257755E+03</pdfrwt>
<pdfrwt beam="2">  1       -2 0.18086919E+00 0.70257755E+03</pdfrwt>
<totfact> 0.97005366E-01</totfact>
</mgrwt>
</event>
<event>
 4    1  0.6502538E-008  0.1692870E+04  0.7818608E-02  0.8784233E-01
          2   -1    0    0  501    0  0.00000000000E+00  0.00000000000E+00  0.16080017629E+04  0.16080017629E+04  0.25500000000E-02 0. -1.
         -2   -1    0    0    0  501 -0.00000000000E+00 -0.00000000000E+00 -0.38775206633E+04  0.38775206633E+04  0.25500000000E-02 0.  1.
    8880023    1    1    2    0    0 -0.68949385766E+01 -0.15594712553E+04  0.92375344591E+03  0.19285042835E+04  0.65864270000E+03 0.  0.
    8880022    1    1    2    0    0  0.68949385766E+01  0.15594712553E+04 -0.31932723463E+04  0.35570181427E+04  0.15294330000E+03 0.  0.
<mgrwt>
<rscale>  0 0.16604765E+04</rscale>
<asrwt>0</asrwt>
<pdfrwt beam="1">  1        2 0.24738489E+00 0.16928699E+04</pdfrwt>
<pdfrwt beam="2">  1       -2 0.59654164E+00 0.16928699E+04</pdfrwt>
<totfact> 0.51474644E-03</totfact>
</mgrwt>
</event>
<event>
 4    1  0.6502538E-008  0.1309537E+04  0.7818608E-02  0.9057367E-01
          2   -1    0    0  501    0  0.00000000000E+00  0.00000000000E+00  0.23980435778E+04  0.23980435778E+04  0.25500000000E-02 0. -1.
         -2   -1    0    0    0  501 -0.00000000000E+00 -0.00000000000E+00 -0.88067170219E+03  0.88067170220E+03  0.25500000000E-02 0.  1.
    8880023    1    1    2    0    0  0.98916578981E+02 -0.11275166319E+04  0.16745731612E+04  0.21258136615E+04  0.65864270000E+03 0.  0.
    8880022    1    1    2    0    0 -0.98916578981E+02  0.11275166319E+04 -0.15720128552E+03  0.11529016186E+04  0.15294330000E+03 0.  0.
<mgrwt>
<rscale>  0 0.12655162E+04</rscale>
<asrwt>0</asrwt>
<pdfrwt beam="1">  1        2 0.36892978E+00 0.13095375E+04</pdfrwt>
<pdfrwt beam="2">  1       -2 0.13548795E+00 0.13095375E+04</pdfrwt>
<totfact> 0.15043202E+00</totfact>
</mgrwt>
</event>
<event>
 4    1  0.6502538E-008  0.7683038E+03  0.7818608E-02  0.9784066E-01
          2   -1    0    0  501    0  0.00000000000E+00  0.00000000000E+00  0.17151075113E+04  0.17151075113E+04  0.25500000000E-02 0. -1.
         -2   -1    0    0    0  501 -0.00000000000E+00 -0.00000000000E+00 -0.26252487519E+03  0.26252487520E+03  0.25500000000E-02 0.  1.
    8880023    1    1    2    0    0  0.22526124533E+03 -0.32517357865E+03  0.13303285815E+04  0.15362502485E+04  0.65864270000E+03 0.  1.
    8880022    1    1    2    0    0 -0.22526124533E+03  0.32517357865E+03  0.12225405463E+03  0.44138213805E+03  0.15294330000E+03 0.  0.
<mgrwt>
<rscale>  0 0.66224732E+03</rscale>
<asrwt>0</asrwt>
<pdfrwt beam="1">  1        2 0.26386268E+00 0.76830378E+03</pdfrwt>
<pdfrwt beam="2">  1       -2 0.40388444E-01 0.76830378E+03</pdfrwt>
<totfact> 0.57065741E+01</totfact>
</mgrwt>
</event>
<event>
 4    1  0.6502538E-008  0.9109529E+03  0.7818608E-02  0.9508672E-01
         -2   -1    0    0    0  501 -0.00000000000E+00  0.00000000000E+00  0.20920490403E+04  0.20920490403E+04  0.25500000000E-02 0.  1.
          2   -1    0    0  501    0  0.00000000000E+00 -0.00000000000E+00 -0.12647606776E+04  0.12647606776E+04  0.25500000000E-02 0. -1.
    8880023    1    1    2    0    0 -0.62105095070E+03 -0.10159108549E+03 -0.10387367947E+04  0.13815966730E+04  0.65864270000E+03 0. -1.
    8880022    1    1    2    0    0  0.62105095070E+03  0.10159108549E+03  0.18660251573E+04  0.19752130449E+04  0.15294330000E+03 0.  0.
<mgrwt>
<rscale>  0 0.83647442E+03</rscale>
<asrwt>0</asrwt>
<pdfrwt beam="1">  1        2 0.19457857E+00 0.91095293E+03</pdfrwt>
<pdfrwt beam="2">  1       -2 0.32185369E+00 0.91095293E+03</pdfrwt>
<totfact> 0.41355456E-01</totfact>
</mgrwt>
</event>
<event>
 4    1  0.6502538E-008  0.1573436E+04  0.7818608E-02  0.8859449E-01
          2   -1    0    0  501    0  0.00000000000E+00  0.00000000000E+00  0.25422339403E+04  0.25422339403E+04  0.25500000000E-02 0. -1.
         -2   -1    0    0    0  501 -0.00000000000E+00 -0.00000000000E+00 -0.14590416839E+04  0.14590416839E+04  0.25500000000E-02 0.  1.
    8880023    1    1    2    0    0  0.14120476685E+04  0.21911539661E+03  0.18038036113E+04  0.23936181504E+04  0.65864270000E+03 0.  0.
    8880022    1    1    2    0    0 -0.14120476685E+04 -0.21911539661E+03 -0.72061135501E+03  0.16076574738E+04  0.15294330000E+03 0.  0.
<mgrwt>
<rscale>  0 0.15381872E+04</rscale>
<asrwt>0</asrwt>
<pdfrwt beam="1">  1        2 0.39111291E+00 0.15734359E+04</pdfrwt>
<pdfrwt beam="2">  1       -2 0.22446795E+00 0.15734359E+04</pdfrwt>
<totfact> 0.28355168E-01</totfact>
</mgrwt>
</event>
<event>
 4    1  0.6502538E-008  0.6625345E+03  0.7818608E-02  0.1021698E+00
         -2   -1    0    0    0  501 -0.00000000000E+00  0.00000000000E+00  0.64611970775E+03  0.64611970775E+03  0.25500000000E-02 0.  1.
          2   -1    0    0  501    0  0.00000000000E+00 -0.00000000000E+00 -0.10441578140E+04  0.10441578140E+04  0.25500000000E-02 0. -1.
    8880023    1    1    2    0    0  0.55868961735E+02 -0.44949719778E+02 -0.92449530250E+03  0.11373845387E+04  0.65864270000E+03 0. -1.
    8880022    1    1    2    0    0 -0.55868961735E+02  0.44949719778E+02  0.52645719627E+03  0.55289298306E+03  0.15294330000E+03 0.  0.
<mgrwt>
<rscale>  0 0.47078837E+03</rscale>
<asrwt>0</asrwt>
<pdfrwt beam="1">  1        2 0.16063966E+00 0.66253455E+03</pdfrwt>
<pdfrwt beam="2">  1       -2 0.99403032E-01 0.66253455E+03</pdfrwt>
<totfact> 0.20315491E+01</totfact>
</mgrwt>
</event>
<event>
 4    1  0.6502538E-008  0.9920384E+03  0.7818608E-02  0.9392049E-01
          2   -1    0    0  501    0  0.00000000000E+00  0.00000000000E+00  0.10154001539E+04  0.10154001539E+04  0.25500000000E-02 0. -1.
         -2   -1    0    0    0  501 -0.00000000000E+00 -0.00000000000E+00 -0.16848416750E+04  0.16848416750E+04  0.25500000000E-02 0.  1.
    8880023    1    1    2    0    0  0.73990516035E+03 -0.53574803642E+02  0.64492475073E+03  0.11832447111E+04  0.65864270000E+03 0.  0.
    8880022    1    1    2    0    0 -0.73990516035E+03  0.53574803642E+02 -0.13143662718E+04  0.15169971178E+04  0.15294330000E+03 0.  0.
<mgrwt>
<rscale>  0 0.92732933E+03</rscale>
<asrwt>0</asrwt>
<pdfrwt beam="1">  1        2 0.15621541E+00 0.99203836E+03</pdfrwt>
<pdfrwt beam="2">  1       -2 0.25920641E+00 0.99203836E+03</pdfrwt>
<totfact> 0.13878416E+00</totfact>
</mgrwt>
</event>
<event>
 4    1  0.6502538E-008  0.1007571E+04  0.7818608E-02  0.9371718E-01
          2   -1    0    0  501    0  0.00000000000E+00  0.00000000000E+00  0.21348691599E+04  0.21348691599E+04  0.25500000000E-02 0. -1.
         -2   -1    0    0    0  501 -0.00000000000E+00 -0.00000000000E+00 -0.47959644056E+03  0.47959644057E+03  0.25500000000E-02 0.  1.
    8880023    1    1    2    0    0  0.70801813343E+03  0.28301941674E+03  0.15222429993E+04  0.18254927068E+04  0.65864270000E+03 0.  0.
    8880022    1    1    2    0    0 -0.70801813343E+03 -0.28301941674E+03  0.13302972008E+03  0.78897289368E+03  0.15294330000E+03 0.  0.
<mgrwt>
<rscale>  0 0.94440142E+03</rscale>
<asrwt>0</asrwt>
<pdfrwt beam="1">  1        2 0.32844141E+00 0.10075713E+04</pdfrwt>
<pdfrwt beam="2">  1       -2 0.73784068E-01 0.10075713E+04</pdfrwt>
<totfact> 0.93352891E+00</totfact>
</mgrwt>
</event>
<event>
 4    1  0.6502538E-008  0.1116032E+04  0.7818608E-02  0.9243413E-01
          2   -1    0    0  501    0  0.00000000000E+00  0.00000000000E+00  0.26965219494E+04  0.26965219494E+04  0.25500000000E-02 0. -1.
         -2   -1    0    0    0  501 -0.00000000000E+00 -0.00000000000E+00 -0.53493396484E+03  0.53493396485E+03  0.25500000000E-02 0.  1.
    8880023    1    1    2    0    0  0.89502809113E+03 -0.10315816189E+03  0.29685282598E+03  0.11548370867E+04  0.65864270000E+03 0.  0.
    8880022    1    1    2    0    0 -0.89502809113E+03  0.10315816189E+03  0.18647351586E+04  0.20766188276E+04  0.15294330000E+03 0. -1.
<mgrwt>
<rscale>  0 0.10616352E+04</rscale>
<asrwt>0</asrwt>
<pdfrwt beam="1">  1        2 0.41484954E+00 0.11160319E+04</pdfrwt>
<pdfrwt beam="2">  1       -2 0.82297531E-01 0.11160319E+04</pdfrwt>
<totfact> 0.34547844E+00</totfact>
</mgrwt>
</event>
<event>
 4    1  0.6502538E-008  0.8402764E+03  0.7818608E-02  0.9629659E-01
          2   -1    0    0  501    0  0.00000000000E+00  0.00000000000E+00  0.30603737023E+04  0.30603737023E+04  0.25500000000E-02 0. -1.
         -2   -1    0    0    0  501 -0.00000000000E+00 -0.00000000000E+00 -0.43087271962E+03  0.43087271963E+03  0.25500000000E-02 0.  1.
    8880023    1    1    2    0    0 -0.22825510988E+02 -0.52128036148E+03  0.27984413771E+04  0.29218724419E+04  0.65864270000E+03 0. -1.
    8880022    1    1    2    0    0  0.22825510988E+02  0.52128036148E+03 -0.16894039448E+03  0.56937398001E+03  0.15294330000E+03 0.  0.
<mgrwt>
<rscale>  0 0.75363854E+03</rscale>
<asrwt>0</asrwt>
<pdfrwt beam="1">  1        2 0.47082674E+00 0.84027640E+03</pdfrwt>
<pdfrwt beam="2">  1       -2 0.66288108E-01 0.84027640E+03</pdfrwt>
<totfact> 0.35071760E+00</totfact>
</mgrwt>
</event>
<event>
 4    1  0.6502538E-008  0.7030593E+03  0.7818608E-02  0.9984739E-01
         -2   -1    0    0    0  501 -0.00000000000E+00  0.00000000000E+00  0.74159276127E+03  0.74159276128E+03  0.25500000000E-02 0.  1.
          2   -1    0    0  501    0  0.00000000000E+00 -0.00000000000E+00 -0.12131578590E+04  0.12131578590E+04  0.25500000000E-02 0. -1.
    8880023    1    1    2    0    0 -0.11654433311E+03  0.21656324483E+03 -0.10755325234E+04  0.12849368217E+04  0.65864270000E+03 0. -1.
    8880022    1    1    2    0    0  0.11654433311E+03 -0.21656324483E+03  0.60396742563E+03  0.66981379863E+03  0.15294330000E+03 0.  0.
<mgrwt>
<rscale>  0 0.56324497E+03</rscale>
<asrwt>0</asrwt>
<pdfrwt beam="1">  1        2 0.18663967E+00 0.70305933E+03</pdfrwt>
<pdfrwt beam="2">  1       -2 0.11409119E+00 0.70305933E+03</pdfrwt>
<totfact> 0.11473229E+01</totfact>
</mgrwt>
</event>
<event>
 4    1  0.6502538E-008  0.6652610E+03  0.7818608E-02  0.1019315E+00
          2   -1    0    0  501    0  0.00000000000E+00  0.00000000000E+00  0.18686177577E+04  0.18686177577E+04  0.25500000000E-02 0. -1.
         -2   -1    0    0    0  501 -0.00000000000E+00 -0.00000000000E+00 -0.93511927759E+03  0.93511927759E+03  0.25500000000E-02 0.  1.
    8880023    1    1    2    0    0  0.27161487493E+02 -0.89578006295E+02  0.17999339671E+04  0.19189409730E+04  0.65864270000E+03 0. -1.
    8880022    1    1    2    0    0 -0.27161487493E+02  0.89578006295E+02 -0.86643548703E+03  0.88479606227E+03  0.15294330000E+03 0.  0.
<mgrwt>
<rscale>  0 0.47934452E+03</rscale>
<asrwt>0</asrwt>
<pdfrwt beam="1">  1        2 0.28747965E+00 0.66526098E+03</pdfrwt>
<pdfrwt beam="2">  1       -2 0.14386451E+00 0.66526098E+03</pdfrwt>
<totfact> 0.27782263E+00</totfact>
</mgrwt>
</event>
<event>
 4    1  0.6502538E-008  0.8236255E+03  0.7818608E-02  0.9661865E-01
          2   -1    0    0  501    0  0.00000000000E+00  0.00000000000E+00  0.18190657854E+04  0.18190657854E+04  0.25500000000E-02 0. -1.
         -2   -1    0    0    0  501 -0.00000000000E+00 -0.00000000000E+00 -0.56937898349E+03  0.56937898350E+03  0.25500000000E-02 0.  1.
    8880023    1    1    2    0    0 -0.28982815934E+03 -0.40068482499E+03  0.15748062173E+04  0.17771813411E+04  0.65864270000E+03 0.  0.
    8880022    1    1    2    0    0  0.28982815934E+03  0.40068482499E+03 -0.32511941536E+03  0.61126342781E+03  0.15294330000E+03 0.  0.
<mgrwt>
<rscale>  0 0.73333445E+03</rscale>
<asrwt>0</asrwt>
<pdfrwt beam="1">  1        2 0.27985628E+00 0.82362546E+03</pdfrwt>
<pdfrwt beam="2">  1       -2 0.87596766E-01 0.82362546E+03</pdfrwt>
<totfact> 0.96675515E+00</totfact>
</mgrwt>
</event>
<event>
 4    1  0.6502538E-008  0.1060849E+04  0.7818608E-02  0.9305952E-01
          2   -1    0    0  501    0  0.00000000000E+00  0.00000000000E+00  0.44909337278E+04  0.44909337278E+04  0.25500000000E-02 0. -1.
         -2   -1    0    0    0  501 -0.00000000000E+00 -0.00000000000E+00 -0.46065042648E+03  0.46065042648E+03  0.25500000000E-02 0.  1.
    8880023    1    1    2    0    0 -0.79029399161E+03  0.25889324431E+03  0.39639166973E+04  0.41034176115E+04  0.65864270000E+03 0.  0.
    8880022    1    1    2    0    0  0.79029399161E+03 -0.25889324431E+03  0.66366604023E+02  0.84816654276E+03  0.15294330000E+03 0.  0.
<mgrwt>
<rscale>  0 0.10023677E+04</rscale>
<asrwt>0</asrwt>
<pdfrwt beam="1">  1        2 0.69091289E+00 0.10608490E+04</pdfrwt>
<pdfrwt beam="2">  1       -2 0.70869295E-01 0.10608490E+04</pdfrwt>
<totfact> 0.24119470E-01</totfact>
</mgrwt>
</event>
<event>
 4    1  0.6502538E-008  0.8194258E+03  0.7818608E-02  0.9670268E-01
         -2   -1    0    0    0  501 -0.00000000000E+00  0.00000000000E+00  0.64229695323E+03  0.64229695324E+03  0.25500000000E-02 0.  1.
          2   -1    0    0  501    0  0.00000000000E+00 -0.00000000000E+00 -0.16766044464E+04  0.16766044464E+04  0.25500000000E-02 0. -1.
    8880023    1    1    2    0    0  0.18997382719E+02 -0.48712161359E+03 -0.14464765312E+04  0.16624538877E+04  0.65864270000E+03 0.  0.
    8880022    1    1    2    0    0 -0.18997382719E+02  0.48712161359E+03  0.41216903808E+03  0.65644751195E+03  0.15294330000E+03 0.  0.
<mgrwt>
<rscale>  0 0.72814957E+03</rscale>
<asrwt>0</asrwt>
<pdfrwt beam="1">  1        2 0.25793914E+00 0.81942576E+03</pdfrwt>
<pdfrwt beam="2">  1       -2 0.98814917E-01 0.81942576E+03</pdfrwt>
<totfact> 0.87447610E+00</totfact>
</mgrwt>
</event>
<event>
 4    1  0.6502538E-008  0.6985888E+03  0.7818608E-02  0.1000311E+00
          2   -1    0    0  501    0  0.00000000000E+00  0.00000000000E+00  0.28595831116E+04  0.28595831116E+04  0.25500000000E-02 0. -1.
         -2   -1    0    0    0  501 -0.00000000000E+00 -0.00000000000E+00 -0.65590572399E+03  0.65590572399E+03  0.25500000000E-02 0.  1.
    8880023    1    1    2    0    0 -0.29928496716E+02 -0.23091199050E+03  0.27847764749E+04  0.28710636154E+04  0.65864270000E+03 0.  0.
    8880022    1    1    2    0    0  0.29928496716E+02  0.23091199050E+03 -0.58109908724E+03  0.64442522024E+03  0.15294330000E+03 0.  0.
<mgrwt>
<rscale>  0 0.55514229E+03</rscale>
<asrwt>0</asrwt>
<pdfrwt beam="1">  1        2 0.43993587E+00 0.69858877E+03</pdfrwt>
<pdfrwt beam="2">  1       -2 0.10090857E+00 0.69858877E+03</pdfrwt>
<totfact> 0.18477883E+00</totfact>
</mgrwt>
</event>
<event>
 4    1  0.6502538E-008  0.6710070E+03  0.7818608E-02  0.1014951E+00
          2   -1    0    0  501    0  0.00000000000E+00  0.00000000000E+00  0.94648033801E+03  0.94648033802E+03  0.25500000000E-02 0. -1.
         -2   -1    0    0    0  501 -0.00000000000E+00 -0.00000000000E+00 -0.31295582111E+03  0.31295582112E+03  0.25500000000E-02 0.  1.
    8880023    1    1    2    0    0  0.10473097311E+03  0.73970584042E+02  0.76719062539E+03  0.10192310268E+04  0.65864270000E+03 0.  0.
    8880022    1    1    2    0    0 -0.10473097311E+03 -0.73970584042E+02 -0.13366610848E+03  0.24020513234E+03  0.15294330000E+03 0.  0.
<mgrwt>
<rscale>  0 0.49553479E+03</rscale>
<asrwt>0</asrwt>
<pdfrwt beam="1">  1        2 0.14561236E+00 0.67100703E+03</pdfrwt>
<pdfrwt beam="2">  1       -2 0.48147049E-01 0.67100703E+03</pdfrwt>
<totfact> 0.11361537E+02</totfact>
</mgrwt>
</event>
<event>
 4    1  0.6502538E-008  0.1432011E+04  0.7818608E-02  0.8959200E-01
         -2   -1    0    0    0  501 -0.00000000000E+00  0.00000000000E+00  0.12478810274E+04  0.12478810274E+04  0.25500000000E-02 0.  1.
          2   -1    0    0  501    0  0.00000000000E+00 -0.00000000000E+00 -0.15468738582E+04  0.15468738582E+04  0.25500000000E-02 0. -1.
    8880023    1    1    2    0    0  0.41735271235E+03 -0.12011083632E+04 -0.45971530446E+03  0.15039923384E+04  0.65864270000E+03 0.  1.
    8880022    1    1    2    0    0 -0.41735271235E+03  0.12011083632E+04  0.16072247364E+03  0.12907625472E+04  0.15294330000E+03 0.  0.
<mgrwt>
<rscale>  0 0.13925892E+04</rscale>
<asrwt>0</asrwt>
<pdfrwt beam="1">  1        2 0.23798059E+00 0.14320108E+04</pdfrwt>
<pdfrwt beam="2">  1       -2 0.19198170E+00 0.14320108E+04</pdfrwt>
<totfact> 0.17025509E+00</totfact>
</mgrwt>
</event>
<event>
 4    1  0.6502538E-008  0.6851026E+03  0.7818608E-02  0.1006573E+00
          2   -1    0    0  501    0  0.00000000000E+00  0.00000000000E+00  0.26870641559E+04  0.26870641559E+04  0.25500000000E-02 0. -1.
         -2   -1    0    0    0  501 -0.00000000000E+00 -0.00000000000E+00 -0.20960564690E+03  0.20960564692E+03  0.25500000000E-02 0.  1.
    8880023    1    1    2    0    0 -0.15805628110E+03  0.10282810072E+03  0.25522649745E+04  0.26426165278E+04  0.65864270000E+03 0. -1.
    8880022    1    1    2    0    0  0.15805628110E+03 -0.10282810072E+03 -0.74806465495E+02  0.25405327510E+03  0.15294330000E+03 0.  0.
<mgrwt>
<rscale>  0 0.52859676E+03</rscale>
<asrwt>0</asrwt>
<pdfrwt beam="1">  1        2 0.41339450E+00 0.68510263E+03</pdfrwt>
<pdfrwt beam="2">  1       -2 0.32247022E-01 0.68510263E+03</pdfrwt>
<totfact> 0.25650479E+01</totfact>
</mgrwt>
</event>
<event>
 4    1  0.6502538E-008  0.7448071E+03  0.7818608E-02  0.9846159E-01
          2   -1    0    0  501    0  0.00000000000E+00  0.00000000000E+00  0.19386154020E+04  0.19386154021E+04  0.25500000000E-02 0. -1.
         -2   -1    0    0    0  501 -0.00000000000E+00 -0.00000000000E+00 -0.18786545417E+03  0.18786545419E+03  0.25500000000E-02 0.  1.
    8880023    1    1    2    0    0 -0.33444890857E+03 -0.95243956588E+02  0.14897737851E+04  0.16655820666E+04  0.65864270000E+03 0. -1.
    8880022    1    1    2    0    0  0.33444890857E+03  0.95243956588E+02  0.26097616283E+03  0.46089878964E+03  0.15294330000E+03 0.  0.
<mgrwt>
<rscale>  0 0.62943135E+03</rscale>
<asrwt>0</asrwt>
<pdfrwt beam="1">  1        2 0.29824851E+00 0.74480715E+03</pdfrwt>
<pdfrwt beam="2">  1       -2 0.28902379E-01 0.74480715E+03</pdfrwt>
<totfact> 0.81529744E+01</totfact>
</mgrwt>
</event>
<event>
 4    1  0.6502538E-008  0.7285327E+03  0.7818608E-02  0.9894706E-01
          2   -1    0    0  501    0  0.00000000000E+00  0.00000000000E+00  0.59894513573E+03  0.59894513574E+03  0.25500000000E-02 0. -1.
         -2   -1    0    0    0  501 -0.00000000000E+00 -0.00000000000E+00 -0.77756938446E+03  0.77756938447E+03  0.25500000000E-02 0.  1.
    8880023    1    1    2    0    0  0.30324937194E+03 -0.70636220087E+02  0.29790670649E+03  0.78708847610E+03  0.65864270000E+03 0. -1.
    8880022    1    1    2    0    0 -0.30324937194E+03  0.70636220087E+02 -0.47653095522E+03  0.58942604410E+03  0.15294330000E+03 0.  0.
<mgrwt>
<rscale>  0 0.60518565E+03</rscale>
<asrwt>0</asrwt>
<pdfrwt beam="1">  1        2 0.92145405E-01 0.72853268E+03</pdfrwt>
<pdfrwt beam="2">  1       -2 0.11962606E+00 0.72853268E+03</pdfrwt>
<totfact> 0.26989778E+01</totfact>
</mgrwt>
</event>
<event>
 4    1  0.6502538E-008  0.1267110E+04  0.7818608E-02  0.9094496E-01
         -2   -1    0    0    0  501 -0.00000000000E+00  0.00000000000E+00  0.17156514335E+04  0.17156514335E+04  0.25500000000E-02 0.  1.
          2   -1    0    0  501    0  0.00000000000E+00 -0.00000000000E+00 -0.81365099316E+03  0.81365099317E+03  0.25500000000E-02 0. -1.
    8880023    1    1    2    0    0 -0.96427175026E+03  0.49187128265E+03  0.42431514647E+03  0.13362675319E+04  0.65864270000E+03 0.  0.
    8880022    1    1    2    0    0  0.96427175026E+03 -0.49187128265E+03  0.47768529381E+03  0.11930348947E+04  0.15294330000E+03 0.  0.
<mgrwt>
<rscale>  0 0.12212047E+04</rscale>
<asrwt>0</asrwt>
<pdfrwt beam="1">  1        2 0.12517708E+00 0.12671099E+04</pdfrwt>
<pdfrwt beam="2">  1       -2 0.26394637E+00 0.12671099E+04</pdfrwt>
<totfact> 0.17256361E+00</totfact>
</mgrwt>
</event>
<event>
 4    1  0.6502538E-008  0.8375372E+03  0.7818608E-02  0.9634842E-01
         -2   -1    0    0    0  501 -0.00000000000E+00  0.00000000000E+00  0.35354769656E+03  0.35354769657E+03  0.25500000000E-02 0.  1.
          2   -1    0    0  501    0  0.00000000000E+00 -0.00000000000E+00 -0.16475648382E+04  0.16475648382E+04  0.25500000000E-02 0. -1.
    8880023    1    1    2    0    0 -0.23394496199E+03  0.46144126069E+03 -0.11843797677E+04  0.14505943343E+04  0.65864270000E+03 0.  0.
    8880022    1    1    2    0    0  0.23394496199E+03 -0.46144126069E+03 -0.10963737398E+03  0.55051820051E+03  0.15294330000E+03 0.  0.
<mgrwt>
<rscale>  0 0.75032428E+03</rscale>
<asrwt>0</asrwt>
<pdfrwt beam="1">  1        2 0.25347151E+00 0.83753716E+03</pdfrwt>
<pdfrwt beam="2">  1       -2 0.54391954E-01 0.83753716E+03</pdfrwt>
<totfact> 0.33893998E+01</totfact>
</mgrwt>
</event>
<event>
 4    1  0.6502538E-008  0.7505750E+03  0.7818608E-02  0.9830149E-01
          2   -1    0    0  501    0  0.00000000000E+00  0.00000000000E+00  0.92710646451E+03  0.92710646451E+03  0.25500000000E-02 0. -1.
         -2   -1    0    0    0  501 -0.00000000000E+00 -0.00000000000E+00 -0.14958199472E+04  0.14958199472E+04  0.25500000000E-02 0.  1.
    8880023    1    1    2    0    0 -0.29505553242E+03  0.20614288486E+03  0.74181064659E+03  0.10552942234E+04  0.65864270000E+03 0. -1.
    8880022    1    1    2    0    0  0.29505553242E+03 -0.20614288486E+03 -0.13105241292E+04  0.13676321883E+04  0.15294330000E+03 0.  0.
<mgrwt>
<rscale>  0 0.63769388E+03</rscale>
<asrwt>0</asrwt>
<pdfrwt beam="1">  1        2 0.14263176E+00 0.75057502E+03</pdfrwt>
<pdfrwt beam="2">  1       -2 0.23012615E+00 0.75057502E+03</pdfrwt>
<totfact> 0.24683961E+00</totfact>
</mgrwt>
</event>
<event>
 4    1  0.6502538E-008  0.1236971E+04  0.7818608E-02  0.9121996E-01
         -2   -1    0    0    0  501 -0.00000000000E+00  0.00000000000E+00  0.49466673177E+03  0.49466673177E+03  0.25500000000E-02 0.  1.
          2   -1    0    0  501    0  0.00000000000E+00 -0.00000000000E+00 -0.28046105789E+04  0.28046105789E+04  0.25500000000E-02 0. -1.
    8880023    1    1    2    0    0 -0.89736284032E+03 -0.53946829685E+03 -0.16110686477E+04  0.20311667840E+04  0.65864270000E+03 0.  0.
    8880022    1    1    2    0    0  0.89736284032E+03  0.53946829685E+03 -0.69887519940E+03  0.12681105267E+04  0.15294330000E+03 0.  0.
<mgrwt>
<rscale>  0 0.11896143E+04</rscale>
<asrwt>0</asrwt>
<pdfrwt beam="1">  1        2 0.43147854E+00 0.12369706E+04</pdfrwt>
<pdfrwt beam="2">  1       -2 0.76102575E-01 0.12369706E+04</pdfrwt>
<totfact> 0.35044623E+00</totfact>
</mgrwt>
</event>
<event>
 4    1  0.6502538E-008  0.7395626E+03  0.7818608E-02  0.9861223E-01
         -2   -1    0    0    0  501 -0.00000000000E+00  0.00000000000E+00  0.71812859937E+03  0.71812859938E+03  0.25500000000E-02 0.  1.
          2   -1    0    0  501    0  0.00000000000E+00 -0.00000000000E+00 -0.22680548813E+04  0.22680548813E+04  0.25500000000E-02 0. -1.
    8880023    1    1    2    0    0 -0.21777952017E+03  0.25634869825E+03 -0.21543523136E+04  0.22777591338E+04  0.65864270000E+03 0.  0.
    8880022    1    1    2    0    0  0.21777952017E+03 -0.25634869825E+03  0.60442603163E+03  0.70842434686E+03  0.15294330000E+03 0.  0.
<mgrwt>
<rscale>  0 0.62177947E+03</rscale>
<asrwt>0</asrwt>
<pdfrwt beam="1">  1        2 0.34893152E+00 0.73956256E+03</pdfrwt>
<pdfrwt beam="2">  1       -2 0.11048132E+00 0.73956256E+03</pdfrwt>
<totfact> 0.32127125E+00</totfact>
</mgrwt>
</event>
<event>
 4    1  0.6502538E-008  0.7461302E+03  0.7818608E-02  0.9842437E-01
         -2   -1    0    0    0  501 -0.00000000000E+00  0.00000000000E+00  0.18457164429E+04  0.18457164430E+04  0.25500000000E-02 0.  1.
          2   -1    0    0  501    0  0.00000000000E+00 -0.00000000000E+00 -0.96994395660E+03  0.96994395660E+03  0.25500000000E-02 0. -1.
    8880023    1    1    2    0    0  0.31340271791E+03 -0.15709474936E+03 -0.80167026928E+03  0.10951645770E+04  0.65864270000E+03 0. -1.
    8880022    1    1    2    0    0 -0.31340271791E+03  0.15709474936E+03  0.16774427556E+04  0.17204958225E+04  0.15294330000E+03 0.  0.
<mgrwt>
<rscale>  0 0.63134014E+03</rscale>
<asrwt>0</asrwt>
<pdfrwt beam="1">  1        2 0.14922215E+00 0.74613017E+03</pdfrwt>
<pdfrwt beam="2">  1       -2 0.28395637E+00 0.74613017E+03</pdfrwt>
<totfact> 0.10942002E+00</totfact>
</mgrwt>
</event>
<event>
 4    1  0.6502538E-008  0.6854987E+03  0.7818608E-02  0.1006370E+00
         -2   -1    0    0    0  501 -0.00000000000E+00  0.00000000000E+00  0.19068532444E+03  0.19068532446E+03  0.25500000000E-02 0.  1.
          2   -1    0    0  501    0  0.00000000000E+00 -0.00000000000E+00 -0.13962916548E+04  0.13962916548E+04  0.25500000000E-02 0. -1.
    8880023    1    1    2    0    0  0.16198430884E+03  0.99293974850E+02 -0.11468346334E+04  0.13360906004E+04  0.65864270000E+03 0. -1.
    8880022    1    1    2    0    0 -0.16198430884E+03 -0.99293974850E+02 -0.58771697001E+02  0.25088637893E+03  0.15294330000E+03 0.  0.
<mgrwt>
<rscale>  0 0.52943217E+03</rscale>
<asrwt>0</asrwt>
<pdfrwt beam="1">  1        2 0.21481409E+00 0.68549866E+03</pdfrwt>
<pdfrwt beam="2">  1       -2 0.29336205E-01 0.68549866E+03</pdfrwt>
<totfact> 0.15850388E+02</totfact>
</mgrwt>
</event>
<event>
 4    1  0.6502538E-008  0.7520032E+03  0.7818608E-02  0.9826268E-01
          2   -1    0    0  501    0  0.00000000000E+00  0.00000000000E+00  0.87020734141E+03  0.87020734141E+03  0.25500000000E-02 0. -1.
         -2   -1    0    0    0  501 -0.00000000000E+00 -0.00000000000E+00 -0.51216225394E+03  0.51216225395E+03  0.25500000000E-02 0.  1.
    8880023    1    1    2    0    0 -0.34034354462E+03 -0.12595599037E+03  0.56206665044E+03  0.93884384520E+03  0.65864270000E+03 0. -1.
    8880022    1    1    2    0    0  0.34034354462E+03  0.12595599037E+03 -0.20402156298E+03  0.44352575015E+03  0.15294330000E+03 0.  0.
<mgrwt>
<rscale>  0 0.63971694E+03</rscale>
<asrwt>0</asrwt>
<pdfrwt beam="1">  1        2 0.13387805E+00 0.75200322E+03</pdfrwt>
<pdfrwt beam="2">  1       -2 0.78794193E-01 0.75200322E+03</pdfrwt>
<totfact> 0.44577281E+01</totfact>
</mgrwt>
</event>
<event>
 4    1  0.6502538E-008  0.1223773E+04  0.7818608E-02  0.9134352E-01
         -2   -1    0    0    0  501 -0.00000000000E+00  0.00000000000E+00  0.14417870664E+04  0.14417870664E+04  0.25500000000E-02 0.  1.
          2   -1    0    0  501    0  0.00000000000E+00 -0.00000000000E+00 -0.20884327481E+04  0.20884327481E+04  0.25500000000E-02 0. -1.
    8880023    1    1    2    0    0  0.99412405980E+03 -0.27482415866E+03 -0.16692370137E+04  0.20697761663E+04  0.65864270000E+03 0.  0.
    8880022    1    1    2    0    0 -0.99412405980E+03  0.27482415866E+03  0.10225913319E+04  0.14604436482E+04  0.15294330000E+03 0.  0.
<mgrwt>
<rscale>  0 0.11757488E+04</rscale>
<asrwt>0</asrwt>
<pdfrwt beam="1">  1        2 0.32129735E+00 0.12237733E+04</pdfrwt>
<pdfrwt beam="2">  1       -2 0.22181339E+00 0.12237733E+04</pdfrwt>
<totfact> 0.55637859E-01</totfact>
</mgrwt>
</event>
<event>
 4    1  0.6502538E-008  0.1695483E+04  0.7818608E-02  0.8782667E-01
         -2   -1    0    0    0  501 -0.00000000000E+00  0.00000000000E+00  0.78924426148E+03  0.78924426148E+03  0.25500000000E-02 0.  1.
          2   -1    0    0  501    0  0.00000000000E+00 -0.00000000000E+00 -0.37922118259E+04  0.37922118259E+04  0.25500000000E-02 0. -1.
    8880023    1    1    2    0    0  0.14038378548E+04  0.68563212970E+03 -0.79573074038E+03  0.18729254543E+04  0.65864270000E+03 0.  1.
    8880022    1    1    2    0    0 -0.14038378548E+04 -0.68563212970E+03 -0.22072368240E+04  0.27085306331E+04  0.15294330000E+03 0.  0.
<mgrwt>
<rscale>  0 0.16631466E+04</rscale>
<asrwt>0</asrwt>
<pdfrwt beam="1">  1        2 0.58341719E+00 0.16954829E+04</pdfrwt>
<pdfrwt beam="2">  1       -2 0.12142220E+00 0.16954829E+04</pdfrwt>
<totfact> 0.24127030E-01</totfact>
</mgrwt>
</event>
<event>
 4    1  0.6502538E-008  0.1095016E+04  0.7818608E-02  0.9266625E-01
         -2   -1    0    0    0  501 -0.00000000000E+00  0.00000000000E+00  0.22617560279E+04  0.22617560279E+04  0.25500000000E-02 0.  1.
          2   -1    0    0  501    0  0.00000000000E+00 -0.00000000000E+00 -0.69857089679E+03  0.69857089680E+03  0.25500000000E-02 0. -1.
    8880023    1    1    2    0    0  0.22258708788E+03  0.84599400823E+03 -0.74298931167E+02  0.10975342414E+04  0.65864270000E+03 0.  0.
    8880022    1    1    2    0    0 -0.22258708788E+03 -0.84599400823E+03  0.16374840623E+04  0.18627926833E+04  0.15294330000E+03 0.  0.
<mgrwt>
<rscale>  0 0.10391435E+04</rscale>
<asrwt>0</asrwt>
<pdfrwt beam="1">  1        2 0.10747244E+00 0.10950165E+04</pdfrwt>
<pdfrwt beam="2">  1       -2 0.34796247E+00 0.10950165E+04</pdfrwt>
<totfact> 0.65795491E-01</totfact>
</mgrwt>
</event>
<event>
 4    1  0.6502538E-008  0.7648109E+03  0.7818608E-02  0.9792808E-01
         -2   -1    0    0    0  501 -0.00000000000E+00  0.00000000000E+00  0.16664291014E+04  0.16664291014E+04  0.25500000000E-02 0.  1.
          2   -1    0    0  501    0  0.00000000000E+00 -0.00000000000E+00 -0.47570613761E+03  0.47570613762E+03  0.25500000000E-02 0. -1.
    8880023    1    1    2    0    0  0.33825908642E+03 -0.19158899947E+03 -0.11300307829E+03  0.77311412885E+03  0.65864270000E+03 0. -1.
    8880022    1    1    2    0    0 -0.33825908642E+03  0.19158899947E+03  0.13037260421E+04  0.13690211102E+04  0.15294330000E+03 0.  0.
<mgrwt>
<rscale>  0 0.65749938E+03</rscale>
<asrwt>0</asrwt>
<pdfrwt beam="1">  1        2 0.73185560E-01 0.76481093E+03</pdfrwt>
<pdfrwt beam="2">  1       -2 0.25637371E+00 0.76481093E+03</pdfrwt>
<totfact> 0.39401064E+00</totfact>
</mgrwt>
</event>
<event>
 4    1  0.6502538E-008  0.6593001E+03  0.7818608E-02  0.1024885E+00
          2   -1    0    0  501    0  0.00000000000E+00  0.00000000000E+00  0.19686983103E+04  0.19686983103E+04  0.25500000000E-02 0. -1.
         -2   -1    0    0    0  501 -0.00000000000E+00 -0.00000000000E+00 -0.17196093750E+03  0.17196093752E+03  0.25500000000E-02 0.  1.
    8880023    1    1    2    0    0  0.11160666078E+02  0.27236465323E+02  0.18593618301E+04  0.19727906648E+04  0.65864270000E+03 0. -1.
    8880022    1    1    2    0    0 -0.11160666078E+02 -0.27236465323E+02 -0.62624457297E+02  0.16786858306E+03  0.15294330000E+03 0.  0.
<mgrwt>
<rscale>  0 0.45964158E+03</rscale>
<asrwt>0</asrwt>
<pdfrwt beam="1">  1        2 0.30287665E+00 0.65930008E+03</pdfrwt>
<pdfrwt beam="2">  1       -2 0.26455530E-01 0.65930008E+03</pdfrwt>
<totfact> 0.93221423E+01</totfact>
</mgrwt>
</event>
<event>
 4    1  0.6502538E-008  0.6697172E+03  0.7818608E-02  0.1015866E+00
          2   -1    0    0  501    0  0.00000000000E+00  0.00000000000E+00  0.21409947786E+04  0.21409947786E+04  0.25500000000E-02 0. -1.
         -2   -1    0    0    0  501 -0.00000000000E+00 -0.00000000000E+00 -0.23025854864E+03  0.23025854865E+03  0.25500000000E-02 0.  1.
    8880023    1    1    2    0    0  0.83621349506E+02  0.87854616914E+02  0.20333075989E+04  0.21407617714E+04  0.65864270000E+03 0. -1.
    8880022    1    1    2    0    0 -0.83621349506E+02 -0.87854616914E+02 -0.12257136897E+03  0.23049155584E+03  0.15294330000E+03 0.  0.
<mgrwt>
<rscale>  0 0.49208254E+03</rscale>
<asrwt>0</asrwt>
<pdfrwt beam="1">  1        2 0.32938380E+00 0.66971723E+03</pdfrwt>
<pdfrwt beam="2">  1       -2 0.35424393E-01 0.66971723E+03</pdfrwt>
<totfact> 0.43583803E+01</totfact>
</mgrwt>
</event>
<event>
 4    1  0.6502538E-008  0.1696684E+04  0.7818608E-02  0.8781948E-01
         -2   -1    0    0    0  501 -0.00000000000E+00  0.00000000000E+00  0.88153969909E+03  0.88153969909E+03  0.25500000000E-02 0.  1.
          2   -1    0    0  501    0  0.00000000000E+00 -0.00000000000E+00 -0.33379295735E+04  0.33379295735E+04  0.25500000000E-02 0. -1.
    8880023    1    1    2    0    0  0.15366831477E+04  0.28901950346E+03 -0.62891842289E+03  0.18094960510E+04  0.65864270000E+03 0.  0.
    8880022    1    1    2    0    0 -0.15366831477E+04 -0.28901950346E+03 -0.18274714515E+04  0.24099732216E+04  0.15294330000E+03 0.  0.
<mgrwt>
<rscale>  0 0.16643741E+04</rscale>
<asrwt>0</asrwt>
<pdfrwt beam="1">  1        2 0.51352762E+00 0.16966843E+04</pdfrwt>
<pdfrwt beam="2">  1       -2 0.13562149E+00 0.16966843E+04</pdfrwt>
<totfact> 0.38199949E-01</totfact>
</mgrwt>
</event>
<event>
 4    1  0.6502538E-008  0.8712677E+03  0.7818608E-02  0.9573826E-01
         -2   -1    0    0    0  501 -0.00000000000E+00  0.00000000000E+00  0.71068472542E+03  0.71068472543E+03  0.25500000000E-02 0.  1.
          2   -1    0    0  501    0  0.00000000000E+00 -0.00000000000E+00 -0.93672945512E+03  0.93672945513E+03  0.25500000000E-02 0. -1.
    8880023    1    1    2    0    0  0.56209182286E+03  0.96695041452E+02 -0.49111418038E+03  0.10001502351E+04  0.65864270000E+03 0. -1.
    8880022    1    1    2    0    0 -0.56209182286E+03 -0.96695041452E+02  0.26506945068E+03  0.64726394544E+03  0.15294330000E+03 0.  0.
<mgrwt>
<rscale>  0 0.79053017E+03</rscale>
<asrwt>0</asrwt>
<pdfrwt beam="1">  1        2 0.14411222E+00 0.87126767E+03</pdfrwt>
<pdfrwt beam="2">  1       -2 0.10933611E+00 0.87126767E+03</pdfrwt>
<totfact> 0.18547721E+01</totfact>
</mgrwt>
</event>
<event>
 4    1  0.6502538E-008  0.9501282E+03  0.7818608E-02  0.9449930E-01
          2   -1    0    0  501    0  0.00000000000E+00  0.00000000000E+00  0.12168112979E+04  0.12168112979E+04  0.25500000000E-02 0. -1.
         -2   -1    0    0    0  501 -0.00000000000E+00 -0.00000000000E+00 -0.14158574225E+04  0.14158574225E+04  0.25500000000E-02 0.  1.
    8880023    1    1    2    0    0  0.37082059737E+03 -0.57569557706E+03  0.91304742874E+03  0.13177249813E+04  0.65864270000E+03 0. -1.
    8880022    1    1    2    0    0 -0.37082059737E+03  0.57569557706E+03 -0.11120935533E+04  0.13149437392E+04  0.15294330000E+03 0.  0.
<mgrwt>
<rscale>  0 0.88078138E+03</rscale>
<asrwt>0</asrwt>
<pdfrwt beam="1">  1        2 0.18720174E+00 0.95012816E+03</pdfrwt>
<pdfrwt beam="2">  1       -2 0.21782422E+00 0.95012816E+03</pdfrwt>
<totfact> 0.18884163E+00</totfact>
</mgrwt>
</event>
<event>
 4    1  0.6502538E-008  0.7404883E+03  0.7818608E-02  0.9858527E-01
          2   -1    0    0  501    0  0.00000000000E+00  0.00000000000E+00  0.37012406227E+03  0.37012406227E+03  0.25500000000E-02 0. -1.
         -2   -1    0    0    0  501 -0.00000000000E+00 -0.00000000000E+00 -0.12556277818E+04  0.12556277818E+04  0.25500000000E-02 0.  1.
    8880023    1    1    2    0    0  0.33529059167E+03 -0.45748898732E+02 -0.87584719112E+02  0.74565007335E+03  0.65864270000E+03 0. -1.
    8880022    1    1    2    0    0 -0.33529059167E+03  0.45748898732E+02 -0.79791900045E+03  0.88010177076E+03  0.15294330000E+03 0.  0.
<mgrwt>
<rscale>  0 0.62314042E+03</rscale>
<asrwt>0</asrwt>
<pdfrwt beam="1">  1        2 0.56942164E-01 0.74048832E+03</pdfrwt>
<pdfrwt beam="2">  1       -2 0.19317350E+00 0.74048832E+03</pdfrwt>
<totfact> 0.13042363E+01</totfact>
</mgrwt>
</event>
<event>
 4    1  0.6502538E-008  0.7649632E+03  0.7818608E-02  0.9792424E-01
         -2   -1    0    0    0  501 -0.00000000000E+00  0.00000000000E+00  0.57568640982E+03  0.57568640983E+03  0.25500000000E-02 0.  1.
          2   -1    0    0  501    0  0.00000000000E+00 -0.00000000000E+00 -0.11950966029E+04  0.11950966029E+04  0.25500000000E-02 0. -1.
    8880023    1    1    2    0    0 -0.68235519778E+02  0.38301754948E+03 -0.96287057572E+03  0.12297513900E+04  0.65864270000E+03 0. -1.
    8880022    1    1    2    0    0  0.68235519778E+02 -0.38301754948E+03  0.34346038262E+03  0.54103162275E+03  0.15294330000E+03 0.  0.
<mgrwt>
<rscale>  0 0.65770724E+03</rscale>
<asrwt>0</asrwt>
<pdfrwt beam="1">  1        2 0.18386102E+00 0.76496323E+03</pdfrwt>
<pdfrwt beam="2">  1       -2 0.88567140E-01 0.76496323E+03</pdfrwt>
<totfact> 0.21274447E+01</totfact>
</mgrwt>
</event>
<event>
 4    1  0.6502538E-008  0.1454314E+04  0.7818608E-02  0.8942589E-01
         -2   -1    0    0    0  501 -0.00000000000E+00  0.00000000000E+00  0.11565106673E+04  0.11565106673E+04  0.25500000000E-02 0.  1.
          2   -1    0    0  501    0  0.00000000000E+00 -0.00000000000E+00 -0.21637706555E+04  0.21637706555E+04  0.25500000000E-02 0. -1.
    8880023    1    1    2    0    0  0.12835982498E+04  0.18328517348E+03 -0.13350229152E+04  0.19741616732E+04  0.65864270000E+03 0.  0.
    8880022    1    1    2    0    0 -0.12835982498E+04 -0.18328517348E+03  0.32776292697E+03  0.13461196496E+04  0.15294330000E+03 0.  0.
<mgrwt>
<rscale>  0 0.14156199E+04</rscale>
<asrwt>0</asrwt>
<pdfrwt beam="1">  1        2 0.33288779E+00 0.14543136E+04</pdfrwt>
<pdfrwt beam="2">  1       -2 0.17792472E+00 0.14543136E+04</pdfrwt>
<totfact> 0.95897628E-01</totfact>
</mgrwt>
</event>
<event>
 4    1  0.6502538E-008  0.8189839E+03  0.7818608E-02  0.9671159E-01
          2   -1    0    0  501    0  0.00000000000E+00  0.00000000000E+00  0.80641157356E+03  0.80641157356E+03  0.25500000000E-02 0. -1.
         -2   -1    0    0    0  501 -0.00000000000E+00 -0.00000000000E+00 -0.14811032326E+04  0.14811032326E+04  0.25500000000E-02 0.  1.
    8880023    1    1    2    0    0  0.21860433270E+03 -0.43489835810E+03  0.53253660662E+03  0.97689809080E+03  0.65864270000E+03 0. -1.
    8880022    1    1    2    0    0 -0.21860433270E+03  0.43489835810E+03 -0.12072282656E+04  0.13106167153E+04  0.15294330000E+03 0.  0.
<mgrwt>
<rscale>  0 0.72760245E+03</rscale>
<asrwt>0</asrwt>
<pdfrwt beam="1">  1        2 0.12406332E+00 0.81898391E+03</pdfrwt>
<pdfrwt beam="2">  1       -2 0.22786204E+00 0.81898391E+03</pdfrwt>
<totfact> 0.30565173E+00</totfact>
</mgrwt>
</event>
<event>
 4    1  0.6502538E-008  0.7547901E+03  0.7818608E-02  0.9818787E-01
          2   -1    0    0  501    0  0.00000000000E+00  0.00000000000E+00  0.56869240471E+03  0.56869240472E+03  0.25500000000E-02 0. -1.
         -2   -1    0    0    0  501 -0.00000000000E+00 -0.00000000000E+00 -0.75752493675E+03  0.75752493675E+03  0.25500000000E-02 0.  1.
    8880023    1    1    2    0    0  0.33530523094E+03 -0.15319387116E+03  0.18742354943E+03  0.77771187030E+03  0.65864270000E+03 0.  0.
    8880022    1    1    2    0    0 -0.33530523094E+03  0.15319387116E+03 -0.37625608146E+03  0.54850547117E+03  0.15294330000E+03 0.  0.
<mgrwt>
<rscale>  0 0.64364011E+03</rscale>
<asrwt>0</asrwt>
<pdfrwt beam="1">  1        2 0.87491139E-01 0.75479015E+03</pdfrwt>
<pdfrwt beam="2">  1       -2 0.11654230E+00 0.75479015E+03</pdfrwt>
<totfact> 0.30561573E+01</totfact>
</mgrwt>
</event>
<event>
 4    1  0.6502538E-008  0.1070958E+04  0.7818608E-02  0.9294101E-01
         -2   -1    0    0    0  501 -0.00000000000E+00  0.00000000000E+00  0.94255984290E+03  0.94255984290E+03  0.25500000000E-02 0.  1.
          2   -1    0    0  501    0  0.00000000000E+00 -0.00000000000E+00 -0.25529874553E+04  0.25529874553E+04  0.25500000000E-02 0. -1.
    8880023    1    1    2    0    0 -0.51168863855E+03  0.67180071353E+03 -0.22051167824E+04  0.24514264606E+04  0.65864270000E+03 0. -1.
    8880022    1    1    2    0    0  0.51168863855E+03 -0.67180071353E+03  0.59468917001E+03  0.10441208376E+04  0.15294330000E+03 0.  0.
<mgrwt>
<rscale>  0 0.10132776E+04</rscale>
<asrwt>0</asrwt>
<pdfrwt beam="1">  1        2 0.39276730E+00 0.10709583E+04</pdfrwt>
<pdfrwt beam="2">  1       -2 0.14500921E+00 0.10709583E+04</pdfrwt>
<totfact> 0.10582775E+00</totfact>
</mgrwt>
</event>
<event>
 4    1  0.6502538E-008  0.9665779E+03  0.7818608E-02  0.9426653E-01
          2   -1    0    0  501    0  0.00000000000E+00  0.00000000000E+00  0.22560746467E+04  0.22560746467E+04  0.25500000000E-02 0. -1.
         -2   -1    0    0    0  501 -0.00000000000E+00 -0.00000000000E+00 -0.88096250781E+03  0.88096250781E+03  0.25500000000E-02 0.  1.
    8880023    1    1    2    0    0 -0.68882287273E+03  0.16120081531E+03  0.19737846482E+04  0.21977485518E+04  0.65864270000E+03 0. -1.
    8880022    1    1    2    0    0  0.68882287273E+03 -0.16120081531E+03 -0.59867250933E+03  0.93928860277E+03  0.15294330000E+03 0.  0.
<mgrwt>
<rscale>  0 0.89914341E+03</rscale>
<asrwt>0</asrwt>
<pdfrwt beam="1">  1        2 0.34708841E+00 0.96657791E+03</pdfrwt>
<pdfrwt beam="2">  1       -2 0.13553269E+00 0.96657791E+03</pdfrwt>
<totfact> 0.18878931E+00</totfact>
</mgrwt>
</event>
<event>
 4    1  0.6502538E-008  0.1038676E+04  0.7818608E-02  0.9332620E-01
          2   -1    0    0  501    0  0.00000000000E+00  0.00000000000E+00  0.25966538219E+04  0.25966538219E+04  0.25500000000E-02 0. -1.
         -2   -1    0    0    0  501 -0.00000000000E+00 -0.00000000000E+00 -0.38572957819E+03  0.38572957820E+03  0.25500000000E-02 0.  1.
    8880023    1    1    2    0    0 -0.58151829690E+03 -0.55396187619E+03  0.66423760977E+03  0.12329067679E+04  0.65864270000E+03 0.  0.
    8880022    1    1    2    0    0  0.58151829690E+03  0.55396187619E+03  0.15466866340E+04  0.17494766322E+04  0.15294330000E+03 0.  0.
<mgrwt>
<rscale>  0 0.97834477E+03</rscale>
<asrwt>0</asrwt>
<pdfrwt beam="1">  1        2 0.39948519E+00 0.10386758E+04</pdfrwt>
<pdfrwt beam="2">  1       -2 0.59343015E-01 0.10386758E+04</pdfrwt>
<totfact> 0.81752421E+00</totfact>
</mgrwt>
</event>
<event>
 4    1  0.6502538E-008  0.1216402E+04  0.7818608E-02  0.9141341E-01
         -2   -1    0    0    0  501 -0.00000000000E+00  0.00000000000E+00  0.16775404999E+04  0.16775404999E+04  0.25500000000E-02 0.  1.
          2   -1    0    0  501    0  0.00000000000E+00 -0.00000000000E+00 -0.10164773664E+04  0.10164773664E+04  0.25500000000E-02 0. -1.
    8880023    1    1    2    0    0 -0.66775725421E+03  0.77454793266E+03 -0.33143362152E+03  0.12607468827E+04  0.65864270000E+03 0.  0.
    8880022    1    1    2    0    0  0.66775725421E+03 -0.77454793266E+03  0.99249675500E+03  0.14332709835E+04  0.15294330000E+03 0.  0.
<mgrwt>
<rscale>  0 0.11679953E+04</rscale>
<asrwt>0</asrwt>
<pdfrwt beam="1">  1        2 0.15638114E+00 0.12164023E+04</pdfrwt>
<pdfrwt beam="2">  1       -2 0.25808315E+00 0.12164023E+04</pdfrwt>
<totfact> 0.13709287E+00</totfact>
</mgrwt>
</event>
<event>
 4    1  0.6502538E-008  0.1564884E+04  0.7818608E-02  0.8865128E-01
          2   -1    0    0  501    0  0.00000000000E+00  0.00000000000E+00  0.12301858148E+04  0.12301858148E+04  0.25500000000E-02 0. -1.
         -2   -1    0    0    0  501 -0.00000000000E+00 -0.00000000000E+00 -0.19317009285E+04  0.19317009285E+04  0.25500000000E-02 0.  1.
    8880023    1    1    2    0    0  0.14680369202E+03  0.14119133049E+04 -0.74567790875E+03  0.17334636582E+04  0.65864270000E+03 0.  0.
    8880022    1    1    2    0    0 -0.14680369202E+03 -0.14119133049E+04  0.44162795062E+02  0.14284230851E+04  0.15294330000E+03 0.  0.
<mgrwt>
<rscale>  0 0.15294097E+04</rscale>
<asrwt>0</asrwt>
<pdfrwt beam="1">  1        2 0.18925936E+00 0.15648836E+04</pdfrwt>
<pdfrwt beam="2">  1       -2 0.29718476E+00 0.15648836E+04</pdfrwt>
<totfact> 0.56377117E-01</totfact>
</mgrwt>
</event>
<event>
 4    1  0.6502538E-008  0.1030938E+04  0.7818608E-02  0.9342155E-01
          2   -1    0    0  501    0  0.00000000000E+00  0.00000000000E+00  0.18334309631E+04  0.18334309632E+04  0.25500000000E-02 0. -1.
         -2   -1    0    0    0  501 -0.00000000000E+00 -0.00000000000E+00 -0.11942241697E+04  0.11942241697E+04  0.25500000000E-02 0.  1.
    8880023    1    1    2    0    0  0.76452951091E+03 -0.21099376853E+03  0.15174040988E+04  0.18344887976E+04  0.65864270000E+03 0. -1.
    8880022    1    1    2    0    0 -0.76452951091E+03  0.21099376853E+03 -0.87819730531E+03  0.11931663352E+04  0.15294330000E+03 0.  0.
<mgrwt>
<rscale>  0 0.96992925E+03</rscale>
<asrwt>0</asrwt>
<pdfrwt beam="1">  1        2 0.28206630E+00 0.10309384E+04</pdfrwt>
<pdfrwt beam="2">  1       -2 0.18372680E+00 0.10309384E+04</pdfrwt>
<totfact> 0.14013863E+00</totfact>
</mgrwt>
</event>
<event>
 4    1  0.6502538E-008  0.1018064E+04  0.7818608E-02  0.9358297E-01
         -2   -1    0    0    0  501 -0.00000000000E+00  0.00000000000E+00  0.10730532836E+04  0.10730532836E+04  0.25500000000E-02 0.  1.
          2   -1    0    0  501    0  0.00000000000E+00 -0.00000000000E+00 -0.15710919796E+04  0.15710919796E+04  0.25500000000E-02 0. -1.
    8880023    1    1    2    0    0 -0.73076818568E+03 -0.26195856859E+03 -0.12089129599E+04  0.15804825794E+04  0.65864270000E+03 0.  0.
    8880022    1    1    2    0    0  0.73076818568E+03  0.26195856859E+03  0.71087426393E+03  0.10636626838E+04  0.15294330000E+03 0.  0.
<mgrwt>
<rscale>  0 0.95588640E+03</rscale>
<asrwt>0</asrwt>
<pdfrwt beam="1">  1        2 0.24170646E+00 0.10180642E+04</pdfrwt>
<pdfrwt beam="2">  1       -2 0.16508512E+00 0.10180642E+04</pdfrwt>
<totfact> 0.26517781E+00</totfact>
</mgrwt>
</event>
<event>
 4    1  0.6502538E-008  0.7016243E+03  0.7818608E-02  0.9990528E-01
          2   -1    0    0  501    0  0.00000000000E+00  0.00000000000E+00  0.11731449237E+04  0.11731449237E+04  0.25500000000E-02 0. -1.
         -2   -1    0    0    0  501 -0.00000000000E+00 -0.00000000000E+00 -0.47358498282E+03  0.47358498283E+03  0.25500000000E-02 0.  1.
    8880023    1    1    2    0    0 -0.13722548590E+03  0.19908709833E+03  0.10066340981E+04  0.12270244172E+04  0.65864270000E+03 0. -1.
    8880022    1    1    2    0    0  0.13722548590E+03 -0.19908709833E+03 -0.30707415723E+03  0.41970548931E+03  0.15294330000E+03 0.  0.
<mgrwt>
<rscale>  0 0.56067505E+03</rscale>
<asrwt>0</asrwt>
<pdfrwt beam="1">  1        2 0.18048383E+00 0.70162434E+03</pdfrwt>
<pdfrwt beam="2">  1       -2 0.72859229E-01 0.70162434E+03</pdfrwt>
<totfact> 0.34245458E+01</totfact>
</mgrwt>
</event>
<event>
 4    1  0.6502538E-008  0.9791969E+03  0.7818608E-02  0.9409295E-01
          2   -1    0    0  501    0  0.00000000000E+00  0.00000000000E+00  0.67644364339E+03  0.67644364340E+03  0.25500000000E-02 0. -1.
         -2   -1    0    0    0  501 -0.00000000000E+00 -0.00000000000E+00 -0.14252288709E+04  0.14252288709E+04  0.25500000000E-02 0.  1.
    8880023    1    1    2    0    0 -0.40840958643E+03  0.59851308917E+03  0.89327061487E+02  0.98326285314E+03  0.65864270000E+03 0. -1.
    8880022    1    1    2    0    0  0.40840958643E+03 -0.59851308917E+03 -0.83811228903E+03  0.11184096612E+04  0.15294330000E+03 0.  0.
<mgrwt>
<rscale>  0 0.91314655E+03</rscale>
<asrwt>0</asrwt>
<pdfrwt beam="1">  1        2 0.10406825E+00 0.97919687E+03</pdfrwt>
<pdfrwt beam="2">  1       -2 0.21926598E+00 0.97919687E+03</pdfrwt>
<totfact> 0.42618091E+00</totfact>
</mgrwt>
</event>
<event>
 4    1  0.6502538E-008  0.9993350E+03  0.7818608E-02  0.9382428E-01
          2   -1    0    0  501    0  0.00000000000E+00  0.00000000000E+00  0.19920535676E+04  0.19920535676E+04  0.25500000000E-02 0. -1.
         -2   -1    0    0    0  501 -0.00000000000E+00 -0.00000000000E+00 -0.46523738924E+03  0.46523738925E+03  0.25500000000E-02 0.  1.
    8880023    1    1    2    0    0 -0.48913914844E+03  0.57061653137E+03  0.13333675415E+04  0.16662951537E+04  0.65864270000E+03 0.  0.
    8880022    1    1    2    0    0  0.48913914844E+03 -0.57061653137E+03  0.19344863687E+03  0.79099580311E+03  0.15294330000E+03 0.  0.
<mgrwt>
<rscale>  0 0.93535994E+03</rscale>
<asrwt>0</asrwt>
<pdfrwt beam="1">  1        2 0.30646978E+00 0.99933505E+03</pdfrwt>
<pdfrwt beam="2">  1       -2 0.71574983E-01 0.99933505E+03</pdfrwt>
<totfact> 0.11983312E+01</totfact>
</mgrwt>
</event>
<event>
 4    1  0.6502538E-008  0.7661923E+03  0.7818608E-02  0.9789332E-01
          2   -1    0    0  501    0  0.00000000000E+00  0.00000000000E+00  0.16612396708E+04  0.16612396708E+04  0.25500000000E-02 0. -1.
         -2   -1    0    0    0  501 -0.00000000000E+00 -0.00000000000E+00 -0.34915739863E+03  0.34915739863E+03  0.25500000000E-02 0.  1.
    8880023    1    1    2    0    0 -0.33662411626E+03  0.19981166406E+03  0.13859891613E+04  0.15836718909E+04  0.65864270000E+03 0. -1.
    8880022    1    1    2    0    0  0.33662411626E+03 -0.19981166406E+03 -0.73906889039E+02  0.42672517855E+03  0.15294330000E+03 0.  0.
<mgrwt>
<rscale>  0 0.65938198E+03</rscale>
<asrwt>0</asrwt>
<pdfrwt beam="1">  1        2 0.25557533E+00 0.76619234E+03</pdfrwt>
<pdfrwt beam="2">  1       -2 0.53716523E-01 0.76619234E+03</pdfrwt>
<totfact> 0.34452687E+01</totfact>
</mgrwt>
</event>
<event>
 4    1  0.6502538E-008  0.8905021E+03  0.7818608E-02  0.9541454E-01
         -2   -1    0    0    0  501 -0.00000000000E+00  0.00000000000E+00  0.40100038817E+03  0.40100038818E+03  0.25500000000E-02 0.  1.
          2   -1    0    0  501    0  0.00000000000E+00 -0.00000000000E+00 -0.24500324764E+04  0.24500324764E+04  0.25500000000E-02 0. -1.
    8880023    1    1    2    0    0  0.38677813892E+03  0.45780607873E+03 -0.20472121253E+04  0.22325033990E+04  0.65864270000E+03 0. -1.
    8880022    1    1    2    0    0 -0.38677813892E+03 -0.45780607873E+03 -0.18199629326E+01  0.61852946554E+03  0.15294330000E+03 0.  0.
<mgrwt>
<rscale>  0 0.81295373E+03</rscale>
<asrwt>0</asrwt>
<pdfrwt beam="1">  1        2 0.37692806E+00 0.89050207E+03</pdfrwt>
<pdfrwt beam="2">  1       -2 0.61692369E-01 0.89050207E+03</pdfrwt>
<totfact> 0.93126462E+00</totfact>
</mgrwt>
</event>
<event>
 4    1  0.6502538E-008  0.7487546E+03  0.7818608E-02  0.9835142E-01
         -2   -1    0    0    0  501 -0.00000000000E+00  0.00000000000E+00  0.86015121801E+03  0.86015121802E+03  0.25500000000E-02 0.  1.
          2   -1    0    0  501    0  0.00000000000E+00 -0.00000000000E+00 -0.85828626870E+03  0.85828626870E+03  0.25500000000E-02 0. -1.
    8880023    1    1    2    0    0  0.34116505015E+03 -0.10212586503E+03 -0.62909067081E+03  0.97795120641E+03  0.65864270000E+03 0. -1.
    8880022    1    1    2    0    0 -0.34116505015E+03  0.10212586503E+03  0.63095562012E+03  0.74048628031E+03  0.15294330000E+03 0.  0.
<mgrwt>
<rscale>  0 0.63510244E+03</rscale>
<asrwt>0</asrwt>
<pdfrwt beam="1">  1        2 0.13204404E+00 0.74875463E+03</pdfrwt>
<pdfrwt beam="2">  1       -2 0.13233096E+00 0.74875463E+03</pdfrwt>
<totfact> 0.13208329E+01</totfact>
</mgrwt>
</event>
<event>
 4    1  0.6502538E-008  0.8947510E+03  0.7818608E-02  0.9534511E-01
         -2   -1    0    0    0  501 -0.00000000000E+00  0.00000000000E+00  0.34136965018E+03  0.34136965019E+03  0.25500000000E-02 0.  1.
          2   -1    0    0  501    0  0.00000000000E+00 -0.00000000000E+00 -0.27758556297E+04  0.27758556297E+04  0.25500000000E-02 0. -1.
    8880023    1    1    2    0    0 -0.56331073507E+03  0.22237403954E+03 -0.23141611945E+04  0.24811129434E+04  0.65864270000E+03 0. -1.
    8880022    1    1    2    0    0  0.56331073507E+03 -0.22237403954E+03 -0.12032478504E+03  0.63611233647E+03  0.15294330000E+03 0.  0.
<mgrwt>
<rscale>  0 0.81786593E+03</rscale>
<asrwt>0</asrwt>
<pdfrwt beam="1">  1        2 0.42705470E+00 0.89475103E+03</pdfrwt>
<pdfrwt beam="2">  1       -2 0.52518410E-01 0.89475103E+03</pdfrwt>
<totfact> 0.84489281E+00</totfact>
</mgrwt>
</event>
<event>
 4    1  0.6502538E-008  0.6946416E+03  0.7818608E-02  0.1002020E+00
          2   -1    0    0  501    0  0.00000000000E+00  0.00000000000E+00  0.24299752724E+04  0.24299752724E+04  0.25500000000E-02 0. -1.
         -2   -1    0    0    0  501 -0.00000000000E+00 -0.00000000000E+00 -0.16466613659E+03  0.16466613661E+03  0.25500000000E-02 0.  1.
    8880023    1    1    2    0    0  0.75433768639E+02 -0.20742824023E+03  0.22150918671E+04  0.23214562056E+04  0.65864270000E+03 0.  0.
    8880022    1    1    2    0    0 -0.75433768639E+02  0.20742824023E+03  0.50217268704E+02  0.27318520346E+03  0.15294330000E+03 0.  0.
<mgrwt>
<rscale>  0 0.54773287E+03</rscale>
<asrwt>0</asrwt>
<pdfrwt beam="1">  1        2 0.37384231E+00 0.69464159E+03</pdfrwt>
<pdfrwt beam="2">  1       -2 0.25333254E-01 0.69464159E+03</pdfrwt>
<totfact> 0.55943317E+01</totfact>
</mgrwt>
</event>
<event>
 4    1  0.6502538E-008  0.1034741E+04  0.7818608E-02  0.9337454E-01
          2   -1    0    0  501    0  0.00000000000E+00  0.00000000000E+00  0.26172435861E+04  0.26172435861E+04  0.25500000000E-02 0. -1.
         -2   -1    0    0    0  501 -0.00000000000E+00 -0.00000000000E+00 -0.68591226696E+03  0.68591226697E+03  0.25500000000E-02 0.  1.
    8880023    1    1    2    0    0 -0.30398110833E+03 -0.73788492094E+03  0.22131544978E+04  0.24431008387E+04  0.65864270000E+03 0.  0.
    8880022    1    1    2    0    0  0.30398110833E+03  0.73788492094E+03 -0.28182317861E+03  0.86005501440E+03  0.15294330000E+03 0.  0.
<mgrwt>
<rscale>  0 0.97406728E+03</rscale>
<asrwt>0</asrwt>
<pdfrwt beam="1">  1        2 0.40265286E+00 0.10347410E+04</pdfrwt>
<pdfrwt beam="2">  1       -2 0.10552496E+00 0.10347410E+04</pdfrwt>
<totfact> 0.21710380E+00</totfact>
</mgrwt>
</event>
<event>
 4    1  0.6502538E-008  0.7148075E+03  0.7818608E-02  0.9940564E-01
         -2   -1    0    0    0  501 -0.00000000000E+00  0.00000000000E+00  0.56037872272E+03  0.56037872272E+03  0.25500000000E-02 0.  1.
          2   -1    0    0  501    0  0.00000000000E+00 -0.00000000000E+00 -0.19888216476E+04  0.19888216476E+04  0.25500000000E-02 0. -1.
    8880023    1    1    2    0    0  0.20041723889E+03  0.19228246008E+03 -0.18720812785E+04  0.20039057198E+04  0.65864270000E+03 0. -1.
    8880022    1    1    2    0    0 -0.20041723889E+03 -0.19228246008E+03  0.44363835363E+03  0.54529465056E+03  0.15294330000E+03 0.  0.
<mgrwt>
<rscale>  0 0.58335038E+03</rscale>
<asrwt>0</asrwt>
<pdfrwt beam="1">  1        2 0.30597256E+00 0.71480754E+03</pdfrwt>
<pdfrwt beam="2">  1       -2 0.86212112E-01 0.71480754E+03</pdfrwt>
<totfact> 0.82317764E+00</totfact>
</mgrwt>
</event>
<event>
 4    1  0.6502538E-008  0.6700599E+03  0.7818608E-02  0.1015620E+00
          2   -1    0    0  501    0  0.00000000000E+00  0.00000000000E+00  0.39916632613E+04  0.39916632613E+04  0.25500000000E-02 0. -1.
         -2   -1    0    0    0  501 -0.00000000000E+00 -0.00000000000E+00 -0.93488195813E+02  0.93488195848E+02  0.25500000000E-02 0.  1.
    8880023    1    1    2    0    0 -0.10664853496E+03  0.61613409752E+02  0.38124471879E+04  0.38708828307E+04  0.65864270000E+03 0. -1.
    8880022    1    1    2    0    0  0.10664853496E+03 -0.61613409752E+02  0.85727877598E+02  0.21426862645E+03  0.15294330000E+03 0.  0.
<mgrwt>
<rscale>  0 0.49300903E+03</rscale>
<asrwt>0</asrwt>
<pdfrwt beam="1">  1        2 0.61410202E+00 0.67005994E+03</pdfrwt>
<pdfrwt beam="2">  1       -2 0.14382800E-01 0.67005994E+03</pdfrwt>
<totfact> 0.14623376E+01</totfact>
</mgrwt>
</event>
<event>
 4    1  0.6502538E-008  0.9146906E+03  0.7818608E-02  0.9502848E-01
         -2   -1    0    0    0  501 -0.00000000000E+00  0.00000000000E+00  0.41634884610E+03  0.41634884611E+03  0.25500000000E-02 0.  1.
          2   -1    0    0  501    0  0.00000000000E+00 -0.00000000000E+00 -0.27988666099E+04  0.27988666099E+04  0.25500000000E-02 0. -1.
    8880023    1    1    2    0    0 -0.50343057993E+03  0.38653112878E+03 -0.23934252110E+04  0.25622535216E+04  0.65864270000E+03 0. -1.
    8880022    1    1    2    0    0  0.50343057993E+03 -0.38653112878E+03  0.10907447173E+02  0.65296193437E+03  0.15294330000E+03 0.  0.
<mgrwt>
<rscale>  0 0.84074148E+03</rscale>
<asrwt>0</asrwt>
<pdfrwt beam="1">  1        2 0.43059485E+00 0.91469059E+03</pdfrwt>
<pdfrwt beam="2">  1       -2 0.64053670E-01 0.91469059E+03</pdfrwt>
<totfact> 0.53763448E+00</totfact>
</mgrwt>
</event>
<event>
 4    1  0.6502538E-008  0.1023900E+04  0.7818608E-02  0.9350937E-01
         -2   -1    0    0    0  501 -0.00000000000E+00  0.00000000000E+00  0.12115476019E+04  0.12115476019E+04  0.25500000000E-02 0.  1.
          2   -1    0    0  501    0  0.00000000000E+00 -0.00000000000E+00 -0.16438954261E+04  0.16438954261E+04  0.25500000000E-02 0. -1.
    8880023    1    1    2    0    0  0.75739437574E+03 -0.20227164740E+03 -0.13139817420E+04  0.16658085978E+04  0.65864270000E+03 0. -1.
    8880022    1    1    2    0    0 -0.75739437574E+03  0.20227164740E+03  0.88163391781E+03  0.11896344303E+04  0.15294330000E+03 0.  0.
<mgrwt>
<rscale>  0 0.96225790E+03</rscale>
<asrwt>0</asrwt>
<pdfrwt beam="1">  1        2 0.25290699E+00 0.10238995E+04</pdfrwt>
<pdfrwt beam="2">  1       -2 0.18639194E+00 0.10238995E+04</pdfrwt>
<totfact> 0.17121232E+00</totfact>
</mgrwt>
</event>
<event>
 4    1  0.6502538E-008  0.1705588E+04  0.7818608E-02  0.8776641E-01
          2   -1    0    0  501    0  0.00000000000E+00  0.00000000000E+00  0.33225476806E+04  0.33225476806E+04  0.25500000000E-02 0. -1.
         -2   -1    0    0    0  501 -0.00000000000E+00 -0.00000000000E+00 -0.15311383990E+04  0.15311383990E+04  0.25500000000E-02 0.  1.
    8880023    1    1    2    0    0 -0.12369304964E+04 -0.97222642689E+03  0.25756171110E+04  0.30891479386E+04  0.65864270000E+03 0.  0.
    8880022    1    1    2    0    0  0.12369304964E+04  0.97222642689E+03 -0.78420782938E+03  0.17645381409E+04  0.15294330000E+03 0.  0.
<mgrwt>
<rscale>  0 0.16734704E+04</rscale>
<asrwt>0</asrwt>
<pdfrwt beam="1">  1        2 0.51116118E+00 0.17055883E+04</pdfrwt>
<pdfrwt beam="2">  1       -2 0.23555975E+00 0.17055883E+04</pdfrwt>
<totfact> 0.78051470E-02</totfact>
</mgrwt>
</event>
<event>
 4    1  0.6502538E-008  0.9157572E+03  0.7818608E-02  0.9501195E-01
          2   -1    0    0  501    0  0.00000000000E+00  0.00000000000E+00  0.22364446875E+04  0.22364446875E+04  0.25500000000E-02 0. -1.
         -2   -1    0    0    0  501 -0.00000000000E+00 -0.00000000000E+00 -0.36585622414E+03  0.36585622415E+03  0.25500000000E-02 0.  1.
    8880023    1    1    2    0    0 -0.63543707783E+03 -0.31949154120E+02  0.16921335396E+04  0.19240392799E+04  0.65864270000E+03 0. -1.
    8880022    1    1    2    0    0  0.63543707783E+03  0.31949154120E+02  0.17845492376E+03  0.67826163180E+03  0.15294330000E+03 0.  0.
<mgrwt>
<rscale>  0 0.84195748E+03</rscale>
<asrwt>0</asrwt>
<pdfrwt beam="1">  1        2 0.34406841E+00 0.91575719E+03</pdfrwt>
<pdfrwt beam="2">  1       -2 0.56285573E-01 0.91575719E+03</pdfrwt>
<totfact> 0.14843478E+01</totfact>
</mgrwt>
</event>
<event>
 4    1  0.6502538E-008  0.1329404E+04  0.7818608E-02  0.9040575E-01
         -2   -1    0    0    0  501 -0.00000000000E+00  0.00000000000E+00  0.15949735960E+04  0.15949735960E+04  0.25500000000E-02 0.  1.
          2   -1    0    0  501    0  0.00000000000E+00 -0.00000000000E+00 -0.18587918974E+04  0.18587918974E+04  0.25500000000E-02 0. -1.
    8880023    1    1    2    0    0  0.38293801334E+03 -0.10894327241E+04 -0.13257689551E+04  0.18774926660E+04  0.65864270000E+03 0.  0.
    8880022    1    1    2    0    0 -0.38293801334E+03  0.10894327241E+04  0.10619506537E+04  0.15762728274E+04  0.15294330000E+03 0.  0.
<mgrwt>
<rscale>  0 0.12862078E+04</rscale>
<asrwt>0</asrwt>
<pdfrwt beam="1">  1        2 0.28596799E+00 0.13294041E+04</pdfrwt>
<pdfrwt beam="2">  1       -2 0.24538055E+00 0.13294041E+04</pdfrwt>
<totfact> 0.52517536E-01</totfact>
</mgrwt>
</event>
<event>
 4    1  0.6502538E-008  0.1244030E+04  0.7818608E-02  0.9115467E-01
         -2   -1    0    0    0  501 -0.00000000000E+00  0.00000000000E+00  0.12296772446E+04  0.12296772446E+04  0.25500000000E-02 0.  1.
          2   -1    0    0  501    0  0.00000000000E+00 -0.00000000000E+00 -0.15527864332E+04  0.15527864332E+04  0.25500000000E-02 0. -1.
    8880023    1    1    2    0    0  0.10228484940E+04  0.25996411572E+03 -0.93205237254E+03  0.15544556007E+04  0.65864270000E+03 0.  0.
    8880022    1    1    2    0    0 -0.10228484940E+04 -0.25996411572E+03  0.60894318394E+03  0.12280080771E+04  0.15294330000E+03 0.  0.
<mgrwt>
<rscale>  0 0.11970226E+04</rscale>
<asrwt>0</asrwt>
<pdfrwt beam="1">  1        2 0.23889022E+00 0.12440300E+04</pdfrwt>
<pdfrwt beam="2">  1       -2 0.18918111E+00 0.12440300E+04</pdfrwt>
<totfact> 0.17967243E+00</totfact>
</mgrwt>
</event>
<event>
 4    1  0.6502538E-008  0.7534055E+03  0.7818608E-02  0.9822489E-01
          2   -1    0    0  501    0  0.00000000000E+00  0.00000000000E+00  0.15222693318E+04  0.15222693318E+04  0.25500000000E-02 0. -1.
         -2   -1    0    0    0  501 -0.00000000000E+00 -0.00000000000E+00 -0.18496287347E+04  0.18496287347E+04  0.25500000000E-02 0.  1.
    8880023    1    1    2    0    0  0.31594820160E+02  0.36443296051E+03  0.14052651023E+04  0.15944873249E+04  0.65864270000E+03 0. -1.
    8880022    1    1    2    0    0 -0.31594820160E+02 -0.36443296051E+03 -0.17326245052E+04  0.17774107416E+04  0.15294330000E+03 0.  0.
<mgrwt>
<rscale>  0 0.64169490E+03</rscale>
<asrwt>0</asrwt>
<pdfrwt beam="1">  1        2 0.23419528E+00 0.75340548E+03</pdfrwt>
<pdfrwt beam="2">  1       -2 0.28455827E+00 0.75340548E+03</pdfrwt>
<totfact> 0.51168568E-01</totfact>
</mgrwt>
</event>
<event>
 4    1  0.6502538E-008  0.1079013E+04  0.7818608E-02  0.9284790E-01
         -2   -1    0    0    0  501 -0.00000000000E+00  0.00000000000E+00  0.82145009814E+03  0.82145009815E+03  0.25500000000E-02 0.  1.
          2   -1    0    0  501    0  0.00000000000E+00 -0.00000000000E+00 -0.13466216131E+04  0.13466216131E+04  0.25500000000E-02 0. -1.
    8880023    1    1    2    0    0  0.63666429495E+03  0.57019097500E+03 -0.69486762642E+03  0.12833979885E+04  0.65864270000E+03 0. -1.
    8880022    1    1    2    0    0 -0.63666429495E+03 -0.57019097500E+03  0.16969611145E+03  0.88467372273E+03  0.15294330000E+03 0.  0.
<mgrwt>
<rscale>  0 0.10219525E+04</rscale>
<asrwt>0</asrwt>
<pdfrwt beam="1">  1        2 0.20717256E+00 0.10790132E+04</pdfrwt>
<pdfrwt beam="2">  1       -2 0.12637694E+00 0.10790132E+04</pdfrwt>
<totfact> 0.71370730E+00</totfact>
</mgrwt>
</event>
<event>
 4    1  0.6502538E-008  0.1426449E+04  0.7818608E-02  0.8963399E-01
          2   -1    0    0  501    0  0.00000000000E+00  0.00000000000E+00  0.20708092745E+04  0.20708092745E+04  0.25500000000E-02 0. -1.
         -2   -1    0    0    0  501 -0.00000000000E+00 -0.00000000000E+00 -0.11421913577E+04  0.11421913577E+04  0.25500000000E-02 0.  1.
    8880023    1    1    2    0    0  0.12295492103E+04 -0.29858697492E+03  0.12521736490E+04  0.18980765252E+04  0.65864270000E+03 0.  0.
    8880022    1    1    2    0    0 -0.12295492103E+04  0.29858697492E+03 -0.32355573228E+03  0.13149241070E+04  0.15294330000E+03 0.  0.
<mgrwt>
<rscale>  0 0.13868408E+04</rscale>
<asrwt>0</asrwt>
<pdfrwt beam="1">  1        2 0.31858604E+00 0.14264486E+04</pdfrwt>
<pdfrwt beam="2">  1       -2 0.17572175E+00 0.14264486E+04</pdfrwt>
<totfact> 0.11234296E+00</totfact>
</mgrwt>
</event>
<event>
 4    1  0.6502538E-008  0.1073743E+04  0.7818608E-02  0.9290869E-01
         -2   -1    0    0    0  501 -0.00000000000E+00  0.00000000000E+00  0.65548906234E+03  0.65548906234E+03  0.25500000000E-02 0.  1.
          2   -1    0    0  501    0  0.00000000000E+00 -0.00000000000E+00 -0.17195437823E+04  0.17195437823E+04  0.25500000000E-02 0. -1.
    8880023    1    1    2    0    0 -0.65272983807E+03 -0.54134792321E+03 -0.10664332901E+04  0.15133419917E+04  0.65864270000E+03 0.  0.
    8880022    1    1    2    0    0  0.65272983807E+03  0.54134792321E+03  0.23785700678E+01  0.86169085296E+03  0.15294330000E+03 0.  0.
<mgrwt>
<rscale>  0 0.10162784E+04</rscale>
<asrwt>0</asrwt>
<pdfrwt beam="1">  1        2 0.26454520E+00 0.10737430E+04</pdfrwt>
<pdfrwt beam="2">  1       -2 0.10084447E+00 0.10737430E+04</pdfrwt>
<totfact> 0.76624868E+00</totfact>
</mgrwt>
</event>
<event>
 4    1  0.6502538E-008  0.8825044E+03  0.7818608E-02  0.9554722E-01
         -2   -1    0    0    0  501 -0.00000000000E+00  0.00000000000E+00  0.11804988123E+04  0.11804988123E+04  0.25500000000E-02 0.  1.
          2   -1    0    0  501    0  0.00000000000E+00 -0.00000000000E+00 -0.11408208615E+04  0.11408208616E+04  0.25500000000E-02 0. -1.
    8880023    1    1    2    0    0 -0.37702797576E+02  0.58615894172E+03 -0.86249249465E+03  0.12339802735E+04  0.65864270000E+03 0. -1.
    8880022    1    1    2    0    0  0.37702797576E+02 -0.58615894172E+03  0.90217044543E+03  0.10873394003E+04  0.15294330000E+03 0.  0.
<mgrwt>
<rscale>  0 0.80366849E+03</rscale>
<asrwt>0</asrwt>
<pdfrwt beam="1">  1        2 0.17551090E+00 0.88250440E+03</pdfrwt>
<pdfrwt beam="2">  1       -2 0.18161520E+00 0.88250440E+03</pdfrwt>
<totfact> 0.36533430E+00</totfact>
</mgrwt>
</event>
<event>
 4    1  0.6502538E-008  0.6750021E+03  0.7818608E-02  0.1012305E+00
          2   -1    0    0  501    0  0.00000000000E+00  0.00000000000E+00  0.39124463485E+04  0.39124463485E+04  0.25500000000E-02 0. -1.
         -2   -1    0    0    0  501 -0.00000000000E+00 -0.00000000000E+00 -0.88728375025E+03  0.88728375025E+03  0.25500000000E-02 0.  1.
    8880023    1    1    2    0    0 -0.11173273019E+03 -0.96609813611E+02  0.38700622199E+04  0.39284869163E+04  0.65864270000E+03 0. -1.
    8880022    1    1    2    0    0  0.11173273019E+03  0.96609813611E+02 -0.84489962173E+03  0.87124318241E+03  0.15294330000E+03 0.  0.
<mgrwt>
<rscale>  0 0.50568764E+03</rscale>
<asrwt>0</asrwt>
<pdfrwt beam="1">  1        2 0.60191482E+00 0.67500212E+03</pdfrwt>
<pdfrwt beam="2">  1       -2 0.13650519E+00 0.67500212E+03</pdfrwt>
<totfact> 0.17509737E-01</totfact>
</mgrwt>
</event>
<event>
 4    1  0.6502538E-008  0.7831705E+03  0.7818608E-02  0.9748442E-01
         -2   -1    0    0    0  501 -0.00000000000E+00  0.00000000000E+00  0.14517009878E+04  0.14517009878E+04  0.25500000000E-02 0.  1.
          2   -1    0    0  501    0  0.00000000000E+00 -0.00000000000E+00 -0.77296123650E+03  0.77296123650E+03  0.25500000000E-02 0. -1.
    8880023    1    1    2    0    0  0.33975764761E+02  0.42236407088E+03 -0.52267578983E+03  0.94156568996E+03  0.65864270000E+03 0.  0.
    8880022    1    1    2    0    0 -0.33975764761E+02 -0.42236407088E+03  0.12014155412E+04  0.12830965344E+04  0.15294330000E+03 0.  0.
<mgrwt>
<rscale>  0 0.68204415E+03</rscale>
<asrwt>0</asrwt>
<pdfrwt beam="1">  1        2 0.11891712E+00 0.78317046E+03</pdfrwt>
<pdfrwt beam="2">  1       -2 0.22333861E+00 0.78317046E+03</pdfrwt>
<totfact> 0.34654257E+00</totfact>
</mgrwt>
</event>
<event>
 4    1  0.6502538E-008  0.1371161E+04  0.7818608E-02  0.9006422E-01
         -2   -1    0    0    0  501 -0.00000000000E+00  0.00000000000E+00  0.18359744547E+04  0.18359744547E+04  0.25500000000E-02 0.  1.
          2   -1    0    0  501    0  0.00000000000E+00 -0.00000000000E+00 -0.23374095958E+04  0.23374095958E+04  0.25500000000E-02 0. -1.
    8880023    1    1    2    0    0  0.10930755111E+04  0.50145598986E+03 -0.18868551763E+04  0.23324461077E+04  0.65864270000E+03 0.  0.
    8880022    1    1    2    0    0 -0.10930755111E+04 -0.50145598986E+03  0.13854200351E+04  0.18409379428E+04  0.15294330000E+03 0.  0.
<mgrwt>
<rscale>  0 0.13295926E+04</rscale>
<asrwt>0</asrwt>
<pdfrwt beam="1">  1        2 0.35960148E+00 0.13711610E+04</pdfrwt>
<pdfrwt beam="2">  1       -2 0.28245761E+00 0.13711610E+04</pdfrwt>
<totfact> 0.16747874E-01</totfact>
</mgrwt>
</event>
<event>
 4    1  0.6502538E-008  0.1120923E+04  0.7818608E-02  0.9238111E-01
          2   -1    0    0  501    0  0.00000000000E+00  0.00000000000E+00  0.18491850477E+04  0.18491850477E+04  0.25500000000E-02 0. -1.
         -2   -1    0    0    0  501 -0.00000000000E+00 -0.00000000000E+00 -0.78320633042E+03  0.78320633042E+03  0.25500000000E-02 0.  1.
    8880023    1    1    2    0    0 -0.38237170774E+03 -0.82246619001E+03  0.12661664996E+04  0.16910489548E+04  0.65864270000E+03 0. -1.
    8880022    1    1    2    0    0  0.38237170774E+03  0.82246619001E+03 -0.20018778239E+03  0.94134242326E+03  0.15294330000E+03 0.  0.
<mgrwt>
<rscale>  0 0.10668576E+04</rscale>
<asrwt>0</asrwt>
<pdfrwt beam="1">  1        2 0.28449000E+00 0.11209233E+04</pdfrwt>
<pdfrwt beam="2">  1       -2 0.12049328E+00 0.11209233E+04</pdfrwt>
<totfact> 0.41888735E+00</totfact>
</mgrwt>
</event>
<event>
 4    1  0.6502538E-008  0.7818630E+03  0.7818608E-02  0.9751479E-01
          2   -1    0    0  501    0  0.00000000000E+00  0.00000000000E+00  0.43301544996E+03  0.43301544997E+03  0.25500000000E-02 0. -1.
         -2   -1    0    0    0  501 -0.00000000000E+00 -0.00000000000E+00 -0.18100899608E+04  0.18100899608E+04  0.25500000000E-02 0.  1.
    8880023    1    1    2    0    0  0.39928577147E+03 -0.13442637473E+03  0.13605952877E+02  0.78198139731E+03  0.65864270000E+03 0. -1.
    8880022    1    1    2    0    0 -0.39928577147E+03  0.13442637473E+03 -0.13906804637E+04  0.14611240134E+04  0.15294330000E+03 0.  0.
<mgrwt>
<rscale>  0 0.68032766E+03</rscale>
<asrwt>0</asrwt>
<pdfrwt beam="1">  1        2 0.66617762E-01 0.78186302E+03</pdfrwt>
<pdfrwt beam="2">  1       -2 0.27847537E+00 0.78186302E+03</pdfrwt>
<totfact> 0.32236040E+00</totfact>
</mgrwt>
</event>
<event>
 4    1  0.6502538E-008  0.9975746E+03  0.7818608E-02  0.9384738E-01
         -2   -1    0    0    0  501 -0.00000000000E+00  0.00000000000E+00  0.90998131275E+03  0.90998131275E+03  0.25500000000E-02 0.  1.
          2   -1    0    0  501    0  0.00000000000E+00 -0.00000000000E+00 -0.10775734728E+04  0.10775734728E+04  0.25500000000E-02 0. -1.
    8880023    1    1    2    0    0 -0.74387097085E+03 -0.89447045536E+02 -0.54290220973E+03  0.11357366820E+04  0.65864270000E+03 0. -1.
    8880022    1    1    2    0    0  0.74387097085E+03  0.89447045536E+02  0.37531004966E+03  0.85181810359E+03  0.15294330000E+03 0.  0.
<mgrwt>
<rscale>  0 0.93342417E+03</rscale>
<asrwt>0</asrwt>
<pdfrwt beam="1">  1        2 0.16578053E+00 0.99757456E+03</pdfrwt>
<pdfrwt beam="2">  1       -2 0.13999713E+00 0.99757456E+03</pdfrwt>
<totfact> 0.80134108E+00</totfact>
</mgrwt>
</event>
<event>
 4    1  0.6502538E-008  0.8917900E+03  0.7818608E-02  0.9539342E-01
         -2   -1    0    0    0  501 -0.00000000000E+00  0.00000000000E+00  0.20796093020E+04  0.20796093020E+04  0.25500000000E-02 0.  1.
          2   -1    0    0  501    0  0.00000000000E+00 -0.00000000000E+00 -0.59281033925E+03  0.59281033925E+03  0.25500000000E-02 0. -1.
    8880023    1    1    2    0    0 -0.30781968678E+03  0.51645544353E+03 -0.16592636505E+03  0.90709478535E+03  0.65864270000E+03 0. -1.
    8880022    1    1    2    0    0  0.30781968678E+03 -0.51645544353E+03  0.16527253278E+04  0.17653248559E+04  0.15294330000E+03 0.  1.
<mgrwt>
<rscale>  0 0.81444418E+03</rscale>
<asrwt>0</asrwt>
<pdfrwt beam="1">  1        2 0.91201591E-01 0.89178999E+03</pdfrwt>
<pdfrwt beam="2">  1       -2 0.31993989E+00 0.89178999E+03</pdfrwt>
<totfact> 0.12351218E+00</totfact>
</mgrwt>
</event>
<event>
 4    1  0.6502538E-008  0.8761647E+03  0.7818608E-02  0.9565432E-01
          2   -1    0    0  501    0  0.00000000000E+00  0.00000000000E+00  0.11518911300E+04  0.11518911300E+04  0.25500000000E-02 0. -1.
         -2   -1    0    0    0  501 -0.00000000000E+00 -0.00000000000E+00 -0.32884626302E+04  0.32884626302E+04  0.25500000000E-02 0.  1.
    8880023    1    1    2    0    0 -0.57780064265E+03 -0.90869089482E+00  0.95238475954E+03  0.12941025249E+04  0.65864270000E+03 0. -1.
    8880022    1    1    2    0    0  0.57780064265E+03  0.90869089482E+00 -0.30889562597E+04  0.31462512354E+04  0.15294330000E+03 0.  0.
<mgrwt>
<rscale>  0 0.79626981E+03</rscale>
<asrwt>0</asrwt>
<pdfrwt beam="1">  1        2 0.17721402E+00 0.87616472E+03</pdfrwt>
<pdfrwt beam="2">  1       -2 0.50591732E+00 0.87616472E+03</pdfrwt>
<totfact> 0.31719576E-02</totfact>
</mgrwt>
</event>
<event>
 4    1  0.6502538E-008  0.7283983E+03  0.7818608E-02  0.9895130E-01
          2   -1    0    0  501    0  0.00000000000E+00  0.00000000000E+00  0.82069501116E+03  0.82069501116E+03  0.25500000000E-02 0. -1.
         -2   -1    0    0    0  501 -0.00000000000E+00 -0.00000000000E+00 -0.55692577312E+03  0.55692577313E+03  0.25500000000E-02 0.  1.
    8880023    1    1    2    0    0  0.35020320742E+02 -0.30907516471E+03  0.56228174083E+03  0.92017652797E+03  0.65864270000E+03 0. -1.
    8880022    1    1    2    0    0 -0.35020320742E+02  0.30907516471E+03 -0.29851250279E+03  0.45744425632E+03  0.15294330000E+03 0.  0.
<mgrwt>
<rscale>  0 0.60497879E+03</rscale>
<asrwt>0</asrwt>
<pdfrwt beam="1">  1        2 0.12626077E+00 0.72839830E+03</pdfrwt>
<pdfrwt beam="2">  1       -2 0.85680888E-01 0.72839830E+03</pdfrwt>
<totfact> 0.40012233E+01</totfact>
</mgrwt>
</event>
<event>
 4    1  0.6502538E-008  0.9331975E+03  0.7818608E-02  0.9474713E-01
         -2   -1    0    0    0  501 -0.00000000000E+00  0.00000000000E+00  0.60282004306E+03  0.60282004306E+03  0.25500000000E-02 0.  1.
          2   -1    0    0  501    0  0.00000000000E+00 -0.00000000000E+00 -0.32424056442E+04  0.32424056442E+04  0.25500000000E-02 0. -1.
    8880023    1    1    2    0    0 -0.66072757886E+03  0.22055202593E+02 -0.29536119133E+04  0.30975281929E+04  0.65864270000E+03 0.  0.
    8880022    1    1    2    0    0  0.66072757886E+03 -0.22055202593E+02  0.31402631208E+03  0.74769749439E+03  0.15294330000E+03 0.  0.
<mgrwt>
<rscale>  0 0.86174087E+03</rscale>
<asrwt>0</asrwt>
<pdfrwt beam="1">  1        2 0.49883163E+00 0.93319750E+03</pdfrwt>
<pdfrwt beam="2">  1       -2 0.92741547E-01 0.93319750E+03</pdfrwt>
<totfact> 0.12451245E+00</totfact>
</mgrwt>
</event>
<event>
 4    1  0.6502538E-008  0.1262578E+04  0.7818608E-02  0.9098569E-01
         -2   -1    0    0    0  501 -0.00000000000E+00  0.00000000000E+00  0.16809128214E+04  0.16809128214E+04  0.25500000000E-02 0.  1.
          2   -1    0    0  501    0  0.00000000000E+00 -0.00000000000E+00 -0.88276216326E+03  0.88276216327E+03  0.25500000000E-02 0. -1.
    8880023    1    1    2    0    0 -0.99417340718E+03  0.41462365192E+03  0.90516787425E+02  0.12658187198E+04  0.65864270000E+03 0.  0.
    8880022    1    1    2    0    0  0.99417340718E+03 -0.41462365192E+03  0.70763387068E+03  0.12978562649E+04  0.15294330000E+03 0.  0.
<mgrwt>
<rscale>  0 0.12164612E+04</rscale>
<asrwt>0</asrwt>
<pdfrwt beam="1">  1        2 0.13580957E+00 0.12625782E+04</pdfrwt>
<pdfrwt beam="2">  1       -2 0.25860197E+00 0.12625782E+04</pdfrwt>
<totfact> 0.16627929E+00</totfact>
</mgrwt>
</event>
<event>
 4    1  0.6502538E-008  0.7031894E+03  0.7818608E-02  0.9984219E-01
          2   -1    0    0  501    0  0.00000000000E+00  0.00000000000E+00  0.70666646307E+03  0.70666646307E+03  0.25500000000E-02 0. -1.
         -2   -1    0    0    0  501 -0.00000000000E+00 -0.00000000000E+00 -0.22298671825E+04  0.22298671825E+04  0.25500000000E-02 0.  1.
    8880023    1    1    2    0    0 -0.23260080958E+03 -0.81005780538E+02  0.51892321134E+03  0.87393167847E+03  0.65864270000E+03 0. -1.
    8880022    1    1    2    0    0  0.23260080958E+03  0.81005780538E+02 -0.20421239308E+04  0.20626019671E+04  0.15294330000E+03 0.  0.
<mgrwt>
<rscale>  0 0.56347646E+03</rscale>
<asrwt>0</asrwt>
<pdfrwt beam="1">  1        2 0.10871792E+00 0.70318936E+03</pdfrwt>
<pdfrwt beam="2">  1       -2 0.34305648E+00 0.70318936E+03</pdfrwt>
<totfact> 0.74102474E-01</totfact>
</mgrwt>
</event>
<event>
 4    1  0.6502538E-008  0.8531574E+03  0.7818608E-02  0.9605853E-01
         -2   -1    0    0    0  501 -0.00000000000E+00  0.00000000000E+00  0.36652675476E+03  0.36652675477E+03  0.25500000000E-02 0.  1.
          2   -1    0    0  501    0  0.00000000000E+00 -0.00000000000E+00 -0.14036091042E+04  0.14036091042E+04  0.25500000000E-02 0. -1.
    8880023    1    1    2    0    0  0.51732856390E+03  0.16259927261E+03 -0.48535429007E+03  0.98155303455E+03  0.65864270000E+03 0.  0.
    8880022    1    1    2    0    0 -0.51732856390E+03 -0.16259927261E+03 -0.55172805940E+03  0.78858282445E+03  0.15294330000E+03 0.  0.
<mgrwt>
<rscale>  0 0.76910004E+03</rscale>
<asrwt>0</asrwt>
<pdfrwt beam="1">  1        2 0.21593986E+00 0.85315741E+03</pdfrwt>
<pdfrwt beam="2">  1       -2 0.56388732E-01 0.85315741E+03</pdfrwt>
<totfact> 0.42954836E+01</totfact>
</mgrwt>
</event>
<event>
 4    1  0.6502538E-008  0.7843594E+03  0.7818608E-02  0.9745695E-01
         -2   -1    0    0    0  501 -0.00000000000E+00  0.00000000000E+00  0.47231346824E+03  0.47231346825E+03  0.25500000000E-02 0.  1.
          2   -1    0    0  501    0  0.00000000000E+00 -0.00000000000E+00 -0.19381800321E+04  0.19381800321E+04  0.25500000000E-02 0. -1.
    8880023    1    1    2    0    0  0.42498056757E+03 -0.28300898350E+02 -0.17207631785E+04  0.18910963874E+04  0.65864270000E+03 0. -1.
    8880022    1    1    2    0    0 -0.42498056757E+03  0.28300898350E+02  0.25489661472E+03  0.51939711288E+03  0.15294330000E+03 0.  0.
<mgrwt>
<rscale>  0 0.68360125E+03</rscale>
<asrwt>0</asrwt>
<pdfrwt beam="1">  1        2 0.29818154E+00 0.78435938E+03</pdfrwt>
<pdfrwt beam="2">  1       -2 0.72663612E-01 0.78435938E+03</pdfrwt>
<totfact> 0.12738913E+01</totfact>
</mgrwt>
</event>
<event>
 4    1  0.6502538E-008  0.8578635E+03  0.7818608E-02  0.9597375E-01
          2   -1    0    0  501    0  0.00000000000E+00  0.00000000000E+00  0.16177777941E+04  0.16177777941E+04  0.25500000000E-02 0. -1.
         -2   -1    0    0    0  501 -0.00000000000E+00 -0.00000000000E+00 -0.76865961141E+03  0.76865961141E+03  0.25500000000E-02 0.  1.
    8880023    1    1    2    0    0  0.86148023573E+02  0.54286102200E+03  0.13683335647E+04  0.16150128550E+04  0.65864270000E+03 0. -1.
    8880022    1    1    2    0    0 -0.86148023573E+02 -0.54286102200E+03 -0.51921538204E+03  0.77142455052E+03  0.15294330000E+03 0.  0.
<mgrwt>
<rscale>  0 0.77470148E+03</rscale>
<asrwt>0</asrwt>
<pdfrwt beam="1">  1        2 0.24888889E+00 0.85786350E+03</pdfrwt>
<pdfrwt beam="2">  1       -2 0.11825532E+00 0.85786350E+03</pdfrwt>
<totfact> 0.60743119E+00</totfact>
</mgrwt>
</event>
<event>
 4    1  0.6502538E-008  0.7950176E+03  0.7818608E-02  0.9721674E-01
          2   -1    0    0  501    0  0.00000000000E+00  0.00000000000E+00  0.86797056599E+03  0.86797056599E+03  0.25500000000E-02 0. -1.
         -2   -1    0    0    0  501 -0.00000000000E+00 -0.00000000000E+00 -0.86151948373E+03  0.86151948374E+03  0.25500000000E-02 0.  1.
    8880023    1    1    2    0    0 -0.42361583743E+03 -0.13708526933E+03  0.58247144596E+03  0.98555869456E+03  0.65864270000E+03 0. -1.
    8880022    1    1    2    0    0  0.42361583743E+03  0.13708526933E+03 -0.57602036371E+03  0.74393135517E+03  0.15294330000E+03 0. -1.
<mgrwt>
<rscale>  0 0.69740844E+03</rscale>
<asrwt>0</asrwt>
<pdfrwt beam="1">  1        2 0.13353393E+00 0.79501758E+03</pdfrwt>
<pdfrwt beam="2">  1       -2 0.13254146E+00 0.79501758E+03</pdfrwt>
<totfact> 0.12891354E+01</totfact>
</mgrwt>
</event>
<event>
 4    1  0.6502538E-008  0.8336442E+03  0.7818608E-02  0.9642283E-01
         -2   -1    0    0    0  501 -0.00000000000E+00  0.00000000000E+00  0.38829604917E+03  0.38829604918E+03  0.25500000000E-02 0.  1.
          2   -1    0    0  501    0  0.00000000000E+00 -0.00000000000E+00 -0.28139952242E+04  0.28139952242E+04  0.25500000000E-02 0. -1.
    8880023    1    1    2    0    0  0.45950200399E+03  0.22362983747E+03 -0.25255673647E+04  0.26595964197E+04  0.65864270000E+03 0.  0.
    8880022    1    1    2    0    0 -0.45950200399E+03 -0.22362983747E+03  0.99868189659E+02  0.54269485367E+03  0.15294330000E+03 0.  0.
<mgrwt>
<rscale>  0 0.74559713E+03</rscale>
<asrwt>0</asrwt>
<pdfrwt beam="1">  1        2 0.43292233E+00 0.83364417E+03</pdfrwt>
<pdfrwt beam="2">  1       -2 0.59737856E-01 0.83364417E+03</pdfrwt>
<totfact> 0.61882533E+00</totfact>
</mgrwt>
</event>
<event>
 4    1  0.6502538E-008  0.9794170E+03  0.7818608E-02  0.9408996E-01
          2   -1    0    0  501    0  0.00000000000E+00  0.00000000000E+00  0.20354593467E+04  0.20354593467E+04  0.25500000000E-02 0. -1.
         -2   -1    0    0    0  501 -0.00000000000E+00 -0.00000000000E+00 -0.52346991601E+03  0.52346991602E+03  0.25500000000E-02 0.  1.
    8880023    1    1    2    0    0  0.56533671387E+03  0.45369800183E+03  0.15314292049E+04  0.18178374770E+04  0.65864270000E+03 0.  0.
    8880022    1    1    2    0    0 -0.56533671387E+03 -0.45369800183E+03 -0.19439774288E+02  0.74109178564E+03  0.15294330000E+03 0.  0.
<mgrwt>
<rscale>  0 0.91339024E+03</rscale>
<asrwt>0</asrwt>
<pdfrwt beam="1">  1        2 0.31314759E+00 0.97941701E+03</pdfrwt>
<pdfrwt beam="2">  1       -2 0.80533834E-01 0.97941701E+03</pdfrwt>
<totfact> 0.87369692E+00</totfact>
</mgrwt>
</event>
<event>
 4    1  0.6502538E-008  0.1195961E+04  0.7818608E-02  0.9161058E-01
         -2   -1    0    0    0  501 -0.00000000000E+00  0.00000000000E+00  0.12367356225E+04  0.12367356225E+04  0.25500000000E-02 0.  1.
          2   -1    0    0  501    0  0.00000000000E+00 -0.00000000000E+00 -0.16234973221E+04  0.16234973221E+04  0.25500000000E-02 0. -1.
    8880023    1    1    2    0    0 -0.87769132544E+03  0.47557410094E+03 -0.10991661967E+04  0.16243427355E+04  0.65864270000E+03 0.  0.
    8880022    1    1    2    0    0  0.87769132544E+03 -0.47557410094E+03  0.71240449708E+03  0.12358902090E+04  0.15294330000E+03 0.  0.
<mgrwt>
<rscale>  0 0.11464569E+04</rscale>
<asrwt>0</asrwt>
<pdfrwt beam="1">  1        2 0.24976882E+00 0.11959611E+04</pdfrwt>
<pdfrwt beam="2">  1       -2 0.19026702E+00 0.11959611E+04</pdfrwt>
<totfact> 0.16210112E+00</totfact>
</mgrwt>
</event>
<event>
 4    1  0.6502538E-008  0.9647180E+03  0.7818608E-02  0.9429247E-01
          2   -1    0    0  501    0  0.00000000000E+00  0.00000000000E+00  0.35792623700E+04  0.35792623700E+04  0.25500000000E-02 0. -1.
         -2   -1    0    0    0  501 -0.00000000000E+00 -0.00000000000E+00 -0.12666191071E+04  0.12666191071E+04  0.25500000000E-02 0.  1.
    8880023    1    1    2    0    0 -0.82327524858E+02  0.70006631218E+03  0.34038009689E+04  0.35378725111E+04  0.65864270000E+03 0. -1.
    8880022    1    1    2    0    0  0.82327524858E+02 -0.70006631218E+03 -0.10911577060E+04  0.13080089660E+04  0.15294330000E+03 0.  0.
<mgrwt>
<rscale>  0 0.89707363E+03</rscale>
<asrwt>0</asrwt>
<pdfrwt beam="1">  1        2 0.55065574E+00 0.96471803E+03</pdfrwt>
<pdfrwt beam="2">  1       -2 0.19486448E+00 0.96471803E+03</pdfrwt>
<totfact> 0.10704557E-01</totfact>
</mgrwt>
</event>
<event>
 4    1  0.6502538E-008  0.1106335E+04  0.7818608E-02  0.9254036E-01
         -2   -1    0    0    0  501 -0.00000000000E+00  0.00000000000E+00  0.90224859840E+03  0.90224859841E+03  0.25500000000E-02 0.  1.
          2   -1    0    0  501    0  0.00000000000E+00 -0.00000000000E+00 -0.20933653962E+04  0.20933653962E+04  0.25500000000E-02 0. -1.
    8880023    1    1    2    0    0 -0.22754540348E+03  0.85929583940E+03 -0.16476974866E+04  0.19846620528E+04  0.65864270000E+03 0.  0.
    8880022    1    1    2    0    0  0.22754540348E+03 -0.85929583940E+03  0.45658068879E+03  0.10109519418E+04  0.15294330000E+03 0.  0.
<mgrwt>
<rscale>  0 0.10512680E+04</rscale>
<asrwt>0</asrwt>
<pdfrwt beam="1">  1        2 0.32205621E+00 0.11063347E+04</pdfrwt>
<pdfrwt beam="2">  1       -2 0.13880748E+00 0.11063347E+04</pdfrwt>
<totfact> 0.21451813E+00</totfact>
</mgrwt>
</event>
<event>
 4    1  0.6502538E-008  0.1296402E+04  0.7818608E-02  0.9068673E-01
          2   -1    0    0  501    0  0.00000000000E+00  0.00000000000E+00  0.33670668442E+04  0.33670668442E+04  0.25500000000E-02 0. -1.
         -2   -1    0    0    0  501 -0.00000000000E+00 -0.00000000000E+00 -0.68735879807E+03  0.68735879807E+03  0.25500000000E-02 0.  1.
    8880023    1    1    2    0    0 -0.83882112716E+03 -0.73704000449E+03  0.17542847317E+03  0.13082179509E+04  0.65864270000E+03 0.  1.
    8880022    1    1    2    0    0  0.83882112716E+03  0.73704000449E+03  0.25042795730E+04  0.27462076914E+04  0.15294330000E+03 0.  0.
<mgrwt>
<rscale>  0 0.12518163E+04</rscale>
<asrwt>0</asrwt>
<pdfrwt beam="1">  1        2 0.51801028E+00 0.12964024E+04</pdfrwt>
<pdfrwt beam="2">  1       -2 0.10574751E+00 0.12964024E+04</pdfrwt>
<totfact> 0.71349377E-01</totfact>
</mgrwt>
</event>
<event>
 4    1  0.6502538E-008  0.1901727E+04  0.7818608E-02  0.8668258E-01
          2   -1    0    0  501    0  0.00000000000E+00  0.00000000000E+00  0.34866195891E+04  0.34866195891E+04  0.25500000000E-02 0. -1.
         -2   -1    0    0    0  501 -0.00000000000E+00 -0.00000000000E+00 -0.15887016391E+04  0.15887016391E+04  0.25500000000E-02 0.  1.
    8880023    1    1    2    0    0  0.87787284457E+03 -0.15530914604E+04 -0.60698864174E+03  0.19962462857E+04  0.65864270000E+03 0.  1.
    8880022    1    1    2    0    0 -0.87787284457E+03  0.15530914604E+04  0.25049065917E+04  0.30790749425E+04  0.15294330000E+03 0.  0.
<mgrwt>
<rscale>  0 0.18733070E+04</rscale>
<asrwt>0</asrwt>
<pdfrwt beam="1">  1        2 0.53640301E+00 0.19017266E+04</pdfrwt>
<pdfrwt beam="2">  1       -2 0.24441564E+00 0.19017266E+04</pdfrwt>
<totfact> 0.51914021E-02</totfact>
</mgrwt>
</event>
<event>
 4    1  0.6502538E-008  0.8241079E+03  0.7818608E-02  0.9660907E-01
          2   -1    0    0  501    0  0.00000000000E+00  0.00000000000E+00  0.19255063443E+04  0.19255063443E+04  0.25500000000E-02 0. -1.
         -2   -1    0    0    0  501 -0.00000000000E+00 -0.00000000000E+00 -0.79225574663E+03  0.79225574664E+03  0.25500000000E-02 0.  1.
    8880023    1    1    2    0    0 -0.45959116613E+03  0.18471468052E+03  0.17366453926E+04  0.19222619434E+04  0.65864270000E+03 0. -1.
    8880022    1    1    2    0    0  0.45959116613E+03 -0.18471468052E+03 -0.60339479492E+03  0.79550014754E+03  0.15294330000E+03 0.  0.
<mgrwt>
<rscale>  0 0.73392826E+03</rscale>
<asrwt>0</asrwt>
<pdfrwt beam="1">  1        2 0.29623174E+00 0.82410786E+03</pdfrwt>
<pdfrwt beam="2">  1       -2 0.12188550E+00 0.82410786E+03</pdfrwt>
<totfact> 0.38381523E+00</totfact>
</mgrwt>
</event>
<event>
 4    1  0.6502538E-008  0.7131388E+03  0.7818608E-02  0.9946525E-01
         -2   -1    0    0    0  501 -0.00000000000E+00  0.00000000000E+00  0.33527395251E+03  0.33527395252E+03  0.25500000000E-02 0.  1.
          2   -1    0    0  501    0  0.00000000000E+00 -0.00000000000E+00 -0.10072553917E+04  0.10072553917E+04  0.25500000000E-02 0. -1.
    8880023    1    1    2    0    0 -0.13632239263E+03  0.23700828354E+03 -0.73375337276E+03  0.10232110923E+04  0.65864270000E+03 0. -1.
    8880022    1    1    2    0    0  0.13632239263E+03 -0.23700828354E+03  0.61771933555E+02  0.31931825189E+03  0.15294330000E+03 0.  1.
<mgrwt>
<rscale>  0 0.58058516E+03</rscale>
<asrwt>0</asrwt>
<pdfrwt beam="1">  1        2 0.15496237E+00 0.71313879E+03</pdfrwt>
<pdfrwt beam="2">  1       -2 0.51580609E-01 0.71313879E+03</pdfrwt>
<totfact> 0.89970030E+01</totfact>
</mgrwt>
</event>
<event>
 4    1  0.6502538E-008  0.7150211E+03  0.7818608E-02  0.9939807E-01
         -2   -1    0    0    0  501 -0.00000000000E+00  0.00000000000E+00  0.14305735728E+03  0.14305735730E+03  0.25500000000E-02 0.  1.
          2   -1    0    0  501    0  0.00000000000E+00 -0.00000000000E+00 -0.30334681745E+04  0.30334681745E+04  0.25500000000E-02 0. -1.
    8880023    1    1    2    0    0  0.26685588441E+03  0.78949145401E+02 -0.27274251797E+04  0.28195927627E+04  0.65864270000E+03 0. -1.
    8880022    1    1    2    0    0 -0.26685588441E+03 -0.78949145401E+02 -0.16298563761E+03  0.35693276914E+03  0.15294330000E+03 0.  0.
<mgrwt>
<rscale>  0 0.58370241E+03</rscale>
<asrwt>0</asrwt>
<pdfrwt beam="1">  1        2 0.46668736E+00 0.71502114E+03</pdfrwt>
<pdfrwt beam="2">  1       -2 0.22008826E-01 0.71502114E+03</pdfrwt>
<totfact> 0.31802472E+01</totfact>
</mgrwt>
</event>
<event>
 4    1  0.6502538E-008  0.8238541E+03  0.7818608E-02  0.9661411E-01
          2   -1    0    0  501    0  0.00000000000E+00  0.00000000000E+00  0.18079837427E+04  0.18079837427E+04  0.25500000000E-02 0. -1.
         -2   -1    0    0    0  501 -0.00000000000E+00 -0.00000000000E+00 -0.10228245588E+04  0.10228245588E+04  0.25500000000E-02 0.  1.
    8880023    1    1    2    0    0 -0.44053247049E+03  0.22551396304E+03  0.16376955201E+04  0.18332436357E+04  0.65864270000E+03 0.  0.
    8880022    1    1    2    0    0  0.44053247049E+03 -0.22551396304E+03 -0.85253633609E+03  0.99756466580E+03  0.15294330000E+03 0.  0.
<mgrwt>
<rscale>  0 0.73361597E+03</rscale>
<asrwt>0</asrwt>
<pdfrwt beam="1">  1        2 0.27815134E+00 0.82385412E+03</pdfrwt>
<pdfrwt beam="2">  1       -2 0.15735763E+00 0.82385412E+03</pdfrwt>
<totfact> 0.22983970E+00</totfact>
</mgrwt>
</event>
<event>
 4    1  0.6502538E-008  0.1389176E+04  0.7818608E-02  0.8992139E-01
          2   -1    0    0  501    0  0.00000000000E+00  0.00000000000E+00  0.13212850685E+04  0.13212850685E+04  0.25500000000E-02 0. -1.
         -2   -1    0    0    0  501 -0.00000000000E+00 -0.00000000000E+00 -0.15366076904E+04  0.15366076904E+04  0.25500000000E-02 0.  1.
    8880023    1    1    2    0    0 -0.11095006597E+04  0.51478903143E+03  0.44605482191E+03  0.14590320665E+04  0.65864270000E+03 0.  0.
    8880022    1    1    2    0    0  0.11095006597E+04 -0.51478903143E+03 -0.66137744376E+03  0.13988606924E+04  0.15294330000E+03 0.  0.
<mgrwt>
<rscale>  0 0.13482692E+04</rscale>
<asrwt>0</asrwt>
<pdfrwt beam="1">  1        2 0.20327463E+00 0.13891759E+04</pdfrwt>
<pdfrwt beam="2">  1       -2 0.23640118E+00 0.13891759E+04</pdfrwt>
<totfact> 0.11933162E+00</totfact>
</mgrwt>
</event>
<event>
 4    1  0.6502538E-008  0.9886820E+03  0.7818608E-02  0.9396517E-01
          2   -1    0    0  501    0  0.00000000000E+00  0.00000000000E+00  0.71312554517E+03  0.71312554517E+03  0.25500000000E-02 0. -1.
         -2   -1    0    0    0  501 -0.00000000000E+00 -0.00000000000E+00 -0.16117635026E+04  0.16117635026E+04  0.25500000000E-02 0.  1.
    8880023    1    1    2    0    0 -0.25866992664E+03  0.69048657776E+03  0.18445000005E+03  0.10057404505E+04  0.65864270000E+03 0.  0.
    8880022    1    1    2    0    0  0.25866992664E+03 -0.69048657776E+03 -0.10830879575E+04  0.13191485973E+04  0.15294330000E+03 0.  0.
<mgrwt>
<rscale>  0 0.92362862E+03</rscale>
<asrwt>0</asrwt>
<pdfrwt beam="1">  1        2 0.10971162E+00 0.98868198E+03</pdfrwt>
<pdfrwt beam="2">  1       -2 0.24796362E+00 0.98868198E+03</pdfrwt>
<totfact> 0.26444031E+00</totfact>
</mgrwt>
</event>
<event>
 4    1  0.6502538E-008  0.1146710E+04  0.7818608E-02  0.9210750E-01
          2   -1    0    0  501    0  0.00000000000E+00  0.00000000000E+00  0.84837286861E+03  0.84837286861E+03  0.25500000000E-02 0. -1.
         -2   -1    0    0    0  501 -0.00000000000E+00 -0.00000000000E+00 -0.45052496532E+04  0.45052496532E+04  0.25500000000E-02 0.  1.
    8880023    1    1    2    0    0 -0.93342918517E+03 -0.99209912601E+02  0.37859660189E+03  0.12075919194E+04  0.65864270000E+03 0. -1.
    8880022    1    1    2    0    0  0.93342918517E+03  0.99209912601E+02 -0.40354733865E+04  0.41460306025E+04  0.15294330000E+03 0.  0.
<mgrwt>
<rscale>  0 0.10943156E+04</rscale>
<asrwt>0</asrwt>
<pdfrwt beam="1">  1        2 0.13051891E+00 0.11467096E+04</pdfrwt>
<pdfrwt beam="2">  1       -2 0.69311532E+00 0.11467096E+04</pdfrwt>
<totfact> 0.75094692E-03</totfact>
</mgrwt>
</event>
<event>
 4    1  0.6502538E-008  0.7258304E+03  0.7818608E-02  0.9903330E-01
         -2   -1    0    0    0  501 -0.00000000000E+00  0.00000000000E+00  0.27201553408E+03  0.27201553409E+03  0.25500000000E-02 0.  1.
          2   -1    0    0  501    0  0.00000000000E+00 -0.00000000000E+00 -0.17561996040E+04  0.17561996040E+04  0.25500000000E-02 0. -1.
    8880023    1    1    2    0    0 -0.29355769062E+03  0.82725483250E+02 -0.15207357971E+04  0.16850718662E+04  0.65864270000E+03 0. -1.
    8880022    1    1    2    0    0  0.29355769062E+03 -0.82725483250E+02  0.36551727177E+02  0.34314327193E+03  0.15294330000E+03 0.  0.
<mgrwt>
<rscale>  0 0.60100179E+03</rscale>
<asrwt>0</asrwt>
<pdfrwt beam="1">  1        2 0.27018455E+00 0.72583044E+03</pdfrwt>
<pdfrwt beam="2">  1       -2 0.41848545E-01 0.72583044E+03</pdfrwt>
<totfact> 0.50784043E+01</totfact>
</mgrwt>
</event>
<event>
 4    1  0.6502538E-008  0.1015526E+04  0.7818608E-02  0.9361521E-01
          2   -1    0    0  501    0  0.00000000000E+00  0.00000000000E+00  0.22184210373E+04  0.22184210373E+04  0.25500000000E-02 0. -1.
         -2   -1    0    0    0  501 -0.00000000000E+00 -0.00000000000E+00 -0.56844486512E+03  0.56844486512E+03  0.25500000000E-02 0.  1.
    8880023    1    1    2    0    0  0.35529489385E+03  0.68647524521E+03  0.17182953237E+04  0.19959538445E+04  0.65864270000E+03 0. -1.
    8880022    1    1    2    0    0 -0.35529489385E+03 -0.68647524521E+03 -0.68319151465E+02  0.79091205792E+03  0.15294330000E+03 0.  0.
<mgrwt>
<rscale>  0 0.95311155E+03</rscale>
<asrwt>0</asrwt>
<pdfrwt beam="1">  1        2 0.34129554E+00 0.10155259E+04</pdfrwt>
<pdfrwt beam="2">  1       -2 0.87453057E-01 0.10155259E+04</pdfrwt>
<totfact> 0.57081271E+00</totfact>
</mgrwt>
</event>
<event>
 4    1  0.6502538E-008  0.8617993E+03  0.7818608E-02  0.9590371E-01
         -2   -1    0    0    0  501 -0.00000000000E+00  0.00000000000E+00  0.35644328924E+03  0.35644328924E+03  0.25500000000E-02 0.  1.
          2   -1    0    0  501    0  0.00000000000E+00 -0.00000000000E+00 -0.24226171821E+04  0.24226171821E+04  0.25500000000E-02 0. -1.
    8880023    1    1    2    0    0  0.27203375812E+03  0.48464989218E+03 -0.20254707355E+04  0.22011882678E+04  0.65864270000E+03 0.  0.
    8880022    1    1    2    0    0 -0.27203375812E+03 -0.48464989218E+03 -0.40703157276E+02  0.57787220349E+03  0.15294330000E+03 0.  0.
<mgrwt>
<rscale>  0 0.77936799E+03</rscale>
<asrwt>0</asrwt>
<pdfrwt beam="1">  1        2 0.37271033E+00 0.86179933E+03</pdfrwt>
<pdfrwt beam="2">  1       -2 0.54837431E-01 0.86179933E+03</pdfrwt>
<totfact> 0.12413487E+01</totfact>
</mgrwt>
</event>
<event>
 4    1  0.6502538E-008  0.1333099E+04  0.7818608E-02  0.9037491E-01
          2   -1    0    0  501    0  0.00000000000E+00  0.00000000000E+00  0.35463464317E+04  0.35463464317E+04  0.25500000000E-02 0. -1.
         -2   -1    0    0    0  501 -0.00000000000E+00 -0.00000000000E+00 -0.59766978063E+03  0.59766978064E+03  0.25500000000E-02 0.  1.
    8880023    1    1    2    0    0 -0.98696351847E+03  0.60765525374E+03  0.26036545339E+04  0.29250929955E+04  0.65864270000E+03 0.  0.
    8880022    1    1    2    0    0  0.98696351847E+03 -0.60765525374E+03  0.34502211717E+03  0.12189232168E+04  0.15294330000E+03 0.  0.
<mgrwt>
<rscale>  0 0.12900520E+04</rscale>
<asrwt>0</asrwt>
<pdfrwt beam="1">  1        2 0.54559174E+00 0.13330987E+04</pdfrwt>
<pdfrwt beam="2">  1       -2 0.91949199E-01 0.13330987E+04</pdfrwt>
<totfact> 0.74650626E-01</totfact>
</mgrwt>
</event>
<event>
 4    1  0.6502538E-008  0.6671816E+03  0.7818608E-02  0.1017769E+00
         -2   -1    0    0    0  501 -0.00000000000E+00  0.00000000000E+00  0.25524388690E+03  0.25524388692E+03  0.25500000000E-02 0.  1.
          2   -1    0    0  501    0  0.00000000000E+00 -0.00000000000E+00 -0.12267356990E+04  0.12267356990E+04  0.25500000000E-02 0. -1.
    8880023    1    1    2    0    0  0.60145407126E+02 -0.87769849542E+02 -0.10777113822E+04  0.12675145151E+04  0.65864270000E+03 0. -1.
    8880022    1    1    2    0    0 -0.60145407126E+02  0.87769849542E+02  0.10621957012E+03  0.21446507077E+03  0.15294330000E+03 0.  0.
<mgrwt>
<rscale>  0 0.48500255E+03</rscale>
<asrwt>0</asrwt>
<pdfrwt beam="1">  1        2 0.18872857E+00 0.66718155E+03</pdfrwt>
<pdfrwt beam="2">  1       -2 0.39268291E-01 0.66718155E+03</pdfrwt>
<totfact> 0.11438956E+02</totfact>
</mgrwt>
</event>
<event>
 4    1  0.6502538E-008  0.1075839E+04  0.7818608E-02  0.9288445E-01
          2   -1    0    0  501    0  0.00000000000E+00  0.00000000000E+00  0.99158894692E+03  0.99158894692E+03  0.25500000000E-02 0. -1.
         -2   -1    0    0    0  501 -0.00000000000E+00 -0.00000000000E+00 -0.11728449339E+04  0.11728449339E+04  0.25500000000E-02 0.  1.
    8880023    1    1    2    0    0 -0.50588359655E+03 -0.68388727455E+03  0.37186952688E+03  0.11382957300E+04  0.65864270000E+03 0.  0.
    8880022    1    1    2    0    0  0.50588359655E+03  0.68388727455E+03 -0.55312551387E+03  0.10261381509E+04  0.15294330000E+03 0.  0.
<mgrwt>
<rscale>  0 0.10185362E+04</rscale>
<asrwt>0</asrwt>
<pdfrwt beam="1">  1        2 0.15255215E+00 0.10758393E+04</pdfrwt>
<pdfrwt beam="2">  1       -2 0.18043768E+00 0.10758393E+04</pdfrwt>
<totfact> 0.45189572E+00</totfact>
</mgrwt>
</event>
<event>
 4    1  0.6502538E-008  0.9458021E+03  0.7818608E-02  0.9456180E-01
         -2   -1    0    0    0  501 -0.00000000000E+00  0.00000000000E+00  0.12383707412E+04  0.12383707412E+04  0.25500000000E-02 0.  1.
          2   -1    0    0  501    0  0.00000000000E+00 -0.00000000000E+00 -0.97523398174E+03  0.97523398174E+03  0.25500000000E-02 0. -1.
    8880023    1    1    2    0    0 -0.55946446963E+03  0.38435789549E+03 -0.58844510729E+03  0.11139162155E+04  0.65864270000E+03 0. -1.
    8880022    1    1    2    0    0  0.55946446963E+03 -0.38435789549E+03  0.85158186674E+03  0.10996885074E+04  0.15294330000E+03 0.  0.
<mgrwt>
<rscale>  0 0.87593060E+03</rscale>
<asrwt>0</asrwt>
<pdfrwt beam="1">  1        2 0.15003600E+00 0.94580214E+03</pdfrwt>
<pdfrwt beam="2">  1       -2 0.19051858E+00 0.94580214E+03</pdfrwt>
<totfact> 0.40091045E+00</totfact>
</mgrwt>
</event>
<event>
 4    1  0.6502538E-008  0.6802615E+03  0.7818608E-02  0.1009176E+00
          2   -1    0    0  501    0  0.00000000000E+00  0.00000000000E+00  0.10303321802E+04  0.10303321802E+04  0.25500000000E-02 0. -1.
         -2   -1    0    0    0  501 -0.00000000000E+00 -0.00000000000E+00 -0.48957818264E+03  0.48957818265E+03  0.25500000000E-02 0.  1.
    8880023    1    1    2    0    0  0.15626580966E+03  0.67279230321E+02  0.87904882859E+03  0.11115226257E+04  0.65864270000E+03 0.  0.
    8880022    1    1    2    0    0 -0.15626580966E+03 -0.67279230321E+02 -0.33829483106E+03  0.40838773713E+03  0.15294330000E+03 0.  1.
<mgrwt>
<rscale>  0 0.51803390E+03</rscale>
<asrwt>0</asrwt>
<pdfrwt beam="1">  1        2 0.15851264E+00 0.68026150E+03</pdfrwt>
<pdfrwt beam="2">  1       -2 0.75319721E-01 0.68026150E+03</pdfrwt>
<totfact> 0.38984604E+01</totfact>
</mgrwt>
</event>
<event>
 4    1  0.6502538E-008  0.1138474E+04  0.7818608E-02  0.9219382E-01
          2   -1    0    0  501    0  0.00000000000E+00  0.00000000000E+00  0.10558635457E+04  0.10558635457E+04  0.25500000000E-02 0. -1.
         -2   -1    0    0    0  501 -0.00000000000E+00 -0.00000000000E+00 -0.17491719048E+04  0.17491719048E+04  0.25500000000E-02 0.  1.
    8880023    1    1    2    0    0 -0.87983407868E+03 -0.29699403299E+03  0.53477121270E+03  0.12578171242E+04  0.65864270000E+03 0.  0.
    8880022    1    1    2    0    0  0.87983407868E+03  0.29699403299E+03 -0.12280795718E+04  0.15472183264E+04  0.15294330000E+03 0.  0.
<mgrwt>
<rscale>  0 0.10855593E+04</rscale>
<asrwt>0</asrwt>
<pdfrwt beam="1">  1        2 0.16244055E+00 0.11384743E+04</pdfrwt>
<pdfrwt beam="2">  1       -2 0.26910337E+00 0.11384743E+04</pdfrwt>
<totfact> 0.11186707E+00</totfact>
</mgrwt>
</event>
<event>
 4    1  0.6502538E-008  0.7746648E+03  0.7818608E-02  0.9768522E-01
          2   -1    0    0  501    0  0.00000000000E+00  0.00000000000E+00  0.21315044124E+04  0.21315044124E+04  0.25500000000E-02 0. -1.
         -2   -1    0    0    0  501 -0.00000000000E+00 -0.00000000000E+00 -0.23780167494E+03  0.23780167495E+03  0.25500000000E-02 0.  1.
    8880023    1    1    2    0    0 -0.40725728907E+03 -0.20902451175E+02  0.17447743110E+04  0.19090162426E+04  0.65864270000E+03 0.  0.
    8880022    1    1    2    0    0  0.40725728907E+03  0.20902451175E+02  0.14892842649E+03  0.46028984477E+03  0.15294330000E+03 0.  0.
<mgrwt>
<rscale>  0 0.67079544E+03</rscale>
<asrwt>0</asrwt>
<pdfrwt beam="1">  1        2 0.32792375E+00 0.77466484E+03</pdfrwt>
<pdfrwt beam="2">  1       -2 0.36584874E-01 0.77466484E+03</pdfrwt>
<totfact> 0.40898930E+01</totfact>
</mgrwt>
</event>
<event>
 4    1  0.6502538E-008  0.1095759E+04  0.7818608E-02  0.9265793E-01
          2   -1    0    0  501    0  0.00000000000E+00  0.00000000000E+00  0.97882219809E+03  0.97882219809E+03  0.25500000000E-02 0. -1.
         -2   -1    0    0    0  501 -0.00000000000E+00 -0.00000000000E+00 -0.14592743441E+04  0.14592743441E+04  0.25500000000E-02 0.  1.
    8880023    1    1    2    0    0 -0.30832429393E+03 -0.81964250455E+03  0.41931103601E+03  0.11732474831E+04  0.65864270000E+03 0.  0.
    8880022    1    1    2    0    0  0.30832429393E+03  0.81964250455E+03 -0.89976318205E+03  0.12648490591E+04  0.15294330000E+03 0.  0.
<mgrwt>
<rscale>  0 0.10399398E+04</rscale>
<asrwt>0</asrwt>
<pdfrwt beam="1">  1        2 0.15058803E+00 0.10957591E+04</pdfrwt>
<pdfrwt beam="2">  1       -2 0.22450375E+00 0.10957591E+04</pdfrwt>
<totfact> 0.23667558E+00</totfact>
</mgrwt>
</event>
<event>
 4    1  0.6502538E-008  0.8617367E+03  0.7818608E-02  0.9590482E-01
          2   -1    0    0  501    0  0.00000000000E+00  0.00000000000E+00  0.33459834816E+04  0.33459834816E+04  0.25500000000E-02 0. -1.
         -2   -1    0    0    0  501 -0.00000000000E+00 -0.00000000000E+00 -0.29543202555E+03  0.29543202556E+03  0.25500000000E-02 0.  1.
    8880023    1    1    2    0    0  0.16001026527E+03  0.53214352384E+03  0.29280152057E+04  0.30521899132E+04  0.65864270000E+03 0. -1.
    8880022    1    1    2    0    0 -0.16001026527E+03 -0.53214352384E+03  0.12253625035E+03  0.58922559400E+03  0.15294330000E+03 0.  0.
<mgrwt>
<rscale>  0 0.77929391E+03</rscale>
<asrwt>0</asrwt>
<pdfrwt beam="1">  1        2 0.51476666E+00 0.86173675E+03</pdfrwt>
<pdfrwt beam="2">  1       -2 0.45451083E-01 0.86173675E+03</pdfrwt>
<totfact> 0.50273366E+00</totfact>
</mgrwt>
</event>
<event>
 4    1  0.6502538E-008  0.8337207E+03  0.7818608E-02  0.9642136E-01
         -2   -1    0    0    0  501 -0.00000000000E+00  0.00000000000E+00  0.69700140533E+03  0.69700140534E+03  0.25500000000E-02 0.  1.
          2   -1    0    0  501    0  0.00000000000E+00 -0.00000000000E+00 -0.21698973826E+04  0.21698973826E+04  0.25500000000E-02 0. -1.
    8880023    1    1    2    0    0  0.36764994547E+03  0.35512472918E+03 -0.19690682057E+04  0.21382983563E+04  0.65864270000E+03 0. -1.
    8880022    1    1    2    0    0 -0.36764994547E+03 -0.35512472918E+03  0.49617222843E+03  0.72860043162E+03  0.15294330000E+03 0.  0.
<mgrwt>
<rscale>  0 0.74569029E+03</rscale>
<asrwt>0</asrwt>
<pdfrwt beam="1">  1        2 0.33383036E+00 0.83372073E+03</pdfrwt>
<pdfrwt beam="2">  1       -2 0.10723099E+00 0.83372073E+03</pdfrwt>
<totfact> 0.38507826E+00</totfact>
</mgrwt>
</event>
<event>
 4    1  0.6502538E-008  0.1127497E+04  0.7818608E-02  0.9231042E-01
          2   -1    0    0  501    0  0.00000000000E+00  0.00000000000E+00  0.10018400842E+04  0.10018400842E+04  0.25500000000E-02 0. -1.
         -2   -1    0    0    0  501 -0.00000000000E+00 -0.00000000000E+00 -0.24988098397E+04  0.24988098397E+04  0.25500000000E-02 0.  1.
    8880023    1    1    2    0    0  0.89703569145E+03  0.18101187289E+03  0.54906179509E+03  0.12540802969E+04  0.65864270000E+03 0.  0.
    8880022    1    1    2    0    0 -0.89703569145E+03 -0.18101187289E+03 -0.20460315506E+04  0.22465696270E+04  0.15294330000E+03 0.  0.
<mgrwt>
<rscale>  0 0.10738685E+04</rscale>
<asrwt>0</asrwt>
<pdfrwt beam="1">  1        2 0.15412925E+00 0.11274966E+04</pdfrwt>
<pdfrwt beam="2">  1       -2 0.38443228E+00 0.11274966E+04</pdfrwt>
<totfact> 0.23438197E-01</totfact>
</mgrwt>
</event>
<event>
 4    1  0.6502538E-008  0.6633823E+03  0.7818608E-02  0.1020931E+00
          2   -1    0    0  501    0  0.00000000000E+00  0.00000000000E+00  0.95988241222E+03  0.95988241222E+03  0.25500000000E-02 0. -1.
         -2   -1    0    0    0  501 -0.00000000000E+00 -0.00000000000E+00 -0.42553143405E+03  0.42553143406E+03  0.25500000000E-02 0.  1.
    8880023    1    1    2    0    0  0.51631959391E+02  0.60000481773E+02  0.81824107227E+03  0.10533729518E+04  0.65864270000E+03 0. -1.
    8880022    1    1    2    0    0 -0.51631959391E+02 -0.60000481773E+02 -0.28389009410E+03  0.33204089445E+03  0.15294330000E+03 0.  0.
<mgrwt>
<rscale>  0 0.47352169E+03</rscale>
<asrwt>0</asrwt>
<pdfrwt beam="1">  1        2 0.14767422E+00 0.66338234E+03</pdfrwt>
<pdfrwt beam="2">  1       -2 0.65466375E-01 0.66338234E+03</pdfrwt>
<totfact> 0.58793930E+01</totfact>
</mgrwt>
</event>
<event>
 4    1  0.6502538E-008  0.8961088E+03  0.7818608E-02  0.9532307E-01
          2   -1    0    0  501    0  0.00000000000E+00  0.00000000000E+00  0.10324410950E+04  0.10324410950E+04  0.25500000000E-02 0. -1.
         -2   -1    0    0    0  501 -0.00000000000E+00 -0.00000000000E+00 -0.69850284446E+03  0.69850284447E+03  0.25500000000E-02 0.  1.
    8880023    1    1    2    0    0  0.55112549047E+03  0.25585450785E+03  0.56926521660E+03  0.10616373809E+04  0.65864270000E+03 0. -1.
    8880022    1    1    2    0    0 -0.55112549047E+03 -0.25585450785E+03 -0.23532696603E+03  0.66930655860E+03  0.15294330000E+03 0.  0.
<mgrwt>
<rscale>  0 0.81943275E+03</rscale>
<asrwt>0</asrwt>
<pdfrwt beam="1">  1        2 0.15883709E+00 0.89610883E+03</pdfrwt>
<pdfrwt beam="2">  1       -2 0.10746198E+00 0.89610883E+03</pdfrwt>
<totfact> 0.16734057E+01</totfact>
</mgrwt>
</event>
<event>
 4    1  0.6502538E-008  0.1065367E+04  0.7818608E-02  0.9300633E-01
          2   -1    0    0  501    0  0.00000000000E+00  0.00000000000E+00  0.88688292906E+03  0.88688292907E+03  0.25500000000E-02 0. -1.
         -2   -1    0    0    0  501 -0.00000000000E+00 -0.00000000000E+00 -0.18186608515E+04  0.18186608515E+04  0.25500000000E-02 0.  1.
    8880023    1    1    2    0    0 -0.74663439903E+03 -0.37912144340E+03  0.38905202859E+03  0.11341815031E+04  0.65864270000E+03 0.  0.
    8880022    1    1    2    0    0  0.74663439903E+03  0.37912144340E+03 -0.13208299510E+04  0.15713622775E+04  0.15294330000E+03 0.  0.
<mgrwt>
<rscale>  0 0.10072464E+04</rscale>
<asrwt>0</asrwt>
<pdfrwt beam="1">  1        2 0.13644353E+00 0.10653667E+04</pdfrwt>
<pdfrwt beam="2">  1       -2 0.27979398E+00 0.10653667E+04</pdfrwt>
<totfact> 0.12550698E+00</totfact>
</mgrwt>
</event>
<event>
 4    1  0.6502538E-008  0.1767270E+04  0.7818608E-02  0.8740861E-01
          2   -1    0    0  501    0  0.00000000000E+00  0.00000000000E+00  0.29173583497E+04  0.29173583497E+04  0.25500000000E-02 0. -1.
         -2   -1    0    0    0  501 -0.00000000000E+00 -0.00000000000E+00 -0.13932301267E+04  0.13932301267E+04  0.25500000000E-02 0.  1.
    8880023    1    1    2    0    0 -0.46010811933E+03  0.15740816935E+04  0.19272911252E+04  0.26148984582E+04  0.65864270000E+03 0.  0.
    8880022    1    1    2    0    0  0.46010811933E+03 -0.15740816935E+04 -0.40316290216E+03  0.16956900182E+04  0.15294330000E+03 0.  0.
<mgrwt>
<rscale>  0 0.17364204E+04</rscale>
<asrwt>0</asrwt>
<pdfrwt beam="1">  1        2 0.44882436E+00 0.17672699E+04</pdfrwt>
<pdfrwt beam="2">  1       -2 0.21434310E+00 0.17672699E+04</pdfrwt>
<totfact> 0.19212097E-01</totfact>
</mgrwt>
</event>
<event>
 4    1  0.7869606E-008  0.1392124E+04  0.7818608E-02  0.8989827E-01
         -2   -1    0    0    0  501 -0.00000000000E+00  0.00000000000E+00  0.18047504412E+04  0.18047504412E+04  0.25500000000E-02 0.  1.
          2   -1    0    0  501    0  0.00000000000E+00 -0.00000000000E+00 -0.19501965925E+04  0.19501965925E+04  0.25500000000E-02 0. -1.
    8880023    1    1    2    0    0  0.12146542140E+04  0.16974455622E+03 -0.14136857902E+04  0.19840654711E+04  0.65864270000E+03 0.  0.
    8880022    1    1    2    0    0 -0.12146542140E+04 -0.16974455622E+03  0.12682396390E+04  0.17708815626E+04  0.15294330000E+03 0.  0.
<mgrwt>
<rscale>  0 0.13513231E+04</rscale>
<asrwt>0</asrwt>
<pdfrwt beam="1">  1        2 0.30003024E+00 0.13921237E+04</pdfrwt>
<pdfrwt beam="2">  1       -2 0.27765391E+00 0.13921237E+04</pdfrwt>
<totfact> 0.29442487E-01</totfact>
</mgrwt>
</event>
<event>
 4    1  0.6502538E-008  0.6730953E+03  0.7818608E-02  0.1013535E+00
         -2   -1    0    0    0  501 -0.00000000000E+00  0.00000000000E+00  0.28007432007E+03  0.28007432008E+03  0.25500000000E-02 0.  1.
          2   -1    0    0  501    0  0.00000000000E+00 -0.00000000000E+00 -0.15986569424E+04  0.15986569424E+04  0.25500000000E-02 0. -1.
    8880023    1    1    2    0    0  0.37668794156E+02 -0.13352214776E+03 -0.14739177777E+04  0.16203366698E+04  0.65864270000E+03 0. -1.
    8880022    1    1    2    0    0 -0.37668794156E+02  0.13352214776E+03  0.15533515536E+03  0.25839459263E+03  0.15294330000E+03 0.  0.
<mgrwt>
<rscale>  0 0.50093686E+03</rscale>
<asrwt>0</asrwt>
<pdfrwt beam="1">  1        2 0.24594722E+00 0.67309532E+03</pdfrwt>
<pdfrwt beam="2">  1       -2 0.43088358E-01 0.67309532E+03</pdfrwt>
<totfact> 0.58829280E+01</totfact>
</mgrwt>
</event>
<event>
 4    1  0.6502538E-008  0.1621610E+04  0.7818608E-02  0.8828217E-01
          2   -1    0    0  501    0  0.00000000000E+00  0.00000000000E+00  0.37712632304E+04  0.37712632304E+04  0.25500000000E-02 0. -1.
         -2   -1    0    0    0  501 -0.00000000000E+00 -0.00000000000E+00 -0.83872066466E+03  0.83872066467E+03  0.25500000000E-02 0.  1.
    8880023    1    1    2    0    0 -0.13441982307E+04  0.62365163900E+03  0.26301987913E+04  0.30899136134E+04  0.65864270000E+03 0.  0.
    8880022    1    1    2    0    0  0.13441982307E+04 -0.62365163900E+03  0.30234377440E+03  0.15200702816E+04  0.15294330000E+03 0.  0.
<mgrwt>
<rscale>  0 0.15875759E+04</rscale>
<asrwt>0</asrwt>
<pdfrwt beam="1">  1        2 0.58019434E+00 0.16216105E+04</pdfrwt>
<pdfrwt beam="2">  1       -2 0.12903395E+00 0.16216105E+04</pdfrwt>
<totfact> 0.21621692E-01</totfact>
</mgrwt>
</event>
<event>
 4    1  0.6502538E-008  0.7794422E+03  0.7818608E-02  0.9757149E-01
          2   -1    0    0  501    0  0.00000000000E+00  0.00000000000E+00  0.34699655711E+04  0.34699655711E+04  0.25500000000E-02 0. -1.
         -2   -1    0    0    0  501 -0.00000000000E+00 -0.00000000000E+00 -0.13037506424E+03  0.13037506427E+03  0.25500000000E-02 0.  1.
    8880023    1    1    2    0    0 -0.47199150098E+02 -0.41411611422E+03  0.27733536273E+04  0.28808020523E+04  0.65864270000E+03 0. -1.
    8880022    1    1    2    0    0  0.47199150098E+02  0.41411611422E+03  0.56623687954E+03  0.71953858312E+03  0.15294330000E+03 0.  0.
<mgrwt>
<rscale>  0 0.67713762E+03</rscale>
<asrwt>0</asrwt>
<pdfrwt beam="1">  1        2 0.53384079E+00 0.77944219E+03</pdfrwt>
<pdfrwt beam="2">  1       -2 0.20057705E-01 0.77944219E+03</pdfrwt>
<totfact> 0.19388236E+01</totfact>
</mgrwt>
</event>
<event>
 4    1  0.6502538E-008  0.7340755E+03  0.7818608E-02  0.9877553E-01
         -2   -1    0    0    0  501 -0.00000000000E+00  0.00000000000E+00  0.33082257969E+03  0.33082257970E+03  0.25500000000E-02 0.  1.
          2   -1    0    0  501    0  0.00000000000E+00 -0.00000000000E+00 -0.11224648573E+04  0.11224648573E+04  0.25500000000E-02 0. -1.
    8880023    1    1    2    0    0  0.32342086583E+03 -0.21345804279E+02 -0.81160469995E+03  0.10943350013E+04  0.65864270000E+03 0.  0.
    8880022    1    1    2    0    0 -0.32342086583E+03  0.21345804279E+02  0.19962422297E+02  0.35895243575E+03  0.15294330000E+03 0.  0.
<mgrwt>
<rscale>  0 0.61361594E+03</rscale>
<asrwt>0</asrwt>
<pdfrwt beam="1">  1        2 0.17268690E+00 0.73407555E+03</pdfrwt>
<pdfrwt beam="2">  1       -2 0.50895782E-01 0.73407555E+03</pdfrwt>
<totfact> 0.78306184E+01</totfact>
</mgrwt>
</event>
<event>
 4    1  0.6502538E-008  0.6920466E+03  0.7818608E-02  0.1003195E+00
         -2   -1    0    0    0  501 -0.00000000000E+00  0.00000000000E+00  0.10347594107E+03  0.10347594110E+03  0.25500000000E-02 0.  1.
          2   -1    0    0  501    0  0.00000000000E+00 -0.00000000000E+00 -0.23347184647E+04  0.23347184647E+04  0.25500000000E-02 0. -1.
    8880023    1    1    2    0    0 -0.49731528083E+02 -0.20650678880E+03 -0.18547844299E+04  0.19796852695E+04  0.65864270000E+03 0. -1.
    8880022    1    1    2    0    0  0.49731528083E+02  0.20650678880E+03 -0.37645809373E+03  0.45850913628E+03  0.15294330000E+03 0. -1.
<mgrwt>
<rscale>  0 0.54271358E+03</rscale>
<asrwt>0</asrwt>
<pdfrwt beam="1">  1        2 0.35918742E+00 0.69204659E+03</pdfrwt>
<pdfrwt beam="2">  1       -2 0.15919377E-01 0.69204659E+03</pdfrwt>
<totfact> 0.14261911E+02</totfact>
</mgrwt>
</event>
<event>
 4    1  0.6502538E-008  0.1025256E+04  0.7818608E-02  0.9349237E-01
         -2   -1    0    0    0  501 -0.00000000000E+00  0.00000000000E+00  0.44853634089E+03  0.44853634090E+03  0.25500000000E-02 0.  1.
          2   -1    0    0  501    0  0.00000000000E+00 -0.00000000000E+00 -0.32774897251E+04  0.32774897251E+04  0.25500000000E-02 0. -1.
    8880023    1    1    2    0    0 -0.78346961514E+03 -0.59279058332E+02 -0.27340517286E+04  0.29199636479E+04  0.65864270000E+03 0.  0.
    8880022    1    1    2    0    0  0.78346961514E+03  0.59279058332E+02 -0.94901655679E+02  0.80606241810E+03  0.15294330000E+03 0.  0.
<mgrwt>
<rscale>  0 0.96373690E+03</rscale>
<asrwt>0</asrwt>
<pdfrwt beam="1">  1        2 0.50422917E+00 0.10252555E+04</pdfrwt>
<pdfrwt beam="2">  1       -2 0.69005593E-01 0.10252555E+04</pdfrwt>
<totfact> 0.22674534E+00</totfact>
</mgrwt>
</event>
<event>
 4    1  0.6502538E-008  0.7199788E+03  0.7818608E-02  0.9922658E-01
         -2   -1    0    0    0  501 -0.00000000000E+00  0.00000000000E+00  0.36378643717E+03  0.36378643718E+03  0.25500000000E-02 0.  1.
          2   -1    0    0  501    0  0.00000000000E+00 -0.00000000000E+00 -0.13665364527E+04  0.13665364527E+04  0.25500000000E-02 0. -1.
    8880023    1    1    2    0    0  0.52544105488E+02  0.28600419514E+03 -0.11606236720E+04  0.13658026201E+04  0.65864270000E+03 0.  0.
    8880022    1    1    2    0    0 -0.52544105488E+02 -0.28600419514E+03  0.15787365651E+03  0.36452026980E+03  0.15294330000E+03 0.  0.
<mgrwt>
<rscale>  0 0.59175657E+03</rscale>
<asrwt>0</asrwt>
<pdfrwt beam="1">  1        2 0.21023637E+00 0.71997881E+03</pdfrwt>
<pdfrwt beam="2">  1       -2 0.55967145E-01 0.71997881E+03</pdfrwt>
<totfact> 0.46401454E+01</totfact>
</mgrwt>
</event>
<event>
 4    1  0.6502538E-008  0.9137420E+03  0.7818608E-02  0.9504322E-01
          2   -1    0    0  501    0  0.00000000000E+00  0.00000000000E+00  0.32168064941E+04  0.32168064941E+04  0.25500000000E-02 0. -1.
         -2   -1    0    0    0  501 -0.00000000000E+00 -0.00000000000E+00 -0.59371468575E+03  0.59371468575E+03  0.25500000000E-02 0.  1.
    8880023    1    1    2    0    0  0.35238667879E+03  0.52624878937E+03  0.29452137652E+04  0.30837004538E+04  0.65864270000E+03 0.  0.
    8880022    1    1    2    0    0 -0.35238667879E+03 -0.52624878937E+03 -0.32212195686E+03  0.72682072605E+03  0.15294330000E+03 0.  0.
<mgrwt>
<rscale>  0 0.83965935E+03</rscale>
<asrwt>0</asrwt>
<pdfrwt beam="1">  1        2 0.49489332E+00 0.91374196E+03</pdfrwt>
<pdfrwt beam="2">  1       -2 0.91340719E-01 0.91374196E+03</pdfrwt>
<totfact> 0.13446131E+00</totfact>
</mgrwt>
</event>
<event>
 4    1  0.6502538E-008  0.9494735E+03  0.7818608E-02  0.9450872E-01
          2   -1    0    0  501    0  0.00000000000E+00  0.00000000000E+00  0.36234631020E+04  0.36234631020E+04  0.25500000000E-02 0. -1.
         -2   -1    0    0    0  501 -0.00000000000E+00 -0.00000000000E+00 -0.33082739530E+03  0.33082739531E+03  0.25500000000E-02 0.  1.
    8880023    1    1    2    0    0  0.20904851487E+03 -0.65114388249E+03  0.30784074990E+04  0.32215047064E+04  0.65864270000E+03 0. -1.
    8880022    1    1    2    0    0 -0.20904851487E+03  0.65114388249E+03  0.21422820763E+03  0.73278579083E+03  0.15294330000E+03 0.  0.
<mgrwt>
<rscale>  0 0.88004787E+03</rscale>
<asrwt>0</asrwt>
<pdfrwt beam="1">  1        2 0.55745583E+00 0.94947346E+03</pdfrwt>
<pdfrwt beam="2">  1       -2 0.50896525E-01 0.94947346E+03</pdfrwt>
<totfact> 0.25442464E+00</totfact>
</mgrwt>
</event>
<event>
 4    1  0.6502538E-008  0.1430437E+04  0.7818608E-02  0.8960386E-01
          2   -1    0    0  501    0  0.00000000000E+00  0.00000000000E+00  0.27924288846E+04  0.27924288846E+04  0.25500000000E-02 0. -1.
         -2   -1    0    0    0  501 -0.00000000000E+00 -0.00000000000E+00 -0.67517441311E+03  0.67517441312E+03  0.25500000000E-02 0.  1.
    8880023    1    1    2    0    0 -0.14372367262E+03 -0.12616189593E+04  0.13986456524E+04  0.20005896030E+04  0.65864270000E+03 0.  0.
    8880022    1    1    2    0    0  0.14372367262E+03  0.12616189593E+04  0.71860881911E+03  0.14670136947E+04  0.15294330000E+03 0. -1.
<mgrwt>
<rscale>  0 0.13909626E+04</rscale>
<asrwt>0</asrwt>
<pdfrwt beam="1">  1        2 0.42960444E+00 0.14304367E+04</pdfrwt>
<pdfrwt beam="2">  1       -2 0.10387299E+00 0.14304367E+04</pdfrwt>
<totfact> 0.16943266E+00</totfact>
</mgrwt>
</event>
<event>
 4    1  0.1267984E-007  0.1869784E+04  0.7818608E-02  0.8684886E-01
          2   -1    0    0  501    0  0.00000000000E+00  0.00000000000E+00  0.26773914110E+04  0.26773914110E+04  0.25500000000E-02 0. -1.
         -2   -1    0    0    0  501 -0.00000000000E+00 -0.00000000000E+00 -0.31897230685E+04  0.31897230685E+04  0.25500000000E-02 0.  1.
    8880023    1    1    2    0    0  0.13723585124E+04 -0.10857774320E+04  0.20409374141E+04  0.27679444093E+04  0.65864270000E+03 0.  0.
    8880022    1    1    2    0    0 -0.13723585124E+04  0.10857774320E+04 -0.25532690717E+04  0.30991700702E+04  0.15294330000E+03 0.  0.
<mgrwt>
<rscale>  0 0.18408239E+04</rscale>
<asrwt>0</asrwt>
<pdfrwt beam="1">  1        2 0.41190637E+00 0.18697836E+04</pdfrwt>
<pdfrwt beam="2">  1       -2 0.49072662E+00 0.18697836E+04</pdfrwt>
<totfact> 0.45771935E-03</totfact>
</mgrwt>
</event>
<event>
 4    1  0.6502538E-008  0.1441048E+04  0.7818608E-02  0.8952427E-01
         -2   -1    0    0    0  501 -0.00000000000E+00  0.00000000000E+00  0.15845326504E+04  0.15845326504E+04  0.25500000000E-02 0.  1.
          2   -1    0    0  501    0  0.00000000000E+00 -0.00000000000E+00 -0.18971210546E+04  0.18971210546E+04  0.25500000000E-02 0. -1.
    8880023    1    1    2    0    0 -0.94619101586E+03  0.86459885439E+03 -0.12327926592E+04  0.18964167697E+04  0.65864270000E+03 0.  0.
    8880022    1    1    2    0    0  0.94619101586E+03 -0.86459885439E+03  0.92020425497E+03  0.15852369354E+04  0.15294330000E+03 0.  0.
<mgrwt>
<rscale>  0 0.14019247E+04</rscale>
<asrwt>0</asrwt>
<pdfrwt beam="1">  1        2 0.29186478E+00 0.14410478E+04</pdfrwt>
<pdfrwt beam="2">  1       -2 0.24377425E+00 0.14410478E+04</pdfrwt>
<totfact> 0.50505749E-01</totfact>
</mgrwt>
</event>
<event>
 4    1  0.6502538E-008  0.1264906E+04  0.7818608E-02  0.9096474E-01
         -2   -1    0    0    0  501 -0.00000000000E+00  0.00000000000E+00  0.82289880578E+03  0.82289880578E+03  0.25500000000E-02 0.  1.
          2   -1    0    0  501    0  0.00000000000E+00 -0.00000000000E+00 -0.30143874947E+04  0.30143874947E+04  0.25500000000E-02 0. -1.
    8880023    1    1    2    0    0  0.20864696931E+03 -0.10595483244E+04 -0.24129167765E+04  0.27243630056E+04  0.65864270000E+03 0. -1.
    8880022    1    1    2    0    0 -0.20864696931E+03  0.10595483244E+04  0.22142808757E+03  0.11129232949E+04  0.15294330000E+03 0.  0.
<mgrwt>
<rscale>  0 0.12188977E+04</rscale>
<asrwt>0</asrwt>
<pdfrwt beam="1">  1        2 0.46375192E+00 0.12649057E+04</pdfrwt>
<pdfrwt beam="2">  1       -2 0.12659982E+00 0.12649057E+04</pdfrwt>
<totfact> 0.77503513E-01</totfact>
</mgrwt>
</event>
<event>
 4    1  0.6502538E-008  0.9978359E+03  0.7818608E-02  0.9384395E-01
          2   -1    0    0  501    0  0.00000000000E+00  0.00000000000E+00  0.10080201114E+04  0.10080201114E+04  0.25500000000E-02 0. -1.
         -2   -1    0    0    0  501 -0.00000000000E+00 -0.00000000000E+00 -0.13175965658E+04  0.13175965658E+04  0.25500000000E-02 0.  1.
    8880023    1    1    2    0    0  0.34647126669E+03 -0.66469832115E+03  0.57854982586E+03  0.11534280663E+04  0.65864270000E+03 0. -1.
    8880022    1    1    2    0    0 -0.34647126669E+03  0.66469832115E+03 -0.88812628029E+03  0.11721886109E+04  0.15294330000E+03 0.  0.
<mgrwt>
<rscale>  0 0.93371156E+03</rscale>
<asrwt>0</asrwt>
<pdfrwt beam="1">  1        2 0.15508002E+00 0.99783586E+03</pdfrwt>
<pdfrwt beam="2">  1       -2 0.20270716E+00 0.99783586E+03</pdfrwt>
<totfact> 0.31544944E+00</totfact>
</mgrwt>
</event>
<event>
 4    1  0.6502538E-008  0.1210193E+04  0.7818608E-02  0.9147277E-01
         -2   -1    0    0    0  501 -0.00000000000E+00  0.00000000000E+00  0.81474803884E+03  0.81474803884E+03  0.25500000000E-02 0.  1.
          2   -1    0    0  501    0  0.00000000000E+00 -0.00000000000E+00 -0.19558101183E+04  0.19558101183E+04  0.25500000000E-02 0. -1.
    8880023    1    1    2    0    0  0.87689579451E+03 -0.51167369962E+03 -0.12478499695E+04  0.17383026095E+04  0.65864270000E+03 0.  0.
    8880022    1    1    2    0    0 -0.87689579451E+03  0.51167369962E+03  0.10678789005E+03  0.10322555477E+04  0.15294330000E+03 0.  0.
<mgrwt>
<rscale>  0 0.11614582E+04</rscale>
<asrwt>0</asrwt>
<pdfrwt beam="1">  1        2 0.30089386E+00 0.12101927E+04</pdfrwt>
<pdfrwt beam="2">  1       -2 0.12534585E+00 0.12101927E+04</pdfrwt>
<totfact> 0.32804634E+00</totfact>
</mgrwt>
</event>
<event>
 4    1  0.6502538E-008  0.6910278E+03  0.7818608E-02  0.1003668E+00
          2   -1    0    0  501    0  0.00000000000E+00  0.00000000000E+00  0.18028436250E+04  0.18028436250E+04  0.25500000000E-02 0. -1.
         -2   -1    0    0    0  501 -0.00000000000E+00 -0.00000000000E+00 -0.14538767608E+03  0.14538767611E+03  0.25500000000E-02 0.  1.
    8880023    1    1    2    0    0  0.20250704096E+03 -0.51963231950E+02  0.14825063077E+04  0.16356480177E+04  0.65864270000E+03 0.  0.
    8880022    1    1    2    0    0 -0.20250704096E+03  0.51963231950E+02  0.17494964127E+03  0.31258328348E+03  0.15294330000E+03 0.  0.
<mgrwt>
<rscale>  0 0.54070792E+03</rscale>
<asrwt>0</asrwt>
<pdfrwt beam="1">  1        2 0.27736056E+00 0.69102785E+03</pdfrwt>
<pdfrwt beam="2">  1       -2 0.22367335E-01 0.69102785E+03</pdfrwt>
<totfact> 0.15448984E+02</totfact>
</mgrwt>
</event>
<event>
 4    1  0.6502538E-008  0.6650488E+03  0.7818608E-02  0.1019492E+00
          2   -1    0    0  501    0  0.00000000000E+00  0.00000000000E+00  0.28214735344E+04  0.28214735344E+04  0.25500000000E-02 0. -1.
         -2   -1    0    0    0  501 -0.00000000000E+00 -0.00000000000E+00 -0.15848634119E+03  0.15848634121E+03  0.25500000000E-02 0.  1.
    8880023    1    1    2    0    0  0.83377963210E+01 -0.91707396258E+02  0.27139948702E+04  0.27942902725E+04  0.65864270000E+03 0. -1.
    8880022    1    1    2    0    0 -0.83377963210E+01  0.91707396258E+02 -0.51007677008E+02  0.18566960307E+03  0.15294330000E+03 0.  0.
<mgrwt>
<rscale>  0 0.47870210E+03</rscale>
<asrwt>0</asrwt>
<pdfrwt beam="1">  1        2 0.43407284E+00 0.66504885E+03</pdfrwt>
<pdfrwt beam="2">  1       -2 0.24382515E-01 0.66504885E+03</pdfrwt>
<totfact> 0.35854880E+01</totfact>
</mgrwt>
</event>
<event>
 4    1  0.6502538E-008  0.6827835E+03  0.7818608E-02  0.1007791E+00
          2   -1    0    0  501    0  0.00000000000E+00  0.00000000000E+00  0.24176660407E+03  0.24176660408E+03  0.25500000000E-02 0. -1.
         -2   -1    0    0    0  501 -0.00000000000E+00 -0.00000000000E+00 -0.17748843546E+04  0.17748843547E+04  0.25500000000E-02 0.  1.
    8880023    1    1    2    0    0 -0.71725668298E+01 -0.17980993686E+03 -0.27421910287E+03  0.73579167008E+03  0.65864270000E+03 0. -1.
    8880022    1    1    2    0    0  0.71725668298E+01  0.17980993686E+03 -0.12588986477E+04  0.12808592887E+04  0.15294330000E+03 0.  0.
<mgrwt>
<rscale>  0 0.52362083E+03</rscale>
<asrwt>0</asrwt>
<pdfrwt beam="1">  1        2 0.37194863E-01 0.68278347E+03</pdfrwt>
<pdfrwt beam="2">  1       -2 0.27305912E+00 0.68278347E+03</pdfrwt>
<totfact> 0.67494865E+00</totfact>
</mgrwt>
</event>
<event>
 4    1  0.6502538E-008  0.1221912E+04  0.7818608E-02  0.9136111E-01
         -2   -1    0    0    0  501 -0.00000000000E+00  0.00000000000E+00  0.91639293927E+03  0.91639293927E+03  0.25500000000E-02 0.  1.
          2   -1    0    0  501    0  0.00000000000E+00 -0.00000000000E+00 -0.32423754745E+04  0.32423754745E+04  0.25500000000E-02 0. -1.
    8880023    1    1    2    0    0  0.10085115722E+03 -0.10242501742E+04 -0.27699614522E+04  0.30274999634E+04  0.65864270000E+03 0.  0.
    8880022    1    1    2    0    0 -0.10085115722E+03  0.10242501742E+04  0.44397891695E+03  0.11312684504E+04  0.15294330000E+03 0.  0.
<mgrwt>
<rscale>  0 0.11737918E+04</rscale>
<asrwt>0</asrwt>
<pdfrwt beam="1">  1        2 0.49882699E+00 0.12219123E+04</pdfrwt>
<pdfrwt beam="2">  1       -2 0.14098353E+00 0.12219123E+04</pdfrwt>
<totfact> 0.42333815E-01</totfact>
</mgrwt>
</event>
<event>
 4    1  0.6502538E-008  0.1161397E+04  0.7818608E-02  0.9195592E-01
         -2   -1    0    0    0  501 -0.00000000000E+00  0.00000000000E+00  0.19636326319E+04  0.19636326319E+04  0.25500000000E-02 0.  1.
          2   -1    0    0  501    0  0.00000000000E+00 -0.00000000000E+00 -0.71642491335E+03  0.71642491335E+03  0.25500000000E-02 0. -1.
    8880023    1    1    2    0    0 -0.88390512617E+03 -0.36571039160E+03  0.12568451369E+04  0.17112867285E+04  0.65864270000E+03 0.  0.
    8880022    1    1    2    0    0  0.88390512617E+03  0.36571039160E+03 -0.96374183575E+01  0.96877081678E+03  0.15294330000E+03 0.  0.
<mgrwt>
<rscale>  0 0.11099039E+04</rscale>
<asrwt>0</asrwt>
<pdfrwt beam="1">  1        2 0.11021922E+00 0.11613968E+04</pdfrwt>
<pdfrwt beam="2">  1       -2 0.30209733E+00 0.11613968E+04</pdfrwt>
<totfact> 0.12106273E+00</totfact>
</mgrwt>
</event>
<event>
 4    1  0.6502538E-008  0.7651943E+03  0.7818608E-02  0.9791841E-01
         -2   -1    0    0    0  501 -0.00000000000E+00  0.00000000000E+00  0.92875504336E+03  0.92875504336E+03  0.25500000000E-02 0.  1.
          2   -1    0    0  501    0  0.00000000000E+00 -0.00000000000E+00 -0.57812354929E+03  0.57812354930E+03  0.25500000000E-02 0. -1.
    8880023    1    1    2    0    0  0.19715268563E+03 -0.33592095405E+03 -0.22282719051E+03  0.79697818785E+03  0.65864270000E+03 0. -1.
    8880022    1    1    2    0    0 -0.19715268563E+03  0.33592095405E+03  0.57345868458E+03  0.70990040481E+03  0.15294330000E+03 0.  0.
<mgrwt>
<rscale>  0 0.65802244E+03</rscale>
<asrwt>0</asrwt>
<pdfrwt beam="1">  1        2 0.88942086E-01 0.76519427E+03</pdfrwt>
<pdfrwt beam="2">  1       -2 0.14288539E+00 0.76519427E+03</pdfrwt>
<totfact> 0.17882696E+01</totfact>
</mgrwt>
</event>
<event>
 4    1  0.6502538E-008  0.9655266E+03  0.7818608E-02  0.9428118E-01
         -2   -1    0    0    0  501 -0.00000000000E+00  0.00000000000E+00  0.99241708880E+03  0.99241708880E+03  0.25500000000E-02 0.  1.
          2   -1    0    0  501    0  0.00000000000E+00 -0.00000000000E+00 -0.13732212511E+04  0.13732212511E+04  0.25500000000E-02 0. -1.
    8880023    1    1    2    0    0  0.18640231183E+03 -0.68094463446E+03 -0.10175220623E+04  0.14027090827E+04  0.65864270000E+03 0.  0.
    8880022    1    1    2    0    0 -0.18640231183E+03  0.68094463446E+03  0.63671790007E+03  0.96292925718E+03  0.15294330000E+03 0.  0.
<mgrwt>
<rscale>  0 0.89797365E+03</rscale>
<asrwt>0</asrwt>
<pdfrwt beam="1">  1        2 0.21126481E+00 0.96552660E+03</pdfrwt>
<pdfrwt beam="2">  1       -2 0.15267955E+00 0.96552660E+03</pdfrwt>
<totfact> 0.42673251E+00</totfact>
</mgrwt>
</event>
<event>
 4    1  0.6502538E-008  0.9262653E+03  0.7818608E-02  0.9485118E-01
         -2   -1    0    0    0  501 -0.00000000000E+00  0.00000000000E+00  0.29825887824E+03  0.29825887825E+03  0.25500000000E-02 0.  1.
          2   -1    0    0  501    0  0.00000000000E+00 -0.00000000000E+00 -0.29322136939E+04  0.29322136939E+04  0.25500000000E-02 0. -1.
    8880023    1    1    2    0    0  0.29227389018E+03  0.58200793144E+03 -0.63627016026E+03  0.11237469387E+04  0.65864270000E+03 0.  0.
    8880022    1    1    2    0    0 -0.29227389018E+03 -0.58200793144E+03 -0.19976846554E+04  0.21067256334E+04  0.15294330000E+03 0.  0.
<mgrwt>
<rscale>  0 0.85389923E+03</rscale>
<asrwt>0</asrwt>
<pdfrwt beam="1">  1        2 0.45110978E+00 0.92626533E+03</pdfrwt>
<pdfrwt beam="2">  1       -2 0.45885983E-01 0.92626533E+03</pdfrwt>
<totfact> 0.89190117E+00</totfact>
</mgrwt>
</event>
<event>
 4    1  0.6502538E-008  0.1181236E+04  0.7818608E-02  0.9175581E-01
         -2   -1    0    0    0  501 -0.00000000000E+00  0.00000000000E+00  0.19193311007E+04  0.19193311007E+04  0.25500000000E-02 0.  1.
          2   -1    0    0  501    0  0.00000000000E+00 -0.00000000000E+00 -0.14763684911E+04  0.14763684911E+04  0.25500000000E-02 0. -1.
    8880023    1    1    2    0    0  0.84225730675E+03  0.50210678287E+03 -0.10650111003E+04  0.15904613929E+04  0.65864270000E+03 0.  0.
    8880022    1    1    2    0    0 -0.84225730675E+03 -0.50210678287E+03  0.15079737099E+04  0.18052381990E+04  0.15294330000E+03 0.  1.
<mgrwt>
<rscale>  0 0.11309062E+04</rscale>
<asrwt>0</asrwt>
<pdfrwt beam="1">  1        2 0.22713361E+00 0.11812361E+04</pdfrwt>
<pdfrwt beam="2">  1       -2 0.29528171E+00 0.11812361E+04</pdfrwt>
<totfact> 0.43476737E-01</totfact>
</mgrwt>
</event>
<event>
 4    1  0.9044979E-008  0.8342522E+03  0.7818608E-02  0.9641115E-01
          2   -1    0    0  501    0  0.00000000000E+00  0.00000000000E+00  0.17990575634E+04  0.17990575634E+04  0.25500000000E-02 0. -1.
         -2   -1    0    0    0  501 -0.00000000000E+00 -0.00000000000E+00 -0.20779156232E+04  0.20779156232E+04  0.25500000000E-02 0.  1.
    8880023    1    1    2    0    0 -0.46335798282E+03  0.21786655815E+03  0.16642953262E+04  0.18616808525E+04  0.65864270000E+03 0. -1.
    8880022    1    1    2    0    0  0.46335798282E+03 -0.21786655815E+03 -0.19431533860E+04  0.20152923341E+04  0.15294330000E+03 0.  0.
<mgrwt>
<rscale>  0 0.74633673E+03</rscale>
<asrwt>0</asrwt>
<pdfrwt beam="1">  1        2 0.27677809E+00 0.83425216E+03</pdfrwt>
<pdfrwt beam="2">  1       -2 0.31967932E+00 0.83425216E+03</pdfrwt>
<totfact> 0.21726125E-01</totfact>
</mgrwt>
</event>
<event>
 4    1  0.6502538E-008  0.7428068E+03  0.7818608E-02  0.9851845E-01
         -2   -1    0    0    0  501 -0.00000000000E+00  0.00000000000E+00  0.25633456121E+04  0.25633456121E+04  0.25500000000E-02 0.  1.
          2   -1    0    0  501    0  0.00000000000E+00 -0.00000000000E+00 -0.87563284076E+03  0.87563284076E+03  0.25500000000E-02 0. -1.
    8880023    1    1    2    0    0 -0.10026999366E+03  0.32847785625E+03 -0.70070579667E+03  0.10211516016E+04  0.65864270000E+03 0. -1.
    8880022    1    1    2    0    0  0.10026999366E+03 -0.32847785625E+03  0.23884185680E+04  0.24178268513E+04  0.15294330000E+03 0.  0.
<mgrwt>
<rscale>  0 0.62652927E+03</rscale>
<asrwt>0</asrwt>
<pdfrwt beam="1">  1        2 0.13471274E+00 0.74280683E+03</pdfrwt>
<pdfrwt beam="2">  1       -2 0.39436087E+00 0.74280683E+03</pdfrwt>
<totfact> 0.26291249E-01</totfact>
</mgrwt>
</event>
<event>
 4    1  0.6502538E-008  0.1561692E+04  0.7818608E-02  0.8867258E-01
          2   -1    0    0  501    0  0.00000000000E+00  0.00000000000E+00  0.22753404443E+04  0.22753404443E+04  0.25500000000E-02 0. -1.
         -2   -1    0    0    0  501 -0.00000000000E+00 -0.00000000000E+00 -0.11818219693E+04  0.11818219693E+04  0.25500000000E-02 0.  1.
    8880023    1    1    2    0    0 -0.45502040813E+03  0.13409053618E+04  0.12820100259E+04  0.20205025795E+04  0.65864270000E+03 0.  0.
    8880022    1    1    2    0    0  0.45502040813E+03 -0.13409053618E+04 -0.18849155087E+03  0.14366598341E+04  0.15294330000E+03 0.  0.
<mgrwt>
<rscale>  0 0.15261329E+04</rscale>
<asrwt>0</asrwt>
<pdfrwt beam="1">  1        2 0.35005237E+00 0.15616917E+04</pdfrwt>
<pdfrwt beam="2">  1       -2 0.18181877E+00 0.15616917E+04</pdfrwt>
<totfact> 0.77108837E-01</totfact>
</mgrwt>
</event>
<event>
 4    1  0.6502538E-008  0.1085827E+04  0.7818608E-02  0.9277002E-01
         -2   -1    0    0    0  501 -0.00000000000E+00  0.00000000000E+00  0.73169866054E+03  0.73169866054E+03  0.25500000000E-02 0.  1.
          2   -1    0    0  501    0  0.00000000000E+00 -0.00000000000E+00 -0.24092082050E+04  0.24092082050E+04  0.25500000000E-02 0. -1.
    8880023    1    1    2    0    0  0.69291157688E+02  0.86047057886E+03 -0.19422003816E+04  0.22251209878E+04  0.65864270000E+03 0. -1.
    8880022    1    1    2    0    0 -0.69291157688E+02 -0.86047057886E+03  0.26469083716E+03  0.91578587776E+03  0.15294330000E+03 0.  0.
<mgrwt>
<rscale>  0 0.10292795E+04</rscale>
<asrwt>0</asrwt>
<pdfrwt beam="1">  1        2 0.37064741E+00 0.10858274E+04</pdfrwt>
<pdfrwt beam="2">  1       -2 0.11256903E+00 0.10858274E+04</pdfrwt>
<totfact> 0.24260479E+00</totfact>
</mgrwt>
</event>
<event>
 4    1  0.6502538E-008  0.8797287E+03  0.7818608E-02  0.9559390E-01
         -2   -1    0    0    0  501 -0.00000000000E+00  0.00000000000E+00  0.25272632640E+03  0.25272632642E+03  0.25500000000E-02 0.  1.
          2   -1    0    0  501    0  0.00000000000E+00 -0.00000000000E+00 -0.22365717323E+04  0.22365717323E+04  0.25500000000E-02 0. -1.
    8880023    1    1    2    0    0 -0.36191425552E+03  0.45730783378E+03 -0.13757649583E+04  0.16329886129E+04  0.65864270000E+03 0.  0.
    8880022    1    1    2    0    0  0.36191425552E+03 -0.45730783378E+03 -0.60808044761E+03  0.85630944580E+03  0.15294330000E+03 0. -1.
<mgrwt>
<rscale>  0 0.80043344E+03</rscale>
<asrwt>0</asrwt>
<pdfrwt beam="1">  1        2 0.34408795E+00 0.87972870E+03</pdfrwt>
<pdfrwt beam="2">  1       -2 0.38880975E-01 0.87972870E+03</pdfrwt>
<totfact> 0.31415034E+01</totfact>
</mgrwt>
</event>
<event>
 4    1  0.6502538E-008  0.6828963E+03  0.7818608E-02  0.1007731E+00
          2   -1    0    0  501    0  0.00000000000E+00  0.00000000000E+00  0.11878391037E+04  0.11878391037E+04  0.25500000000E-02 0. -1.
         -2   -1    0    0    0  501 -0.00000000000E+00 -0.00000000000E+00 -0.83882833438E+03  0.83882833438E+03  0.25500000000E-02 0.  1.
    8880023    1    1    2    0    0  0.14908715020E+03  0.10153924154E+03  0.10691820775E+04  0.12686598114E+04  0.65864270000E+03 0. -1.
    8880022    1    1    2    0    0 -0.14908715020E+03 -0.10153924154E+03 -0.72017130820E+03  0.75800762668E+03  0.15294330000E+03 0.  0.
<mgrwt>
<rscale>  0 0.52386643E+03</rscale>
<asrwt>0</asrwt>
<pdfrwt beam="1">  1        2 0.18274448E+00 0.68289633E+03</pdfrwt>
<pdfrwt beam="2">  1       -2 0.12905051E+00 0.68289633E+03</pdfrwt>
<totfact> 0.87711818E+00</totfact>
</mgrwt>
</event>
<event>
 4    1  0.6502538E-008  0.1015695E+04  0.7818608E-02  0.9361306E-01
          2   -1    0    0  501    0  0.00000000000E+00  0.00000000000E+00  0.20109729794E+04  0.20109729794E+04  0.25500000000E-02 0. -1.
         -2   -1    0    0    0  501 -0.00000000000E+00 -0.00000000000E+00 -0.10063018639E+04  0.10063018639E+04  0.25500000000E-02 0.  1.
    8880023    1    1    2    0    0  0.74350904699E+03 -0.21218012816E+03  0.16907149302E+04  0.19723471528E+04  0.65864270000E+03 0. -1.
    8880022    1    1    2    0    0 -0.74350904699E+03  0.21218012816E+03 -0.68604381470E+03  0.10449276905E+04  0.15294330000E+03 0.  0.
<mgrwt>
<rscale>  0 0.95329643E+03</rscale>
<asrwt>0</asrwt>
<pdfrwt beam="1">  1        2 0.30938045E+00 0.10156950E+04</pdfrwt>
<pdfrwt beam="2">  1       -2 0.15481567E+00 0.10156950E+04</pdfrwt>
<totfact> 0.18063630E+00</totfact>
</mgrwt>
</event>
<event>
 4    1  0.6502538E-008  0.7412482E+03  0.7818608E-02  0.9856326E-01
         -2   -1    0    0    0  501 -0.00000000000E+00  0.00000000000E+00  0.69899855326E+03  0.69899855326E+03  0.25500000000E-02 0.  1.
          2   -1    0    0  501    0  0.00000000000E+00 -0.00000000000E+00 -0.62889919754E+03  0.62889919755E+03  0.25500000000E-02 0. -1.
    8880023    1    1    2    0    0  0.33617194222E+03  0.51255570647E+02 -0.30266233776E+03  0.80065810757E+03  0.65864270000E+03 0.  0.
    8880022    1    1    2    0    0 -0.33617194222E+03 -0.51255570647E+02  0.37276169348E+03  0.52723964324E+03  0.15294330000E+03 0.  0.
<mgrwt>
<rscale>  0 0.62425417E+03</rscale>
<asrwt>0</asrwt>
<pdfrwt beam="1">  1        2 0.96753723E-01 0.74124821E+03</pdfrwt>
<pdfrwt beam="2">  1       -2 0.10753824E+00 0.74124821E+03</pdfrwt>
<totfact> 0.32941480E+01</totfact>
</mgrwt>
</event>
<event>
 4    1  0.6502538E-008  0.8422455E+03  0.7818608E-02  0.9625961E-01
         -2   -1    0    0    0  501 -0.00000000000E+00  0.00000000000E+00  0.38609584362E+03  0.38609584362E+03  0.25500000000E-02 0.  1.
          2   -1    0    0  501    0  0.00000000000E+00 -0.00000000000E+00 -0.28611102896E+04  0.28611102896E+04  0.25500000000E-02 0. -1.
    8880023    1    1    2    0    0 -0.48891068345E+02 -0.52266333189E+03 -0.25589826199E+04  0.26940247865E+04  0.65864270000E+03 0.  0.
    8880022    1    1    2    0    0  0.48891068345E+02  0.52266333189E+03  0.83968173960E+02  0.55318134668E+03  0.15294330000E+03 0.  0.
<mgrwt>
<rscale>  0 0.75601511E+03</rscale>
<asrwt>0</asrwt>
<pdfrwt beam="1">  1        2 0.44017080E+00 0.84224551E+03</pdfrwt>
<pdfrwt beam="2">  1       -2 0.59399362E-01 0.84224551E+03</pdfrwt>
<totfact> 0.58620563E+00</totfact>
</mgrwt>
</event>
<event>
 4    1  0.6502538E-008  0.8621260E+03  0.7818608E-02  0.9589793E-01
          2   -1    0    0  501    0  0.00000000000E+00  0.00000000000E+00  0.31902372665E+04  0.31902372665E+04  0.25500000000E-02 0. -1.
         -2   -1    0    0    0  501 -0.00000000000E+00 -0.00000000000E+00 -0.97858608684E+03  0.97858608684E+03  0.25500000000E-02 0.  1.
    8880023    1    1    2    0    0  0.52199694120E+03 -0.19227629867E+03  0.30397098487E+04  0.31596039550E+04  0.65864270000E+03 0.  0.
    8880022    1    1    2    0    0 -0.52199694120E+03  0.19227629867E+03 -0.82805866905E+03  0.10092193984E+04  0.15294330000E+03 0.  0.
<mgrwt>
<rscale>  0 0.77975454E+03</rscale>
<asrwt>0</asrwt>
<pdfrwt beam="1">  1        2 0.49080574E+00 0.86212597E+03</pdfrwt>
<pdfrwt beam="2">  1       -2 0.15055171E+00 0.86212597E+03</pdfrwt>
<totfact> 0.40990204E-01</totfact>
</mgrwt>
</event>
<event>
 4    1  0.6502538E-008  0.1949448E+04  0.7818608E-02  0.8644082E-01
         -2   -1    0    0    0  501 -0.00000000000E+00  0.00000000000E+00  0.15007267354E+04  0.15007267354E+04  0.25500000000E-02 0.  1.
          2   -1    0    0  501    0  0.00000000000E+00 -0.00000000000E+00 -0.37687902246E+04  0.37687902246E+04  0.25500000000E-02 0. -1.
    8880023    1    1    2    0    0 -0.16875929469E+04 -0.72011688254E+03 -0.27457187339E+04  0.33673906591E+04  0.65864270000E+03 0.  0.
    8880022    1    1    2    0    0  0.16875929469E+04  0.72011688254E+03  0.47765524469E+03  0.19021263010E+04  0.15294330000E+03 0.  0.
<mgrwt>
<rscale>  0 0.19217975E+04</rscale>
<asrwt>0</asrwt>
<pdfrwt beam="1">  1        2 0.57981388E+00 0.19494483E+04</pdfrwt>
<pdfrwt beam="2">  1       -2 0.23088104E+00 0.19494483E+04</pdfrwt>
<totfact> 0.39235755E-02</totfact>
</mgrwt>
</event>
<event>
 4    1  0.6502538E-008  0.8052092E+03  0.7818608E-02  0.9699644E-01
         -2   -1    0    0    0  501 -0.00000000000E+00  0.00000000000E+00  0.62967744410E+03  0.62967744411E+03  0.25500000000E-02 0.  1.
          2   -1    0    0  501    0  0.00000000000E+00 -0.00000000000E+00 -0.12823071748E+04  0.12823071748E+04  0.25500000000E-02 0. -1.
    8880023    1    1    2    0    0 -0.33375245318E+03 -0.32118689290E+03 -0.10212988555E+04  0.13005434551E+04  0.65864270000E+03 0.  0.
    8880022    1    1    2    0    0  0.33375245318E+03  0.32118689290E+03  0.36866912480E+03  0.61144116379E+03  0.15294330000E+03 0.  1.
<mgrwt>
<rscale>  0 0.71038007E+03</rscale>
<asrwt>0</asrwt>
<pdfrwt beam="1">  1        2 0.19727803E+00 0.80520924E+03</pdfrwt>
<pdfrwt beam="2">  1       -2 0.96873453E-01 0.80520924E+03</pdfrwt>
<totfact> 0.15285318E+01</totfact>
</mgrwt>
</event>
<event>
 4    1  0.6502538E-008  0.7698143E+03  0.7818608E-02  0.9780331E-01
          2   -1    0    0  501    0  0.00000000000E+00  0.00000000000E+00  0.10591716446E+04  0.10591716446E+04  0.25500000000E-02 0. -1.
         -2   -1    0    0    0  501 -0.00000000000E+00 -0.00000000000E+00 -0.10858725099E+04  0.10858725099E+04  0.25500000000E-02 0.  1.
    8880023    1    1    2    0    0 -0.24989533098E+02  0.39771760941E+03  0.86409034105E+03  0.11572666492E+04  0.65864270000E+03 0. -1.
    8880022    1    1    2    0    0  0.24989533098E+02 -0.39771760941E+03 -0.89079120641E+03  0.98777750533E+03  0.15294330000E+03 0.  1.
<mgrwt>
<rscale>  0 0.66428836E+03</rscale>
<asrwt>0</asrwt>
<pdfrwt beam="1">  1        2 0.16294948E+00 0.76981425E+03</pdfrwt>
<pdfrwt beam="2">  1       -2 0.16705731E+00 0.76981425E+03</pdfrwt>
<totfact> 0.52609706E+00</totfact>
</mgrwt>
</event>
<event>
 4    1  0.6502538E-008  0.9165572E+03  0.7818608E-02  0.9499958E-01
          2   -1    0    0  501    0  0.00000000000E+00  0.00000000000E+00  0.32333083619E+04  0.32333083619E+04  0.25500000000E-02 0. -1.
         -2   -1    0    0    0  501 -0.00000000000E+00 -0.00000000000E+00 -0.50740984269E+03  0.50740984269E+03  0.25500000000E-02 0.  1.
    8880023    1    1    2    0    0  0.63710849701E+03 -0.18966277743E+02  0.29172736561E+04  0.30578689879E+04  0.65864270000E+03 0. -1.
    8880022    1    1    2    0    0 -0.63710849701E+03  0.18966277743E+02 -0.19137513687E+03  0.68284921665E+03  0.15294330000E+03 0.  0.
<mgrwt>
<rscale>  0 0.84286910E+03</rscale>
<asrwt>0</asrwt>
<pdfrwt beam="1">  1        2 0.49743206E+00 0.91655723E+03</pdfrwt>
<pdfrwt beam="2">  1       -2 0.78063051E-01 0.91655723E+03</pdfrwt>
<totfact> 0.18767488E+00</totfact>
</mgrwt>
</event>
<event>
 4    1  0.6502538E-008  0.9338760E+03  0.7818608E-02  0.9473703E-01
         -2   -1    0    0    0  501 -0.00000000000E+00  0.00000000000E+00  0.36089269310E+03  0.36089269311E+03  0.25500000000E-02 0.  1.
          2   -1    0    0  501    0  0.00000000000E+00 -0.00000000000E+00 -0.29925867833E+04  0.29925867833E+04  0.25500000000E-02 0. -1.
    8880023    1    1    2    0    0 -0.65748745562E+03 -0.77617430171E+02 -0.24900110565E+04  0.26593757703E+04  0.65864270000E+03 0. -1.
    8880022    1    1    2    0    0  0.65748745562E+03  0.77617430171E+02 -0.14168303365E+03  0.69410370609E+03  0.15294330000E+03 0.  0.
<mgrwt>
<rscale>  0 0.86250693E+03</rscale>
<asrwt>0</asrwt>
<pdfrwt beam="1">  1        2 0.46039795E+00 0.93387602E+03</pdfrwt>
<pdfrwt beam="2">  1       -2 0.55521955E-01 0.93387602E+03</pdfrwt>
<totfact> 0.55402790E+00</totfact>
</mgrwt>
</event>
<event>
 4    1  0.6502538E-008  0.8785801E+03  0.7818608E-02  0.9561331E-01
         -2   -1    0    0    0  501 -0.00000000000E+00  0.00000000000E+00  0.43587800588E+03  0.43587800588E+03  0.25500000000E-02 0.  1.
          2   -1    0    0  501    0  0.00000000000E+00 -0.00000000000E+00 -0.23696025660E+04  0.23696025660E+04  0.25500000000E-02 0. -1.
    8880023    1    1    2    0    0  0.10534622957E+03 -0.57183465359E+03 -0.20155386503E+04  0.21987039264E+04  0.65864270000E+03 0.  0.
    8880022    1    1    2    0    0 -0.10534622957E+03  0.57183465359E+03  0.81814090125E+02  0.60677664547E+03  0.15294330000E+03 0.  0.
<mgrwt>
<rscale>  0 0.79909275E+03</rscale>
<asrwt>0</asrwt>
<pdfrwt beam="1">  1        2 0.36455423E+00 0.87858005E+03</pdfrwt>
<pdfrwt beam="2">  1       -2 0.67058156E-01 0.87858005E+03</pdfrwt>
<totfact> 0.86566834E+00</totfact>
</mgrwt>
</event>
<event>
 4    1  0.6502538E-008  0.7795326E+03  0.7818608E-02  0.9756936E-01
         -2   -1    0    0    0  501 -0.00000000000E+00  0.00000000000E+00  0.15805485952E+04  0.15805485952E+04  0.25500000000E-02 0.  1.
          2   -1    0    0  501    0  0.00000000000E+00 -0.00000000000E+00 -0.18399427312E+04  0.18399427312E+04  0.25500000000E-02 0. -1.
    8880023    1    1    2    0    0  0.30271806325E+03  0.28674477239E+03 -0.17229176410E+04  0.18910621868E+04  0.65864270000E+03 0. -1.
    8880022    1    1    2    0    0 -0.30271806325E+03 -0.28674477239E+03  0.14635235050E+04  0.15294291396E+04  0.15294330000E+03 0.  0.
<mgrwt>
<rscale>  0 0.67725698E+03</rscale>
<asrwt>0</asrwt>
<pdfrwt beam="1">  1        2 0.28306811E+00 0.77953255E+03</pdfrwt>
<pdfrwt beam="2">  1       -2 0.24316132E+00 0.77953255E+03</pdfrwt>
<totfact> 0.60483351E-01</totfact>
</mgrwt>
</event>
<event>
 4    1  0.6502538E-008  0.1160939E+04  0.7818608E-02  0.9196060E-01
         -2   -1    0    0    0  501 -0.00000000000E+00  0.00000000000E+00  0.17363243759E+04  0.17363243759E+04  0.25500000000E-02 0.  1.
          2   -1    0    0  501    0  0.00000000000E+00 -0.00000000000E+00 -0.17317553155E+04  0.17317553155E+04  0.25500000000E-02 0. -1.
    8880023    1    1    2    0    0  0.21308181181E+03 -0.93196828743E+03 -0.13643209927E+04  0.17914102614E+04  0.65864270000E+03 0. -1.
    8880022    1    1    2    0    0 -0.21308181181E+03  0.93196828743E+03  0.13688900530E+04  0.16766694300E+04  0.15294330000E+03 0.  0.
<mgrwt>
<rscale>  0 0.11094183E+04</rscale>
<asrwt>0</asrwt>
<pdfrwt beam="1">  1        2 0.26642389E+00 0.11609388E+04</pdfrwt>
<pdfrwt beam="2">  1       -2 0.26712683E+00 0.11609388E+04</pdfrwt>
<totfact> 0.46487795E-01</totfact>
</mgrwt>
</event>
<event>
 4    1  0.6502538E-008  0.8842293E+03  0.7818608E-02  0.9551838E-01
          2   -1    0    0  501    0  0.00000000000E+00  0.00000000000E+00  0.14254556878E+04  0.14254556879E+04  0.25500000000E-02 0. -1.
         -2   -1    0    0    0  501 -0.00000000000E+00 -0.00000000000E+00 -0.94882965254E+03  0.94882965254E+03  0.25500000000E-02 0.  1.
    8880023    1    1    2    0    0  0.39443923780E+03 -0.43871278359E+03  0.11600247147E+04  0.14586016467E+04  0.65864270000E+03 0.  0.
    8880022    1    1    2    0    0 -0.39443923780E+03  0.43871278359E+03 -0.68339867941E+03  0.91568369366E+03  0.15294330000E+03 0.  0.
<mgrwt>
<rscale>  0 0.80567553E+03</rscale>
<asrwt>0</asrwt>
<pdfrwt beam="1">  1        2 0.21930087E+00 0.88422928E+03</pdfrwt>
<pdfrwt beam="2">  1       -2 0.14597379E+00 0.88422928E+03</pdfrwt>
<totfact> 0.45327459E+00</totfact>
</mgrwt>
</event>
<event>
 4    1  0.6502538E-008  0.7370337E+03  0.7818608E-02  0.9868673E-01
          2   -1    0    0  501    0  0.00000000000E+00  0.00000000000E+00  0.18961228288E+04  0.18961228288E+04  0.25500000000E-02 0. -1.
         -2   -1    0    0    0  501 -0.00000000000E+00 -0.00000000000E+00 -0.11198475309E+04  0.11198475309E+04  0.25500000000E-02 0.  1.
    8880023    1    1    2    0    0  0.28529803351E+03  0.16737247855E+03  0.17915729219E+04  0.19372537922E+04  0.65864270000E+03 0. -1.
    8880022    1    1    2    0    0 -0.28529803351E+03 -0.16737247855E+03 -0.10152976241E+04  0.10787165675E+04  0.15294330000E+03 0.  0.
<mgrwt>
<rscale>  0 0.61803825E+03</rscale>
<asrwt>0</asrwt>
<pdfrwt beam="1">  1        2 0.29171120E+00 0.73703373E+03</pdfrwt>
<pdfrwt beam="2">  1       -2 0.17228424E+00 0.73703373E+03</pdfrwt>
<totfact> 0.16295312E+00</totfact>
</mgrwt>
</event>
<event>
 4    1  0.6502538E-008  0.1325412E+04  0.7818608E-02  0.9043920E-01
         -2   -1    0    0    0  501 -0.00000000000E+00  0.00000000000E+00  0.58662643739E+03  0.58662643740E+03  0.25500000000E-02 0.  1.
          2   -1    0    0  501    0  0.00000000000E+00 -0.00000000000E+00 -0.33128879305E+04  0.33128879305E+04  0.25500000000E-02 0. -1.
    8880023    1    1    2    0    0  0.10240553245E+04 -0.52365813645E+03 -0.23167064638E+04  0.26690534272E+04  0.65864270000E+03 0. -1.
    8880022    1    1    2    0    0 -0.10240553245E+04  0.52365813645E+03 -0.40955502926E+03  0.12304609407E+04  0.15294330000E+03 0.  0.
<mgrwt>
<rscale>  0 0.12820527E+04</rscale>
<asrwt>0</asrwt>
<pdfrwt beam="1">  1        2 0.50967506E+00 0.13254121E+04</pdfrwt>
<pdfrwt beam="2">  1       -2 0.90250223E-01 0.13254121E+04</pdfrwt>
<totfact> 0.11254713E+00</totfact>
</mgrwt>
</event>
<event>
 4    1  0.6502538E-008  0.7102793E+03  0.7818608E-02  0.9956965E-01
         -2   -1    0    0    0  501 -0.00000000000E+00  0.00000000000E+00  0.26677390710E+03  0.26677390711E+03  0.25500000000E-02 0.  1.
          2   -1    0    0  501    0  0.00000000000E+00 -0.00000000000E+00 -0.22548675047E+04  0.22548675047E+04  0.25500000000E-02 0. -1.
    8880023    1    1    2    0    0 -0.26565561942E+03 -0.10659377369E+02 -0.20828412821E+04  0.22006191272E+04  0.65864270000E+03 0.  0.
    8880022    1    1    2    0    0  0.26565561942E+03  0.10659377369E+02  0.94747684511E+02  0.32102228457E+03  0.15294330000E+03 0.  1.
<mgrwt>
<rscale>  0 0.57578189E+03</rscale>
<asrwt>0</asrwt>
<pdfrwt beam="1">  1        2 0.34690268E+00 0.71027934E+03</pdfrwt>
<pdfrwt beam="2">  1       -2 0.41042141E-01 0.71027934E+03</pdfrwt>
<totfact> 0.28230015E+01</totfact>
</mgrwt>
</event>
<event>
 4    1  0.6502538E-008  0.7363919E+03  0.7818608E-02  0.9870585E-01
          2   -1    0    0  501    0  0.00000000000E+00  0.00000000000E+00  0.93297436179E+03  0.93297436179E+03  0.25500000000E-02 0. -1.
         -2   -1    0    0    0  501 -0.00000000000E+00 -0.00000000000E+00 -0.12240549922E+04  0.12240549922E+04  0.25500000000E-02 0.  1.
    8880023    1    1    2    0    0 -0.32241654711E+03  0.67159242771E+02  0.75202501564E+03  0.10525277308E+04  0.65864270000E+03 0. -1.
    8880022    1    1    2    0    0  0.32241654711E+03 -0.67159242771E+02 -0.10431056460E+04  0.11045016232E+04  0.15294330000E+03 0.  0.
<mgrwt>
<rscale>  0 0.61708301E+03</rscale>
<asrwt>0</asrwt>
<pdfrwt beam="1">  1        2 0.14353452E+00 0.73639188E+03</pdfrwt>
<pdfrwt beam="2">  1       -2 0.18831615E+00 0.73639188E+03</pdfrwt>
<totfact> 0.45376105E+00</totfact>
</mgrwt>
</event>
<event>
 4    1  0.6502538E-008  0.8957813E+03  0.7818608E-02  0.9532838E-01
          2   -1    0    0  501    0  0.00000000000E+00  0.00000000000E+00  0.93915448802E+03  0.93915448802E+03  0.25500000000E-02 0. -1.
         -2   -1    0    0    0  501 -0.00000000000E+00 -0.00000000000E+00 -0.11102812321E+04  0.11102812321E+04  0.25500000000E-02 0.  1.
    8880023    1    1    2    0    0 -0.70556324444E+02  0.60302214026E+03  0.58336934144E+03  0.10689919978E+04  0.65864270000E+03 0. -1.
    8880022    1    1    2    0    0  0.70556324444E+02 -0.60302214026E+03 -0.75449608554E+03  0.98044372234E+03  0.15294330000E+03 0.  0.
<mgrwt>
<rscale>  0 0.81905490E+03</rscale>
<asrwt>0</asrwt>
<pdfrwt beam="1">  1        2 0.14448531E+00 0.89578128E+03</pdfrwt>
<pdfrwt beam="2">  1       -2 0.17081250E+00 0.89578128E+03</pdfrwt>
<totfact> 0.58166686E+00</totfact>
</mgrwt>
</event>
<event>
 4    1  0.6502538E-008  0.6690335E+03  0.7818608E-02  0.1016365E+00
          2   -1    0    0  501    0  0.00000000000E+00  0.00000000000E+00  0.60125090535E+03  0.60125090535E+03  0.25500000000E-02 0. -1.
         -2   -1    0    0    0  501 -0.00000000000E+00 -0.00000000000E+00 -0.33183496985E+03  0.33183496986E+03  0.25500000000E-02 0.  1.
    8880023    1    1    2    0    0  0.56903016958E+02 -0.10275075838E+03  0.30783391497E+03  0.73645610674E+03  0.65864270000E+03 0. -1.
    8880022    1    1    2    0    0 -0.56903016958E+02  0.10275075838E+03 -0.38417979473E+02  0.19662976847E+03  0.15294330000E+03 0.  0.
<mgrwt>
<rscale>  0 0.49021352E+03</rscale>
<asrwt>0</asrwt>
<pdfrwt beam="1">  1        2 0.92500139E-01 0.66903354E+03</pdfrwt>
<pdfrwt beam="2">  1       -2 0.51051534E-01 0.66903354E+03</pdfrwt>
<totfact> 0.18187887E+02</totfact>
</mgrwt>
</event>
<event>
 4    1  0.6502538E-008  0.6905620E+03  0.7818608E-02  0.1003887E+00
         -2   -1    0    0    0  501 -0.00000000000E+00  0.00000000000E+00  0.38808147698E+03  0.38808147699E+03  0.25500000000E-02 0.  1.
          2   -1    0    0  501    0  0.00000000000E+00 -0.00000000000E+00 -0.63784756415E+03  0.63784756416E+03  0.25500000000E-02 0. -1.
    8880023    1    1    2    0    0 -0.19826397147E+03 -0.61294968105E+02 -0.31650222776E+03  0.75963777022E+03  0.65864270000E+03 0. -1.
    8880022    1    1    2    0    0  0.19826397147E+03  0.61294968105E+02  0.66736140591E+02  0.26629127093E+03  0.15294330000E+03 0.  0.
<mgrwt>
<rscale>  0 0.53978383E+03</rscale>
<asrwt>0</asrwt>
<pdfrwt beam="1">  1        2 0.98130395E-01 0.69056200E+03</pdfrwt>
<pdfrwt beam="2">  1       -2 0.59704843E-01 0.69056200E+03</pdfrwt>
<totfact> 0.12220777E+02</totfact>
</mgrwt>
</event>
<event>
 4    1  0.6502538E-008  0.9196573E+03  0.7818608E-02  0.9495185E-01
         -2   -1    0    0    0  501 -0.00000000000E+00  0.00000000000E+00  0.83732316763E+03  0.83732316763E+03  0.25500000000E-02 0.  1.
          2   -1    0    0  501    0  0.00000000000E+00 -0.00000000000E+00 -0.27929327750E+04  0.27929327750E+04  0.25500000000E-02 0. -1.
    8880023    1    1    2    0    0  0.69762134384E+02 -0.63803811168E+03 -0.25694426441E+04  0.27290667077E+04  0.65864270000E+03 0.  0.
    8880022    1    1    2    0    0 -0.69762134384E+02  0.63803811168E+03  0.61383303668E+03  0.90118923500E+03  0.15294330000E+03 0.  0.
<mgrwt>
<rscale>  0 0.84639770E+03</rscale>
<asrwt>0</asrwt>
<pdfrwt beam="1">  1        2 0.42968196E+00 0.91965732E+03</pdfrwt>
<pdfrwt beam="2">  1       -2 0.12881895E+00 0.91965732E+03</pdfrwt>
<totfact> 0.10653779E+00</totfact>
</mgrwt>
</event>
<event>
 4    1  0.6502538E-008  0.8194762E+03  0.7818608E-02  0.9670166E-01
          2   -1    0    0  501    0  0.00000000000E+00  0.00000000000E+00  0.92083283128E+03  0.92083283128E+03  0.25500000000E-02 0. -1.
         -2   -1    0    0    0  501 -0.00000000000E+00 -0.00000000000E+00 -0.14947418729E+04  0.14947418729E+04  0.25500000000E-02 0.  1.
    8880023    1    1    2    0    0  0.25625790521E+03  0.41480474623E+03  0.67787263848E+03  0.10635095729E+04  0.65864270000E+03 0.  0.
    8880022    1    1    2    0    0 -0.25625790521E+03 -0.41480474623E+03 -0.12517816801E+04  0.13520651313E+04  0.15294330000E+03 0.  0.
<mgrwt>
<rscale>  0 0.72821205E+03</rscale>
<asrwt>0</asrwt>
<pdfrwt beam="1">  1        2 0.14166659E+00 0.81947623E+03</pdfrwt>
<pdfrwt beam="2">  1       -2 0.22996029E+00 0.81947623E+03</pdfrwt>
<totfact> 0.24725212E+00</totfact>
</mgrwt>
</event>
<event>
 4    1  0.6502538E-008  0.6855030E+03  0.7818608E-02  0.1006368E+00
          2   -1    0    0  501    0  0.00000000000E+00  0.00000000000E+00  0.16706802708E+04  0.16706802708E+04  0.25500000000E-02 0. -1.
         -2   -1    0    0    0  501 -0.00000000000E+00 -0.00000000000E+00 -0.50411528513E+03  0.50411528514E+03  0.25500000000E-02 0.  1.
    8880023    1    1    2    0    0  0.36680292988E+02 -0.18643697240E+03  0.15644788500E+04  0.17080715637E+04  0.65864270000E+03 0.  0.
    8880022    1    1    2    0    0 -0.36680292988E+02  0.18643697240E+03 -0.39791386425E+03  0.46672399225E+03  0.15294330000E+03 0.  1.
<mgrwt>
<rscale>  0 0.52944135E+03</rscale>
<asrwt>0</asrwt>
<pdfrwt beam="1">  1        2 0.25702773E+00 0.68550302E+03</pdfrwt>
<pdfrwt beam="2">  1       -2 0.77556198E-01 0.68550302E+03</pdfrwt>
<totfact> 0.15645674E+01</totfact>
</mgrwt>
</event>
<event>
 4    1  0.6502538E-008  0.6874698E+03  0.7818608E-02  0.1005379E+00
          2   -1    0    0  501    0  0.00000000000E+00  0.00000000000E+00  0.24297785635E+04  0.24297785635E+04  0.25500000000E-02 0. -1.
         -2   -1    0    0    0  501 -0.00000000000E+00 -0.00000000000E+00 -0.66091101601E+03  0.66091101601E+03  0.25500000000E-02 0.  1.
    8880023    1    1    2    0    0  0.37480984676E+02 -0.19339016913E+03  0.23552206454E+04  0.24535034291E+04  0.65864270000E+03 0. -1.
    8880022    1    1    2    0    0 -0.37480984676E+02  0.19339016913E+03 -0.58635309796E+03  0.63718615038E+03  0.15294330000E+03 0.  0.
<mgrwt>
<rscale>  0 0.53353234E+03</rscale>
<asrwt>0</asrwt>
<pdfrwt beam="1">  1        2 0.37381209E+00 0.68746985E+03</pdfrwt>
<pdfrwt beam="2">  1       -2 0.10167862E+00 0.68746985E+03</pdfrwt>
<totfact> 0.32195707E+00</totfact>
</mgrwt>
</event>
<event>
 4    1  0.6502538E-008  0.9558847E+03  0.7818608E-02  0.9441697E-01
         -2   -1    0    0    0  501 -0.00000000000E+00  0.00000000000E+00  0.72496677224E+03  0.72496677225E+03  0.25500000000E-02 0.  1.
          2   -1    0    0  501    0  0.00000000000E+00 -0.00000000000E+00 -0.23605754686E+04  0.23605754686E+04  0.25500000000E-02 0. -1.
    8880023    1    1    2    0    0  0.90583476770E+02 -0.68680422883E+03 -0.20514472240E+04  0.22632170320E+04  0.65864270000E+03 0. -1.
    8880022    1    1    2    0    0 -0.90583476770E+02  0.68680422883E+03  0.41583852763E+03  0.82232520883E+03  0.15294330000E+03 0.  0.
<mgrwt>
<rscale>  0 0.88722178E+03</rscale>
<asrwt>0</asrwt>
<pdfrwt beam="1">  1        2 0.36316545E+00 0.95588473E+03</pdfrwt>
<pdfrwt beam="2">  1       -2 0.11153335E+00 0.95588473E+03</pdfrwt>
<totfact> 0.26909516E+00</totfact>
</mgrwt>
</event>
<event>
 4    1  0.6502538E-008  0.1346266E+04  0.7818608E-02  0.9026601E-01
         -2   -1    0    0    0  501 -0.00000000000E+00  0.00000000000E+00  0.15446782752E+04  0.15446782752E+04  0.25500000000E-02 0.  1.
          2   -1    0    0  501    0  0.00000000000E+00 -0.00000000000E+00 -0.35169616021E+04  0.35169616021E+04  0.25500000000E-02 0. -1.
    8880023    1    1    2    0    0  0.25447857453E+03  0.11462388623E+04 -0.31290088998E+04  0.34063367091E+04  0.65864270000E+03 0. -1.
    8880022    1    1    2    0    0 -0.25447857453E+03 -0.11462388623E+04  0.11567255729E+04  0.16553031681E+04  0.15294330000E+03 0.  0.
<mgrwt>
<rscale>  0 0.13037440E+04</rscale>
<asrwt>0</asrwt>
<pdfrwt beam="1">  1        2 0.54107101E+00 0.13462663E+04</pdfrwt>
<pdfrwt beam="2">  1       -2 0.23764281E+00 0.13462663E+04</pdfrwt>
<totfact> 0.58732389E-02</totfact>
</mgrwt>
</event>
<event>
 4    1  0.6502538E-008  0.1373855E+04  0.7818608E-02  0.9004269E-01
          2   -1    0    0  501    0  0.00000000000E+00  0.00000000000E+00  0.13233253672E+04  0.13233253672E+04  0.25500000000E-02 0. -1.
         -2   -1    0    0    0  501 -0.00000000000E+00 -0.00000000000E+00 -0.14914899833E+04  0.14914899833E+04  0.25500000000E-02 0.  1.
    8880023    1    1    2    0    0  0.90867986010E+03  0.79244428612E+03  0.45730813448E+03  0.14479668404E+04  0.65864270000E+03 0.  0.
    8880022    1    1    2    0    0 -0.90867986010E+03 -0.79244428612E+03 -0.62547275063E+03  0.13668485101E+04  0.15294330000E+03 0.  0.
<mgrwt>
<rscale>  0 0.13323869E+04</rscale>
<asrwt>0</asrwt>
<pdfrwt beam="1">  1        2 0.20358852E+00 0.13738549E+04</pdfrwt>
<pdfrwt beam="2">  1       -2 0.22946000E+00 0.13738549E+04</pdfrwt>
<totfact> 0.13168518E+00</totfact>
</mgrwt>
</event>
<event>
 4    1  0.6502538E-008  0.7702848E+03  0.7818608E-02  0.9779174E-01
          2   -1    0    0  501    0  0.00000000000E+00  0.00000000000E+00  0.11311516100E+04  0.11311516100E+04  0.25500000000E-02 0. -1.
         -2   -1    0    0    0  501 -0.00000000000E+00 -0.00000000000E+00 -0.43482587947E+03  0.43482587948E+03  0.25500000000E-02 0.  1.
    8880023    1    1    2    0    0 -0.18803144432E+03  0.35238149242E+03  0.81571848293E+03  0.11219337725E+04  0.65864270000E+03 0. -1.
    8880022    1    1    2    0    0  0.18803144432E+03 -0.35238149242E+03 -0.11939275239E+03  0.44404371698E+03  0.15294330000E+03 0.  0.
<mgrwt>
<rscale>  0 0.66492280E+03</rscale>
<asrwt>0</asrwt>
<pdfrwt beam="1">  1        2 0.17402332E+00 0.77028485E+03</pdfrwt>
<pdfrwt beam="2">  1       -2 0.66896290E-01 0.77028485E+03</pdfrwt>
<totfact> 0.43424666E+01</totfact>
</mgrwt>
</event>
<event>
 4    1  0.1025052E-007  0.1488590E+04  0.7818608E-02  0.8917735E-01
         -2   -1    0    0    0  501 -0.00000000000E+00  0.00000000000E+00  0.18837732321E+04  0.18837732321E+04  0.25500000000E-02 0.  1.
          2   -1    0    0  501    0  0.00000000000E+00 -0.00000000000E+00 -0.29736747018E+04  0.29736747018E+04  0.25500000000E-02 0. -1.
    8880023    1    1    2    0    0 -0.13276714625E+04  0.13921020973E+03 -0.25000267006E+04  0.29096451166E+04  0.65864270000E+03 0. -1.
    8880022    1    1    2    0    0  0.13276714625E+04 -0.13921020973E+03  0.14101252309E+04  0.19478028172E+04  0.15294330000E+03 0.  0.
<mgrwt>
<rscale>  0 0.14509604E+04</rscale>
<asrwt>0</asrwt>
<pdfrwt beam="1">  1        2 0.45748842E+00 0.14885903E+04</pdfrwt>
<pdfrwt beam="2">  1       -2 0.28981126E+00 0.14885903E+04</pdfrwt>
<totfact> 0.62517186E-02</totfact>
</mgrwt>
</event>
<event>
 4    1  0.6502538E-008  0.1094096E+04  0.7818608E-02  0.9267658E-01
         -2   -1    0    0    0  501 -0.00000000000E+00  0.00000000000E+00  0.16998736596E+04  0.16998736596E+04  0.25500000000E-02 0.  1.
          2   -1    0    0  501    0  0.00000000000E+00 -0.00000000000E+00 -0.11635746272E+04  0.11635746272E+04  0.25500000000E-02 0. -1.
    8880023    1    1    2    0    0  0.81081608172E+03  0.32528910949E+03 -0.73157581639E+03  0.13161493473E+04  0.65864270000E+03 0. -1.
    8880022    1    1    2    0    0 -0.81081608172E+03 -0.32528910949E+03  0.12678748488E+04  0.15472989395E+04  0.15294330000E+03 0.  0.
<mgrwt>
<rscale>  0 0.10381562E+04</rscale>
<asrwt>0</asrwt>
<pdfrwt beam="1">  1        2 0.17901148E+00 0.10940959E+04</pdfrwt>
<pdfrwt beam="2">  1       -2 0.26151902E+00 0.10940959E+04</pdfrwt>
<totfact> 0.10727523E+00</totfact>
</mgrwt>
</event>
<event>
 4    1  0.6502538E-008  0.1135983E+04  0.7818608E-02  0.9222013E-01
          2   -1    0    0  501    0  0.00000000000E+00  0.00000000000E+00  0.36196957172E+04  0.36196957172E+04  0.25500000000E-02 0. -1.
         -2   -1    0    0    0  501 -0.00000000000E+00 -0.00000000000E+00 -0.38572915950E+03  0.38572915950E+03  0.25500000000E-02 0.  1.
    8880023    1    1    2    0    0 -0.24728614682E+03 -0.89190633985E+03  0.26923565276E+04  0.29221980144E+04  0.65864270000E+03 0.  0.
    8880022    1    1    2    0    0  0.24728614682E+03  0.89190633985E+03  0.54161003012E+03  0.10832268623E+04  0.15294330000E+03 0. -1.
<mgrwt>
<rscale>  0 0.10829082E+04</rscale>
<asrwt>0</asrwt>
<pdfrwt beam="1">  1        2 0.55687625E+00 0.11359831E+04</pdfrwt>
<pdfrwt beam="2">  1       -2 0.59342949E-01 0.11359831E+04</pdfrwt>
<totfact> 0.18045248E+00</totfact>
</mgrwt>
</event>
<event>
 4    1  0.6502538E-008  0.8833306E+03  0.7818608E-02  0.9553339E-01
         -2   -1    0    0    0  501 -0.00000000000E+00  0.00000000000E+00  0.10112104319E+04  0.10112104319E+04  0.25500000000E-02 0.  1.
          2   -1    0    0  501    0  0.00000000000E+00 -0.00000000000E+00 -0.27048772510E+04  0.27048772510E+04  0.25500000000E-02 0. -1.
    8880023    1    1    2    0    0 -0.54212192140E+03  0.22927410559E+03 -0.25312795936E+04  0.26809791832E+04  0.65864270000E+03 0. -1.
    8880022    1    1    2    0    0  0.54212192140E+03 -0.22927410559E+03  0.83761277448E+03  0.10351084997E+04  0.15294330000E+03 0.  0.
<mgrwt>
<rscale>  0 0.80463019E+03</rscale>
<asrwt>0</asrwt>
<pdfrwt beam="1">  1        2 0.41613496E+00 0.88333063E+03</pdfrwt>
<pdfrwt beam="2">  1       -2 0.15557084E+00 0.88333063E+03</pdfrwt>
<totfact> 0.73911307E-01</totfact>
</mgrwt>
</event>
<event>
 4    1  0.6502538E-008  0.1717480E+04  0.7818608E-02  0.8769611E-01
         -2   -1    0    0    0  501 -0.00000000000E+00  0.00000000000E+00  0.13121022612E+04  0.13121022612E+04  0.25500000000E-02 0.  1.
          2   -1    0    0  501    0  0.00000000000E+00 -0.00000000000E+00 -0.21838932161E+04  0.21838932161E+04  0.25500000000E-02 0. -1.
    8880023    1    1    2    0    0 -0.53569224822E+02  0.15852627064E+04 -0.81605969906E+03  0.19014970809E+04  0.65864270000E+03 0.  0.
    8880022    1    1    2    0    0  0.53569224822E+02 -0.15852627064E+04 -0.55731255781E+02  0.15944983964E+04  0.15294330000E+03 0.  0.
<mgrwt>
<rscale>  0 0.16856152E+04</rscale>
<asrwt>0</asrwt>
<pdfrwt beam="1">  1        2 0.33598357E+00 0.17174800E+04</pdfrwt>
<pdfrwt beam="2">  1       -2 0.20186189E+00 0.17174800E+04</pdfrwt>
<totfact> 0.62693598E-01</totfact>
</mgrwt>
</event>
<event>
 4    1  0.6502538E-008  0.8339193E+03  0.7818608E-02  0.9641754E-01
         -2   -1    0    0    0  501 -0.00000000000E+00  0.00000000000E+00  0.12602896484E+04  0.12602896484E+04  0.25500000000E-02 0.  1.
          2   -1    0    0  501    0  0.00000000000E+00 -0.00000000000E+00 -0.55237105452E+03  0.55237105452E+03  0.25500000000E-02 0. -1.
    8880023    1    1    2    0    0 -0.24749886196E+03  0.44761083650E+03 -0.10459843817E+03  0.84045356038E+03  0.65864270000E+03 0. -1.
    8880022    1    1    2    0    0  0.24749886196E+03 -0.44761083650E+03  0.81251703210E+03  0.97220714258E+03  0.15294330000E+03 0.  0.
<mgrwt>
<rscale>  0 0.74593185E+03</rscale>
<asrwt>0</asrwt>
<pdfrwt beam="1">  1        2 0.84980163E-01 0.83391927E+03</pdfrwt>
<pdfrwt beam="2">  1       -2 0.19389071E+00 0.83391927E+03</pdfrwt>
<totfact> 0.80736732E+00</totfact>
</mgrwt>
</event>
<event>
 4    1  0.6502538E-008  0.8251007E+03  0.7818608E-02  0.9658941E-01
          2   -1    0    0  501    0  0.00000000000E+00  0.00000000000E+00  0.17358941867E+04  0.17358941867E+04  0.25500000000E-02 0. -1.
         -2   -1    0    0    0  501 -0.00000000000E+00 -0.00000000000E+00 -0.55266167258E+03  0.55266167258E+03  0.25500000000E-02 0.  1.
    8880023    1    1    2    0    0  0.12456544901E+03 -0.48110751843E+03  0.14766309295E+04  0.16915171012E+04  0.65864270000E+03 0. -1.
    8880022    1    1    2    0    0 -0.12456544901E+03  0.48110751843E+03 -0.29339841546E+03  0.59703875803E+03  0.15294330000E+03 0.  0.
<mgrwt>
<rscale>  0 0.73514934E+03</rscale>
<asrwt>0</asrwt>
<pdfrwt beam="1">  1        2 0.26706064E+00 0.82510072E+03</pdfrwt>
<pdfrwt beam="2">  1       -2 0.85024874E-01 0.82510072E+03</pdfrwt>
<totfact> 0.11491567E+01</totfact>
</mgrwt>
</event>
<event>
 4    1  0.6502538E-008  0.9274572E+03  0.7818608E-02  0.9483318E-01
          2   -1    0    0  501    0  0.00000000000E+00  0.00000000000E+00  0.21538058399E+04  0.21538058399E+04  0.25500000000E-02 0. -1.
         -2   -1    0    0    0  501 -0.00000000000E+00 -0.00000000000E+00 -0.57893052637E+03  0.57893052638E+03  0.25500000000E-02 0.  1.
    8880023    1    1    2    0    0  0.15377077120E+03  0.63460319580E+03  0.18003557775E+04  0.20252056187E+04  0.65864270000E+03 0.  0.
    8880022    1    1    2    0    0 -0.15377077120E+03 -0.63460319580E+03 -0.22548046393E+03  0.70753074761E+03  0.15294330000E+03 0.  0.
<mgrwt>
<rscale>  0 0.85524947E+03</rscale>
<asrwt>0</asrwt>
<pdfrwt beam="1">  1        2 0.33135475E+00 0.92745721E+03</pdfrwt>
<pdfrwt beam="2">  1       -2 0.89066234E-01 0.92745721E+03</pdfrwt>
<totfact> 0.60109667E+00</totfact>
</mgrwt>
</event>
<event>
 4    1  0.6502538E-008  0.9617425E+03  0.7818608E-02  0.9433417E-01
          2   -1    0    0  501    0  0.00000000000E+00  0.00000000000E+00  0.58713250968E+03  0.58713250968E+03  0.25500000000E-02 0. -1.
         -2   -1    0    0    0  501 -0.00000000000E+00 -0.00000000000E+00 -0.22174139100E+04  0.22174139100E+04  0.25500000000E-02 0.  1.
    8880023    1    1    2    0    0  0.31358106945E+03  0.62674186888E+03 -0.18235820752E+04  0.20616498850E+04  0.65864270000E+03 0.  0.
    8880022    1    1    2    0    0 -0.31358106945E+03 -0.62674186888E+03  0.19330067482E+03  0.74289653467E+03  0.15294330000E+03 0.  0.
<mgrwt>
<rscale>  0 0.89375907E+03</rscale>
<asrwt>0</asrwt>
<pdfrwt beam="1">  1        2 0.90328080E-01 0.96174251E+03</pdfrwt>
<pdfrwt beam="2">  1       -2 0.34114060E+00 0.96174251E+03</pdfrwt>
<totfact> 0.91653659E-01</totfact>
</mgrwt>
</event>
<event>
 4    1  0.6502538E-008  0.1077921E+04  0.7818608E-02  0.9286046E-01
         -2   -1    0    0    0  501 -0.00000000000E+00  0.00000000000E+00  0.11084720195E+04  0.11084720195E+04  0.25500000000E-02 0.  1.
          2   -1    0    0  501    0  0.00000000000E+00 -0.00000000000E+00 -0.11530482449E+04  0.11530482449E+04  0.25500000000E-02 0. -1.
    8880023    1    1    2    0    0 -0.47291704907E+03 -0.71024870462E+03 -0.59834385273E+03  0.12328541398E+04  0.65864270000E+03 0.  0.
    8880022    1    1    2    0    0  0.47291704907E+03  0.71024870462E+03  0.55376762738E+03  0.10286661246E+04  0.15294330000E+03 0.  0.
<mgrwt>
<rscale>  0 0.10207774E+04</rscale>
<asrwt>0</asrwt>
<pdfrwt beam="1">  1        2 0.17739204E+00 0.10779211E+04</pdfrwt>
<pdfrwt beam="2">  1       -2 0.17053416E+00 0.10779211E+04</pdfrwt>
<totfact> 0.41995985E+00</totfact>
</mgrwt>
</event>
<event>
 4    1  0.6502538E-008  0.7103061E+03  0.7818608E-02  0.9956866E-01
          2   -1    0    0  501    0  0.00000000000E+00  0.00000000000E+00  0.19765440476E+04  0.19765440476E+04  0.25500000000E-02 0. -1.
         -2   -1    0    0    0  501 -0.00000000000E+00 -0.00000000000E+00 -0.39434639881E+03  0.39434639882E+03  0.25500000000E-02 0.  1.
    8880023    1    1    2    0    0  0.19258480942E+03 -0.18340007116E+03  0.18386197890E+04  0.19710549028E+04  0.65864270000E+03 0. -1.
    8880022    1    1    2    0    0 -0.19258480942E+03  0.18340007116E+03 -0.25642214025E+03  0.39983554363E+03  0.15294330000E+03 0.  0.
<mgrwt>
<rscale>  0 0.57582718E+03</rscale>
<asrwt>0</asrwt>
<pdfrwt beam="1">  1        2 0.30408370E+00 0.71030606E+03</pdfrwt>
<pdfrwt beam="2">  1       -2 0.60668676E-01 0.71030606E+03</pdfrwt>
<totfact> 0.18108987E+01</totfact>
</mgrwt>
</event>
<event>
 4    1  0.6502538E-008  0.6684898E+03  0.7818608E-02  0.1016769E+00
          2   -1    0    0  501    0  0.00000000000E+00  0.00000000000E+00  0.10511878893E+04  0.10511878893E+04  0.25500000000E-02 0. -1.
         -2   -1    0    0    0  501 -0.00000000000E+00 -0.00000000000E+00 -0.61217956591E+03  0.61217956591E+03  0.25500000000E-02 0.  1.
    8880023    1    1    2    0    0 -0.10958297273E+03  0.32557595044E+02  0.92496415784E+03  0.11412437621E+04  0.65864270000E+03 0. -1.
    8880022    1    1    2    0    0  0.10958297273E+03 -0.32557595044E+02 -0.48595583444E+03  0.52212369315E+03  0.15294330000E+03 0.  0.
<mgrwt>
<rscale>  0 0.48870670E+03</rscale>
<asrwt>0</asrwt>
<pdfrwt beam="1">  1        2 0.16172121E+00 0.66848981E+03</pdfrwt>
<pdfrwt beam="2">  1       -2 0.94181472E-01 0.66848981E+03</pdfrwt>
<totfact> 0.22806494E+01</totfact>
</mgrwt>
</event>
<event>
 4    1  0.6502538E-008  0.7991004E+03  0.7818608E-02  0.9712745E-01
         -2   -1    0    0    0  501 -0.00000000000E+00  0.00000000000E+00  0.25816959162E+03  0.25816959163E+03  0.25500000000E-02 0.  1.
          2   -1    0    0  501    0  0.00000000000E+00 -0.00000000000E+00 -0.19277272066E+04  0.19277272066E+04  0.25500000000E-02 0. -1.
    8880023    1    1    2    0    0 -0.44555032637E+03 -0.78969022646E+02 -0.14598433392E+04  0.16642427650E+04  0.65864270000E+03 0.  0.
    8880022    1    1    2    0    0  0.44555032637E+03  0.78969022646E+02 -0.20971427586E+03  0.52165403322E+03  0.15294330000E+03 0.  0.
<mgrwt>
<rscale>  0 0.70263027E+03</rscale>
<asrwt>0</asrwt>
<pdfrwt beam="1">  1        2 0.29657341E+00 0.79910037E+03</pdfrwt>
<pdfrwt beam="2">  1       -2 0.39718400E-01 0.79910037E+03</pdfrwt>
<totfact> 0.44973938E+01</totfact>
</mgrwt>
</event>
<event>
 4    1  0.6502538E-008  0.7066878E+03  0.7818608E-02  0.9970512E-01
         -2   -1    0    0    0  501 -0.00000000000E+00  0.00000000000E+00  0.60797903312E+03  0.60797903313E+03  0.25500000000E-02 0.  1.
          2   -1    0    0  501    0  0.00000000000E+00 -0.00000000000E+00 -0.18304324071E+04  0.18304324071E+04  0.25500000000E-02 0. -1.
    8880023    1    1    2    0    0 -0.70840634206E+02  0.24612815179E+03 -0.17193105636E+04  0.18588804381E+04  0.65864270000E+03 0. -1.
    8880022    1    1    2    0    0  0.70840634206E+02 -0.24612815179E+03  0.49685718964E+03  0.57953100217E+03  0.15294330000E+03 0.  0.
<mgrwt>
<rscale>  0 0.56962339E+03</rscale>
<asrwt>0</asrwt>
<pdfrwt beam="1">  1        2 0.28160498E+00 0.70668782E+03</pdfrwt>
<pdfrwt beam="2">  1       -2 0.93535237E-01 0.70668782E+03</pdfrwt>
<totfact> 0.83302339E+00</totfact>
</mgrwt>
</event>
<event>
 4    1  0.6502538E-008  0.1589917E+04  0.7818608E-02  0.8848621E-01
         -2   -1    0    0    0  501 -0.00000000000E+00  0.00000000000E+00  0.10296654493E+04  0.10296654493E+04  0.25500000000E-02 0.  1.
          2   -1    0    0  501    0  0.00000000000E+00 -0.00000000000E+00 -0.26031095938E+04  0.26031095938E+04  0.25500000000E-02 0. -1.
    8880023    1    1    2    0    0 -0.11021749591E+04 -0.93767541666E+03 -0.14840272009E+04  0.21748958060E+04  0.65864270000E+03 0.  0.
    8880022    1    1    2    0    0  0.11021749591E+04  0.93767541666E+03 -0.89416943603E+02  0.14578792372E+04  0.15294330000E+03 0.  1.
<mgrwt>
<rscale>  0 0.15550937E+04</rscale>
<asrwt>0</asrwt>
<pdfrwt beam="1">  1        2 0.40047840E+00 0.15899167E+04</pdfrwt>
<pdfrwt beam="2">  1       -2 0.15841007E+00 0.15899167E+04</pdfrwt>
<totfact> 0.73378826E-01</totfact>
</mgrwt>
</event>
<event>
 4    1  0.6502538E-008  0.9408820E+03  0.7818608E-02  0.9463356E-01
         -2   -1    0    0    0  501 -0.00000000000E+00  0.00000000000E+00  0.76213893088E+03  0.76213893088E+03  0.25500000000E-02 0.  1.
          2   -1    0    0  501    0  0.00000000000E+00 -0.00000000000E+00 -0.16862010708E+04  0.16862010708E+04  0.25500000000E-02 0. -1.
    8880023    1    1    2    0    0 -0.21752873289E+03  0.63571222327E+03 -0.13445743135E+04  0.16410786304E+04  0.65864270000E+03 0. -1.
    8880022    1    1    2    0    0  0.21752873289E+03 -0.63571222327E+03  0.42051217355E+03  0.80726137128E+03  0.15294330000E+03 0.  0.
<mgrwt>
<rscale>  0 0.87040192E+03</rscale>
<asrwt>0</asrwt>
<pdfrwt beam="1">  1        2 0.25941555E+00 0.94088203E+03</pdfrwt>
<pdfrwt beam="2">  1       -2 0.11725214E+00 0.94088203E+03</pdfrwt>
<totfact> 0.56274720E+00</totfact>
</mgrwt>
</event>
<event>
 4    1  0.6502538E-008  0.7751777E+03  0.7818608E-02  0.9767289E-01
         -2   -1    0    0    0  501 -0.00000000000E+00  0.00000000000E+00  0.59262390740E+03  0.59262390741E+03  0.25500000000E-02 0.  1.
          2   -1    0    0  501    0  0.00000000000E+00 -0.00000000000E+00 -0.20070241151E+04  0.20070241151E+04  0.25500000000E-02 0. -1.
    8880023    1    1    2    0    0  0.20216826576E+03 -0.35527208609E+03 -0.18359339108E+04  0.19928757598E+04  0.65864270000E+03 0. -1.
    8880022    1    1    2    0    0 -0.20216826576E+03  0.35527208609E+03  0.42153370316E+03  0.60677226267E+03  0.15294330000E+03 0.  0.
<mgrwt>
<rscale>  0 0.67147937E+03</rscale>
<asrwt>0</asrwt>
<pdfrwt beam="1">  1        2 0.30877294E+00 0.77517770E+03</pdfrwt>
<pdfrwt beam="2">  1       -2 0.91172910E-01 0.77517770E+03</pdfrwt>
<totfact> 0.70076555E+00</totfact>
</mgrwt>
</event>
<event>
 4    1  0.6502538E-008  0.1197809E+04  0.7818608E-02  0.9159255E-01
         -2   -1    0    0    0  501 -0.00000000000E+00  0.00000000000E+00  0.14098467054E+04  0.14098467054E+04  0.25500000000E-02 0.  1.
          2   -1    0    0  501    0  0.00000000000E+00 -0.00000000000E+00 -0.12026938027E+04  0.12026938027E+04  0.25500000000E-02 0. -1.
    8880023    1    1    2    0    0 -0.96774292919E+03  0.25379096357E+03 -0.57955689306E+03  0.13306512048E+04  0.65864270000E+03 0.  0.
    8880022    1    1    2    0    0  0.96774292919E+03 -0.25379096357E+03  0.78670979575E+03  0.12818893033E+04  0.15294330000E+03 0.  0.
<mgrwt>
<rscale>  0 0.11484063E+04</rscale>
<asrwt>0</asrwt>
<pdfrwt beam="1">  1        2 0.18502981E+00 0.11978090E+04</pdfrwt>
<pdfrwt beam="2">  1       -2 0.21689949E+00 0.11978090E+04</pdfrwt>
<totfact> 0.18959826E+00</totfact>
</mgrwt>
</event>
<event>
 4    1  0.6502538E-008  0.7570672E+03  0.7818608E-02  0.9812760E-01
         -2   -1    0    0    0  501 -0.00000000000E+00  0.00000000000E+00  0.60641770247E+03  0.60641770247E+03  0.25500000000E-02 0.  1.
          2   -1    0    0  501    0  0.00000000000E+00 -0.00000000000E+00 -0.75368311889E+03  0.75368311890E+03  0.25500000000E-02 0. -1.
    8880023    1    1    2    0    0  0.16888842280E+03  0.33289216902E+03 -0.42701571711E+03  0.86919107478E+03  0.65864270000E+03 0. -1.
    8880022    1    1    2    0    0 -0.16888842280E+03 -0.33289216902E+03  0.27975030068E+03  0.49090974659E+03  0.15294330000E+03 0.  0.
<mgrwt>
<rscale>  0 0.64682229E+03</rscale>
<asrwt>0</asrwt>
<pdfrwt beam="1">  1        2 0.11595125E+00 0.75706717E+03</pdfrwt>
<pdfrwt beam="2">  1       -2 0.93295031E-01 0.75706717E+03</pdfrwt>
<totfact> 0.36699249E+01</totfact>
</mgrwt>
</event>
<event>
 4    1  0.6502538E-008  0.8201304E+03  0.7818608E-02  0.9668850E-01
         -2   -1    0    0    0  501 -0.00000000000E+00  0.00000000000E+00  0.30113645561E+03  0.30113645562E+03  0.25500000000E-02 0.  1.
          2   -1    0    0  501    0  0.00000000000E+00 -0.00000000000E+00 -0.16226903490E+04  0.16226903490E+04  0.25500000000E-02 0. -1.
    8880023    1    1    2    0    0  0.31146213040E+03 -0.37655673723E+03 -0.10841749932E+04  0.13594297544E+04  0.65864270000E+03 0.  0.
    8880022    1    1    2    0    0 -0.31146213040E+03  0.37655673723E+03 -0.23737890017E+03  0.56439705021E+03  0.15294330000E+03 0.  0.
<mgrwt>
<rscale>  0 0.72902141E+03</rscale>
<asrwt>0</asrwt>
<pdfrwt beam="1">  1        2 0.24964466E+00 0.82013038E+03</pdfrwt>
<pdfrwt beam="2">  1       -2 0.46328686E-01 0.82013038E+03</pdfrwt>
<totfact> 0.48617990E+01</totfact>
</mgrwt>
</event>
<event>
 4    1  0.6502538E-008  0.1498884E+04  0.7818608E-02  0.8910424E-01
          2   -1    0    0  501    0  0.00000000000E+00  0.00000000000E+00  0.12747930188E+04  0.12747930188E+04  0.25500000000E-02 0. -1.
         -2   -1    0    0    0  501 -0.00000000000E+00 -0.00000000000E+00 -0.24000484625E+04  0.24000484625E+04  0.25500000000E-02 0.  1.
    8880023    1    1    2    0    0  0.16063080366E+03  0.13368024220E+04  0.48022696823E+03  0.15739349154E+04  0.65864270000E+03 0. -1.
    8880022    1    1    2    0    0 -0.16063080366E+03 -0.13368024220E+04 -0.16054824120E+04  0.21009065659E+04  0.15294330000E+03 0.  0.
<mgrwt>
<rscale>  0 0.14615613E+04</rscale>
<asrwt>0</asrwt>
<pdfrwt beam="1">  1        2 0.19612200E+00 0.14988840E+04</pdfrwt>
<pdfrwt beam="2">  1       -2 0.36923822E+00 0.14988840E+04</pdfrwt>
<totfact> 0.18981996E-01</totfact>
</mgrwt>
</event>
<event>
 4    1  0.6502538E-008  0.6819537E+03  0.7818608E-02  0.1008239E+00
          2   -1    0    0  501    0  0.00000000000E+00  0.00000000000E+00  0.37916945298E+04  0.37916945298E+04  0.25500000000E-02 0. -1.
         -2   -1    0    0    0  501 -0.00000000000E+00 -0.00000000000E+00 -0.55359615967E+02  0.55359616025E+02  0.25500000000E-02 0.  1.
    8880023    1    1    2    0    0  0.17268616021E+03  0.37817189366E+02  0.27205929424E+04  0.28047614541E+04  0.65864270000E+03 0.  0.
    8880022    1    1    2    0    0 -0.17268616021E+03 -0.37817189366E+02  0.10157419714E+04  0.10422926917E+04  0.15294330000E+03 0. -1.
<mgrwt>
<rscale>  0 0.52180387E+03</rscale>
<asrwt>0</asrwt>
<pdfrwt beam="1">  1        2 0.58333770E+00 0.68195371E+03</pdfrwt>
<pdfrwt beam="2">  1       -2 0.85168628E-02 0.68195371E+03</pdfrwt>
<totfact> 0.48899338E+01</totfact>
</mgrwt>
</event>
<event>
 4    1  0.6502538E-008  0.1197266E+04  0.7818608E-02  0.9159785E-01
          2   -1    0    0  501    0  0.00000000000E+00  0.00000000000E+00  0.23977055842E+04  0.23977055842E+04  0.25500000000E-02 0. -1.
         -2   -1    0    0    0  501 -0.00000000000E+00 -0.00000000000E+00 -0.53854086449E+03  0.53854086449E+03  0.25500000000E-02 0.  1.
    8880023    1    1    2    0    0 -0.50330824806E+03 -0.86389588793E+03  0.13481402322E+04  0.18030328865E+04  0.65864270000E+03 0. -1.
    8880022    1    1    2    0    0  0.50330824806E+03  0.86389588793E+03  0.51102448746E+03  0.11332135622E+04  0.15294330000E+03 0.  0.
<mgrwt>
<rscale>  0 0.11478333E+04</rscale>
<asrwt>0</asrwt>
<pdfrwt beam="1">  1        2 0.36887778E+00 0.11972658E+04</pdfrwt>
<pdfrwt beam="2">  1       -2 0.82852440E-01 0.11972658E+04</pdfrwt>
<totfact> 0.50160837E+00</totfact>
</mgrwt>
</event>
<event>
 4    1  0.6502538E-008  0.7335763E+03  0.7818608E-02  0.9879070E-01
          2   -1    0    0  501    0  0.00000000000E+00  0.00000000000E+00  0.55869501346E+03  0.55869501346E+03  0.25500000000E-02 0. -1.
         -2   -1    0    0    0  501 -0.00000000000E+00 -0.00000000000E+00 -0.74739337311E+03  0.74739337312E+03  0.25500000000E-02 0.  1.
    8880023    1    1    2    0    0 -0.17794980045E+03  0.26955120878E+03 -0.45248659283E+03  0.86190388594E+03  0.65864270000E+03 0.  0.
    8880022    1    1    2    0    0  0.17794980045E+03 -0.26955120878E+03  0.26378823318E+03  0.44418450065E+03  0.15294330000E+03 0.  0.
<mgrwt>
<rscale>  0 0.61286452E+03</rscale>
<asrwt>0</asrwt>
<pdfrwt beam="1">  1        2 0.85953078E-01 0.73357630E+03</pdfrwt>
<pdfrwt beam="2">  1       -2 0.11498360E+00 0.73357630E+03</pdfrwt>
<totfact> 0.32311879E+01</totfact>
</mgrwt>
</event>
<event>
 4    1  0.6502538E-008  0.1135046E+04  0.7818608E-02  0.9223004E-01
          2   -1    0    0  501    0  0.00000000000E+00  0.00000000000E+00  0.87875068963E+03  0.87875068963E+03  0.25500000000E-02 0. -1.
         -2   -1    0    0    0  501 -0.00000000000E+00 -0.00000000000E+00 -0.23081039901E+04  0.23081039901E+04  0.25500000000E-02 0.  1.
    8880023    1    1    2    0    0 -0.44807288007E+03  0.80854808538E+03  0.33987184568E+03  0.11848385502E+04  0.65864270000E+03 0. -1.
    8880022    1    1    2    0    0  0.44807288007E+03 -0.80854808538E+03 -0.17692251461E+04  0.20020161296E+04  0.15294330000E+03 0.  0.
<mgrwt>
<rscale>  0 0.10819107E+04</rscale>
<asrwt>0</asrwt>
<pdfrwt beam="1">  1        2 0.13519241E+00 0.11350460E+04</pdfrwt>
<pdfrwt beam="2">  1       -2 0.35509292E+00 0.11350460E+04</pdfrwt>
<totfact> 0.43489689E-01</totfact>
</mgrwt>
</event>
<event>
 4    1  0.6502538E-008  0.9704664E+03  0.7818608E-02  0.9421259E-01
          2   -1    0    0  501    0  0.00000000000E+00  0.00000000000E+00  0.14353674095E+04  0.14353674095E+04  0.25500000000E-02 0. -1.
         -2   -1    0    0    0  501 -0.00000000000E+00 -0.00000000000E+00 -0.13585601577E+04  0.13585601577E+04  0.25500000000E-02 0.  1.
    8880023    1    1    2    0    0  0.19648576313E+03 -0.68511911628E+03  0.11448507370E+04  0.15008291958E+04  0.65864270000E+03 0. -1.
    8880022    1    1    2    0    0 -0.19648576313E+03  0.68511911628E+03 -0.10680434853E+04  0.12930983714E+04  0.15294330000E+03 0.  0.
<mgrwt>
<rscale>  0 0.90346576E+03</rscale>
<asrwt>0</asrwt>
<pdfrwt beam="1">  1        2 0.22082576E+00 0.97046642E+03</pdfrwt>
<pdfrwt beam="2">  1       -2 0.20900926E+00 0.97046642E+03</pdfrwt>
<totfact> 0.16014817E+00</totfact>
</mgrwt>
</event>
<event>
 4    1  0.6502538E-008  0.1623177E+04  0.7818608E-02  0.8827223E-01
         -2   -1    0    0    0  501 -0.00000000000E+00  0.00000000000E+00  0.17579495048E+04  0.17579495048E+04  0.25500000000E-02 0.  1.
          2   -1    0    0  501    0  0.00000000000E+00 -0.00000000000E+00 -0.21951439528E+04  0.21951439528E+04  0.25500000000E-02 0. -1.
    8880023    1    1    2    0    0  0.18196400490E+03  0.14723388326E+04 -0.14285362716E+04  0.21622716348E+04  0.65864270000E+03 0.  0.
    8880022    1    1    2    0    0 -0.18196400490E+03 -0.14723388326E+04  0.99134182357E+03  0.17908218229E+04  0.15294330000E+03 0.  0.
<mgrwt>
<rscale>  0 0.15891802E+04</rscale>
<asrwt>0</asrwt>
<pdfrwt beam="1">  1        2 0.33771445E+00 0.16231767E+04</pdfrwt>
<pdfrwt beam="2">  1       -2 0.27045377E+00 0.16231767E+04</pdfrwt>
<totfact> 0.23129807E-01</totfact>
</mgrwt>
</event>
<event>
 4    1  0.7342497E-008  0.1256821E+04  0.7818608E-02  0.9103774E-01
          2   -1    0    0  501    0  0.00000000000E+00  0.00000000000E+00  0.19290547025E+04  0.19290547025E+04  0.25500000000E-02 0. -1.
         -2   -1    0    0    0  501 -0.00000000000E+00 -0.00000000000E+00 -0.17446599511E+04  0.17446599511E+04  0.25500000000E-02 0.  1.
    8880023    1    1    2    0    0 -0.71550675646E+03  0.79614036196E+03  0.15089810215E+04  0.19638287410E+04  0.65864270000E+03 0.  0.
    8880022    1    1    2    0    0  0.71550675646E+03 -0.79614036196E+03 -0.13245862700E+04  0.17098859126E+04  0.15294330000E+03 0.  0.
<mgrwt>
<rscale>  0 0.12104319E+04</rscale>
<asrwt>0</asrwt>
<pdfrwt beam="1">  1        2 0.29677765E+00 0.12568212E+04</pdfrwt>
<pdfrwt beam="2">  1       -2 0.26840922E+00 0.12568212E+04</pdfrwt>
<totfact> 0.35035953E-01</totfact>
</mgrwt>
</event>
<event>
 4    1  0.7617750E-008  0.1604639E+04  0.7818608E-02  0.8839075E-01
          2   -1    0    0  501    0  0.00000000000E+00  0.00000000000E+00  0.22596284947E+04  0.22596284947E+04  0.25500000000E-02 0. -1.
         -2   -1    0    0    0  501 -0.00000000000E+00 -0.00000000000E+00 -0.25639264000E+04  0.25639264000E+04  0.25500000000E-02 0.  1.
    8880023    1    1    2    0    0  0.13509533743E+04 -0.56212274089E+03  0.16997098895E+04  0.23374945797E+04  0.65864270000E+03 0. -1.
    8880022    1    1    2    0    0 -0.13509533743E+04  0.56212274089E+03 -0.20040077948E+04  0.24860603151E+04  0.15294330000E+03 0.  0.
<mgrwt>
<rscale>  0 0.15701873E+04</rscale>
<asrwt>0</asrwt>
<pdfrwt beam="1">  1        2 0.34763515E+00 0.16046393E+04</pdfrwt>
<pdfrwt beam="2">  1       -2 0.39445022E+00 0.16046393E+04</pdfrwt>
<totfact> 0.35710997E-02</totfact>
</mgrwt>
</event>
<event>
 4    1  0.6927642E-008  0.1437911E+04  0.7818608E-02  0.8954771E-01
          2   -1    0    0  501    0  0.00000000000E+00  0.00000000000E+00  0.22316141933E+04  0.22316141933E+04  0.25500000000E-02 0. -1.
         -2   -1    0    0    0  501 -0.00000000000E+00 -0.00000000000E+00 -0.17654183680E+04  0.17654183680E+04  0.25500000000E-02 0.  1.
    8880023    1    1    2    0    0  0.10687517465E+04 -0.70110350245E+03  0.16913098335E+04  0.22199359396E+04  0.65864270000E+03 0.  0.
    8880022    1    1    2    0    0 -0.10687517465E+04  0.70110350245E+03 -0.12251140082E+04  0.17770966217E+04  0.15294330000E+03 0.  0.
<mgrwt>
<rscale>  0 0.13986843E+04</rscale>
<asrwt>0</asrwt>
<pdfrwt beam="1">  1        2 0.34332526E+00 0.14379105E+04</pdfrwt>
<pdfrwt beam="2">  1       -2 0.27160283E+00 0.14379105E+04</pdfrwt>
<totfact> 0.22183789E-01</totfact>
</mgrwt>
</event>
<event>
 4    1  0.6502538E-008  0.1011510E+04  0.7818608E-02  0.9366652E-01
          2   -1    0    0  501    0  0.00000000000E+00  0.00000000000E+00  0.18828568395E+04  0.18828568395E+04  0.25500000000E-02 0. -1.
         -2   -1    0    0    0  501 -0.00000000000E+00 -0.00000000000E+00 -0.64812125997E+03  0.64812125997E+03  0.25500000000E-02 0.  1.
    8880023    1    1    2    0    0 -0.13389824315E+02 -0.76756934113E+03  0.14036960775E+04  0.17301776975E+04  0.65864270000E+03 0. -1.
    8880022    1    1    2    0    0  0.13389824315E+02  0.76756934113E+03 -0.16896049797E+03  0.80080040193E+03  0.15294330000E+03 0.  0.
<mgrwt>
<rscale>  0 0.94871672E+03</rscale>
<asrwt>0</asrwt>
<pdfrwt beam="1">  1        2 0.28967027E+00 0.10115099E+04</pdfrwt>
<pdfrwt beam="2">  1       -2 0.99710966E-01 0.10115099E+04</pdfrwt>
<totfact> 0.64407787E+00</totfact>
</mgrwt>
</event>
<event>
 4    1  0.6502538E-008  0.1285026E+04  0.7818608E-02  0.9078600E-01
          2   -1    0    0  501    0  0.00000000000E+00  0.00000000000E+00  0.21746133173E+04  0.21746133173E+04  0.25500000000E-02 0. -1.
         -2   -1    0    0    0  501 -0.00000000000E+00 -0.00000000000E+00 -0.11906021286E+04  0.11906021286E+04  0.25500000000E-02 0.  1.
    8880023    1    1    2    0    0 -0.65870618337E+03 -0.88520479908E+03  0.16314724386E+04  0.20767748786E+04  0.65864270000E+03 0.  0.
    8880022    1    1    2    0    0  0.65870618337E+03  0.88520479908E+03 -0.64746124987E+03  0.12884405673E+04  0.15294330000E+03 0.  0.
<mgrwt>
<rscale>  0 0.12399376E+04</rscale>
<asrwt>0</asrwt>
<pdfrwt beam="1">  1        2 0.33455590E+00 0.12850259E+04</pdfrwt>
<pdfrwt beam="2">  1       -2 0.18316956E+00 0.12850259E+04</pdfrwt>
<totfact> 0.88593066E-01</totfact>
</mgrwt>
</event>
<event>
 4    1  0.6502538E-008  0.6843028E+03  0.7818608E-02  0.1006987E+00
         -2   -1    0    0    0  501 -0.00000000000E+00  0.00000000000E+00  0.74329939019E+03  0.74329939019E+03  0.25500000000E-02 0.  1.
          2   -1    0    0  501    0  0.00000000000E+00 -0.00000000000E+00 -0.28620630421E+04  0.28620630421E+04  0.25500000000E-02 0. -1.
    8880023    1    1    2    0    0 -0.23655213301E+02  0.18412097853E+03 -0.28002637413E+04  0.28826632358E+04  0.65864270000E+03 0. -1.
    8880022    1    1    2    0    0  0.23655213301E+02 -0.18412097853E+03  0.68150008936E+03  0.72269919653E+03  0.15294330000E+03 0.  0.
<mgrwt>
<rscale>  0 0.52689709E+03</rscale>
<asrwt>0</asrwt>
<pdfrwt beam="1">  1        2 0.44031738E+00 0.68430279E+03</pdfrwt>
<pdfrwt beam="2">  1       -2 0.11435375E+00 0.68430279E+03</pdfrwt>
<totfact> 0.13672742E+00</totfact>
</mgrwt>
</event>
<event>
 4    1  0.6502538E-008  0.8048417E+03  0.7818608E-02  0.9700423E-01
          2   -1    0    0  501    0  0.00000000000E+00  0.00000000000E+00  0.17790124625E+04  0.17790124625E+04  0.25500000000E-02 0. -1.
         -2   -1    0    0    0  501 -0.00000000000E+00 -0.00000000000E+00 -0.39128736410E+03  0.39128736411E+03  0.25500000000E-02 0.  1.
    8880023    1    1    2    0    0 -0.12211000879E+02  0.46239681983E+03  0.14702924587E+04  0.16761652806E+04  0.65864270000E+03 0. -1.
    8880022    1    1    2    0    0  0.12211000879E+02 -0.46239681983E+03 -0.82567360325E+02  0.49413454599E+03  0.15294330000E+03 0.  0.
<mgrwt>
<rscale>  0 0.70991583E+03</rscale>
<asrwt>0</asrwt>
<pdfrwt beam="1">  1        2 0.27369423E+00 0.80484168E+03</pdfrwt>
<pdfrwt beam="2">  1       -2 0.60198056E-01 0.80484168E+03</pdfrwt>
<totfact> 0.23298066E+01</totfact>
</mgrwt>
</event>
<event>
 4    1  0.6502538E-008  0.7765627E+03  0.7818608E-02  0.9763974E-01
          2   -1    0    0  501    0  0.00000000000E+00  0.00000000000E+00  0.17275343033E+04  0.17275343033E+04  0.25500000000E-02 0. -1.
         -2   -1    0    0    0  501 -0.00000000000E+00 -0.00000000000E+00 -0.15473860878E+04  0.15473860878E+04  0.25500000000E-02 0.  1.
    8880023    1    1    2    0    0 -0.40924568267E+03  0.41921731586E+02  0.16055427744E+04  0.17834845856E+04  0.65864270000E+03 0. -1.
    8880022    1    1    2    0    0  0.40924568267E+03 -0.41921731586E+02 -0.14253945590E+04  0.14914358055E+04  0.15294330000E+03 0.  0.
<mgrwt>
<rscale>  0 0.67332263E+03</rscale>
<asrwt>0</asrwt>
<pdfrwt beam="1">  1        2 0.26577451E+00 0.77656273E+03</pdfrwt>
<pdfrwt beam="2">  1       -2 0.23805940E+00 0.77656273E+03</pdfrwt>
<totfact> 0.74897107E-01</totfact>
</mgrwt>
</event>
<event>
 4    1  0.6502538E-008  0.1239306E+04  0.7818608E-02  0.9119830E-01
          2   -1    0    0  501    0  0.00000000000E+00  0.00000000000E+00  0.44868344666E+04  0.44868344666E+04  0.25500000000E-02 0. -1.
         -2   -1    0    0    0  501 -0.00000000000E+00 -0.00000000000E+00 -0.71642420493E+03  0.71642420494E+03  0.25500000000E-02 0.  1.
    8880023    1    1    2    0    0  0.39830989240E+03  0.97129708822E+03  0.39387397422E+04  0.41291100454E+04  0.65864270000E+03 0. -1.
    8880022    1    1    2    0    0 -0.39830989240E+03 -0.97129708822E+03 -0.16832948055E+03  0.10741486261E+04  0.15294330000E+03 0.  0.
<mgrwt>
<rscale>  0 0.11920656E+04</rscale>
<asrwt>0</asrwt>
<pdfrwt beam="1">  1        2 0.69028223E+00 0.12393059E+04</pdfrwt>
<pdfrwt beam="2">  1       -2 0.11021911E+00 0.12393059E+04</pdfrwt>
<totfact> 0.84585875E-02</totfact>
</mgrwt>
</event>
<event>
 4    1  0.6502538E-008  0.1416570E+04  0.7818608E-02  0.8970913E-01
         -2   -1    0    0    0  501 -0.00000000000E+00  0.00000000000E+00  0.11798974470E+04  0.11798974471E+04  0.25500000000E-02 0.  1.
          2   -1    0    0  501    0  0.00000000000E+00 -0.00000000000E+00 -0.28740166532E+04  0.28740166532E+04  0.25500000000E-02 0. -1.
    8880023    1    1    2    0    0 -0.77651196668E+03  0.98482927913E+03 -0.22618207343E+04  0.26688017505E+04  0.65864270000E+03 0. -1.
    8880022    1    1    2    0    0  0.77651196668E+03 -0.98482927913E+03  0.56770152808E+03  0.13851123498E+04  0.15294330000E+03 0.  0.
<mgrwt>
<rscale>  0 0.13766265E+04</rscale>
<asrwt>0</asrwt>
<pdfrwt beam="1">  1        2 0.44215641E+00 0.14165697E+04</pdfrwt>
<pdfrwt beam="2">  1       -2 0.18152268E+00 0.14165697E+04</pdfrwt>
<totfact> 0.35147037E-01</totfact>
</mgrwt>
</event>
<event>
 4    1  0.6502538E-008  0.1057878E+04  0.7818608E-02  0.9309471E-01
          2   -1    0    0  501    0  0.00000000000E+00  0.00000000000E+00  0.17180255710E+04  0.17180255710E+04  0.25500000000E-02 0. -1.
         -2   -1    0    0    0  501 -0.00000000000E+00 -0.00000000000E+00 -0.76465584450E+03  0.76465584451E+03  0.25500000000E-02 0.  1.
    8880023    1    1    2    0    0  0.82104589291E+03  0.10573061628E+03  0.12055479259E+04  0.16038863206E+04  0.65864270000E+03 0.  0.
    8880022    1    1    2    0    0 -0.82104589291E+03 -0.10573061628E+03 -0.25217819945E+03  0.87879509488E+03  0.15294330000E+03 0.  0.
<mgrwt>
<rscale>  0 0.99915634E+03</rscale>
<asrwt>0</asrwt>
<pdfrwt beam="1">  1        2 0.26431162E+00 0.10578778E+04</pdfrwt>
<pdfrwt beam="2">  1       -2 0.11763936E+00 0.10578778E+04</pdfrwt>
<totfact> 0.52891320E+00</totfact>
</mgrwt>
</event>
<event>
 4    1  0.6502538E-008  0.6615332E+03  0.7818608E-02  0.1022638E+00
         -2   -1    0    0    0  501 -0.00000000000E+00  0.00000000000E+00  0.10620101882E+03  0.10620101885E+03  0.25500000000E-02 0.  1.
          2   -1    0    0  501    0  0.00000000000E+00 -0.00000000000E+00 -0.26725254574E+04  0.26725254574E+04  0.25500000000E-02 0. -1.
    8880023    1    1    2    0    0 -0.55426260110E+02 -0.27273939945E+02 -0.25228576763E+04  0.26081481935E+04  0.65864270000E+03 0. -1.
    8880022    1    1    2    0    0  0.55426260110E+02  0.27273939945E+02 -0.43466762290E+02  0.17057828276E+03  0.15294330000E+03 0.  0.
<mgrwt>
<rscale>  0 0.46746595E+03</rscale>
<asrwt>0</asrwt>
<pdfrwt beam="1">  1        2 0.41115771E+00 0.66153318E+03</pdfrwt>
<pdfrwt beam="2">  1       -2 0.16338620E-01 0.66153318E+03</pdfrwt>
<totfact> 0.88209786E+01</totfact>
</mgrwt>
</event>
<event>
 4    1  0.6502538E-008  0.7968594E+03  0.7818608E-02  0.9717628E-01
         -2   -1    0    0    0  501 -0.00000000000E+00  0.00000000000E+00  0.18983185595E+04  0.18983185595E+04  0.25500000000E-02 0.  1.
          2   -1    0    0  501    0  0.00000000000E+00 -0.00000000000E+00 -0.85285789364E+03  0.85285789364E+03  0.25500000000E-02 0. -1.
    8880023    1    1    2    0    0  0.15908714910E+03  0.41936387005E+03  0.17380310718E+04  0.19119981666E+04  0.65864270000E+03 0.  1.
    8880022    1    1    2    0    0 -0.15908714910E+03 -0.41936387005E+03 -0.69257040587E+03  0.83917828654E+03  0.15294330000E+03 0.  0.
<mgrwt>
<rscale>  0 0.69976852E+03</rscale>
<asrwt>0</asrwt>
<pdfrwt beam="1">  1        2 0.13120891E+00 0.79685945E+03</pdfrwt>
<pdfrwt beam="2">  1       -2 0.29204901E+00 0.79685945E+03</pdfrwt>
<totfact> 0.11614574E+00</totfact>
</mgrwt>
</event>
<event>
 4    1  0.6502538E-008  0.9909512E+03  0.7818608E-02  0.9393493E-01
         -2   -1    0    0    0  501 -0.00000000000E+00  0.00000000000E+00  0.92157809512E+03  0.92157809513E+03  0.25500000000E-02 0.  1.
          2   -1    0    0  501    0  0.00000000000E+00 -0.00000000000E+00 -0.13552600519E+04  0.13552600519E+04  0.25500000000E-02 0. -1.
    8880023    1    1    2    0    0 -0.48216693469E+03 -0.56186219034E+03 -0.94086021138E+03  0.13664560796E+04  0.65864270000E+03 0.  0.
    8880022    1    1    2    0    0  0.48216693469E+03  0.56186219034E+03  0.50717825457E+03  0.91038206746E+03  0.15294330000E+03 0.  0.
<mgrwt>
<rscale>  0 0.92613111E+03</rscale>
<asrwt>0</asrwt>
<pdfrwt beam="1">  1        2 0.20850155E+00 0.99095120E+03</pdfrwt>
<pdfrwt beam="2">  1       -2 0.14178125E+00 0.99095120E+03</pdfrwt>
<totfact> 0.52990420E+00</totfact>
</mgrwt>
</event>
<event>
 4    1  0.6502538E-008  0.7224039E+03  0.7818608E-02  0.9914534E-01
         -2   -1    0    0    0  501 -0.00000000000E+00  0.00000000000E+00  0.27742495075E+03  0.27742495077E+03  0.25500000000E-02 0.  1.
          2   -1    0    0  501    0  0.00000000000E+00 -0.00000000000E+00 -0.11292971023E+04  0.11292971023E+04  0.25500000000E-02 0. -1.
    8880023    1    1    2    0    0 -0.22376357344E+03  0.19490256171E+03 -0.78395238372E+03  0.10660434755E+04  0.65864270000E+03 0. -1.
    8880022    1    1    2    0    0  0.22376357344E+03 -0.19490256171E+03 -0.67919767815E+02  0.34067857760E+03  0.15294330000E+03 0.  0.
<mgrwt>
<rscale>  0 0.59562027E+03</rscale>
<asrwt>0</asrwt>
<pdfrwt beam="1">  1        2 0.17373801E+00 0.72240387E+03</pdfrwt>
<pdfrwt beam="2">  1       -2 0.42680762E-01 0.72240387E+03</pdfrwt>
<totfact> 0.11053526E+02</totfact>
</mgrwt>
</event>
<event>
 4    1  0.6502538E-008  0.1354352E+04  0.7818608E-02  0.9019989E-01
          2   -1    0    0  501    0  0.00000000000E+00  0.00000000000E+00  0.27315250612E+04  0.27315250612E+04  0.25500000000E-02 0. -1.
         -2   -1    0    0    0  501 -0.00000000000E+00 -0.00000000000E+00 -0.20619286417E+04  0.20619286417E+04  0.25500000000E-02 0.  1.
    8880023    1    1    2    0    0  0.74889490223E+02 -0.11810381781E+04 -0.16801727706E+04  0.21580663473E+04  0.65864270000E+03 0.  0.
    8880022    1    1    2    0    0 -0.74889490223E+02  0.11810381781E+04  0.23497691902E+04  0.26353873556E+04  0.15294330000E+03 0.  0.
<mgrwt>
<rscale>  0 0.13121449E+04</rscale>
<asrwt>0</asrwt>
<pdfrwt beam="1">  1        2 0.42023463E+00 0.13543522E+04</pdfrwt>
<pdfrwt beam="2">  1       -2 0.31721979E+00 0.13543522E+04</pdfrwt>
<totfact> 0.60842208E-02</totfact>
</mgrwt>
</event>
<event>
 4    1  0.6502538E-008  0.1624293E+04  0.7818608E-02  0.8826515E-01
         -2   -1    0    0    0  501 -0.00000000000E+00  0.00000000000E+00  0.15452909522E+04  0.15452909522E+04  0.25500000000E-02 0.  1.
          2   -1    0    0  501    0  0.00000000000E+00 -0.00000000000E+00 -0.26632964091E+04  0.26632964091E+04  0.25500000000E-02 0. -1.
    8880023    1    1    2    0    0  0.14835021778E+04  0.61154431890E+02 -0.19193953774E+04  0.25144397780E+04  0.65864270000E+03 0. -1.
    8880022    1    1    2    0    0 -0.14835021778E+04 -0.61154431890E+02  0.80138992050E+03  0.16941475832E+04  0.15294330000E+03 0.  0.
<mgrwt>
<rscale>  0 0.15903238E+04</rscale>
<asrwt>0</asrwt>
<pdfrwt beam="1">  1        2 0.40973791E+00 0.16242933E+04</pdfrwt>
<pdfrwt beam="2">  1       -2 0.23773707E+00 0.16242933E+04</pdfrwt>
<totfact> 0.19761859E-01</totfact>
</mgrwt>
</event>
<event>
 4    1  0.6502538E-008  0.8480958E+03  0.7818608E-02  0.9615100E-01
         -2   -1    0    0    0  501 -0.00000000000E+00  0.00000000000E+00  0.12580362911E+04  0.12580362911E+04  0.25500000000E-02 0.  1.
          2   -1    0    0  501    0  0.00000000000E+00 -0.00000000000E+00 -0.13462005154E+04  0.13462005154E+04  0.25500000000E-02 0. -1.
    8880023    1    1    2    0    0  0.39131714145E+03  0.36376795256E+03 -0.11362888498E+04  0.14178923743E+04  0.65864270000E+03 0. -1.
    8880022    1    1    2    0    0 -0.39131714145E+03 -0.36376795256E+03  0.10481246255E+04  0.11863444323E+04  0.15294330000E+03 0.  0.
<mgrwt>
<rscale>  0 0.76304781E+03</rscale>
<asrwt>0</asrwt>
<pdfrwt beam="1">  1        2 0.20710777E+00 0.84809577E+03</pdfrwt>
<pdfrwt beam="2">  1       -2 0.19354404E+00 0.84809577E+03</pdfrwt>
<totfact> 0.23100040E+00</totfact>
</mgrwt>
</event>
<event>
 4    1  0.6502538E-008  0.1266400E+04  0.7818608E-02  0.9095132E-01
         -2   -1    0    0    0  501 -0.00000000000E+00  0.00000000000E+00  0.17520980133E+04  0.17520980133E+04  0.25500000000E-02 0.  1.
          2   -1    0    0  501    0  0.00000000000E+00 -0.00000000000E+00 -0.23878814110E+04  0.23878814110E+04  0.25500000000E-02 0. -1.
    8880023    1    1    2    0    0  0.10407282412E+04 -0.29469423179E+03 -0.20153897716E+04  0.23802449664E+04  0.65864270000E+03 0.  0.
    8880022    1    1    2    0    0 -0.10407282412E+04  0.29469423179E+03  0.13796063739E+04  0.17597344579E+04  0.15294330000E+03 0.  0.
<mgrwt>
<rscale>  0 0.12204623E+04</rscale>
<asrwt>0</asrwt>
<pdfrwt beam="1">  1        2 0.36736637E+00 0.12664005E+04</pdfrwt>
<pdfrwt beam="2">  1       -2 0.26955354E+00 0.12664005E+04</pdfrwt>
<totfact> 0.19062799E-01</totfact>
</mgrwt>
</event>
<event>
 4    1  0.6502538E-008  0.1732545E+04  0.7818608E-02  0.8760797E-01
         -2   -1    0    0    0  501 -0.00000000000E+00  0.00000000000E+00  0.18407285498E+04  0.18407285498E+04  0.25500000000E-02 0.  1.
          2   -1    0    0  501    0  0.00000000000E+00 -0.00000000000E+00 -0.21939800777E+04  0.21939800777E+04  0.25500000000E-02 0. -1.
    8880023    1    1    2    0    0  0.81561558494E+03 -0.13793736296E+04 -0.13010425451E+04  0.21666615570E+04  0.65864270000E+03 0.  0.
    8880022    1    1    2    0    0 -0.81561558494E+03  0.13793736296E+04  0.94779101718E+03  0.18680470705E+04  0.15294330000E+03 0.  0.
<mgrwt>
<rscale>  0 0.17009943E+04</rscale>
<asrwt>0</asrwt>
<pdfrwt beam="1">  1        2 0.33753540E+00 0.17325445E+04</pdfrwt>
<pdfrwt beam="2">  1       -2 0.28318901E+00 0.17325445E+04</pdfrwt>
<totfact> 0.19138552E-01</totfact>
</mgrwt>
</event>
<event>
 4    1  0.6502538E-008  0.7470211E+03  0.7818608E-02  0.9839948E-01
         -2   -1    0    0    0  501 -0.00000000000E+00  0.00000000000E+00  0.39307479558E+03  0.39307479558E+03  0.25500000000E-02 0.  1.
          2   -1    0    0  501    0  0.00000000000E+00 -0.00000000000E+00 -0.18869853272E+04  0.18869853272E+04  0.25500000000E-02 0. -1.
    8880023    1    1    2    0    0  0.19385102637E+03  0.29436727041E+03 -0.16907000406E+04  0.18483795995E+04  0.65864270000E+03 0. -1.
    8880022    1    1    2    0    0 -0.19385102637E+03 -0.29436727041E+03  0.19678950898E+03  0.43168052327E+03  0.15294330000E+03 0.  0.
<mgrwt>
<rscale>  0 0.63262088E+03</rscale>
<asrwt>0</asrwt>
<pdfrwt beam="1">  1        2 0.29030543E+00 0.74702110E+03</pdfrwt>
<pdfrwt beam="2">  1       -2 0.60473046E-01 0.74702110E+03</pdfrwt>
<totfact> 0.20295045E+01</totfact>
</mgrwt>
</event>
<event>
 4    1  0.6502538E-008  0.1020812E+04  0.7818608E-02  0.9354822E-01
         -2   -1    0    0    0  501 -0.00000000000E+00  0.00000000000E+00  0.11649660548E+04  0.11649660548E+04  0.25500000000E-02 0.  1.
          2   -1    0    0  501    0  0.00000000000E+00 -0.00000000000E+00 -0.20003331173E+04  0.20003331173E+04  0.25500000000E-02 0. -1.
    8880023    1    1    2    0    0 -0.76795000147E+03 -0.13601129532E+03 -0.17049863168E+04  0.19872178602E+04  0.65864270000E+03 0.  0.
    8880022    1    1    2    0    0  0.76795000147E+03  0.13601129532E+03  0.86961925421E+03  0.11780813119E+04  0.15294330000E+03 0.  0.
<mgrwt>
<rscale>  0 0.95888770E+03</rscale>
<asrwt>0</asrwt>
<pdfrwt beam="1">  1        2 0.30774356E+00 0.10208117E+04</pdfrwt>
<pdfrwt beam="2">  1       -2 0.17922555E+00 0.10208117E+04</pdfrwt>
<totfact> 0.12195889E+00</totfact>
</mgrwt>
</event>
<event>
 4    1  0.6502538E-008  0.1265629E+04  0.7818608E-02  0.9095825E-01
         -2   -1    0    0    0  501 -0.00000000000E+00  0.00000000000E+00  0.13208019505E+04  0.13208019505E+04  0.25500000000E-02 0.  1.
          2   -1    0    0  501    0  0.00000000000E+00 -0.00000000000E+00 -0.15668403372E+04  0.15668403372E+04  0.25500000000E-02 0. -1.
    8880023    1    1    2    0    0  0.10805645157E+04  0.19675188719E+02 -0.95551000622E+03  0.15858172543E+04  0.65864270000E+03 0. -1.
    8880022    1    1    2    0    0 -0.10805645157E+04 -0.19675188719E+02  0.70947161961E+03  0.13018250334E+04  0.15294330000E+03 0.  0.
<mgrwt>
<rscale>  0 0.12196549E+04</rscale>
<asrwt>0</asrwt>
<pdfrwt beam="1">  1        2 0.24105236E+00 0.12656291E+04</pdfrwt>
<pdfrwt beam="2">  1       -2 0.20320030E+00 0.12656291E+04</pdfrwt>
<totfact> 0.14207014E+00</totfact>
</mgrwt>
</event>
<event>
 4    1  0.6502538E-008  0.7743112E+03  0.7818608E-02  0.9769374E-01
          2   -1    0    0  501    0  0.00000000000E+00  0.00000000000E+00  0.14049062436E+04  0.14049062436E+04  0.25500000000E-02 0. -1.
         -2   -1    0    0    0  501 -0.00000000000E+00 -0.00000000000E+00 -0.29578875747E+03  0.29578875748E+03  0.25500000000E-02 0.  1.
    8880023    1    1    2    0    0 -0.24058646208E+03  0.32842919777E+03  0.97606171219E+03  0.12458949618E+04  0.65864270000E+03 0.  0.
    8880022    1    1    2    0    0  0.24058646208E+03 -0.32842919777E+03  0.13305577392E+03  0.45480003922E+03  0.15294330000E+03 0.  0.
<mgrwt>
<rscale>  0 0.67032335E+03</rscale>
<asrwt>0</asrwt>
<pdfrwt beam="1">  1        2 0.21613943E+00 0.77431117E+03</pdfrwt>
<pdfrwt beam="2">  1       -2 0.45505962E-01 0.77431117E+03</pdfrwt>
<totfact> 0.66949679E+01</totfact>
</mgrwt>
</event>
<event>
 4    1  0.6502538E-008  0.1260912E+04  0.7818608E-02  0.9100072E-01
          2   -1    0    0  501    0  0.00000000000E+00  0.00000000000E+00  0.22095947441E+04  0.22095947441E+04  0.25500000000E-02 0. -1.
         -2   -1    0    0    0  501 -0.00000000000E+00 -0.00000000000E+00 -0.80247531882E+03  0.80247531882E+03  0.25500000000E-02 0.  1.
    8880023    1    1    2    0    0  0.17382309696E+03 -0.10610718792E+04  0.14545490043E+04  0.19249963673E+04  0.65864270000E+03 0.  0.
    8880022    1    1    2    0    0 -0.17382309696E+03  0.10610718792E+04 -0.47429578949E+02  0.10870736957E+04  0.15294330000E+03 0.  0.
<mgrwt>
<rscale>  0 0.12147161E+04</rscale>
<asrwt>0</asrwt>
<pdfrwt beam="1">  1        2 0.33993766E+00 0.12609117E+04</pdfrwt>
<pdfrwt beam="2">  1       -2 0.12345774E+00 0.12609117E+04</pdfrwt>
<totfact> 0.24491881E+00</totfact>
</mgrwt>
</event>
<event>
 4    1  0.6502538E-008  0.8454279E+03  0.7818608E-02  0.9620029E-01
         -2   -1    0    0    0  501 -0.00000000000E+00  0.00000000000E+00  0.67477573707E+03  0.67477573708E+03  0.25500000000E-02 0.  1.
          2   -1    0    0  501    0  0.00000000000E+00 -0.00000000000E+00 -0.10632981296E+04  0.10632981296E+04  0.25500000000E-02 0. -1.
    8880023    1    1    2    0    0 -0.52990184484E+03  0.11920193589E+02 -0.70611903230E+03  0.11015227416E+04  0.65864270000E+03 0. -1.
    8880022    1    1    2    0    0  0.52990184484E+03 -0.11920193589E+02  0.31759663982E+03  0.63655112506E+03  0.15294330000E+03 0.  0.
<mgrwt>
<rscale>  0 0.75984579E+03</rscale>
<asrwt>0</asrwt>
<pdfrwt beam="1">  1        2 0.16358433E+00 0.84542786E+03</pdfrwt>
<pdfrwt beam="2">  1       -2 0.10381165E+00 0.84542786E+03</pdfrwt>
<totfact> 0.17475942E+01</totfact>
</mgrwt>
</event>
<event>
 4    1  0.6502538E-008  0.6820464E+03  0.7818608E-02  0.1008189E+00
          2   -1    0    0  501    0  0.00000000000E+00  0.00000000000E+00  0.75998213896E+03  0.75998213896E+03  0.25500000000E-02 0. -1.
         -2   -1    0    0    0  501 -0.00000000000E+00 -0.00000000000E+00 -0.41667411693E+03  0.41667411694E+03  0.25500000000E-02 0.  1.
    8880023    1    1    2    0    0  0.43774540480E+02 -0.17164190274E+03  0.54080175452E+03  0.87043316638E+03  0.65864270000E+03 0. -1.
    8880022    1    1    2    0    0 -0.43774540480E+02  0.17164190274E+03 -0.19749373249E+03  0.30622308953E+03  0.15294330000E+03 0.  0.
<mgrwt>
<rscale>  0 0.52200796E+03</rscale>
<asrwt>0</asrwt>
<pdfrwt beam="1">  1        2 0.11692033E+00 0.68204645E+03</pdfrwt>
<pdfrwt beam="2">  1       -2 0.64103711E-01 0.68204645E+03</pdfrwt>
<totfact> 0.84352376E+01</totfact>
</mgrwt>
</event>
<event>
 4    1  0.6502538E-008  0.1134769E+04  0.7818608E-02  0.9223297E-01
         -2   -1    0    0    0  501 -0.00000000000E+00  0.00000000000E+00  0.13021913432E+04  0.13021913432E+04  0.25500000000E-02 0.  1.
          2   -1    0    0  501    0  0.00000000000E+00 -0.00000000000E+00 -0.11988287648E+04  0.11988287648E+04  0.25500000000E-02 0. -1.
    8880023    1    1    2    0    0 -0.67191471359E+03  0.63436745576E+03 -0.64219248203E+03  0.13038837531E+04  0.65864270000E+03 0. -1.
    8880022    1    1    2    0    0  0.67191471359E+03 -0.63436745576E+03  0.74555506045E+03  0.11971363550E+04  0.15294330000E+03 0.  0.
<mgrwt>
<rscale>  0 0.10816162E+04</rscale>
<asrwt>0</asrwt>
<pdfrwt beam="1">  1        2 0.18443519E+00 0.11347694E+04</pdfrwt>
<pdfrwt beam="2">  1       -2 0.20033713E+00 0.11347694E+04</pdfrwt>
<totfact> 0.24539562E+00</totfact>
</mgrwt>
</event>
<event>
 4    1  0.6502538E-008  0.1021601E+04  0.7818608E-02  0.9353827E-01
          2   -1    0    0  501    0  0.00000000000E+00  0.00000000000E+00  0.12744554978E+04  0.12744554978E+04  0.25500000000E-02 0. -1.
         -2   -1    0    0    0  501 -0.00000000000E+00 -0.00000000000E+00 -0.11563415127E+04  0.11563415127E+04  0.25500000000E-02 0.  1.
    8880023    1    1    2    0    0 -0.77223510700E+03 -0.11623679804E+03  0.86560929060E+03  0.13390099716E+04  0.65864270000E+03 0.  0.
    8880022    1    1    2    0    0  0.77223510700E+03  0.11623679804E+03 -0.74749530543E+03  0.10917870389E+04  0.15294330000E+03 0.  0.
<mgrwt>
<rscale>  0 0.95974930E+03</rscale>
<asrwt>0</asrwt>
<pdfrwt beam="1">  1        2 0.19607008E+00 0.10216008E+04</pdfrwt>
<pdfrwt beam="2">  1       -2 0.17789869E+00 0.10216008E+04</pdfrwt>
<totfact> 0.31737283E+00</totfact>
</mgrwt>
</event>
<event>
 4    1  0.6502538E-008  0.8116303E+03  0.7818608E-02  0.9686191E-01
          2   -1    0    0  501    0  0.00000000000E+00  0.00000000000E+00  0.26754689173E+04  0.26754689173E+04  0.25500000000E-02 0. -1.
         -2   -1    0    0    0  501 -0.00000000000E+00 -0.00000000000E+00 -0.77023732673E+03  0.77023732673E+03  0.25500000000E-02 0.  1.
    8880023    1    1    2    0    0 -0.18936465389E+03 -0.43482711276E+03  0.25239648138E+04  0.26512529449E+04  0.65864270000E+03 0. -1.
    8880022    1    1    2    0    0  0.18936465389E+03  0.43482711276E+03 -0.61873322318E+03  0.79445329921E+03  0.15294330000E+03 0.  0.
<mgrwt>
<rscale>  0 0.71844961E+03</rscale>
<asrwt>0</asrwt>
<pdfrwt beam="1">  1        2 0.41161060E+00 0.81163033E+03</pdfrwt>
<pdfrwt beam="2">  1       -2 0.11849805E+00 0.81163033E+03</pdfrwt>
<totfact> 0.15704027E+00</totfact>
</mgrwt>
</event>
<event>
 4    1  0.6502538E-008  0.1031694E+04  0.7818608E-02  0.9341219E-01
          2   -1    0    0  501    0  0.00000000000E+00  0.00000000000E+00  0.20300656067E+04  0.20300656067E+04  0.25500000000E-02 0. -1.
         -2   -1    0    0    0  501 -0.00000000000E+00 -0.00000000000E+00 -0.11388388003E+04  0.11388388003E+04  0.25500000000E-02 0.  1.
    8880023    1    1    2    0    0  0.78269580647E+03 -0.13404805580E+03  0.17233469698E+04  0.20085608259E+04  0.65864270000E+03 0. -1.
    8880022    1    1    2    0    0 -0.78269580647E+03  0.13404805580E+03 -0.83212016339E+03  0.11603435810E+04  0.15294330000E+03 0.  1.
<mgrwt>
<rscale>  0 0.97075150E+03</rscale>
<asrwt>0</asrwt>
<pdfrwt beam="1">  1        2 0.31231779E+00 0.10316937E+04</pdfrwt>
<pdfrwt beam="2">  1       -2 0.17520597E+00 0.10316937E+04</pdfrwt>
<totfact> 0.12507049E+00</totfact>
</mgrwt>
</event>
<event>
 4    1  0.6502538E-008  0.9795543E+03  0.7818608E-02  0.9408810E-01
          2   -1    0    0  501    0  0.00000000000E+00  0.00000000000E+00  0.26040989714E+04  0.26040989714E+04  0.25500000000E-02 0. -1.
         -2   -1    0    0    0  501 -0.00000000000E+00 -0.00000000000E+00 -0.34422159904E+03  0.34422159905E+03  0.25500000000E-02 0.  1.
    8880023    1    1    2    0    0 -0.12227676698E+03 -0.71467815019E+03  0.64862260549E+03  0.11748352892E+04  0.65864270000E+03 0.  0.
    8880022    1    1    2    0    0  0.12227676698E+03  0.71467815019E+03  0.16112547669E+04  0.17734852813E+04  0.15294330000E+03 0.  0.
<mgrwt>
<rscale>  0 0.91354223E+03</rscale>
<asrwt>0</asrwt>
<pdfrwt beam="1">  1        2 0.40063061E+00 0.97955432E+03</pdfrwt>
<pdfrwt beam="2">  1       -2 0.52957169E-01 0.97955432E+03</pdfrwt>
<totfact> 0.10347849E+01</totfact>
</mgrwt>
</event>
<event>
 4    1  0.7146095E-008  0.8703173E+03  0.7818608E-02  0.9575468E-01
         -2   -1    0    0    0  501 -0.00000000000E+00  0.00000000000E+00  0.10232341279E+04  0.10232341279E+04  0.25500000000E-02 0.  1.
          2   -1    0    0  501    0  0.00000000000E+00 -0.00000000000E+00 -0.29901291823E+04  0.29901291823E+04  0.25500000000E-02 0. -1.
    8880023    1    1    2    0    0 -0.56392433066E+03  0.75042609818E+02 -0.28342527035E+04  0.29648677268E+04  0.65864270000E+03 0.  0.
    8880022    1    1    2    0    0  0.56392433066E+03 -0.75042609818E+02  0.86735764912E+03  0.10484955834E+04  0.15294330000E+03 0.  1.
<mgrwt>
<rscale>  0 0.78941374E+03</rscale>
<asrwt>0</asrwt>
<pdfrwt beam="1">  1        2 0.46001987E+00 0.87031733E+03</pdfrwt>
<pdfrwt beam="2">  1       -2 0.15742064E+00 0.87031733E+03</pdfrwt>
<totfact> 0.48436918E-01</totfact>
</mgrwt>
</event>
<event>
 4    1  0.6502538E-008  0.1625856E+04  0.7818608E-02  0.8825525E-01
         -2   -1    0    0    0  501 -0.00000000000E+00  0.00000000000E+00  0.12645250844E+04  0.12645250844E+04  0.25500000000E-02 0.  1.
          2   -1    0    0  501    0  0.00000000000E+00 -0.00000000000E+00 -0.30111460001E+04  0.30111460001E+04  0.25500000000E-02 0. -1.
    8880023    1    1    2    0    0  0.13865359070E+04  0.53583056929E+03 -0.21802352766E+04  0.27197118024E+04  0.65864270000E+03 0.  0.
    8880022    1    1    2    0    0 -0.13865359070E+04 -0.53583056929E+03  0.43361436084E+03  0.15559592821E+04  0.15294330000E+03 0.  0.
<mgrwt>
<rscale>  0 0.15919238E+04</rscale>
<asrwt>0</asrwt>
<pdfrwt beam="1">  1        2 0.46325323E+00 0.16258556E+04</pdfrwt>
<pdfrwt beam="2">  1       -2 0.19454232E+00 0.16258556E+04</pdfrwt>
<totfact> 0.23008813E-01</totfact>
</mgrwt>
</event>
<event>
 4    1  0.6502538E-008  0.1569723E+04  0.7818608E-02  0.8861909E-01
          2   -1    0    0  501    0  0.00000000000E+00  0.00000000000E+00  0.27219121594E+04  0.27219121594E+04  0.25500000000E-02 0. -1.
         -2   -1    0    0    0  501 -0.00000000000E+00 -0.00000000000E+00 -0.16593651011E+04  0.16593651011E+04  0.25500000000E-02 0.  1.
    8880023    1    1    2    0    0  0.13750193251E+04 -0.37355294769E+03  0.20929864166E+04  0.26162229063E+04  0.65864270000E+03 0.  0.
    8880022    1    1    2    0    0 -0.13750193251E+04  0.37355294769E+03 -0.10304393583E+04  0.17650543542E+04  0.15294330000E+03 0.  0.
<mgrwt>
<rscale>  0 0.15343769E+04</rscale>
<asrwt>0</asrwt>
<pdfrwt beam="1">  1        2 0.41875571E+00 0.15697230E+04</pdfrwt>
<pdfrwt beam="2">  1       -2 0.25528694E+00 0.15697230E+04</pdfrwt>
<totfact> 0.14297967E-01</totfact>
</mgrwt>
</event>
<event>
 4    1  0.6502538E-008  0.7701703E+03  0.7818608E-02  0.9779455E-01
         -2   -1    0    0    0  501 -0.00000000000E+00  0.00000000000E+00  0.59782381924E+03  0.59782381924E+03  0.25500000000E-02 0.  1.
          2   -1    0    0  501    0  0.00000000000E+00 -0.00000000000E+00 -0.17677749929E+04  0.17677749929E+04  0.25500000000E-02 0. -1.
    8880023    1    1    2    0    0 -0.11822894286E+03  0.38127941150E+03 -0.15897308278E+04  0.17664672042E+04  0.65864270000E+03 0. -1.
    8880022    1    1    2    0    0  0.11822894286E+03 -0.38127941150E+03  0.41977965413E+03  0.59913160791E+03  0.15294330000E+03 0.  0.
<mgrwt>
<rscale>  0 0.66476842E+03</rscale>
<asrwt>0</asrwt>
<pdfrwt beam="1">  1        2 0.27196538E+00 0.77017029E+03</pdfrwt>
<pdfrwt beam="2">  1       -2 0.91972896E-01 0.77017029E+03</pdfrwt>
<totfact> 0.92826769E+00</totfact>
</mgrwt>
</event>
<event>
 4    1  0.6502538E-008  0.8291230E+03  0.7818608E-02  0.9651041E-01
         -2   -1    0    0    0  501 -0.00000000000E+00  0.00000000000E+00  0.11310725694E+04  0.11310725694E+04  0.25500000000E-02 0.  1.
          2   -1    0    0  501    0  0.00000000000E+00 -0.00000000000E+00 -0.21957607524E+04  0.21957607524E+04  0.25500000000E-02 0. -1.
    8880023    1    1    2    0    0  0.50301485488E+03 -0.24713499371E+02 -0.20491333404E+04  0.22105185714E+04  0.65864270000E+03 0.  0.
    8880022    1    1    2    0    0 -0.50301485488E+03  0.24713499371E+02  0.98444515741E+03  0.11163147505E+04  0.15294330000E+03 0.  0.
<mgrwt>
<rscale>  0 0.74008116E+03</rscale>
<asrwt>0</asrwt>
<pdfrwt beam="1">  1        2 0.33780935E+00 0.82912297E+03</pdfrwt>
<pdfrwt beam="2">  1       -2 0.17401116E+00 0.82912297E+03</pdfrwt>
<totfact> 0.10672298E+00</totfact>
</mgrwt>
</event>
<event>
 4    1  0.6502538E-008  0.8313957E+03  0.7818608E-02  0.9646623E-01
         -2   -1    0    0    0  501 -0.00000000000E+00  0.00000000000E+00  0.97256020577E+03  0.97256020577E+03  0.25500000000E-02 0.  1.
          2   -1    0    0  501    0  0.00000000000E+00 -0.00000000000E+00 -0.12231127381E+04  0.12231127381E+04  0.25500000000E-02 0. -1.
    8880023    1    1    2    0    0  0.29345356530E+03 -0.41387634248E+03 -0.98566433238E+03  0.12894778029E+04  0.65864270000E+03 0.  0.
    8880022    1    1    2    0    0 -0.29345356530E+03  0.41387634248E+03  0.73511180006E+03  0.90619514094E+03  0.15294330000E+03 0.  0.
<mgrwt>
<rscale>  0 0.74285752E+03</rscale>
<asrwt>0</asrwt>
<pdfrwt beam="1">  1        2 0.18817119E+00 0.83139571E+03</pdfrwt>
<pdfrwt beam="2">  1       -2 0.14962465E+00 0.83139571E+03</pdfrwt>
<totfact> 0.55934541E+00</totfact>
</mgrwt>
</event>
<event>
 4    1  0.6502538E-008  0.7241424E+03  0.7818608E-02  0.9908811E-01
         -2   -1    0    0    0  501 -0.00000000000E+00  0.00000000000E+00  0.81867106214E+03  0.81867106214E+03  0.25500000000E-02 0.  1.
          2   -1    0    0  501    0  0.00000000000E+00 -0.00000000000E+00 -0.95745048908E+03  0.95745048909E+03  0.25500000000E-02 0. -1.
    8880023    1    1    2    0    0 -0.73646166751E+02  0.29180161104E+03 -0.77203754113E+03  0.10585008783E+04  0.65864270000E+03 0. -1.
    8880022    1    1    2    0    0  0.73646166751E+02 -0.29180161104E+03  0.63325811419E+03  0.71762067298E+03  0.15294330000E+03 0.  0.
<mgrwt>
<rscale>  0 0.59836162E+03</rscale>
<asrwt>0</asrwt>
<pdfrwt beam="1">  1        2 0.14730008E+00 0.72414235E+03</pdfrwt>
<pdfrwt beam="2">  1       -2 0.12594939E+00 0.72414235E+03</pdfrwt>
<totfact> 0.12877026E+01</totfact>
</mgrwt>
</event>
<event>
 4    1  0.6502538E-008  0.1443394E+04  0.7818608E-02  0.8950677E-01
         -2   -1    0    0    0  501 -0.00000000000E+00  0.00000000000E+00  0.98047350261E+03  0.98047350262E+03  0.25500000000E-02 0.  1.
          2   -1    0    0  501    0  0.00000000000E+00 -0.00000000000E+00 -0.22258874800E+04  0.22258874800E+04  0.25500000000E-02 0. -1.
    8880023    1    1    2    0    0 -0.12309590637E+04 -0.36649194773E+03 -0.12552941389E+04  0.19128905211E+04  0.65864270000E+03 0. -1.
    8880022    1    1    2    0    0  0.12309590637E+04  0.36649194773E+03  0.98801614644E+01  0.12934704616E+04  0.15294330000E+03 0.  0.
<mgrwt>
<rscale>  0 0.14043478E+04</rscale>
<asrwt>0</asrwt>
<pdfrwt beam="1">  1        2 0.34244423E+00 0.14433942E+04</pdfrwt>
<pdfrwt beam="2">  1       -2 0.15084208E+00 0.14433942E+04</pdfrwt>
<totfact> 0.13994985E+00</totfact>
</mgrwt>
</event>
<event>
 4    1  0.6502538E-008  0.7382832E+03  0.7818608E-02  0.9864977E-01
          2   -1    0    0  501    0  0.00000000000E+00  0.00000000000E+00  0.37465931601E+03  0.37465931602E+03  0.25500000000E-02 0. -1.
         -2   -1    0    0    0  501 -0.00000000000E+00 -0.00000000000E+00 -0.21004233107E+04  0.21004233107E+04  0.25500000000E-02 0.  1.
    8880023    1    1    2    0    0  0.27265126778E+03 -0.19212786487E+03 -0.28741116133E+02  0.73884239747E+03  0.65864270000E+03 0.  0.
    8880022    1    1    2    0    0 -0.27265126778E+03  0.19212786487E+03 -0.16970228785E+04  0.17362402292E+04  0.15294330000E+03 0.  1.
<mgrwt>
<rscale>  0 0.61989109E+03</rscale>
<asrwt>0</asrwt>
<pdfrwt beam="1">  1        2 0.57639896E-01 0.73828317E+03</pdfrwt>
<pdfrwt beam="2">  1       -2 0.32314204E+00 0.73828317E+03</pdfrwt>
<totfact> 0.20546618E+00</totfact>
</mgrwt>
</event>
<event>
 4    1  0.6502538E-008  0.6773529E+03  0.7818608E-02  0.1010862E+00
          2   -1    0    0  501    0  0.00000000000E+00  0.00000000000E+00  0.11585341175E+04  0.11585341175E+04  0.25500000000E-02 0. -1.
         -2   -1    0    0    0  501 -0.00000000000E+00 -0.00000000000E+00 -0.25261686759E+03  0.25261686760E+03  0.25500000000E-02 0.  1.
    8880023    1    1    2    0    0  0.14838095434E+03  0.54587732816E+02  0.96903512483E+03  0.11823011493E+04  0.65864270000E+03 0. -1.
    8880022    1    1    2    0    0 -0.14838095434E+03 -0.54587732816E+02 -0.63117874952E+02  0.22884983578E+03  0.15294330000E+03 0.  0.
<mgrwt>
<rscale>  0 0.51133306E+03</rscale>
<asrwt>0</asrwt>
<pdfrwt beam="1">  1        2 0.17823601E+00 0.67735289E+03</pdfrwt>
<pdfrwt beam="2">  1       -2 0.38864134E-01 0.67735289E+03</pdfrwt>
<totfact> 0.12794693E+02</totfact>
</mgrwt>
</event>
<event>
 4    1  0.6502538E-008  0.7677894E+03  0.7818608E-02  0.9785343E-01
         -2   -1    0    0    0  501 -0.00000000000E+00  0.00000000000E+00  0.24439661221E+03  0.24439661222E+03  0.25500000000E-02 0.  1.
          2   -1    0    0  501    0  0.00000000000E+00 -0.00000000000E+00 -0.30155572653E+04  0.30155572653E+04  0.25500000000E-02 0. -1.
    8880023    1    1    2    0    0  0.14505918768E+03  0.36694440844E+03 -0.27286848924E+04  0.28346466826E+04  0.65864270000E+03 0. -1.
    8880022    1    1    2    0    0 -0.14505918768E+03 -0.36694440844E+03 -0.42475760706E+02  0.42530719495E+03  0.15294330000E+03 0.  0.
<mgrwt>
<rscale>  0 0.66155063E+03</rscale>
<asrwt>0</asrwt>
<pdfrwt beam="1">  1        2 0.46393186E+00 0.76778941E+03</pdfrwt>
<pdfrwt beam="2">  1       -2 0.37599481E-01 0.76778941E+03</pdfrwt>
<totfact> 0.12034118E+01</totfact>
</mgrwt>
</event>
<event>
 4    1  0.6502538E-008  0.7144547E+03  0.7818608E-02  0.9941816E-01
          2   -1    0    0  501    0  0.00000000000E+00  0.00000000000E+00  0.91410572870E+03  0.91410572871E+03  0.25500000000E-02 0. -1.
         -2   -1    0    0    0  501 -0.00000000000E+00 -0.00000000000E+00 -0.75369041414E+03  0.75369041414E+03  0.25500000000E-02 0.  1.
    8880023    1    1    2    0    0  0.15742786464E+03  0.22770999109E+03  0.72675738319E+03  0.10191279963E+04  0.65864270000E+03 0.  0.
    8880022    1    1    2    0    0 -0.15742786464E+03 -0.22770999109E+03 -0.56634206862E+03  0.64866814652E+03  0.15294330000E+03 0.  0.
<mgrwt>
<rscale>  0 0.58276802E+03</rscale>
<asrwt>0</asrwt>
<pdfrwt beam="1">  1        2 0.14063165E+00 0.71445474E+03</pdfrwt>
<pdfrwt beam="2">  1       -2 0.11595237E+00 0.71445474E+03</pdfrwt>
<totfact> 0.16902831E+01</totfact>
</mgrwt>
</event>
<event>
 4    1  0.6502538E-008  0.7974697E+03  0.7818608E-02  0.9716294E-01
         -2   -1    0    0    0  501 -0.00000000000E+00  0.00000000000E+00  0.54952125665E+03  0.54952125666E+03  0.25500000000E-02 0.  1.
          2   -1    0    0  501    0  0.00000000000E+00 -0.00000000000E+00 -0.19815463368E+04  0.19815463368E+04  0.25500000000E-02 0. -1.
    8880023    1    1    2    0    0  0.29399645758E+03  0.34016729136E+03 -0.17745626084E+04  0.19455154486E+04  0.65864270000E+03 0. -1.
    8880022    1    1    2    0    0 -0.29399645758E+03 -0.34016729136E+03  0.34253752822E+03  0.58555214494E+03  0.15294330000E+03 0.  0.
<mgrwt>
<rscale>  0 0.70054886E+03</rscale>
<asrwt>0</asrwt>
<pdfrwt beam="1">  1        2 0.30485328E+00 0.79746969E+03</pdfrwt>
<pdfrwt beam="2">  1       -2 0.84541733E-01 0.79746969E+03</pdfrwt>
<totfact> 0.85772975E+00</totfact>
</mgrwt>
</event>
<event>
 4    1  0.6502538E-008  0.6863394E+03  0.7818608E-02  0.1005943E+00
          2   -1    0    0  501    0  0.00000000000E+00  0.00000000000E+00  0.33653290385E+04  0.33653290385E+04  0.25500000000E-02 0. -1.
         -2   -1    0    0    0  501 -0.00000000000E+00 -0.00000000000E+00 -0.89861389034E+02  0.89861389070E+02  0.25500000000E-02 0.  1.
    8880023    1    1    2    0    0  0.72840216777E+02  0.17873417773E+03  0.30326776473E+04  0.31093722070E+04  0.65864270000E+03 0. -1.
    8880022    1    1    2    0    0 -0.72840216777E+02 -0.17873417773E+03  0.24279000223E+03  0.34581822055E+03  0.15294330000E+03 0. -1.
<mgrwt>
<rscale>  0 0.53119261E+03</rscale>
<asrwt>0</asrwt>
<pdfrwt beam="1">  1        2 0.51774292E+00 0.68633943E+03</pdfrwt>
<pdfrwt beam="2">  1       -2 0.13824829E-01 0.68633943E+03</pdfrwt>
<totfact> 0.43744962E+01</totfact>
</mgrwt>
</event>
<event>
 4    1  0.6502538E-008  0.1280886E+04  0.7818608E-02  0.9082244E-01
          2   -1    0    0  501    0  0.00000000000E+00  0.00000000000E+00  0.17333016824E+04  0.17333016824E+04  0.25500000000E-02 0. -1.
         -2   -1    0    0    0  501 -0.00000000000E+00 -0.00000000000E+00 -0.16307245327E+04  0.16307245327E+04  0.25500000000E-02 0.  1.
    8880023    1    1    2    0    0  0.23734302758E+03 -0.10726262803E+04  0.12347173279E+04  0.17790997544E+04  0.65864270000E+03 0.  0.
    8880022    1    1    2    0    0 -0.23734302758E+03  0.10726262803E+04 -0.11321401782E+04  0.15849264608E+04  0.15294330000E+03 0.  0.
<mgrwt>
<rscale>  0 0.12356118E+04</rscale>
<asrwt>0</asrwt>
<pdfrwt beam="1">  1        2 0.26666180E+00 0.12808860E+04</pdfrwt>
<pdfrwt beam="2">  1       -2 0.25088070E+00 0.12808860E+04</pdfrwt>
<totfact> 0.57373184E-01</totfact>
</mgrwt>
</event>
<event>
 4    1  0.6502538E-008  0.8571206E+03  0.7818608E-02  0.9598706E-01
          2   -1    0    0  501    0  0.00000000000E+00  0.00000000000E+00  0.76941643579E+03  0.76941643580E+03  0.25500000000E-02 0. -1.
         -2   -1    0    0    0  501 -0.00000000000E+00 -0.00000000000E+00 -0.13041235894E+04  0.13041235894E+04  0.25500000000E-02 0.  1.
    8880023    1    1    2    0    0 -0.54849379712E+03 -0.18477193463E+00  0.42570373650E+03  0.95701586045E+03  0.65864270000E+03 0.  0.
    8880022    1    1    2    0    0  0.54849379712E+03  0.18477193463E+00 -0.96041089010E+03  0.11165241647E+04  0.15294330000E+03 0.  0.
<mgrwt>
<rscale>  0 0.77381882E+03</rscale>
<asrwt>0</asrwt>
<pdfrwt beam="1">  1        2 0.11837176E+00 0.85712058E+03</pdfrwt>
<pdfrwt beam="2">  1       -2 0.20063440E+00 0.85712058E+03</pdfrwt>
<totfact> 0.48172048E+00</totfact>
</mgrwt>
</event>
<event>
 4    1  0.6502538E-008  0.8543476E+03  0.7818608E-02  0.9603698E-01
         -2   -1    0    0    0  501 -0.00000000000E+00  0.00000000000E+00  0.76365861841E+03  0.76365861841E+03  0.25500000000E-02 0.  1.
          2   -1    0    0  501    0  0.00000000000E+00 -0.00000000000E+00 -0.22432855467E+04  0.22432855467E+04  0.25500000000E-02 0. -1.
    8880023    1    1    2    0    0 -0.41094969222E+03  0.35667911388E+03 -0.20395913418E+04  0.22112988689E+04  0.65864270000E+03 0. -1.
    8880022    1    1    2    0    0  0.41094969222E+03 -0.35667911388E+03  0.55996441356E+03  0.79564529615E+03  0.15294330000E+03 0.  0.
<mgrwt>
<rscale>  0 0.77051897E+03</rscale>
<asrwt>0</asrwt>
<pdfrwt beam="1">  1        2 0.34512085E+00 0.85434761E+03</pdfrwt>
<pdfrwt beam="2">  1       -2 0.11748594E+00 0.85434761E+03</pdfrwt>
<totfact> 0.27983630E+00</totfact>
</mgrwt>
</event>
<event>
 4    1  0.6502538E-008  0.1369471E+04  0.7818608E-02  0.9007775E-01
         -2   -1    0    0    0  501 -0.00000000000E+00  0.00000000000E+00  0.78292535265E+03  0.78292535265E+03  0.25500000000E-02 0.  1.
          2   -1    0    0  501    0  0.00000000000E+00 -0.00000000000E+00 -0.25678672770E+04  0.25678672770E+04  0.25500000000E-02 0. -1.
    8880023    1    1    2    0    0 -0.11908790884E+04 -0.15312860074E+03 -0.24353997741E+03  0.13909576911E+04  0.65864270000E+03 0.  1.
    8880022    1    1    2    0    0  0.11908790884E+04  0.15312860074E+03 -0.15414019469E+04  0.19598349386E+04  0.15294330000E+03 0.  0.
<mgrwt>
<rscale>  0 0.13278396E+04</rscale>
<asrwt>0</asrwt>
<pdfrwt beam="1">  1        2 0.39505650E+00 0.13694713E+04</pdfrwt>
<pdfrwt beam="2">  1       -2 0.12045006E+00 0.13694713E+04</pdfrwt>
<totfact> 0.16095383E+00</totfact>
</mgrwt>
</event>
<event>
 4    1  0.6502538E-008  0.1131755E+04  0.7818608E-02  0.9226498E-01
         -2   -1    0    0    0  501 -0.00000000000E+00  0.00000000000E+00  0.26506506243E+04  0.26506506243E+04  0.25500000000E-02 0.  1.
          2   -1    0    0  501    0  0.00000000000E+00 -0.00000000000E+00 -0.11493590327E+04  0.11493590327E+04  0.25500000000E-02 0. -1.
    8880023    1    1    2    0    0 -0.69310266611E+03  0.60553167647E+03 -0.75361737650E+03  0.13597092606E+04  0.65864270000E+03 0. -1.
    8880022    1    1    2    0    0  0.69310266611E+03 -0.60553167647E+03  0.22549089681E+04  0.24403003964E+04  0.15294330000E+03 0.  0.
<mgrwt>
<rscale>  0 0.10784065E+04</rscale>
<asrwt>0</asrwt>
<pdfrwt beam="1">  1        2 0.17682447E+00 0.11317553E+04</pdfrwt>
<pdfrwt beam="2">  1       -2 0.40779240E+00 0.11317553E+04</pdfrwt>
<totfact> 0.13344803E-01</totfact>
</mgrwt>
</event>
<event>
 4    1  0.6502538E-008  0.1160067E+04  0.7818608E-02  0.9196953E-01
         -2   -1    0    0    0  501 -0.00000000000E+00  0.00000000000E+00  0.12933171883E+04  0.12933171883E+04  0.25500000000E-02 0.  1.
          2   -1    0    0  501    0  0.00000000000E+00 -0.00000000000E+00 -0.18814849188E+04  0.18814849188E+04  0.25500000000E-02 0. -1.
    8880023    1    1    2    0    0  0.69535598092E+03  0.65454188576E+03 -0.14654662868E+04  0.18690496688E+04  0.65864270000E+03 0.  0.
    8880022    1    1    2    0    0 -0.69535598092E+03 -0.65454188576E+03  0.87729855625E+03  0.13057524383E+04  0.15294330000E+03 0.  0.
<mgrwt>
<rscale>  0 0.11084938E+04</rscale>
<asrwt>0</asrwt>
<pdfrwt beam="1">  1        2 0.28945922E+00 0.11600669E+04</pdfrwt>
<pdfrwt beam="2">  1       -2 0.19897187E+00 0.11600669E+04</pdfrwt>
<totfact> 0.10247313E+00</totfact>
</mgrwt>
</event>
<event>
 4    1  0.6502538E-008  0.8029226E+03  0.7818608E-02  0.9704512E-01
          2   -1    0    0  501    0  0.00000000000E+00  0.00000000000E+00  0.28383791744E+04  0.28383791744E+04  0.25500000000E-02 0. -1.
         -2   -1    0    0    0  501 -0.00000000000E+00 -0.00000000000E+00 -0.41683362476E+03  0.41683362477E+03  0.25500000000E-02 0.  1.
    8880023    1    1    2    0    0  0.31685205635E+03 -0.33238421322E+03  0.26138556131E+04  0.27343968006E+04  0.65864270000E+03 0. -1.
    8880022    1    1    2    0    0 -0.31685205635E+03  0.33238421322E+03 -0.19231006348E+03  0.52081599855E+03  0.15294330000E+03 0.  0.
<mgrwt>
<rscale>  0 0.70748779E+03</rscale>
<asrwt>0</asrwt>
<pdfrwt beam="1">  1        2 0.43667372E+00 0.80292260E+03</pdfrwt>
<pdfrwt beam="2">  1       -2 0.64128250E-01 0.80292260E+03</pdfrwt>
<totfact> 0.51734498E+00</totfact>
</mgrwt>
</event>
<event>
 4    1  0.6502538E-008  0.7597593E+03  0.7818608E-02  0.9805731E-01
          2   -1    0    0  501    0  0.00000000000E+00  0.00000000000E+00  0.36453434725E+03  0.36453434725E+03  0.25500000000E-02 0. -1.
         -2   -1    0    0    0  501 -0.00000000000E+00 -0.00000000000E+00 -0.14552978185E+04  0.14552978185E+04  0.25500000000E-02 0.  1.
    8880023    1    1    2    0    0  0.29134918516E+03  0.24194959431E+03 -0.12331388274E+03  0.76970154854E+03  0.65864270000E+03 0. -1.
    8880022    1    1    2    0    0 -0.29134918516E+03 -0.24194959431E+03 -0.96744958851E+03  0.10501306172E+04  0.15294330000E+03 0.  0.
<mgrwt>
<rscale>  0 0.65055886E+03</rscale>
<asrwt>0</asrwt>
<pdfrwt beam="1">  1        2 0.56082208E-01 0.75975928E+03</pdfrwt>
<pdfrwt beam="2">  1       -2 0.22389197E+00 0.75975928E+03</pdfrwt>
<totfact> 0.84214566E+00</totfact>
</mgrwt>
</event>
<event>
 4    1  0.6502538E-008  0.7812544E+03  0.7818608E-02  0.9752899E-01
          2   -1    0    0  501    0  0.00000000000E+00  0.00000000000E+00  0.10682209374E+04  0.10682209374E+04  0.25500000000E-02 0. -1.
         -2   -1    0    0    0  501 -0.00000000000E+00 -0.00000000000E+00 -0.68508646672E+03  0.68508646672E+03  0.25500000000E-02 0.  1.
    8880023    1    1    2    0    0  0.14941066359E+03 -0.39271451131E+03  0.81689287528E+03  0.11303417226E+04  0.65864270000E+03 0. -1.
    8880022    1    1    2    0    0 -0.14941066359E+03  0.39271451131E+03 -0.43375840463E+03  0.62296568155E+03  0.15294330000E+03 0.  0.
<mgrwt>
<rscale>  0 0.67952711E+03</rscale>
<asrwt>0</asrwt>
<pdfrwt beam="1">  1        2 0.16434168E+00 0.78125440E+03</pdfrwt>
<pdfrwt beam="2">  1       -2 0.10539792E+00 0.78125440E+03</pdfrwt>
<totfact> 0.16842043E+01</totfact>
</mgrwt>
</event>
<event>
 4    1  0.6502538E-008  0.1250958E+04  0.7818608E-02  0.9109112E-01
          2   -1    0    0  501    0  0.00000000000E+00  0.00000000000E+00  0.11443400514E+04  0.11443400514E+04  0.25500000000E-02 0. -1.
         -2   -1    0    0    0  501 -0.00000000000E+00 -0.00000000000E+00 -0.14068166946E+04  0.14068166946E+04  0.25500000000E-02 0.  1.
    8880023    1    1    2    0    0 -0.82558974416E+03  0.67043770368E+03  0.36978586257E+03  0.13044680642E+04  0.65864270000E+03 0. -1.
    8880022    1    1    2    0    0  0.82558974416E+03 -0.67043770368E+03 -0.63226250575E+03  0.12466886818E+04  0.15294330000E+03 0.  0.
<mgrwt>
<rscale>  0 0.12042874E+04</rscale>
<asrwt>0</asrwt>
<pdfrwt beam="1">  1        2 0.17605232E+00 0.12509578E+04</pdfrwt>
<pdfrwt beam="2">  1       -2 0.21643334E+00 0.12509578E+04</pdfrwt>
<totfact> 0.20600361E+00</totfact>
</mgrwt>
</event>
<event>
 4    1  0.6502538E-008  0.7687396E+03  0.7818608E-02  0.9782985E-01
         -2   -1    0    0    0  501 -0.00000000000E+00  0.00000000000E+00  0.12224965064E+03  0.12224965066E+03  0.25500000000E-02 0.  1.
          2   -1    0    0  501    0  0.00000000000E+00 -0.00000000000E+00 -0.32691092621E+04  0.32691092621E+04  0.25500000000E-02 0. -1.
    8880023    1    1    2    0    0  0.37695994801E+03 -0.12268455639E+03 -0.25154446656E+04  0.26302894089E+04  0.65864270000E+03 0. -1.
    8880022    1    1    2    0    0 -0.37695994801E+03  0.12268455639E+03 -0.63141494584E+03  0.76106950381E+03  0.15294330000E+03 0.  0.
<mgrwt>
<rscale>  0 0.66283692E+03</rscale>
<asrwt>0</asrwt>
<pdfrwt beam="1">  1        2 0.50293982E+00 0.76873956E+03</pdfrwt>
<pdfrwt beam="2">  1       -2 0.18807641E-01 0.76873956E+03</pdfrwt>
<totfact> 0.29510769E+01</totfact>
</mgrwt>
</event>
<event>
 4    1  0.6502538E-008  0.8810945E+03  0.7818608E-02  0.9557089E-01
         -2   -1    0    0    0  501 -0.00000000000E+00  0.00000000000E+00  0.27018898825E+03  0.27018898826E+03  0.25500000000E-02 0.  1.
          2   -1    0    0  501    0  0.00000000000E+00 -0.00000000000E+00 -0.26814975703E+04  0.26814975703E+04  0.25500000000E-02 0. -1.
    8880023    1    1    2    0    0  0.48042270449E+03  0.33423249834E+03 -0.20869136141E+04  0.22652893804E+04  0.65864270000E+03 0.  1.
    8880022    1    1    2    0    0 -0.48042270449E+03 -0.33423249834E+03 -0.32439496793E+03  0.68639717814E+03  0.15294330000E+03 0.  0.
<mgrwt>
<rscale>  0 0.80202611E+03</rscale>
<asrwt>0</asrwt>
<pdfrwt beam="1">  1        2 0.41253807E+00 0.88109451E+03</pdfrwt>
<pdfrwt beam="2">  1       -2 0.41567539E-01 0.88109451E+03</pdfrwt>
<totfact> 0.15403429E+01</totfact>
</mgrwt>
</event>
<event>
 4    1  0.6502538E-008  0.6990144E+03  0.7818608E-02  0.1000131E+00
         -2   -1    0    0    0  501 -0.00000000000E+00  0.00000000000E+00  0.23933124890E+03  0.23933124891E+03  0.25500000000E-02 0.  1.
          2   -1    0    0  501    0  0.00000000000E+00 -0.00000000000E+00 -0.30560125048E+04  0.30560125048E+04  0.25500000000E-02 0. -1.
    8880023    1    1    2    0    0 -0.21939216234E+03  0.81718912080E+02 -0.29159776363E+04  0.29985907829E+04  0.65864270000E+03 0. -1.
    8880022    1    1    2    0    0  0.21939216234E+03 -0.81718912080E+02  0.99296380443E+02  0.29675297079E+03  0.15294330000E+03 0.  0.
<mgrwt>
<rscale>  0 0.55592628E+03</rscale>
<asrwt>0</asrwt>
<pdfrwt beam="1">  1        2 0.47015574E+00 0.69901438E+03</pdfrwt>
<pdfrwt beam="2">  1       -2 0.36820194E-01 0.69901438E+03</pdfrwt>
<totfact> 0.11978740E+01</totfact>
</mgrwt>
</event>
<event>
 4    1  0.6502538E-008  0.1246100E+04  0.7818608E-02  0.9113562E-01
         -2   -1    0    0    0  501 -0.00000000000E+00  0.00000000000E+00  0.84534450546E+03  0.84534450547E+03  0.25500000000E-02 0.  1.
          2   -1    0    0  501    0  0.00000000000E+00 -0.00000000000E+00 -0.43580089469E+04  0.43580089469E+04  0.25500000000E-02 0. -1.
    8880023    1    1    2    0    0  0.92440228471E+03  0.51423295043E+03 -0.38784295759E+04  0.40736938143E+04  0.65864270000E+03 0. -1.
    8880022    1    1    2    0    0 -0.92440228471E+03 -0.51423295043E+03  0.36576513445E+03  0.11296596381E+04  0.15294330000E+03 0.  0.
<mgrwt>
<rscale>  0 0.11991939E+04</rscale>
<asrwt>0</asrwt>
<pdfrwt beam="1">  1        2 0.67046290E+00 0.12461000E+04</pdfrwt>
<pdfrwt beam="2">  1       -2 0.13005300E+00 0.12461000E+04</pdfrwt>
<totfact> 0.73744607E-02</totfact>
</mgrwt>
</event>
<event>
 4    1  0.6502538E-008  0.1490913E+04  0.7818608E-02  0.8916079E-01
         -2   -1    0    0    0  501 -0.00000000000E+00  0.00000000000E+00  0.79524881063E+03  0.79524881064E+03  0.25500000000E-02 0.  1.
          2   -1    0    0  501    0  0.00000000000E+00 -0.00000000000E+00 -0.32313368263E+04  0.32313368263E+04  0.25500000000E-02 0. -1.
    8880023    1    1    2    0    0 -0.95022384120E+03 -0.94132218784E+03 -0.22033337512E+04  0.26603576141E+04  0.65864270000E+03 0.  1.
    8880022    1    1    2    0    0  0.95022384120E+03  0.94132218784E+03 -0.23275426452E+03  0.13662280228E+04  0.15294330000E+03 0.  0.
<mgrwt>
<rscale>  0 0.14533534E+04</rscale>
<asrwt>0</asrwt>
<pdfrwt beam="1">  1        2 0.49712873E+00 0.14909135E+04</pdfrwt>
<pdfrwt beam="2">  1       -2 0.12234597E+00 0.14909135E+04</pdfrwt>
<totfact> 0.59790976E-01</totfact>
</mgrwt>
</event>
<event>
 4    1  0.6502538E-008  0.7739544E+03  0.7818608E-02  0.9770235E-01
         -2   -1    0    0    0  501 -0.00000000000E+00  0.00000000000E+00  0.55172066782E+03  0.55172066783E+03  0.25500000000E-02 0.  1.
          2   -1    0    0  501    0  0.00000000000E+00 -0.00000000000E+00 -0.11428528135E+04  0.11428528135E+04  0.25500000000E-02 0. -1.
    8880023    1    1    2    0    0 -0.22155732011E+03  0.34074556784E+03 -0.88082983435E+03  0.11725470530E+04  0.65864270000E+03 0. -1.
    8880022    1    1    2    0    0  0.22155732011E+03 -0.34074556784E+03  0.28969768866E+03  0.52202642838E+03  0.15294330000E+03 0.  0.
<mgrwt>
<rscale>  0 0.66984674E+03</rscale>
<asrwt>0</asrwt>
<pdfrwt beam="1">  1        2 0.17582351E+00 0.77395439E+03</pdfrwt>
<pdfrwt beam="2">  1       -2 0.84880103E-01 0.77395439E+03</pdfrwt>
<totfact> 0.25174184E+01</totfact>
</mgrwt>
</event>
<event>
 4    1  0.6502538E-008  0.9087621E+03  0.7818608E-02  0.9512109E-01
         -2   -1    0    0    0  501 -0.00000000000E+00  0.00000000000E+00  0.56427253796E+03  0.56427253796E+03  0.25500000000E-02 0.  1.
          2   -1    0    0  501    0  0.00000000000E+00 -0.00000000000E+00 -0.12608329770E+04  0.12608329770E+04  0.25500000000E-02 0. -1.
    8880023    1    1    2    0    0  0.62011061974E+03  0.86609302200E+02 -0.75010191287E+03  0.11783469090E+04  0.65864270000E+03 0.  0.
    8880022    1    1    2    0    0 -0.62011061974E+03 -0.86609302200E+02  0.53541473851E+02  0.64675860596E+03  0.15294330000E+03 0.  0.
<mgrwt>
<rscale>  0 0.83396896E+03</rscale>
<asrwt>0</asrwt>
<pdfrwt beam="1">  1        2 0.19397430E+00 0.90876210E+03</pdfrwt>
<pdfrwt beam="2">  1       -2 0.86811160E-01 0.90876210E+03</pdfrwt>
<totfact> 0.20082525E+01</totfact>
</mgrwt>
</event>
<event>
 4    1  0.6502538E-008  0.6875447E+03  0.7818608E-02  0.1005342E+00
          2   -1    0    0  501    0  0.00000000000E+00  0.00000000000E+00  0.11130845788E+04  0.11130845788E+04  0.25500000000E-02 0. -1.
         -2   -1    0    0    0  501 -0.00000000000E+00 -0.00000000000E+00 -0.38847624555E+03  0.38847624556E+03  0.25500000000E-02 0.  1.
    8880023    1    1    2    0    0 -0.10268063470E+03 -0.16841669267E+03  0.94495712322E+03  0.11686152772E+04  0.65864270000E+03 0. -1.
    8880022    1    1    2    0    0  0.10268063470E+03  0.16841669267E+03 -0.22034878998E+03  0.33294554716E+03  0.15294330000E+03 0.  0.
<mgrwt>
<rscale>  0 0.53368619E+03</rscale>
<asrwt>0</asrwt>
<pdfrwt beam="1">  1        2 0.17124378E+00 0.68754469E+03</pdfrwt>
<pdfrwt beam="2">  1       -2 0.59765576E-01 0.68754469E+03</pdfrwt>
<totfact> 0.57091405E+01</totfact>
</mgrwt>
</event>
<event>
 4    1  0.6502538E-008  0.1117954E+04  0.7818608E-02  0.9241325E-01
          2   -1    0    0  501    0  0.00000000000E+00  0.00000000000E+00  0.11404085100E+04  0.11404085100E+04  0.25500000000E-02 0. -1.
         -2   -1    0    0    0  501 -0.00000000000E+00 -0.00000000000E+00 -0.94972831816E+03  0.94972831816E+03  0.25500000000E-02 0.  1.
    8880023    1    1    2    0    0 -0.75843355662E+03 -0.49070218835E+03 -0.11606344864E+03  0.11239622004E+04  0.65864270000E+03 0.  0.
    8880022    1    1    2    0    0  0.75843355662E+03  0.49070218835E+03  0.30674364051E+03  0.96617462783E+03  0.15294330000E+03 0.  0.
<mgrwt>
<rscale>  0 0.10636875E+04</rscale>
<asrwt>0</asrwt>
<pdfrwt beam="1">  1        2 0.17544746E+00 0.11179536E+04</pdfrwt>
<pdfrwt beam="2">  1       -2 0.14611205E+00 0.11179536E+04</pdfrwt>
<totfact> 0.64799046E+00</totfact>
</mgrwt>
</event>
<event>
 4    1  0.6502538E-008  0.1069768E+04  0.7818608E-02  0.9295487E-01
         -2   -1    0    0    0  501 -0.00000000000E+00  0.00000000000E+00  0.12442800551E+04  0.12442800551E+04  0.25500000000E-02 0.  1.
          2   -1    0    0  501    0  0.00000000000E+00 -0.00000000000E+00 -0.24661800137E+04  0.24661800137E+04  0.25500000000E-02 0. -1.
    8880023    1    1    2    0    0  0.16258185126E+03 -0.82713980683E+03 -0.21780814476E+04  0.24266112414E+04  0.65864270000E+03 0. -1.
    8880022    1    1    2    0    0 -0.16258185126E+03  0.82713980683E+03  0.95618148899E+03  0.12838488273E+04  0.15294330000E+03 0.  0.
<mgrwt>
<rscale>  0 0.10119943E+04</rscale>
<asrwt>0</asrwt>
<pdfrwt beam="1">  1        2 0.37941231E+00 0.10697679E+04</pdfrwt>
<pdfrwt beam="2">  1       -2 0.19142770E+00 0.10697679E+04</pdfrwt>
<totfact> 0.54899690E-01</totfact>
</mgrwt>
</event>
<event>
 4    1  0.6502538E-008  0.6642594E+03  0.7818608E-02  0.1020163E+00
         -2   -1    0    0    0  501 -0.00000000000E+00  0.00000000000E+00  0.63767795814E+03  0.63767795815E+03  0.25500000000E-02 0.  1.
          2   -1    0    0  501    0  0.00000000000E+00 -0.00000000000E+00 -0.98002365960E+03  0.98002365961E+03  0.25500000000E-02 0. -1.
    8880023    1    1    2    0    0  0.39121654905E+02 -0.76810714848E+02 -0.85102639629E+03  0.10795770113E+04  0.65864270000E+03 0. -1.
    8880022    1    1    2    0    0 -0.39121654905E+02  0.76810714848E+02  0.50868069483E+03  0.53812460649E+03  0.15294330000E+03 0.  0.
<mgrwt>
<rscale>  0 0.47627850E+03</rscale>
<asrwt>0</asrwt>
<pdfrwt beam="1">  1        2 0.15077287E+00 0.66425943E+03</pdfrwt>
<pdfrwt beam="2">  1       -2 0.98104301E-01 0.66425943E+03</pdfrwt>
<totfact> 0.22999842E+01</totfact>
</mgrwt>
</event>
<event>
 4    1  0.6502538E-008  0.6662903E+03  0.7818608E-02  0.1018475E+00
          2   -1    0    0  501    0  0.00000000000E+00  0.00000000000E+00  0.11304353440E+04  0.11304353440E+04  0.25500000000E-02 0. -1.
         -2   -1    0    0    0  501 -0.00000000000E+00 -0.00000000000E+00 -0.13465197460E+04  0.13465197460E+04  0.25500000000E-02 0.  1.
    8880023    1    1    2    0    0  0.99632996016E+02  0.14344765760E+02  0.10249519920E+04  0.12224848868E+04  0.65864270000E+03 0. -1.
    8880022    1    1    2    0    0 -0.99632996016E+02 -0.14344765760E+02 -0.12410363941E+04  0.12544702032E+04  0.15294330000E+03 0.  0.
<mgrwt>
<rscale>  0 0.48241115E+03</rscale>
<asrwt>0</asrwt>
<pdfrwt beam="1">  1        2 0.17391313E+00 0.66629026E+03</pdfrwt>
<pdfrwt beam="2">  1       -2 0.20715688E+00 0.66629026E+03</pdfrwt>
<totfact> 0.25970572E+00</totfact>
</mgrwt>
</event>
<event>
 4    1  0.6502538E-008  0.9315552E+03  0.7818608E-02  0.9477164E-01
         -2   -1    0    0    0  501 -0.00000000000E+00  0.00000000000E+00  0.42841485409E+03  0.42841485410E+03  0.25500000000E-02 0.  1.
          2   -1    0    0  501    0  0.00000000000E+00 -0.00000000000E+00 -0.17969792239E+04  0.17969792239E+04  0.25500000000E-02 0. -1.
    8880023    1    1    2    0    0  0.11274653234E+03  0.64905549197E+03 -0.12165053048E+04  0.15322141414E+04  0.65864270000E+03 0.  0.
    8880022    1    1    2    0    0 -0.11274653234E+03 -0.64905549197E+03 -0.15205906497E+03  0.69317993657E+03  0.15294330000E+03 0.  0.
<mgrwt>
<rscale>  0 0.85988557E+03</rscale>
<asrwt>0</asrwt>
<pdfrwt beam="1">  1        2 0.27645834E+00 0.93155516E+03</pdfrwt>
<pdfrwt beam="2">  1       -2 0.65909979E-01 0.93155516E+03</pdfrwt>
<totfact> 0.18496955E+01</totfact>
</mgrwt>
</event>
<event>
 4    1  0.6502538E-008  0.7358568E+03  0.7818608E-02  0.9872184E-01
         -2   -1    0    0    0  501 -0.00000000000E+00  0.00000000000E+00  0.70896137860E+03  0.70896137860E+03  0.25500000000E-02 0.  1.
          2   -1    0    0  501    0  0.00000000000E+00 -0.00000000000E+00 -0.78470746841E+03  0.78470746841E+03  0.25500000000E-02 0. -1.
    8880023    1    1    2    0    0  0.22408714700E+03 -0.23970816875E+03 -0.53433843127E+03  0.90939695459E+03  0.65864270000E+03 0. -1.
    8880022    1    1    2    0    0 -0.22408714700E+03  0.23970816875E+03  0.45859234147E+03  0.58427189243E+03  0.15294330000E+03 0.  1.
<mgrwt>
<rscale>  0 0.61628492E+03</rscale>
<asrwt>0</asrwt>
<pdfrwt beam="1">  1        2 0.12072423E+00 0.73585682E+03</pdfrwt>
<pdfrwt beam="2">  1       -2 0.10907098E+00 0.73585682E+03</pdfrwt>
<totfact> 0.24071299E+01</totfact>
</mgrwt>
</event>
<event>
 4    1  0.6502538E-008  0.1094684E+04  0.7818608E-02  0.9266998E-01
         -2   -1    0    0    0  501 -0.00000000000E+00  0.00000000000E+00  0.62151901724E+03  0.62151901725E+03  0.25500000000E-02 0.  1.
          2   -1    0    0  501    0  0.00000000000E+00 -0.00000000000E+00 -0.21924347984E+04  0.21924347984E+04  0.25500000000E-02 0. -1.
    8880023    1    1    2    0    0  0.84709247478E+03  0.21669472711E+03 -0.15849000714E+04  0.19261985121E+04  0.65864270000E+03 0. -1.
    8880022    1    1    2    0    0 -0.84709247478E+03 -0.21669472711E+03  0.13984290192E+02  0.88775530355E+03  0.15294330000E+03 0.  0.
<mgrwt>
<rscale>  0 0.10387866E+04</rscale>
<asrwt>0</asrwt>
<pdfrwt beam="1">  1        2 0.33729766E+00 0.10946837E+04</pdfrwt>
<pdfrwt beam="2">  1       -2 0.95618312E-01 0.10946837E+04</pdfrwt>
<totfact> 0.47498009E+00</totfact>
</mgrwt>
</event>
<event>
 4    1  0.6502538E-008  0.1500268E+04  0.7818608E-02  0.8909447E-01
          2   -1    0    0  501    0  0.00000000000E+00  0.00000000000E+00  0.20989802469E+04  0.20989802469E+04  0.25500000000E-02 0. -1.
         -2   -1    0    0    0  501 -0.00000000000E+00 -0.00000000000E+00 -0.13077462182E+04  0.13077462182E+04  0.25500000000E-02 0.  1.
    8880023    1    1    2    0    0  0.18470264833E+02 -0.13478325156E+04  0.12725351832E+04  0.19672695900E+04  0.65864270000E+03 0.  0.
    8880022    1    1    2    0    0 -0.18470264833E+02  0.13478325156E+04 -0.48130115449E+03  0.14394568751E+04  0.15294330000E+03 0.  0.
<mgrwt>
<rscale>  0 0.14629861E+04</rscale>
<asrwt>0</asrwt>
<pdfrwt beam="1">  1        2 0.32292003E+00 0.15002679E+04</pdfrwt>
<pdfrwt beam="2">  1       -2 0.20119173E+00 0.15002679E+04</pdfrwt>
<totfact> 0.72175531E-01</totfact>
</mgrwt>
</event>
<event>
 4    1  0.6502538E-008  0.6879115E+03  0.7818608E-02  0.1005161E+00
         -2   -1    0    0    0  501 -0.00000000000E+00  0.00000000000E+00  0.23981385092E+03  0.23981385093E+03  0.25500000000E-02 0.  1.
          2   -1    0    0  501    0  0.00000000000E+00 -0.00000000000E+00 -0.12452540923E+04  0.12452540923E+04  0.25500000000E-02 0. -1.
    8880023    1    1    2    0    0 -0.17029127175E+03  0.10204359492E+03 -0.10241804308E+04  0.12337616357E+04  0.65864270000E+03 0.  0.
    8880022    1    1    2    0    0  0.17029127175E+03 -0.10204359492E+03  0.18740189450E+02  0.25130630755E+03  0.15294330000E+03 0.  0.
<mgrwt>
<rscale>  0 0.53443827E+03</rscale>
<asrwt>0</asrwt>
<pdfrwt beam="1">  1        2 0.19157755E+00 0.68791149E+03</pdfrwt>
<pdfrwt beam="2">  1       -2 0.36894439E-01 0.68791149E+03</pdfrwt>
<totfact> 0.12561787E+02</totfact>
</mgrwt>
</event>
<event>
 4    1  0.6502538E-008  0.8242018E+03  0.7818608E-02  0.9660721E-01
          2   -1    0    0  501    0  0.00000000000E+00  0.00000000000E+00  0.31379360837E+04  0.31379360837E+04  0.25500000000E-02 0. -1.
         -2   -1    0    0    0  501 -0.00000000000E+00 -0.00000000000E+00 -0.39790092455E+03  0.39790092456E+03  0.25500000000E-02 0.  1.
    8880023    1    1    2    0    0 -0.36895794552E+03 -0.33070907184E+03  0.28825473122E+04  0.29980639868E+04  0.65864270000E+03 0. -1.
    8880022    1    1    2    0    0  0.36895794552E+03  0.33070907184E+03 -0.14251215308E+03  0.53777302141E+03  0.15294330000E+03 0.  0.
<mgrwt>
<rscale>  0 0.73404390E+03</rscale>
<asrwt>0</asrwt>
<pdfrwt beam="1">  1        2 0.48275938E+00 0.82420183E+03</pdfrwt>
<pdfrwt beam="2">  1       -2 0.61215529E-01 0.82420183E+03</pdfrwt>
<totfact> 0.37306607E+00</totfact>
</mgrwt>
</event>
<event>
 4    1  0.6502538E-008  0.1012493E+04  0.7818608E-02  0.9365392E-01
          2   -1    0    0  501    0  0.00000000000E+00  0.00000000000E+00  0.35548025679E+04  0.35548025679E+04  0.25500000000E-02 0. -1.
         -2   -1    0    0    0  501 -0.00000000000E+00 -0.00000000000E+00 -0.47602620404E+03  0.47602620405E+03  0.25500000000E-02 0.  1.
    8880023    1    1    2    0    0  0.76571001476E+03  0.70856797223E+02  0.30848531812E+04  0.32467617511E+04  0.65864270000E+03 0. -1.
    8880022    1    1    2    0    0 -0.76571001476E+03 -0.70856797223E+02 -0.60768173859E+01  0.78406702082E+03  0.15294330000E+03 0.  0.
<mgrwt>
<rscale>  0 0.94979343E+03</rscale>
<asrwt>0</asrwt>
<pdfrwt beam="1">  1        2 0.54689269E+00 0.10124933E+04</pdfrwt>
<pdfrwt beam="2">  1       -2 0.73234802E-01 0.10124933E+04</pdfrwt>
<totfact> 0.12960678E+00</totfact>
</mgrwt>
</event>
<event>
 4    1  0.6502538E-008  0.1056683E+04  0.7818608E-02  0.9310891E-01
          2   -1    0    0  501    0  0.00000000000E+00  0.00000000000E+00  0.24209948996E+04  0.24209948996E+04  0.25500000000E-02 0. -1.
         -2   -1    0    0    0  501 -0.00000000000E+00 -0.00000000000E+00 -0.40905335640E+03  0.40905335641E+03  0.25500000000E-02 0.  1.
    8880023    1    1    2    0    0 -0.15877999542E+03  0.81089880003E+03  0.15357735149E+04  0.18641830506E+04  0.65864270000E+03 0. -1.
    8880022    1    1    2    0    0  0.15877999542E+03 -0.81089880003E+03  0.47616802832E+03  0.96586520543E+03  0.15294330000E+03 0.  0.
<mgrwt>
<rscale>  0 0.99786383E+03</rscale>
<asrwt>0</asrwt>
<pdfrwt beam="1">  1        2 0.37246074E+00 0.10566826E+04</pdfrwt>
<pdfrwt beam="2">  1       -2 0.62931288E-01 0.10566826E+04</pdfrwt>
<totfact> 0.90778665E+00</totfact>
</mgrwt>
</event>
<event>
 4    1  0.6502538E-008  0.7455316E+03  0.7818608E-02  0.9844117E-01
          2   -1    0    0  501    0  0.00000000000E+00  0.00000000000E+00  0.20283398421E+04  0.20283398421E+04  0.25500000000E-02 0. -1.
         -2   -1    0    0    0  501 -0.00000000000E+00 -0.00000000000E+00 -0.31445860541E+03  0.31445860542E+03  0.25500000000E-02 0.  1.
    8880023    1    1    2    0    0  0.13471948758E+03 -0.32226987968E+03  0.18031327025E+04  0.19511804029E+04  0.65864270000E+03 0. -1.
    8880022    1    1    2    0    0 -0.13471948758E+03  0.32226987968E+03 -0.89251465818E+02  0.39161804459E+03  0.15294330000E+03 0.  0.
<mgrwt>
<rscale>  0 0.63047764E+03</rscale>
<asrwt>0</asrwt>
<pdfrwt beam="1">  1        2 0.31205228E+00 0.74553164E+03</pdfrwt>
<pdfrwt beam="2">  1       -2 0.48378247E-01 0.74553164E+03</pdfrwt>
<totfact> 0.26966037E+01</totfact>
</mgrwt>
</event>
<event>
 4    1  0.6502538E-008  0.7216438E+03  0.7818608E-02  0.9917063E-01
          2   -1    0    0  501    0  0.00000000000E+00  0.00000000000E+00  0.18635877452E+04  0.18635877452E+04  0.25500000000E-02 0. -1.
         -2   -1    0    0    0  501 -0.00000000000E+00 -0.00000000000E+00 -0.51208831776E+03  0.51208831777E+03  0.25500000000E-02 0.  1.
    8880023    1    1    2    0    0  0.28733481696E+03 -0.66319821074E+02  0.17285640930E+04  0.18731533961E+04  0.65864270000E+03 0. -1.
    8880022    1    1    2    0    0 -0.28733481696E+03  0.66319821074E+02 -0.37706466551E+03  0.50252266685E+03  0.15294330000E+03 0.  0.
<mgrwt>
<rscale>  0 0.59441443E+03</rscale>
<asrwt>0</asrwt>
<pdfrwt beam="1">  1        2 0.28670581E+00 0.72164383E+03</pdfrwt>
<pdfrwt beam="2">  1       -2 0.78782818E-01 0.72164383E+03</pdfrwt>
<totfact> 0.11795080E+01</totfact>
</mgrwt>
</event>
<event>
 4    1  0.6502538E-008  0.6770930E+03  0.7818608E-02  0.1011018E+00
         -2   -1    0    0    0  501 -0.00000000000E+00  0.00000000000E+00  0.13663373673E+03  0.13663373675E+03  0.25500000000E-02 0.  1.
          2   -1    0    0  501    0  0.00000000000E+00 -0.00000000000E+00 -0.35422337494E+04  0.35422337494E+04  0.25500000000E-02 0. -1.
    8880023    1    1    2    0    0  0.12105959371E+02  0.15651899239E+03 -0.33923861470E+04  0.34592974324E+04  0.65864270000E+03 0. -1.
    8880022    1    1    2    0    0 -0.12105959371E+02 -0.15651899239E+03 -0.13213865647E+02  0.21957005372E+03  0.15294330000E+03 0.  0.
<mgrwt>
<rscale>  0 0.51071964E+03</rscale>
<asrwt>0</asrwt>
<pdfrwt beam="1">  1        2 0.54495897E+00 0.67709302E+03</pdfrwt>
<pdfrwt beam="2">  1       -2 0.21020578E-01 0.67709302E+03</pdfrwt>
<totfact> 0.16243269E+01</totfact>
</mgrwt>
</event>
<event>
 4    1  0.6502538E-008  0.7598306E+03  0.7818608E-02  0.9805546E-01
         -2   -1    0    0    0  501 -0.00000000000E+00  0.00000000000E+00  0.55737661254E+03  0.55737661255E+03  0.25500000000E-02 0.  1.
          2   -1    0    0  501    0  0.00000000000E+00 -0.00000000000E+00 -0.13441658483E+04  0.13441658483E+04  0.25500000000E-02 0. -1.
    8880023    1    1    2    0    0  0.29179828215E+03 -0.24163222568E+03 -0.11342330186E+04  0.13652205378E+04  0.65864270000E+03 0. -1.
    8880022    1    1    2    0    0 -0.29179828215E+03  0.24163222568E+03  0.34744378285E+03  0.53632192311E+03  0.15294330000E+03 0.  0.
<mgrwt>
<rscale>  0 0.65065751E+03</rscale>
<asrwt>0</asrwt>
<pdfrwt beam="1">  1        2 0.20679474E+00 0.75983062E+03</pdfrwt>
<pdfrwt beam="2">  1       -2 0.85750249E-01 0.75983062E+03</pdfrwt>
<totfact> 0.18774524E+01</totfact>
</mgrwt>
</event>
<event>
 4    1  0.6502538E-008  0.1104408E+04  0.7818608E-02  0.9256164E-01
         -2   -1    0    0    0  501 -0.00000000000E+00  0.00000000000E+00  0.87695054947E+03  0.87695054948E+03  0.25500000000E-02 0.  1.
          2   -1    0    0  501    0  0.00000000000E+00 -0.00000000000E+00 -0.28038495338E+04  0.28038495338E+04  0.25500000000E-02 0. -1.
    8880023    1    1    2    0    0 -0.41760529921E+03 -0.78199263520E+03 -0.24162664527E+04  0.26567010453E+04  0.65864270000E+03 0.  0.
    8880022    1    1    2    0    0  0.41760529921E+03  0.78199263520E+03  0.48936746838E+03  0.10240990380E+04  0.15294330000E+03 0.  0.
<mgrwt>
<rscale>  0 0.10492059E+04</rscale>
<asrwt>0</asrwt>
<pdfrwt beam="1">  1        2 0.43136146E+00 0.11044079E+04</pdfrwt>
<pdfrwt beam="2">  1       -2 0.13491547E+00 0.11044079E+04</pdfrwt>
<totfact> 0.90558259E-01</totfact>
</mgrwt>
</event>
<event>
 4    1  0.6502538E-008  0.6944569E+03  0.7818608E-02  0.1002102E+00
          2   -1    0    0  501    0  0.00000000000E+00  0.00000000000E+00  0.36707705600E+04  0.36707705600E+04  0.25500000000E-02 0. -1.
         -2   -1    0    0    0  501 -0.00000000000E+00 -0.00000000000E+00 -0.64934867753E+02  0.64934867803E+02  0.25500000000E-02 0.  1.
    8880023    1    1    2    0    0 -0.16317094657E+03  0.14776809735E+03  0.28618781351E+04  0.29449307012E+04  0.65864270000E+03 0.  0.
    8880022    1    1    2    0    0  0.16317094657E+03 -0.14776809735E+03  0.74395755716E+03  0.79077472662E+03  0.15294330000E+03 0.  0.
<mgrwt>
<rscale>  0 0.54737971E+03</rscale>
<asrwt>0</asrwt>
<pdfrwt beam="1">  1        2 0.56473373E+00 0.69445689E+03</pdfrwt>
<pdfrwt beam="2">  1       -2 0.99899833E-02 0.69445689E+03</pdfrwt>
<totfact> 0.46129496E+01</totfact>
</mgrwt>
</event>
<event>
 4    1  0.6502538E-008  0.6755935E+03  0.7818608E-02  0.1011935E+00
         -2   -1    0    0    0  501 -0.00000000000E+00  0.00000000000E+00  0.29512140215E+03  0.29512140216E+03  0.25500000000E-02 0.  1.
          2   -1    0    0  501    0  0.00000000000E+00 -0.00000000000E+00 -0.13798521104E+04  0.13798521104E+04  0.25500000000E-02 0. -1.
    8880023    1    1    2    0    0  0.15035345645E+03  0.31864933273E+01 -0.12386862022E+04  0.14109465012E+04  0.65864270000E+03 0.  0.
    8880022    1    1    2    0    0 -0.15035345645E+03 -0.31864933273E+01  0.15395549391E+03  0.26402701136E+03  0.15294330000E+03 0.  0.
<mgrwt>
<rscale>  0 0.50712872E+03</rscale>
<asrwt>0</asrwt>
<pdfrwt beam="1">  1        2 0.21228494E+00 0.67559346E+03</pdfrwt>
<pdfrwt beam="2">  1       -2 0.45403294E-01 0.67559346E+03</pdfrwt>
<totfact> 0.70158188E+01</totfact>
</mgrwt>
</event>
<event>
 4    1  0.6502538E-008  0.7539198E+03  0.7818608E-02  0.9821111E-01
          2   -1    0    0  501    0  0.00000000000E+00  0.00000000000E+00  0.11211953251E+04  0.11211953251E+04  0.25500000000E-02 0. -1.
         -2   -1    0    0    0  501 -0.00000000000E+00 -0.00000000000E+00 -0.11000352564E+04  0.11000352564E+04  0.25500000000E-02 0.  1.
    8880023    1    1    2    0    0  0.21027337599E+03  0.30061601495E+03  0.94889508816E+03  0.12119393449E+04  0.65864270000E+03 0.  0.
    8880022    1    1    2    0    0 -0.21027337599E+03 -0.30061601495E+03 -0.92773501942E+03  0.10092912366E+04  0.15294330000E+03 0.  0.
<mgrwt>
<rscale>  0 0.64241836E+03</rscale>
<asrwt>0</asrwt>
<pdfrwt beam="1">  1        2 0.17249159E+00 0.75391981E+03</pdfrwt>
<pdfrwt beam="2">  1       -2 0.16923620E+00 0.75391981E+03</pdfrwt>
<totfact> 0.46597252E+00</totfact>
</mgrwt>
</event>
<event>
 4    1  0.6502538E-008  0.9562408E+03  0.7818608E-02  0.9441191E-01
          2   -1    0    0  501    0  0.00000000000E+00  0.00000000000E+00  0.16030344555E+04  0.16030344555E+04  0.25500000000E-02 0. -1.
         -2   -1    0    0    0  501 -0.00000000000E+00 -0.00000000000E+00 -0.91827242680E+03  0.91827242680E+03  0.25500000000E-02 0.  1.
    8880023    1    1    2    0    0  0.65932097227E+03  0.21420090325E+03  0.12780054402E+04  0.15961498310E+04  0.65864270000E+03 0.  0.
    8880022    1    1    2    0    0 -0.65932097227E+03 -0.21420090325E+03 -0.59324341147E+03  0.92515705137E+03  0.15294330000E+03 0.  0.
<mgrwt>
<rscale>  0 0.88761956E+03</rscale>
<asrwt>0</asrwt>
<pdfrwt beam="1">  1        2 0.24662068E+00 0.95624075E+03</pdfrwt>
<pdfrwt beam="2">  1       -2 0.14127268E+00 0.95624075E+03</pdfrwt>
<totfact> 0.38927743E+00</totfact>
</mgrwt>
</event>
<event>
 4    1  0.6502538E-008  0.1271109E+04  0.7818608E-02  0.9090920E-01
         -2   -1    0    0    0  501 -0.00000000000E+00  0.00000000000E+00  0.83424728036E+03  0.83424728036E+03  0.25500000000E-02 0.  1.
          2   -1    0    0  501    0  0.00000000000E+00 -0.00000000000E+00 -0.20953250469E+04  0.20953250469E+04  0.25500000000E-02 0. -1.
    8880023    1    1    2    0    0  0.77186298621E+03 -0.76559445370E+03 -0.18189727958E+02  0.12712389270E+04  0.65864270000E+03 0.  0.
    8880022    1    1    2    0    0 -0.77186298621E+03  0.76559445370E+03 -0.12428880386E+04  0.16583334003E+04  0.15294330000E+03 0.  0.
<mgrwt>
<rscale>  0 0.12253888E+04</rscale>
<asrwt>0</asrwt>
<pdfrwt beam="1">  1        2 0.32235770E+00 0.12711088E+04</pdfrwt>
<pdfrwt beam="2">  1       -2 0.12834574E+00 0.12711088E+04</pdfrwt>
<totfact> 0.25685115E+00</totfact>
</mgrwt>
</event>
<event>
 4    1  0.9443780E-008  0.9376746E+03  0.7818608E-02  0.9468074E-01
          2   -1    0    0  501    0  0.00000000000E+00  0.00000000000E+00  0.19295106864E+04  0.19295106864E+04  0.25500000000E-02 0. -1.
         -2   -1    0    0    0  501 -0.00000000000E+00 -0.00000000000E+00 -0.18508552822E+04  0.18508552822E+04  0.25500000000E-02 0.  1.
    8880023    1    1    2    0    0  0.60130263224E+02  0.66468619232E+03  0.17438145022E+04  0.19799299500E+04  0.65864270000E+03 0.  0.
    8880022    1    1    2    0    0 -0.60130263224E+02 -0.66468619232E+03 -0.16651590980E+04  0.18004360187E+04  0.15294330000E+03 0.  0.
<mgrwt>
<rscale>  0 0.86679080E+03</rscale>
<asrwt>0</asrwt>
<pdfrwt beam="1">  1        2 0.29684780E+00 0.93767456E+03</pdfrwt>
<pdfrwt beam="2">  1       -2 0.28474697E+00 0.93767456E+03</pdfrwt>
<totfact> 0.29349431E-01</totfact>
</mgrwt>
</event>
<event>
 4    1  0.1176928E-007  0.7910853E+03  0.7818608E-02  0.9730414E-01
          2   -1    0    0  501    0  0.00000000000E+00  0.00000000000E+00  0.20141297254E+04  0.20141297254E+04  0.25500000000E-02 0. -1.
         -2   -1    0    0    0  501 -0.00000000000E+00 -0.00000000000E+00 -0.19630147094E+04  0.19630147094E+04  0.25500000000E-02 0.  1.
    8880023    1    1    2    0    0 -0.43798007534E+03 -0.13384040337E+02  0.19067543251E+04  0.20643468559E+04  0.65864270000E+03 0. -1.
    8880022    1    1    2    0    0  0.43798007534E+03  0.13384040337E+02 -0.18556393091E+04  0.19127975788E+04  0.15294330000E+03 0.  0.
<mgrwt>
<rscale>  0 0.69234492E+03</rscale>
<asrwt>0</asrwt>
<pdfrwt beam="1">  1        2 0.30986611E+00 0.79108526E+03</pdfrwt>
<pdfrwt beam="2">  1       -2 0.30200226E+00 0.79108526E+03</pdfrwt>
<totfact> 0.21421784E-01</totfact>
</mgrwt>
</event>
<event>
 4    1  0.7243613E-008  0.1427234E+04  0.7818608E-02  0.8962805E-01
         -2   -1    0    0    0  501 -0.00000000000E+00  0.00000000000E+00  0.19767916267E+04  0.19767916267E+04  0.25500000000E-02 0.  1.
          2   -1    0    0  501    0  0.00000000000E+00 -0.00000000000E+00 -0.28640615412E+04  0.28640615412E+04  0.25500000000E-02 0. -1.
    8880023    1    1    2    0    0 -0.61682504841E+03 -0.11057639844E+04 -0.24428864704E+04  0.28292563764E+04  0.65864270000E+03 0.  0.
    8880022    1    1    2    0    0  0.61682504841E+03  0.11057639844E+04  0.15556165559E+04  0.20115967915E+04  0.15294330000E+03 0.  0.
<mgrwt>
<rscale>  0 0.13876528E+04</rscale>
<asrwt>0</asrwt>
<pdfrwt beam="1">  1        2 0.44062485E+00 0.14272342E+04</pdfrwt>
<pdfrwt beam="2">  1       -2 0.30412179E+00 0.14272342E+04</pdfrwt>
<totfact> 0.60242634E-02</totfact>
</mgrwt>
</event>
<event>
 4    1  0.6502538E-008  0.9114312E+03  0.7818608E-02  0.9507924E-01
          2   -1    0    0  501    0  0.00000000000E+00  0.00000000000E+00  0.11789040021E+04  0.11789040021E+04  0.25500000000E-02 0. -1.
         -2   -1    0    0    0  501 -0.00000000000E+00 -0.00000000000E+00 -0.62491609937E+03  0.62491609938E+03  0.25500000000E-02 0.  1.
    8880023    1    1    2    0    0  0.60349450669E+03  0.18080652296E+03  0.68783473086E+03  0.11418508841E+04  0.65864270000E+03 0.  0.
    8880022    1    1    2    0    0 -0.60349450669E+03 -0.18080652296E+03 -0.13384682810E+03  0.66196921738E+03  0.15294330000E+03 0.  0.
<mgrwt>
<rscale>  0 0.83702095E+03</rscale>
<asrwt>0</asrwt>
<pdfrwt beam="1">  1        2 0.18136985E+00 0.91143120E+03</pdfrwt>
<pdfrwt beam="2">  1       -2 0.96140938E-01 0.91143120E+03</pdfrwt>
<totfact> 0.17713467E+01</totfact>
</mgrwt>
</event>
<event>
 4    1  0.6502538E-008  0.6618791E+03  0.7818608E-02  0.1022309E+00
          2   -1    0    0  501    0  0.00000000000E+00  0.00000000000E+00  0.67017041234E+03  0.67017041235E+03  0.25500000000E-02 0. -1.
         -2   -1    0    0    0  501 -0.00000000000E+00 -0.00000000000E+00 -0.52953073053E+03  0.52953073053E+03  0.25500000000E-02 0.  1.
    8880023    1    1    2    0    0 -0.62963719594E+02 -0.17585618227E+02  0.48279981855E+03  0.81925548824E+03  0.65864270000E+03 0. -1.
    8880022    1    1    2    0    0  0.62963719594E+02  0.17585618227E+02 -0.34216013673E+03  0.38044565465E+03  0.15294330000E+03 0.  0.
<mgrwt>
<rscale>  0 0.46862556E+03</rscale>
<asrwt>0</asrwt>
<pdfrwt beam="1">  1        2 0.10310314E+00 0.66187906E+03</pdfrwt>
<pdfrwt beam="2">  1       -2 0.81466267E-01 0.66187906E+03</pdfrwt>
<totfact> 0.58538171E+01</totfact>
</mgrwt>
</event>
<event>
 4    1  0.6502538E-008  0.8817783E+03  0.7818608E-02  0.9555940E-01
          2   -1    0    0  501    0  0.00000000000E+00  0.00000000000E+00  0.17961168602E+04  0.17961168602E+04  0.25500000000E-02 0. -1.
         -2   -1    0    0    0  501 -0.00000000000E+00 -0.00000000000E+00 -0.32370552808E+03  0.32370552809E+03  0.25500000000E-02 0.  1.
    8880023    1    1    2    0    0 -0.21263691899E+03 -0.54635915364E+03  0.63689145651E+03  0.10877332935E+04  0.65864270000E+03 0.  0.
    8880022    1    1    2    0    0  0.21263691899E+03  0.54635915364E+03  0.83551987560E+03  0.10320890948E+04  0.15294330000E+03 0.  0.
<mgrwt>
<rscale>  0 0.80282288E+03</rscale>
<asrwt>0</asrwt>
<pdfrwt beam="1">  1        2 0.27632566E+00 0.88177831E+03</pdfrwt>
<pdfrwt beam="2">  1       -2 0.49800852E-01 0.88177831E+03</pdfrwt>
<totfact> 0.33516119E+01</totfact>
</mgrwt>
</event>
<event>
 4    1  0.6502538E-008  0.1547625E+04  0.7818608E-02  0.8876718E-01
         -2   -1    0    0    0  501 -0.00000000000E+00  0.00000000000E+00  0.79985068363E+03  0.79985068363E+03  0.25500000000E-02 0.  1.
          2   -1    0    0  501    0  0.00000000000E+00 -0.00000000000E+00 -0.28777821074E+04  0.28777821074E+04  0.25500000000E-02 0. -1.
    8880023    1    1    2    0    0  0.62113400780E+03  0.12551998653E+04 -0.67171146155E+03  0.16871101480E+04  0.65864270000E+03 0.  0.
    8880022    1    1    2    0    0 -0.62113400780E+03 -0.12551998653E+04 -0.14062199622E+04  0.19905226431E+04  0.15294330000E+03 0.  0.
<mgrwt>
<rscale>  0 0.15116873E+04</rscale>
<asrwt>0</asrwt>
<pdfrwt beam="1">  1        2 0.44273570E+00 0.15476254E+04</pdfrwt>
<pdfrwt beam="2">  1       -2 0.12305395E+00 0.15476254E+04</pdfrwt>
<totfact> 0.97862830E-01</totfact>
</mgrwt>
</event>
<event>
 4    1  0.6502538E-008  0.6750555E+03  0.7818608E-02  0.1012271E+00
          2   -1    0    0  501    0  0.00000000000E+00  0.00000000000E+00  0.14844265980E+04  0.14844265980E+04  0.25500000000E-02 0. -1.
         -2   -1    0    0    0  501 -0.00000000000E+00 -0.00000000000E+00 -0.39397818452E+03  0.39397818453E+03  0.25500000000E-02 0.  1.
    8880023    1    1    2    0    0  0.14064738148E+03  0.45913384652E+02  0.13698776517E+04  0.15271754031E+04  0.65864270000E+03 0.  0.
    8880022    1    1    2    0    0 -0.14064738148E+03 -0.45913384652E+02 -0.27942923823E+03  0.35122937947E+03  0.15294330000E+03 0.  0.
<mgrwt>
<rscale>  0 0.50581833E+03</rscale>
<asrwt>0</asrwt>
<pdfrwt beam="1">  1        2 0.22837332E+00 0.67505550E+03</pdfrwt>
<pdfrwt beam="2">  1       -2 0.60612028E-01 0.67505550E+03</pdfrwt>
<totfact> 0.33881381E+01</totfact>
</mgrwt>
</event>
<event>
 4    1  0.6502538E-008  0.1287224E+04  0.7818608E-02  0.9076672E-01
         -2   -1    0    0    0  501 -0.00000000000E+00  0.00000000000E+00  0.12320206450E+04  0.12320206450E+04  0.25500000000E-02 0.  1.
          2   -1    0    0  501    0  0.00000000000E+00 -0.00000000000E+00 -0.20034455714E+04  0.20034455714E+04  0.25500000000E-02 0. -1.
    8880023    1    1    2    0    0 -0.83731315380E+03  0.72252440951E+03  0.63861171852E+03  0.14369307475E+04  0.65864270000E+03 0.  0.
    8880022    1    1    2    0    0  0.83731315380E+03 -0.72252440951E+03 -0.14100366449E+04  0.17985354689E+04  0.15294330000E+03 0.  0.
<mgrwt>
<rscale>  0 0.12422335E+04</rscale>
<asrwt>0</asrwt>
<pdfrwt beam="1">  1        2 0.30822240E+00 0.12872238E+04</pdfrwt>
<pdfrwt beam="2">  1       -2 0.18954164E+00 0.12872238E+04</pdfrwt>
<totfact> 0.99836039E-01</totfact>
</mgrwt>
</event>
<event>
 4    1  0.6502538E-008  0.1546906E+04  0.7818608E-02  0.8877205E-01
          2   -1    0    0  501    0  0.00000000000E+00  0.00000000000E+00  0.24906762855E+04  0.24906762855E+04  0.25500000000E-02 0. -1.
         -2   -1    0    0    0  501 -0.00000000000E+00 -0.00000000000E+00 -0.97137581910E+03  0.97137581911E+03  0.25500000000E-02 0.  1.
    8880023    1    1    2    0    0  0.13407216376E+04 -0.40196058792E+03  0.13325357013E+04  0.20417072330E+04  0.65864270000E+03 0.  0.
    8880022    1    1    2    0    0 -0.13407216376E+04  0.40196058792E+03  0.18676476510E+03  0.14203448716E+04  0.15294330000E+03 0.  0.
<mgrwt>
<rscale>  0 0.15109478E+04</rscale>
<asrwt>0</asrwt>
<pdfrwt beam="1">  1        2 0.38318096E+00 0.15469056E+04</pdfrwt>
<pdfrwt beam="2">  1       -2 0.14944244E+00 0.15469056E+04</pdfrwt>
<totfact> 0.10031083E+00</totfact>
</mgrwt>
</event>
<event>
 4    1  0.6502538E-008  0.1082704E+04  0.7818608E-02  0.9280562E-01
          2   -1    0    0  501    0  0.00000000000E+00  0.00000000000E+00  0.35775415881E+04  0.35775415881E+04  0.25500000000E-02 0. -1.
         -2   -1    0    0    0  501 -0.00000000000E+00 -0.00000000000E+00 -0.48184724132E+03  0.48184724132E+03  0.25500000000E-02 0.  1.
    8880023    1    1    2    0    0  0.42475526618E+03 -0.74700734796E+03  0.28971904631E+03  0.11207963000E+04  0.65864270000E+03 0.  0.
    8880022    1    1    2    0    0 -0.42475526618E+03  0.74700734796E+03  0.28059753004E+04  0.29385925294E+04  0.15294330000E+03 0.  0.
<mgrwt>
<rscale>  0 0.10259221E+04</rscale>
<asrwt>0</asrwt>
<pdfrwt beam="1">  1        2 0.55039103E+00 0.10827037E+04</pdfrwt>
<pdfrwt beam="2">  1       -2 0.74130342E-01 0.10827037E+04</pdfrwt>
<totfact> 0.12022672E+00</totfact>
</mgrwt>
</event>
<event>
 4    1  0.6502538E-008  0.1237855E+04  0.7818608E-02  0.9121175E-01
         -2   -1    0    0    0  501 -0.00000000000E+00  0.00000000000E+00  0.16473036721E+04  0.16473036721E+04  0.25500000000E-02 0.  1.
          2   -1    0    0  501    0  0.00000000000E+00 -0.00000000000E+00 -0.82093483436E+03  0.82093483437E+03  0.25500000000E-02 0. -1.
    8880023    1    1    2    0    0  0.94394907472E+03 -0.45545147109E+03  0.63742671850E+03  0.13923357806E+04  0.65864270000E+03 0. -1.
    8880022    1    1    2    0    0 -0.94394907472E+03  0.45545147109E+03  0.18894211927E+03  0.10759027259E+04  0.15294330000E+03 0.  1.
<mgrwt>
<rscale>  0 0.11905432E+04</rscale>
<asrwt>0</asrwt>
<pdfrwt beam="1">  1        2 0.12629767E+00 0.12378554E+04</pdfrwt>
<pdfrwt beam="2">  1       -2 0.25343133E+00 0.12378554E+04</pdfrwt>
<totfact> 0.19818128E+00</totfact>
</mgrwt>
</event>
<event>
 4    1  0.6502538E-008  0.8680709E+03  0.7818608E-02  0.9579365E-01
          2   -1    0    0  501    0  0.00000000000E+00  0.00000000000E+00  0.23261143794E+04  0.23261143794E+04  0.25500000000E-02 0. -1.
         -2   -1    0    0    0  501 -0.00000000000E+00 -0.00000000000E+00 -0.36922465514E+03  0.36922465515E+03  0.25500000000E-02 0.  1.
    8880023    1    1    2    0    0  0.15091573224E+03  0.54494164845E+03  0.19215165161E+04  0.21085001509E+04  0.65864270000E+03 0.  0.
    8880022    1    1    2    0    0 -0.15091573224E+03 -0.54494164845E+03  0.35373208129E+02  0.58683888361E+03  0.15294330000E+03 0.  0.
<mgrwt>
<rscale>  0 0.78677134E+03</rscale>
<asrwt>0</asrwt>
<pdfrwt beam="1">  1        2 0.35786375E+00 0.86807094E+03</pdfrwt>
<pdfrwt beam="2">  1       -2 0.56803794E-01 0.86807094E+03</pdfrwt>
<totfact> 0.13056455E+01</totfact>
</mgrwt>
</event>
<event>
 4    1  0.6502538E-008  0.1429802E+04  0.7818608E-02  0.8960865E-01
          2   -1    0    0  501    0  0.00000000000E+00  0.00000000000E+00  0.40182139977E+04  0.40182139977E+04  0.25500000000E-02 0. -1.
         -2   -1    0    0    0  501 -0.00000000000E+00 -0.00000000000E+00 -0.63401755444E+03  0.63401755444E+03  0.25500000000E-02 0.  1.
    8880023    1    1    2    0    0  0.69971289030E+02 -0.12671337134E+04  0.29905014412E+04  0.33147296880E+04  0.65864270000E+03 0.  0.
    8880022    1    1    2    0    0 -0.69971289030E+02  0.12671337134E+04  0.39369500211E+03  0.13375018641E+04  0.15294330000E+03 0.  0.
<mgrwt>
<rscale>  0 0.13903068E+04</rscale>
<asrwt>0</asrwt>
<pdfrwt beam="1">  1        2 0.61818677E+00 0.14298021E+04</pdfrwt>
<pdfrwt beam="2">  1       -2 0.97541162E-01 0.14298021E+04</pdfrwt>
<totfact> 0.28390467E-01</totfact>
</mgrwt>
</event>
<event>
 4    1  0.6502538E-008  0.1284344E+04  0.7818608E-02  0.9079199E-01
         -2   -1    0    0    0  501 -0.00000000000E+00  0.00000000000E+00  0.93122171164E+03  0.93122171164E+03  0.25500000000E-02 0.  1.
          2   -1    0    0  501    0  0.00000000000E+00 -0.00000000000E+00 -0.18897806731E+04  0.18897806731E+04  0.25500000000E-02 0. -1.
    8880023    1    1    2    0    0  0.21665489577E+03  0.10811062956E+04 -0.11100635566E+04  0.16975810650E+04  0.65864270000E+03 0.  0.
    8880022    1    1    2    0    0 -0.21665489577E+03 -0.10811062956E+04  0.15150459514E+03  0.11234213197E+04  0.15294330000E+03 0.  0.
<mgrwt>
<rscale>  0 0.12392255E+04</rscale>
<asrwt>0</asrwt>
<pdfrwt beam="1">  1        2 0.29073549E+00 0.12843443E+04</pdfrwt>
<pdfrwt beam="2">  1       -2 0.14326488E+00 0.12843443E+04</pdfrwt>
<totfact> 0.25103359E+00</totfact>
</mgrwt>
</event>
<event>
 4    1  0.6502538E-008  0.1834813E+04  0.7818608E-02  0.8703520E-01
         -2   -1    0    0    0  501 -0.00000000000E+00  0.00000000000E+00  0.12293154932E+04  0.12293154932E+04  0.25500000000E-02 0.  1.
          2   -1    0    0  501    0  0.00000000000E+00 -0.00000000000E+00 -0.34014042377E+04  0.34014042377E+04  0.25500000000E-02 0. -1.
    8880023    1    1    2    0    0 -0.89725676509E+03 -0.14586496275E+04 -0.22577004696E+04  0.29092524907E+04  0.65864270000E+03 0. -1.
    8880022    1    1    2    0    0  0.89725676509E+03  0.14586496275E+04  0.85611725001E+02  0.17214672402E+04  0.15294330000E+03 0.  0.
<mgrwt>
<rscale>  0 0.18052365E+04</rscale>
<asrwt>0</asrwt>
<pdfrwt beam="1">  1        2 0.52329296E+00 0.18348130E+04</pdfrwt>
<pdfrwt beam="2">  1       -2 0.18912546E+00 0.18348130E+04</pdfrwt>
<totfact> 0.13609759E-01</totfact>
</mgrwt>
</event>
<event>
 4    1  0.6502538E-008  0.7531084E+03  0.7818608E-02  0.9823287E-01
         -2   -1    0    0    0  501 -0.00000000000E+00  0.00000000000E+00  0.78171506989E+03  0.78171506989E+03  0.25500000000E-02 0.  1.
          2   -1    0    0  501    0  0.00000000000E+00 -0.00000000000E+00 -0.84698748334E+03  0.84698748334E+03  0.25500000000E-02 0. -1.
    8880023    1    1    2    0    0 -0.78289252799E+02  0.35669723854E+03 -0.60032033416E+03  0.96309752204E+03  0.65864270000E+03 0. -1.
    8880022    1    1    2    0    0  0.78289252799E+02 -0.35669723854E+03  0.53504792071E+03  0.66560503120E+03  0.15294330000E+03 0.  0.
<mgrwt>
<rscale>  0 0.64127660E+03</rscale>
<asrwt>0</asrwt>
<pdfrwt beam="1">  1        2 0.13030577E+00 0.75310845E+03</pdfrwt>
<pdfrwt beam="2">  1       -2 0.12026386E+00 0.75310845E+03</pdfrwt>
<totfact> 0.17092933E+01</totfact>
</mgrwt>
</event>
<event>
 4    1  0.6502538E-008  0.6592606E+03  0.7818608E-02  0.1024927E+00
         -2   -1    0    0    0  501 -0.00000000000E+00  0.00000000000E+00  0.93451304863E+02  0.93451304898E+02  0.25500000000E-02 0.  1.
          2   -1    0    0  501    0  0.00000000000E+00 -0.00000000000E+00 -0.26438945204E+04  0.26438945204E+04  0.25500000000E-02 0. -1.
    8880023    1    1    2    0    0 -0.28191950978E+02 -0.44285206148E+01 -0.24807704466E+04  0.25668748728E+04  0.65864270000E+03 0. -1.
    8880022    1    1    2    0    0  0.28191950978E+02  0.44285206148E+01 -0.69672769004E+02  0.17047095251E+03  0.15294330000E+03 0.  0.
<mgrwt>
<rscale>  0 0.45949772E+03</rscale>
<asrwt>0</asrwt>
<pdfrwt beam="1">  1        2 0.40675295E+00 0.65926065E+03</pdfrwt>
<pdfrwt beam="2">  1       -2 0.14377126E-01 0.65926065E+03</pdfrwt>
<totfact> 0.11379689E+02</totfact>
</mgrwt>
</event>
<event>
 4    1  0.6502538E-008  0.9221528E+03  0.7818608E-02  0.9491366E-01
          2   -1    0    0  501    0  0.00000000000E+00  0.00000000000E+00  0.74947698197E+03  0.74947698197E+03  0.25500000000E-02 0. -1.
         -2   -1    0    0    0  501 -0.00000000000E+00 -0.00000000000E+00 -0.21208953974E+04  0.21208953974E+04  0.25500000000E-02 0.  1.
    8880023    1    1    2    0    0 -0.62204689235E+03 -0.17208506432E+03  0.38013968559E+03  0.99743270072E+03  0.65864270000E+03 0.  0.
    8880022    1    1    2    0    0  0.62204689235E+03  0.17208506432E+03 -0.17515581011E+04  0.18729396787E+04  0.15294330000E+03 0.  0.
<mgrwt>
<rscale>  0 0.84923376E+03</rscale>
<asrwt>0</asrwt>
<pdfrwt beam="1">  1        2 0.11530415E+00 0.92215281E+03</pdfrwt>
<pdfrwt beam="2">  1       -2 0.32629160E+00 0.92215281E+03</pdfrwt>
<totfact> 0.83830818E-01</totfact>
</mgrwt>
</event>
<event>
 4    1  0.6502538E-008  0.8891776E+03  0.7818608E-02  0.9543633E-01
         -2   -1    0    0    0  501 -0.00000000000E+00  0.00000000000E+00  0.38206689100E+03  0.38206689101E+03  0.25500000000E-02 0.  1.
          2   -1    0    0  501    0  0.00000000000E+00 -0.00000000000E+00 -0.20051404028E+04  0.20051404028E+04  0.25500000000E-02 0. -1.
    8880023    1    1    2    0    0 -0.57551549811E+03 -0.16002662165E+03 -0.15215113434E+04  0.17622807899E+04  0.65864270000E+03 0. -1.
    8880022    1    1    2    0    0  0.57551549811E+03  0.16002662165E+03 -0.10156216842E+03  0.62492650390E+03  0.15294330000E+03 0.  0.
<mgrwt>
<rscale>  0 0.81141963E+03</rscale>
<asrwt>0</asrwt>
<pdfrwt beam="1">  1        2 0.30848313E+00 0.88917761E+03</pdfrwt>
<pdfrwt beam="2">  1       -2 0.58779523E-01 0.88917761E+03</pdfrwt>
<totfact> 0.18241888E+01</totfact>
</mgrwt>
</event>
<event>
 4    1  0.6502538E-008  0.8630349E+03  0.7818608E-02  0.9588187E-01
          2   -1    0    0  501    0  0.00000000000E+00  0.00000000000E+00  0.20257789432E+04  0.20257789432E+04  0.25500000000E-02 0. -1.
         -2   -1    0    0    0  501 -0.00000000000E+00 -0.00000000000E+00 -0.25711367746E+03  0.25711367747E+03  0.25500000000E-02 0.  1.
    8880023    1    1    2    0    0  0.53716823955E+03  0.14989788359E+03  0.11187193844E+04  0.14129268772E+04  0.65864270000E+03 0. -1.
    8880022    1    1    2    0    0 -0.53716823955E+03 -0.14989788359E+03  0.64994588137E+03  0.86996574347E+03  0.15294330000E+03 0.  1.
<mgrwt>
<rscale>  0 0.78082968E+03</rscale>
<asrwt>0</asrwt>
<pdfrwt beam="1">  1        2 0.31165832E+00 0.86303494E+03</pdfrwt>
<pdfrwt beam="2">  1       -2 0.39555948E-01 0.86303494E+03</pdfrwt>
<totfact> 0.39781716E+01</totfact>
</mgrwt>
</event>
<event>
 4    1  0.6502538E-008  0.7739668E+03  0.7818608E-02  0.9770205E-01
          2   -1    0    0  501    0  0.00000000000E+00  0.00000000000E+00  0.27009713774E+04  0.27009713774E+04  0.25500000000E-02 0. -1.
         -2   -1    0    0    0  501 -0.00000000000E+00 -0.00000000000E+00 -0.81424237829E+03  0.81424237829E+03  0.25500000000E-02 0.  1.
    8880023    1    1    2    0    0 -0.38202350489E+03 -0.13882530388E+03  0.25819710124E+04  0.26954774973E+04  0.65864270000E+03 0.  0.
    8880022    1    1    2    0    0  0.38202350489E+03  0.13882530388E+03 -0.69524201328E+03  0.81973625840E+03  0.15294330000E+03 0.  0.
<mgrwt>
<rscale>  0 0.66986335E+03</rscale>
<asrwt>0</asrwt>
<pdfrwt beam="1">  1        2 0.41553406E+00 0.77396681E+03</pdfrwt>
<pdfrwt beam="2">  1       -2 0.12526806E+00 0.77396681E+03</pdfrwt>
<totfact> 0.13310677E+00</totfact>
</mgrwt>
</event>
<event>
 4    1  0.6502538E-008  0.8581895E+03  0.7818608E-02  0.9596792E-01
          2   -1    0    0  501    0  0.00000000000E+00  0.00000000000E+00  0.81367307827E+03  0.81367307827E+03  0.25500000000E-02 0. -1.
         -2   -1    0    0    0  501 -0.00000000000E+00 -0.00000000000E+00 -0.25080350334E+04  0.25080350334E+04  0.25500000000E-02 0.  1.
    8880023    1    1    2    0    0 -0.32842138841E+03  0.44138238285E+03  0.54105576801E+03  0.10145100131E+04  0.65864270000E+03 0. -1.
    8880022    1    1    2    0    0  0.32842138841E+03 -0.44138238285E+03 -0.22354177231E+04  0.23071980986E+04  0.15294330000E+03 0.  0.
<mgrwt>
<rscale>  0 0.77508863E+03</rscale>
<asrwt>0</asrwt>
<pdfrwt beam="1">  1        2 0.12518048E+00 0.85818950E+03</pdfrwt>
<pdfrwt beam="2">  1       -2 0.38585154E+00 0.85818950E+03</pdfrwt>
<totfact> 0.32179760E-01</totfact>
</mgrwt>
</event>
<event>
 4    1  0.6502538E-008  0.7520785E+03  0.7818608E-02  0.9826064E-01
          2   -1    0    0  501    0  0.00000000000E+00  0.00000000000E+00  0.96587460488E+03  0.96587460488E+03  0.25500000000E-02 0. -1.
         -2   -1    0    0    0  501 -0.00000000000E+00 -0.00000000000E+00 -0.79376702132E+03  0.79376702132E+03  0.25500000000E-02 0.  1.
    8880023    1    1    2    0    0  0.33097693861E+03  0.14921863803E+03  0.74876527927E+03  0.10612594337E+04  0.65864270000E+03 0. -1.
    8880022    1    1    2    0    0 -0.33097693861E+03 -0.14921863803E+03 -0.57665769571E+03  0.69838219254E+03  0.15294330000E+03 0.  0.
<mgrwt>
<rscale>  0 0.63982340E+03</rscale>
<asrwt>0</asrwt>
<pdfrwt beam="1">  1        2 0.14859609E+00 0.75207855E+03</pdfrwt>
<pdfrwt beam="2">  1       -2 0.12211800E+00 0.75207855E+03</pdfrwt>
<totfact> 0.13694214E+01</totfact>
</mgrwt>
</event>
<event>
 4    1  0.6502538E-008  0.1134308E+04  0.7818608E-02  0.9223786E-01
         -2   -1    0    0    0  501 -0.00000000000E+00  0.00000000000E+00  0.64558565271E+03  0.64558565272E+03  0.25500000000E-02 0.  1.
          2   -1    0    0  501    0  0.00000000000E+00 -0.00000000000E+00 -0.21342047016E+04  0.21342047016E+04  0.25500000000E-02 0. -1.
    8880023    1    1    2    0    0  0.99329927893E+02 -0.91813849835E+03 -0.14526111188E+04  0.18430230616E+04  0.65864270000E+03 0.  0.
    8880022    1    1    2    0    0 -0.99329927893E+02  0.91813849835E+03 -0.36007930077E+02  0.93676729275E+03  0.15294330000E+03 0.  0.
<mgrwt>
<rscale>  0 0.10811251E+04</rscale>
<asrwt>0</asrwt>
<pdfrwt beam="1">  1        2 0.32833918E+00 0.11343081E+04</pdfrwt>
<pdfrwt beam="2">  1       -2 0.99320871E-01 0.11343081E+04</pdfrwt>
<totfact> 0.46574805E+00</totfact>
</mgrwt>
</event>
<event>
 4    1  0.6502538E-008  0.8441569E+03  0.7818608E-02  0.9622391E-01
          2   -1    0    0  501    0  0.00000000000E+00  0.00000000000E+00  0.42612408415E+03  0.42612408416E+03  0.25500000000E-02 0. -1.
         -2   -1    0    0    0  501 -0.00000000000E+00 -0.00000000000E+00 -0.19540947331E+04  0.19540947331E+04  0.25500000000E-02 0.  1.
    8880023    1    1    2    0    0 -0.31956755117E+03  0.42031809636E+03 -0.99957776099E+02  0.85005440129E+03  0.65864270000E+03 0. -1.
    8880022    1    1    2    0    0  0.31956755117E+03 -0.42031809636E+03 -0.14280128729E+04  0.15301644160E+04  0.15294330000E+03 0.  0.
<mgrwt>
<rscale>  0 0.75831742E+03</rscale>
<asrwt>0</asrwt>
<pdfrwt beam="1">  1        2 0.65557552E-01 0.84415693E+03</pdfrwt>
<pdfrwt beam="2">  1       -2 0.30062996E+00 0.84415693E+03</pdfrwt>
<totfact> 0.23953490E+00</totfact>
</mgrwt>
</event>
<event>
 4    1  0.6502538E-008  0.8718582E+03  0.7818608E-02  0.9572808E-01
          2   -1    0    0  501    0  0.00000000000E+00  0.00000000000E+00  0.14864299057E+04  0.14864299057E+04  0.25500000000E-02 0. -1.
         -2   -1    0    0    0  501 -0.00000000000E+00 -0.00000000000E+00 -0.41659198505E+03  0.41659198506E+03  0.25500000000E-02 0.  1.
    8880023    1    1    2    0    0  0.41233998467E+03 -0.39535078623E+03  0.96834238769E+03  0.13030056382E+04  0.65864270000E+03 0.  0.
    8880022    1    1    2    0    0 -0.41233998467E+03  0.39535078623E+03  0.10149553297E+03  0.60001625258E+03  0.15294330000E+03 0.  0.
<mgrwt>
<rscale>  0 0.79122347E+03</rscale>
<asrwt>0</asrwt>
<pdfrwt beam="1">  1        2 0.22868152E+00 0.87185820E+03</pdfrwt>
<pdfrwt beam="2">  1       -2 0.64091075E-01 0.87185820E+03</pdfrwt>
<totfact> 0.29362940E+01</totfact>
</mgrwt>
</event>
<event>
 4    1  0.6502538E-008  0.7508825E+03  0.7818608E-02  0.9829311E-01
          2   -1    0    0  501    0  0.00000000000E+00  0.00000000000E+00  0.11985567949E+04  0.11985567949E+04  0.25500000000E-02 0. -1.
         -2   -1    0    0    0  501 -0.00000000000E+00 -0.00000000000E+00 -0.45060562664E+03  0.45060562665E+03  0.25500000000E-02 0.  1.
    8880023    1    1    2    0    0 -0.34897616703E+03 -0.90718788416E+02  0.94800838204E+03  0.12093570037E+04  0.65864270000E+03 0. -1.
    8880022    1    1    2    0    0  0.34897616703E+03  0.90718788416E+02 -0.20005721381E+03  0.43980541781E+03  0.15294330000E+03 0.  0.
<mgrwt>
<rscale>  0 0.63813011E+03</rscale>
<asrwt>0</asrwt>
<pdfrwt beam="1">  1        2 0.18439335E+00 0.75088246E+03</pdfrwt>
<pdfrwt beam="2">  1       -2 0.69323942E-01 0.75088246E+03</pdfrwt>
<totfact> 0.36693476E+01</totfact>
</mgrwt>
</event>
<event>
 4    1  0.6502538E-008  0.9999476E+03  0.7818608E-02  0.9381626E-01
         -2   -1    0    0    0  501 -0.00000000000E+00  0.00000000000E+00  0.13696257165E+04  0.13696257165E+04  0.25500000000E-02 0.  1.
          2   -1    0    0  501    0  0.00000000000E+00 -0.00000000000E+00 -0.10245048926E+04  0.10245048926E+04  0.25500000000E-02 0. -1.
    8880023    1    1    2    0    0 -0.23958477932E+03 -0.71322098089E+03 -0.60796544146E+03  0.11702637388E+04  0.65864270000E+03 0. -1.
    8880022    1    1    2    0    0  0.23958477932E+03  0.71322098089E+03  0.95308626535E+03  0.12238668703E+04  0.15294330000E+03 0.  0.
<mgrwt>
<rscale>  0 0.93603323E+03</rscale>
<asrwt>0</asrwt>
<pdfrwt beam="1">  1        2 0.15761614E+00 0.99994762E+03</pdfrwt>
<pdfrwt beam="2">  1       -2 0.21071165E+00 0.99994762E+03</pdfrwt>
<totfact> 0.27331743E+00</totfact>
</mgrwt>
</event>
<event>
 4    1  0.6502538E-008  0.8276054E+03  0.7818608E-02  0.9654010E-01
          2   -1    0    0  501    0  0.00000000000E+00  0.00000000000E+00  0.96119173672E+03  0.96119173673E+03  0.25500000000E-02 0. -1.
         -2   -1    0    0    0  501 -0.00000000000E+00 -0.00000000000E+00 -0.20864072593E+04  0.20864072593E+04  0.25500000000E-02 0.  1.
    8880023    1    1    2    0    0 -0.32271602696E+03 -0.38337299628E+03  0.73999953618E+03  0.11101936805E+04  0.65864270000E+03 0.  0.
    8880022    1    1    2    0    0  0.32271602696E+03  0.38337299628E+03 -0.18652150587E+04  0.19374053156E+04  0.15294330000E+03 0.  0.
<mgrwt>
<rscale>  0 0.73822318E+03</rscale>
<asrwt>0</asrwt>
<pdfrwt beam="1">  1        2 0.14787565E+00 0.82760540E+03</pdfrwt>
<pdfrwt beam="2">  1       -2 0.32098573E+00 0.82760540E+03</pdfrwt>
<totfact> 0.65288987E-01</totfact>
</mgrwt>
</event>
<event>
 4    1  0.6502538E-008  0.8675574E+03  0.7818608E-02  0.9580259E-01
          2   -1    0    0  501    0  0.00000000000E+00  0.00000000000E+00  0.31502130107E+04  0.31502130107E+04  0.25500000000E-02 0. -1.
         -2   -1    0    0    0  501 -0.00000000000E+00 -0.00000000000E+00 -0.76779989111E+03  0.76779989111E+03  0.25500000000E-02 0.  1.
    8880023    1    1    2    0    0 -0.50450412598E+03  0.25361620382E+03  0.29668475099E+04  0.30910904136E+04  0.65864270000E+03 0. -1.
    8880022    1    1    2    0    0  0.50450412598E+03 -0.25361620382E+03 -0.58443439027E+03  0.82692248822E+03  0.15294330000E+03 0.  0.
<mgrwt>
<rscale>  0 0.78616655E+03</rscale>
<asrwt>0</asrwt>
<pdfrwt beam="1">  1        2 0.48464816E+00 0.86755737E+03</pdfrwt>
<pdfrwt beam="2">  1       -2 0.11812306E+00 0.86755737E+03</pdfrwt>
<totfact> 0.80782476E-01</totfact>
</mgrwt>
</event>
<event>
 4    1  0.6502538E-008  0.6987017E+03  0.7818608E-02  0.1000263E+00
         -2   -1    0    0    0  501 -0.00000000000E+00  0.00000000000E+00  0.16644646040E+03  0.16644646042E+03  0.25500000000E-02 0.  1.
          2   -1    0    0  501    0  0.00000000000E+00 -0.00000000000E+00 -0.21901851029E+04  0.21901851029E+04  0.25500000000E-02 0. -1.
    8880023    1    1    2    0    0 -0.23317578628E+03 -0.16897200359E+01 -0.19452592802E+04  0.20669343666E+04  0.65864270000E+03 0. -1.
    8880022    1    1    2    0    0  0.23317578628E+03  0.16897200359E+01 -0.78479362308E+02  0.28969719671E+03  0.15294330000E+03 0.  0.
<mgrwt>
<rscale>  0 0.55535050E+03</rscale>
<asrwt>0</asrwt>
<pdfrwt beam="1">  1        2 0.33695153E+00 0.69870166E+03</pdfrwt>
<pdfrwt beam="2">  1       -2 0.25607149E-01 0.69870166E+03</pdfrwt>
<totfact> 0.74497597E+01</totfact>
</mgrwt>
</event>
<event>
 4    1  0.6502538E-008  0.1537683E+04  0.7818608E-02  0.8883475E-01
         -2   -1    0    0    0  501 -0.00000000000E+00  0.00000000000E+00  0.12571212334E+04  0.12571212334E+04  0.25500000000E-02 0.  1.
          2   -1    0    0  501    0  0.00000000000E+00 -0.00000000000E+00 -0.29050873783E+04  0.29050873783E+04  0.25500000000E-02 0. -1.
    8880023    1    1    2    0    0  0.26336115403E+03 -0.13642950772E+04 -0.21789462992E+04  0.26668853249E+04  0.65864270000E+03 0. -1.
    8880022    1    1    2    0    0 -0.26336115403E+03  0.13642950772E+04  0.53098015427E+03  0.14953232869E+04  0.15294330000E+03 0.  0.
<mgrwt>
<rscale>  0 0.15014719E+04</rscale>
<asrwt>0</asrwt>
<pdfrwt beam="1">  1        2 0.44693652E+00 0.15376834E+04</pdfrwt>
<pdfrwt beam="2">  1       -2 0.19340327E+00 0.15376834E+04</pdfrwt>
<totfact> 0.27519181E-01</totfact>
</mgrwt>
</event>
<event>
 4    1  0.6502538E-008  0.7556076E+03  0.7818608E-02  0.9816614E-01
          2   -1    0    0  501    0  0.00000000000E+00  0.00000000000E+00  0.99742816698E+03  0.99742816698E+03  0.25500000000E-02 0. -1.
         -2   -1    0    0    0  501 -0.00000000000E+00 -0.00000000000E+00 -0.46943378366E+03  0.46943378367E+03  0.25500000000E-02 0.  1.
    8880023    1    1    2    0    0  0.27174791580E+03 -0.25156654334E+03  0.70076724396E+03  0.10305423776E+04  0.65864270000E+03 0.  0.
    8880022    1    1    2    0    0 -0.27174791580E+03  0.25156654334E+03 -0.17277286065E+03  0.43631957309E+03  0.15294330000E+03 0.  0.
<mgrwt>
<rscale>  0 0.64478488E+03</rscale>
<asrwt>0</asrwt>
<pdfrwt beam="1">  1        2 0.15345049E+00 0.75560761E+03</pdfrwt>
<pdfrwt beam="2">  1       -2 0.72220583E-01 0.75560761E+03</pdfrwt>
<totfact> 0.44553684E+01</totfact>
</mgrwt>
</event>
<event>
 4    1  0.6502538E-008  0.8052837E+03  0.7818608E-02  0.9699486E-01
          2   -1    0    0  501    0  0.00000000000E+00  0.00000000000E+00  0.17495640354E+04  0.17495640354E+04  0.25500000000E-02 0. -1.
         -2   -1    0    0    0  501 -0.00000000000E+00 -0.00000000000E+00 -0.77640694701E+03  0.77640694702E+03  0.25500000000E-02 0.  1.
    8880023    1    1    2    0    0  0.10051425227E+03 -0.45229247134E+03  0.15643415305E+04  0.17594448627E+04  0.65864270000E+03 0. -1.
    8880022    1    1    2    0    0 -0.10051425227E+03  0.45229247134E+03 -0.59118444214E+03  0.76652611970E+03  0.15294330000E+03 0.  0.
<mgrwt>
<rscale>  0 0.71047404E+03</rscale>
<asrwt>0</asrwt>
<pdfrwt beam="1">  1        2 0.26916370E+00 0.80528368E+03</pdfrwt>
<pdfrwt beam="2">  1       -2 0.11944722E+00 0.80528368E+03</pdfrwt>
<totfact> 0.50511994E+00</totfact>
</mgrwt>
</event>
<event>
 4    1  0.6502538E-008  0.9529338E+03  0.7818608E-02  0.9445905E-01
         -2   -1    0    0    0  501 -0.00000000000E+00  0.00000000000E+00  0.14945823021E+04  0.14945823021E+04  0.25500000000E-02 0.  1.
          2   -1    0    0  501    0  0.00000000000E+00 -0.00000000000E+00 -0.49082457731E+03  0.49082457732E+03  0.25500000000E-02 0. -1.
    8880023    1    1    2    0    0 -0.26411168237E+03  0.63601699658E+03  0.32605640170E+03  0.10071720727E+04  0.65864270000E+03 0.  0.
    8880022    1    1    2    0    0  0.26411168237E+03 -0.63601699658E+03  0.67770132307E+03  0.97823480669E+03  0.15294330000E+03 0.  0.
<mgrwt>
<rscale>  0 0.88392232E+03</rscale>
<asrwt>0</asrwt>
<pdfrwt beam="1">  1        2 0.75511474E-01 0.95293379E+03</pdfrwt>
<pdfrwt beam="2">  1       -2 0.22993574E+00 0.95293379E+03</pdfrwt>
<totfact> 0.53972420E+00</totfact>
</mgrwt>
</event>
<event>
 4    1  0.6502538E-008  0.8573296E+03  0.7818608E-02  0.9598331E-01
         -2   -1    0    0    0  501 -0.00000000000E+00  0.00000000000E+00  0.20944711608E+03  0.20944711610E+03  0.25500000000E-02 0.  1.
          2   -1    0    0  501    0  0.00000000000E+00 -0.00000000000E+00 -0.28712891799E+04  0.28712891799E+04  0.25500000000E-02 0. -1.
    8880023    1    1    2    0    0 -0.49348679435E+03  0.24015540666E+03 -0.21508516483E+04  0.23154215286E+04  0.65864270000E+03 0. -1.
    8880022    1    1    2    0    0  0.49348679435E+03 -0.24015540666E+03 -0.51099041554E+03  0.76531476748E+03  0.15294330000E+03 0.  0.
<mgrwt>
<rscale>  0 0.77406721E+03</rscale>
<asrwt>0</asrwt>
<pdfrwt beam="1">  1        2 0.44173677E+00 0.85732960E+03</pdfrwt>
<pdfrwt beam="2">  1       -2 0.32222635E-01 0.85732960E+03</pdfrwt>
<totfact> 0.19479992E+01</totfact>
</mgrwt>
</event>
<event>
 4    1  0.6502538E-008  0.6753638E+03  0.7818608E-02  0.1012078E+00
          2   -1    0    0  501    0  0.00000000000E+00  0.00000000000E+00  0.11199537908E+04  0.11199537908E+04  0.25500000000E-02 0. -1.
         -2   -1    0    0    0  501 -0.00000000000E+00 -0.00000000000E+00 -0.34797612474E+03  0.34797612475E+03  0.25500000000E-02 0.  1.
    8880023    1    1    2    0    0 -0.13284774901E+03 -0.68246423224E+02  0.96637873049E+03  0.11789843747E+04  0.65864270000E+03 0. -1.
    8880022    1    1    2    0    0  0.13284774901E+03  0.68246423224E+02 -0.19440106446E+03  0.28894554085E+03  0.15294330000E+03 0.  0.
<mgrwt>
<rscale>  0 0.50657086E+03</rscale>
<asrwt>0</asrwt>
<pdfrwt beam="1">  1        2 0.17230058E+00 0.67536383E+03</pdfrwt>
<pdfrwt beam="2">  1       -2 0.53534788E-01 0.67536383E+03</pdfrwt>
<totfact> 0.71212277E+01</totfact>
</mgrwt>
</event>
<event>
 4    1  0.6502538E-008  0.1531081E+04  0.7818608E-02  0.8887995E-01
         -2   -1    0    0    0  501 -0.00000000000E+00  0.00000000000E+00  0.10908942300E+04  0.10908942300E+04  0.25500000000E-02 0.  1.
          2   -1    0    0  501    0  0.00000000000E+00 -0.00000000000E+00 -0.34056158657E+04  0.34056158657E+04  0.25500000000E-02 0. -1.
    8880023    1    1    2    0    0  0.78355757246E+03  0.11386117116E+04 -0.26550328310E+04  0.30648668224E+04  0.65864270000E+03 0.  0.
    8880022    1    1    2    0    0 -0.78355757246E+03 -0.11386117116E+04  0.34031119537E+03  0.14316432732E+04  0.15294330000E+03 0.  0.
<mgrwt>
<rscale>  0 0.14946855E+04</rscale>
<asrwt>0</asrwt>
<pdfrwt beam="1">  1        2 0.52394090E+00 0.15310811E+04</pdfrwt>
<pdfrwt beam="2">  1       -2 0.16782988E+00 0.15310811E+04</pdfrwt>
<totfact> 0.19743541E-01</totfact>
</mgrwt>
</event>
<event>
 4    1  0.6502538E-008  0.7572944E+03  0.7818608E-02  0.9812163E-01
         -2   -1    0    0    0  501 -0.00000000000E+00  0.00000000000E+00  0.36317642650E+03  0.36317642651E+03  0.25500000000E-02 0.  1.
          2   -1    0    0  501    0  0.00000000000E+00 -0.00000000000E+00 -0.14890593477E+04  0.14890593477E+04  0.25500000000E-02 0. -1.
    8880023    1    1    2    0    0 -0.20927289638E+03  0.30966022749E+03 -0.12215356813E+04  0.14372349246E+04  0.65864270000E+03 0. -1.
    8880022    1    1    2    0    0  0.20927289638E+03 -0.30966022749E+03  0.95652760076E+02  0.41500084960E+03  0.15294330000E+03 0.  0.
<mgrwt>
<rscale>  0 0.64713874E+03</rscale>
<asrwt>0</asrwt>
<pdfrwt beam="1">  1        2 0.22908605E+00 0.75729440E+03</pdfrwt>
<pdfrwt beam="2">  1       -2 0.55873297E-01 0.75729440E+03</pdfrwt>
<totfact> 0.39572642E+01</totfact>
</mgrwt>
</event>
<event>
 4    1  0.6502538E-008  0.6659543E+03  0.7818608E-02  0.1018746E+00
         -2   -1    0    0    0  501 -0.00000000000E+00  0.00000000000E+00  0.27848934512E+03  0.27848934513E+03  0.25500000000E-02 0.  1.
          2   -1    0    0  501    0  0.00000000000E+00 -0.00000000000E+00 -0.39896940234E+04  0.39896940234E+04  0.25500000000E-02 0. -1.
    8880023    1    1    2    0    0 -0.94107325670E+02 -0.28786810591E+02 -0.39286573033E+04  0.39847011534E+04  0.65864270000E+03 0. -1.
    8880022    1    1    2    0    0  0.94107325670E+02  0.28786810591E+02  0.21745262494E+03  0.28348221517E+03  0.15294330000E+03 0.  0.
<mgrwt>
<rscale>  0 0.48141906E+03</rscale>
<asrwt>0</asrwt>
<pdfrwt beam="1">  1        2 0.61379904E+00 0.66595426E+03</pdfrwt>
<pdfrwt beam="2">  1       -2 0.42844518E-01 0.66595426E+03</pdfrwt>
<totfact> 0.20408703E+00</totfact>
</mgrwt>
</event>
<event>
 4    1  0.6502538E-008  0.6878752E+03  0.7818608E-02  0.1005179E+00
          2   -1    0    0  501    0  0.00000000000E+00  0.00000000000E+00  0.19008629920E+04  0.19008629920E+04  0.25500000000E-02 0. -1.
         -2   -1    0    0    0  501 -0.00000000000E+00 -0.00000000000E+00 -0.16092232555E+03  0.16092232557E+03  0.25500000000E-02 0.  1.
    8880023    1    1    2    0    0 -0.12121936172E+03  0.15706030313E+03  0.16631245147E+04  0.17997653819E+04  0.65864270000E+03 0.  0.
    8880022    1    1    2    0    0  0.12121936172E+03 -0.15706030313E+03  0.76816151762E+02  0.26201993562E+03  0.15294330000E+03 0.  1.
<mgrwt>
<rscale>  0 0.53436398E+03</rscale>
<asrwt>0</asrwt>
<pdfrwt beam="1">  1        2 0.29244046E+00 0.68787519E+03</pdfrwt>
<pdfrwt beam="2">  1       -2 0.24757281E-01 0.68787519E+03</pdfrwt>
<totfact> 0.11402804E+02</totfact>
</mgrwt>
</event>
<event>
 4    1  0.6502538E-008  0.1072220E+04  0.7818608E-02  0.9292635E-01
          2   -1    0    0  501    0  0.00000000000E+00  0.00000000000E+00  0.22726015464E+04  0.22726015464E+04  0.25500000000E-02 0. -1.
         -2   -1    0    0    0  501 -0.00000000000E+00 -0.00000000000E+00 -0.50550254362E+03  0.50550254362E+03  0.25500000000E-02 0.  1.
    8880023    1    1    2    0    0  0.25819431952E+03 -0.80571777689E+03  0.15613130179E+04  0.18940311478E+04  0.65864270000E+03 0.  0.
    8880022    1    1    2    0    0 -0.25819431952E+03  0.80571777689E+03  0.20578598490E+03  0.88407294225E+03  0.15294330000E+03 0.  0.
<mgrwt>
<rscale>  0 0.10146374E+04</rscale>
<asrwt>0</asrwt>
<pdfrwt beam="1">  1        2 0.34963101E+00 0.10722200E+04</pdfrwt>
<pdfrwt beam="2">  1       -2 0.77769622E-01 0.10722200E+04</pdfrwt>
<totfact> 0.69054238E+00</totfact>
</mgrwt>
</event>
<event>
 4    1  0.6502538E-008  0.7787029E+03  0.7818608E-02  0.9758893E-01
          2   -1    0    0  501    0  0.00000000000E+00  0.00000000000E+00  0.28137882745E+03  0.28137882746E+03  0.25500000000E-02 0. -1.
         -2   -1    0    0    0  501 -0.00000000000E+00 -0.00000000000E+00 -0.17340575007E+04  0.17340575007E+04  0.25500000000E-02 0.  1.
    8880023    1    1    2    0    0  0.38424389991E+03  0.15787525906E+03 -0.40424126998E+03  0.87737630619E+03  0.65864270000E+03 0. -1.
    8880022    1    1    2    0    0 -0.38424389991E+03 -0.15787525906E+03 -0.10484374033E+04  0.11380600220E+04  0.15294330000E+03 0.  0.
<mgrwt>
<rscale>  0 0.67616029E+03</rscale>
<asrwt>0</asrwt>
<pdfrwt beam="1">  1        2 0.43289051E-01 0.77870288E+03</pdfrwt>
<pdfrwt beam="2">  1       -2 0.26677807E+00 0.77870288E+03</pdfrwt>
<totfact> 0.61453351E+00</totfact>
</mgrwt>
</event>
<event>
 4    1  0.6502538E-008  0.1366107E+04  0.7818608E-02  0.9010476E-01
          2   -1    0    0  501    0  0.00000000000E+00  0.00000000000E+00  0.27041883870E+04  0.27041883870E+04  0.25500000000E-02 0. -1.
         -2   -1    0    0    0  501 -0.00000000000E+00 -0.00000000000E+00 -0.96231125952E+03  0.96231125952E+03  0.25500000000E-02 0.  1.
    8880023    1    1    2    0    0 -0.98262428610E+03 -0.68329262458E+03 -0.19962589421E+03  0.13806158055E+04  0.65864270000E+03 0.  0.
    8880022    1    1    2    0    0  0.98262428610E+03  0.68329262458E+03  0.19415030217E+04  0.22858838410E+04  0.15294330000E+03 0.  0.
<mgrwt>
<rscale>  0 0.13243492E+04</rscale>
<asrwt>0</asrwt>
<pdfrwt beam="1">  1        2 0.41602898E+00 0.13661074E+04</pdfrwt>
<pdfrwt beam="2">  1       -2 0.14804789E+00 0.13661074E+04</pdfrwt>
<totfact> 0.78650696E-01</totfact>
</mgrwt>
</event>
<event>
 4    1  0.6502538E-008  0.8287257E+03  0.7818608E-02  0.9651817E-01
          2   -1    0    0  501    0  0.00000000000E+00  0.00000000000E+00  0.13920960258E+04  0.13920960258E+04  0.25500000000E-02 0. -1.
         -2   -1    0    0    0  501 -0.00000000000E+00 -0.00000000000E+00 -0.19561570124E+04  0.19561570124E+04  0.25500000000E-02 0.  1.
    8880023    1    1    2    0    0 -0.47890016349E+03  0.15372268476E+03  0.12275519070E+04  0.14811042911E+04  0.65864270000E+03 0. -1.
    8880022    1    1    2    0    0  0.47890016349E+03 -0.15372268476E+03 -0.17916128936E+04  0.18671487471E+04  0.15294330000E+03 0.  0.
<mgrwt>
<rscale>  0 0.73959506E+03</rscale>
<asrwt>0</asrwt>
<pdfrwt beam="1">  1        2 0.21416862E+00 0.82872567E+03</pdfrwt>
<pdfrwt beam="2">  1       -2 0.30094723E+00 0.82872567E+03</pdfrwt>
<totfact> 0.47504683E-01</totfact>
</mgrwt>
</event>
<event>
 4    1  0.6502538E-008  0.9384971E+03  0.7818608E-02  0.9466861E-01
         -2   -1    0    0    0  501 -0.00000000000E+00  0.00000000000E+00  0.47940194429E+03  0.47940194430E+03  0.25500000000E-02 0.  1.
          2   -1    0    0  501    0  0.00000000000E+00 -0.00000000000E+00 -0.46438503649E+04  0.46438503649E+04  0.25500000000E-02 0. -1.
    8880023    1    1    2    0    0 -0.64034325465E+02  0.66548194429E+03 -0.43193656198E+04  0.44201466239E+04  0.65864270000E+03 0. -1.
    8880022    1    1    2    0    0  0.64034325465E+02 -0.66548194429E+03  0.15491719923E+03  0.70310568526E+03  0.15294330000E+03 0.  0.
<mgrwt>
<rscale>  0 0.86771739E+03</rscale>
<asrwt>0</asrwt>
<pdfrwt beam="1">  1        2 0.71443848E+00 0.93849711E+03</pdfrwt>
<pdfrwt beam="2">  1       -2 0.73754149E-01 0.93849711E+03</pdfrwt>
<totfact> 0.16014316E-01</totfact>
</mgrwt>
</event>
<event>
 4    1  0.6502538E-008  0.7678500E+03  0.7818608E-02  0.9785193E-01
         -2   -1    0    0    0  501 -0.00000000000E+00  0.00000000000E+00  0.25736760655E+03  0.25736760656E+03  0.25500000000E-02 0.  1.
          2   -1    0    0  501    0  0.00000000000E+00 -0.00000000000E+00 -0.13785333750E+04  0.13785333750E+04  0.25500000000E-02 0. -1.
    8880023    1    1    2    0    0 -0.29294583274E+03 -0.26451112529E+03 -0.71052780555E+03  0.10461564725E+04  0.65864270000E+03 0. -1.
    8880022    1    1    2    0    0  0.29294583274E+03  0.26451112529E+03 -0.41063796287E+03  0.58974450899E+03  0.15294330000E+03 0.  1.
<mgrwt>
<rscale>  0 0.66163272E+03</rscale>
<asrwt>0</asrwt>
<pdfrwt beam="1">  1        2 0.21208205E+00 0.76784999E+03</pdfrwt>
<pdfrwt beam="2">  1       -2 0.39595017E-01 0.76784999E+03</pdfrwt>
<totfact> 0.91235941E+01</totfact>
</mgrwt>
</event>
<event>
 4    1  0.6502538E-008  0.7901934E+03  0.7818608E-02  0.9732415E-01
          2   -1    0    0  501    0  0.00000000000E+00  0.00000000000E+00  0.32967208971E+04  0.32967208971E+04  0.25500000000E-02 0. -1.
         -2   -1    0    0    0  501 -0.00000000000E+00 -0.00000000000E+00 -0.52407881312E+03  0.52407881312E+03  0.25500000000E-02 0.  1.
    8880023    1    1    2    0    0 -0.40407824790E+03 -0.16527604208E+03  0.31350837094E+04  0.32331340015E+04  0.65864270000E+03 0.  0.
    8880022    1    1    2    0    0  0.40407824790E+03  0.16527604208E+03 -0.36244162533E+03  0.58766570880E+03  0.15294330000E+03 0.  0.
<mgrwt>
<rscale>  0 0.69119165E+03</rscale>
<asrwt>0</asrwt>
<pdfrwt beam="1">  1        2 0.50718782E+00 0.79019340E+03</pdfrwt>
<pdfrwt beam="2">  1       -2 0.80627512E-01 0.79019340E+03</pdfrwt>
<totfact> 0.16268030E+00</totfact>
</mgrwt>
</event>
<event>
 4    1  0.6502538E-008  0.7129397E+03  0.7818608E-02  0.9947243E-01
          2   -1    0    0  501    0  0.00000000000E+00  0.00000000000E+00  0.90580764655E+03  0.90580764655E+03  0.25500000000E-02 0. -1.
         -2   -1    0    0    0  501 -0.00000000000E+00 -0.00000000000E+00 -0.98757239466E+03  0.98757239466E+03  0.25500000000E-02 0.  1.
    8880023    1    1    2    0    0 -0.16623866940E+03  0.21641960031E+03  0.73184258913E+03  0.10217027553E+04  0.65864270000E+03 0. -1.
    8880022    1    1    2    0    0  0.16623866940E+03 -0.21641960031E+03 -0.81360733724E+03  0.87167728594E+03  0.15294330000E+03 0.  0.
<mgrwt>
<rscale>  0 0.58025336E+03</rscale>
<asrwt>0</asrwt>
<pdfrwt beam="1">  1        2 0.13935502E+00 0.71293965E+03</pdfrwt>
<pdfrwt beam="2">  1       -2 0.15193421E+00 0.71293965E+03</pdfrwt>
<totfact> 0.86004767E+00</totfact>
</mgrwt>
</event>
<event>
 4    1  0.6502538E-008  0.6783997E+03  0.7818608E-02  0.1010244E+00
         -2   -1    0    0    0  501 -0.00000000000E+00  0.00000000000E+00  0.14378176699E+03  0.14378176701E+03  0.25500000000E-02 0.  1.
          2   -1    0    0  501    0  0.00000000000E+00 -0.00000000000E+00 -0.29026993638E+04  0.29026993638E+04  0.25500000000E-02 0. -1.
    8880023    1    1    2    0    0  0.14736013219E+03 -0.68563672680E+02 -0.27397411198E+04  0.28224825235E+04  0.65864270000E+03 0. -1.
    8880022    1    1    2    0    0 -0.14736013219E+03  0.68563672680E+02 -0.19176476972E+02  0.22399860726E+03  0.15294330000E+03 0.  0.
<mgrwt>
<rscale>  0 0.51377887E+03</rscale>
<asrwt>0</asrwt>
<pdfrwt beam="1">  1        2 0.44656909E+00 0.67839973E+03</pdfrwt>
<pdfrwt beam="2">  1       -2 0.22120274E-01 0.67839973E+03</pdfrwt>
<totfact> 0.38071608E+01</totfact>
</mgrwt>
</event>
<event>
 4    1  0.6502538E-008  0.7501749E+03  0.7818608E-02  0.9831242E-01
          2   -1    0    0  501    0  0.00000000000E+00  0.00000000000E+00  0.25587554725E+04  0.25587554725E+04  0.25500000000E-02 0. -1.
         -2   -1    0    0    0  501 -0.00000000000E+00 -0.00000000000E+00 -0.19427965320E+03  0.19427965322E+03  0.25500000000E-02 0.  1.
    8880023    1    1    2    0    0 -0.19370255547E+03  0.30237631986E+03  0.22089860837E+04  0.23328913055E+04  0.65864270000E+03 0. -1.
    8880022    1    1    2    0    0  0.19370255547E+03 -0.30237631986E+03  0.15548973557E+03  0.42014382024E+03  0.15294330000E+03 0.  0.
<mgrwt>
<rscale>  0 0.63712547E+03</rscale>
<asrwt>0</asrwt>
<pdfrwt beam="1">  1        2 0.39365469E+00 0.75017486E+03</pdfrwt>
<pdfrwt beam="2">  1       -2 0.29889178E-01 0.75017486E+03</pdfrwt>
<totfact> 0.34675771E+01</totfact>
</mgrwt>
</event>
<event>
 4    1  0.6502538E-008  0.7184886E+03  0.7818608E-02  0.9927733E-01
         -2   -1    0    0    0  501 -0.00000000000E+00  0.00000000000E+00  0.51986320290E+03  0.51986320290E+03  0.25500000000E-02 0.  1.
          2   -1    0    0  501    0  0.00000000000E+00 -0.00000000000E+00 -0.18390389524E+04  0.18390389524E+04  0.25500000000E-02 0. -1.
    8880023    1    1    2    0    0  0.26332803308E+03 -0.11434192499E+03 -0.17074023169E+04  0.18524169635E+04  0.65864270000E+03 0.  0.
    8880022    1    1    2    0    0 -0.26332803308E+03  0.11434192499E+03  0.38822656740E+03  0.50648519175E+03  0.15294330000E+03 0.  0.
<mgrwt>
<rscale>  0 0.58935833E+03</rscale>
<asrwt>0</asrwt>
<pdfrwt beam="1">  1        2 0.28292907E+00 0.71848865E+03</pdfrwt>
<pdfrwt beam="2">  1       -2 0.79978955E-01 0.71848865E+03</pdfrwt>
<totfact> 0.11764811E+01</totfact>
</mgrwt>
</event>
<event>
 4    1  0.6502538E-008  0.9534026E+03  0.7818608E-02  0.9445235E-01
         -2   -1    0    0    0  501 -0.00000000000E+00  0.00000000000E+00  0.14016538524E+04  0.14016538524E+04  0.25500000000E-02 0.  1.
          2   -1    0    0  501    0  0.00000000000E+00 -0.00000000000E+00 -0.30927345420E+04  0.30927345420E+04  0.25500000000E-02 0. -1.
    8880023    1    1    2    0    0 -0.60451609865E+02 -0.68666719182E+03 -0.29229488629E+04  0.30745091464E+04  0.65864270000E+03 0.  0.
    8880022    1    1    2    0    0  0.60451609865E+02  0.68666719182E+03  0.12318681734E+04  0.14198792481E+04  0.15294330000E+03 0.  0.
<mgrwt>
<rscale>  0 0.88444673E+03</rscale>
<asrwt>0</asrwt>
<pdfrwt beam="1">  1        2 0.47580531E+00 0.95340256E+03</pdfrwt>
<pdfrwt beam="2">  1       -2 0.21563906E+00 0.95340256E+03</pdfrwt>
<totfact> 0.16521289E-01</totfact>
</mgrwt>
</event>
<event>
 4    1  0.6502538E-008  0.7484712E+03  0.7818608E-02  0.9835924E-01
          2   -1    0    0  501    0  0.00000000000E+00  0.00000000000E+00  0.20031580387E+04  0.20031580387E+04  0.25500000000E-02 0. -1.
         -2   -1    0    0    0  501 -0.00000000000E+00 -0.00000000000E+00 -0.48285044412E+03  0.48285044413E+03  0.25500000000E-02 0.  1.
    8880023    1    1    2    0    0  0.10519874868E+03  0.33960595808E+03  0.18384716746E+04  0.19849905008E+04  0.65864270000E+03 0.  0.
    8880022    1    1    2    0    0 -0.10519874868E+03 -0.33960595808E+03 -0.31816408005E+03  0.50101798205E+03  0.15294330000E+03 0.  0.
<mgrwt>
<rscale>  0 0.63469769E+03</rscale>
<asrwt>0</asrwt>
<pdfrwt beam="1">  1        2 0.30817815E+00 0.74847124E+03</pdfrwt>
<pdfrwt beam="2">  1       -2 0.74284685E-01 0.74847124E+03</pdfrwt>
<totfact> 0.11239626E+01</totfact>
</mgrwt>
</event>
<event>
 4    1  0.6502538E-008  0.1291569E+04  0.7818608E-02  0.9072875E-01
         -2   -1    0    0    0  501 -0.00000000000E+00  0.00000000000E+00  0.19325283604E+04  0.19325283604E+04  0.25500000000E-02 0.  1.
          2   -1    0    0  501    0  0.00000000000E+00 -0.00000000000E+00 -0.14360992944E+04  0.14360992944E+04  0.25500000000E-02 0. -1.
    8880023    1    1    2    0    0  0.11038181318E+04  0.12619586322E+03 -0.90251107083E+03  0.15756510728E+04  0.65864270000E+03 0.  0.
    8880022    1    1    2    0    0 -0.11038181318E+04 -0.12619586322E+03  0.13989401368E+04  0.17929765819E+04  0.15294330000E+03 0.  0.
<mgrwt>
<rscale>  0 0.12467709E+04</rscale>
<asrwt>0</asrwt>
<pdfrwt beam="1">  1        2 0.22093836E+00 0.12915688E+04</pdfrwt>
<pdfrwt beam="2">  1       -2 0.29731205E+00 0.12915688E+04</pdfrwt>
<totfact> 0.43915310E-01</totfact>
</mgrwt>
</event>
<event>
 4    1  0.6502538E-008  0.1123670E+04  0.7818608E-02  0.9235149E-01
         -2   -1    0    0    0  501 -0.00000000000E+00  0.00000000000E+00  0.10759321501E+04  0.10759321501E+04  0.25500000000E-02 0.  1.
          2   -1    0    0  501    0  0.00000000000E+00 -0.00000000000E+00 -0.23280085624E+04  0.23280085624E+04  0.25500000000E-02 0. -1.
    8880023    1    1    2    0    0 -0.90055612652E+03 -0.13350447234E+03 -0.19473226580E+04  0.22482661145E+04  0.65864270000E+03 0. -1.
    8880022    1    1    2    0    0  0.90055612652E+03  0.13350447234E+03  0.69524624572E+03  0.11556745980E+04  0.15294330000E+03 0.  0.
<mgrwt>
<rscale>  0 0.10697885E+04</rscale>
<asrwt>0</asrwt>
<pdfrwt beam="1">  1        2 0.35815516E+00 0.11236703E+04</pdfrwt>
<pdfrwt beam="2">  1       -2 0.16552802E+00 0.11236703E+04</pdfrwt>
<totfact> 0.98765887E-01</totfact>
</mgrwt>
</event>
<event>
 4    1  0.6502538E-008  0.1560965E+04  0.7818608E-02  0.8867744E-01
         -2   -1    0    0    0  501 -0.00000000000E+00  0.00000000000E+00  0.15283815065E+04  0.15283815065E+04  0.25500000000E-02 0.  1.
          2   -1    0    0  501    0  0.00000000000E+00 -0.00000000000E+00 -0.17044439927E+04  0.17044439927E+04  0.25500000000E-02 0. -1.
    8880023    1    1    2    0    0  0.98606782920E+03  0.10151215240E+04 -0.70696833488E+03  0.17135973579E+04  0.65864270000E+03 0.  0.
    8880022    1    1    2    0    0 -0.98606782920E+03 -0.10151215240E+04  0.53090584861E+03  0.15192281413E+04  0.15294330000E+03 0.  0.
<mgrwt>
<rscale>  0 0.15253868E+04</rscale>
<asrwt>0</asrwt>
<pdfrwt beam="1">  1        2 0.26222215E+00 0.15609650E+04</pdfrwt>
<pdfrwt beam="2">  1       -2 0.23513562E+00 0.15609650E+04</pdfrwt>
<totfact> 0.72291991E-01</totfact>
</mgrwt>
</event>
<event>
 4    1  0.6502538E-008  0.9099855E+03  0.7818608E-02  0.9510188E-01
         -2   -1    0    0    0  501 -0.00000000000E+00  0.00000000000E+00  0.29808018002E+03  0.29808018003E+03  0.25500000000E-02 0.  1.
          2   -1    0    0  501    0  0.00000000000E+00 -0.00000000000E+00 -0.31299385620E+04  0.31299385620E+04  0.25500000000E-02 0. -1.
    8880023    1    1    2    0    0 -0.61265818956E+03  0.13752569157E+03 -0.25776441323E+04  0.27335549843E+04  0.65864270000E+03 0.  0.
    8880022    1    1    2    0    0  0.61265818956E+03 -0.13752569157E+03 -0.25421424971E+03  0.69446375777E+03  0.15294330000E+03 0.  0.
<mgrwt>
<rscale>  0 0.83536844E+03</rscale>
<asrwt>0</asrwt>
<pdfrwt beam="1">  1        2 0.48152899E+00 0.90998548E+03</pdfrwt>
<pdfrwt beam="2">  1       -2 0.45858491E-01 0.90998548E+03</pdfrwt>
<totfact> 0.67528038E+00</totfact>
</mgrwt>
</event>
<event>
 4    1  0.6502538E-008  0.1048742E+04  0.7818608E-02  0.9320395E-01
         -2   -1    0    0    0  501 -0.00000000000E+00  0.00000000000E+00  0.24407246892E+04  0.24407246892E+04  0.25500000000E-02 0.  1.
          2   -1    0    0  501    0  0.00000000000E+00 -0.00000000000E+00 -0.87788282704E+03  0.87788282705E+03  0.25500000000E-02 0. -1.
    8880023    1    1    2    0    0  0.58361615513E+03  0.57047536791E+03 -0.45001500110E+03  0.11412158733E+04  0.65864270000E+03 0.  0.
    8880022    1    1    2    0    0 -0.58361615513E+03 -0.57047536791E+03  0.20128568633E+04  0.21773916430E+04  0.15294330000E+03 0.  0.
<mgrwt>
<rscale>  0 0.98926750E+03</rscale>
<asrwt>0</asrwt>
<pdfrwt beam="1">  1        2 0.13505890E+00 0.10487422E+04</pdfrwt>
<pdfrwt beam="2">  1       -2 0.37549610E+00 0.10487422E+04</pdfrwt>
<totfact> 0.32730301E-01</totfact>
</mgrwt>
</event>
<event>
 4    1  0.6502538E-008  0.7531525E+03  0.7818608E-02  0.9823169E-01
          2   -1    0    0  501    0  0.00000000000E+00  0.00000000000E+00  0.72781045623E+03  0.72781045623E+03  0.25500000000E-02 0. -1.
         -2   -1    0    0    0  501 -0.00000000000E+00 -0.00000000000E+00 -0.49434093779E+03  0.49434093780E+03  0.25500000000E-02 0.  1.
    8880023    1    1    2    0    0  0.10738674013E+03  0.34913684750E+03  0.31748119385E+03  0.81733283609E+03  0.65864270000E+03 0.  0.
    8880022    1    1    2    0    0 -0.10738674013E+03 -0.34913684750E+03 -0.84011675414E+02  0.40481855795E+03  0.15294330000E+03 0.  0.
<mgrwt>
<rscale>  0 0.64133863E+03</rscale>
<asrwt>0</asrwt>
<pdfrwt beam="1">  1        2 0.11197084E+00 0.75315248E+03</pdfrwt>
<pdfrwt beam="2">  1       -2 0.76052452E-01 0.75315248E+03</pdfrwt>
<totfact> 0.61115439E+01</totfact>
</mgrwt>
</event>
<event>
 4    1  0.6502538E-008  0.8672882E+03  0.7818608E-02  0.9580728E-01
          2   -1    0    0  501    0  0.00000000000E+00  0.00000000000E+00  0.16001554572E+04  0.16001554572E+04  0.25500000000E-02 0. -1.
         -2   -1    0    0    0  501 -0.00000000000E+00 -0.00000000000E+00 -0.10812935674E+04  0.10812935674E+04  0.25500000000E-02 0.  1.
    8880023    1    1    2    0    0 -0.47412478400E+03 -0.30591563015E+03  0.13863939955E+04  0.16353217422E+04  0.65864270000E+03 0. -1.
    8880022    1    1    2    0    0  0.47412478400E+03  0.30591563015E+03 -0.86753210563E+03  0.10461272824E+04  0.15294330000E+03 0.  0.
<mgrwt>
<rscale>  0 0.78584951E+03</rscale>
<asrwt>0</asrwt>
<pdfrwt beam="1">  1        2 0.24617776E+00 0.86728824E+03</pdfrwt>
<pdfrwt beam="2">  1       -2 0.16635286E+00 0.86728824E+03</pdfrwt>
<totfact> 0.25521241E+00</totfact>
</mgrwt>
</event>
<event>
 4    1  0.6502538E-008  0.1139103E+04  0.7818608E-02  0.9218720E-01
          2   -1    0    0  501    0  0.00000000000E+00  0.00000000000E+00  0.32915030004E+04  0.32915030004E+04  0.25500000000E-02 0. -1.
         -2   -1    0    0    0  501 -0.00000000000E+00 -0.00000000000E+00 -0.64306376205E+03  0.64306376205E+03  0.25500000000E-02 0.  1.
    8880023    1    1    2    0    0 -0.92800639296E+03 -0.50491748324E+02  0.27602664172E+04  0.29860720323E+04  0.65864270000E+03 0.  0.
    8880022    1    1    2    0    0  0.92800639296E+03  0.50491748324E+02 -0.11182717891E+03  0.94849473008E+03  0.15294330000E+03 0.  0.
<mgrwt>
<rscale>  0 0.10862282E+04</rscale>
<asrwt>0</asrwt>
<pdfrwt beam="1">  1        2 0.50638508E+00 0.11391029E+04</pdfrwt>
<pdfrwt beam="2">  1       -2 0.98932885E-01 0.11391029E+04</pdfrwt>
<totfact> 0.96084647E-01</totfact>
</mgrwt>
</event>
<event>
 4    1  0.6502538E-008  0.8208047E+03  0.7818608E-02  0.9667496E-01
          2   -1    0    0  501    0  0.00000000000E+00  0.00000000000E+00  0.22913843917E+04  0.22913843917E+04  0.25500000000E-02 0. -1.
         -2   -1    0    0    0  501 -0.00000000000E+00 -0.00000000000E+00 -0.25914178847E+03  0.25914178848E+03  0.25500000000E-02 0.  1.
    8880023    1    1    2    0    0  0.32891691556E+02 -0.48870063333E+03  0.18175492274E+04  0.19942932514E+04  0.65864270000E+03 0.  0.
    8880022    1    1    2    0    0 -0.32891691556E+02  0.48870063333E+03  0.21469337582E+03  0.55623292875E+03  0.15294330000E+03 0.  0.
<mgrwt>
<rscale>  0 0.72985505E+03</rscale>
<asrwt>0</asrwt>
<pdfrwt beam="1">  1        2 0.35252068E+00 0.82080471E+03</pdfrwt>
<pdfrwt beam="2">  1       -2 0.39867967E-01 0.82080471E+03</pdfrwt>
<totfact> 0.28090487E+01</totfact>
</mgrwt>
</event>
<event>
 4    1  0.6502538E-008  0.6642740E+03  0.7818608E-02  0.1020150E+00
         -2   -1    0    0    0  501 -0.00000000000E+00  0.00000000000E+00  0.99483345621E+02  0.99483345654E+02  0.25500000000E-02 0.  1.
          2   -1    0    0  501    0  0.00000000000E+00 -0.00000000000E+00 -0.21339715122E+04  0.21339715122E+04  0.25500000000E-02 0. -1.
    8880023    1    1    2    0    0 -0.71353235271E+02  0.48564345693E+02 -0.18984501918E+04  0.20113112929E+04  0.65864270000E+03 0. -1.
    8880022    1    1    2    0    0  0.71353235271E+02 -0.48564345693E+02 -0.13603797473E+03  0.22214356493E+03  0.15294330000E+03 0.  0.
<mgrwt>
<rscale>  0 0.47632379E+03</rscale>
<asrwt>0</asrwt>
<pdfrwt beam="1">  1        2 0.32830327E+00 0.66427403E+03</pdfrwt>
<pdfrwt beam="2">  1       -2 0.15305132E-01 0.66427403E+03</pdfrwt>
<totfact> 0.19728583E+02</totfact>
</mgrwt>
</event>
<event>
 4    1  0.6502538E-008  0.8309470E+03  0.7818608E-02  0.9647493E-01
         -2   -1    0    0    0  501 -0.00000000000E+00  0.00000000000E+00  0.44932123473E+03  0.44932123474E+03  0.25500000000E-02 0.  1.
          2   -1    0    0  501    0  0.00000000000E+00 -0.00000000000E+00 -0.23669070432E+04  0.23669070432E+04  0.25500000000E-02 0. -1.
    8880023    1    1    2    0    0 -0.14015290784E+03  0.48684681414E+03 -0.20984434702E+04  0.22569753791E+04  0.65864270000E+03 0. -1.
    8880022    1    1    2    0    0  0.14015290784E+03 -0.48684681414E+03  0.18085766175E+03  0.55925289882E+03  0.15294330000E+03 0.  0.
<mgrwt>
<rscale>  0 0.74230992E+03</rscale>
<asrwt>0</asrwt>
<pdfrwt beam="1">  1        2 0.36413954E+00 0.83094697E+03</pdfrwt>
<pdfrwt beam="2">  1       -2 0.69126345E-01 0.83094697E+03</pdfrwt>
<totfact> 0.81882379E+00</totfact>
</mgrwt>
</event>
<event>
 4    1  0.6502538E-008  0.6649930E+03  0.7818608E-02  0.1019539E+00
          2   -1    0    0  501    0  0.00000000000E+00  0.00000000000E+00  0.13373498285E+04  0.13373498285E+04  0.25500000000E-02 0. -1.
         -2   -1    0    0    0  501 -0.00000000000E+00 -0.00000000000E+00 -0.14928673118E+03  0.14928673120E+03  0.25500000000E-02 0.  1.
    8880023    1    1    2    0    0 -0.88239585296E+02 -0.24884392689E+02  0.11055855178E+04  0.12901685940E+04  0.65864270000E+03 0. -1.
    8880022    1    1    2    0    0  0.88239585296E+02  0.24884392689E+02  0.82477579475E+02  0.19646796569E+03  0.15294330000E+03 0.  0.
<mgrwt>
<rscale>  0 0.47853229E+03</rscale>
<asrwt>0</asrwt>
<pdfrwt beam="1">  1        2 0.20574613E+00 0.66499298E+03</pdfrwt>
<pdfrwt beam="2">  1       -2 0.22967189E-01 0.66499298E+03</pdfrwt>
<totfact> 0.26713599E+02</totfact>
</mgrwt>
</event>
<event>
 4    1  0.6502538E-008  0.8367302E+03  0.7818608E-02  0.9636377E-01
          2   -1    0    0  501    0  0.00000000000E+00  0.00000000000E+00  0.21557843594E+04  0.21557843594E+04  0.25500000000E-02 0. -1.
         -2   -1    0    0    0  501 -0.00000000000E+00 -0.00000000000E+00 -0.29840014296E+03  0.29840014297E+03  0.25500000000E-02 0.  1.
    8880023    1    1    2    0    0 -0.27073708779E+03  0.43932751587E+03  0.16978018108E+04  0.18927885333E+04  0.65864270000E+03 0.  0.
    8880022    1    1    2    0    0  0.27073708779E+03 -0.43932751587E+03  0.15958240570E+03  0.56139596910E+03  0.15294330000E+03 0.  0.
<mgrwt>
<rscale>  0 0.74934608E+03</rscale>
<asrwt>0</asrwt>
<pdfrwt beam="1">  1        2 0.33165914E+00 0.83673021E+03</pdfrwt>
<pdfrwt beam="2">  1       -2 0.45907713E-01 0.83673021E+03</pdfrwt>
<totfact> 0.25213146E+01</totfact>
</mgrwt>
</event>
<event>
 4    1  0.6502538E-008  0.7339045E+03  0.7818608E-02  0.9878072E-01
          2   -1    0    0  501    0  0.00000000000E+00  0.00000000000E+00  0.24458393850E+04  0.24458393850E+04  0.25500000000E-02 0. -1.
         -2   -1    0    0    0  501 -0.00000000000E+00 -0.00000000000E+00 -0.14290612934E+03  0.14290612936E+03  0.25500000000E-02 0.  1.
    8880023    1    1    2    0    0 -0.32263213435E+03  0.26724127358E+02  0.19602703685E+04  0.20931497312E+04  0.65864270000E+03 0. -1.
    8880022    1    1    2    0    0  0.32263213435E+03 -0.26724127358E+02  0.34266288718E+03  0.49559578324E+03  0.15294330000E+03 0.  0.
<mgrwt>
<rscale>  0 0.61335873E+03</rscale>
<asrwt>0</asrwt>
<pdfrwt beam="1">  1        2 0.37628296E+00 0.73390454E+03</pdfrwt>
<pdfrwt beam="2">  1       -2 0.21985560E-01 0.73390454E+03</pdfrwt>
<totfact> 0.70246057E+01</totfact>
</mgrwt>
</event>
<event>
 4    1  0.6502538E-008  0.6784939E+03  0.7818608E-02  0.1010189E+00
          2   -1    0    0  501    0  0.00000000000E+00  0.00000000000E+00  0.12941682094E+04  0.12941682094E+04  0.25500000000E-02 0. -1.
         -2   -1    0    0    0  501 -0.00000000000E+00 -0.00000000000E+00 -0.81802089130E+03  0.81802089130E+03  0.25500000000E-02 0.  1.
    8880023    1    1    2    0    0 -0.14330231338E+02  0.16229105865E+03  0.11868948001E+04  0.13671405254E+04  0.65864270000E+03 0. -1.
    8880022    1    1    2    0    0  0.14330231338E+02 -0.16229105865E+03 -0.71074748208E+03  0.74504857529E+03  0.15294330000E+03 0.  0.
<mgrwt>
<rscale>  0 0.51399692E+03</rscale>
<asrwt>0</asrwt>
<pdfrwt beam="1">  1        2 0.19910280E+00 0.67849388E+03</pdfrwt>
<pdfrwt beam="2">  1       -2 0.12584937E+00 0.67849388E+03</pdfrwt>
<totfact> 0.81045569E+00</totfact>
</mgrwt>
</event>
<event>
 4    1  0.6502538E-008  0.9951713E+03  0.7818608E-02  0.9387903E-01
          2   -1    0    0  501    0  0.00000000000E+00  0.00000000000E+00  0.24152898763E+04  0.24152898763E+04  0.25500000000E-02 0. -1.
         -2   -1    0    0    0  501 -0.00000000000E+00 -0.00000000000E+00 -0.50600991871E+03  0.50600991872E+03  0.25500000000E-02 0.  1.
    8880023    1    1    2    0    0 -0.27359872679E+03 -0.69404570406E+03  0.19167747126E+04  0.21597201688E+04  0.65864270000E+03 0.  0.
    8880022    1    1    2    0    0  0.27359872679E+03  0.69404570406E+03 -0.74947550045E+01  0.76157962617E+03  0.15294330000E+03 0.  0.
<mgrwt>
<rscale>  0 0.93077981E+03</rscale>
<asrwt>0</asrwt>
<pdfrwt beam="1">  1        2 0.37158305E+00 0.99517130E+03</pdfrwt>
<pdfrwt beam="2">  1       -2 0.77847682E-01 0.99517130E+03</pdfrwt>
<totfact> 0.57797305E+00</totfact>
</mgrwt>
</event>
<event>
 4    1  0.6502538E-008  0.6698986E+03  0.7818608E-02  0.1015736E+00
          2   -1    0    0  501    0  0.00000000000E+00  0.00000000000E+00  0.17189085324E+04  0.17189085324E+04  0.25500000000E-02 0. -1.
         -2   -1    0    0    0  501 -0.00000000000E+00 -0.00000000000E+00 -0.11221270522E+03  0.11221270525E+03  0.25500000000E-02 0.  1.
    8880023    1    1    2    0    0  0.10433059551E+03  0.63788703820E+02  0.11003469838E+04  0.12882265185E+04  0.65864270000E+03 0.  1.
    8880022    1    1    2    0    0 -0.10433059551E+03 -0.63788703820E+02  0.50634884330E+03  0.54289471909E+03  0.15294330000E+03 0. -1.
<mgrwt>
<rscale>  0 0.49257358E+03</rscale>
<asrwt>0</asrwt>
<pdfrwt beam="1">  1        2 0.26444744E+00 0.66989856E+03</pdfrwt>
<pdfrwt beam="2">  1       -2 0.17263495E-01 0.66989856E+03</pdfrwt>
<totfact> 0.27011270E+02</totfact>
</mgrwt>
</event>
<event>
 4    1  0.8389978E-008  0.9937001E+03  0.7818608E-02  0.9389847E-01
          2   -1    0    0  501    0  0.00000000000E+00  0.00000000000E+00  0.20732505799E+04  0.20732505799E+04  0.25500000000E-02 0. -1.
         -2   -1    0    0    0  501 -0.00000000000E+00 -0.00000000000E+00 -0.24650780583E+04  0.24650780583E+04  0.25500000000E-02 0.  1.
    8880023    1    1    2    0    0 -0.72442951207E+03  0.16979876597E+03  0.18889509577E+04  0.21343794568E+04  0.65864270000E+03 0. -1.
    8880022    1    1    2    0    0  0.72442951207E+03 -0.16979876597E+03 -0.22807784361E+04  0.24039491814E+04  0.15294330000E+03 0.  0.
<mgrwt>
<rscale>  0 0.92915999E+03</rscale>
<asrwt>0</asrwt>
<pdfrwt beam="1">  1        2 0.31896163E+00 0.99370013E+03</pdfrwt>
<pdfrwt beam="2">  1       -2 0.37924278E+00 0.99370013E+03</pdfrwt>
<totfact> 0.63059719E-02</totfact>
</mgrwt>
</event>
<event>
 4    1  0.6502538E-008  0.1078133E+04  0.7818608E-02  0.9285802E-01
         -2   -1    0    0    0  501 -0.00000000000E+00  0.00000000000E+00  0.17054173416E+04  0.17054173416E+04  0.25500000000E-02 0.  1.
          2   -1    0    0  501    0  0.00000000000E+00 -0.00000000000E+00 -0.15342434213E+04  0.15342434213E+04  0.25500000000E-02 0. -1.
    8880023    1    1    2    0    0 -0.84980600493E+03 -0.79935565871E+02 -0.12025849025E+04  0.16151100875E+04  0.65864270000E+03 0. -1.
    8880022    1    1    2    0    0  0.84980600493E+03  0.79935565871E+02  0.13737588228E+04  0.16245506754E+04  0.15294330000E+03 0.  0.
<mgrwt>
<rscale>  0 0.10210051E+04</rscale>
<asrwt>0</asrwt>
<pdfrwt beam="1">  1        2 0.23603745E+00 0.10781327E+04</pdfrwt>
<pdfrwt beam="2">  1       -2 0.26237190E+00 0.10781327E+04</pdfrwt>
<totfact> 0.64763986E-01</totfact>
</mgrwt>
</event>
<event>
 4    1  0.6502538E-008  0.1010099E+04  0.7818608E-02  0.9368462E-01
          2   -1    0    0  501    0  0.00000000000E+00  0.00000000000E+00  0.36517899683E+04  0.36517899683E+04  0.25500000000E-02 0. -1.
         -2   -1    0    0    0  501 -0.00000000000E+00 -0.00000000000E+00 -0.26044561942E+03  0.26044561943E+03  0.25500000000E-02 0.  1.
    8880023    1    1    2    0    0 -0.13895361298E+03 -0.75311525811E+03  0.26478142587E+04  0.28339409404E+04  0.65864270000E+03 0. -1.
    8880022    1    1    2    0    0  0.13895361298E+03  0.75311525811E+03  0.74353009021E+03  0.10782946474E+04  0.15294330000E+03 0.  0.
<mgrwt>
<rscale>  0 0.94717202E+03</rscale>
<asrwt>0</asrwt>
<pdfrwt beam="1">  1        2 0.56181378E+00 0.10100995E+04</pdfrwt>
<pdfrwt beam="2">  1       -2 0.40068561E-01 0.10100995E+04</pdfrwt>
<totfact> 0.38832980E+00</totfact>
</mgrwt>
</event>
<event>
 4    1  0.6502538E-008  0.9728683E+03  0.7818608E-02  0.9417948E-01
         -2   -1    0    0    0  501 -0.00000000000E+00  0.00000000000E+00  0.75230311139E+03  0.75230311139E+03  0.25500000000E-02 0.  1.
          2   -1    0    0  501    0  0.00000000000E+00 -0.00000000000E+00 -0.14118562097E+04  0.14118562097E+04  0.25500000000E-02 0. -1.
    8880023    1    1    2    0    0 -0.82485210636E+02  0.71123740523E+03 -0.96550586318E+03  0.13706473779E+04  0.65864270000E+03 0.  0.
    8880022    1    1    2    0    0  0.82485210636E+02 -0.71123740523E+03  0.30595276487E+03  0.79351194315E+03  0.15294330000E+03 0.  0.
<mgrwt>
<rscale>  0 0.90613229E+03</rscale>
<asrwt>0</asrwt>
<pdfrwt beam="1">  1        2 0.21720865E+00 0.97286827E+03</pdfrwt>
<pdfrwt beam="2">  1       -2 0.11573894E+00 0.97286827E+03</pdfrwt>
<totfact> 0.82412184E+00</totfact>
</mgrwt>
</event>
<event>
 4    1  0.6502538E-008  0.1279182E+04  0.7818608E-02  0.9083750E-01
          2   -1    0    0  501    0  0.00000000000E+00  0.00000000000E+00  0.70877704577E+03  0.70877704578E+03  0.25500000000E-02 0. -1.
         -2   -1    0    0    0  501 -0.00000000000E+00 -0.00000000000E+00 -0.34047621026E+04  0.34047621026E+04  0.25500000000E-02 0.  1.
    8880023    1    1    2    0    0  0.42005305320E+03  0.10129415722E+04 -0.27203262146E+04  0.30060738707E+04  0.65864270000E+03 0.  1.
    8880022    1    1    2    0    0 -0.42005305320E+03 -0.10129415722E+04  0.24341157751E+02  0.11074652777E+04  0.15294330000E+03 0.  0.
<mgrwt>
<rscale>  0 0.12338303E+04</rscale>
<asrwt>0</asrwt>
<pdfrwt beam="1">  1        2 0.10904262E+00 0.12791815E+04</pdfrwt>
<pdfrwt beam="2">  1       -2 0.52380954E+00 0.12791815E+04</pdfrwt>
<totfact> 0.46209899E-02</totfact>
</mgrwt>
</event>
<event>
 4    1  0.6502538E-008  0.8826564E+03  0.7818608E-02  0.9554468E-01
          2   -1    0    0  501    0  0.00000000000E+00  0.00000000000E+00  0.25752350251E+04  0.25752350251E+04  0.25500000000E-02 0. -1.
         -2   -1    0    0    0  501 -0.00000000000E+00 -0.00000000000E+00 -0.57160151214E+03  0.57160151215E+03  0.25500000000E-02 0.  1.
    8880023    1    1    2    0    0  0.37476480457E+03 -0.45257431433E+03  0.23055536723E+04  0.24687365414E+04  0.65864270000E+03 0. -1.
    8880022    1    1    2    0    0 -0.37476480457E+03  0.45257431433E+03 -0.30192015934E+03  0.67809999585E+03  0.15294330000E+03 0.  0.
<mgrwt>
<rscale>  0 0.80384550E+03</rscale>
<asrwt>0</asrwt>
<pdfrwt beam="1">  1        2 0.39619000E+00 0.88265643E+03</pdfrwt>
<pdfrwt beam="2">  1       -2 0.87938696E-01 0.88265643E+03</pdfrwt>
<totfact> 0.36085599E+00</totfact>
</mgrwt>
</event>
<event>
 4    1  0.6502538E-008  0.7787566E+03  0.7818608E-02  0.9758766E-01
          2   -1    0    0  501    0  0.00000000000E+00  0.00000000000E+00  0.11287139105E+04  0.11287139105E+04  0.25500000000E-02 0. -1.
         -2   -1    0    0    0  501 -0.00000000000E+00 -0.00000000000E+00 -0.23285338621E+04  0.23285338621E+04  0.25500000000E-02 0.  1.
    8880023    1    1    2    0    0 -0.32212480207E+03  0.26246387347E+03  0.96930860709E+03  0.12433909502E+04  0.65864270000E+03 0.  0.
    8880022    1    1    2    0    0  0.32212480207E+03 -0.26246387347E+03 -0.21691285587E+04  0.22138568224E+04  0.15294330000E+03 0.  0.
<mgrwt>
<rscale>  0 0.67623138E+03</rscale>
<asrwt>0</asrwt>
<pdfrwt beam="1">  1        2 0.17364829E+00 0.77875662E+03</pdfrwt>
<pdfrwt beam="2">  1       -2 0.35823598E+00 0.77875662E+03</pdfrwt>
<totfact> 0.30482703E-01</totfact>
</mgrwt>
</event>
<event>
 4    1  0.6502538E-008  0.1386818E+04  0.7818608E-02  0.8993994E-01
          2   -1    0    0  501    0  0.00000000000E+00  0.00000000000E+00  0.21301523629E+04  0.21301523629E+04  0.25500000000E-02 0. -1.
         -2   -1    0    0    0  501 -0.00000000000E+00 -0.00000000000E+00 -0.99117366890E+03  0.99117366890E+03  0.25500000000E-02 0.  1.
    8880023    1    1    2    0    0 -0.11614139112E+04 -0.37492969520E+03 -0.80670537723E+02  0.13891625144E+04  0.65864270000E+03 0.  1.
    8880022    1    1    2    0    0  0.11614139112E+04  0.37492969520E+03  0.12196492317E+04  0.17321635174E+04  0.15294330000E+03 0.  0.
<mgrwt>
<rscale>  0 0.13458263E+04</rscale>
<asrwt>0</asrwt>
<pdfrwt beam="1">  1        2 0.32771574E+00 0.13868182E+04</pdfrwt>
<pdfrwt beam="2">  1       -2 0.15248826E+00 0.13868182E+04</pdfrwt>
<totfact> 0.15470889E+00</totfact>
</mgrwt>
</event>
<event>
 4    1  0.6502538E-008  0.1397987E+04  0.7818608E-02  0.8985248E-01
          2   -1    0    0  501    0  0.00000000000E+00  0.00000000000E+00  0.16317060486E+04  0.16317060486E+04  0.25500000000E-02 0. -1.
         -2   -1    0    0    0  501 -0.00000000000E+00 -0.00000000000E+00 -0.12966349065E+04  0.12966349065E+04  0.25500000000E-02 0.  1.
    8880023    1    1    2    0    0  0.23090804567E+03 -0.12112966927E+04  0.78923426337E+03  0.16053844188E+04  0.65864270000E+03 0.  0.
    8880022    1    1    2    0    0 -0.23090804567E+03  0.12112966927E+04 -0.45416312127E+03  0.13229565364E+04  0.15294330000E+03 0.  0.
<mgrwt>
<rscale>  0 0.13573960E+04</rscale>
<asrwt>0</asrwt>
<pdfrwt beam="1">  1        2 0.25103170E+00 0.13979873E+04</pdfrwt>
<pdfrwt beam="2">  1       -2 0.19948229E+00 0.13979873E+04</pdfrwt>
<totfact> 0.13636638E+00</totfact>
</mgrwt>
</event>
<event>
 4    1  0.6502538E-008  0.7527897E+03  0.7818608E-02  0.9824145E-01
         -2   -1    0    0    0  501 -0.00000000000E+00  0.00000000000E+00  0.50284045613E+03  0.50284045614E+03  0.25500000000E-02 0.  1.
          2   -1    0    0  501    0  0.00000000000E+00 -0.00000000000E+00 -0.17530974136E+04  0.17530974136E+04  0.25500000000E-02 0. -1.
    8880023    1    1    2    0    0  0.36128541903E+03 -0.48527706298E+02 -0.15741434071E+04  0.17448838829E+04  0.65864270000E+03 0. -1.
    8880022    1    1    2    0    0 -0.36128541903E+03  0.48527706298E+02  0.32388644960E+03  0.51105398691E+03  0.15294330000E+03 0.  0.
<mgrwt>
<rscale>  0 0.64082728E+03</rscale>
<asrwt>0</asrwt>
<pdfrwt beam="1">  1        2 0.26970729E+00 0.75278968E+03</pdfrwt>
<pdfrwt beam="2">  1       -2 0.77360071E-01 0.75278968E+03</pdfrwt>
<totfact> 0.14050596E+01</totfact>
</mgrwt>
</event>
<event>
 4    1  0.6502538E-008  0.1541425E+04  0.7818608E-02  0.8880925E-01
         -2   -1    0    0    0  501 -0.00000000000E+00  0.00000000000E+00  0.81393414727E+03  0.81393414727E+03  0.25500000000E-02 0.  1.
          2   -1    0    0  501    0  0.00000000000E+00 -0.00000000000E+00 -0.31906227268E+04  0.31906227268E+04  0.25500000000E-02 0. -1.
    8880023    1    1    2    0    0 -0.13812749809E+04  0.18509323795E+03 -0.42032403447E+03  0.15977054109E+04  0.65864270000E+03 0.  0.
    8880022    1    1    2    0    0  0.13812749809E+04 -0.18509323795E+03 -0.19563645451E+04  0.24068514632E+04  0.15294330000E+03 0.  0.
<mgrwt>
<rscale>  0 0.15053166E+04</rscale>
<asrwt>0</asrwt>
<pdfrwt beam="1">  1        2 0.49086503E+00 0.15414248E+04</pdfrwt>
<pdfrwt beam="2">  1       -2 0.12522064E+00 0.15414248E+04</pdfrwt>
<totfact> 0.59580827E-01</totfact>
</mgrwt>
</event>
<event>
 4    1  0.6502538E-008  0.9187388E+03  0.7818608E-02  0.9496596E-01
          2   -1    0    0  501    0  0.00000000000E+00  0.00000000000E+00  0.10785529638E+04  0.10785529638E+04  0.25500000000E-02 0. -1.
         -2   -1    0    0    0  501 -0.00000000000E+00 -0.00000000000E+00 -0.15297469656E+04  0.15297469656E+04  0.25500000000E-02 0.  1.
    8880023    1    1    2    0    0 -0.38152032941E+03  0.51450268279E+03  0.78448593156E+03  0.12080973286E+04  0.65864270000E+03 0.  0.
    8880022    1    1    2    0    0  0.38152032941E+03 -0.51450268279E+03 -0.12356799334E+04  0.14002026008E+04  0.15294330000E+03 0.  0.
<mgrwt>
<rscale>  0 0.84535284E+03</rscale>
<asrwt>0</asrwt>
<pdfrwt beam="1">  1        2 0.16593123E+00 0.91873880E+03</pdfrwt>
<pdfrwt beam="2">  1       -2 0.23534569E+00 0.91873880E+03</pdfrwt>
<totfact> 0.17887638E+00</totfact>
</mgrwt>
</event>
<event>
 4    1  0.6502538E-008  0.7259321E+03  0.7818608E-02  0.9903002E-01
         -2   -1    0    0    0  501 -0.00000000000E+00  0.00000000000E+00  0.81801546108E+03  0.81801546108E+03  0.25500000000E-02 0.  1.
          2   -1    0    0  501    0  0.00000000000E+00 -0.00000000000E+00 -0.11254492469E+04  0.11254492469E+04  0.25500000000E-02 0. -1.
    8880023    1    1    2    0    0  0.52613882894E+01  0.30518777992E+03 -0.96202868127E+03  0.12051873933E+04  0.65864270000E+03 0. -1.
    8880022    1    1    2    0    0 -0.52613882894E+01 -0.30518777992E+03  0.65459489543E+03  0.73827731467E+03  0.15294330000E+03 0.  0.
<mgrwt>
<rscale>  0 0.60116018E+03</rscale>
<asrwt>0</asrwt>
<pdfrwt beam="1">  1        2 0.17314604E+00 0.72593214E+03</pdfrwt>
<pdfrwt beam="2">  1       -2 0.12584853E+00 0.72593214E+03</pdfrwt>
<totfact> 0.10123604E+01</totfact>
</mgrwt>
</event>
<event>
 4    1  0.6502538E-008  0.9082323E+03  0.7818608E-02  0.9512943E-01
         -2   -1    0    0    0  501 -0.00000000000E+00  0.00000000000E+00  0.19065292068E+04  0.19065292068E+04  0.25500000000E-02 0.  1.
          2   -1    0    0  501    0  0.00000000000E+00 -0.00000000000E+00 -0.57101967613E+03  0.57101967614E+03  0.25500000000E-02 0. -1.
    8880023    1    1    2    0    0  0.43137644764E+03  0.45275836048E+03 -0.90717276592E+02  0.91275166562E+03  0.65864270000E+03 0.  0.
    8880022    1    1    2    0    0 -0.43137644764E+03 -0.45275836048E+03  0.14262268073E+04  0.15647972173E+04  0.15294330000E+03 0.  0.
<mgrwt>
<rscale>  0 0.83336263E+03</rscale>
<asrwt>0</asrwt>
<pdfrwt beam="1">  1        2 0.87849183E-01 0.90823234E+03</pdfrwt>
<pdfrwt beam="2">  1       -2 0.29331218E+00 0.90823234E+03</pdfrwt>
<totfact> 0.18695016E+00</totfact>
</mgrwt>
</event>
<event>
 4    1  0.6502538E-008  0.1002670E+04  0.7818608E-02  0.9378073E-01
          2   -1    0    0  501    0  0.00000000000E+00  0.00000000000E+00  0.11539255178E+04  0.11539255178E+04  0.25500000000E-02 0. -1.
         -2   -1    0    0    0  501 -0.00000000000E+00 -0.00000000000E+00 -0.13491489831E+04  0.13491489831E+04  0.25500000000E-02 0.  1.
    8880023    1    1    2    0    0  0.73632624773E+03 -0.17134945227E+03  0.77237629842E+03  0.12656667533E+04  0.65864270000E+03 0.  0.
    8880022    1    1    2    0    0 -0.73632624773E+03  0.17134945227E+03 -0.96759976379E+03  0.12374077476E+04  0.15294330000E+03 0.  0.
<mgrwt>
<rscale>  0 0.93902387E+03</rscale>
<asrwt>0</asrwt>
<pdfrwt beam="1">  1        2 0.17752700E+00 0.10026700E+04</pdfrwt>
<pdfrwt beam="2">  1       -2 0.20756138E+00 0.10026700E+04</pdfrwt>
<totfact> 0.23790448E+00</totfact>
</mgrwt>
</event>
<event>
 4    1  0.6502538E-008  0.1539808E+04  0.7818608E-02  0.8882026E-01
         -2   -1    0    0    0  501 -0.00000000000E+00  0.00000000000E+00  0.18418139310E+04  0.18418139310E+04  0.25500000000E-02 0.  1.
          2   -1    0    0  501    0  0.00000000000E+00 -0.00000000000E+00 -0.26350822086E+04  0.26350822086E+04  0.25500000000E-02 0. -1.
    8880023    1    1    2    0    0 -0.91294684926E+03  0.10505840228E+04 -0.20714185570E+04  0.25810431579E+04  0.65864270000E+03 0.  0.
    8880022    1    1    2    0    0  0.91294684926E+03 -0.10505840228E+04  0.12781502793E+04  0.18958529817E+04  0.15294330000E+03 0.  0.
<mgrwt>
<rscale>  0 0.15036554E+04</rscale>
<asrwt>0</asrwt>
<pdfrwt beam="1">  1        2 0.40539726E+00 0.15398081E+04</pdfrwt>
<pdfrwt beam="2">  1       -2 0.28335599E+00 0.15398081E+04</pdfrwt>
<totfact> 0.10883176E-01</totfact>
</mgrwt>
</event>
<event>
 4    1  0.6502538E-008  0.1018484E+04  0.7818608E-02  0.9357765E-01
          2   -1    0    0  501    0  0.00000000000E+00  0.00000000000E+00  0.59701199379E+03  0.59701199379E+03  0.25500000000E-02 0. -1.
         -2   -1    0    0    0  501 -0.00000000000E+00 -0.00000000000E+00 -0.14463946540E+04  0.14463946540E+04  0.25500000000E-02 0.  1.
    8880023    1    1    2    0    0 -0.72458829094E+03  0.28012720790E+03 -0.70475007128E+03  0.12385403963E+04  0.65864270000E+03 0.  0.
    8880022    1    1    2    0    0  0.72458829094E+03 -0.28012720790E+03 -0.14463258889E+03  0.80486625147E+03  0.15294330000E+03 0.  0.
<mgrwt>
<rscale>  0 0.95634517E+03</rscale>
<asrwt>0</asrwt>
<pdfrwt beam="1">  1        2 0.91847999E-01 0.10184840E+04</pdfrwt>
<pdfrwt beam="2">  1       -2 0.22252225E+00 0.10184840E+04</pdfrwt>
<totfact> 0.47266084E+00</totfact>
</mgrwt>
</event>
<event>
 4    1  0.6502538E-008  0.9222750E+03  0.7818608E-02  0.9491180E-01
          2   -1    0    0  501    0  0.00000000000E+00  0.00000000000E+00  0.20781410830E+04  0.20781410830E+04  0.25500000000E-02 0. -1.
         -2   -1    0    0    0  501 -0.00000000000E+00 -0.00000000000E+00 -0.46507008655E+03  0.46507008656E+03  0.25500000000E-02 0.  1.
    8880023    1    1    2    0    0  0.43117431313E+03  0.48048893150E+03  0.16374401676E+04  0.18793087587E+04  0.65864270000E+03 0.  0.
    8880022    1    1    2    0    0 -0.43117431313E+03 -0.48048893150E+03 -0.24369171228E+02  0.66390241084E+03  0.15294330000E+03 0.  0.
<mgrwt>
<rscale>  0 0.84937248E+03</rscale>
<asrwt>0</asrwt>
<pdfrwt beam="1">  1        2 0.31971401E+00 0.92227496E+03</pdfrwt>
<pdfrwt beam="2">  1       -2 0.71549244E-01 0.92227496E+03</pdfrwt>
<totfact> 0.10848561E+01</totfact>
</mgrwt>
</event>
<event>
 4    1  0.6502538E-008  0.1165860E+04  0.7818608E-02  0.9191044E-01
          2   -1    0    0  501    0  0.00000000000E+00  0.00000000000E+00  0.33502077050E+04  0.33502077050E+04  0.25500000000E-02 0. -1.
         -2   -1    0    0    0  501 -0.00000000000E+00 -0.00000000000E+00 -0.64198395556E+03  0.64198395556E+03  0.25500000000E-02 0.  1.
    8880023    1    1    2    0    0  0.67897012215E+03 -0.68148356101E+03  0.27809147887E+04  0.30154133280E+04  0.65864270000E+03 0. -1.
    8880022    1    1    2    0    0 -0.67897012215E+03  0.68148356101E+03 -0.72691039236E+02  0.97677833253E+03  0.15294330000E+03 0.  0.
<mgrwt>
<rscale>  0 0.11146344E+04</rscale>
<asrwt>0</asrwt>
<pdfrwt beam="1">  1        2 0.51541658E+00 0.11658604E+04</pdfrwt>
<pdfrwt beam="2">  1       -2 0.98766761E-01 0.11658604E+04</pdfrwt>
<totfact> 0.87873223E-01</totfact>
</mgrwt>
</event>
<event>
 4    1  0.6502538E-008  0.8074965E+03  0.7818608E-02  0.9694815E-01
         -2   -1    0    0    0  501 -0.00000000000E+00  0.00000000000E+00  0.48994375116E+03  0.48994375117E+03  0.25500000000E-02 0.  1.
          2   -1    0    0  501    0  0.00000000000E+00 -0.00000000000E+00 -0.33779231875E+04  0.33779231875E+04  0.25500000000E-02 0. -1.
    8880023    1    1    2    0    0  0.24560362703E+03 -0.39739061917E+03 -0.31902150891E+04  0.32908240559E+04  0.65864270000E+03 0.  0.
    8880022    1    1    2    0    0 -0.24560362703E+03  0.39739061917E+03  0.30223565273E+03  0.57704288281E+03  0.15294330000E+03 0.  1.
<mgrwt>
<rscale>  0 0.71326322E+03</rscale>
<asrwt>0</asrwt>
<pdfrwt beam="1">  1        2 0.51968048E+00 0.80749653E+03</pdfrwt>
<pdfrwt beam="2">  1       -2 0.75375964E-01 0.80749653E+03</pdfrwt>
<totfact> 0.16666531E+00</totfact>
</mgrwt>
</event>
<event>
 4    1  0.6502538E-008  0.8822595E+03  0.7818608E-02  0.9555133E-01
         -2   -1    0    0    0  501 -0.00000000000E+00  0.00000000000E+00  0.20222916026E+04  0.20222916026E+04  0.25500000000E-02 0.  1.
          2   -1    0    0  501    0  0.00000000000E+00 -0.00000000000E+00 -0.52075172084E+03  0.52075172084E+03  0.25500000000E-02 0. -1.
    8880023    1    1    2    0    0 -0.49869816016E+03 -0.30963157056E+03 -0.43356402098E+02  0.88332414679E+03  0.65864270000E+03 0. -1.
    8880022    1    1    2    0    0  0.49869816016E+03  0.30963157056E+03  0.15448962838E+04  0.16597191766E+04  0.15294330000E+03 0.  0.
<mgrwt>
<rscale>  0 0.80338330E+03</rscale>
<asrwt>0</asrwt>
<pdfrwt beam="1">  1        2 0.80115650E-01 0.88225947E+03</pdfrwt>
<pdfrwt beam="2">  1       -2 0.31112178E+00 0.88225947E+03</pdfrwt>
<totfact> 0.16330982E+00</totfact>
</mgrwt>
</event>
<event>
 4    1  0.6502538E-008  0.7582492E+03  0.7818608E-02  0.9809661E-01
          2   -1    0    0  501    0  0.00000000000E+00  0.00000000000E+00  0.91660247265E+03  0.91660247265E+03  0.25500000000E-02 0. -1.
         -2   -1    0    0    0  501 -0.00000000000E+00 -0.00000000000E+00 -0.10110910132E+04  0.10110910133E+04  0.25500000000E-02 0.  1.
    8880023    1    1    2    0    0  0.37234911255E+03 -0.49876924056E+02  0.70235269627E+03  0.10335574901E+04  0.65864270000E+03 0.  0.
    8880022    1    1    2    0    0 -0.37234911255E+03  0.49876924056E+02 -0.79684123687E+03  0.89413599578E+03  0.15294330000E+03 0.  0.
<mgrwt>
<rscale>  0 0.64846621E+03</rscale>
<asrwt>0</asrwt>
<pdfrwt beam="1">  1        2 0.14101576E+00 0.75824915E+03</pdfrwt>
<pdfrwt beam="2">  1       -2 0.15555246E+00 0.75824915E+03</pdfrwt>
<totfact> 0.79004758E+00</totfact>
</mgrwt>
</event>
<event>
 4    1  0.6502538E-008  0.1141510E+04  0.7818608E-02  0.9216189E-01
          2   -1    0    0  501    0  0.00000000000E+00  0.00000000000E+00  0.41369203238E+04  0.41369203238E+04  0.25500000000E-02 0. -1.
         -2   -1    0    0    0  501 -0.00000000000E+00 -0.00000000000E+00 -0.39282780223E+03  0.39282780224E+03  0.25500000000E-02 0.  1.
    8880023    1    1    2    0    0  0.69407218712E+03 -0.62249360261E+03  0.32882265016E+04  0.34807295526E+04  0.65864270000E+03 0.  0.
    8880022    1    1    2    0    0 -0.69407218712E+03  0.62249360261E+03  0.45586601995E+03  0.10490185734E+04  0.15294330000E+03 0.  0.
<mgrwt>
<rscale>  0 0.10887883E+04</rscale>
<asrwt>0</asrwt>
<pdfrwt beam="1">  1        2 0.63644935E+00 0.11415098E+04</pdfrwt>
<pdfrwt beam="2">  1       -2 0.60435040E-01 0.11415098E+04</pdfrwt>
<totfact> 0.69441024E-01</totfact>
</mgrwt>
</event>
<event>
 4    1  0.6502538E-008  0.8301342E+03  0.7818608E-02  0.9649071E-01
          2   -1    0    0  501    0  0.00000000000E+00  0.00000000000E+00  0.28241162577E+04  0.28241162577E+04  0.25500000000E-02 0. -1.
         -2   -1    0    0    0  501 -0.00000000000E+00 -0.00000000000E+00 -0.17665290907E+03  0.17665290909E+03  0.25500000000E-02 0.  1.
    8880023    1    1    2    0    0 -0.50262373231E+03  0.51787873575E+02  0.19994544165E+04  0.21649343570E+04  0.65864270000E+03 0.  0.
    8880022    1    1    2    0    0  0.50262373231E+03 -0.51787873575E+02  0.64800893211E+03  0.83583480978E+03  0.15294330000E+03 0.  0.
<mgrwt>
<rscale>  0 0.74131738E+03</rscale>
<asrwt>0</asrwt>
<pdfrwt beam="1">  1        2 0.43447943E+00 0.83013421E+03</pdfrwt>
<pdfrwt beam="2">  1       -2 0.27177370E-01 0.83013421E+03</pdfrwt>
<totfact> 0.28622008E+01</totfact>
</mgrwt>
</event>
<event>
 4    1  0.6502538E-008  0.1301949E+04  0.7818608E-02  0.9063878E-01
         -2   -1    0    0    0  501 -0.00000000000E+00  0.00000000000E+00  0.21514179963E+04  0.21514179963E+04  0.25500000000E-02 0.  1.
          2   -1    0    0  501    0  0.00000000000E+00 -0.00000000000E+00 -0.11169823156E+04  0.11169823156E+04  0.25500000000E-02 0. -1.
    8880023    1    1    2    0    0 -0.58729544490E+03  0.95725968613E+03 -0.47053182540E+03  0.13843671663E+04  0.65864270000E+03 0.  0.
    8880022    1    1    2    0    0  0.58729544490E+03 -0.95725968613E+03  0.15049675061E+04  0.18840331456E+04  0.15294330000E+03 0.  0.
<mgrwt>
<rscale>  0 0.12576038E+04</rscale>
<asrwt>0</asrwt>
<pdfrwt beam="1">  1        2 0.17184343E+00 0.13019494E+04</pdfrwt>
<pdfrwt beam="2">  1       -2 0.33098738E+00 0.13019494E+04</pdfrwt>
<totfact> 0.42120505E-01</totfact>
</mgrwt>
</event>
<event>
 4    1  0.6502538E-008  0.8279954E+03  0.7818608E-02  0.9653245E-01
          2   -1    0    0  501    0  0.00000000000E+00  0.00000000000E+00  0.15312344115E+04  0.15312344115E+04  0.25500000000E-02 0. -1.
         -2   -1    0    0    0  501 -0.00000000000E+00 -0.00000000000E+00 -0.75781948978E+03  0.75781948978E+03  0.25500000000E-02 0.  1.
    8880023    1    1    2    0    0 -0.34247628182E+03  0.36670998775E+03  0.13028933209E+04  0.15437316576E+04  0.65864270000E+03 0. -1.
    8880022    1    1    2    0    0  0.34247628182E+03 -0.36670998775E+03 -0.52947839918E+03  0.74532224369E+03  0.15294330000E+03 0.  0.
<mgrwt>
<rscale>  0 0.73870102E+03</rscale>
<asrwt>0</asrwt>
<pdfrwt beam="1">  1        2 0.23557453E+00 0.82799543E+03</pdfrwt>
<pdfrwt beam="2">  1       -2 0.11658761E+00 0.82799543E+03</pdfrwt>
<totfact> 0.70525422E+00</totfact>
</mgrwt>
</event>
<event>
 4    1  0.6502538E-008  0.7326265E+03  0.7818608E-02  0.9881971E-01
          2   -1    0    0  501    0  0.00000000000E+00  0.00000000000E+00  0.17211959428E+04  0.17211959428E+04  0.25500000000E-02 0. -1.
         -2   -1    0    0    0  501 -0.00000000000E+00 -0.00000000000E+00 -0.47395572229E+03  0.47395572230E+03  0.25500000000E-02 0.  1.
    8880023    1    1    2    0    0 -0.27416985869E+03  0.16662023482E+03  0.15588803200E+04  0.17224544907E+04  0.65864270000E+03 0. -1.
    8880022    1    1    2    0    0  0.27416985869E+03 -0.16662023482E+03 -0.31164009951E+03  0.47269717442E+03  0.15294330000E+03 0.  0.
<mgrwt>
<rscale>  0 0.61143080E+03</rscale>
<asrwt>0</asrwt>
<pdfrwt beam="1">  1        2 0.26479937E+00 0.73262652E+03</pdfrwt>
<pdfrwt beam="2">  1       -2 0.72916266E-01 0.73262652E+03</pdfrwt>
<totfact> 0.16721239E+01</totfact>
</mgrwt>
</event>
<event>
 4    1  0.6502538E-008  0.8404471E+03  0.7818608E-02  0.9629338E-01
          2   -1    0    0  501    0  0.00000000000E+00  0.00000000000E+00  0.23506424654E+04  0.23506424654E+04  0.25500000000E-02 0. -1.
         -2   -1    0    0    0  501 -0.00000000000E+00 -0.00000000000E+00 -0.40731031371E+03  0.40731031372E+03  0.25500000000E-02 0.  1.
    8880023    1    1    2    0    0 -0.23167655866E+03  0.46783230838E+03  0.20391720100E+04  0.22055778810E+04  0.65864270000E+03 0. -1.
    8880022    1    1    2    0    0  0.23167655866E+03 -0.46783230838E+03 -0.95839858316E+02  0.55237489810E+03  0.15294330000E+03 0.  0.
<mgrwt>
<rscale>  0 0.75384474E+03</rscale>
<asrwt>0</asrwt>
<pdfrwt beam="1">  1        2 0.36163730E+00 0.84044709E+03</pdfrwt>
<pdfrwt beam="2">  1       -2 0.62663125E-01 0.84044709E+03</pdfrwt>
<totfact> 0.10319709E+01</totfact>
</mgrwt>
</event>
<event>
 4    1  0.6502538E-008  0.9287975E+03  0.7818608E-02  0.9481300E-01
         -2   -1    0    0    0  501 -0.00000000000E+00  0.00000000000E+00  0.97530828696E+03  0.97530828696E+03  0.25500000000E-02 0.  1.
          2   -1    0    0  501    0  0.00000000000E+00 -0.00000000000E+00 -0.87003911299E+03  0.87003911299E+03  0.25500000000E-02 0. -1.
    8880023    1    1    2    0    0  0.75420410240E+02  0.65051230495E+03 -0.39285493124E+03  0.10084640303E+04  0.65864270000E+03 0.  0.
    8880022    1    1    2    0    0 -0.75420410240E+02 -0.65051230495E+03  0.49812410522E+03  0.83688336964E+03  0.15294330000E+03 0.  0.
<mgrwt>
<rscale>  0 0.85676678E+03</rscale>
<asrwt>0</asrwt>
<pdfrwt beam="1">  1        2 0.13385217E+00 0.92879745E+03</pdfrwt>
<pdfrwt beam="2">  1       -2 0.15004743E+00 0.92879745E+03</pdfrwt>
<totfact> 0.91840308E+00</totfact>
</mgrwt>
</event>
<event>
 4    1  0.6502538E-008  0.8547847E+03  0.7818608E-02  0.9602909E-01
         -2   -1    0    0    0  501 -0.00000000000E+00  0.00000000000E+00  0.51155553988E+03  0.51155553989E+03  0.25500000000E-02 0.  1.
          2   -1    0    0  501    0  0.00000000000E+00 -0.00000000000E+00 -0.13986117125E+04  0.13986117125E+04  0.25500000000E-02 0. -1.
    8880023    1    1    2    0    0 -0.41427718323E+03 -0.35386588954E+03 -0.10180411221E+04  0.13293098153E+04  0.65864270000E+03 0.  0.
    8880022    1    1    2    0    0  0.41427718323E+03  0.35386588954E+03  0.13098494947E+03  0.58085743718E+03  0.15294330000E+03 0.  0.
<mgrwt>
<rscale>  0 0.77103965E+03</rscale>
<asrwt>0</asrwt>
<pdfrwt beam="1">  1        2 0.21517103E+00 0.85478469E+03</pdfrwt>
<pdfrwt beam="2">  1       -2 0.78700853E-01 0.85478469E+03</pdfrwt>
<totfact> 0.21007007E+01</totfact>
</mgrwt>
</event>
<event>
 4    1  0.6502538E-008  0.9500469E+03  0.7818608E-02  0.9450047E-01
         -2   -1    0    0    0  501 -0.00000000000E+00  0.00000000000E+00  0.77030302709E+03  0.77030302710E+03  0.25500000000E-02 0.  1.
          2   -1    0    0  501    0  0.00000000000E+00 -0.00000000000E+00 -0.12065714475E+04  0.12065714475E+04  0.25500000000E-02 0. -1.
    8880023    1    1    2    0    0 -0.59969955288E+03 -0.33036235575E+03 -0.74801428990E+03  0.12091792357E+04  0.65864270000E+03 0. -1.
    8880022    1    1    2    0    0  0.59969955288E+03  0.33036235575E+03  0.31174586945E+03  0.76769523898E+03  0.15294330000E+03 0.  0.
<mgrwt>
<rscale>  0 0.88069031E+03</rscale>
<asrwt>0</asrwt>
<pdfrwt beam="1">  1        2 0.18562638E+00 0.95004687E+03</pdfrwt>
<pdfrwt beam="2">  1       -2 0.11850816E+00 0.95004687E+03</pdfrwt>
<totfact> 0.10256385E+01</totfact>
</mgrwt>
</event>
<event>
 4    1  0.6502538E-008  0.1152896E+04  0.7818608E-02  0.9204329E-01
          2   -1    0    0  501    0  0.00000000000E+00  0.00000000000E+00  0.12466944425E+04  0.12466944425E+04  0.25500000000E-02 0. -1.
         -2   -1    0    0    0  501 -0.00000000000E+00 -0.00000000000E+00 -0.10164370898E+04  0.10164370898E+04  0.25500000000E-02 0.  1.
    8880023    1    1    2    0    0  0.35213385148E+03  0.87827153296E+03  0.51575540880E+03  0.12630015768E+04  0.65864270000E+03 0.  0.
    8880022    1    1    2    0    0 -0.35213385148E+03 -0.87827153296E+03 -0.28549805606E+03  0.10001299556E+04  0.15294330000E+03 0.  0.
<mgrwt>
<rscale>  0 0.11008860E+04</rscale>
<asrwt>0</asrwt>
<pdfrwt beam="1">  1        2 0.19179914E+00 0.11528961E+04</pdfrwt>
<pdfrwt beam="2">  1       -2 0.15637494E+00 0.11528961E+04</pdfrwt>
<totfact> 0.46506779E+00</totfact>
</mgrwt>
</event>
<event>
 4    1  0.6502538E-008  0.7482211E+03  0.7818608E-02  0.9836616E-01
         -2   -1    0    0    0  501 -0.00000000000E+00  0.00000000000E+00  0.27624486506E+03  0.27624486507E+03  0.25500000000E-02 0.  1.
          2   -1    0    0  501    0  0.00000000000E+00 -0.00000000000E+00 -0.16091669120E+04  0.16091669120E+04  0.25500000000E-02 0. -1.
    8880023    1    1    2    0    0  0.35241762319E+03 -0.42736594170E+02 -0.12968146592E+04  0.14971850468E+04  0.65864270000E+03 0. -1.
    8880022    1    1    2    0    0 -0.35241762319E+03  0.42736594170E+02 -0.36107387654E+02  0.38822673024E+03  0.15294330000E+03 0.  0.
<mgrwt>
<rscale>  0 0.63434013E+03</rscale>
<asrwt>0</asrwt>
<pdfrwt beam="1">  1        2 0.24756413E+00 0.74822109E+03</pdfrwt>
<pdfrwt beam="2">  1       -2 0.42499211E-01 0.74822109E+03</pdfrwt>
<totfact> 0.59156120E+01</totfact>
</mgrwt>
</event>
<event>
 4    1  0.6502538E-008  0.8757601E+03  0.7818608E-02  0.9566122E-01
          2   -1    0    0  501    0  0.00000000000E+00  0.00000000000E+00  0.19199953548E+04  0.19199953548E+04  0.25500000000E-02 0. -1.
         -2   -1    0    0    0  501 -0.00000000000E+00 -0.00000000000E+00 -0.73912142154E+03  0.73912142154E+03  0.25500000000E-02 0.  1.
    8880023    1    1    2    0    0 -0.50238752239E+03  0.28416967592E+03  0.16710200161E+04  0.18866011046E+04  0.65864270000E+03 0. -1.
    8880022    1    1    2    0    0  0.50238752239E+03 -0.28416967592E+03 -0.49014608292E+03  0.77251567168E+03  0.15294330000E+03 0.  0.
<mgrwt>
<rscale>  0 0.79579646E+03</rscale>
<asrwt>0</asrwt>
<pdfrwt beam="1">  1        2 0.29538390E+00 0.87576015E+03</pdfrwt>
<pdfrwt beam="2">  1       -2 0.11371099E+00 0.87576015E+03</pdfrwt>
<totfact> 0.45522113E+00</totfact>
</mgrwt>
</event>
<event>
 4    1  0.6502538E-008  0.1430520E+04  0.7818608E-02  0.8960323E-01
         -2   -1    0    0    0  501 -0.00000000000E+00  0.00000000000E+00  0.12437997136E+04  0.12437997136E+04  0.25500000000E-02 0.  1.
          2   -1    0    0  501    0  0.00000000000E+00 -0.00000000000E+00 -0.18267034506E+04  0.18267034506E+04  0.25500000000E-02 0. -1.
    8880023    1    1    2    0    0  0.39055019790E+03  0.12083245062E+04 -0.97676725528E+03  0.17321841838E+04  0.65864270000E+03 0.  0.
    8880022    1    1    2    0    0 -0.39055019790E+03 -0.12083245062E+04  0.39386351827E+03  0.13383189805E+04  0.15294330000E+03 0.  0.
<mgrwt>
<rscale>  0 0.13910488E+04</rscale>
<asrwt>0</asrwt>
<pdfrwt beam="1">  1        2 0.28103130E+00 0.14305201E+04</pdfrwt>
<pdfrwt beam="2">  1       -2 0.19135380E+00 0.14305201E+04</pdfrwt>
<totfact> 0.11987000E+00</totfact>
</mgrwt>
</event>
<event>
 4    1  0.6502538E-008  0.6885811E+03  0.7818608E-02  0.1004834E+00
          2   -1    0    0  501    0  0.00000000000E+00  0.00000000000E+00  0.38546028146E+03  0.38546028147E+03  0.25500000000E-02 0. -1.
         -2   -1    0    0    0  501 -0.00000000000E+00 -0.00000000000E+00 -0.25992129078E+04  0.25992129078E+04  0.25500000000E-02 0.  1.
    8880023    1    1    2    0    0  0.19574682565E+03  0.44909858646E+02  0.65311083795E+02  0.69167149651E+03  0.65864270000E+03 0. -1.
    8880022    1    1    2    0    0 -0.19574682565E+03 -0.44909858646E+02 -0.22790637101E+04  0.22930016927E+04  0.15294330000E+03 0.  0.
<mgrwt>
<rscale>  0 0.53580328E+03</rscale>
<asrwt>0</asrwt>
<pdfrwt beam="1">  1        2 0.59301583E-01 0.68858109E+03</pdfrwt>
<pdfrwt beam="2">  1       -2 0.39987890E+00 0.68858109E+03</pdfrwt>
<totfact> 0.66307595E-01</totfact>
</mgrwt>
</event>
<event>
 4    1  0.6502538E-008  0.8390155E+03  0.7818608E-02  0.9632039E-01
          2   -1    0    0  501    0  0.00000000000E+00  0.00000000000E+00  0.35086924061E+04  0.35086924061E+04  0.25500000000E-02 0. -1.
         -2   -1    0    0    0  501 -0.00000000000E+00 -0.00000000000E+00 -0.53948863543E+03  0.53948863543E+03  0.25500000000E-02 0.  1.
    8880023    1    1    2    0    0  0.48964578844E+03 -0.17430951694E+03  0.33056278476E+04  0.34104431499E+04  0.65864270000E+03 0. -1.
    8880022    1    1    2    0    0 -0.48964578844E+03  0.17430951694E+03 -0.33642407693E+03  0.63773789160E+03  0.15294330000E+03 0.  0.
<mgrwt>
<rscale>  0 0.75211416E+03</rscale>
<asrwt>0</asrwt>
<pdfrwt beam="1">  1        2 0.53979885E+00 0.83901550E+03</pdfrwt>
<pdfrwt beam="2">  1       -2 0.82998249E-01 0.83901550E+03</pdfrwt>
<totfact> 0.10884204E+00</totfact>
</mgrwt>
</event>
<event>
 4    1  0.6502538E-008  0.7073209E+03  0.7818608E-02  0.9968087E-01
         -2   -1    0    0    0  501 -0.00000000000E+00  0.00000000000E+00  0.28409125687E+03  0.28409125688E+03  0.25500000000E-02 0.  1.
          2   -1    0    0  501    0  0.00000000000E+00 -0.00000000000E+00 -0.18450946696E+04  0.18450946696E+04  0.25500000000E-02 0. -1.
    8880023    1    1    2    0    0  0.22677618024E+03  0.12274067268E+03 -0.16672701680E+04  0.18111026277E+04  0.65864270000E+03 0. -1.
    8880022    1    1    2    0    0 -0.22677618024E+03 -0.12274067268E+03  0.10626675530E+03  0.31808329876E+03  0.15294330000E+03 0.  0.
<mgrwt>
<rscale>  0 0.57071975E+03</rscale>
<asrwt>0</asrwt>
<pdfrwt beam="1">  1        2 0.28386071E+00 0.70732094E+03</pdfrwt>
<pdfrwt beam="2">  1       -2 0.43706348E-01 0.70732094E+03</pdfrwt>
<totfact> 0.41789414E+01</totfact>
</mgrwt>
</event>
<event>
 4    1  0.6502538E-008  0.1159166E+04  0.7818608E-02  0.9197875E-01
          2   -1    0    0  501    0  0.00000000000E+00  0.00000000000E+00  0.16105540583E+04  0.16105540583E+04  0.25500000000E-02 0. -1.
         -2   -1    0    0    0  501 -0.00000000000E+00 -0.00000000000E+00 -0.70113840502E+03  0.70113840502E+03  0.25500000000E-02 0.  1.
    8880023    1    1    2    0    0 -0.20262081989E+03 -0.93209451302E+03  0.48582163295E+03  0.12568564927E+04  0.65864270000E+03 0. -1.
    8880022    1    1    2    0    0  0.20262081989E+03  0.93209451302E+03  0.42359402028E+03  0.10548359706E+04  0.15294330000E+03 0.  1.
<mgrwt>
<rscale>  0 0.11075384E+04</rscale>
<asrwt>0</asrwt>
<pdfrwt beam="1">  1        2 0.24777755E+00 0.11591659E+04</pdfrwt>
<pdfrwt beam="2">  1       -2 0.10786745E+00 0.11591659E+04</pdfrwt>
<totfact> 0.74282420E+00</totfact>
</mgrwt>
</event>
<event>
 4    1  0.6502538E-008  0.1429671E+04  0.7818608E-02  0.8960964E-01
         -2   -1    0    0    0  501 -0.00000000000E+00  0.00000000000E+00  0.12253826206E+04  0.12253826206E+04  0.25500000000E-02 0.  1.
          2   -1    0    0  501    0  0.00000000000E+00 -0.00000000000E+00 -0.22183277843E+04  0.22183277843E+04  0.25500000000E-02 0. -1.
    8880023    1    1    2    0    0 -0.10349199612E+04  0.73422687303E+03 -0.14968076797E+04  0.20698772581E+04  0.65864270000E+03 0. -1.
    8880022    1    1    2    0    0  0.10349199612E+04 -0.73422687303E+03  0.50386251595E+03  0.13738331468E+04  0.15294330000E+03 0.  0.
<mgrwt>
<rscale>  0 0.13901711E+04</rscale>
<asrwt>0</asrwt>
<pdfrwt beam="1">  1        2 0.34128120E+00 0.14296708E+04</pdfrwt>
<pdfrwt beam="2">  1       -2 0.18852040E+00 0.14296708E+04</pdfrwt>
<totfact> 0.75737362E-01</totfact>
</mgrwt>
</event>
<event>
 4    1  0.6502538E-008  0.9977597E+03  0.7818608E-02  0.9384495E-01
          2   -1    0    0  501    0  0.00000000000E+00  0.00000000000E+00  0.14905981144E+04  0.14905981144E+04  0.25500000000E-02 0. -1.
         -2   -1    0    0    0  501 -0.00000000000E+00 -0.00000000000E+00 -0.11394820338E+04  0.11394820338E+04  0.25500000000E-02 0.  1.
    8880023    1    1    2    0    0  0.45298926394E+03 -0.59708878064E+03  0.11510389231E+04  0.15232908764E+04  0.65864270000E+03 0.  0.
    8880022    1    1    2    0    0 -0.45298926394E+03  0.59708878064E+03 -0.79992284248E+03  0.11067892718E+04  0.15294330000E+03 0.  0.
<mgrwt>
<rscale>  0 0.93362784E+03</rscale>
<asrwt>0</asrwt>
<pdfrwt beam="1">  1        2 0.22932279E+00 0.99775974E+03</pdfrwt>
<pdfrwt beam="2">  1       -2 0.17530493E+00 0.99775974E+03</pdfrwt>
<totfact> 0.24944779E+00</totfact>
</mgrwt>
</event>
<event>
 4    1  0.9213512E-008  0.1656052E+04  0.7818608E-02  0.8806643E-01
         -2   -1    0    0    0  501 -0.00000000000E+00  0.00000000000E+00  0.25557122738E+04  0.25557122738E+04  0.25500000000E-02 0.  1.
          2   -1    0    0  501    0  0.00000000000E+00 -0.00000000000E+00 -0.24363922436E+04  0.24363922436E+04  0.25500000000E-02 0. -1.
    8880023    1    1    2    0    0  0.92717681160E+03  0.12037608287E+04 -0.18611321996E+04  0.24912487317E+04  0.65864270000E+03 0.  0.
    8880022    1    1    2    0    0 -0.92717681160E+03 -0.12037608287E+04  0.19804522298E+04  0.25008557856E+04  0.15294330000E+03 0.  0.
<mgrwt>
<rscale>  0 0.16228319E+04</rscale>
<asrwt>0</asrwt>
<pdfrwt beam="1">  1        2 0.37482958E+00 0.16560517E+04</pdfrwt>
<pdfrwt beam="2">  1       -2 0.39318650E+00 0.16560517E+04</pdfrwt>
<totfact> 0.28651532E-02</totfact>
</mgrwt>
</event>
<event>
 4    1  0.6502538E-008  0.9029673E+03  0.7818608E-02  0.9521285E-01
         -2   -1    0    0    0  501 -0.00000000000E+00  0.00000000000E+00  0.26006678565E+04  0.26006678565E+04  0.25500000000E-02 0.  1.
          2   -1    0    0  501    0  0.00000000000E+00 -0.00000000000E+00 -0.97995458798E+03  0.97995458799E+03  0.25500000000E-02 0. -1.
    8880023    1    1    2    0    0 -0.15452851258E+03 -0.59804739673E+03 -0.72004566496E+03  0.11549093972E+04  0.65864270000E+03 0. -1.
    8880022    1    1    2    0    0  0.15452851258E+03  0.59804739673E+03  0.23407589335E+04  0.24257130473E+04  0.15294330000E+03 0.  0.
<mgrwt>
<rscale>  0 0.82732606E+03</rscale>
<asrwt>0</asrwt>
<pdfrwt beam="1">  1        2 0.15076225E+00 0.90296731E+03</pdfrwt>
<pdfrwt beam="2">  1       -2 0.40010274E+00 0.90296731E+03</pdfrwt>
<totfact> 0.19902627E-01</totfact>
</mgrwt>
</event>
<event>
 4    1  0.6502538E-008  0.1193637E+04  0.7818608E-02  0.9163332E-01
          2   -1    0    0  501    0  0.00000000000E+00  0.00000000000E+00  0.36058435700E+04  0.36058435700E+04  0.25500000000E-02 0. -1.
         -2   -1    0    0    0  501 -0.00000000000E+00 -0.00000000000E+00 -0.10820350218E+04  0.10820350218E+04  0.25500000000E-02 0.  1.
    8880023    1    1    2    0    0  0.25859647672E+03  0.96129483501E+03  0.32394515806E+04  0.34523639216E+04  0.65864270000E+03 0.  0.
    8880022    1    1    2    0    0 -0.25859647672E+03 -0.96129483501E+03 -0.71564303243E+03  0.12355146703E+04  0.15294330000E+03 0.  0.
<mgrwt>
<rscale>  0 0.11440048E+04</rscale>
<asrwt>0</asrwt>
<pdfrwt beam="1">  1        2 0.55474516E+00 0.11936373E+04</pdfrwt>
<pdfrwt beam="2">  1       -2 0.16646693E+00 0.11936373E+04</pdfrwt>
<totfact> 0.15405323E-01</totfact>
</mgrwt>
</event>
<event>
 4    1  0.6502538E-008  0.1387776E+04  0.7818608E-02  0.8993240E-01
         -2   -1    0    0    0  501 -0.00000000000E+00  0.00000000000E+00  0.91241603769E+03  0.91241603769E+03  0.25500000000E-02 0.  1.
          2   -1    0    0  501    0  0.00000000000E+00 -0.00000000000E+00 -0.22281194027E+04  0.22281194027E+04  0.25500000000E-02 0. -1.
    8880023    1    1    2    0    0  0.47465138866E+02 -0.12205981203E+04 -0.13115462239E+04  0.19094701921E+04  0.65864270000E+03 0.  0.
    8880022    1    1    2    0    0 -0.47465138866E+02  0.12205981203E+04 -0.41571411426E+01  0.12310652483E+04  0.15294330000E+03 0.  0.
<mgrwt>
<rscale>  0 0.13468190E+04</rscale>
<asrwt>0</asrwt>
<pdfrwt beam="1">  1        2 0.34278760E+00 0.13877762E+04</pdfrwt>
<pdfrwt beam="2">  1       -2 0.14037170E+00 0.13877762E+04</pdfrwt>
<totfact> 0.16979896E+00</totfact>
</mgrwt>
</event>
<event>
 4    1  0.6502538E-008  0.7104446E+03  0.7818608E-02  0.9956354E-01
         -2   -1    0    0    0  501 -0.00000000000E+00  0.00000000000E+00  0.48593592436E+03  0.48593592437E+03  0.25500000000E-02 0.  1.
          2   -1    0    0  501    0  0.00000000000E+00 -0.00000000000E+00 -0.11507119045E+04  0.11507119045E+04  0.25500000000E-02 0. -1.
    8880023    1    1    2    0    0  0.94370487197E+02  0.24902919914E+03 -0.97087294446E+03  0.12030485491E+04  0.65864270000E+03 0. -1.
    8880022    1    1    2    0    0 -0.94370487197E+02 -0.24902919914E+03  0.30609696431E+03  0.43359927981E+03  0.15294330000E+03 0.  0.
<mgrwt>
<rscale>  0 0.57606183E+03</rscale>
<asrwt>0</asrwt>
<pdfrwt beam="1">  1        2 0.17703260E+00 0.71044461E+03</pdfrwt>
<pdfrwt beam="2">  1       -2 0.74759374E-01 0.71044461E+03</pdfrwt>
<totfact> 0.33336883E+01</totfact>
</mgrwt>
</event>
<event>
 4    1  0.6502538E-008  0.1379994E+04  0.7818608E-02  0.8999386E-01
         -2   -1    0    0    0  501 -0.00000000000E+00  0.00000000000E+00  0.16810282738E+04  0.16810282738E+04  0.25500000000E-02 0.  1.
          2   -1    0    0  501    0  0.00000000000E+00 -0.00000000000E+00 -0.18010535570E+04  0.18010535570E+04  0.25500000000E-02 0. -1.
    8880023    1    1    2    0    0  0.24858715184E+03 -0.11869198561E+04 -0.12168227487E+04  0.18398483972E+04  0.65864270000E+03 0.  0.
    8880022    1    1    2    0    0 -0.24858715184E+03  0.11869198561E+04  0.10967974655E+04  0.16422334335E+04  0.15294330000E+03 0.  0.
<mgrwt>
<rscale>  0 0.13387534E+04</rscale>
<asrwt>0</asrwt>
<pdfrwt beam="1">  1        2 0.27708516E+00 0.13799944E+04</pdfrwt>
<pdfrwt beam="2">  1       -2 0.25861973E+00 0.13799944E+04</pdfrwt>
<totfact> 0.46617284E-01</totfact>
</mgrwt>
</event>
<event>
 4    1  0.6502538E-008  0.1038847E+04  0.7818608E-02  0.9332410E-01
          2   -1    0    0  501    0  0.00000000000E+00  0.00000000000E+00  0.19635321297E+04  0.19635321297E+04  0.25500000000E-02 0. -1.
         -2   -1    0    0    0  501 -0.00000000000E+00 -0.00000000000E+00 -0.72732589436E+03  0.72732589437E+03  0.25500000000E-02 0.  1.
    8880023    1    1    2    0    0  0.98592024257E+02  0.79729119730E+03  0.15061449861E+04  0.18296656979E+04  0.65864270000E+03 0.  0.
    8880022    1    1    2    0    0 -0.98592024257E+02 -0.79729119730E+03 -0.26993875076E+03  0.86119232620E+03  0.15294330000E+03 0.  0.
<mgrwt>
<rscale>  0 0.97853113E+03</rscale>
<asrwt>0</asrwt>
<pdfrwt beam="1">  1        2 0.30208186E+00 0.10388474E+04</pdfrwt>
<pdfrwt beam="2">  1       -2 0.11189629E+00 0.10388474E+04</pdfrwt>
<totfact> 0.43881175E+00</totfact>
</mgrwt>
</event>
<event>
 4    1  0.6502538E-008  0.1012997E+04  0.7818608E-02  0.9364747E-01
          2   -1    0    0  501    0  0.00000000000E+00  0.00000000000E+00  0.22165795983E+04  0.22165795983E+04  0.25500000000E-02 0. -1.
         -2   -1    0    0    0  501 -0.00000000000E+00 -0.00000000000E+00 -0.63115158944E+03  0.63115158945E+03  0.25500000000E-02 0.  1.
    8880023    1    1    2    0    0  0.66558163288E+03 -0.38646379996E+03  0.17720433803E+04  0.20411519117E+04  0.65864270000E+03 0. -1.
    8880022    1    1    2    0    0 -0.66558163288E+03  0.38646379996E+03 -0.18661537143E+03  0.80657927606E+03  0.15294330000E+03 0.  0.
<mgrwt>
<rscale>  0 0.95034499E+03</rscale>
<asrwt>0</asrwt>
<pdfrwt beam="1">  1        2 0.34101225E+00 0.10129972E+04</pdfrwt>
<pdfrwt beam="2">  1       -2 0.97100243E-01 0.10129972E+04</pdfrwt>
<totfact> 0.44847738E+00</totfact>
</mgrwt>
</event>
<event>
 4    1  0.6502538E-008  0.6843383E+03  0.7818608E-02  0.1006969E+00
         -2   -1    0    0    0  501 -0.00000000000E+00  0.00000000000E+00  0.87918092042E+03  0.87918092043E+03  0.25500000000E-02 0.  1.
          2   -1    0    0  501    0  0.00000000000E+00 -0.00000000000E+00 -0.87817224512E+03  0.87817224512E+03  0.25500000000E-02 0. -1.
    8880023    1    1    2    0    0  0.15737722893E+03 -0.98697371111E+02 -0.72233832682E+03  0.99503348080E+03  0.65864270000E+03 0. -1.
    8880022    1    1    2    0    0 -0.15737722893E+03  0.98697371111E+02  0.72334700213E+03  0.76231968475E+03  0.15294330000E+03 0.  0.
<mgrwt>
<rscale>  0 0.52697300E+03</rscale>
<asrwt>0</asrwt>
<pdfrwt beam="1">  1        2 0.13510342E+00 0.68433834E+03</pdfrwt>
<pdfrwt beam="2">  1       -2 0.13525860E+00 0.68433834E+03</pdfrwt>
<totfact> 0.12197375E+01</totfact>
</mgrwt>
</event>
<event>
 4    1  0.6502538E-008  0.7207482E+03  0.7818608E-02  0.9920062E-01
          2   -1    0    0  501    0  0.00000000000E+00  0.00000000000E+00  0.28252527482E+04  0.28252527482E+04  0.25500000000E-02 0. -1.
         -2   -1    0    0    0  501 -0.00000000000E+00 -0.00000000000E+00 -0.14767700478E+03  0.14767700480E+03  0.25500000000E-02 0.  1.
    8880023    1    1    2    0    0  0.27117825515E+03 -0.11013671842E+03  0.24919632703E+04  0.25941007863E+04  0.65864270000E+03 0.  0.
    8880022    1    1    2    0    0 -0.27117825515E+03  0.11013671842E+03  0.18561247314E+03  0.37882896670E+03  0.15294330000E+03 0.  0.
<mgrwt>
<rscale>  0 0.59298752E+03</rscale>
<asrwt>0</asrwt>
<pdfrwt beam="1">  1        2 0.43465422E+00 0.72074819E+03</pdfrwt>
<pdfrwt beam="2">  1       -2 0.22719542E-01 0.72074819E+03</pdfrwt>
<totfact> 0.40106600E+01</totfact>
</mgrwt>
</event>
<event>
 4    1  0.6502538E-008  0.1136328E+04  0.7818608E-02  0.9221648E-01
          2   -1    0    0  501    0  0.00000000000E+00  0.00000000000E+00  0.26051303222E+04  0.26051303222E+04  0.25500000000E-02 0. -1.
         -2   -1    0    0    0  501 -0.00000000000E+00 -0.00000000000E+00 -0.90880212914E+03  0.90880212914E+03  0.25500000000E-02 0.  1.
    8880023    1    1    2    0    0 -0.88491382249E+03  0.27268923878E+03  0.21797974072E+04  0.24582023588E+04  0.65864270000E+03 0.  0.
    8880022    1    1    2    0    0  0.88491382249E+03 -0.27268923878E+03 -0.48346921416E+03  0.10557300925E+04  0.15294330000E+03 0.  0.
<mgrwt>
<rscale>  0 0.10832757E+04</rscale>
<asrwt>0</asrwt>
<pdfrwt beam="1">  1        2 0.40078927E+00 0.11363283E+04</pdfrwt>
<pdfrwt beam="2">  1       -2 0.13981572E+00 0.11363283E+04</pdfrwt>
<totfact> 0.10763914E+00</totfact>
</mgrwt>
</event>
<event>
 4    1  0.6502538E-008  0.7911639E+03  0.7818608E-02  0.9730238E-01
          2   -1    0    0  501    0  0.00000000000E+00  0.00000000000E+00  0.18316622442E+04  0.18316622442E+04  0.25500000000E-02 0. -1.
         -2   -1    0    0    0  501 -0.00000000000E+00 -0.00000000000E+00 -0.52507148010E+03  0.52507148011E+03  0.25500000000E-02 0.  1.
    8880023    1    1    2    0    0 -0.26661160323E+02  0.43751490901E+03  0.16156929754E+04  0.17990008644E+04  0.65864270000E+03 0. -1.
    8880022    1    1    2    0    0  0.26661160323E+02 -0.43751490901E+03 -0.30910221125E+03  0.55773285997E+03  0.15294330000E+03 0.  0.
<mgrwt>
<rscale>  0 0.69244652E+03</rscale>
<asrwt>0</asrwt>
<pdfrwt beam="1">  1        2 0.28179419E+00 0.79116390E+03</pdfrwt>
<pdfrwt beam="2">  1       -2 0.80780228E-01 0.79116390E+03</pdfrwt>
<totfact> 0.11491469E+01</totfact>
</mgrwt>
</event>
<event>
 4    1  0.6502538E-008  0.9893107E+03  0.7818608E-02  0.9395678E-01
         -2   -1    0    0    0  501 -0.00000000000E+00  0.00000000000E+00  0.41841747147E+03  0.41841747148E+03  0.25500000000E-02 0.  1.
          2   -1    0    0  501    0  0.00000000000E+00 -0.00000000000E+00 -0.20426354238E+04  0.20426354238E+04  0.25500000000E-02 0. -1.
    8880023    1    1    2    0    0 -0.60684634660E+03  0.42031289983E+03 -0.13165310420E+04  0.16468119543E+04  0.65864270000E+03 0.  0.
    8880022    1    1    2    0    0  0.60684634660E+03 -0.42031289983E+03 -0.30768691037E+03  0.81424094098E+03  0.15294330000E+03 0.  0.
<mgrwt>
<rscale>  0 0.92432215E+03</rscale>
<asrwt>0</asrwt>
<pdfrwt beam="1">  1        2 0.31425160E+00 0.98931068E+03</pdfrwt>
<pdfrwt beam="2">  1       -2 0.64371920E-01 0.98931068E+03</pdfrwt>
<totfact> 0.14173243E+01</totfact>
</mgrwt>
</event>
<event>
 4    1  0.6502538E-008  0.8239857E+03  0.7818608E-02  0.9661150E-01
          2   -1    0    0  501    0  0.00000000000E+00  0.00000000000E+00  0.71521362485E+03  0.71521362485E+03  0.25500000000E-02 0. -1.
         -2   -1    0    0    0  501 -0.00000000000E+00 -0.00000000000E+00 -0.10463743674E+04  0.10463743674E+04  0.25500000000E-02 0.  1.
    8880023    1    1    2    0    0  0.47504165142E+03 -0.13956231066E+03  0.35878499484E+03  0.89870967945E+03  0.65864270000E+03 0. -1.
    8880022    1    1    2    0    0 -0.47504165142E+03  0.13956231066E+03 -0.68994573735E+03  0.86287831277E+03  0.15294330000E+03 0.  0.
<mgrwt>
<rscale>  0 0.73377791E+03</rscale>
<asrwt>0</asrwt>
<pdfrwt beam="1">  1        2 0.11003287E+00 0.82398569E+03</pdfrwt>
<pdfrwt beam="2">  1       -2 0.16098067E+00 0.82398569E+03</pdfrwt>
<totfact> 0.99587607E+00</totfact>
</mgrwt>
</event>
<event>
 4    1  0.6502538E-008  0.6673476E+03  0.7818608E-02  0.1017640E+00
          2   -1    0    0  501    0  0.00000000000E+00  0.00000000000E+00  0.23462870233E+04  0.23462870233E+04  0.25500000000E-02 0. -1.
         -2   -1    0    0    0  501 -0.00000000000E+00 -0.00000000000E+00 -0.55544135014E+03  0.55544135015E+03  0.25500000000E-02 0.  1.
    8880023    1    1    2    0    0  0.10577862757E+03  0.18801345236E+02  0.22812792455E+04  0.23768861586E+04  0.65864270000E+03 0. -1.
    8880022    1    1    2    0    0 -0.10577862757E+03 -0.18801345236E+02 -0.49043357233E+03  0.52484221488E+03  0.15294330000E+03 0.  0.
<mgrwt>
<rscale>  0 0.48547908E+03</rscale>
<asrwt>0</asrwt>
<pdfrwt beam="1">  1        2 0.36096723E+00 0.66734760E+03</pdfrwt>
<pdfrwt beam="2">  1       -2 0.85452517E-01 0.66734760E+03</pdfrwt>
<totfact> 0.53910901E+00</totfact>
</mgrwt>
</event>
<event>
 4    1  0.6502538E-008  0.7632502E+03  0.7818608E-02  0.9796765E-01
         -2   -1    0    0    0  501 -0.00000000000E+00  0.00000000000E+00  0.27939708561E+03  0.27939708562E+03  0.25500000000E-02 0.  1.
          2   -1    0    0  501    0  0.00000000000E+00 -0.00000000000E+00 -0.15174767699E+04  0.15174767699E+04  0.25500000000E-02 0. -1.
    8880023    1    1    2    0    0 -0.26376056831E+03 -0.28137339764E+03 -0.39998227743E+03  0.86170566600E+03  0.65864270000E+03 0. -1.
    8880022    1    1    2    0    0  0.26376056831E+03  0.28137339764E+03 -0.83809740686E+03  0.93516818953E+03  0.15294330000E+03 0. -1.
<mgrwt>
<rscale>  0 0.65536459E+03</rscale>
<asrwt>0</asrwt>
<pdfrwt beam="1">  1        2 0.23345796E+00 0.76325018E+03</pdfrwt>
<pdfrwt beam="2">  1       -2 0.42984168E-01 0.76325018E+03</pdfrwt>
<totfact> 0.64913532E+01</totfact>
</mgrwt>
</event>
<event>
 4    1  0.9959945E-008  0.1344074E+04  0.7818608E-02  0.9028404E-01
          2   -1    0    0  501    0  0.00000000000E+00  0.00000000000E+00  0.32378814181E+04  0.32378814181E+04  0.25500000000E-02 0. -1.
         -2   -1    0    0    0  501 -0.00000000000E+00 -0.00000000000E+00 -0.12322622337E+04  0.12322622337E+04  0.25500000000E-02 0.  1.
    8880023    1    1    2    0    0 -0.11600734621E+04 -0.16417496722E+03  0.27588936909E+04  0.30688806528E+04  0.65864270000E+03 0.  0.
    8880022    1    1    2    0    0  0.11600734621E+04  0.16417496722E+03 -0.75327450647E+03  0.14012629990E+04  0.15294330000E+03 0.  0.
<mgrwt>
<rscale>  0 0.13014650E+04</rscale>
<asrwt>0</asrwt>
<pdfrwt beam="1">  1        2 0.49813560E+00 0.13440737E+04</pdfrwt>
<pdfrwt beam="2">  1       -2 0.18957880E+00 0.13440737E+04</pdfrwt>
<totfact> 0.18454104E-01</totfact>
</mgrwt>
</event>
<event>
 4    1  0.6502538E-008  0.8419458E+03  0.7818608E-02  0.9626522E-01
         -2   -1    0    0    0  501 -0.00000000000E+00  0.00000000000E+00  0.12991732084E+04  0.12991732084E+04  0.25500000000E-02 0.  1.
          2   -1    0    0  501    0  0.00000000000E+00 -0.00000000000E+00 -0.10051040086E+04  0.10051040086E+04  0.25500000000E-02 0. -1.
    8880023    1    1    2    0    0 -0.38654605926E+03 -0.35446384437E+03 -0.74894547059E+03  0.11268504768E+04  0.65864270000E+03 0. -1.
    8880022    1    1    2    0    0  0.38654605926E+03  0.35446384437E+03  0.10430146704E+04  0.11774267402E+04  0.15294330000E+03 0.  0.
<mgrwt>
<rscale>  0 0.75565366E+03</rscale>
<asrwt>0</asrwt>
<pdfrwt beam="1">  1        2 0.15463139E+00 0.84194577E+03</pdfrwt>
<pdfrwt beam="2">  1       -2 0.19987280E+00 0.84194577E+03</pdfrwt>
<totfact> 0.33684675E+00</totfact>
</mgrwt>
</event>
<event>
 4    1  0.6502538E-008  0.6974727E+03  0.7818608E-02  0.1000785E+00
          2   -1    0    0  501    0  0.00000000000E+00  0.00000000000E+00  0.19936758057E+04  0.19936758057E+04  0.25500000000E-02 0. -1.
         -2   -1    0    0    0  501 -0.00000000000E+00 -0.00000000000E+00 -0.16062121629E+03  0.16062121631E+03  0.25500000000E-02 0.  1.
    8880023    1    1    2    0    0 -0.57200220934E+02  0.22222997897E+03  0.17203942989E+04  0.18564010286E+04  0.65864270000E+03 0. -1.
    8880022    1    1    2    0    0  0.57200220934E+02 -0.22222997897E+03  0.11266029044E+03  0.29789599340E+03  0.15294330000E+03 0.  0.
<mgrwt>
<rscale>  0 0.55307319E+03</rscale>
<asrwt>0</asrwt>
<pdfrwt beam="1">  1        2 0.30671932E+00 0.69747275E+03</pdfrwt>
<pdfrwt beam="2">  1       -2 0.24710959E-01 0.69747275E+03</pdfrwt>
<totfact> 0.10175099E+02</totfact>
</mgrwt>
</event>
<event>
 4    1  0.6502538E-008  0.1122732E+04  0.7818608E-02  0.9236159E-01
          2   -1    0    0  501    0  0.00000000000E+00  0.00000000000E+00  0.21600639583E+04  0.21600639583E+04  0.25500000000E-02 0. -1.
         -2   -1    0    0    0  501 -0.00000000000E+00 -0.00000000000E+00 -0.87337594664E+03  0.87337594665E+03  0.25500000000E-02 0.  1.
    8880023    1    1    2    0    0  0.63078575127E+03 -0.65484830637E+03  0.16884819102E+04  0.20276829969E+04  0.65864270000E+03 0. -1.
    8880022    1    1    2    0    0 -0.63078575127E+03  0.65484830637E+03 -0.40179389851E+03  0.10057569081E+04  0.15294330000E+03 0.  0.
<mgrwt>
<rscale>  0 0.10687875E+04</rscale>
<asrwt>0</asrwt>
<pdfrwt beam="1">  1        2 0.33231753E+00 0.11227320E+04</pdfrwt>
<pdfrwt beam="2">  1       -2 0.13436553E+00 0.11227320E+04</pdfrwt>
<totfact> 0.21381606E+00</totfact>
</mgrwt>
</event>
<event>
 4    1  0.6502538E-008  0.1221576E+04  0.7818608E-02  0.9136429E-01
         -2   -1    0    0    0  501 -0.00000000000E+00  0.00000000000E+00  0.71593549345E+03  0.71593549345E+03  0.25500000000E-02 0.  1.
          2   -1    0    0  501    0  0.00000000000E+00 -0.00000000000E+00 -0.20409069953E+04  0.20409069953E+04  0.25500000000E-02 0. -1.
    8880023    1    1    2    0    0  0.11331388302E+03  0.10225451853E+04 -0.11945856663E+04  0.17085911777E+04  0.65864270000E+03 0.  0.
    8880022    1    1    2    0    0 -0.11331388302E+03 -0.10225451853E+04 -0.13038583558E+03  0.10482513111E+04  0.15294330000E+03 0.  0.
<mgrwt>
<rscale>  0 0.11734386E+04</rscale>
<asrwt>0</asrwt>
<pdfrwt beam="1">  1        2 0.31398569E+00 0.12215764E+04</pdfrwt>
<pdfrwt beam="2">  1       -2 0.11014392E+00 0.12215764E+04</pdfrwt>
<totfact> 0.40509966E+00</totfact>
</mgrwt>
</event>
<event>
 4    1  0.6502538E-008  0.8283201E+03  0.7818608E-02  0.9652610E-01
         -2   -1    0    0    0  501 -0.00000000000E+00  0.00000000000E+00  0.36160939293E+03  0.36160939294E+03  0.25500000000E-02 0.  1.
          2   -1    0    0  501    0  0.00000000000E+00 -0.00000000000E+00 -0.22752969394E+04  0.22752969394E+04  0.25500000000E-02 0. -1.
    8880023    1    1    2    0    0  0.43849118568E+03 -0.24500914776E+03 -0.19417968102E+04  0.21110871751E+04  0.65864270000E+03 0.  0.
    8880022    1    1    2    0    0 -0.43849118568E+03  0.24500914776E+03  0.28109263740E+02  0.52581915725E+03  0.15294330000E+03 0.  0.
<mgrwt>
<rscale>  0 0.73909863E+03</rscale>
<asrwt>0</asrwt>
<pdfrwt beam="1">  1        2 0.35004567E+00 0.82832011E+03</pdfrwt>
<pdfrwt beam="2">  1       -2 0.55632216E-01 0.82832011E+03</pdfrwt>
<totfact> 0.14636276E+01</totfact>
</mgrwt>
</event>
<event>
 4    1  0.6502538E-008  0.7557960E+03  0.7818608E-02  0.9816115E-01
         -2   -1    0    0    0  501 -0.00000000000E+00  0.00000000000E+00  0.65032985995E+03  0.65032985996E+03  0.25500000000E-02 0.  1.
          2   -1    0    0  501    0  0.00000000000E+00 -0.00000000000E+00 -0.24180368623E+04  0.24180368623E+04  0.25500000000E-02 0. -1.
    8880023    1    1    2    0    0 -0.12193505131E+03  0.35007039232E+03 -0.22890733400E+04  0.24106190903E+04  0.65864270000E+03 0.  0.
    8880022    1    1    2    0    0  0.12193505131E+03 -0.35007039232E+03  0.52136633765E+03  0.65774763197E+03  0.15294330000E+03 0.  0.
<mgrwt>
<rscale>  0 0.64504837E+03</rscale>
<asrwt>0</asrwt>
<pdfrwt beam="1">  1        2 0.37200567E+00 0.75579603E+03</pdfrwt>
<pdfrwt beam="2">  1       -2 0.10005075E+00 0.75579603E+03</pdfrwt>
<totfact> 0.33520528E+00</totfact>
</mgrwt>
</event>
<event>
 4    1  0.6502538E-008  0.7025349E+03  0.7818608E-02  0.9986844E-01
          2   -1    0    0  501    0  0.00000000000E+00  0.00000000000E+00  0.34263307487E+04  0.34263307487E+04  0.25500000000E-02 0. -1.
         -2   -1    0    0    0  501 -0.00000000000E+00 -0.00000000000E+00 -0.13836405699E+03  0.13836405702E+03  0.25500000000E-02 0.  1.
    8880023    1    1    2    0    0 -0.13872593563E+03  0.20124657228E+03  0.31802087033E+04  0.32568823545E+04  0.65864270000E+03 0. -1.
    8880022    1    1    2    0    0  0.13872593563E+03 -0.20124657228E+03  0.10775798843E+03  0.30781245127E+03  0.15294330000E+03 0.  0.
<mgrwt>
<rscale>  0 0.56230900E+03</rscale>
<asrwt>0</asrwt>
<pdfrwt beam="1">  1        2 0.52712776E+00 0.70253489E+03</pdfrwt>
<pdfrwt beam="2">  1       -2 0.21286780E-01 0.70253489E+03</pdfrwt>
<totfact> 0.18943509E+01</totfact>
</mgrwt>
</event>
<event>
 4    1  0.6502538E-008  0.1654206E+04  0.7818608E-02  0.8807784E-01
          2   -1    0    0  501    0  0.00000000000E+00  0.00000000000E+00  0.57176727292E+04  0.57176727292E+04  0.25500000000E-02 0. -1.
         -2   -1    0    0    0  501 -0.00000000000E+00 -0.00000000000E+00 -0.12391615114E+04  0.12391615114E+04  0.25500000000E-02 0.  1.
    8880023    1    1    2    0    0 -0.86910758954E+03  0.12438812923E+04 -0.51746754881E+03  0.17332546096E+04  0.65864270000E+03 0.  0.
    8880022    1    1    2    0    0  0.86910758954E+03 -0.12438812923E+04  0.49959787666E+04  0.52235796309E+04  0.15294330000E+03 0.  0.
<mgrwt>
<rscale>  0 0.16209441E+04</rscale>
<asrwt>0</asrwt>
<pdfrwt beam="1">  1        2 0.87964198E+00 0.16542064E+04</pdfrwt>
<pdfrwt beam="2">  1       -2 0.19064023E+00 0.16542064E+04</pdfrwt>
<totfact> 0.32121525E-04</totfact>
</mgrwt>
</event>
<event>
 4    1  0.6502538E-008  0.9536616E+03  0.7818608E-02  0.9444865E-01
          2   -1    0    0  501    0  0.00000000000E+00  0.00000000000E+00  0.29029107462E+04  0.29029107462E+04  0.25500000000E-02 0. -1.
         -2   -1    0    0    0  501 -0.00000000000E+00 -0.00000000000E+00 -0.43045668950E+03  0.43045668951E+03  0.25500000000E-02 0.  1.
    8880023    1    1    2    0    0  0.63648525145E+03 -0.26560651504E+03  0.24472296018E+04  0.26264811491E+04  0.65864270000E+03 0. -1.
    8880022    1    1    2    0    0 -0.63648525145E+03  0.26560651504E+03  0.25224454909E+02  0.70688628667E+03  0.15294330000E+03 0.  0.
<mgrwt>
<rscale>  0 0.88473651E+03</rscale>
<asrwt>0</asrwt>
<pdfrwt beam="1">  1        2 0.44660167E+00 0.95366163E+03</pdfrwt>
<pdfrwt beam="2">  1       -2 0.66224104E-01 0.95366163E+03</pdfrwt>
<totfact> 0.43087221E+00</totfact>
</mgrwt>
</event>
<event>
 4    1  0.6502538E-008  0.7252308E+03  0.7818608E-02  0.9905268E-01
          2   -1    0    0  501    0  0.00000000000E+00  0.00000000000E+00  0.24077879125E+03  0.24077879126E+03  0.25500000000E-02 0. -1.
         -2   -1    0    0    0  501 -0.00000000000E+00 -0.00000000000E+00 -0.15123326699E+04  0.15123326699E+04  0.25500000000E-02 0.  1.
    8880023    1    1    2    0    0 -0.27325677733E+03 -0.13221304449E+03 -0.42434130703E+03  0.84025312056E+03  0.65864270000E+03 0.  0.
    8880022    1    1    2    0    0  0.27325677733E+03  0.13221304449E+03 -0.84721257160E+03  0.91285834059E+03  0.15294330000E+03 0.  0.
<mgrwt>
<rscale>  0 0.60006640E+03</rscale>
<asrwt>0</asrwt>
<pdfrwt beam="1">  1        2 0.37042892E-01 0.72523083E+03</pdfrwt>
<pdfrwt beam="2">  1       -2 0.23266656E+00 0.72523083E+03</pdfrwt>
<totfact> 0.11840068E+01</totfact>
</mgrwt>
</event>
<event>
 4    1  0.6502538E-008  0.1246022E+04  0.7818608E-02  0.9113634E-01
          2   -1    0    0  501    0  0.00000000000E+00  0.00000000000E+00  0.19338901608E+04  0.19338901608E+04  0.25500000000E-02 0. -1.
         -2   -1    0    0    0  501 -0.00000000000E+00 -0.00000000000E+00 -0.23903640474E+04  0.23903640475E+04  0.25500000000E-02 0.  1.
    8880023    1    1    2    0    0 -0.51252169033E+03 -0.92524675510E+03  0.15872884334E+04  0.20179333036E+04  0.65864270000E+03 0.  0.
    8880022    1    1    2    0    0  0.51252169033E+03  0.92524675510E+03 -0.20437623201E+04  0.23063209046E+04  0.15294330000E+03 0.  0.
<mgrwt>
<rscale>  0 0.11991119E+04</rscale>
<asrwt>0</asrwt>
<pdfrwt beam="1">  1        2 0.29752156E+00 0.12460218E+04</pdfrwt>
<pdfrwt beam="2">  1       -2 0.36774832E+00 0.12460218E+04</pdfrwt>
<totfact> 0.85094886E-02</totfact>
</mgrwt>
</event>
<event>
 4    1  0.6502538E-008  0.8274019E+03  0.7818608E-02  0.9654409E-01
         -2   -1    0    0    0  501 -0.00000000000E+00  0.00000000000E+00  0.11508146186E+04  0.11508146186E+04  0.25500000000E-02 0.  1.
          2   -1    0    0  501    0  0.00000000000E+00 -0.00000000000E+00 -0.75059747583E+03  0.75059747584E+03  0.25500000000E-02 0. -1.
    8880023    1    1    2    0    0  0.50012153247E+03  0.25731858052E+02 -0.42031680434E+03  0.92804100019E+03  0.65864270000E+03 0. -1.
    8880022    1    1    2    0    0 -0.50012153247E+03 -0.25731858052E+02  0.82053394713E+03  0.97337109427E+03  0.15294330000E+03 0.  0.
<mgrwt>
<rscale>  0 0.73797377E+03</rscale>
<asrwt>0</asrwt>
<pdfrwt beam="1">  1        2 0.11547654E+00 0.82740189E+03</pdfrwt>
<pdfrwt beam="2">  1       -2 0.17704840E+00 0.82740189E+03</pdfrwt>
<totfact> 0.71872962E+00</totfact>
</mgrwt>
</event>
<event>
 4    1  0.6502538E-008  0.9837072E+03  0.7818608E-02  0.9403191E-01
          2   -1    0    0  501    0  0.00000000000E+00  0.00000000000E+00  0.18594726291E+04  0.18594726291E+04  0.25500000000E-02 0. -1.
         -2   -1    0    0    0  501 -0.00000000000E+00 -0.00000000000E+00 -0.14906851235E+04  0.14906851235E+04  0.25500000000E-02 0.  1.
    8880023    1    1    2    0    0  0.70649600848E+03 -0.18636795739E+03  0.16187733427E+04  0.18942299139E+04  0.65864270000E+03 0. -1.
    8880022    1    1    2    0    0 -0.70649600848E+03  0.18636795739E+03 -0.12499858371E+04  0.14559278387E+04  0.15294330000E+03 0.  0.
<mgrwt>
<rscale>  0 0.91813542E+03</rscale>
<asrwt>0</asrwt>
<pdfrwt beam="1">  1        2 0.28607271E+00 0.98370719E+03</pdfrwt>
<pdfrwt beam="2">  1       -2 0.22933617E+00 0.98370719E+03</pdfrwt>
<totfact> 0.69159103E-01</totfact>
</mgrwt>
</event>
<event>
 4    1  0.6502538E-008  0.9724067E+03  0.7818608E-02  0.9418583E-01
          2   -1    0    0  501    0  0.00000000000E+00  0.00000000000E+00  0.11597433050E+04  0.11597433050E+04  0.25500000000E-02 0. -1.
         -2   -1    0    0    0  501 -0.00000000000E+00 -0.00000000000E+00 -0.12191583341E+04  0.12191583341E+04  0.25500000000E-02 0.  1.
    8880023    1    1    2    0    0 -0.55860340205E+03 -0.44690816285E+03  0.79361592101E+03  0.12551498329E+04  0.65864270000E+03 0. -1.
    8880022    1    1    2    0    0  0.55860340205E+03  0.44690816285E+03 -0.85303095018E+03  0.11237518061E+04  0.15294330000E+03 0.  0.
<mgrwt>
<rscale>  0 0.90562010E+03</rscale>
<asrwt>0</asrwt>
<pdfrwt beam="1">  1        2 0.17842205E+00 0.97240674E+03</pdfrwt>
<pdfrwt beam="2">  1       -2 0.18756282E+00 0.97240674E+03</pdfrwt>
<totfact> 0.32071084E+00</totfact>
</mgrwt>
</event>
<event>
 4    1  0.6502538E-008  0.7882489E+03  0.7818608E-02  0.9736805E-01
         -2   -1    0    0    0  501 -0.00000000000E+00  0.00000000000E+00  0.49142156347E+03  0.49142156347E+03  0.25500000000E-02 0.  1.
          2   -1    0    0  501    0  0.00000000000E+00 -0.00000000000E+00 -0.11766555131E+04  0.11766555131E+04  0.25500000000E-02 0. -1.
    8880023    1    1    2    0    0 -0.42235944603E+03 -0.95596453994E+02 -0.86915781578E+03  0.11733591516E+04  0.65864270000E+03 0. -1.
    8880022    1    1    2    0    0  0.42235944603E+03  0.95596453994E+02  0.18392386620E+03  0.49471792492E+03  0.15294330000E+03 0.  0.
<mgrwt>
<rscale>  0 0.68867086E+03</rscale>
<asrwt>0</asrwt>
<pdfrwt beam="1">  1        2 0.18102392E+00 0.78824894E+03</pdfrwt>
<pdfrwt beam="2">  1       -2 0.75603318E-01 0.78824894E+03</pdfrwt>
<totfact> 0.31128734E+01</totfact>
</mgrwt>
</event>
<event>
 4    1  0.6502538E-008  0.1078905E+04  0.7818608E-02  0.9284915E-01
         -2   -1    0    0    0  501 -0.00000000000E+00  0.00000000000E+00  0.17707255442E+04  0.17707255442E+04  0.25500000000E-02 0.  1.
          2   -1    0    0  501    0  0.00000000000E+00 -0.00000000000E+00 -0.14329360347E+04  0.14329360347E+04  0.25500000000E-02 0. -1.
    8880023    1    1    2    0    0 -0.73689177887E+03 -0.43268384314E+03 -0.10893654192E+04  0.15332162355E+04  0.65864270000E+03 0.  0.
    8880022    1    1    2    0    0  0.73689177887E+03  0.43268384314E+03  0.14271549287E+04  0.16704453434E+04  0.15294330000E+03 0.  0.
<mgrwt>
<rscale>  0 0.10218357E+04</rscale>
<asrwt>0</asrwt>
<pdfrwt beam="1">  1        2 0.22045170E+00 0.10789045E+04</pdfrwt>
<pdfrwt beam="2">  1       -2 0.27241931E+00 0.10789045E+04</pdfrwt>
<totfact> 0.64213189E-01</totfact>
</mgrwt>
</event>
<event>
 4    1  0.6502538E-008  0.9020125E+03  0.7818608E-02  0.9522809E-01
         -2   -1    0    0    0  501 -0.00000000000E+00  0.00000000000E+00  0.11866875930E+04  0.11866875930E+04  0.25500000000E-02 0.  1.
          2   -1    0    0  501    0  0.00000000000E+00 -0.00000000000E+00 -0.93523299352E+03  0.93523299352E+03  0.25500000000E-02 0. -1.
    8880023    1    1    2    0    0  0.57711184004E+03 -0.21623676629E+03 -0.58249261366E+03  0.10737431100E+04  0.65864270000E+03 0. -1.
    8880022    1    1    2    0    0 -0.57711184004E+03  0.21623676629E+03  0.83394721317E+03  0.10481774766E+04  0.15294330000E+03 0.  0.
<mgrwt>
<rscale>  0 0.82622928E+03</rscale>
<asrwt>0</asrwt>
<pdfrwt beam="1">  1        2 0.14388200E+00 0.90201254E+03</pdfrwt>
<pdfrwt beam="2">  1       -2 0.18256732E+00 0.90201254E+03</pdfrwt>
<totfact> 0.48435649E+00</totfact>
</mgrwt>
</event>
<event>
 4    1  0.6502538E-008  0.7715655E+03  0.7818608E-02  0.9776036E-01
          2   -1    0    0  501    0  0.00000000000E+00  0.00000000000E+00  0.17984284636E+04  0.17984284636E+04  0.25500000000E-02 0. -1.
         -2   -1    0    0    0  501 -0.00000000000E+00 -0.00000000000E+00 -0.23983519508E+03  0.23983519510E+03  0.25500000000E-02 0.  1.
    8880023    1    1    2    0    0 -0.32017432744E+03  0.24288171739E+03  0.13622153092E+04  0.15655490677E+04  0.65864270000E+03 0. -1.
    8880022    1    1    2    0    0  0.32017432744E+03 -0.24288171739E+03  0.19637795932E+03  0.47271459097E+03  0.15294330000E+03 0.  0.
<mgrwt>
<rscale>  0 0.66664586E+03</rscale>
<asrwt>0</asrwt>
<pdfrwt beam="1">  1        2 0.27668131E+00 0.77156551E+03</pdfrwt>
<pdfrwt beam="2">  1       -2 0.36897722E-01 0.77156551E+03</pdfrwt>
<totfact> 0.61204971E+01</totfact>
</mgrwt>
</event>
<event>
 4    1  0.6502538E-008  0.1400145E+04  0.7818608E-02  0.8983570E-01
         -2   -1    0    0    0  501 -0.00000000000E+00  0.00000000000E+00  0.85841477156E+03  0.85841477157E+03  0.25500000000E-02 0.  1.
          2   -1    0    0  501    0  0.00000000000E+00 -0.00000000000E+00 -0.27517008678E+04  0.27517008678E+04  0.25500000000E-02 0. -1.
    8880023    1    1    2    0    0 -0.53041852606E+03 -0.11159084853E+04 -0.19060763987E+04  0.23650651163E+04  0.65864270000E+03 0.  0.
    8880022    1    1    2    0    0  0.53041852606E+03  0.11159084853E+04  0.12790302468E+02  0.12450505231E+04  0.15294330000E+03 0.  0.
<mgrwt>
<rscale>  0 0.13596300E+04</rscale>
<asrwt>0</asrwt>
<pdfrwt beam="1">  1        2 0.42333859E+00 0.14001449E+04</pdfrwt>
<pdfrwt beam="2">  1       -2 0.13206381E+00 0.14001449E+04</pdfrwt>
<totfact> 0.98968565E-01</totfact>
</mgrwt>
</event>
<event>
 4    1  0.6502538E-008  0.1444056E+04  0.7818608E-02  0.8950185E-01
          2   -1    0    0  501    0  0.00000000000E+00  0.00000000000E+00  0.31839939395E+04  0.31839939395E+04  0.25500000000E-02 0. -1.
         -2   -1    0    0    0  501 -0.00000000000E+00 -0.00000000000E+00 -0.11178331653E+04  0.11178331653E+04  0.25500000000E-02 0.  1.
    8880023    1    1    2    0    0 -0.12275533044E+04 -0.38026367680E+03 -0.41579305432E+03  0.15027247417E+04  0.65864270000E+03 0.  0.
    8880022    1    1    2    0    0  0.12275533044E+04  0.38026367680E+03  0.24819538285E+04  0.27991023631E+04  0.15294330000E+03 0.  0.
<mgrwt>
<rscale>  0 0.14050312E+04</rscale>
<asrwt>0</asrwt>
<pdfrwt beam="1">  1        2 0.48984521E+00 0.14440560E+04</pdfrwt>
<pdfrwt beam="2">  1       -2 0.17197434E+00 0.14440560E+04</pdfrwt>
<totfact> 0.26135402E-01</totfact>
</mgrwt>
</event>
<event>
 4    1  0.6502538E-008  0.6794147E+03  0.7818608E-02  0.1009657E+00
          2   -1    0    0  501    0  0.00000000000E+00  0.00000000000E+00  0.65336889506E+03  0.65336889507E+03  0.25500000000E-02 0. -1.
         -2   -1    0    0    0  501 -0.00000000000E+00 -0.00000000000E+00 -0.73640267815E+03  0.73640267815E+03  0.25500000000E-02 0.  1.
    8880023    1    1    2    0    0 -0.13606250869E+03 -0.96338648335E+02  0.44713502947E+03  0.81334745483E+03  0.65864270000E+03 0. -1.
    8880022    1    1    2    0    0  0.13606250869E+03  0.96338648335E+02 -0.53016881256E+03  0.57642411839E+03  0.15294330000E+03 0.  0.
<mgrwt>
<rscale>  0 0.51611311E+03</rscale>
<asrwt>0</asrwt>
<pdfrwt beam="1">  1        2 0.10051829E+00 0.67941471E+03</pdfrwt>
<pdfrwt beam="2">  1       -2 0.11329272E+00 0.67941471E+03</pdfrwt>
<totfact> 0.27857430E+01</totfact>
</mgrwt>
</event>
<event>
 4    1  0.6502538E-008  0.7777617E+03  0.7818608E-02  0.9761121E-01
          2   -1    0    0  501    0  0.00000000000E+00  0.00000000000E+00  0.91987452955E+03  0.91987452955E+03  0.25500000000E-02 0. -1.
         -2   -1    0    0    0  501 -0.00000000000E+00 -0.00000000000E+00 -0.13940261986E+04  0.13940261986E+04  0.25500000000E-02 0.  1.
    8880023    1    1    2    0    0  0.39372385132E+03  0.12682528366E+03  0.70825788006E+03  0.10519232646E+04  0.65864270000E+03 0. -1.
    8880022    1    1    2    0    0 -0.39372385132E+03 -0.12682528366E+03 -0.11824095491E+04  0.12619774635E+04  0.15294330000E+03 0.  0.
<mgrwt>
<rscale>  0 0.67491398E+03</rscale>
<asrwt>0</asrwt>
<pdfrwt beam="1">  1        2 0.14151916E+00 0.77776174E+03</pdfrwt>
<pdfrwt beam="2">  1       -2 0.21446557E+00 0.77776174E+03</pdfrwt>
<totfact> 0.31131379E+00</totfact>
</mgrwt>
</event>
<event>
 4    1  0.6502538E-008  0.8535321E+03  0.7818608E-02  0.9605174E-01
         -2   -1    0    0    0  501 -0.00000000000E+00  0.00000000000E+00  0.40148284942E+03  0.40148284943E+03  0.25500000000E-02 0.  1.
          2   -1    0    0  501    0  0.00000000000E+00 -0.00000000000E+00 -0.14450064300E+04  0.14450064300E+04  0.25500000000E-02 0. -1.
    8880023    1    1    2    0    0  0.39182004865E+03 -0.37574446209E+03 -0.28212081158E+03  0.89894894733E+03  0.65864270000E+03 0. -1.
    8880022    1    1    2    0    0 -0.39182004865E+03  0.37574446209E+03 -0.76140276904E+03  0.94754033214E+03  0.15294330000E+03 0.  0.
<mgrwt>
<rscale>  0 0.76954691E+03</rscale>
<asrwt>0</asrwt>
<pdfrwt beam="1">  1        2 0.22230868E+00 0.85353211E+03</pdfrwt>
<pdfrwt beam="2">  1       -2 0.61766593E-01 0.85353211E+03</pdfrwt>
<totfact> 0.33586146E+01</totfact>
</mgrwt>
</event>
<event>
 4    1  0.6502538E-008  0.7858450E+03  0.7818608E-02  0.9742282E-01
         -2   -1    0    0    0  501 -0.00000000000E+00  0.00000000000E+00  0.19962449819E+04  0.19962449819E+04  0.25500000000E-02 0.  1.
          2   -1    0    0  501    0  0.00000000000E+00 -0.00000000000E+00 -0.87956724295E+03  0.87956724295E+03  0.25500000000E-02 0. -1.
    8880023    1    1    2    0    0 -0.42209740940E+03  0.74672558266E+02 -0.66962134489E+03  0.10324462048E+04  0.65864270000E+03 0.  0.
    8880022    1    1    2    0    0  0.42209740940E+03 -0.74672558266E+02  0.17862990839E+04  0.18433660201E+04  0.15294330000E+03 0.  1.
<mgrwt>
<rscale>  0 0.68554201E+03</rscale>
<asrwt>0</asrwt>
<pdfrwt beam="1">  1        2 0.13531804E+00 0.78584504E+03</pdfrwt>
<pdfrwt beam="2">  1       -2 0.30711461E+00 0.78584504E+03</pdfrwt>
<totfact> 0.90507003E-01</totfact>
</mgrwt>
</event>
<event>
 4    1  0.6502538E-008  0.6977507E+03  0.7818608E-02  0.1000666E+00
          2   -1    0    0  501    0  0.00000000000E+00  0.00000000000E+00  0.22320715847E+04  0.22320715847E+04  0.25500000000E-02 0. -1.
         -2   -1    0    0    0  501 -0.00000000000E+00 -0.00000000000E+00 -0.28137804216E+03  0.28137804218E+03  0.25500000000E-02 0.  1.
    8880023    1    1    2    0    0  0.19821524964E+03  0.11728837781E+03  0.20903335803E+04  0.22037128969E+04  0.65864270000E+03 0. -1.
    8880022    1    1    2    0    0 -0.19821524964E+03 -0.11728837781E+03 -0.13964003774E+03  0.30973673000E+03  0.15294330000E+03 0.  0.
<mgrwt>
<rscale>  0 0.55359037E+03</rscale>
<asrwt>0</asrwt>
<pdfrwt beam="1">  1        2 0.34339562E+00 0.69775071E+03</pdfrwt>
<pdfrwt beam="2">  1       -2 0.43288931E-01 0.69775071E+03</pdfrwt>
<totfact> 0.26216110E+01</totfact>
</mgrwt>
</event>
<event>
 4    1  0.6502538E-008  0.8617832E+03  0.7818608E-02  0.9590399E-01
         -2   -1    0    0    0  501 -0.00000000000E+00  0.00000000000E+00  0.40213066956E+03  0.40213066957E+03  0.25500000000E-02 0.  1.
          2   -1    0    0  501    0  0.00000000000E+00 -0.00000000000E+00 -0.17824772045E+04  0.17824772045E+04  0.25500000000E-02 0. -1.
    8880023    1    1    2    0    0  0.26567848043E+03  0.48813415353E+03 -0.13572524208E+04  0.16077326727E+04  0.65864270000E+03 0. -1.
    8880022    1    1    2    0    0 -0.26567848043E+03 -0.48813415353E+03 -0.23094114106E+02  0.57687520135E+03  0.15294330000E+03 0.  0.
<mgrwt>
<rscale>  0 0.77934885E+03</rscale>
<asrwt>0</asrwt>
<pdfrwt beam="1">  1        2 0.27422726E+00 0.86178316E+03</pdfrwt>
<pdfrwt beam="2">  1       -2 0.61866258E-01 0.86178316E+03</pdfrwt>
<totfact> 0.21744333E+01</totfact>
</mgrwt>
</event>
<event>
 4    1  0.6502538E-008  0.1072148E+04  0.7818608E-02  0.9292718E-01
          2   -1    0    0  501    0  0.00000000000E+00  0.00000000000E+00  0.27581650407E+04  0.27581650407E+04  0.25500000000E-02 0. -1.
         -2   -1    0    0    0  501 -0.00000000000E+00 -0.00000000000E+00 -0.41480622283E+03  0.41480622284E+03  0.25500000000E-02 0.  1.
    8880023    1    1    2    0    0  0.81157008594E+03 -0.23884168787E+03  0.19548519739E+04  0.22295622446E+04  0.65864270000E+03 0.  0.
    8880022    1    1    2    0    0 -0.81157008594E+03  0.23884168787E+03  0.38850684396E+03  0.94340901897E+03  0.15294330000E+03 0.  0.
<mgrwt>
<rscale>  0 0.10145600E+04</rscale>
<asrwt>0</asrwt>
<pdfrwt beam="1">  1        2 0.42433307E+00 0.10721481E+04</pdfrwt>
<pdfrwt beam="2">  1       -2 0.63816343E-01 0.10721481E+04</pdfrwt>
<totfact> 0.56065192E+00</totfact>
</mgrwt>
</event>
<event>
 4    1  0.6502538E-008  0.1030733E+04  0.7818608E-02  0.9342409E-01
         -2   -1    0    0    0  501 -0.00000000000E+00  0.00000000000E+00  0.58833514756E+03  0.58833514756E+03  0.25500000000E-02 0.  1.
          2   -1    0    0  501    0  0.00000000000E+00 -0.00000000000E+00 -0.28511591665E+04  0.28511591665E+04  0.25500000000E-02 0. -1.
    8880023    1    1    2    0    0  0.14172372549E+03  0.78007399324E+03 -0.24077804821E+04  0.26191254467E+04  0.65864270000E+03 0.  0.
    8880022    1    1    2    0    0 -0.14172372549E+03 -0.78007399324E+03  0.14495646317E+03  0.82036886736E+03  0.15294330000E+03 0.  0.
<mgrwt>
<rscale>  0 0.96970602E+03</rscale>
<asrwt>0</asrwt>
<pdfrwt beam="1">  1        2 0.43863986E+00 0.10307334E+04</pdfrwt>
<pdfrwt beam="2">  1       -2 0.90513101E-01 0.10307334E+04</pdfrwt>
<totfact> 0.22723781E+00</totfact>
</mgrwt>
</event>
<event>
 4    1  0.6502538E-008  0.6778135E+03  0.7818608E-02  0.1010588E+00
         -2   -1    0    0    0  501 -0.00000000000E+00  0.00000000000E+00  0.38493049521E+03  0.38493049522E+03  0.25500000000E-02 0.  1.
          2   -1    0    0  501    0  0.00000000000E+00 -0.00000000000E+00 -0.17084227571E+04  0.17084227571E+04  0.25500000000E-02 0. -1.
    8880023    1    1    2    0    0 -0.76963671146E+02  0.14034781394E+03 -0.16008731563E+04  0.17384550568E+04  0.65864270000E+03 0. -1.
    8880022    1    1    2    0    0  0.76963671146E+02 -0.14034781394E+03  0.27738089446E+03  0.35489819552E+03  0.15294330000E+03 0.  0.
<mgrwt>
<rscale>  0 0.51241412E+03</rscale>
<asrwt>0</asrwt>
<pdfrwt beam="1">  1        2 0.26283427E+00 0.67781349E+03</pdfrwt>
<pdfrwt beam="2">  1       -2 0.59220077E-01 0.67781349E+03</pdfrwt>
<totfact> 0.26786973E+01</totfact>
</mgrwt>
</event>
<event>
 4    1  0.6502538E-008  0.9257296E+03  0.7818608E-02  0.9485929E-01
         -2   -1    0    0    0  501 -0.00000000000E+00  0.00000000000E+00  0.15929782756E+04  0.15929782756E+04  0.25500000000E-02 0.  1.
          2   -1    0    0  501    0  0.00000000000E+00 -0.00000000000E+00 -0.48324350133E+03  0.48324350133E+03  0.25500000000E-02 0. -1.
    8880023    1    1    2    0    0  0.22325675493E+03  0.61100035297E+03  0.19942727609E+03  0.94696697655E+03  0.65864270000E+03 0. -1.
    8880022    1    1    2    0    0 -0.22325675493E+03 -0.61100035297E+03  0.91030749820E+03  0.11292548004E+04  0.15294330000E+03 0.  0.
<mgrwt>
<rscale>  0 0.85329199E+03</rscale>
<asrwt>0</asrwt>
<pdfrwt beam="1">  1        2 0.74345153E-01 0.92572956E+03</pdfrwt>
<pdfrwt beam="2">  1       -2 0.24507358E+00 0.92572956E+03</pdfrwt>
<totfact> 0.44466751E+00</totfact>
</mgrwt>
</event>
<event>
 4    1  0.6502538E-008  0.1568253E+04  0.7818608E-02  0.8862886E-01
          2   -1    0    0  501    0  0.00000000000E+00  0.00000000000E+00  0.26622860271E+04  0.26622860271E+04  0.25500000000E-02 0. -1.
         -2   -1    0    0    0  501 -0.00000000000E+00 -0.00000000000E+00 -0.95034456609E+03  0.95034456609E+03  0.25500000000E-02 0.  1.
    8880023    1    1    2    0    0 -0.14089835844E+04 -0.20092745911E+03  0.14916326355E+04  0.21643439446E+04  0.65864270000E+03 0.  0.
    8880022    1    1    2    0    0  0.14089835844E+04  0.20092745911E+03  0.22030882552E+03  0.14482866486E+04  0.15294330000E+03 0.  0.
<mgrwt>
<rscale>  0 0.15328680E+04</rscale>
<asrwt>0</asrwt>
<pdfrwt beam="1">  1        2 0.40958246E+00 0.15682528E+04</pdfrwt>
<pdfrwt beam="2">  1       -2 0.14620686E+00 0.15682528E+04</pdfrwt>
<totfact> 0.84227434E-01</totfact>
</mgrwt>
</event>
<event>
 4    1  0.6502538E-008  0.9614809E+03  0.7818608E-02  0.9433784E-01
          2   -1    0    0  501    0  0.00000000000E+00  0.00000000000E+00  0.17416172449E+04  0.17416172449E+04  0.25500000000E-02 0. -1.
         -2   -1    0    0    0  501 -0.00000000000E+00 -0.00000000000E+00 -0.84962458388E+03  0.84962458388E+03  0.25500000000E-02 0.  1.
    8880023    1    1    2    0    0 -0.40711272321E+03  0.56999524489E+03  0.14100802406E+04  0.17066844582E+04  0.65864270000E+03 0. -1.
    8880022    1    1    2    0    0  0.40711272321E+03 -0.56999524489E+03 -0.51808757964E+03  0.88455737055E+03  0.15294330000E+03 0.  0.
<mgrwt>
<rscale>  0 0.89346747E+03</rscale>
<asrwt>0</asrwt>
<pdfrwt beam="1">  1        2 0.26794111E+00 0.96148092E+03</pdfrwt>
<pdfrwt beam="2">  1       -2 0.13071148E+00 0.96148092E+03</pdfrwt>
<totfact> 0.39831564E+00</totfact>
</mgrwt>
</event>
<event>
 4    1  0.6502538E-008  0.7407924E+03  0.7818608E-02  0.9857645E-01
          2   -1    0    0  501    0  0.00000000000E+00  0.00000000000E+00  0.25611227224E+04  0.25611227224E+04  0.25500000000E-02 0. -1.
         -2   -1    0    0    0  501 -0.00000000000E+00 -0.00000000000E+00 -0.33286036055E+03  0.33286036056E+03  0.25500000000E-02 0.  1.
    8880023    1    1    2    0    0 -0.27082527908E+03  0.20400219339E+03  0.23797290202E+04  0.24923650701E+04  0.65864270000E+03 0. -1.
    8880022    1    1    2    0    0  0.27082527908E+03 -0.20400219339E+03 -0.15146665832E+03  0.40161801291E+03  0.15294330000E+03 0.  0.
<mgrwt>
<rscale>  0 0.62358651E+03</rscale>
<asrwt>0</asrwt>
<pdfrwt beam="1">  1        2 0.39401887E+00 0.74079244E+03</pdfrwt>
<pdfrwt beam="2">  1       -2 0.51209287E-01 0.74079244E+03</pdfrwt>
<totfact> 0.12148683E+01</totfact>
</mgrwt>
</event>
<event>
 4    1  0.6502538E-008  0.7460590E+03  0.7818608E-02  0.9842636E-01
         -2   -1    0    0    0  501 -0.00000000000E+00  0.00000000000E+00  0.40753756869E+03  0.40753756870E+03  0.25500000000E-02 0.  1.
          2   -1    0    0  501    0  0.00000000000E+00 -0.00000000000E+00 -0.19859109155E+04  0.19859109155E+04  0.25500000000E-02 0. -1.
    8880023    1    1    2    0    0 -0.29609952218E+03  0.18740043344E+03 -0.18021223044E+04  0.19504483730E+04  0.65864270000E+03 0.  0.
    8880022    1    1    2    0    0  0.29609952218E+03 -0.18740043344E+03  0.22374895758E+03  0.44300011120E+03  0.15294330000E+03 0.  0.
<mgrwt>
<rscale>  0 0.63123770E+03</rscale>
<asrwt>0</asrwt>
<pdfrwt beam="1">  1        2 0.30552475E+00 0.74605902E+03</pdfrwt>
<pdfrwt beam="2">  1       -2 0.62698089E-01 0.74605902E+03</pdfrwt>
<totfact> 0.16603699E+01</totfact>
</mgrwt>
</event>
<event>
 4    1  0.6502538E-008  0.1420190E+04  0.7818608E-02  0.8968151E-01
          2   -1    0    0  501    0  0.00000000000E+00  0.00000000000E+00  0.67588717749E+03  0.67588717749E+03  0.25500000000E-02 0. -1.
         -2   -1    0    0    0  501 -0.00000000000E+00 -0.00000000000E+00 -0.42459815381E+04  0.42459815381E+04  0.25500000000E-02 0.  1.
    8880023    1    1    2    0    0  0.60887924850E+03  0.11010889361E+04 -0.35200130390E+03  0.14631629809E+04  0.65864270000E+03 0. -1.
    8880022    1    1    2    0    0 -0.60887924850E+03 -0.11010889361E+04 -0.32180930567E+04  0.34587057347E+04  0.15294330000E+03 0.  0.
<mgrwt>
<rscale>  0 0.13803709E+04</rscale>
<asrwt>0</asrwt>
<pdfrwt beam="1">  1        2 0.10398265E+00 0.14201905E+04</pdfrwt>
<pdfrwt beam="2">  1       -2 0.65322791E+00 0.14201905E+04</pdfrwt>
<totfact> 0.13142756E-02</totfact>
</mgrwt>
</event>
<event>
 4    1  0.6502538E-008  0.8080259E+03  0.7818608E-02  0.9693704E-01
         -2   -1    0    0    0  501 -0.00000000000E+00  0.00000000000E+00  0.28415354396E+03  0.28415354397E+03  0.25500000000E-02 0.  1.
          2   -1    0    0  501    0  0.00000000000E+00 -0.00000000000E+00 -0.25120652574E+04  0.25120652574E+04  0.25500000000E-02 0. -1.
    8880023    1    1    2    0    0 -0.38055010616E+03  0.27253861671E+03 -0.21510733330E+04  0.22978299265E+04  0.65864270000E+03 0. -1.
    8880022    1    1    2    0    0  0.38055010616E+03 -0.27253861671E+03 -0.76838380455E+02  0.49838887489E+03  0.15294330000E+03 0.  0.
<mgrwt>
<rscale>  0 0.71392913E+03</rscale>
<asrwt>0</asrwt>
<pdfrwt beam="1">  1        2 0.38647156E+00 0.80802592E+03</pdfrwt>
<pdfrwt beam="2">  1       -2 0.43715932E-01 0.80802592E+03</pdfrwt>
<totfact> 0.17636668E+01</totfact>
</mgrwt>
</event>
<event>
 4    1  0.6502538E-008  0.6695892E+03  0.7818608E-02  0.1015959E+00
         -2   -1    0    0    0  501 -0.00000000000E+00  0.00000000000E+00  0.43950877637E+03  0.43950877638E+03  0.25500000000E-02 0.  1.
          2   -1    0    0  501    0  0.00000000000E+00 -0.00000000000E+00 -0.12728981309E+04  0.12728981309E+04  0.25500000000E-02 0. -1.
    8880023    1    1    2    0    0 -0.86542071090E+02  0.83964062798E+02 -0.11557938196E+04  0.13357428846E+04  0.65864270000E+03 0. -1.
    8880022    1    1    2    0    0  0.86542071090E+02 -0.83964062798E+02  0.32240446508E+03  0.37666402274E+03  0.15294330000E+03 0.  0.
<mgrwt>
<rscale>  0 0.49173467E+03</rscale>
<asrwt>0</asrwt>
<pdfrwt beam="1">  1        2 0.19583048E+00 0.66958920E+03</pdfrwt>
<pdfrwt beam="2">  1       -2 0.67616735E-01 0.66958920E+03</pdfrwt>
<totfact> 0.35352406E+01</totfact>
</mgrwt>
</event>
<event>
 4    1  0.6502538E-008  0.1713642E+04  0.7818608E-02  0.8771873E-01
          2   -1    0    0  501    0  0.00000000000E+00  0.00000000000E+00  0.32054786260E+04  0.32054786260E+04  0.25500000000E-02 0. -1.
         -2   -1    0    0    0  501 -0.00000000000E+00 -0.00000000000E+00 -0.11372697242E+04  0.11372697242E+04  0.25500000000E-02 0.  1.
    8880023    1    1    2    0    0  0.92363821401E+03 -0.12843868905E+04 -0.25837291463E+02  0.17138363418E+04  0.65864270000E+03 0.  0.
    8880022    1    1    2    0    0 -0.92363821401E+03  0.12843868905E+04  0.20940461934E+04  0.26289120084E+04  0.15294330000E+03 0.  0.
<mgrwt>
<rscale>  0 0.16816955E+04</rscale>
<asrwt>0</asrwt>
<pdfrwt beam="1">  1        2 0.49315056E+00 0.17136416E+04</pdfrwt>
<pdfrwt beam="2">  1       -2 0.17496457E+00 0.17136416E+04</pdfrwt>
<totfact> 0.23352208E-01</totfact>
</mgrwt>
</event>
<event>
 4    1  0.6502538E-008  0.9904753E+03  0.7818608E-02  0.9394126E-01
          2   -1    0    0  501    0  0.00000000000E+00  0.00000000000E+00  0.24905862584E+04  0.24905862584E+04  0.25500000000E-02 0. -1.
         -2   -1    0    0    0  501 -0.00000000000E+00 -0.00000000000E+00 -0.35436805444E+03  0.35436805445E+03  0.25500000000E-02 0.  1.
    8880023    1    1    2    0    0  0.51836922076E+03 -0.52775408410E+03  0.17139051859E+04  0.19795232292E+04  0.65864270000E+03 0.  0.
    8880022    1    1    2    0    0 -0.51836922076E+03  0.52775408410E+03  0.42231301802E+03  0.86543108363E+03  0.15294330000E+03 0.  0.
<mgrwt>
<rscale>  0 0.92560640E+03</rscale>
<asrwt>0</asrwt>
<pdfrwt beam="1">  1        2 0.38316712E+00 0.99047525E+03</pdfrwt>
<pdfrwt beam="2">  1       -2 0.54518161E-01 0.99047525E+03</pdfrwt>
<totfact> 0.11307375E+01</totfact>
</mgrwt>
</event>
<event>
 4    1  0.6502538E-008  0.9367821E+03  0.7818608E-02  0.9469392E-01
         -2   -1    0    0    0  501 -0.00000000000E+00  0.00000000000E+00  0.56360734256E+03  0.56360734257E+03  0.25500000000E-02 0.  1.
          2   -1    0    0  501    0  0.00000000000E+00 -0.00000000000E+00 -0.17791032308E+04  0.17791032308E+04  0.25500000000E-02 0. -1.
    8880023    1    1    2    0    0  0.15237713191E+03 -0.64848412506E+03 -0.13528884916E+04  0.16455600651E+04  0.65864270000E+03 0. -1.
    8880022    1    1    2    0    0 -0.15237713191E+03  0.64848412506E+03  0.13739260335E+03  0.69715050832E+03  0.15294330000E+03 0.  0.
<mgrwt>
<rscale>  0 0.86578500E+03</rscale>
<asrwt>0</asrwt>
<pdfrwt beam="1">  1        2 0.27370819E+00 0.93678208E+03</pdfrwt>
<pdfrwt beam="2">  1       -2 0.86708823E-01 0.93678208E+03</pdfrwt>
<totfact> 0.10264600E+01</totfact>
</mgrwt>
</event>
<event>
 4    1  0.6502538E-008  0.8795607E+03  0.7818608E-02  0.9559674E-01
          2   -1    0    0  501    0  0.00000000000E+00  0.00000000000E+00  0.23098983234E+04  0.23098983234E+04  0.25500000000E-02 0. -1.
         -2   -1    0    0    0  501 -0.00000000000E+00 -0.00000000000E+00 -0.54831554578E+03  0.54831554579E+03  0.25500000000E-02 0.  1.
    8880023    1    1    2    0    0 -0.10382124464E+03  0.57361826042E+03  0.20194610177E+04  0.22026914827E+04  0.65864270000E+03 0. -1.
    8880022    1    1    2    0    0  0.10382124464E+03 -0.57361826042E+03 -0.25787824008E+03  0.65552238653E+03  0.15294330000E+03 0.  0.
<mgrwt>
<rscale>  0 0.80023739E+03</rscale>
<asrwt>0</asrwt>
<pdfrwt beam="1">  1        2 0.35536897E+00 0.87956067E+03</pdfrwt>
<pdfrwt beam="2">  1       -2 0.84356237E-01 0.87956067E+03</pdfrwt>
<totfact> 0.56126340E+00</totfact>
</mgrwt>
</event>
<event>
 4    1  0.6502538E-008  0.9577137E+03  0.7818608E-02  0.9439101E-01
         -2   -1    0    0    0  501 -0.00000000000E+00  0.00000000000E+00  0.33590489698E+03  0.33590489699E+03  0.25500000000E-02 0.  1.
          2   -1    0    0  501    0  0.00000000000E+00 -0.00000000000E+00 -0.23328528194E+04  0.23328528194E+04  0.25500000000E-02 0. -1.
    8880023    1    1    2    0    0  0.64104600969E+03  0.26919400950E+03 -0.68961714674E+03  0.11801641482E+04  0.65864270000E+03 0.  0.
    8880022    1    1    2    0    0 -0.64104600969E+03 -0.26919400950E+03 -0.13073307757E+04  0.14885935682E+04  0.15294330000E+03 0.  0.
<mgrwt>
<rscale>  0 0.88926469E+03</rscale>
<asrwt>0</asrwt>
<pdfrwt beam="1">  1        2 0.35890042E+00 0.95771374E+03</pdfrwt>
<pdfrwt beam="2">  1       -2 0.51677678E-01 0.95771374E+03</pdfrwt>
<totfact> 0.15574456E+01</totfact>
</mgrwt>
</event>
<event>
 4    1  0.6502538E-008  0.9620000E+03  0.7818608E-02  0.9433055E-01
         -2   -1    0    0    0  501 -0.00000000000E+00  0.00000000000E+00  0.34295543226E+03  0.34295543227E+03  0.25500000000E-02 0.  1.
          2   -1    0    0  501    0  0.00000000000E+00 -0.00000000000E+00 -0.30200011864E+04  0.30200011864E+04  0.25500000000E-02 0. -1.
    8880023    1    1    2    0    0 -0.95993713007E+02 -0.69456391548E+03 -0.24139863126E+04  0.25986100033E+04  0.65864270000E+03 0.  0.
    8880022    1    1    2    0    0  0.95993713007E+02  0.69456391548E+03 -0.26305944154E+03  0.76434661536E+03  0.15294330000E+03 0.  0.
<mgrwt>
<rscale>  0 0.89404607E+03</rscale>
<asrwt>0</asrwt>
<pdfrwt beam="1">  1        2 0.46461555E+00 0.96200002E+03</pdfrwt>
<pdfrwt beam="2">  1       -2 0.52762376E-01 0.96200002E+03</pdfrwt>
<totfact> 0.58988598E+00</totfact>
</mgrwt>
</event>
<event>
 4    1  0.6502538E-008  0.9577735E+03  0.7818608E-02  0.9439017E-01
          2   -1    0    0  501    0  0.00000000000E+00  0.00000000000E+00  0.78975589069E+03  0.78975589069E+03  0.25500000000E-02 0. -1.
         -2   -1    0    0    0  501 -0.00000000000E+00 -0.00000000000E+00 -0.11260807099E+04  0.11260807099E+04  0.25500000000E-02 0.  1.
    8880023    1    1    2    0    0 -0.26403842792E+03  0.64327563598E+03  0.25408891547E+03  0.99090424285E+03  0.65864270000E+03 0.  0.
    8880022    1    1    2    0    0  0.26403842792E+03 -0.64327563598E+03 -0.59041373465E+03  0.92493235771E+03  0.15294330000E+03 0.  0.
<mgrwt>
<rscale>  0 0.88933139E+03</rscale>
<asrwt>0</asrwt>
<pdfrwt beam="1">  1        2 0.12150091E+00 0.95777348E+03</pdfrwt>
<pdfrwt beam="2">  1       -2 0.17324319E+00 0.95777348E+03</pdfrwt>
<totfact> 0.70543438E+00</totfact>
</mgrwt>
</event>
<event>
 4    1  0.6502538E-008  0.1135892E+04  0.7818608E-02  0.9222109E-01
          2   -1    0    0  501    0  0.00000000000E+00  0.00000000000E+00  0.22024658097E+04  0.22024658097E+04  0.25500000000E-02 0. -1.
         -2   -1    0    0    0  501 -0.00000000000E+00 -0.00000000000E+00 -0.84103526370E+03  0.84103526371E+03  0.25500000000E-02 0.  1.
    8880023    1    1    2    0    0 -0.15290248592E+03  0.91272202458E+03  0.17014576113E+04  0.20457783051E+04  0.65864270000E+03 0.  0.
    8880022    1    1    2    0    0  0.15290248592E+03 -0.91272202458E+03 -0.34002706526E+03  0.99772276834E+03  0.15294330000E+03 0.  0.
<mgrwt>
<rscale>  0 0.10828113E+04</rscale>
<asrwt>0</asrwt>
<pdfrwt beam="1">  1        2 0.33884089E+00 0.11358921E+04</pdfrwt>
<pdfrwt beam="2">  1       -2 0.12939004E+00 0.11358921E+04</pdfrwt>
<totfact> 0.22262372E+00</totfact>
</mgrwt>
</event>
<event>
 4    1  0.6502538E-008  0.9278851E+03  0.7818608E-02  0.9482673E-01
          2   -1    0    0  501    0  0.00000000000E+00  0.00000000000E+00  0.36797184087E+04  0.36797184087E+04  0.25500000000E-02 0. -1.
         -2   -1    0    0    0  501 -0.00000000000E+00 -0.00000000000E+00 -0.34702111590E+03  0.34702111591E+03  0.25500000000E-02 0.  1.
    8880023    1    1    2    0    0  0.49627513210E+03  0.42528991571E+03  0.32137879447E+04  0.33450566033E+04  0.65864270000E+03 0.  0.
    8880022    1    1    2    0    0 -0.49627513210E+03 -0.42528991571E+03  0.11890934805E+03  0.68168292131E+03  0.15294330000E+03 0.  0.
<mgrwt>
<rscale>  0 0.85573399E+03</rscale>
<asrwt>0</asrwt>
<pdfrwt beam="1">  1        2 0.56611056E+00 0.92788508E+03</pdfrwt>
<pdfrwt beam="2">  1       -2 0.53387861E-01 0.92788508E+03</pdfrwt>
<totfact> 0.21100670E+00</totfact>
</mgrwt>
</event>
<event>
 4    1  0.6502538E-008  0.8110140E+03  0.7818608E-02  0.9687469E-01
         -2   -1    0    0    0  501 -0.00000000000E+00  0.00000000000E+00  0.97028799947E+03  0.97028799947E+03  0.25500000000E-02 0.  1.
          2   -1    0    0  501    0  0.00000000000E+00 -0.00000000000E+00 -0.68494780269E+03  0.68494780270E+03  0.25500000000E-02 0. -1.
    8880023    1    1    2    0    0 -0.91155352219E+02  0.46435350161E+03  0.64934373023E+03  0.10389374182E+04  0.65864270000E+03 0.  0.
    8880022    1    1    2    0    0  0.91155352219E+02 -0.46435350161E+03 -0.36400353345E+03  0.61629838396E+03  0.15294330000E+03 0.  0.
<mgrwt>
<rscale>  0 0.71767825E+03</rscale>
<asrwt>0</asrwt>
<pdfrwt beam="1">  1        2 0.10537659E+00 0.81101398E+03</pdfrwt>
<pdfrwt beam="2">  1       -2 0.14927508E+00 0.81101398E+03</pdfrwt>
<totfact> 0.12895830E+01</totfact>
</mgrwt>
</event>
<event>
 4    1  0.6502538E-008  0.8006740E+03  0.7818608E-02  0.9709341E-01
          2   -1    0    0  501    0  0.00000000000E+00  0.00000000000E+00  0.39516218247E+03  0.39516218248E+03  0.25500000000E-02 0. -1.
         -2   -1    0    0    0  501 -0.00000000000E+00 -0.00000000000E+00 -0.20023423848E+04  0.20023423848E+04  0.25500000000E-02 0.  1.
    8880023    1    1    2    0    0 -0.37053821573E+03  0.26451846736E+03 -0.89517268082E+02  0.80566254501E+03  0.65864270000E+03 0. -1.
    8880022    1    1    2    0    0  0.37053821573E+03 -0.26451846736E+03 -0.15176629343E+04  0.15918420223E+04  0.15294330000E+03 0.  0.
<mgrwt>
<rscale>  0 0.70463364E+03</rscale>
<asrwt>0</asrwt>
<pdfrwt beam="1">  1        2 0.60794183E-01 0.80067396E+03</pdfrwt>
<pdfrwt beam="2">  1       -2 0.30805267E+00 0.80067396E+03</pdfrwt>
<totfact> 0.23671061E+00</totfact>
</mgrwt>
</event>
<event>
 4    1  0.6502538E-008  0.8612391E+03  0.7818608E-02  0.9591363E-01
         -2   -1    0    0    0  501 -0.00000000000E+00  0.00000000000E+00  0.39888181488E+03  0.39888181489E+03  0.25500000000E-02 0.  1.
          2   -1    0    0  501    0  0.00000000000E+00 -0.00000000000E+00 -0.17087025247E+04  0.17087025247E+04  0.25500000000E-02 0. -1.
    8880023    1    1    2    0    0  0.87697576148E+02  0.54793398050E+03 -0.12648629173E+04  0.15302323084E+04  0.65864270000E+03 0. -1.
    8880022    1    1    2    0    0 -0.87697576148E+02 -0.54793398050E+03 -0.44957792582E+02  0.57735203124E+03  0.15294330000E+03 0.  1.
<mgrwt>
<rscale>  0 0.77870469E+03</rscale>
<asrwt>0</asrwt>
<pdfrwt beam="1">  1        2 0.26287731E+00 0.86123906E+03</pdfrwt>
<pdfrwt beam="2">  1       -2 0.61366434E-01 0.86123906E+03</pdfrwt>
<totfact> 0.24286122E+01</totfact>
</mgrwt>
</event>
<event>
 4    1  0.6502538E-008  0.7567983E+03  0.7818608E-02  0.9813468E-01
         -2   -1    0    0    0  501 -0.00000000000E+00  0.00000000000E+00  0.25339537329E+03  0.25339537330E+03  0.25500000000E-02 0.  1.
          2   -1    0    0  501    0  0.00000000000E+00 -0.00000000000E+00 -0.13803162625E+04  0.13803162625E+04  0.25500000000E-02 0. -1.
    8880023    1    1    2    0    0 -0.23375714653E+03  0.29032909909E+03 -0.88212690211E+03  0.11622785669E+04  0.65864270000E+03 0.  0.
    8880022    1    1    2    0    0  0.23375714653E+03 -0.29032909909E+03 -0.24479398707E+03  0.47143306890E+03  0.15294330000E+03 0.  0.
<mgrwt>
<rscale>  0 0.64644753E+03</rscale>
<asrwt>0</asrwt>
<pdfrwt beam="1">  1        2 0.21235634E+00 0.75679825E+03</pdfrwt>
<pdfrwt beam="2">  1       -2 0.38983904E-01 0.75679825E+03</pdfrwt>
<totfact> 0.93908034E+01</totfact>
</mgrwt>
</event>
<event>
 4    1  0.6502538E-008  0.1129307E+04  0.7818608E-02  0.9229107E-01
          2   -1    0    0  501    0  0.00000000000E+00  0.00000000000E+00  0.15306142747E+04  0.15306142747E+04  0.25500000000E-02 0. -1.
         -2   -1    0    0    0  501 -0.00000000000E+00 -0.00000000000E+00 -0.87281670058E+03  0.87281670058E+03  0.25500000000E-02 0.  1.
    8880023    1    1    2    0    0 -0.64974240345E+03  0.64757899538E+03  0.89809261688E+03  0.14428805567E+04  0.65864270000E+03 0.  0.
    8880022    1    1    2    0    0  0.64974240345E+03 -0.64757899538E+03 -0.24029504274E+03  0.96055041861E+03  0.15294330000E+03 0.  0.
<mgrwt>
<rscale>  0 0.10757979E+04</rscale>
<asrwt>0</asrwt>
<pdfrwt beam="1">  1        2 0.23547912E+00 0.11293068E+04</pdfrwt>
<pdfrwt beam="2">  1       -2 0.13427949E+00 0.11293068E+04</pdfrwt>
<totfact> 0.47814583E+00</totfact>
</mgrwt>
</event>
<event>
 4    1  0.6502538E-008  0.6848295E+03  0.7818608E-02  0.1006714E+00
          2   -1    0    0  501    0  0.00000000000E+00  0.00000000000E+00  0.15952816832E+04  0.15952816832E+04  0.25500000000E-02 0. -1.
         -2   -1    0    0    0  501 -0.00000000000E+00 -0.00000000000E+00 -0.75766361220E+03  0.75766361220E+03  0.25500000000E-02 0.  1.
    8880023    1    1    2    0    0  0.17943441238E+03  0.54630777188E+02  0.14993497245E+04  0.16483449375E+04  0.65864270000E+03 0. -1.
    8880022    1    1    2    0    0 -0.17943441238E+03 -0.54630777188E+02 -0.66173165351E+03  0.70460035796E+03  0.15294330000E+03 0.  0.
<mgrwt>
<rscale>  0 0.52801823E+03</rscale>
<asrwt>0</asrwt>
<pdfrwt beam="1">  1        2 0.24542795E+00 0.68482949E+03</pdfrwt>
<pdfrwt beam="2">  1       -2 0.11656363E+00 0.68482949E+03</pdfrwt>
<totfact> 0.66396244E+00</totfact>
</mgrwt>
</event>
<event>
 4    1  0.6502538E-008  0.7293630E+03  0.7818608E-02  0.9892091E-01
          2   -1    0    0  501    0  0.00000000000E+00  0.00000000000E+00  0.20227464205E+04  0.20227464205E+04  0.25500000000E-02 0. -1.
         -2   -1    0    0    0  501 -0.00000000000E+00 -0.00000000000E+00 -0.22617657179E+03  0.22617657180E+03  0.25500000000E-02 0.  1.
    8880023    1    1    2    0    0 -0.34458763189E+01 -0.31328620609E+03  0.17516077512E+04  0.18973929592E+04  0.65864270000E+03 0. -1.
    8880022    1    1    2    0    0  0.34458763189E+01  0.31328620609E+03  0.44962097493E+02  0.35153003316E+03  0.15294330000E+03 0.  0.
<mgrwt>
<rscale>  0 0.60646109E+03</rscale>
<asrwt>0</asrwt>
<pdfrwt beam="1">  1        2 0.31119175E+00 0.72936296E+03</pdfrwt>
<pdfrwt beam="2">  1       -2 0.34796397E-01 0.72936296E+03</pdfrwt>
<totfact> 0.51911199E+01</totfact>
</mgrwt>
</event>
<event>
 4    1  0.6502538E-008  0.8416938E+03  0.7818608E-02  0.9626995E-01
         -2   -1    0    0    0  501 -0.00000000000E+00  0.00000000000E+00  0.11253884128E+04  0.11253884128E+04  0.25500000000E-02 0.  1.
          2   -1    0    0  501    0  0.00000000000E+00 -0.00000000000E+00 -0.10296286236E+04  0.10296286236E+04  0.25500000000E-02 0. -1.
    8880023    1    1    2    0    0 -0.20740192436E+03  0.48127192590E+03  0.86814249504E+03  0.12091814681E+04  0.65864270000E+03 0.  1.
    8880022    1    1    2    0    0  0.20740192436E+03 -0.48127192590E+03 -0.77238270582E+03  0.94583556824E+03  0.15294330000E+03 0.  0.
<mgrwt>
<rscale>  0 0.75534971E+03</rscale>
<asrwt>0</asrwt>
<pdfrwt beam="1">  1        2 0.15840440E+00 0.84169379E+03</pdfrwt>
<pdfrwt beam="2">  1       -2 0.17313668E+00 0.84169379E+03</pdfrwt>
<totfact> 0.49263766E+00</totfact>
</mgrwt>
</event>
<event>
 4    1  0.6502538E-008  0.6922528E+03  0.7818608E-02  0.1003100E+00
          2   -1    0    0  501    0  0.00000000000E+00  0.00000000000E+00  0.67540897107E+03  0.67540897107E+03  0.25500000000E-02 0. -1.
         -2   -1    0    0    0  501 -0.00000000000E+00 -0.00000000000E+00 -0.51630883367E+03  0.51630883367E+03  0.25500000000E-02 0.  1.
    8880023    1    1    2    0    0  0.79648615980E+02  0.19763567995E+03  0.42977158838E+03  0.81481138214E+03  0.65864270000E+03 0.  0.
    8880022    1    1    2    0    0 -0.79648615980E+02 -0.19763567995E+03 -0.27067145098E+03  0.37690642261E+03  0.15294330000E+03 0.  0.
<mgrwt>
<rscale>  0 0.54311712E+03</rscale>
<asrwt>0</asrwt>
<pdfrwt beam="1">  1        2 0.10390907E+00 0.69225282E+03</pdfrwt>
<pdfrwt beam="2">  1       -2 0.79432128E-01 0.69225282E+03</pdfrwt>
<totfact> 0.61220220E+01</totfact>
</mgrwt>
</event>
<event>
 4    1  0.6502538E-008  0.1514452E+04  0.7818608E-02  0.8899498E-01
          2   -1    0    0  501    0  0.00000000000E+00  0.00000000000E+00  0.13653920276E+04  0.13653920276E+04  0.25500000000E-02 0. -1.
         -2   -1    0    0    0  501 -0.00000000000E+00 -0.00000000000E+00 -0.17809602817E+04  0.17809602817E+04  0.25500000000E-02 0.  1.
    8880023    1    1    2    0    0  0.14808814569E+03  0.13556635770E+04 -0.81140990974E+03  0.17181240004E+04  0.65864270000E+03 0.  0.
    8880022    1    1    2    0    0 -0.14808814569E+03 -0.13556635770E+04  0.39584165569E+03  0.14282283089E+04  0.15294330000E+03 0.  0.
<mgrwt>
<rscale>  0 0.14775836E+04</rscale>
<asrwt>0</asrwt>
<pdfrwt beam="1">  1        2 0.21006031E+00 0.15144517E+04</pdfrwt>
<pdfrwt beam="2">  1       -2 0.27399389E+00 0.15144517E+04</pdfrwt>
<totfact> 0.65286552E-01</totfact>
</mgrwt>
</event>
<event>
 4    1  0.6502538E-008  0.1565407E+04  0.7818608E-02  0.8864779E-01
         -2   -1    0    0    0  501 -0.00000000000E+00  0.00000000000E+00  0.87043133866E+03  0.87043133866E+03  0.25500000000E-02 0.  1.
          2   -1    0    0  501    0  0.00000000000E+00 -0.00000000000E+00 -0.30307864541E+04  0.30307864541E+04  0.25500000000E-02 0. -1.
    8880023    1    1    2    0    0 -0.11996257253E+04 -0.75999076408E+03 -0.36569196916E+03  0.16075536273E+04  0.65864270000E+03 0.  1.
    8880022    1    1    2    0    0  0.11996257253E+04  0.75999076408E+03 -0.17946631463E+04  0.22936641655E+04  0.15294330000E+03 0.  0.
<mgrwt>
<rscale>  0 0.15299466E+04</rscale>
<asrwt>0</asrwt>
<pdfrwt beam="1">  1        2 0.46627484E+00 0.15654067E+04</pdfrwt>
<pdfrwt beam="2">  1       -2 0.13391251E+00 0.15654067E+04</pdfrwt>
<totfact> 0.63293917E-01</totfact>
</mgrwt>
</event>
<event>
 4    1  0.6502538E-008  0.1071451E+04  0.7818608E-02  0.9293528E-01
         -2   -1    0    0    0  501 -0.00000000000E+00  0.00000000000E+00  0.63144129846E+03  0.63144129847E+03  0.25500000000E-02 0.  1.
          2   -1    0    0  501    0  0.00000000000E+00 -0.00000000000E+00 -0.24330746339E+04  0.24330746339E+04  0.25500000000E-02 0. -1.
    8880023    1    1    2    0    0  0.76366754149E+03  0.36195141657E+03 -0.19188495686E+04  0.21977240079E+04  0.65864270000E+03 0. -1.
    8880022    1    1    2    0    0 -0.76366754149E+03 -0.36195141657E+03  0.11721623318E+03  0.86679192441E+03  0.15294330000E+03 0.  0.
<mgrwt>
<rscale>  0 0.10138087E+04</rscale>
<asrwt>0</asrwt>
<pdfrwt beam="1">  1        2 0.37431917E+00 0.10714510E+04</pdfrwt>
<pdfrwt beam="2">  1       -2 0.97144816E-01 0.10714510E+04</pdfrwt>
<totfact> 0.33594122E+00</totfact>
</mgrwt>
</event>
<event>
 4    1  0.6502538E-008  0.8410869E+03  0.7818608E-02  0.9628134E-01
         -2   -1    0    0    0  501 -0.00000000000E+00  0.00000000000E+00  0.28029525966E+03  0.28029525968E+03  0.25500000000E-02 0.  1.
          2   -1    0    0  501    0  0.00000000000E+00 -0.00000000000E+00 -0.19473946875E+04  0.19473946875E+04  0.25500000000E-02 0. -1.
    8880023    1    1    2    0    0  0.73693621128E+02 -0.51786693076E+03 -0.13683866329E+04  0.16062095415E+04  0.65864270000E+03 0.  1.
    8880022    1    1    2    0    0 -0.73693621128E+02  0.51786693076E+03 -0.29871279489E+03  0.62148040565E+03  0.15294330000E+03 0.  0.
<mgrwt>
<rscale>  0 0.75461730E+03</rscale>
<asrwt>0</asrwt>
<pdfrwt beam="1">  1        2 0.29959917E+00 0.84108686E+03</pdfrwt>
<pdfrwt beam="2">  1       -2 0.43122349E-01 0.84108686E+03</pdfrwt>
<totfact> 0.37152221E+01</totfact>
</mgrwt>
</event>
<event>
 4    1  0.6502538E-008  0.8578304E+03  0.7818608E-02  0.9597434E-01
          2   -1    0    0  501    0  0.00000000000E+00  0.00000000000E+00  0.32325841587E+04  0.32325841587E+04  0.25500000000E-02 0. -1.
         -2   -1    0    0    0  501 -0.00000000000E+00 -0.00000000000E+00 -0.36938526725E+03  0.36938526726E+03  0.25500000000E-02 0.  1.
    8880023    1    1    2    0    0  0.39921202792E+03  0.37774670858E+03  0.29059143284E+04  0.30298863195E+04  0.65864270000E+03 0. -1.
    8880022    1    1    2    0    0 -0.39921202792E+03 -0.37774670858E+03 -0.42715436945E+02  0.57208310642E+03  0.15294330000E+03 0.  0.
<mgrwt>
<rscale>  0 0.77466219E+03</rscale>
<asrwt>0</asrwt>
<pdfrwt beam="1">  1        2 0.49732062E+00 0.85783042E+03</pdfrwt>
<pdfrwt beam="2">  1       -2 0.56828505E-01 0.85783042E+03</pdfrwt>
<totfact> 0.37752142E+00</totfact>
</mgrwt>
</event>
<event>
 4    1  0.6502538E-008  0.1281543E+04  0.7818608E-02  0.9081664E-01
         -2   -1    0    0    0  501 -0.00000000000E+00  0.00000000000E+00  0.26680417004E+04  0.26680417004E+04  0.25500000000E-02 0.  1.
          2   -1    0    0  501    0  0.00000000000E+00 -0.00000000000E+00 -0.85324356665E+03  0.85324356666E+03  0.25500000000E-02 0. -1.
    8880023    1    1    2    0    0 -0.21932829739E+03  0.10772364739E+04 -0.12372053225E+03  0.12875015725E+04  0.65864270000E+03 0.  0.
    8880022    1    1    2    0    0  0.21932829739E+03 -0.10772364739E+04  0.19385186660E+04  0.22337836946E+04  0.15294330000E+03 0.  1.
<mgrwt>
<rscale>  0 0.12362989E+04</rscale>
<asrwt>0</asrwt>
<pdfrwt beam="1">  1        2 0.13126824E+00 0.12815434E+04</pdfrwt>
<pdfrwt beam="2">  1       -2 0.41046794E+00 0.12815434E+04</pdfrwt>
<totfact> 0.19553433E-01</totfact>
</mgrwt>
</event>
<event>
 4    1  0.6502538E-008  0.9301148E+03  0.7818608E-02  0.9479321E-01
          2   -1    0    0  501    0  0.00000000000E+00  0.00000000000E+00  0.11417170354E+04  0.11417170354E+04  0.25500000000E-02 0. -1.
         -2   -1    0    0    0  501 -0.00000000000E+00 -0.00000000000E+00 -0.39335845173E+04  0.39335845173E+04  0.25500000000E-02 0.  1.
    8880023    1    1    2    0    0  0.65153150761E+03 -0.82522817384E+02  0.91669971039E+03  0.13059295104E+04  0.65864270000E+03 0. -1.
    8880022    1    1    2    0    0 -0.65153150761E+03  0.82522817384E+02 -0.37085671922E+04  0.37693720423E+04  0.15294330000E+03 0.  0.
<mgrwt>
<rscale>  0 0.85825716E+03</rscale>
<asrwt>0</asrwt>
<pdfrwt beam="1">  1        2 0.17564878E+00 0.93011479E+03</pdfrwt>
<pdfrwt beam="2">  1       -2 0.60516684E+00 0.93011479E+03</pdfrwt>
<totfact> 0.98704440E-03</totfact>
</mgrwt>
</event>
<event>
 4    1  0.6502538E-008  0.6946014E+03  0.7818608E-02  0.1002038E+00
         -2   -1    0    0    0  501 -0.00000000000E+00  0.00000000000E+00  0.14268614864E+04  0.14268614864E+04  0.25500000000E-02 0.  1.
          2   -1    0    0  501    0  0.00000000000E+00 -0.00000000000E+00 -0.12327319912E+04  0.12327319912E+04  0.25500000000E-02 0. -1.
    8880023    1    1    2    0    0 -0.22006766394E+03 -0.15203296357E+02 -0.11202325573E+04  0.13181017054E+04  0.65864270000E+03 0. -1.
    8880022    1    1    2    0    0  0.22006766394E+03  0.15203296357E+02  0.13143620526E+04  0.13414917723E+04  0.15294330000E+03 0.  0.
<mgrwt>
<rscale>  0 0.54765610E+03</rscale>
<asrwt>0</asrwt>
<pdfrwt beam="1">  1        2 0.18965108E+00 0.69460141E+03</pdfrwt>
<pdfrwt beam="2">  1       -2 0.21951715E+00 0.69460141E+03</pdfrwt>
<totfact> 0.18768426E+00</totfact>
</mgrwt>
</event>
<event>
 4    1  0.6502538E-008  0.1802498E+04  0.7818608E-02  0.8721156E-01
          2   -1    0    0  501    0  0.00000000000E+00  0.00000000000E+00  0.20900340352E+04  0.20900340352E+04  0.25500000000E-02 0. -1.
         -2   -1    0    0    0  501 -0.00000000000E+00 -0.00000000000E+00 -0.21984960993E+04  0.21984960993E+04  0.25500000000E-02 0.  1.
    8880023    1    1    2    0    0  0.75387971457E+03  0.14989505017E+04  0.11913253926E+04  0.21606141784E+04  0.65864270000E+03 0.  0.
    8880022    1    1    2    0    0 -0.75387971457E+03 -0.14989505017E+04 -0.12997874566E+04  0.21279159561E+04  0.15294330000E+03 0.  0.
<mgrwt>
<rscale>  0 0.17723261E+04</rscale>
<asrwt>0</asrwt>
<pdfrwt beam="1">  1        2 0.32154370E+00 0.18024976E+04</pdfrwt>
<pdfrwt beam="2">  1       -2 0.33823017E+00 0.18024976E+04</pdfrwt>
<totfact> 0.99458297E-02</totfact>
</mgrwt>
</event>
<event>
 4    1  0.6502538E-008  0.6810616E+03  0.7818608E-02  0.1008729E+00
         -2   -1    0    0    0  501 -0.00000000000E+00  0.00000000000E+00  0.23201966526E+03  0.23201966527E+03  0.25500000000E-02 0.  1.
          2   -1    0    0  501    0  0.00000000000E+00 -0.00000000000E+00 -0.17139027826E+04  0.17139027826E+04  0.25500000000E-02 0. -1.
    8880023    1    1    2    0    0 -0.47488561371E+02  0.16667184742E+03 -0.15597973043E+04  0.17020024985E+04  0.65864270000E+03 0.  0.
    8880022    1    1    2    0    0  0.47488561371E+02 -0.16667184742E+03  0.77914186900E+02  0.24391994941E+03  0.15294330000E+03 0.  0.
<mgrwt>
<rscale>  0 0.51982743E+03</rscale>
<asrwt>0</asrwt>
<pdfrwt beam="1">  1        2 0.26367734E+00 0.68106158E+03</pdfrwt>
<pdfrwt beam="2">  1       -2 0.35695334E-01 0.68106158E+03</pdfrwt>
<totfact> 0.73246307E+01</totfact>
</mgrwt>
</event>
<event>
 4    1  0.6502538E-008  0.6716499E+03  0.7818608E-02  0.1014507E+00
          2   -1    0    0  501    0  0.00000000000E+00  0.00000000000E+00  0.10571875503E+04  0.10571875503E+04  0.25500000000E-02 0. -1.
         -2   -1    0    0    0  501 -0.00000000000E+00 -0.00000000000E+00 -0.25473503323E+04  0.25473503323E+04  0.25500000000E-02 0.  1.
    8880023    1    1    2    0    0 -0.70465721362E+02  0.11107647712E+03  0.94591827804E+03  0.11601185270E+04  0.65864270000E+03 0. -1.
    8880022    1    1    2    0    0  0.70465721362E+02 -0.11107647712E+03 -0.24360810600E+04  0.24444193555E+04  0.15294330000E+03 0.  0.
<mgrwt>
<rscale>  0 0.49722153E+03</rscale>
<asrwt>0</asrwt>
<pdfrwt beam="1">  1        2 0.16264424E+00 0.67164991E+03</pdfrwt>
<pdfrwt beam="2">  1       -2 0.39190005E+00 0.67164991E+03</pdfrwt>
<totfact> 0.21156686E-01</totfact>
</mgrwt>
</event>
<event>
 4    1  0.6502538E-008  0.1279848E+04  0.7818608E-02  0.9083160E-01
         -2   -1    0    0    0  501 -0.00000000000E+00  0.00000000000E+00  0.15677923542E+04  0.15677923542E+04  0.25500000000E-02 0.  1.
          2   -1    0    0  501    0  0.00000000000E+00 -0.00000000000E+00 -0.12425296447E+04  0.12425296447E+04  0.25500000000E-02 0. -1.
    8880023    1    1    2    0    0  0.41302579165E+03 -0.10166666482E+04 -0.55523176997E+03  0.13950963776E+04  0.65864270000E+03 0. -1.
    8880022    1    1    2    0    0 -0.41302579165E+03  0.10166666482E+04  0.88049447945E+03  0.14152256214E+04  0.15294330000E+03 0.  0.
<mgrwt>
<rscale>  0 0.12345272E+04</rscale>
<asrwt>0</asrwt>
<pdfrwt beam="1">  1        2 0.19115841E+00 0.12798483E+04</pdfrwt>
<pdfrwt beam="2">  1       -2 0.24119882E+00 0.12798483E+04</pdfrwt>
<totfact> 0.12538468E+00</totfact>
</mgrwt>
</event>
<event>
 4    1  0.6502538E-008  0.7460467E+03  0.7818608E-02  0.9842671E-01
          2   -1    0    0  501    0  0.00000000000E+00  0.00000000000E+00  0.10194455003E+04  0.10194455003E+04  0.25500000000E-02 0. -1.
         -2   -1    0    0    0  501 -0.00000000000E+00 -0.00000000000E+00 -0.75197895611E+03  0.75197895612E+03  0.25500000000E-02 0.  1.
    8880023    1    1    2    0    0  0.32527566384E+03 -0.13027378611E+03  0.81417735191E+03  0.11042963748E+04  0.65864270000E+03 0.  0.
    8880022    1    1    2    0    0 -0.32527566384E+03  0.13027378611E+03 -0.54671080777E+03  0.66712808154E+03  0.15294330000E+03 0.  0.
<mgrwt>
<rscale>  0 0.63122000E+03</rscale>
<asrwt>0</asrwt>
<pdfrwt beam="1">  1        2 0.15683777E+00 0.74604673E+03</pdfrwt>
<pdfrwt beam="2">  1       -2 0.11568907E+00 0.74604673E+03</pdfrwt>
<totfact> 0.14472262E+01</totfact>
</mgrwt>
</event>
<event>
 4    1  0.6502538E-008  0.8565484E+03  0.7818608E-02  0.9599733E-01
         -2   -1    0    0    0  501 -0.00000000000E+00  0.00000000000E+00  0.50888090885E+03  0.50888090886E+03  0.25500000000E-02 0.  1.
          2   -1    0    0  501    0  0.00000000000E+00 -0.00000000000E+00 -0.17788516559E+04  0.17788516559E+04  0.25500000000E-02 0. -1.
    8880023    1    1    2    0    0 -0.34080829761E+03 -0.42861953055E+03  0.42296424349E+02  0.85759208920E+03  0.65864270000E+03 0.  1.
    8880022    1    1    2    0    0  0.34080829761E+03  0.42861953055E+03 -0.13122671714E+04  0.14301404755E+04  0.15294330000E+03 0.  0.
<mgrwt>
<rscale>  0 0.77313863E+03</rscale>
<asrwt>0</asrwt>
<pdfrwt beam="1">  1        2 0.27366948E+00 0.85654842E+03</pdfrwt>
<pdfrwt beam="2">  1       -2 0.78289372E-01 0.85654842E+03</pdfrwt>
<totfact> 0.13067425E+01</totfact>
</mgrwt>
</event>
<event>
 4    1  0.6502538E-008  0.8885767E+03  0.7818608E-02  0.9544624E-01
          2   -1    0    0  501    0  0.00000000000E+00  0.00000000000E+00  0.20099543606E+04  0.20099543606E+04  0.25500000000E-02 0. -1.
         -2   -1    0    0    0  501 -0.00000000000E+00 -0.00000000000E+00 -0.71898938213E+03  0.71898938213E+03  0.25500000000E-02 0.  1.
    8880023    1    1    2    0    0  0.19387622081E+03 -0.56406597411E+03  0.17488241730E+04  0.19616204033E+04  0.65864270000E+03 0. -1.
    8880022    1    1    2    0    0 -0.19387622081E+03  0.56406597411E+03 -0.45785919458E+03  0.76732333942E+03  0.15294330000E+03 0.  0.
<mgrwt>
<rscale>  0 0.81072319E+03</rscale>
<asrwt>0</asrwt>
<pdfrwt beam="1">  1        2 0.30922375E+00 0.88857674E+03</pdfrwt>
<pdfrwt beam="2">  1       -2 0.11061375E+00 0.88857674E+03</pdfrwt>
<totfact> 0.43385230E+00</totfact>
</mgrwt>
</event>
<event>
 4    1  0.6502538E-008  0.9636341E+03  0.7818608E-02  0.9430763E-01
          2   -1    0    0  501    0  0.00000000000E+00  0.00000000000E+00  0.11371216031E+04  0.11371216031E+04  0.25500000000E-02 0. -1.
         -2   -1    0    0    0  501 -0.00000000000E+00 -0.00000000000E+00 -0.75365579484E+03  0.75365579485E+03  0.25500000000E-02 0.  1.
    8880023    1    1    2    0    0 -0.40962504603E+03 -0.57182838636E+03  0.60476504524E+03  0.11376868409E+04  0.65864270000E+03 0.  0.
    8880022    1    1    2    0    0  0.40962504603E+03  0.57182838636E+03 -0.22129923699E+03  0.75309055703E+03  0.15294330000E+03 0.  0.
<mgrwt>
<rscale>  0 0.89586661E+03</rscale>
<asrwt>0</asrwt>
<pdfrwt beam="1">  1        2 0.17494178E+00 0.96363405E+03</pdfrwt>
<pdfrwt beam="2">  1       -2 0.11594705E+00 0.96363405E+03</pdfrwt>
<totfact> 0.11901265E+01</totfact>
</mgrwt>
</event>
<event>
 4    1  0.6502538E-008  0.8770775E+03  0.7818608E-02  0.9563879E-01
          2   -1    0    0  501    0  0.00000000000E+00  0.00000000000E+00  0.17300626182E+04  0.17300626182E+04  0.25500000000E-02 0. -1.
         -2   -1    0    0    0  501 -0.00000000000E+00 -0.00000000000E+00 -0.44897970038E+03  0.44897970039E+03  0.25500000000E-02 0.  1.
    8880023    1    1    2    0    0 -0.32922048586E+03 -0.47651722174E+03  0.13131773361E+04  0.15791452477E+04  0.65864270000E+03 0.  0.
    8880022    1    1    2    0    0  0.32922048586E+03  0.47651722174E+03 -0.32094418330E+02  0.59989707087E+03  0.15294330000E+03 0.  0.
<mgrwt>
<rscale>  0 0.79733728E+03</rscale>
<asrwt>0</asrwt>
<pdfrwt beam="1">  1        2 0.26616348E+00 0.87707753E+03</pdfrwt>
<pdfrwt beam="2">  1       -2 0.69073799E-01 0.87707753E+03</pdfrwt>
<totfact> 0.18289738E+01</totfact>
</mgrwt>
</event>
<event>
 4    1  0.6502538E-008  0.9924496E+03  0.7818608E-02  0.9391503E-01
          2   -1    0    0  501    0  0.00000000000E+00  0.00000000000E+00  0.17061760803E+04  0.17061760803E+04  0.25500000000E-02 0. -1.
         -2   -1    0    0    0  501 -0.00000000000E+00 -0.00000000000E+00 -0.71586675118E+03  0.71586675119E+03  0.25500000000E-02 0.  1.
    8880023    1    1    2    0    0 -0.52408202451E+03  0.52581741890E+03  0.12720412688E+04  0.16133955256E+04  0.65864270000E+03 0.  0.
    8880022    1    1    2    0    0  0.52408202451E+03 -0.52581741890E+03 -0.28173193965E+03  0.80864730585E+03  0.15294330000E+03 0.  0.
<mgrwt>
<rscale>  0 0.92778242E+03</rscale>
<asrwt>0</asrwt>
<pdfrwt beam="1">  1        2 0.26248863E+00 0.99244956E+03</pdfrwt>
<pdfrwt beam="2">  1       -2 0.11013335E+00 0.99244956E+03</pdfrwt>
<totfact> 0.63561916E+00</totfact>
</mgrwt>
</event>
<event>
 4    1  0.6502538E-008  0.1253493E+04  0.7818608E-02  0.9106799E-01
         -2   -1    0    0    0  501 -0.00000000000E+00  0.00000000000E+00  0.13019161230E+04  0.13019161230E+04  0.25500000000E-02 0.  1.
          2   -1    0    0  501    0  0.00000000000E+00 -0.00000000000E+00 -0.14846674502E+04  0.14846674502E+04  0.25500000000E-02 0. -1.
    8880023    1    1    2    0    0 -0.96556021086E+03 -0.45291154446E+03  0.66192618412E+03  0.14175301998E+04  0.65864270000E+03 0.  0.
    8880022    1    1    2    0    0  0.96556021086E+03  0.45291154446E+03 -0.84467751131E+03  0.13690533733E+04  0.15294330000E+03 0.  0.
<mgrwt>
<rscale>  0 0.12069450E+04</rscale>
<asrwt>0</asrwt>
<pdfrwt beam="1">  1        2 0.22841038E+00 0.12534934E+04</pdfrwt>
<pdfrwt beam="2">  1       -2 0.20029479E+00 0.12534934E+04</pdfrwt>
<totfact> 0.16539237E+00</totfact>
</mgrwt>
</event>
<event>
 4    1  0.6502538E-008  0.9941835E+03  0.7818608E-02  0.9389207E-01
         -2   -1    0    0    0  501 -0.00000000000E+00  0.00000000000E+00  0.47286900640E+03  0.47286900640E+03  0.25500000000E-02 0.  1.
          2   -1    0    0  501    0  0.00000000000E+00 -0.00000000000E+00 -0.23481682682E+04  0.23481682682E+04  0.25500000000E-02 0. -1.
    8880023    1    1    2    0    0  0.74401216124E+03 -0.32196069188E+02 -0.18009753031E+04  0.20571613771E+04  0.65864270000E+03 0.  0.
    8880022    1    1    2    0    0 -0.74401216124E+03  0.32196069188E+02 -0.74323958763E+02  0.76387589752E+03  0.15294330000E+03 0.  0.
<mgrwt>
<rscale>  0 0.92969232E+03</rscale>
<asrwt>0</asrwt>
<pdfrwt beam="1">  1        2 0.36125665E+00 0.99418353E+03</pdfrwt>
<pdfrwt beam="2">  1       -2 0.72749079E-01 0.99418353E+03</pdfrwt>
<totfact> 0.73346071E+00</totfact>
</mgrwt>
</event>
<event>
 4    1  0.6502538E-008  0.1253195E+04  0.7818608E-02  0.9107071E-01
          2   -1    0    0  501    0  0.00000000000E+00  0.00000000000E+00  0.10595954747E+04  0.10595954747E+04  0.25500000000E-02 0. -1.
         -2   -1    0    0    0  501 -0.00000000000E+00 -0.00000000000E+00 -0.19213705337E+04  0.19213705337E+04  0.25500000000E-02 0.  1.
    8880023    1    1    2    0    0  0.48941425517E+03 -0.94718622817E+03  0.40610721946E+03  0.13173539175E+04  0.65864270000E+03 0.  0.
    8880022    1    1    2    0    0 -0.48941425517E+03  0.94718622817E+03 -0.12678822785E+04  0.16636120909E+04  0.15294330000E+03 0.  0.
<mgrwt>
<rscale>  0 0.12066325E+04</rscale>
<asrwt>0</asrwt>
<pdfrwt beam="1">  1        2 0.16301469E+00 0.12531952E+04</pdfrwt>
<pdfrwt beam="2">  1       -2 0.29559547E+00 0.12531952E+04</pdfrwt>
<totfact> 0.75820024E-01</totfact>
</mgrwt>
</event>
<event>
 4    1  0.6502538E-008  0.1082040E+04  0.7818608E-02  0.9281321E-01
         -2   -1    0    0    0  501 -0.00000000000E+00  0.00000000000E+00  0.61900027196E+03  0.61900027196E+03  0.25500000000E-02 0.  1.
          2   -1    0    0  501    0  0.00000000000E+00 -0.00000000000E+00 -0.25667182152E+04  0.25667182152E+04  0.25500000000E-02 0. -1.
    8880023    1    1    2    0    0 -0.57861855892E+03  0.63419262063E+03 -0.20396395558E+04  0.23088827256E+04  0.65864270000E+03 0. -1.
    8880022    1    1    2    0    0  0.57861855892E+03 -0.63419262063E+03  0.91921612612E+02  0.87683576151E+03  0.15294330000E+03 0.  0.
<mgrwt>
<rscale>  0 0.10252081E+04</rscale>
<asrwt>0</asrwt>
<pdfrwt beam="1">  1        2 0.39487972E+00 0.10820397E+04</pdfrwt>
<pdfrwt beam="2">  1       -2 0.95230812E-01 0.10820397E+04</pdfrwt>
<totfact> 0.29473989E+00</totfact>
</mgrwt>
</event>
<event>
 4    1  0.6502538E-008  0.8399604E+03  0.7818608E-02  0.9630255E-01
          2   -1    0    0  501    0  0.00000000000E+00  0.00000000000E+00  0.81107781353E+03  0.81107781354E+03  0.25500000000E-02 0. -1.
         -2   -1    0    0    0  501 -0.00000000000E+00 -0.00000000000E+00 -0.97247700669E+03  0.97247700669E+03  0.25500000000E-02 0.  1.
    8880023    1    1    2    0    0  0.45105248908E+03  0.26129471701E+03  0.46040869504E+03  0.95786724016E+03  0.65864270000E+03 0. -1.
    8880022    1    1    2    0    0 -0.45105248908E+03 -0.26129471701E+03 -0.62180788820E+03  0.82568758007E+03  0.15294330000E+03 0.  0.
<mgrwt>
<rscale>  0 0.75325671E+03</rscale>
<asrwt>0</asrwt>
<pdfrwt beam="1">  1        2 0.12478120E+00 0.83996041E+03</pdfrwt>
<pdfrwt beam="2">  1       -2 0.14961185E+00 0.83996041E+03</pdfrwt>
<totfact> 0.10269755E+01</totfact>
</mgrwt>
</event>
<event>
 4    1  0.6502538E-008  0.7858862E+03  0.7818608E-02  0.9742187E-01
          2   -1    0    0  501    0  0.00000000000E+00  0.00000000000E+00  0.18595235646E+04  0.18595235646E+04  0.25500000000E-02 0. -1.
         -2   -1    0    0    0  501 -0.00000000000E+00 -0.00000000000E+00 -0.13210014442E+04  0.13210014442E+04  0.25500000000E-02 0.  1.
    8880023    1    1    2    0    0  0.37130901544E+03  0.21432817727E+03  0.17326674632E+04  0.19025650309E+04  0.65864270000E+03 0. -1.
    8880022    1    1    2    0    0 -0.37130901544E+03 -0.21432817727E+03 -0.11941453428E+04  0.12779599779E+04  0.15294330000E+03 0.  0.
<mgrwt>
<rscale>  0 0.68559574E+03</rscale>
<asrwt>0</asrwt>
<pdfrwt beam="1">  1        2 0.28608055E+00 0.78588623E+03</pdfrwt>
<pdfrwt beam="2">  1       -2 0.20323099E+00 0.78588623E+03</pdfrwt>
<totfact> 0.10469956E+00</totfact>
</mgrwt>
</event>
<event>
 4    1  0.6502538E-008  0.1326173E+04  0.7818608E-02  0.9043281E-01
         -2   -1    0    0    0  501 -0.00000000000E+00  0.00000000000E+00  0.16627245182E+04  0.16627245183E+04  0.25500000000E-02 0.  1.
          2   -1    0    0  501    0  0.00000000000E+00 -0.00000000000E+00 -0.27584536988E+04  0.27584536988E+04  0.25500000000E-02 0. -1.
    8880023    1    1    2    0    0 -0.12490546209E+02  0.11509862048E+04 -0.23584412958E+04  0.27057311044E+04  0.65864270000E+03 0.  0.
    8880022    1    1    2    0    0  0.12490546209E+02 -0.11509862048E+04  0.12627121153E+04  0.17154471127E+04  0.15294330000E+03 0.  0.
<mgrwt>
<rscale>  0 0.12828450E+04</rscale>
<asrwt>0</asrwt>
<pdfrwt beam="1">  1        2 0.42437749E+00 0.13261732E+04</pdfrwt>
<pdfrwt beam="2">  1       -2 0.25580377E+00 0.13261732E+04</pdfrwt>
<totfact> 0.13950381E-01</totfact>
</mgrwt>
</event>
<event>
 4    1  0.6502538E-008  0.7124107E+03  0.7818608E-02  0.9949156E-01
          2   -1    0    0  501    0  0.00000000000E+00  0.00000000000E+00  0.11902728138E+04  0.11902728138E+04  0.25500000000E-02 0. -1.
         -2   -1    0    0    0  501 -0.00000000000E+00 -0.00000000000E+00 -0.63475894201E+03  0.63475894201E+03  0.25500000000E-02 0.  1.
    8880023    1    1    2    0    0  0.26785877927E+03  0.44390704308E+02  0.10330092713E+04  0.12548454969E+04  0.65864270000E+03 0. -1.
    8880022    1    1    2    0    0 -0.26785877927E+03 -0.44390704308E+02 -0.47749539952E+03  0.57018625890E+03  0.15294330000E+03 0.  0.
<mgrwt>
<rscale>  0 0.57937016E+03</rscale>
<asrwt>0</asrwt>
<pdfrwt beam="1">  1        2 0.18311889E+00 0.71241074E+03</pdfrwt>
<pdfrwt beam="2">  1       -2 0.97655223E-01 0.71241074E+03</pdfrwt>
<totfact> 0.17166813E+01</totfact>
</mgrwt>
</event>
<event>
 4    1  0.6502538E-008  0.1148244E+04  0.7818608E-02  0.9209153E-01
         -2   -1    0    0    0  501 -0.00000000000E+00  0.00000000000E+00  0.61637640333E+03  0.61637640333E+03  0.25500000000E-02 0.  1.
          2   -1    0    0  501    0  0.00000000000E+00 -0.00000000000E+00 -0.19000967374E+04  0.19000967374E+04  0.25500000000E-02 0. -1.
    8880023    1    1    2    0    0 -0.63991307121E+03 -0.68932203475E+03 -0.99883481205E+03  0.15218852763E+04  0.65864270000E+03 0.  0.
    8880022    1    1    2    0    0  0.63991307121E+03  0.68932203475E+03 -0.28488552199E+03  0.99458786437E+03  0.15294330000E+03 0.  0.
<mgrwt>
<rscale>  0 0.10959457E+04</rscale>
<asrwt>0</asrwt>
<pdfrwt beam="1">  1        2 0.29232257E+00 0.11482438E+04</pdfrwt>
<pdfrwt beam="2">  1       -2 0.94827140E-01 0.11482438E+04</pdfrwt>
<totfact> 0.69931502E+00</totfact>
</mgrwt>
</event>
<event>
 4    1  0.6502538E-008  0.1460870E+04  0.7818608E-02  0.8937773E-01
         -2   -1    0    0    0  501 -0.00000000000E+00  0.00000000000E+00  0.17029459576E+04  0.17029459576E+04  0.25500000000E-02 0.  1.
          2   -1    0    0  501    0  0.00000000000E+00 -0.00000000000E+00 -0.16949596659E+04  0.16949596659E+04  0.25500000000E-02 0. -1.
    8880023    1    1    2    0    0  0.26985431770E+03  0.12757383703E+04 -0.97624578766E+03  0.17570417714E+04  0.65864270000E+03 0.  0.
    8880022    1    1    2    0    0 -0.26985431770E+03 -0.12757383703E+04  0.98423207936E+03  0.16408638521E+04  0.15294330000E+03 0.  0.
<mgrwt>
<rscale>  0 0.14223844E+04</rscale>
<asrwt>0</asrwt>
<pdfrwt beam="1">  1        2 0.26076303E+00 0.14608696E+04</pdfrwt>
<pdfrwt beam="2">  1       -2 0.26199169E+00 0.14608696E+04</pdfrwt>
<totfact> 0.50483192E-01</totfact>
</mgrwt>
</event>
<event>
 4    1  0.6502538E-008  0.6893132E+03  0.7818608E-02  0.1004481E+00
          2   -1    0    0  501    0  0.00000000000E+00  0.00000000000E+00  0.16983357718E+04  0.16983357718E+04  0.25500000000E-02 0. -1.
         -2   -1    0    0    0  501 -0.00000000000E+00 -0.00000000000E+00 -0.28314997667E+03  0.28314997668E+03  0.25500000000E-02 0.  1.
    8880023    1    1    2    0    0  0.19811565047E+03  0.45745504161E+02  0.15479565543E+04  0.16944976135E+04  0.65864270000E+03 0. -1.
    8880022    1    1    2    0    0 -0.19811565047E+03 -0.45745504161E+02 -0.13277075913E+03  0.28698813496E+03  0.15294330000E+03 0.  0.
<mgrwt>
<rscale>  0 0.53728423E+03</rscale>
<asrwt>0</asrwt>
<pdfrwt beam="1">  1        2 0.26128242E+00 0.68931319E+03</pdfrwt>
<pdfrwt beam="2">  1       -2 0.43561536E-01 0.68931319E+03</pdfrwt>
<totfact> 0.50678108E+01</totfact>
</mgrwt>
</event>
<event>
 4    1  0.6502538E-008  0.9449650E+03  0.7818608E-02  0.9457396E-01
         -2   -1    0    0    0  501 -0.00000000000E+00  0.00000000000E+00  0.16756854138E+04  0.16756854138E+04  0.25500000000E-02 0.  1.
          2   -1    0    0  501    0  0.00000000000E+00 -0.00000000000E+00 -0.11532791774E+04  0.11532791774E+04  0.25500000000E-02 0. -1.
    8880023    1    1    2    0    0 -0.67033898910E+03 -0.98966247353E+02 -0.86263250431E+03  0.12794896335E+04  0.65864270000E+03 0. -1.
    8880022    1    1    2    0    0  0.67033898910E+03  0.98966247353E+02  0.13850387407E+04  0.15494749577E+04  0.15294330000E+03 0.  0.
<mgrwt>
<rscale>  0 0.87499083E+03</rscale>
<asrwt>0</asrwt>
<pdfrwt beam="1">  1        2 0.17742757E+00 0.94496502E+03</pdfrwt>
<pdfrwt beam="2">  1       -2 0.25779776E+00 0.94496502E+03</pdfrwt>
<totfact> 0.11696017E+00</totfact>
</mgrwt>
</event>
<event>
 4    1  0.6502538E-008  0.7822369E+03  0.7818608E-02  0.9750609E-01
         -2   -1    0    0    0  501 -0.00000000000E+00  0.00000000000E+00  0.12821337850E+04  0.12821337850E+04  0.25500000000E-02 0.  1.
          2   -1    0    0  501    0  0.00000000000E+00 -0.00000000000E+00 -0.66579516160E+03  0.66579516160E+03  0.25500000000E-02 0. -1.
    8880023    1    1    2    0    0 -0.14548557817E+03  0.39612909322E+03 -0.36920003632E+03  0.86498739010E+03  0.65864270000E+03 0. -1.
    8880022    1    1    2    0    0  0.14548557817E+03 -0.39612909322E+03  0.98553865969E+03  0.10829415565E+04  0.15294330000E+03 0.  0.
<mgrwt>
<rscale>  0 0.68081892E+03</rscale>
<asrwt>0</asrwt>
<pdfrwt beam="1">  1        2 0.10243003E+00 0.78223687E+03</pdfrwt>
<pdfrwt beam="2">  1       -2 0.19725135E+00 0.78223687E+03</pdfrwt>
<totfact> 0.61500455E+00</totfact>
</mgrwt>
</event>
<event>
 4    1  0.6502538E-008  0.8695709E+03  0.7818608E-02  0.9576760E-01
          2   -1    0    0  501    0  0.00000000000E+00  0.00000000000E+00  0.48687486837E+04  0.48687486837E+04  0.25500000000E-02 0. -1.
         -2   -1    0    0    0  501 -0.00000000000E+00 -0.00000000000E+00 -0.15838522850E+03  0.15838522852E+03  0.25500000000E-02 0.  1.
    8880023    1    1    2    0    0  0.24051320660E+03 -0.51429253314E+03  0.40527222302E+04  0.41449621341E+04  0.65864270000E+03 0.  0.
    8880022    1    1    2    0    0 -0.24051320660E+03  0.51429253314E+03  0.65764122507E+03  0.88217177813E+03  0.15294330000E+03 0.  0.
<mgrwt>
<rscale>  0 0.78853630E+03</rscale>
<asrwt>0</asrwt>
<pdfrwt beam="1">  1        2 0.74903820E+00 0.86957094E+03</pdfrwt>
<pdfrwt beam="2">  1       -2 0.24366960E-01 0.86957094E+03</pdfrwt>
<totfact> 0.83969998E-01</totfact>
</mgrwt>
</event>
<event>
 4    1  0.6502538E-008  0.8639096E+03  0.7818608E-02  0.9586646E-01
          2   -1    0    0  501    0  0.00000000000E+00  0.00000000000E+00  0.19325708340E+04  0.19325708340E+04  0.25500000000E-02 0. -1.
         -2   -1    0    0    0  501 -0.00000000000E+00 -0.00000000000E+00 -0.98332356866E+03  0.98332356866E+03  0.25500000000E-02 0.  1.
    8880023    1    1    2    0    0 -0.45877488638E+03 -0.31946082828E+03  0.17357781572E+04  0.19388825737E+04  0.65864270000E+03 0.  0.
    8880022    1    1    2    0    0  0.45877488638E+03  0.31946082828E+03 -0.78653089185E+03  0.97701182901E+03  0.15294330000E+03 0.  0.
<mgrwt>
<rscale>  0 0.78186346E+03</rscale>
<asrwt>0</asrwt>
<pdfrwt beam="1">  1        2 0.29731858E+00 0.86390962E+03</pdfrwt>
<pdfrwt beam="2">  1       -2 0.15128055E+00 0.86390962E+03</pdfrwt>
<totfact> 0.21690322E+00</totfact>
</mgrwt>
</event>
<event>
 4    1  0.6502538E-008  0.7789184E+03  0.7818608E-02  0.9758384E-01
         -2   -1    0    0    0  501 -0.00000000000E+00  0.00000000000E+00  0.60691344295E+03  0.60691344295E+03  0.25500000000E-02 0.  1.
          2   -1    0    0  501    0  0.00000000000E+00 -0.00000000000E+00 -0.11870849723E+04  0.11870849723E+04  0.25500000000E-02 0. -1.
    8880023    1    1    2    0    0  0.15813936152E+03 -0.38457188649E+03 -0.94174803617E+03  0.12221305836E+04  0.65864270000E+03 0. -1.
    8880022    1    1    2    0    0 -0.15813936152E+03  0.38457188649E+03  0.36157650683E+03  0.57186783162E+03  0.15294330000E+03 0.  0.
<mgrwt>
<rscale>  0 0.67644529E+03</rscale>
<asrwt>0</asrwt>
<pdfrwt beam="1">  1        2 0.18262846E+00 0.77891835E+03</pdfrwt>
<pdfrwt beam="2">  1       -2 0.93371299E-01 0.77891835E+03</pdfrwt>
<totfact> 0.19005350E+01</totfact>
</mgrwt>
</event>
<event>
 4    1  0.6502538E-008  0.1435945E+04  0.7818608E-02  0.8956244E-01
         -2   -1    0    0    0  501 -0.00000000000E+00  0.00000000000E+00  0.70601103238E+03  0.70601103238E+03  0.25500000000E-02 0.  1.
          2   -1    0    0  501    0  0.00000000000E+00 -0.00000000000E+00 -0.32026815652E+04  0.32026815652E+04  0.25500000000E-02 0. -1.
    8880023    1    1    2    0    0  0.12460896003E+04 -0.27457026547E+03 -0.21362285280E+04  0.25739873063E+04  0.65864270000E+03 0.  0.
    8880022    1    1    2    0    0 -0.12460896003E+04  0.27457026547E+03 -0.36044200478E+03  0.13347052913E+04  0.15294330000E+03 0.  0.
<mgrwt>
<rscale>  0 0.13966541E+04</rscale>
<asrwt>0</asrwt>
<pdfrwt beam="1">  1        2 0.49272023E+00 0.14359451E+04</pdfrwt>
<pdfrwt beam="2">  1       -2 0.10861708E+00 0.14359451E+04</pdfrwt>
<totfact> 0.84322420E-01</totfact>
</mgrwt>
</event>
<event>
 4    1  0.6502538E-008  0.8822206E+03  0.7818608E-02  0.9555198E-01
         -2   -1    0    0    0  501 -0.00000000000E+00  0.00000000000E+00  0.10644971305E+04  0.10644971305E+04  0.25500000000E-02 0.  1.
          2   -1    0    0  501    0  0.00000000000E+00 -0.00000000000E+00 -0.37843536238E+04  0.37843536238E+04  0.25500000000E-02 0. -1.
    8880023    1    1    2    0    0  0.43847999675E+03  0.39017714351E+03 -0.36407720517E+04  0.37461359091E+04  0.65864270000E+03 0.  0.
    8880022    1    1    2    0    0 -0.43847999675E+03 -0.39017714351E+03  0.92091555849E+03  0.11027148452E+04  0.15294330000E+03 0.  1.
<mgrwt>
<rscale>  0 0.80333798E+03</rscale>
<asrwt>0</asrwt>
<pdfrwt beam="1">  1        2 0.58220824E+00 0.88222056E+03</pdfrwt>
<pdfrwt beam="2">  1       -2 0.16376879E+00 0.88222056E+03</pdfrwt>
<totfact> 0.12740265E-01</totfact>
</mgrwt>
</event>
<event>
 4    1  0.6502538E-008  0.1508423E+04  0.7818608E-02  0.8903711E-01
         -2   -1    0    0    0  501 -0.00000000000E+00  0.00000000000E+00  0.19233728773E+04  0.19233728773E+04  0.25500000000E-02 0.  1.
          2   -1    0    0  501    0  0.00000000000E+00 -0.00000000000E+00 -0.14880657778E+04  0.14880657778E+04  0.25500000000E-02 0. -1.
    8880023    1    1    2    0    0 -0.12567111917E+04  0.51206177661E+03 -0.67388900304E+03  0.16521098260E+04  0.65864270000E+03 0.  0.
    8880022    1    1    2    0    0  0.12567111917E+04 -0.51206177661E+03  0.11091961025E+04  0.17593288292E+04  0.15294330000E+03 0.  0.
<mgrwt>
<rscale>  0 0.14713804E+04</rscale>
<asrwt>0</asrwt>
<pdfrwt beam="1">  1        2 0.22893320E+00 0.15084232E+04</pdfrwt>
<pdfrwt beam="2">  1       -2 0.29590352E+00 0.15084232E+04</pdfrwt>
<totfact> 0.40811259E-01</totfact>
</mgrwt>
</event>
<event>
 4    1  0.6502538E-008  0.1060054E+04  0.7818608E-02  0.9306891E-01
          2   -1    0    0  501    0  0.00000000000E+00  0.00000000000E+00  0.26740910615E+04  0.26740910615E+04  0.25500000000E-02 0. -1.
         -2   -1    0    0    0  501 -0.00000000000E+00 -0.00000000000E+00 -0.44266573989E+03  0.44266573990E+03  0.25500000000E-02 0.  1.
    8880023    1    1    2    0    0  0.77359631908E+03 -0.30241362478E+03  0.19623402182E+04  0.22303575058E+04  0.65864270000E+03 0.  0.
    8880022    1    1    2    0    0 -0.77359631908E+03  0.30241362478E+03  0.26908510337E+03  0.88639929559E+03  0.15294330000E+03 0.  0.
<mgrwt>
<rscale>  0 0.10015092E+04</rscale>
<asrwt>0</asrwt>
<pdfrwt beam="1">  1        2 0.41139863E+00 0.10600545E+04</pdfrwt>
<pdfrwt beam="2">  1       -2 0.68102421E-01 0.10600545E+04</pdfrwt>
<totfact> 0.54673990E+00</totfact>
</mgrwt>
</event>
<event>
 4    1  0.6502538E-008  0.8371651E+03  0.7818608E-02  0.9635549E-01
          2   -1    0    0  501    0  0.00000000000E+00  0.00000000000E+00  0.89738217804E+03  0.89738217805E+03  0.25500000000E-02 0. -1.
         -2   -1    0    0    0  501 -0.00000000000E+00 -0.00000000000E+00 -0.10784774298E+04  0.10784774298E+04  0.25500000000E-02 0.  1.
    8880023    1    1    2    0    0  0.50782380124E+03 -0.95656769795E+02  0.59780713737E+03  0.10286976283E+04  0.65864270000E+03 0. -1.
    8880022    1    1    2    0    0 -0.50782380124E+03  0.95656769795E+02 -0.77890238914E+03  0.94716197957E+03  0.15294330000E+03 0.  0.
<mgrwt>
<rscale>  0 0.74987340E+03</rscale>
<asrwt>0</asrwt>
<pdfrwt beam="1">  1        2 0.13805880E+00 0.83716512E+03</pdfrwt>
<pdfrwt beam="2">  1       -2 0.16591960E+00 0.83716512E+03</pdfrwt>
<totfact> 0.67667124E+00</totfact>
</mgrwt>
</event>
<event>
 4    1  0.6502538E-008  0.1595274E+04  0.7818608E-02  0.8845134E-01
          2   -1    0    0  501    0  0.00000000000E+00  0.00000000000E+00  0.36112798685E+04  0.36112798685E+04  0.25500000000E-02 0. -1.
         -2   -1    0    0    0  501 -0.00000000000E+00 -0.00000000000E+00 -0.10001129522E+04  0.10001129522E+04  0.25500000000E-02 0.  1.
    8880023    1    1    2    0    0 -0.59261993004E+03 -0.13266081154E+04  0.27125695904E+04  0.31468923499E+04  0.65864270000E+03 0.  0.
    8880022    1    1    2    0    0  0.59261993004E+03  0.13266081154E+04 -0.10140267407E+03  0.14645004707E+04  0.15294330000E+03 0.  0.
<mgrwt>
<rscale>  0 0.15605866E+04</rscale>
<asrwt>0</asrwt>
<pdfrwt beam="1">  1        2 0.55558153E+00 0.15952735E+04</pdfrwt>
<pdfrwt beam="2">  1       -2 0.15386353E+00 0.15952735E+04</pdfrwt>
<totfact> 0.17886277E-01</totfact>
</mgrwt>
</event>
<event>
 4    1  0.6502538E-008  0.8210230E+03  0.7818608E-02  0.9667058E-01
         -2   -1    0    0    0  501 -0.00000000000E+00  0.00000000000E+00  0.49025406400E+03  0.49025406401E+03  0.25500000000E-02 0.  1.
          2   -1    0    0  501    0  0.00000000000E+00 -0.00000000000E+00 -0.33190288724E+04  0.33190288724E+04  0.25500000000E-02 0. -1.
    8880023    1    1    2    0    0 -0.40943280305E+03  0.26950560965E+03 -0.31150246818E+04  0.32214061322E+04  0.65864270000E+03 0. -1.
    8880022    1    1    2    0    0  0.40943280305E+03 -0.26950560965E+03  0.28624987345E+03  0.58787680420E+03  0.15294330000E+03 0.  0.
<mgrwt>
<rscale>  0 0.73012469E+03</rscale>
<asrwt>0</asrwt>
<pdfrwt beam="1">  1        2 0.51061981E+00 0.82102296E+03</pdfrwt>
<pdfrwt beam="2">  1       -2 0.75423704E-01 0.82102296E+03</pdfrwt>
<totfact> 0.18149146E+00</totfact>
</mgrwt>
</event>
<event>
 4    1  0.6502538E-008  0.9729109E+03  0.7818608E-02  0.9417889E-01
         -2   -1    0    0    0  501 -0.00000000000E+00  0.00000000000E+00  0.18995959659E+04  0.18995959659E+04  0.25500000000E-02 0.  1.
          2   -1    0    0  501    0  0.00000000000E+00 -0.00000000000E+00 -0.79146991149E+03  0.79146991150E+03  0.25500000000E-02 0. -1.
    8880023    1    1    2    0    0  0.64613279188E+03 -0.30863862745E+03 -0.37050381816E+03  0.10410709258E+04  0.65864270000E+03 0. -1.
    8880022    1    1    2    0    0 -0.64613279188E+03  0.30863862745E+03  0.14786298726E+04  0.16499949516E+04  0.15294330000E+03 0.  0.
<mgrwt>
<rscale>  0 0.90617958E+03</rscale>
<asrwt>0</asrwt>
<pdfrwt beam="1">  1        2 0.12176460E+00 0.97291089E+03</pdfrwt>
<pdfrwt beam="2">  1       -2 0.29224553E+00 0.97291089E+03</pdfrwt>
<totfact> 0.12474353E+00</totfact>
</mgrwt>
</event>
<event>
 4    1  0.6502538E-008  0.1131709E+04  0.7818608E-02  0.9226546E-01
          2   -1    0    0  501    0  0.00000000000E+00  0.00000000000E+00  0.19038469399E+04  0.19038469399E+04  0.25500000000E-02 0. -1.
         -2   -1    0    0    0  501 -0.00000000000E+00 -0.00000000000E+00 -0.68325085175E+03  0.68325085175E+03  0.25500000000E-02 0.  1.
    8880023    1    1    2    0    0  0.33937828673E+03  0.85544053325E+03  0.12063006399E+04  0.16540639551E+04  0.65864270000E+03 0.  0.
    8880022    1    1    2    0    0 -0.33937828673E+03 -0.85544053325E+03  0.14295448308E+02  0.93303383662E+03  0.15294330000E+03 0.  0.
<mgrwt>
<rscale>  0 0.10783576E+04</rscale>
<asrwt>0</asrwt>
<pdfrwt beam="1">  1        2 0.29289952E+00 0.11317095E+04</pdfrwt>
<pdfrwt beam="2">  1       -2 0.10511552E+00 0.11317095E+04</pdfrwt>
<totfact> 0.54537488E+00</totfact>
</mgrwt>
</event>
<event>
 4    1  0.6502538E-008  0.1786114E+04  0.7818608E-02  0.8730257E-01
          2   -1    0    0  501    0  0.00000000000E+00  0.00000000000E+00  0.15638161264E+04  0.15638161264E+04  0.25500000000E-02 0. -1.
         -2   -1    0    0    0  501 -0.00000000000E+00 -0.00000000000E+00 -0.20153215297E+04  0.20153215297E+04  0.25500000000E-02 0.  1.
    8880023    1    1    2    0    0 -0.11693239440E+04 -0.11785904710E+04 -0.64865733063E+03  0.19002527525E+04  0.65864270000E+03 0.  0.
    8880022    1    1    2    0    0  0.11693239440E+04  0.11785904710E+04  0.19715192729E+03  0.16788849037E+04  0.15294330000E+03 0.  0.
<mgrwt>
<rscale>  0 0.17556314E+04</rscale>
<asrwt>0</asrwt>
<pdfrwt beam="1">  1        2 0.24058710E+00 0.17861143E+04</pdfrwt>
<pdfrwt beam="2">  1       -2 0.31004946E+00 0.17861143E+04</pdfrwt>
<totfact> 0.29445201E-01</totfact>
</mgrwt>
</event>
<event>
 4    1  0.6502538E-008  0.8118383E+03  0.7818608E-02  0.9685760E-01
         -2   -1    0    0    0  501 -0.00000000000E+00  0.00000000000E+00  0.70403689154E+03  0.70403689154E+03  0.25500000000E-02 0.  1.
          2   -1    0    0  501    0  0.00000000000E+00 -0.00000000000E+00 -0.23364787671E+04  0.23364787671E+04  0.25500000000E-02 0. -1.
    8880023    1    1    2    0    0  0.20215991654E+03 -0.42942127170E+03 -0.21642386495E+04  0.23114952733E+04  0.65864270000E+03 0.  0.
    8880022    1    1    2    0    0 -0.20215991654E+03  0.42942127170E+03  0.53179677391E+03  0.72902038532E+03  0.15294330000E+03 0.  0.
<mgrwt>
<rscale>  0 0.71870975E+03</rscale>
<asrwt>0</asrwt>
<pdfrwt beam="1">  1        2 0.35945827E+00 0.81183833E+03</pdfrwt>
<pdfrwt beam="2">  1       -2 0.10831337E+00 0.81183833E+03</pdfrwt>
<totfact> 0.30486039E+00</totfact>
</mgrwt>
</event>
<event>
 4    1  0.6502538E-008  0.6594151E+03  0.7818608E-02  0.1024764E+00
         -2   -1    0    0    0  501 -0.00000000000E+00  0.00000000000E+00  0.12156013471E+03  0.12156013474E+03  0.25500000000E-02 0.  1.
          2   -1    0    0  501    0  0.00000000000E+00 -0.00000000000E+00 -0.37090178310E+04  0.37090178310E+04  0.25500000000E-02 0. -1.
    8880023    1    1    2    0    0  0.31422678897E+02 -0.55335448880E+01 -0.36126375514E+04  0.36723260053E+04  0.65864270000E+03 0. -1.
    8880022    1    1    2    0    0 -0.31422678897E+02  0.55335448880E+01  0.25179855138E+02  0.15825196045E+03  0.15294330000E+03 0.  0.
<mgrwt>
<rscale>  0 0.46005987E+03</rscale>
<asrwt>0</asrwt>
<pdfrwt beam="1">  1        2 0.57061804E+00 0.65941505E+03</pdfrwt>
<pdfrwt beam="2">  1       -2 0.18701562E-01 0.65941505E+03</pdfrwt>
<totfact> 0.15262644E+01</totfact>
</mgrwt>
</event>
<event>
 4    1  0.6502538E-008  0.8480835E+03  0.7818608E-02  0.9615122E-01
         -2   -1    0    0    0  501 -0.00000000000E+00  0.00000000000E+00  0.41587335245E+03  0.41587335246E+03  0.25500000000E-02 0.  1.
          2   -1    0    0  501    0  0.00000000000E+00 -0.00000000000E+00 -0.20843590827E+04  0.20843590827E+04  0.25500000000E-02 0. -1.
    8880023    1    1    2    0    0  0.34330219831E+02  0.53315744580E+03 -0.17441253999E+04  0.19393862542E+04  0.65864270000E+03 0. -1.
    8880022    1    1    2    0    0 -0.34330219831E+02 -0.53315744580E+03  0.75639669723E+02  0.56084618093E+03  0.15294330000E+03 0.  0.
<mgrwt>
<rscale>  0 0.76303311E+03</rscale>
<asrwt>0</asrwt>
<pdfrwt beam="1">  1        2 0.32067062E+00 0.84808351E+03</pdfrwt>
<pdfrwt beam="2">  1       -2 0.63980517E-01 0.84808351E+03</pdfrwt>
<totfact> 0.13850686E+01</totfact>
</mgrwt>
</event>
<event>
 4    1  0.6502538E-008  0.9584654E+03  0.7818608E-02  0.9438037E-01
          2   -1    0    0  501    0  0.00000000000E+00  0.00000000000E+00  0.27873536415E+04  0.27873536415E+04  0.25500000000E-02 0. -1.
         -2   -1    0    0    0  501 -0.00000000000E+00 -0.00000000000E+00 -0.45611455630E+03  0.45611455631E+03  0.25500000000E-02 0.  1.
    8880023    1    1    2    0    0 -0.55687856175E+03  0.41800961818E+03  0.23419380920E+04  0.25304801928E+04  0.65864270000E+03 0. -1.
    8880022    1    1    2    0    0  0.55687856175E+03 -0.41800961818E+03 -0.10699006814E+02  0.71298800494E+03  0.15294330000E+03 0.  0.
<mgrwt>
<rscale>  0 0.89010383E+03</rscale>
<asrwt>0</asrwt>
<pdfrwt beam="1">  1        2 0.42882364E+00 0.95846543E+03</pdfrwt>
<pdfrwt beam="2">  1       -2 0.70171470E-01 0.95846543E+03</pdfrwt>
<totfact> 0.44521650E+00</totfact>
</mgrwt>
</event>
<event>
 4    1  0.6502538E-008  0.7494657E+03  0.7818608E-02  0.9833185E-01
         -2   -1    0    0    0  501 -0.00000000000E+00  0.00000000000E+00  0.53256949644E+03  0.53256949645E+03  0.25500000000E-02 0.  1.
          2   -1    0    0  501    0  0.00000000000E+00 -0.00000000000E+00 -0.18023065124E+04  0.18023065124E+04  0.25500000000E-02 0. -1.
    8880023    1    1    2    0    0 -0.35760925052E+03  0.20751880198E+01 -0.16367034287E+04  0.18001380509E+04  0.65864270000E+03 0. -1.
    8880022    1    1    2    0    0  0.35760925052E+03 -0.20751880198E+01  0.36696641282E+03  0.53473795789E+03  0.15294330000E+03 0.  0.
<mgrwt>
<rscale>  0 0.63611648E+03</rscale>
<asrwt>0</asrwt>
<pdfrwt beam="1">  1        2 0.27727792E+00 0.74946574E+03</pdfrwt>
<pdfrwt beam="2">  1       -2 0.81933770E-01 0.74946574E+03</pdfrwt>
<totfact> 0.11614611E+01</totfact>
</mgrwt>
</event>
<event>
 4    1  0.6502538E-008  0.8800118E+03  0.7818608E-02  0.9558912E-01
          2   -1    0    0  501    0  0.00000000000E+00  0.00000000000E+00  0.20750973602E+04  0.20750973602E+04  0.25500000000E-02 0. -1.
         -2   -1    0    0    0  501 -0.00000000000E+00 -0.00000000000E+00 -0.66410291354E+03  0.66410291354E+03  0.25500000000E-02 0.  1.
    8880023    1    1    2    0    0 -0.37965917219E+03 -0.44324870863E+03  0.18122579094E+04  0.20146214138E+04  0.65864270000E+03 0. -1.
    8880022    1    1    2    0    0  0.37965917219E+03  0.44324870863E+03 -0.40126346270E+03  0.72457885992E+03  0.15294330000E+03 0.  0.
<mgrwt>
<rscale>  0 0.80076366E+03</rscale>
<asrwt>0</asrwt>
<pdfrwt beam="1">  1        2 0.31924575E+00 0.88001177E+03</pdfrwt>
<pdfrwt beam="2">  1       -2 0.10216968E+00 0.88001177E+03</pdfrwt>
<totfact> 0.48443758E+00</totfact>
</mgrwt>
</event>
<event>
 4    1  0.6502538E-008  0.1506921E+04  0.7818608E-02  0.8904764E-01
         -2   -1    0    0    0  501 -0.00000000000E+00  0.00000000000E+00  0.13334825229E+04  0.13334825229E+04  0.25500000000E-02 0.  1.
          2   -1    0    0  501    0  0.00000000000E+00 -0.00000000000E+00 -0.15950449705E+04  0.15950449705E+04  0.25500000000E-02 0. -1.
    8880023    1    1    2    0    0  0.24181811953E+03  0.13336129639E+04  0.12145779879E+03  0.15118074426E+04  0.65864270000E+03 0.  0.
    8880022    1    1    2    0    0 -0.24181811953E+03 -0.13336129639E+04 -0.38302024641E+03  0.14167200508E+04  0.15294330000E+03 0.  0.
<mgrwt>
<rscale>  0 0.14698341E+04</rscale>
<asrwt>0</asrwt>
<pdfrwt beam="1">  1        2 0.24539153E+00 0.15069206E+04</pdfrwt>
<pdfrwt beam="2">  1       -2 0.20515116E+00 0.15069206E+04</pdfrwt>
<totfact> 0.12992763E+00</totfact>
</mgrwt>
</event>
<event>
 4    1  0.6502538E-008  0.6896140E+03  0.7818608E-02  0.1004337E+00
          2   -1    0    0  501    0  0.00000000000E+00  0.00000000000E+00  0.61998122400E+03  0.61998122401E+03  0.25500000000E-02 0. -1.
         -2   -1    0    0    0  501 -0.00000000000E+00 -0.00000000000E+00 -0.89109547348E+03  0.89109547348E+03  0.25500000000E-02 0.  1.
    8880023    1    1    2    0    0 -0.95011976972E+01  0.20412497310E+03  0.39709954343E+03  0.79577354257E+03  0.65864270000E+03 0. -1.
    8880022    1    1    2    0    0  0.95011976972E+01 -0.20412497310E+03 -0.66821379291E+03  0.71530315492E+03  0.15294330000E+03 0.  0.
<mgrwt>
<rscale>  0 0.53788938E+03</rscale>
<asrwt>0</asrwt>
<pdfrwt beam="1">  1        2 0.95381727E-01 0.68961401E+03</pdfrwt>
<pdfrwt beam="2">  1       -2 0.13709161E+00 0.68961401E+03</pdfrwt>
<totfact> 0.18430633E+01</totfact>
</mgrwt>
</event>
<event>
 4    1  0.6502538E-008  0.9593467E+03  0.7818608E-02  0.9436792E-01
          2   -1    0    0  501    0  0.00000000000E+00  0.00000000000E+00  0.25932848985E+04  0.25932848985E+04  0.25500000000E-02 0. -1.
         -2   -1    0    0    0  501 -0.00000000000E+00 -0.00000000000E+00 -0.38646635623E+03  0.38646635624E+03  0.25500000000E-02 0.  1.
    8880023    1    1    2    0    0  0.69340202427E+03  0.75693135382E+02  0.20282214620E+04  0.22436640398E+04  0.65864270000E+03 0.  0.
    8880022    1    1    2    0    0 -0.69340202427E+03 -0.75693135382E+02  0.17859708028E+03  0.73608721502E+03  0.15294330000E+03 0.  0.
<mgrwt>
<rscale>  0 0.89108725E+03</rscale>
<asrwt>0</asrwt>
<pdfrwt beam="1">  1        2 0.39896690E+00 0.95934667E+03</pdfrwt>
<pdfrwt beam="2">  1       -2 0.59456363E-01 0.95934667E+03</pdfrwt>
<totfact> 0.82624983E+00</totfact>
</mgrwt>
</event>
<event>
 4    1  0.6502538E-008  0.7531034E+03  0.7818608E-02  0.9823301E-01
          2   -1    0    0  501    0  0.00000000000E+00  0.00000000000E+00  0.12016180229E+04  0.12016180229E+04  0.25500000000E-02 0. -1.
         -2   -1    0    0    0  501 -0.00000000000E+00 -0.00000000000E+00 -0.30894584988E+03  0.30894584989E+03  0.25500000000E-02 0.  1.
    8880023    1    1    2    0    0 -0.20732741085E+03 -0.30061570781E+03  0.32920677711E+03  0.82191347929E+03  0.65864270000E+03 0.  0.
    8880022    1    1    2    0    0  0.20732741085E+03  0.30061570781E+03  0.56346539586E+03  0.68865039347E+03  0.15294330000E+03 0.  0.
<mgrwt>
<rscale>  0 0.64126943E+03</rscale>
<asrwt>0</asrwt>
<pdfrwt beam="1">  1        2 0.18486431E+00 0.75310336E+03</pdfrwt>
<pdfrwt beam="2">  1       -2 0.47530131E-01 0.75310336E+03</pdfrwt>
<totfact> 0.80533984E+01</totfact>
</mgrwt>
</event>
<event>
 4    1  0.6502538E-008  0.1031325E+04  0.7818608E-02  0.9341675E-01
          2   -1    0    0  501    0  0.00000000000E+00  0.00000000000E+00  0.18634574446E+04  0.18634574446E+04  0.25500000000E-02 0. -1.
         -2   -1    0    0    0  501 -0.00000000000E+00 -0.00000000000E+00 -0.10880829666E+04  0.10880829666E+04  0.25500000000E-02 0.  1.
    8880023    1    1    2    0    0 -0.78948924015E+03  0.80796049948E+02  0.15304351718E+04  0.18454981125E+04  0.65864270000E+03 0.  0.
    8880022    1    1    2    0    0  0.78948924015E+03 -0.80796049948E+02 -0.75506069382E+03  0.11060422986E+04  0.15294330000E+03 0.  0.
<mgrwt>
<rscale>  0 0.97035028E+03</rscale>
<asrwt>0</asrwt>
<pdfrwt beam="1">  1        2 0.28668576E+00 0.10313251E+04</pdfrwt>
<pdfrwt beam="2">  1       -2 0.16739738E+00 0.10313251E+04</pdfrwt>
<totfact> 0.17553810E+00</totfact>
</mgrwt>
</event>
<event>
 4    1  0.6659490E-008  0.1232017E+04  0.7818608E-02  0.9126611E-01
          2   -1    0    0  501    0  0.00000000000E+00  0.00000000000E+00  0.18692829079E+04  0.18692829079E+04  0.25500000000E-02 0. -1.
         -2   -1    0    0    0  501 -0.00000000000E+00 -0.00000000000E+00 -0.16511577678E+04  0.16511577678E+04  0.25500000000E-02 0.  1.
    8880023    1    1    2    0    0 -0.72780931626E+03  0.74454582350E+03  0.14483846794E+04  0.19014950092E+04  0.65864270000E+03 0.  1.
    8880022    1    1    2    0    0  0.72780931626E+03 -0.74454582350E+03 -0.12302595393E+04  0.16189456665E+04  0.15294330000E+03 0.  0.
<mgrwt>
<rscale>  0 0.11844120E+04</rscale>
<asrwt>0</asrwt>
<pdfrwt beam="1">  1        2 0.28758199E+00 0.12320167E+04</pdfrwt>
<pdfrwt beam="2">  1       -2 0.25402427E+00 0.12320167E+04</pdfrwt>
<totfact> 0.46424527E-01</totfact>
</mgrwt>
</event>
<event>
 4    1  0.6502538E-008  0.1063286E+04  0.7818608E-02  0.9303077E-01
          2   -1    0    0  501    0  0.00000000000E+00  0.00000000000E+00  0.19876630472E+04  0.19876630472E+04  0.25500000000E-02 0. -1.
         -2   -1    0    0    0  501 -0.00000000000E+00 -0.00000000000E+00 -0.49825574152E+03  0.49825574152E+03  0.25500000000E-02 0.  1.
    8880023    1    1    2    0    0  0.75454901904E+03 -0.35696398958E+03  0.47838173716E+03  0.11659445976E+04  0.65864270000E+03 0.  0.
    8880022    1    1    2    0    0 -0.75454901904E+03  0.35696398958E+03  0.10110255685E+04  0.13199741911E+04  0.15294330000E+03 0.  0.
<mgrwt>
<rscale>  0 0.10050004E+04</rscale>
<asrwt>0</asrwt>
<pdfrwt beam="1">  1        2 0.30579431E+00 0.10632863E+04</pdfrwt>
<pdfrwt beam="2">  1       -2 0.76654730E-01 0.10632863E+04</pdfrwt>
<totfact> 0.10277964E+01</totfact>
</mgrwt>
</event>
<event>
 4    1  0.6502538E-008  0.9966178E+03  0.7818608E-02  0.9385996E-01
         -2   -1    0    0    0  501 -0.00000000000E+00  0.00000000000E+00  0.10999724481E+04  0.10999724481E+04  0.25500000000E-02 0.  1.
          2   -1    0    0  501    0  0.00000000000E+00 -0.00000000000E+00 -0.20586917893E+04  0.20586917893E+04  0.25500000000E-02 0. -1.
    8880023    1    1    2    0    0 -0.43575969014E+03 -0.60790658765E+03 -0.17783454341E+04  0.20385680308E+04  0.65864270000E+03 0. -1.
    8880022    1    1    2    0    0  0.43575969014E+03  0.60790658765E+03  0.81962609293E+03  0.11200962066E+04  0.15294330000E+03 0.  0.
<mgrwt>
<rscale>  0 0.93237174E+03</rscale>
<asrwt>0</asrwt>
<pdfrwt beam="1">  1        2 0.31672181E+00 0.99661785E+03</pdfrwt>
<pdfrwt beam="2">  1       -2 0.16922653E+00 0.99661785E+03</pdfrwt>
<totfact> 0.13360714E+00</totfact>
</mgrwt>
</event>
<event>
 4    1  0.6502538E-008  0.7115912E+03  0.7818608E-02  0.9952139E-01
         -2   -1    0    0    0  501 -0.00000000000E+00  0.00000000000E+00  0.21269912382E+03  0.21269912383E+03  0.25500000000E-02 0.  1.
          2   -1    0    0  501    0  0.00000000000E+00 -0.00000000000E+00 -0.21929123180E+04  0.21929123180E+04  0.25500000000E-02 0. -1.
    8880023    1    1    2    0    0 -0.49704784566E+01  0.26930852331E+03 -0.19712275297E+04  0.20957337538E+04  0.65864270000E+03 0. -1.
    8880022    1    1    2    0    0  0.49704784566E+01 -0.26930852331E+03 -0.89856644400E+01  0.30987768807E+03  0.15294330000E+03 0.  1.
<mgrwt>
<rscale>  0 0.57799599E+03</rscale>
<asrwt>0</asrwt>
<pdfrwt beam="1">  1        2 0.33737111E+00 0.71159117E+03</pdfrwt>
<pdfrwt beam="2">  1       -2 0.32722944E-01 0.71159117E+03</pdfrwt>
<totfact> 0.47155187E+01</totfact>
</mgrwt>
</event>
<event>
 4    1  0.6502538E-008  0.7182135E+03  0.7818608E-02  0.9928678E-01
          2   -1    0    0  501    0  0.00000000000E+00  0.00000000000E+00  0.19954958943E+04  0.19954958943E+04  0.25500000000E-02 0. -1.
         -2   -1    0    0    0  501 -0.00000000000E+00 -0.00000000000E+00 -0.34686115358E+03  0.34686115359E+03  0.25500000000E-02 0.  1.
    8880023    1    1    2    0    0 -0.26440432769E+03 -0.11004917657E+03  0.18332144547E+04  0.19688844337E+04  0.65864270000E+03 0. -1.
    8880022    1    1    2    0    0  0.26440432769E+03  0.11004917657E+03 -0.18457971400E+03  0.37347261426E+03  0.15294330000E+03 0.  1.
<mgrwt>
<rscale>  0 0.58891350E+03</rscale>
<asrwt>0</asrwt>
<pdfrwt beam="1">  1        2 0.30699937E+00 0.71821353E+03</pdfrwt>
<pdfrwt beam="2">  1       -2 0.53363254E-01 0.71821353E+03</pdfrwt>
<totfact> 0.23089284E+01</totfact>
</mgrwt>
</event>
<event>
 4    1  0.6502538E-008  0.1087603E+04  0.7818608E-02  0.9274986E-01
         -2   -1    0    0    0  501 -0.00000000000E+00  0.00000000000E+00  0.10365294901E+04  0.10365294901E+04  0.25500000000E-02 0.  1.
          2   -1    0    0  501    0  0.00000000000E+00 -0.00000000000E+00 -0.18284384315E+04  0.18284384315E+04  0.25500000000E-02 0. -1.
    8880023    1    1    2    0    0 -0.37694150032E+02 -0.86466723955E+03 -0.14171293249E+04  0.17863751045E+04  0.65864270000E+03 0. -1.
    8880022    1    1    2    0    0  0.37694150032E+02  0.86466723955E+03  0.62522038351E+03  0.10785928171E+04  0.15294330000E+03 0.  0.
<mgrwt>
<rscale>  0 0.10311871E+04</rscale>
<asrwt>0</asrwt>
<pdfrwt beam="1">  1        2 0.28129822E+00 0.10876031E+04</pdfrwt>
<pdfrwt beam="2">  1       -2 0.15946608E+00 0.10876031E+04</pdfrwt>
<totfact> 0.20823266E+00</totfact>
</mgrwt>
</event>
<event>
 4    1  0.6502538E-008  0.1150461E+04  0.7818608E-02  0.9206850E-01
         -2   -1    0    0    0  501 -0.00000000000E+00  0.00000000000E+00  0.11368583044E+04  0.11368583044E+04  0.25500000000E-02 0.  1.
          2   -1    0    0  501    0  0.00000000000E+00 -0.00000000000E+00 -0.12131994557E+04  0.12131994557E+04  0.25500000000E-02 0. -1.
    8880023    1    1    2    0    0 -0.89420842171E+03 -0.30023594834E+03 -0.55947066515E+03  0.12792841583E+04  0.65864270000E+03 0.  0.
    8880022    1    1    2    0    0  0.89420842171E+03  0.30023594834E+03  0.48312951393E+03  0.10707736018E+04  0.15294330000E+03 0.  0.
<mgrwt>
<rscale>  0 0.10983006E+04</rscale>
<asrwt>0</asrwt>
<pdfrwt beam="1">  1        2 0.18664607E+00 0.11504610E+04</pdfrwt>
<pdfrwt beam="2">  1       -2 0.17490128E+00 0.11504610E+04</pdfrwt>
<totfact> 0.35727061E+00</totfact>
</mgrwt>
</event>
<event>
 4    1  0.6502538E-008  0.7775737E+03  0.7818608E-02  0.9761568E-01
          2   -1    0    0  501    0  0.00000000000E+00  0.00000000000E+00  0.15591826125E+04  0.15591826126E+04  0.25500000000E-02 0. -1.
         -2   -1    0    0    0  501 -0.00000000000E+00 -0.00000000000E+00 -0.65341094503E+03  0.65341094503E+03  0.25500000000E-02 0.  1.
    8880023    1    1    2    0    0  0.16526850397E+03  0.37880989568E+03  0.13682580803E+04  0.15737696769E+04  0.65864270000E+03 0.  0.
    8880022    1    1    2    0    0 -0.16526850397E+03 -0.37880989568E+03 -0.46248641278E+03  0.63882388065E+03  0.15294330000E+03 0.  0.
<mgrwt>
<rscale>  0 0.67466464E+03</rscale>
<asrwt>0</asrwt>
<pdfrwt beam="1">  1        2 0.23987425E+00 0.77757368E+03</pdfrwt>
<pdfrwt beam="2">  1       -2 0.10052476E+00 0.77757368E+03</pdfrwt>
<totfact> 0.98009563E+00</totfact>
</mgrwt>
</event>
<event>
 4    1  0.6502538E-008  0.8283513E+03  0.7818608E-02  0.9652549E-01
          2   -1    0    0  501    0  0.00000000000E+00  0.00000000000E+00  0.36122255358E+04  0.36122255358E+04  0.25500000000E-02 0. -1.
         -2   -1    0    0    0  501 -0.00000000000E+00 -0.00000000000E+00 -0.51366086871E+03  0.51366086871E+03  0.25500000000E-02 0.  1.
    8880023    1    1    2    0    0  0.63388058010E+02 -0.49833488151E+03  0.34141725585E+04  0.35132236145E+04  0.65864270000E+03 0. -1.
    8880022    1    1    2    0    0 -0.63388058010E+02  0.49833488151E+03 -0.31560789146E+03  0.61266278995E+03  0.15294330000E+03 0.  0.
<mgrwt>
<rscale>  0 0.73913683E+03</rscale>
<asrwt>0</asrwt>
<pdfrwt beam="1">  1        2 0.55572702E+00 0.82835132E+03</pdfrwt>
<pdfrwt beam="2">  1       -2 0.79024747E-01 0.82835132E+03</pdfrwt>
<totfact> 0.10326573E+00</totfact>
</mgrwt>
</event>
<event>
 4    1  0.6502538E-008  0.1347194E+04  0.7818608E-02  0.9025840E-01
          2   -1    0    0  501    0  0.00000000000E+00  0.00000000000E+00  0.14365701888E+04  0.14365701888E+04  0.25500000000E-02 0. -1.
         -2   -1    0    0    0  501 -0.00000000000E+00 -0.00000000000E+00 -0.13573111810E+04  0.13573111810E+04  0.25500000000E-02 0.  1.
    8880023    1    1    2    0    0  0.10579467548E+04  0.51173295925E+03  0.62978576035E+03  0.14871322294E+04  0.65864270000E+03 0.  0.
    8880022    1    1    2    0    0 -0.10579467548E+04 -0.51173295925E+03 -0.55052675247E+03  0.13067491404E+04  0.15294330000E+03 0.  0.
<mgrwt>
<rscale>  0 0.13047082E+04</rscale>
<asrwt>0</asrwt>
<pdfrwt beam="1">  1        2 0.22101080E+00 0.13471942E+04</pdfrwt>
<pdfrwt beam="2">  1       -2 0.20881711E+00 0.13471942E+04</pdfrwt>
<totfact> 0.15358912E+00</totfact>
</mgrwt>
</event>
<event>
 4    1  0.6502538E-008  0.1187719E+04  0.7818608E-02  0.9169154E-01
         -2   -1    0    0    0  501 -0.00000000000E+00  0.00000000000E+00  0.96475664465E+03  0.96475664465E+03  0.25500000000E-02 0.  1.
          2   -1    0    0  501    0  0.00000000000E+00 -0.00000000000E+00 -0.16335007786E+04  0.16335007786E+04  0.25500000000E-02 0. -1.
    8880023    1    1    2    0    0 -0.98812871874E+03  0.21606742294E+02 -0.99167459927E+03  0.15472859895E+04  0.65864270000E+03 0.  0.
    8880022    1    1    2    0    0  0.98812871874E+03 -0.21606742294E+02  0.32293046535E+03  0.10509714338E+04  0.15294330000E+03 0.  0.
<mgrwt>
<rscale>  0 0.11377559E+04</rscale>
<asrwt>0</asrwt>
<pdfrwt beam="1">  1        2 0.25130781E+00 0.11877186E+04</pdfrwt>
<pdfrwt beam="2">  1       -2 0.14842410E+00 0.11877186E+04</pdfrwt>
<totfact> 0.32034590E+00</totfact>
</mgrwt>
</event>
<event>
 4    1  0.6502538E-008  0.7830380E+03  0.7818608E-02  0.9748748E-01
          2   -1    0    0  501    0  0.00000000000E+00  0.00000000000E+00  0.49625951279E+03  0.49625951280E+03  0.25500000000E-02 0. -1.
         -2   -1    0    0    0  501 -0.00000000000E+00 -0.00000000000E+00 -0.11367067399E+04  0.11367067399E+04  0.25500000000E-02 0.  1.
    8880023    1    1    2    0    0  0.35841088137E+03 -0.22556598289E+03  0.76068981151E+02  0.78672426471E+03  0.65864270000E+03 0. -1.
    8880022    1    1    2    0    0 -0.35841088137E+03  0.22556598289E+03 -0.71651620824E+03  0.84624198797E+03  0.15294330000E+03 0.  0.
<mgrwt>
<rscale>  0 0.68187051E+03</rscale>
<asrwt>0</asrwt>
<pdfrwt beam="1">  1        2 0.76347617E-01 0.78303804E+03</pdfrwt>
<pdfrwt beam="2">  1       -2 0.17487796E+00 0.78303804E+03</pdfrwt>
<totfact> 0.12384743E+01</totfact>
</mgrwt>
</event>
<event>
 4    1  0.6502538E-008  0.8937813E+03  0.7818608E-02  0.9536089E-01
         -2   -1    0    0    0  501 -0.00000000000E+00  0.00000000000E+00  0.15808726168E+04  0.15808726168E+04  0.25500000000E-02 0.  1.
          2   -1    0    0  501    0  0.00000000000E+00 -0.00000000000E+00 -0.65813223162E+03  0.65813223162E+03  0.25500000000E-02 0. -1.
    8880023    1    1    2    0    0  0.43518831129E+03 -0.41910125231E+03 -0.23501016019E+03  0.92416162419E+03  0.65864270000E+03 0. -1.
    8880022    1    1    2    0    0 -0.43518831129E+03  0.41910125231E+03  0.11577505454E+04  0.13148432243E+04  0.15294330000E+03 0.  0.
<mgrwt>
<rscale>  0 0.81674601E+03</rscale>
<asrwt>0</asrwt>
<pdfrwt beam="1">  1        2 0.10125111E+00 0.89378126E+03</pdfrwt>
<pdfrwt beam="2">  1       -2 0.24321117E+00 0.89378126E+03</pdfrwt>
<totfact> 0.31633222E+00</totfact>
</mgrwt>
</event>
<event>
 4    1  0.6502538E-008  0.1435697E+04  0.7818608E-02  0.8956430E-01
          2   -1    0    0  501    0  0.00000000000E+00  0.00000000000E+00  0.30396443977E+04  0.30396443977E+04  0.25500000000E-02 0. -1.
         -2   -1    0    0    0  501 -0.00000000000E+00 -0.00000000000E+00 -0.74979121349E+03  0.74979121349E+03  0.25500000000E-02 0.  1.
    8880023    1    1    2    0    0  0.41820404007E+02 -0.12750161647E+04  0.20172637546E+04  0.24760004904E+04  0.65864270000E+03 0.  0.
    8880022    1    1    2    0    0 -0.41820404007E+02  0.12750161647E+04  0.27258942966E+03  0.13134351209E+04  0.15294330000E+03 0.  0.
<mgrwt>
<rscale>  0 0.13963976E+04</rscale>
<asrwt>0</asrwt>
<pdfrwt beam="1">  1        2 0.46763761E+00 0.14356968E+04</pdfrwt>
<pdfrwt beam="2">  1       -2 0.11535249E+00 0.14356968E+04</pdfrwt>
<totfact> 0.92427820E-01</totfact>
</mgrwt>
</event>
<event>
 4    1  0.6502538E-008  0.1099894E+04  0.7818608E-02  0.9261175E-01
          2   -1    0    0  501    0  0.00000000000E+00  0.00000000000E+00  0.38960478882E+04  0.38960478882E+04  0.25500000000E-02 0. -1.
         -2   -1    0    0    0  501 -0.00000000000E+00 -0.00000000000E+00 -0.38857593619E+03  0.38857593620E+03  0.25500000000E-02 0.  1.
    8880023    1    1    2    0    0 -0.50962285480E+03 -0.71849866797E+03  0.31236799796E+04  0.33116676480E+04  0.65864270000E+03 0.  0.
    8880022    1    1    2    0    0  0.50962285480E+03  0.71849866797E+03  0.38379197243E+03  0.97295617636E+03  0.15294330000E+03 0.  0.
<mgrwt>
<rscale>  0 0.10443714E+04</rscale>
<asrwt>0</asrwt>
<pdfrwt beam="1">  1        2 0.59939197E+00 0.10998936E+04</pdfrwt>
<pdfrwt beam="2">  1       -2 0.59780914E-01 0.10998936E+04</pdfrwt>
<totfact> 0.11158691E+00</totfact>
</mgrwt>
</event>
<event>
 4    1  0.6502538E-008  0.7661310E+03  0.7818608E-02  0.9789486E-01
          2   -1    0    0  501    0  0.00000000000E+00  0.00000000000E+00  0.10660811585E+04  0.10660811585E+04  0.25500000000E-02 0. -1.
         -2   -1    0    0    0  501 -0.00000000000E+00 -0.00000000000E+00 -0.80013061598E+03  0.80013061599E+03  0.25500000000E-02 0.  1.
    8880023    1    1    2    0    0  0.76918267899E+02  0.38370576992E+03  0.85155375872E+03  0.11454695754E+04  0.65864270000E+03 0. -1.
    8880022    1    1    2    0    0 -0.76918267899E+02 -0.38370576992E+03 -0.58560321619E+03  0.72074219915E+03  0.15294330000E+03 0.  0.
<mgrwt>
<rscale>  0 0.65929855E+03</rscale>
<asrwt>0</asrwt>
<pdfrwt beam="1">  1        2 0.16401249E+00 0.76613102E+03</pdfrwt>
<pdfrwt beam="2">  1       -2 0.12309702E+00 0.76613102E+03</pdfrwt>
<totfact> 0.11578514E+01</totfact>
</mgrwt>
</event>
<event>
 4    1  0.6502538E-008  0.6657353E+03  0.7818608E-02  0.1018924E+00
         -2   -1    0    0    0  501 -0.00000000000E+00  0.00000000000E+00  0.61692428187E+03  0.61692428187E+03  0.25500000000E-02 0.  1.
          2   -1    0    0  501    0  0.00000000000E+00 -0.00000000000E+00 -0.60234570804E+03  0.60234570804E+03  0.25500000000E-02 0. -1.
    8880023    1    1    2    0    0  0.56734914058E+02  0.78577297557E+02 -0.39314220615E+03  0.77315214718E+03  0.65864270000E+03 0. -1.
    8880022    1    1    2    0    0 -0.56734914058E+02 -0.78577297557E+02  0.40772077998E+03  0.44611784274E+03  0.15294330000E+03 0.  0.
<mgrwt>
<rscale>  0 0.48076783E+03</rscale>
<asrwt>0</asrwt>
<pdfrwt beam="1">  1        2 0.92668571E-01 0.66573527E+03</pdfrwt>
<pdfrwt beam="2">  1       -2 0.94911428E-01 0.66573527E+03</pdfrwt>
<totfact> 0.46979013E+01</totfact>
</mgrwt>
</event>
<event>
 4    1  0.6502538E-008  0.9966383E+03  0.7818608E-02  0.9385969E-01
         -2   -1    0    0    0  501 -0.00000000000E+00  0.00000000000E+00  0.79871582269E+03  0.79871582269E+03  0.25500000000E-02 0.  1.
          2   -1    0    0  501    0  0.00000000000E+00 -0.00000000000E+00 -0.22448689518E+04  0.22448689518E+04  0.25500000000E-02 0. -1.
    8880023    1    1    2    0    0 -0.74099575863E+03  0.10199489673E+03 -0.19070630930E+04  0.21517847290E+04  0.65864270000E+03 0. -1.
    8880022    1    1    2    0    0  0.74099575863E+03 -0.10199489673E+03  0.46090996386E+03  0.89180004546E+03  0.15294330000E+03 0.  0.
<mgrwt>
<rscale>  0 0.93239423E+03</rscale>
<asrwt>0</asrwt>
<pdfrwt beam="1">  1        2 0.34536445E+00 0.99663829E+03</pdfrwt>
<pdfrwt beam="2">  1       -2 0.12287936E+00 0.99663829E+03</pdfrwt>
<totfact> 0.24453249E+00</totfact>
</mgrwt>
</event>
<event>
 4    1  0.6502538E-008  0.7872916E+03  0.7818608E-02  0.9738979E-01
          2   -1    0    0  501    0  0.00000000000E+00  0.00000000000E+00  0.18620346637E+04  0.18620346637E+04  0.25500000000E-02 0. -1.
         -2   -1    0    0    0  501 -0.00000000000E+00 -0.00000000000E+00 -0.23526850953E+03  0.23526850954E+03  0.25500000000E-02 0.  1.
    8880023    1    1    2    0    0 -0.42768948467E+03 -0.55674293512E+02  0.13491611691E+04  0.15620704173E+04  0.65864270000E+03 0.  0.
    8880022    1    1    2    0    0  0.42768948467E+03  0.55674293512E+02  0.27760498508E+03  0.53523275592E+03  0.15294330000E+03 0.  0.
<mgrwt>
<rscale>  0 0.68742654E+03</rscale>
<asrwt>0</asrwt>
<pdfrwt beam="1">  1        2 0.28646686E+00 0.78729164E+03</pdfrwt>
<pdfrwt beam="2">  1       -2 0.36195156E-01 0.78729164E+03</pdfrwt>
<totfact> 0.58529010E+01</totfact>
</mgrwt>
</event>
<event>
 4    1  0.6502538E-008  0.1298168E+04  0.7818608E-02  0.9067143E-01
         -2   -1    0    0    0  501 -0.00000000000E+00  0.00000000000E+00  0.12417958998E+04  0.12417958998E+04  0.25500000000E-02 0.  1.
          2   -1    0    0  501    0  0.00000000000E+00 -0.00000000000E+00 -0.19411925609E+04  0.19411925609E+04  0.25500000000E-02 0. -1.
    8880023    1    1    2    0    0 -0.51015082958E+03  0.99557875157E+03 -0.13557078550E+04  0.18770148944E+04  0.65864270000E+03 0.  0.
    8880022    1    1    2    0    0  0.51015082958E+03 -0.99557875157E+03  0.65631119387E+03  0.13059735662E+04  0.15294330000E+03 0.  0.
<mgrwt>
<rscale>  0 0.12536592E+04</rscale>
<asrwt>0</asrwt>
<pdfrwt beam="1">  1        2 0.29864501E+00 0.12981684E+04</pdfrwt>
<pdfrwt beam="2">  1       -2 0.19104552E+00 0.12981684E+04</pdfrwt>
<totfact> 0.10548302E+00</totfact>
</mgrwt>
</event>
<event>
 4    1  0.6502538E-008  0.9100830E+03  0.7818608E-02  0.9510035E-01
         -2   -1    0    0    0  501 -0.00000000000E+00  0.00000000000E+00  0.31132590626E+03  0.31132590627E+03  0.25500000000E-02 0.  1.
          2   -1    0    0  501    0  0.00000000000E+00 -0.00000000000E+00 -0.20802556388E+04  0.20802556388E+04  0.25500000000E-02 0. -1.
    8880023    1    1    2    0    0  0.58678430246E+03 -0.22388607471E+03 -0.72426434997E+03  0.11631035409E+04  0.65864270000E+03 0.  0.
    8880022    1    1    2    0    0 -0.58678430246E+03  0.22388607471E+03 -0.10446653826E+04  0.12284780042E+04  0.15294330000E+03 0.  0.
<mgrwt>
<rscale>  0 0.83547990E+03</rscale>
<asrwt>0</asrwt>
<pdfrwt beam="1">  1        2 0.32003932E+00 0.91008296E+03</pdfrwt>
<pdfrwt beam="2">  1       -2 0.47896294E-01 0.91008296E+03</pdfrwt>
<totfact> 0.25260006E+01</totfact>
</mgrwt>
</event>
<event>
 4    1  0.6502538E-008  0.6884935E+03  0.7818608E-02  0.1004877E+00
          2   -1    0    0  501    0  0.00000000000E+00  0.00000000000E+00  0.18253695656E+04  0.18253695656E+04  0.25500000000E-02 0. -1.
         -2   -1    0    0    0  501 -0.00000000000E+00 -0.00000000000E+00 -0.34025479868E+03  0.34025479868E+03  0.25500000000E-02 0.  1.
    8880023    1    1    2    0    0 -0.19763362712E+03  0.33971100848E+02  0.17001051802E+04  0.18342248816E+04  0.65864270000E+03 0. -1.
    8880022    1    1    2    0    0  0.19763362712E+03 -0.33971100848E+02 -0.21499041332E+03  0.33139948264E+03  0.15294330000E+03 0.  0.
<mgrwt>
<rscale>  0 0.53562528E+03</rscale>
<asrwt>0</asrwt>
<pdfrwt beam="1">  1        2 0.28082609E+00 0.68849349E+03</pdfrwt>
<pdfrwt beam="2">  1       -2 0.52346892E-01 0.68849349E+03</pdfrwt>
<totfact> 0.29849804E+01</totfact>
</mgrwt>
</event>
<event>
 4    1  0.6502538E-008  0.8576293E+03  0.7818608E-02  0.9597794E-01
         -2   -1    0    0    0  501 -0.00000000000E+00  0.00000000000E+00  0.11011473516E+04  0.11011473517E+04  0.25500000000E-02 0.  1.
          2   -1    0    0  501    0  0.00000000000E+00 -0.00000000000E+00 -0.72403584366E+03  0.72403584366E+03  0.25500000000E-02 0. -1.
    8880023    1    1    2    0    0  0.54352140285E+03 -0.79387263740E+02 -0.32814875612E+03  0.91826448554E+03  0.65864270000E+03 0.  0.
    8880022    1    1    2    0    0 -0.54352140285E+03  0.79387263740E+02  0.70526026411E+03  0.90691870978E+03  0.15294330000E+03 0.  0.
<mgrwt>
<rscale>  0 0.77442333E+03</rscale>
<asrwt>0</asrwt>
<pdfrwt beam="1">  1        2 0.11139013E+00 0.85762933E+03</pdfrwt>
<pdfrwt beam="2">  1       -2 0.16940729E+00 0.85762933E+03</pdfrwt>
<totfact> 0.84925691E+00</totfact>
</mgrwt>
</event>
<event>
 4    1  0.6502538E-008  0.6822412E+03  0.7818608E-02  0.1008083E+00
          2   -1    0    0  501    0  0.00000000000E+00  0.00000000000E+00  0.47457958548E+03  0.47457958549E+03  0.25500000000E-02 0. -1.
         -2   -1    0    0    0  501 -0.00000000000E+00 -0.00000000000E+00 -0.57599598468E+03  0.57599598468E+03  0.25500000000E-02 0.  1.
    8880023    1    1    2    0    0 -0.11733250084E+03 -0.13370090430E+03  0.15853585617E+03  0.70041892573E+03  0.65864270000E+03 0.  1.
    8880022    1    1    2    0    0  0.11733250084E+03  0.13370090430E+03 -0.25995225537E+03  0.35015664444E+03  0.15294330000E+03 0.  0.
<mgrwt>
<rscale>  0 0.52243569E+03</rscale>
<asrwt>0</asrwt>
<pdfrwt beam="1">  1        2 0.73012243E-01 0.68224120E+03</pdfrwt>
<pdfrwt beam="2">  1       -2 0.88614767E-01 0.68224120E+03</pdfrwt>
<totfact> 0.72761272E+01</totfact>
</mgrwt>
</event>
<event>
 4    1  0.6502538E-008  0.7640266E+03  0.7818608E-02  0.9794793E-01
         -2   -1    0    0    0  501 -0.00000000000E+00  0.00000000000E+00  0.30641956326E+03  0.30641956327E+03  0.25500000000E-02 0.  1.
          2   -1    0    0  501    0  0.00000000000E+00 -0.00000000000E+00 -0.12660123875E+04  0.12660123875E+04  0.25500000000E-02 0. -1.
    8880023    1    1    2    0    0 -0.67907519154E+02  0.38120195787E+03 -0.84799991926E+03  0.11414203578E+04  0.65864270000E+03 0.  1.
    8880022    1    1    2    0    0  0.67907519154E+02 -0.38120195787E+03 -0.11159290499E+03  0.43101159300E+03  0.15294330000E+03 0.  0.
<mgrwt>
<rscale>  0 0.65642755E+03</rscale>
<asrwt>0</asrwt>
<pdfrwt beam="1">  1        2 0.19477113E+00 0.76402655E+03</pdfrwt>
<pdfrwt beam="2">  1       -2 0.47141472E-01 0.76402655E+03</pdfrwt>
<totfact> 0.74986277E+01</totfact>
</mgrwt>
</event>
<event>
 4    1  0.6502538E-008  0.6654468E+03  0.7818608E-02  0.1019161E+00
          2   -1    0    0  501    0  0.00000000000E+00  0.00000000000E+00  0.59377548104E+03  0.59377548105E+03  0.25500000000E-02 0. -1.
         -2   -1    0    0    0  501 -0.00000000000E+00 -0.00000000000E+00 -0.15391262366E+04  0.15391262366E+04  0.25500000000E-02 0.  1.
    8880023    1    1    2    0    0 -0.72229321351E+02  0.61580977560E+02  0.39943432253E+03  0.77612323502E+03  0.65864270000E+03 0. -1.
    8880022    1    1    2    0    0  0.72229321351E+02 -0.61580977560E+02 -0.13447850781E+04  0.13567784826E+04  0.15294330000E+03 0.  0.
<mgrwt>
<rscale>  0 0.47990440E+03</rscale>
<asrwt>0</asrwt>
<pdfrwt beam="1">  1        2 0.91350074E-01 0.66544684E+03</pdfrwt>
<pdfrwt beam="2">  1       -2 0.23678865E+00 0.66544684E+03</pdfrwt>
<totfact> 0.40494456E+00</totfact>
</mgrwt>
</event>
<event>
 4    1  0.6502538E-008  0.1636535E+04  0.7818608E-02  0.8818794E-01
          2   -1    0    0  501    0  0.00000000000E+00  0.00000000000E+00  0.26963426365E+04  0.26963426365E+04  0.25500000000E-02 0. -1.
         -2   -1    0    0    0  501 -0.00000000000E+00 -0.00000000000E+00 -0.17236540537E+04  0.17236540537E+04  0.25500000000E-02 0.  1.
    8880023    1    1    2    0    0 -0.11609036316E+04 -0.94696316742E+03  0.20095542331E+04  0.25916317069E+04  0.65864270000E+03 0. -1.
    8880022    1    1    2    0    0  0.11609036316E+04  0.94696316742E+03 -0.10368656503E+04  0.18283649833E+04  0.15294330000E+03 0.  0.
<mgrwt>
<rscale>  0 0.16028587E+04</rscale>
<asrwt>0</asrwt>
<pdfrwt beam="1">  1        2 0.41482194E+00 0.16365350E+04</pdfrwt>
<pdfrwt beam="2">  1       -2 0.26517755E+00 0.16365350E+04</pdfrwt>
<totfact> 0.12775816E-01</totfact>
</mgrwt>
</event>
<event>
 4    1  0.6502538E-008  0.7022936E+03  0.7818608E-02  0.9987816E-01
          2   -1    0    0  501    0  0.00000000000E+00  0.00000000000E+00  0.21612487495E+04  0.21612487495E+04  0.25500000000E-02 0. -1.
         -2   -1    0    0    0  501 -0.00000000000E+00 -0.00000000000E+00 -0.10551352421E+04  0.10551352421E+04  0.25500000000E-02 0.  1.
    8880023    1    1    2    0    0 -0.24047093200E+03 -0.39746188149E+02  0.20828927618E+04  0.21981033852E+04  0.65864270000E+03 0. -1.
    8880022    1    1    2    0    0  0.24047093200E+03  0.39746188149E+02 -0.97677925434E+03  0.10182806064E+04  0.15294330000E+03 0.  0.
<mgrwt>
<rscale>  0 0.56187704E+03</rscale>
<asrwt>0</asrwt>
<pdfrwt beam="1">  1        2 0.33249980E+00 0.70229355E+03</pdfrwt>
<pdfrwt beam="2">  1       -2 0.16232850E+00 0.70229355E+03</pdfrwt>
<totfact> 0.13851801E+00</totfact>
</mgrwt>
</event>
<event>
 4    1  0.6502538E-008  0.1040423E+04  0.7818608E-02  0.9330484E-01
         -2   -1    0    0    0  501 -0.00000000000E+00  0.00000000000E+00  0.83976747172E+03  0.83976747172E+03  0.25500000000E-02 0.  1.
          2   -1    0    0  501    0  0.00000000000E+00 -0.00000000000E+00 -0.16147995107E+04  0.16147995107E+04  0.25500000000E-02 0. -1.
    8880023    1    1    2    0    0  0.17283809857E+03  0.78663585100E+03 -0.11519763666E+04  0.15522656750E+04  0.65864270000E+03 0. -1.
    8880022    1    1    2    0    0 -0.17283809857E+03 -0.78663585100E+03  0.37694432754E+03  0.90230130747E+03  0.15294330000E+03 0.  0.
<mgrwt>
<rscale>  0 0.98024218E+03</rscale>
<asrwt>0</asrwt>
<pdfrwt beam="1">  1        2 0.24843069E+00 0.10404226E+04</pdfrwt>
<pdfrwt beam="2">  1       -2 0.12919500E+00 0.10404226E+04</pdfrwt>
<totfact> 0.47781072E+00</totfact>
</mgrwt>
</event>
<event>
 4    1  0.6502538E-008  0.7083784E+03  0.7818608E-02  0.9964073E-01
          2   -1    0    0  501    0  0.00000000000E+00  0.00000000000E+00  0.20450021730E+04  0.20450021730E+04  0.25500000000E-02 0. -1.
         -2   -1    0    0    0  501 -0.00000000000E+00 -0.00000000000E+00 -0.54955667505E+03  0.54955667505E+03  0.25500000000E-02 0.  1.
    8880023    1    1    2    0    0  0.17766387441E+03  0.19085411090E+03  0.19352841545E+04  0.20608553343E+04  0.65864270000E+03 0. -1.
    8880022    1    1    2    0    0 -0.17766387441E+03 -0.19085411090E+03 -0.43983865649E+03  0.53370351383E+03  0.15294330000E+03 0.  0.
<mgrwt>
<rscale>  0 0.57254049E+03</rscale>
<asrwt>0</asrwt>
<pdfrwt beam="1">  1        2 0.31461572E+00 0.70837839E+03</pdfrwt>
<pdfrwt beam="2">  1       -2 0.84547181E-01 0.70837839E+03</pdfrwt>
<totfact> 0.80282383E+00</totfact>
</mgrwt>
</event>
<event>
 4    1  0.6502538E-008  0.1277391E+04  0.7818608E-02  0.9085334E-01
          2   -1    0    0  501    0  0.00000000000E+00  0.00000000000E+00  0.23591872749E+04  0.23591872749E+04  0.25500000000E-02 0. -1.
         -2   -1    0    0    0  501 -0.00000000000E+00 -0.00000000000E+00 -0.11267248556E+04  0.11267248556E+04  0.25500000000E-02 0.  1.
    8880023    1    1    2    0    0 -0.10732181552E+04  0.21475850868E+03  0.18283408626E+04  0.22303719290E+04  0.65864270000E+03 0.  0.
    8880022    1    1    2    0    0  0.10732181552E+04 -0.21475850868E+03 -0.59587844318E+03  0.12555402015E+04  0.15294330000E+03 0.  0.
<mgrwt>
<rscale>  0 0.12319589E+04</rscale>
<asrwt>0</asrwt>
<pdfrwt beam="1">  1        2 0.36295189E+00 0.12773913E+04</pdfrwt>
<pdfrwt beam="2">  1       -2 0.17334229E+00 0.12773913E+04</pdfrwt>
<totfact> 0.81734927E-01</totfact>
</mgrwt>
</event>
<event>
 4    1  0.6502538E-008  0.2375666E+04  0.7818608E-02  0.8457178E-01
         -2   -1    0    0    0  501 -0.00000000000E+00  0.00000000000E+00  0.16629655206E+04  0.16629655206E+04  0.25500000000E-02 0.  1.
          2   -1    0    0  501    0  0.00000000000E+00 -0.00000000000E+00 -0.47171058914E+04  0.47171058914E+04  0.25500000000E-02 0. -1.
    8880023    1    1    2    0    0  0.16909581549E+03 -0.22762652503E+04 -0.33141704956E+04  0.40776847799E+04  0.65864270000E+03 0.  0.
    8880022    1    1    2    0    0 -0.16909581549E+03  0.22762652503E+04  0.26003012482E+03  0.23023866320E+04  0.15294330000E+03 0.  0.
<mgrwt>
<rscale>  0 0.23533507E+04</rscale>
<asrwt>0</asrwt>
<pdfrwt beam="1">  1        2 0.72570859E+00 0.23756656E+04</pdfrwt>
<pdfrwt beam="2">  1       -2 0.25584085E+00 0.23756656E+04</pdfrwt>
<totfact> 0.37214490E-03</totfact>
</mgrwt>
</event>
<event>
 4    1  0.6502538E-008  0.6950381E+03  0.7818608E-02  0.1001844E+00
          2   -1    0    0  501    0  0.00000000000E+00  0.00000000000E+00  0.34968149600E+04  0.34968149600E+04  0.25500000000E-02 0. -1.
         -2   -1    0    0    0  501 -0.00000000000E+00 -0.00000000000E+00 -0.37124285009E+03  0.37124285010E+03  0.25500000000E-02 0.  1.
    8880023    1    1    2    0    0  0.91711543534E+01  0.22177384483E+03  0.34077001765E+04  0.34778583133E+04  0.65864270000E+03 0. -1.
    8880022    1    1    2    0    0 -0.91711543534E+01 -0.22177384483E+03 -0.28212806659E+03  0.39019949678E+03  0.15294330000E+03 0.  0.
<mgrwt>
<rscale>  0 0.54848901E+03</rscale>
<asrwt>0</asrwt>
<pdfrwt beam="1">  1        2 0.53797154E+00 0.69503810E+03</pdfrwt>
<pdfrwt beam="2">  1       -2 0.57114284E-01 0.69503810E+03</pdfrwt>
<totfact> 0.25836146E+00</totfact>
</mgrwt>
</event>
<event>
 4    1  0.6502538E-008  0.7689992E+03  0.7818608E-02  0.9782343E-01
         -2   -1    0    0    0  501 -0.00000000000E+00  0.00000000000E+00  0.59522672940E+03  0.59522672940E+03  0.25500000000E-02 0.  1.
          2   -1    0    0  501    0  0.00000000000E+00 -0.00000000000E+00 -0.68716061484E+03  0.68716061485E+03  0.25500000000E-02 0. -1.
    8880023    1    1    2    0    0 -0.39647413327E+03 -0.18917106910E+02 -0.27853207185E+03  0.81788747184E+03  0.65864270000E+03 0.  0.
    8880022    1    1    2    0    0  0.39647413327E+03  0.18917106910E+02  0.18659818640E+03  0.46449987241E+03  0.15294330000E+03 0.  0.
<mgrwt>
<rscale>  0 0.66318794E+03</rscale>
<asrwt>0</asrwt>
<pdfrwt beam="1">  1        2 0.10571702E+00 0.76899922E+03</pdfrwt>
<pdfrwt beam="2">  1       -2 0.91573343E-01 0.76899922E+03</pdfrwt>
<totfact> 0.43073938E+01</totfact>
</mgrwt>
</event>
<event>
 4    1  0.6502538E-008  0.9266644E+03  0.7818608E-02  0.9484515E-01
         -2   -1    0    0    0  501 -0.00000000000E+00  0.00000000000E+00  0.54129937840E+03  0.54129937840E+03  0.25500000000E-02 0.  1.
          2   -1    0    0  501    0  0.00000000000E+00 -0.00000000000E+00 -0.21985213709E+04  0.21985213709E+04  0.25500000000E-02 0. -1.
    8880023    1    1    2    0    0  0.45336911981E+03 -0.46835156896E+03 -0.18274550678E+04  0.20489751053E+04  0.65864270000E+03 0. -1.
    8880022    1    1    2    0    0 -0.45336911981E+03  0.46835156896E+03  0.17023307529E+03  0.69084564404E+03  0.15294330000E+03 0.  0.
<mgrwt>
<rscale>  0 0.85435144E+03</rscale>
<asrwt>0</asrwt>
<pdfrwt beam="1">  1        2 0.33823405E+00 0.92666443E+03</pdfrwt>
<pdfrwt beam="2">  1       -2 0.83276829E-01 0.92666443E+03</pdfrwt>
<totfact> 0.66235139E+00</totfact>
</mgrwt>
</event>
<event>
 4    1  0.6502538E-008  0.8864258E+03  0.7818608E-02  0.9548184E-01
          2   -1    0    0  501    0  0.00000000000E+00  0.00000000000E+00  0.17915258406E+04  0.17915258406E+04  0.25500000000E-02 0. -1.
         -2   -1    0    0    0  501 -0.00000000000E+00 -0.00000000000E+00 -0.44165397688E+03  0.44165397688E+03  0.25500000000E-02 0.  1.
    8880023    1    1    2    0    0  0.45287903879E+03  0.38319836000E+03  0.13565650895E+04  0.16204997548E+04  0.65864270000E+03 0. -1.
    8880022    1    1    2    0    0 -0.45287903879E+03 -0.38319836000E+03 -0.66932258536E+01  0.61268006265E+03  0.15294330000E+03 0.  0.
<mgrwt>
<rscale>  0 0.80822770E+03</rscale>
<asrwt>0</asrwt>
<pdfrwt beam="1">  1        2 0.27561936E+00 0.88642575E+03</pdfrwt>
<pdfrwt beam="2">  1       -2 0.67946766E-01 0.88642575E+03</pdfrwt>
<totfact> 0.17521718E+01</totfact>
</mgrwt>
</event>
<event>
 4    1  0.6502538E-008  0.1077301E+04  0.7818608E-02  0.9286760E-01
          2   -1    0    0  501    0  0.00000000000E+00  0.00000000000E+00  0.31171991701E+04  0.31171991701E+04  0.25500000000E-02 0. -1.
         -2   -1    0    0    0  501 -0.00000000000E+00 -0.00000000000E+00 -0.58436738000E+03  0.58436738000E+03  0.25500000000E-02 0.  1.
    8880023    1    1    2    0    0  0.54728889731E+03  0.65363754917E+03  0.26182763137E+04  0.28312449989E+04  0.65864270000E+03 0. -1.
    8880022    1    1    2    0    0 -0.54728889731E+03 -0.65363754917E+03 -0.85444523603E+02  0.87032155117E+03  0.15294330000E+03 0.  0.
<mgrwt>
<rscale>  0 0.10201099E+04</rscale>
<asrwt>0</asrwt>
<pdfrwt beam="1">  1        2 0.47956910E+00 0.10773010E+04</pdfrwt>
<pdfrwt beam="2">  1       -2 0.89902674E-01 0.10773010E+04</pdfrwt>
<totfact> 0.15718392E+00</totfact>
</mgrwt>
</event>
<event>
 4    1  0.6502538E-008  0.1091112E+04  0.7818608E-02  0.9271017E-01
         -2   -1    0    0    0  501 -0.00000000000E+00  0.00000000000E+00  0.14644971477E+04  0.14644971477E+04  0.25500000000E-02 0.  1.
          2   -1    0    0  501    0  0.00000000000E+00 -0.00000000000E+00 -0.12341863441E+04  0.12341863441E+04  0.25500000000E-02 0. -1.
    8880023    1    1    2    0    0 -0.81250705053E+03 -0.31072140894E+03 -0.79156823208E+03  0.13480007320E+04  0.65864270000E+03 0.  0.
    8880022    1    1    2    0    0  0.81250705053E+03  0.31072140894E+03  0.10218790357E+04  0.13506827599E+04  0.15294330000E+03 0.  0.
<mgrwt>
<rscale>  0 0.10349547E+04</rscale>
<asrwt>0</asrwt>
<pdfrwt beam="1">  1        2 0.18987482E+00 0.10911121E+04</pdfrwt>
<pdfrwt beam="2">  1       -2 0.22530725E+00 0.10911121E+04</pdfrwt>
<totfact> 0.16258344E+00</totfact>
</mgrwt>
</event>
<event>
 4    1  0.6502538E-008  0.7070852E+03  0.7818608E-02  0.9968988E-01
          2   -1    0    0  501    0  0.00000000000E+00  0.00000000000E+00  0.13735573553E+04  0.13735573553E+04  0.25500000000E-02 0. -1.
         -2   -1    0    0    0  501 -0.00000000000E+00 -0.00000000000E+00 -0.27360721413E+03  0.27360721414E+03  0.25500000000E-02 0.  1.
    8880023    1    1    2    0    0  0.21384409297E+03  0.14293347116E+03  0.11438072562E+04  0.13447172635E+04  0.65864270000E+03 0.  0.
    8880022    1    1    2    0    0 -0.21384409297E+03 -0.14293347116E+03 -0.43857115049E+02  0.30244730588E+03  0.15294330000E+03 0.  0.
<mgrwt>
<rscale>  0 0.57031208E+03</rscale>
<asrwt>0</asrwt>
<pdfrwt beam="1">  1        2 0.21131652E+00 0.70708520E+03</pdfrwt>
<pdfrwt beam="2">  1       -2 0.42093417E-01 0.70708520E+03</pdfrwt>
<totfact> 0.81917201E+01</totfact>
</mgrwt>
</event>
<event>
 4    1  0.6502538E-008  0.9891577E+03  0.7818608E-02  0.9395882E-01
          2   -1    0    0  501    0  0.00000000000E+00  0.00000000000E+00  0.14242006272E+04  0.14242006272E+04  0.25500000000E-02 0. -1.
         -2   -1    0    0    0  501 -0.00000000000E+00 -0.00000000000E+00 -0.30044472260E+04  0.30044472260E+04  0.25500000000E-02 0.  1.
    8880023    1    1    2    0    0  0.66495101212E+03 -0.32009827081E+03  0.11959273584E+04  0.15519907230E+04  0.65864270000E+03 0.  0.
    8880022    1    1    2    0    0 -0.66495101212E+03  0.32009827081E+03 -0.27761739572E+04  0.28766571302E+04  0.15294330000E+03 0.  0.
<mgrwt>
<rscale>  0 0.92415341E+03</rscale>
<asrwt>0</asrwt>
<pdfrwt beam="1">  1        2 0.21910779E+00 0.98915770E+03</pdfrwt>
<pdfrwt beam="2">  1       -2 0.46222265E+00 0.98915770E+03</pdfrwt>
<totfact> 0.41206086E-02</totfact>
</mgrwt>
</event>
<event>
 4    1  0.6502538E-008  0.9772726E+03  0.7818608E-02  0.9411915E-01
         -2   -1    0    0    0  501 -0.00000000000E+00  0.00000000000E+00  0.10720204613E+04  0.10720204613E+04  0.25500000000E-02 0.  1.
          2   -1    0    0  501    0  0.00000000000E+00 -0.00000000000E+00 -0.81390621308E+03  0.81390621308E+03  0.25500000000E-02 0. -1.
    8880023    1    1    2    0    0  0.22700362071E+03 -0.68536180673E+03 -0.22631944015E+03  0.10031361549E+04  0.65864270000E+03 0. -1.
    8880022    1    1    2    0    0 -0.22700362071E+03  0.68536180673E+03  0.48443368840E+03  0.88279051955E+03  0.15294330000E+03 0.  1.
<mgrwt>
<rscale>  0 0.91101553E+03</rscale>
<asrwt>0</asrwt>
<pdfrwt beam="1">  1        2 0.12521634E+00 0.97727256E+03</pdfrwt>
<pdfrwt beam="2">  1       -2 0.16492622E+00 0.97727256E+03</pdfrwt>
<totfact> 0.77542650E+00</totfact>
</mgrwt>
</event>
<event>
 4    1  0.6502538E-008  0.9427368E+03  0.7818608E-02  0.9460642E-01
          2   -1    0    0  501    0  0.00000000000E+00  0.00000000000E+00  0.26511562933E+04  0.26511562933E+04  0.25500000000E-02 0. -1.
         -2   -1    0    0    0  501 -0.00000000000E+00 -0.00000000000E+00 -0.81693899543E+03  0.81693899543E+03  0.25500000000E-02 0.  1.
    8880023    1    1    2    0    0 -0.28425464512E+03 -0.61167121199E+03  0.23974541592E+04  0.25761480987E+04  0.65864270000E+03 0. -1.
    8880022    1    1    2    0    0  0.28425464512E+03  0.61167121199E+03 -0.56323686130E+03  0.89194719003E+03  0.15294330000E+03 0.  0.
<mgrwt>
<rscale>  0 0.87248755E+03</rscale>
<asrwt>0</asrwt>
<pdfrwt beam="1">  1        2 0.40787020E+00 0.94273675E+03</pdfrwt>
<pdfrwt beam="2">  1       -2 0.12568292E+00 0.94273675E+03</pdfrwt>
<totfact> 0.13683186E+00</totfact>
</mgrwt>
</event>
<event>
 4    1  0.6502538E-008  0.9324755E+03  0.7818608E-02  0.9475789E-01
          2   -1    0    0  501    0  0.00000000000E+00  0.00000000000E+00  0.23919921849E+04  0.23919921849E+04  0.25500000000E-02 0. -1.
         -2   -1    0    0    0  501 -0.00000000000E+00 -0.00000000000E+00 -0.45504612192E+03  0.45504612193E+03  0.25500000000E-02 0.  1.
    8880023    1    1    2    0    0  0.57451386162E+03  0.32501416774E+03  0.19584758086E+04  0.21691330263E+04  0.65864270000E+03 0.  0.
    8880022    1    1    2    0    0 -0.57451386162E+03 -0.32501416774E+03 -0.21529745671E+02  0.67790528054E+03  0.15294330000E+03 0.  0.
<mgrwt>
<rscale>  0 0.86092546E+03</rscale>
<asrwt>0</asrwt>
<pdfrwt beam="1">  1        2 0.36799879E+00 0.93247552E+03</pdfrwt>
<pdfrwt beam="2">  1       -2 0.70007097E-01 0.93247552E+03</pdfrwt>
<totfact> 0.76007013E+00</totfact>
</mgrwt>
</event>
<event>
 4    1  0.6502538E-008  0.2207369E+04  0.7818608E-02  0.8525443E-01
         -2   -1    0    0    0  501 -0.00000000000E+00  0.00000000000E+00  0.21934133560E+04  0.21934133560E+04  0.25500000000E-02 0.  1.
          2   -1    0    0  501    0  0.00000000000E+00 -0.00000000000E+00 -0.24219739150E+04  0.24219739150E+04  0.25500000000E-02 0. -1.
    8880023    1    1    2    0    0  0.20699584789E+04 -0.39235307864E+03 -0.92190201784E+03  0.23921502000E+04  0.65864270000E+03 0.  0.
    8880022    1    1    2    0    0 -0.20699584789E+04  0.39235307864E+03  0.69334145877E+03  0.22232370710E+04  0.15294330000E+03 0.  0.
<mgrwt>
<rscale>  0 0.21832234E+04</rscale>
<asrwt>0</asrwt>
<pdfrwt beam="1">  1        2 0.37261137E+00 0.22073693E+04</pdfrwt>
<pdfrwt beam="2">  1       -2 0.33744821E+00 0.22073693E+04</pdfrwt>
<totfact> 0.62502115E-02</totfact>
</mgrwt>
</event>
<event>
 4    1  0.6502538E-008  0.8323421E+03  0.7818608E-02  0.9644792E-01
         -2   -1    0    0    0  501 -0.00000000000E+00  0.00000000000E+00  0.15673919234E+03  0.15673919236E+03  0.25500000000E-02 0.  1.
          2   -1    0    0  501    0  0.00000000000E+00 -0.00000000000E+00 -0.30133721803E+04  0.30133721803E+04  0.25500000000E-02 0. -1.
    8880023    1    1    2    0    0 -0.26006627753E+03  0.43743423537E+03 -0.15453739543E+04  0.17552703621E+04  0.65864270000E+03 0.  1.
    8880022    1    1    2    0    0  0.26006627753E+03 -0.43743423537E+03 -0.13112590336E+04  0.14148410106E+04  0.15294330000E+03 0. -1.
<mgrwt>
<rscale>  0 0.74401150E+03</rscale>
<asrwt>0</asrwt>
<pdfrwt beam="1">  1        2 0.46359568E+00 0.83234211E+03</pdfrwt>
<pdfrwt beam="2">  1       -2 0.24113724E-01 0.83234211E+03</pdfrwt>
<totfact> 0.27308815E+01</totfact>
</mgrwt>
</event>
<event>
 4    1  0.6502538E-008  0.7813162E+03  0.7818608E-02  0.9752754E-01
         -2   -1    0    0    0  501 -0.00000000000E+00  0.00000000000E+00  0.10095288569E+04  0.10095288570E+04  0.25500000000E-02 0.  1.
          2   -1    0    0  501    0  0.00000000000E+00 -0.00000000000E+00 -0.13742864023E+04  0.13742864023E+04  0.25500000000E-02 0. -1.
    8880023    1    1    2    0    0 -0.37961568025E+03  0.18037924502E+03 -0.12025705377E+04  0.14340958270E+04  0.65864270000E+03 0. -1.
    8880022    1    1    2    0    0  0.37961568025E+03 -0.18037924502E+03  0.83781299236E+03  0.94971943220E+03  0.15294330000E+03 0.  0.
<mgrwt>
<rscale>  0 0.67960839E+03</rscale>
<asrwt>0</asrwt>
<pdfrwt beam="1">  1        2 0.21142868E+00 0.78131616E+03</pdfrwt>
<pdfrwt beam="2">  1       -2 0.15531213E+00 0.78131616E+03</pdfrwt>
<totfact> 0.41691125E+00</totfact>
</mgrwt>
</event>
<event>
 4    1  0.6502538E-008  0.7420949E+03  0.7818608E-02  0.9853886E-01
         -2   -1    0    0    0  501 -0.00000000000E+00  0.00000000000E+00  0.18440760799E+03  0.18440760801E+03  0.25500000000E-02 0.  1.
          2   -1    0    0  501    0  0.00000000000E+00 -0.00000000000E+00 -0.30163289422E+04  0.30163289422E+04  0.25500000000E-02 0. -1.
    8880023    1    1    2    0    0  0.24555349712E+03 -0.23790351786E+03 -0.27054980373E+04  0.28054276751E+04  0.65864270000E+03 0. -1.
    8880022    1    1    2    0    0 -0.24555349712E+03  0.23790351786E+03 -0.12642329688E+03  0.39530887514E+03  0.15294330000E+03 0.  0.
<mgrwt>
<rscale>  0 0.62549158E+03</rscale>
<asrwt>0</asrwt>
<pdfrwt beam="1">  1        2 0.46405057E+00 0.74209488E+03</pdfrwt>
<pdfrwt beam="2">  1       -2 0.28370403E-01 0.74209488E+03</pdfrwt>
<totfact> 0.20518345E+01</totfact>
</mgrwt>
</event>
<event>
 4    1  0.6502538E-008  0.1791987E+04  0.7818608E-02  0.8726982E-01
          2   -1    0    0  501    0  0.00000000000E+00  0.00000000000E+00  0.20933111308E+04  0.20933111308E+04  0.25500000000E-02 0. -1.
         -2   -1    0    0    0  501 -0.00000000000E+00 -0.00000000000E+00 -0.16049855276E+04  0.16049855276E+04  0.25500000000E-02 0.  1.
    8880023    1    1    2    0    0  0.16095586272E+04  0.43211863364E+03  0.85427464692E+03  0.19851954227E+04  0.65864270000E+03 0.  0.
    8880022    1    1    2    0    0 -0.16095586272E+04 -0.43211863364E+03 -0.36594904371E+03  0.17131012356E+04  0.15294330000E+03 0.  0.
<mgrwt>
<rscale>  0 0.17616161E+04</rscale>
<asrwt>0</asrwt>
<pdfrwt beam="1">  1        2 0.32204787E+00 0.17919865E+04</pdfrwt>
<pdfrwt beam="2">  1       -2 0.24692085E+00 0.17919865E+04</pdfrwt>
<totfact> 0.36209694E-01</totfact>
</mgrwt>
</event>
<event>
 4    1  0.6502538E-008  0.7596510E+03  0.7818608E-02  0.9806012E-01
         -2   -1    0    0    0  501 -0.00000000000E+00  0.00000000000E+00  0.21313427497E+03  0.21313427498E+03  0.25500000000E-02 0.  1.
          2   -1    0    0  501    0  0.00000000000E+00 -0.00000000000E+00 -0.32963747619E+04  0.32963747619E+04  0.25500000000E-02 0. -1.
    8880023    1    1    2    0    0 -0.32142873801E+03 -0.19985755494E+03 -0.29976469217E+04  0.30924030703E+04  0.65864270000E+03 0. -1.
    8880022    1    1    2    0    0  0.32142873801E+03  0.19985755494E+03 -0.85593565178E+02  0.41710596651E+03  0.15294330000E+03 0.  0.
<mgrwt>
<rscale>  0 0.65040913E+03</rscale>
<asrwt>0</asrwt>
<pdfrwt beam="1">  1        2 0.50713454E+00 0.75965103E+03</pdfrwt>
<pdfrwt beam="2">  1       -2 0.32789891E-01 0.75965103E+03</pdfrwt>
<totfact> 0.10400019E+01</totfact>
</mgrwt>
</event>
<event>
 4    1  0.6502538E-008  0.1220313E+04  0.7818608E-02  0.9137625E-01
         -2   -1    0    0    0  501 -0.00000000000E+00  0.00000000000E+00  0.99493868285E+03  0.99493868285E+03  0.25500000000E-02 0.  1.
          2   -1    0    0  501    0  0.00000000000E+00 -0.00000000000E+00 -0.21785620360E+04  0.21785620360E+04  0.25500000000E-02 0. -1.
    8880023    1    1    2    0    0 -0.63105494909E+03 -0.81063185862E+03 -0.16356980220E+04  0.20407529455E+04  0.65864270000E+03 0.  0.
    8880022    1    1    2    0    0  0.63105494909E+03  0.81063185862E+03  0.45207466882E+03  0.11327477734E+04  0.15294330000E+03 0.  0.
<mgrwt>
<rscale>  0 0.11721101E+04</rscale>
<asrwt>0</asrwt>
<pdfrwt beam="1">  1        2 0.33516339E+00 0.12203133E+04</pdfrwt>
<pdfrwt beam="2">  1       -2 0.15306749E+00 0.12203133E+04</pdfrwt>
<totfact> 0.14650807E+00</totfact>
</mgrwt>
</event>
<event>
 4    1  0.6502538E-008  0.7418357E+03  0.7818608E-02  0.9854632E-01
         -2   -1    0    0    0  501 -0.00000000000E+00  0.00000000000E+00  0.32765939209E+03  0.32765939210E+03  0.25500000000E-02 0.  1.
          2   -1    0    0  501    0  0.00000000000E+00 -0.00000000000E+00 -0.27760446383E+04  0.27760446383E+04  0.25500000000E-02 0. -1.
    8880023    1    1    2    0    0  0.33834467345E+03 -0.45088280287E+02 -0.25972636707E+04  0.27011291810E+04  0.65864270000E+03 0. -1.
    8880022    1    1    2    0    0 -0.33834467345E+03  0.45088280287E+02  0.14887842449E+03  0.40257484939E+03  0.15294330000E+03 0.  0.
<mgrwt>
<rscale>  0 0.62511325E+03</rscale>
<asrwt>0</asrwt>
<pdfrwt beam="1">  1        2 0.42708377E+00 0.74183575E+03</pdfrwt>
<pdfrwt beam="2">  1       -2 0.50409139E-01 0.74183575E+03</pdfrwt>
<totfact> 0.94161380E+00</totfact>
</mgrwt>
</event>
<event>
 4    1  0.6502538E-008  0.7820817E+03  0.7818608E-02  0.9750970E-01
          2   -1    0    0  501    0  0.00000000000E+00  0.00000000000E+00  0.14933931501E+04  0.14933931501E+04  0.25500000000E-02 0. -1.
         -2   -1    0    0    0  501 -0.00000000000E+00 -0.00000000000E+00 -0.80081807726E+03  0.80081807726E+03  0.25500000000E-02 0.  1.
    8880023    1    1    2    0    0 -0.22130776472E+03 -0.35897698461E+03  0.13131954606E+04  0.15284417314E+04  0.65864270000E+03 0. -1.
    8880022    1    1    2    0    0  0.22130776472E+03  0.35897698461E+03 -0.62062038779E+03  0.76576949597E+03  0.15294330000E+03 0.  0.
<mgrwt>
<rscale>  0 0.68061508E+03</rscale>
<asrwt>0</asrwt>
<pdfrwt beam="1">  1        2 0.22975279E+00 0.78208171E+03</pdfrwt>
<pdfrwt beam="2">  1       -2 0.12320278E+00 0.78208171E+03</pdfrwt>
<totfact> 0.64962310E+00</totfact>
</mgrwt>
</event>
<event>
 4    1  0.6502538E-008  0.9917501E+03  0.7818608E-02  0.9392432E-01
          2   -1    0    0  501    0  0.00000000000E+00  0.00000000000E+00  0.17095043141E+04  0.17095043141E+04  0.25500000000E-02 0. -1.
         -2   -1    0    0    0  501 -0.00000000000E+00 -0.00000000000E+00 -0.73369663805E+03  0.73369663806E+03  0.25500000000E-02 0.  1.
    8880023    1    1    2    0    0 -0.12530288170E+02 -0.74135078351E+03  0.12869003949E+04  0.16247094586E+04  0.65864270000E+03 0.  0.
    8880022    1    1    2    0    0  0.12530288170E+02  0.74135078351E+03 -0.31109271880E+03  0.81849149356E+03  0.15294330000E+03 0.  0.
<mgrwt>
<rscale>  0 0.92701163E+03</rscale>
<asrwt>0</asrwt>
<pdfrwt beam="1">  1        2 0.26300066E+00 0.99175007E+03</pdfrwt>
<pdfrwt beam="2">  1       -2 0.11287641E+00 0.99175007E+03</pdfrwt>
<totfact> 0.59613824E+00</totfact>
</mgrwt>
</event>
<event>
 4    1  0.6502538E-008  0.7992671E+03  0.7818608E-02  0.9712383E-01
          2   -1    0    0  501    0  0.00000000000E+00  0.00000000000E+00  0.22085766788E+04  0.22085766788E+04  0.25500000000E-02 0. -1.
         -2   -1    0    0    0  501 -0.00000000000E+00 -0.00000000000E+00 -0.50414402457E+03  0.50414402458E+03  0.25500000000E-02 0.  1.
    8880023    1    1    2    0    0  0.27407448989E+03 -0.36041767648E+03  0.19979308759E+04  0.21518726074E+04  0.65864270000E+03 0. -1.
    8880022    1    1    2    0    0 -0.27407448989E+03  0.36041767648E+03 -0.29349822170E+03  0.56084809591E+03  0.15294330000E+03 0.  0.
<mgrwt>
<rscale>  0 0.70284281E+03</rscale>
<asrwt>0</asrwt>
<pdfrwt beam="1">  1        2 0.33978103E+00 0.79926712E+03</pdfrwt>
<pdfrwt beam="2">  1       -2 0.77560619E-01 0.79926712E+03</pdfrwt>
<totfact> 0.78164244E+00</totfact>
</mgrwt>
</event>
<event>
 4    1  0.6502538E-008  0.9168965E+03  0.7818608E-02  0.9499434E-01
          2   -1    0    0  501    0  0.00000000000E+00  0.00000000000E+00  0.26278053548E+04  0.26278053548E+04  0.25500000000E-02 0. -1.
         -2   -1    0    0    0  501 -0.00000000000E+00 -0.00000000000E+00 -0.35487105267E+03  0.35487105268E+03  0.25500000000E-02 0.  1.
    8880023    1    1    2    0    0  0.63575641518E+03 -0.51988634147E+02  0.21190479877E+04  0.23089096167E+04  0.65864270000E+03 0. -1.
    8880022    1    1    2    0    0 -0.63575641518E+03  0.51988634147E+02  0.15388631433E+03  0.67376679072E+03  0.15294330000E+03 0.  0.
<mgrwt>
<rscale>  0 0.84325559E+03</rscale>
<asrwt>0</asrwt>
<pdfrwt beam="1">  1        2 0.40427776E+00 0.91689653E+03</pdfrwt>
<pdfrwt beam="2">  1       -2 0.54595545E-01 0.91689653E+03</pdfrwt>
<totfact> 0.94903599E+00</totfact>
</mgrwt>
</event>
<event>
 4    1  0.6502538E-008  0.9144208E+03  0.7818608E-02  0.9503267E-01
          2   -1    0    0  501    0  0.00000000000E+00  0.00000000000E+00  0.14399499452E+04  0.14399499452E+04  0.25500000000E-02 0. -1.
         -2   -1    0    0    0  501 -0.00000000000E+00 -0.00000000000E+00 -0.83086673139E+03  0.83086673139E+03  0.25500000000E-02 0.  1.
    8880023    1    1    2    0    0 -0.32795933204E+03  0.54295291297E+03  0.11172759516E+04  0.14437697003E+04  0.65864270000E+03 0.  0.
    8880022    1    1    2    0    0  0.32795933204E+03 -0.54295291297E+03 -0.50819273782E+03  0.82704697627E+03  0.15294330000E+03 0.  1.
<mgrwt>
<rscale>  0 0.84043378E+03</rscale>
<asrwt>0</asrwt>
<pdfrwt beam="1">  1        2 0.22153076E+00 0.91442080E+03</pdfrwt>
<pdfrwt beam="2">  1       -2 0.12782565E+00 0.91442080E+03</pdfrwt>
<totfact> 0.62396307E+00</totfact>
</mgrwt>
</event>
<event>
 4    1  0.6502538E-008  0.9126748E+03  0.7818608E-02  0.9505983E-01
         -2   -1    0    0    0  501 -0.00000000000E+00  0.00000000000E+00  0.92709810547E+03  0.92709810547E+03  0.25500000000E-02 0.  1.
          2   -1    0    0  501    0  0.00000000000E+00 -0.00000000000E+00 -0.29374530560E+04  0.29374530560E+04  0.25500000000E-02 0. -1.
    8880023    1    1    2    0    0 -0.56826953544E+03  0.27610667306E+03 -0.27396083776E+04  0.28876338806E+04  0.65864270000E+03 0. -1.
    8880022    1    1    2    0    0  0.56826953544E+03 -0.27610667306E+03  0.72925342702E+03  0.97691728087E+03  0.15294330000E+03 0.  0.
<mgrwt>
<rscale>  0 0.83844137E+03</rscale>
<asrwt>0</asrwt>
<pdfrwt beam="1">  1        2 0.45191585E+00 0.91267484E+03</pdfrwt>
<pdfrwt beam="2">  1       -2 0.14263048E+00 0.91267484E+03</pdfrwt>
<totfact> 0.67217788E-01</totfact>
</mgrwt>
</event>
<event>
 4    1  0.6502538E-008  0.7184800E+03  0.7818608E-02  0.9927763E-01
          2   -1    0    0  501    0  0.00000000000E+00  0.00000000000E+00  0.16783291087E+04  0.16783291087E+04  0.25500000000E-02 0. -1.
         -2   -1    0    0    0  501 -0.00000000000E+00 -0.00000000000E+00 -0.22424106588E+03  0.22424106590E+03  0.25500000000E-02 0.  1.
    8880023    1    1    2    0    0  0.16262443312E+03 -0.23655151774E+03  0.13989549502E+04  0.15726692232E+04  0.65864270000E+03 0.  0.
    8880022    1    1    2    0    0 -0.16262443312E+03  0.23655151774E+03  0.55133092630E+02  0.32990095136E+03  0.15294330000E+03 0.  0.
<mgrwt>
<rscale>  0 0.58934439E+03</rscale>
<asrwt>0</asrwt>
<pdfrwt beam="1">  1        2 0.25820447E+00 0.71848002E+03</pdfrwt>
<pdfrwt beam="2">  1       -2 0.34498627E-01 0.71848002E+03</pdfrwt>
<totfact> 0.81398077E+01</totfact>
</mgrwt>
</event>
<event>
 4    1  0.6502538E-008  0.1675525E+04  0.7818608E-02  0.8794708E-01
         -2   -1    0    0    0  501 -0.00000000000E+00  0.00000000000E+00  0.87347140876E+03  0.87347140877E+03  0.25500000000E-02 0.  1.
          2   -1    0    0  501    0  0.00000000000E+00 -0.00000000000E+00 -0.34985990657E+04  0.34985990657E+04  0.25500000000E-02 0. -1.
    8880023    1    1    2    0    0 -0.15019265865E+04 -0.34320798071E+03 -0.22021786020E+04  0.27671241372E+04  0.65864270000E+03 0.  0.
    8880022    1    1    2    0    0  0.15019265865E+04  0.34320798071E+03 -0.42294905495E+03  0.16049463373E+04  0.15294330000E+03 0.  0.
<mgrwt>
<rscale>  0 0.16427483E+04</rscale>
<asrwt>0</asrwt>
<pdfrwt beam="1">  1        2 0.53824600E+00 0.16755254E+04</pdfrwt>
<pdfrwt beam="2">  1       -2 0.13438022E+00 0.16755254E+04</pdfrwt>
<totfact> 0.30453350E-01</totfact>
</mgrwt>
</event>
<event>
 4    1  0.6502538E-008  0.9486383E+03  0.7818608E-02  0.9452076E-01
          2   -1    0    0  501    0  0.00000000000E+00  0.00000000000E+00  0.80875378366E+03  0.80875378366E+03  0.25500000000E-02 0. -1.
         -2   -1    0    0    0  501 -0.00000000000E+00 -0.00000000000E+00 -0.11075612194E+04  0.11075612194E+04  0.25500000000E-02 0.  1.
    8880023    1    1    2    0    0  0.53744659779E+03  0.42101739651E+03  0.30048855832E+03  0.99509199253E+03  0.65864270000E+03 0.  0.
    8880022    1    1    2    0    0 -0.53744659779E+03 -0.42101739651E+03 -0.59929599410E+03  0.92122301057E+03  0.15294330000E+03 0.  0.
<mgrwt>
<rscale>  0 0.87911191E+03</rscale>
<asrwt>0</asrwt>
<pdfrwt beam="1">  1        2 0.12442366E+00 0.94863834E+03</pdfrwt>
<pdfrwt beam="2">  1       -2 0.17039403E+00 0.94863834E+03</pdfrwt>
<totfact> 0.71643617E+00</totfact>
</mgrwt>
</event>
<event>
 4    1  0.6502538E-008  0.6610181E+03  0.7818608E-02  0.1023137E+00
         -2   -1    0    0    0  501 -0.00000000000E+00  0.00000000000E+00  0.15837094356E+04  0.15837094356E+04  0.25500000000E-02 0.  1.
          2   -1    0    0  501    0  0.00000000000E+00 -0.00000000000E+00 -0.36469159090E+03  0.36469159091E+03  0.25500000000E-02 0. -1.
    8880023    1    1    2    0    0 -0.23870066448E+02 -0.50645048606E+02 -0.55662657725E+02  0.66335754970E+03  0.65864270000E+03 0. -1.
    8880022    1    1    2    0    0  0.23870066448E+02  0.50645048606E+02  0.12746805024E+04  0.12850434768E+04  0.15294330000E+03 0.  0.
<mgrwt>
<rscale>  0 0.46571444E+03</rscale>
<asrwt>0</asrwt>
<pdfrwt beam="1">  1        2 0.56106400E-01 0.66101808E+03</pdfrwt>
<pdfrwt beam="2">  1       -2 0.24364760E+00 0.66101808E+03</pdfrwt>
<totfact> 0.64422943E+00</totfact>
</mgrwt>
</event>
<event>
 4    1  0.6502538E-008  0.7944113E+03  0.7818608E-02  0.9723013E-01
          2   -1    0    0  501    0  0.00000000000E+00  0.00000000000E+00  0.35702928671E+04  0.35702928671E+04  0.25500000000E-02 0. -1.
         -2   -1    0    0    0  501 -0.00000000000E+00 -0.00000000000E+00 -0.14606087003E+03  0.14606087006E+03  0.25500000000E-02 0.  1.
    8880023    1    1    2    0    0 -0.32641169661E+03  0.30122161985E+03  0.29245752886E+04  0.30305494362E+04  0.65864270000E+03 0. -1.
    8880022    1    1    2    0    0  0.32641169661E+03 -0.30122161985E+03  0.49965670843E+03  0.68580430098E+03  0.15294330000E+03 0.  0.
<mgrwt>
<rscale>  0 0.69662994E+03</rscale>
<asrwt>0</asrwt>
<pdfrwt beam="1">  1        2 0.54927579E+00 0.79441127E+03</pdfrwt>
<pdfrwt beam="2">  1       -2 0.22470905E-01 0.79441127E+03</pdfrwt>
<totfact> 0.13502636E+01</totfact>
</mgrwt>
</event>
<event>
 4    1  0.6502538E-008  0.7391572E+03  0.7818608E-02  0.9862409E-01
         -2   -1    0    0    0  501 -0.00000000000E+00  0.00000000000E+00  0.53732885502E+03  0.53732885503E+03  0.25500000000E-02 0.  1.
          2   -1    0    0  501    0  0.00000000000E+00 -0.00000000000E+00 -0.29254614325E+04  0.29254614325E+04  0.25500000000E-02 0. -1.
    8880023    1    1    2    0    0 -0.63418153616E+02 -0.32942565169E+03 -0.28082123096E+04  0.29038611716E+04  0.65864270000E+03 0.  0.
    8880022    1    1    2    0    0  0.63418153616E+02  0.32942565169E+03  0.42007973213E+03  0.55892911586E+03  0.15294330000E+03 0.  0.
<mgrwt>
<rscale>  0 0.62118208E+03</rscale>
<asrwt>0</asrwt>
<pdfrwt beam="1">  1        2 0.45007098E+00 0.73915717E+03</pdfrwt>
<pdfrwt beam="2">  1       -2 0.82665980E-01 0.73915717E+03</pdfrwt>
<totfact> 0.26535785E+00</totfact>
</mgrwt>
</event>
<event>
 4    1  0.6502538E-008  0.7821790E+03  0.7818608E-02  0.9750743E-01
          2   -1    0    0  501    0  0.00000000000E+00  0.00000000000E+00  0.10675978238E+04  0.10675978238E+04  0.25500000000E-02 0. -1.
         -2   -1    0    0    0  501 -0.00000000000E+00 -0.00000000000E+00 -0.76284114660E+03  0.76284114660E+03  0.25500000000E-02 0.  1.
    8880023    1    1    2    0    0  0.42084975928E+03 -0.29653526253E+02  0.82940204094E+03  0.11400490355E+04  0.65864270000E+03 0.  0.
    8880022    1    1    2    0    0 -0.42084975928E+03  0.29653526253E+02 -0.52464536376E+03  0.69038993491E+03  0.15294330000E+03 0.  0.
<mgrwt>
<rscale>  0 0.68074296E+03</rscale>
<asrwt>0</asrwt>
<pdfrwt beam="1">  1        2 0.16424582E+00 0.78217904E+03</pdfrwt>
<pdfrwt beam="2">  1       -2 0.11736018E+00 0.78217904E+03</pdfrwt>
<totfact> 0.12983074E+01</totfact>
</mgrwt>
</event>
<event>
 4    1  0.6502538E-008  0.9364758E+03  0.7818608E-02  0.9469845E-01
         -2   -1    0    0    0  501 -0.00000000000E+00  0.00000000000E+00  0.75379920822E+03  0.75379920823E+03  0.25500000000E-02 0.  1.
          2   -1    0    0  501    0  0.00000000000E+00 -0.00000000000E+00 -0.99142577454E+03  0.99142577455E+03  0.25500000000E-02 0. -1.
    8880023    1    1    2    0    0 -0.60755881760E+03 -0.27211944743E+03  0.16709721569E+03  0.95126673245E+03  0.65864270000E+03 0.  0.
    8880022    1    1    2    0    0  0.60755881760E+03  0.27211944743E+03 -0.40472378201E+03  0.79395825032E+03  0.15294330000E+03 0.  0.
<mgrwt>
<rscale>  0 0.86543973E+03</rscale>
<asrwt>0</asrwt>
<pdfrwt beam="1">  1        2 0.15252704E+00 0.93647580E+03</pdfrwt>
<pdfrwt beam="2">  1       -2 0.11596911E+00 0.93647580E+03</pdfrwt>
<totfact> 0.14711477E+01</totfact>
</mgrwt>
</event>
<event>
 4    1  0.6502538E-008  0.7660851E+03  0.7818608E-02  0.9789601E-01
         -2   -1    0    0    0  501 -0.00000000000E+00  0.00000000000E+00  0.58727152796E+03  0.58727152796E+03  0.25500000000E-02 0.  1.
          2   -1    0    0  501    0  0.00000000000E+00 -0.00000000000E+00 -0.22077210297E+04  0.22077210297E+04  0.25500000000E-02 0. -1.
    8880023    1    1    2    0    0 -0.32536306197E+03  0.21729010638E+03 -0.20534531424E+04  0.21917016509E+04  0.65864270000E+03 0. -1.
    8880022    1    1    2    0    0  0.32536306197E+03 -0.21729010638E+03  0.43300364059E+03  0.60329090678E+03  0.15294330000E+03 0.  0.
<mgrwt>
<rscale>  0 0.65923600E+03</rscale>
<asrwt>0</asrwt>
<pdfrwt beam="1">  1        2 0.33964938E+00 0.76608506E+03</pdfrwt>
<pdfrwt beam="2">  1       -2 0.90349467E-01 0.76608506E+03</pdfrwt>
<totfact> 0.55611264E+00</totfact>
</mgrwt>
</event>
<event>
 4    1  0.6502538E-008  0.1337170E+04  0.7818608E-02  0.9034108E-01
         -2   -1    0    0    0  501 -0.00000000000E+00  0.00000000000E+00  0.23752197263E+04  0.23752197263E+04  0.25500000000E-02 0.  1.
          2   -1    0    0  501    0  0.00000000000E+00 -0.00000000000E+00 -0.13962406203E+04  0.13962406203E+04  0.25500000000E-02 0. -1.
    8880023    1    1    2    0    0 -0.11502810219E+04 -0.17626159058E+03 -0.85999518141E+03  0.15898479474E+04  0.65864270000E+03 0.  0.
    8880022    1    1    2    0    0  0.11502810219E+04  0.17626159058E+03  0.18389742874E+04  0.21816123992E+04  0.15294330000E+03 0.  0.
<mgrwt>
<rscale>  0 0.12942874E+04</rscale>
<asrwt>0</asrwt>
<pdfrwt beam="1">  1        2 0.21480625E+00 0.13371704E+04</pdfrwt>
<pdfrwt beam="2">  1       -2 0.36541841E+00 0.13371704E+04</pdfrwt>
<totfact> 0.17392683E-01</totfact>
</mgrwt>
</event>
<event>
 4    1  0.6502538E-008  0.8935373E+03  0.7818608E-02  0.9536487E-01
          2   -1    0    0  501    0  0.00000000000E+00  0.00000000000E+00  0.26185551489E+04  0.26185551489E+04  0.25500000000E-02 0. -1.
         -2   -1    0    0    0  501 -0.00000000000E+00 -0.00000000000E+00 -0.35113333131E+03  0.35113333132E+03  0.25500000000E-02 0.  1.
    8880023    1    1    2    0    0  0.29037556875E+02 -0.60312148463E+03  0.21601098123E+04  0.23376234326E+04  0.65864270000E+03 0. -1.
    8880022    1    1    2    0    0 -0.29037556875E+02  0.60312148463E+03  0.10731200522E+03  0.63206504761E+03  0.15294330000E+03 0.  0.
<mgrwt>
<rscale>  0 0.81646417E+03</rscale>
<asrwt>0</asrwt>
<pdfrwt beam="1">  1        2 0.40285465E+00 0.89353730E+03</pdfrwt>
<pdfrwt beam="2">  1       -2 0.54020512E-01 0.89353730E+03</pdfrwt>
<totfact> 0.98534092E+00</totfact>
</mgrwt>
</event>
<event>
 4    1  0.6502538E-008  0.1686878E+04  0.7818608E-02  0.8787836E-01
          2   -1    0    0  501    0  0.00000000000E+00  0.00000000000E+00  0.30233871741E+04  0.30233871741E+04  0.25500000000E-02 0. -1.
         -2   -1    0    0    0  501 -0.00000000000E+00 -0.00000000000E+00 -0.10967995007E+04  0.10967995007E+04  0.25500000000E-02 0.  1.
    8880023    1    1    2    0    0 -0.15359834748E+04 -0.22913044316E+03  0.19252204238E+04  0.25596933178E+04  0.65864270000E+03 0. -1.
    8880022    1    1    2    0    0  0.15359834748E+04  0.22913044316E+03  0.13672497133E+01  0.15604933570E+04  0.15294330000E+03 0.  0.
<mgrwt>
<rscale>  0 0.16543528E+04</rscale>
<asrwt>0</asrwt>
<pdfrwt beam="1">  1        2 0.46513648E+00 0.16868776E+04</pdfrwt>
<pdfrwt beam="2">  1       -2 0.16873839E+00 0.16868776E+04</pdfrwt>
<totfact> 0.33924410E-01</totfact>
</mgrwt>
</event>
<event>
 4    1  0.6502538E-008  0.9360611E+03  0.7818608E-02  0.9470459E-01
         -2   -1    0    0    0  501 -0.00000000000E+00  0.00000000000E+00  0.63652333612E+03  0.63652333613E+03  0.25500000000E-02 0.  1.
          2   -1    0    0  501    0  0.00000000000E+00 -0.00000000000E+00 -0.20522184080E+04  0.20522184080E+04  0.25500000000E-02 0. -1.
    8880023    1    1    2    0    0  0.64410273379E+03 -0.16592731640E+03 -0.17069023254E+04  0.19467218498E+04  0.65864270000E+03 0.  0.
    8880022    1    1    2    0    0 -0.64410273379E+03  0.16592731640E+03  0.29120725350E+03  0.74201989429E+03  0.15294330000E+03 0.  0.
<mgrwt>
<rscale>  0 0.86497218E+03</rscale>
<asrwt>0</asrwt>
<pdfrwt beam="1">  1        2 0.31572591E+00 0.93606112E+03</pdfrwt>
<pdfrwt beam="2">  1       -2 0.97926668E-01 0.93606112E+03</pdfrwt>
<totfact> 0.54744429E+00</totfact>
</mgrwt>
</event>
<event>
 4    1  0.6502538E-008  0.1209667E+04  0.7818608E-02  0.9147782E-01
         -2   -1    0    0    0  501 -0.00000000000E+00  0.00000000000E+00  0.14052157749E+04  0.14052157749E+04  0.25500000000E-02 0.  1.
          2   -1    0    0  501    0  0.00000000000E+00 -0.00000000000E+00 -0.12027416136E+04  0.12027416136E+04  0.25500000000E-02 0. -1.
    8880023    1    1    2    0    0  0.99717298152E+03 -0.18743050296E+03 -0.55662975714E+03  0.13315896670E+04  0.65864270000E+03 0.  0.
    8880022    1    1    2    0    0 -0.99717298152E+03  0.18743050296E+03  0.75910391846E+03  0.12763677215E+04  0.15294330000E+03 0.  0.
<mgrwt>
<rscale>  0 0.11609046E+04</rscale>
<asrwt>0</asrwt>
<pdfrwt beam="1">  1        2 0.18503717E+00 0.12096670E+04</pdfrwt>
<pdfrwt beam="2">  1       -2 0.21618704E+00 0.12096670E+04</pdfrwt>
<totfact> 0.19134208E+00</totfact>
</mgrwt>
</event>
<event>
 4    1  0.6502538E-008  0.7979139E+03  0.7818608E-02  0.9715325E-01
         -2   -1    0    0    0  501 -0.00000000000E+00  0.00000000000E+00  0.75129996121E+03  0.75129996122E+03  0.25500000000E-02 0.  1.
          2   -1    0    0  501    0  0.00000000000E+00 -0.00000000000E+00 -0.68198278150E+03  0.68198278151E+03  0.25500000000E-02 0. -1.
    8880023    1    1    2    0    0  0.39098163242E+02  0.44869558843E+03 -0.27730704318E+03  0.84472824027E+03  0.65864270000E+03 0.  1.
    8880022    1    1    2    0    0 -0.39098163242E+02 -0.44869558843E+03  0.34662422289E+03  0.58855450245E+03  0.15294330000E+03 0.  0.
<mgrwt>
<rscale>  0 0.70111641E+03</rscale>
<asrwt>0</asrwt>
<pdfrwt beam="1">  1        2 0.10492043E+00 0.79791391E+03</pdfrwt>
<pdfrwt beam="2">  1       -2 0.11558461E+00 0.79791391E+03</pdfrwt>
<totfact> 0.24891317E+01</totfact>
</mgrwt>
</event>
<event>
 4    1  0.6502538E-008  0.8337870E+03  0.7818608E-02  0.9642009E-01
          2   -1    0    0  501    0  0.00000000000E+00  0.00000000000E+00  0.57825884506E+03  0.57825884506E+03  0.25500000000E-02 0. -1.
         -2   -1    0    0    0  501 -0.00000000000E+00 -0.00000000000E+00 -0.14333519458E+04  0.14333519458E+04  0.25500000000E-02 0.  1.
    8880023    1    1    2    0    0 -0.47988309503E+03  0.17635981862E+03  0.17457787293E+03  0.85186748412E+03  0.65864270000E+03 0. -1.
    8880022    1    1    2    0    0  0.47988309503E+03 -0.17635981862E+03 -0.10296709737E+04  0.11597433068E+04  0.15294330000E+03 0.  0.
<mgrwt>
<rscale>  0 0.74577093E+03</rscale>
<asrwt>0</asrwt>
<pdfrwt beam="1">  1        2 0.88962899E-01 0.83378701E+03</pdfrwt>
<pdfrwt beam="2">  1       -2 0.22051568E+00 0.83378701E+03</pdfrwt>
<totfact> 0.51544368E+00</totfact>
</mgrwt>
</event>
<event>
 4    1  0.6502538E-008  0.7125897E+03  0.7818608E-02  0.9948507E-01
         -2   -1    0    0    0  501 -0.00000000000E+00  0.00000000000E+00  0.55531698162E+03  0.55531698163E+03  0.25500000000E-02 0.  1.
          2   -1    0    0  501    0  0.00000000000E+00 -0.00000000000E+00 -0.15118717849E+04  0.15118717849E+04  0.25500000000E-02 0. -1.
    8880023    1    1    2    0    0 -0.12888143790E+03  0.23950669612E+03 -0.13729451908E+04  0.15468557094E+04  0.65864270000E+03 0. -1.
    8880022    1    1    2    0    0  0.12888143790E+03 -0.23950669612E+03  0.41639038751E+03  0.52033305713E+03  0.15294330000E+03 0.  0.
<mgrwt>
<rscale>  0 0.57966932E+03</rscale>
<asrwt>0</asrwt>
<pdfrwt beam="1">  1        2 0.23259566E+00 0.71258971E+03</pdfrwt>
<pdfrwt beam="2">  1       -2 0.85433382E-01 0.71258971E+03</pdfrwt>
<totfact> 0.15326272E+01</totfact>
</mgrwt>
</event>
<event>
 4    1  0.6502538E-008  0.1143984E+04  0.7818608E-02  0.9213596E-01
         -2   -1    0    0    0  501 -0.00000000000E+00  0.00000000000E+00  0.92878349682E+03  0.92878349683E+03  0.25500000000E-02 0.  1.
          2   -1    0    0  501    0  0.00000000000E+00 -0.00000000000E+00 -0.17054538240E+04  0.17054538240E+04  0.25500000000E-02 0. -1.
    8880023    1    1    2    0    0 -0.16305924742E+03 -0.92103272417E+03 -0.11439229365E+04  0.16177946372E+04  0.65864270000E+03 0.  0.
    8880022    1    1    2    0    0  0.16305924742E+03  0.92103272417E+03  0.36725260930E+03  0.10164426837E+04  0.15294330000E+03 0.  0.
<mgrwt>
<rscale>  0 0.10914191E+04</rscale>
<asrwt>0</asrwt>
<pdfrwt beam="1">  1        2 0.26237751E+00 0.11439842E+04</pdfrwt>
<pdfrwt beam="2">  1       -2 0.14288977E+00 0.11439842E+04</pdfrwt>
<totfact> 0.32446105E+00</totfact>
</mgrwt>
</event>
<event>
 4    1  0.6502538E-008  0.8177380E+03  0.7818608E-02  0.9673679E-01
         -2   -1    0    0    0  501 -0.00000000000E+00  0.00000000000E+00  0.88371911797E+03  0.88371911797E+03  0.25500000000E-02 0.  1.
          2   -1    0    0  501    0  0.00000000000E+00 -0.00000000000E+00 -0.12635943085E+04  0.12635943085E+04  0.25500000000E-02 0. -1.
    8880023    1    1    2    0    0 -0.25260064830E+03 -0.41361592387E+03 -0.10344396360E+04  0.13186207896E+04  0.65864270000E+03 0. -1.
    8880022    1    1    2    0    0  0.25260064830E+03  0.41361592387E+03  0.65456444552E+03  0.82869263683E+03  0.15294330000E+03 0.  0.
<mgrwt>
<rscale>  0 0.72605801E+03</rscale>
<asrwt>0</asrwt>
<pdfrwt beam="1">  1        2 0.19439912E+00 0.81773799E+03</pdfrwt>
<pdfrwt beam="2">  1       -2 0.13595679E+00 0.81773799E+03</pdfrwt>
<totfact> 0.68116539E+00</totfact>
</mgrwt>
</event>
<event>
 4    1  0.6502538E-008  0.1627747E+04  0.7818608E-02  0.8824328E-01
         -2   -1    0    0    0  501 -0.00000000000E+00  0.00000000000E+00  0.14616655323E+04  0.14616655323E+04  0.25500000000E-02 0.  1.
          2   -1    0    0  501    0  0.00000000000E+00 -0.00000000000E+00 -0.18924608959E+04  0.18924608959E+04  0.25500000000E-02 0. -1.
    8880023    1    1    2    0    0  0.10300395186E+04 -0.10746017227E+04 -0.79876627218E+03  0.18131707135E+04  0.65864270000E+03 0.  1.
    8880022    1    1    2    0    0 -0.10300395186E+04  0.10746017227E+04  0.36797090855E+03  0.15409557148E+04  0.15294330000E+03 0.  0.
<mgrwt>
<rscale>  0 0.15938608E+04</rscale>
<asrwt>0</asrwt>
<pdfrwt beam="1">  1        2 0.29114783E+00 0.16277471E+04</pdfrwt>
<pdfrwt beam="2">  1       -2 0.22487162E+00 0.16277471E+04</pdfrwt>
<totfact> 0.65432890E-01</totfact>
</mgrwt>
</event>
<event>
 4    1  0.6502538E-008  0.8665434E+03  0.7818608E-02  0.9582028E-01
         -2   -1    0    0    0  501 -0.00000000000E+00  0.00000000000E+00  0.60556168645E+03  0.60556168645E+03  0.25500000000E-02 0.  1.
          2   -1    0    0  501    0  0.00000000000E+00 -0.00000000000E+00 -0.12128347548E+04  0.12128347548E+04  0.25500000000E-02 0. -1.
    8880023    1    1    2    0    0  0.48906530005E+03  0.27911004110E+03  0.13205157902E+03  0.87654726544E+03  0.65864270000E+03 0.  1.
    8880022    1    1    2    0    0 -0.48906530005E+03 -0.27911004110E+03 -0.73932464735E+03  0.94184917580E+03  0.15294330000E+03 0.  0.
<mgrwt>
<rscale>  0 0.78497175E+03</rscale>
<asrwt>0</asrwt>
<pdfrwt beam="1">  1        2 0.18658996E+00 0.86654341E+03</pdfrwt>
<pdfrwt beam="2">  1       -2 0.93163337E-01 0.86654341E+03</pdfrwt>
<totfact> 0.18277377E+01</totfact>
</mgrwt>
</event>
<event>
 4    1  0.6502538E-008  0.8707095E+03  0.7818608E-02  0.9574790E-01
          2   -1    0    0  501    0  0.00000000000E+00  0.00000000000E+00  0.63450815984E+03  0.63450815985E+03  0.25500000000E-02 0. -1.
         -2   -1    0    0    0  501 -0.00000000000E+00 -0.00000000000E+00 -0.85166018833E+03  0.85166018834E+03  0.25500000000E-02 0.  1.
    8880023    1    1    2    0    0 -0.10357213421E+03  0.55999782188E+03 -0.21341135998E+03  0.89648165755E+03  0.65864270000E+03 0.  1.
    8880022    1    1    2    0    0  0.10357213421E+03 -0.55999782188E+03 -0.37406685085E+01  0.58968669063E+03  0.15294330000E+03 0. -1.
<mgrwt>
<rscale>  0 0.78987450E+03</rscale>
<asrwt>0</asrwt>
<pdfrwt beam="1">  1        2 0.97616640E-01 0.87070945E+03</pdfrwt>
<pdfrwt beam="2">  1       -2 0.13102464E+00 0.87070945E+03</pdfrwt>
<totfact> 0.19786075E+01</totfact>
</mgrwt>
</event>
<event>
 4    1  0.6502538E-008  0.1098285E+04  0.7818608E-02  0.9262968E-01
          2   -1    0    0  501    0  0.00000000000E+00  0.00000000000E+00  0.10696694920E+04  0.10696694920E+04  0.25500000000E-02 0. -1.
         -2   -1    0    0    0  501 -0.00000000000E+00 -0.00000000000E+00 -0.16409393279E+04  0.16409393279E+04  0.25500000000E-02 0.  1.
    8880023    1    1    2    0    0 -0.52804903798E+02 -0.87728600361E+03  0.58961977303E+03  0.12465475414E+04  0.65864270000E+03 0.  0.
    8880022    1    1    2    0    0  0.52804903798E+02  0.87728600361E+03 -0.11608896090E+04  0.14640612785E+04  0.15294330000E+03 0.  0.
<mgrwt>
<rscale>  0 0.10426473E+04</rscale>
<asrwt>0</asrwt>
<pdfrwt beam="1">  1        2 0.16456454E+00 0.10982847E+04</pdfrwt>
<pdfrwt beam="2">  1       -2 0.25245221E+00 0.10982847E+04</pdfrwt>
<totfact> 0.13910122E+00</totfact>
</mgrwt>
</event>
<event>
 4    1  0.6502538E-008  0.1021488E+04  0.7818608E-02  0.9353970E-01
         -2   -1    0    0    0  501 -0.00000000000E+00  0.00000000000E+00  0.16275373524E+04  0.16275373524E+04  0.25500000000E-02 0.  1.
          2   -1    0    0  501    0  0.00000000000E+00 -0.00000000000E+00 -0.16039450358E+04  0.16039450358E+04  0.25500000000E-02 0. -1.
    8880023    1    1    2    0    0  0.44375368056E+03 -0.64242482406E+03 -0.13205492927E+04  0.16695171830E+04  0.65864270000E+03 0. -1.
    8880022    1    1    2    0    0 -0.44375368056E+03  0.64242482406E+03  0.13441416093E+04  0.15619652053E+04  0.15294330000E+03 0.  0.
<mgrwt>
<rscale>  0 0.95962583E+03</rscale>
<asrwt>0</asrwt>
<pdfrwt beam="1">  1        2 0.24676078E+00 0.10214877E+04</pdfrwt>
<pdfrwt beam="2">  1       -2 0.25039036E+00 0.10214877E+04</pdfrwt>
<totfact> 0.70609754E-01</totfact>
</mgrwt>
</event>
<event>
 4    1  0.6502538E-008  0.8973495E+03  0.7818608E-02  0.9530300E-01
          2   -1    0    0  501    0  0.00000000000E+00  0.00000000000E+00  0.12847921570E+04  0.12847921570E+04  0.25500000000E-02 0. -1.
         -2   -1    0    0    0  501 -0.00000000000E+00 -0.00000000000E+00 -0.82676717834E+03  0.82676717835E+03  0.25500000000E-02 0.  1.
    8880023    1    1    2    0    0 -0.10493500425E+03 -0.60034537150E+03  0.95499327923E+03  0.13104382053E+04  0.65864270000E+03 0.  0.
    8880022    1    1    2    0    0  0.10493500425E+03  0.60034537150E+03 -0.49696830060E+03  0.80112113005E+03  0.15294330000E+03 0.  1.
<mgrwt>
<rscale>  0 0.82086319E+03</rscale>
<asrwt>0</asrwt>
<pdfrwt beam="1">  1        2 0.19766033E+00 0.89734950E+03</pdfrwt>
<pdfrwt beam="2">  1       -2 0.12719495E+00 0.89734950E+03</pdfrwt>
<totfact> 0.77689319E+00</totfact>
</mgrwt>
</event>
<event>
 4    1  0.6502538E-008  0.8281309E+03  0.7818608E-02  0.9652980E-01
          2   -1    0    0  501    0  0.00000000000E+00  0.00000000000E+00  0.21860350958E+04  0.21860350958E+04  0.25500000000E-02 0. -1.
         -2   -1    0    0    0  501 -0.00000000000E+00 -0.00000000000E+00 -0.34393558948E+03  0.34393558949E+03  0.25500000000E-02 0.  1.
    8880023    1    1    2    0    0 -0.19739109127E+03  0.46154876285E+03  0.18259343382E+04  0.20049530960E+04  0.65864270000E+03 0.  1.
    8880022    1    1    2    0    0  0.19739109127E+03 -0.46154876285E+03  0.16165168113E+02  0.52501758930E+03  0.15294330000E+03 0.  0.
<mgrwt>
<rscale>  0 0.73886688E+03</rscale>
<asrwt>0</asrwt>
<pdfrwt beam="1">  1        2 0.33631310E+00 0.82813085E+03</pdfrwt>
<pdfrwt beam="2">  1       -2 0.52913166E-01 0.82813085E+03</pdfrwt>
<totfact> 0.18197520E+01</totfact>
</mgrwt>
</event>
<event>
 4    1  0.6502538E-008  0.1448584E+04  0.7818608E-02  0.8946822E-01
         -2   -1    0    0    0  501 -0.00000000000E+00  0.00000000000E+00  0.12606839053E+04  0.12606839053E+04  0.25500000000E-02 0.  1.
          2   -1    0    0  501    0  0.00000000000E+00 -0.00000000000E+00 -0.19729509276E+04  0.19729509276E+04  0.25500000000E-02 0. -1.
    8880023    1    1    2    0    0  0.67198861702E+03 -0.11013708105E+04  0.42215831075E+03  0.15088453232E+04  0.65864270000E+03 0.  0.
    8880022    1    1    2    0    0 -0.67198861702E+03  0.11013708105E+04 -0.11344253330E+04  0.17247895097E+04  0.15294330000E+03 0.  0.
<mgrwt>
<rscale>  0 0.14097064E+04</rscale>
<asrwt>0</asrwt>
<pdfrwt beam="1">  1        2 0.30353091E+00 0.14485843E+04</pdfrwt>
<pdfrwt beam="2">  1       -2 0.19395137E+00 0.14485843E+04</pdfrwt>
<totfact> 0.95303924E-01</totfact>
</mgrwt>
</event>
<event>
 4    1  0.6502538E-008  0.6680864E+03  0.7818608E-02  0.1017073E+00
          2   -1    0    0  501    0  0.00000000000E+00  0.00000000000E+00  0.11172306858E+04  0.11172306858E+04  0.25500000000E-02 0. -1.
         -2   -1    0    0    0  501 -0.00000000000E+00 -0.00000000000E+00 -0.20797792329E+03  0.20797792330E+03  0.25500000000E-02 0.  1.
    8880023    1    1    2    0    0  0.10672802082E+03 -0.33740301830E+02  0.91812791085E+03  0.11354727409E+04  0.65864270000E+03 0. -1.
    8880022    1    1    2    0    0 -0.10672802082E+03  0.33740301830E+02 -0.88751483667E+01  0.18973586817E+03  0.15294330000E+03 0.  0.
<mgrwt>
<rscale>  0 0.48757669E+03</rscale>
<asrwt>0</asrwt>
<pdfrwt beam="1">  1        2 0.17188164E+00 0.66808644E+03</pdfrwt>
<pdfrwt beam="2">  1       -2 0.31996604E-01 0.66808644E+03</pdfrwt>
<totfact> 0.19631518E+02</totfact>
</mgrwt>
</event>
<event>
 4    1  0.6502538E-008  0.1315776E+04  0.7818608E-02  0.9052055E-01
          2   -1    0    0  501    0  0.00000000000E+00  0.00000000000E+00  0.55678468954E+03  0.55678468955E+03  0.25500000000E-02 0. -1.
         -2   -1    0    0    0  501 -0.00000000000E+00 -0.00000000000E+00 -0.32996742293E+04  0.32996742293E+04  0.25500000000E-02 0.  1.
    8880023    1    1    2    0    0  0.10077288107E+04  0.53097836466E+03 -0.64722946763E+03  0.14663463335E+04  0.65864270000E+03 0.  0.
    8880022    1    1    2    0    0 -0.10077288107E+04 -0.53097836466E+03 -0.20956600721E+04  0.23901125853E+04  0.15294330000E+03 0.  0.
<mgrwt>
<rscale>  0 0.12720171E+04</rscale>
<asrwt>0</asrwt>
<pdfrwt beam="1">  1        2 0.85659185E-01 0.13157757E+04</pdfrwt>
<pdfrwt beam="2">  1       -2 0.50764218E+00 0.13157757E+04</pdfrwt>
<totfact> 0.77830570E-02</totfact>
</mgrwt>
</event>
<event>
 4    1  0.6502538E-008  0.7578781E+03  0.7818608E-02  0.9810632E-01
          2   -1    0    0  501    0  0.00000000000E+00  0.00000000000E+00  0.11646490990E+04  0.11646490990E+04  0.25500000000E-02 0. -1.
         -2   -1    0    0    0  501 -0.00000000000E+00 -0.00000000000E+00 -0.54548053623E+03  0.54548053624E+03  0.25500000000E-02 0.  1.
    8880023    1    1    2    0    0  0.29361498142E+03 -0.23315055386E+03  0.92997313641E+03  0.11996787815E+04  0.65864270000E+03 0. -1.
    8880022    1    1    2    0    0 -0.29361498142E+03  0.23315055386E+03 -0.31080457364E+03  0.51045085374E+03  0.15294330000E+03 0.  0.
<mgrwt>
<rscale>  0 0.64795065E+03</rscale>
<asrwt>0</asrwt>
<pdfrwt beam="1">  1        2 0.17917678E+00 0.75787805E+03</pdfrwt>
<pdfrwt beam="2">  1       -2 0.83920082E-01 0.75787805E+03</pdfrwt>
<totfact> 0.25108094E+01</totfact>
</mgrwt>
</event>
<event>
 4    1  0.6502538E-008  0.6900468E+03  0.7818608E-02  0.1004130E+00
          2   -1    0    0  501    0  0.00000000000E+00  0.00000000000E+00  0.15354609062E+04  0.15354609062E+04  0.25500000000E-02 0. -1.
         -2   -1    0    0    0  501 -0.00000000000E+00 -0.00000000000E+00 -0.80195870767E+03  0.80195870767E+03  0.25500000000E-02 0.  1.
    8880023    1    1    2    0    0 -0.20417616788E+03  0.25815012263E+02  0.14340429033E+04  0.15914281565E+04  0.65864270000E+03 0. -1.
    8880022    1    1    2    0    0  0.20417616788E+03 -0.25815012263E+02 -0.70054070480E+03  0.74599145738E+03  0.15294330000E+03 0.  0.
<mgrwt>
<rscale>  0 0.53875652E+03</rscale>
<asrwt>0</asrwt>
<pdfrwt beam="1">  1        2 0.23622475E+00 0.69004676E+03</pdfrwt>
<pdfrwt beam="2">  1       -2 0.12337826E+00 0.69004676E+03</pdfrwt>
<totfact> 0.62185558E+00</totfact>
</mgrwt>
</event>
<event>
 4    1  0.6502538E-008  0.1529596E+04  0.7818608E-02  0.8889015E-01
          2   -1    0    0  501    0  0.00000000000E+00  0.00000000000E+00  0.13749784416E+04  0.13749784416E+04  0.25500000000E-02 0. -1.
         -2   -1    0    0    0  501 -0.00000000000E+00 -0.00000000000E+00 -0.16064410258E+04  0.16064410258E+04  0.25500000000E-02 0.  1.
    8880023    1    1    2    0    0  0.12823155606E+04  0.51139169939E+03 -0.40326366122E+03  0.15818617050E+04  0.65864270000E+03 0.  0.
    8880022    1    1    2    0    0 -0.12823155606E+04 -0.51139169939E+03  0.17180107701E+03  0.13995577624E+04  0.15294330000E+03 0.  0.
<mgrwt>
<rscale>  0 0.14931591E+04</rscale>
<asrwt>0</asrwt>
<pdfrwt beam="1">  1        2 0.21153514E+00 0.15295963E+04</pdfrwt>
<pdfrwt beam="2">  1       -2 0.24714478E+00 0.15295963E+04</pdfrwt>
<totfact> 0.94010705E-01</totfact>
</mgrwt>
</event>
<event>
 4    1  0.6502538E-008  0.7898105E+03  0.7818608E-02  0.9733277E-01
         -2   -1    0    0    0  501 -0.00000000000E+00  0.00000000000E+00  0.74760197399E+03  0.74760197400E+03  0.25500000000E-02 0.  1.
          2   -1    0    0  501    0  0.00000000000E+00 -0.00000000000E+00 -0.15058482770E+04  0.15058482770E+04  0.25500000000E-02 0. -1.
    8880023    1    1    2    0    0 -0.43549350685E+03  0.18323994356E+02 -0.13125760862E+04  0.15318800709E+04  0.65864270000E+03 0. -1.
    8880022    1    1    2    0    0  0.43549350685E+03 -0.18323994356E+02  0.55432978319E+03  0.72157018011E+03  0.15294330000E+03 0.  0.
<mgrwt>
<rscale>  0 0.69069592E+03</rscale>
<asrwt>0</asrwt>
<pdfrwt beam="1">  1        2 0.23166896E+00 0.78981046E+03</pdfrwt>
<pdfrwt beam="2">  1       -2 0.11501569E+00 0.78981046E+03</pdfrwt>
<totfact> 0.75702819E+00</totfact>
</mgrwt>
</event>
<event>
 4    1  0.6502538E-008  0.9534334E+03  0.7818608E-02  0.9445191E-01
          2   -1    0    0  501    0  0.00000000000E+00  0.00000000000E+00  0.18799698128E+04  0.18799698128E+04  0.25500000000E-02 0. -1.
         -2   -1    0    0    0  501 -0.00000000000E+00 -0.00000000000E+00 -0.61367497109E+03  0.61367497110E+03  0.25500000000E-02 0.  1.
    8880023    1    1    2    0    0 -0.67825385109E+03  0.12327474640E+03 -0.96975482623E+02  0.95835244045E+03  0.65864270000E+03 0.  1.
    8880022    1    1    2    0    0  0.67825385109E+03 -0.12327474640E+03  0.13632703243E+04  0.15352923434E+04  0.15294330000E+03 0.  0.
<mgrwt>
<rscale>  0 0.88448118E+03</rscale>
<asrwt>0</asrwt>
<pdfrwt beam="1">  1        2 0.28922613E+00 0.95343335E+03</pdfrwt>
<pdfrwt beam="2">  1       -2 0.94411534E-01 0.95343335E+03</pdfrwt>
<totfact> 0.74030280E+00</totfact>
</mgrwt>
</event>
<event>
 4    1  0.6502538E-008  0.1121464E+04  0.7818608E-02  0.9237527E-01
          2   -1    0    0  501    0  0.00000000000E+00  0.00000000000E+00  0.27849163730E+04  0.27849163730E+04  0.25500000000E-02 0. -1.
         -2   -1    0    0    0  501 -0.00000000000E+00 -0.00000000000E+00 -0.77497219412E+03  0.77497219412E+03  0.25500000000E-02 0.  1.
    8880023    1    1    2    0    0 -0.46799513358E+03  0.77772169584E+03  0.23296109810E+04  0.25854918314E+04  0.65864270000E+03 0.  0.
    8880022    1    1    2    0    0  0.46799513358E+03 -0.77772169584E+03 -0.31966680210E+03  0.97439673574E+03  0.15294330000E+03 0.  0.
<mgrwt>
<rscale>  0 0.10674342E+04</rscale>
<asrwt>0</asrwt>
<pdfrwt beam="1">  1        2 0.42844868E+00 0.11214636E+04</pdfrwt>
<pdfrwt beam="2">  1       -2 0.11922649E+00 0.11214636E+04</pdfrwt>
<totfact> 0.12679735E+00</totfact>
</mgrwt>
</event>
<event>
 4    1  0.6502538E-008  0.1145175E+04  0.7818608E-02  0.9212351E-01
         -2   -1    0    0    0  501 -0.00000000000E+00  0.00000000000E+00  0.81111058354E+03  0.81111058354E+03  0.25500000000E-02 0.  1.
          2   -1    0    0  501    0  0.00000000000E+00 -0.00000000000E+00 -0.25739700505E+04  0.25739700505E+04  0.25500000000E-02 0. -1.
    8880023    1    1    2    0    0  0.93613729537E+03 -0.35531162810E+02 -0.20882520675E+04  0.23816427950E+04  0.65864270000E+03 0.  0.
    8880022    1    1    2    0    0 -0.93613729537E+03  0.35531162810E+02  0.32539260054E+03  0.10034378390E+04  0.15294330000E+03 0.  0.
<mgrwt>
<rscale>  0 0.10926848E+04</rscale>
<asrwt>0</asrwt>
<pdfrwt beam="1">  1        2 0.39599539E+00 0.11451750E+04</pdfrwt>
<pdfrwt beam="2">  1       -2 0.12478624E+00 0.11451750E+04</pdfrwt>
<totfact> 0.14996662E+00</totfact>
</mgrwt>
</event>
<event>
 4    1  0.6502538E-008  0.1030121E+04  0.7818608E-02  0.9343170E-01
          2   -1    0    0  501    0  0.00000000000E+00  0.00000000000E+00  0.12558818600E+04  0.12558818600E+04  0.25500000000E-02 0. -1.
         -2   -1    0    0    0  501 -0.00000000000E+00 -0.00000000000E+00 -0.20505553905E+04  0.20505553905E+04  0.25500000000E-02 0.  1.
    8880023    1    1    2    0    0  0.35656282784E+03 -0.70724905791E+03  0.93925895380E+03  0.13940429938E+04  0.65864270000E+03 0. -1.
    8880022    1    1    2    0    0 -0.35656282784E+03  0.70724905791E+03 -0.17339324842E+04  0.19123942567E+04  0.15294330000E+03 0.  0.
<mgrwt>
<rscale>  0 0.96903878E+03</rscale>
<asrwt>0</asrwt>
<pdfrwt beam="1">  1        2 0.19321259E+00 0.10301206E+04</pdfrwt>
<pdfrwt beam="2">  1       -2 0.31547006E+00 0.10301206E+04</pdfrwt>
<totfact> 0.44883216E-01</totfact>
</mgrwt>
</event>
<event>
 4    1  0.6502538E-008  0.8685157E+03  0.7818608E-02  0.9578591E-01
          2   -1    0    0  501    0  0.00000000000E+00  0.00000000000E+00  0.25140094506E+04  0.25140094506E+04  0.25500000000E-02 0. -1.
         -2   -1    0    0    0  501 -0.00000000000E+00 -0.00000000000E+00 -0.41123377417E+03  0.41123377418E+03  0.25500000000E-02 0.  1.
    8880023    1    1    2    0    0 -0.45369999817E+03 -0.33862321191E+03  0.21677111312E+04  0.23352282806E+04  0.65864270000E+03 0.  0.
    8880022    1    1    2    0    0  0.45369999817E+03  0.33862321191E+03 -0.64935454819E+02  0.59001494413E+03  0.15294330000E+03 0.  0.
<mgrwt>
<rscale>  0 0.78729492E+03</rscale>
<asrwt>0</asrwt>
<pdfrwt beam="1">  1        2 0.38677069E+00 0.86851573E+03</pdfrwt>
<pdfrwt beam="2">  1       -2 0.63266734E-01 0.86851573E+03</pdfrwt>
<totfact> 0.81409660E+00</totfact>
</mgrwt>
</event>
<event>
 4    1  0.6502538E-008  0.9124368E+03  0.7818608E-02  0.9506354E-01
          2   -1    0    0  501    0  0.00000000000E+00  0.00000000000E+00  0.22591269705E+04  0.22591269705E+04  0.25500000000E-02 0. -1.
         -2   -1    0    0    0  501 -0.00000000000E+00 -0.00000000000E+00 -0.49847321040E+03  0.49847321041E+03  0.25500000000E-02 0.  1.
    8880023    1    1    2    0    0 -0.31936441953E+03 -0.54473570787E+03  0.18867226358E+04  0.20957726820E+04  0.65864270000E+03 0.  0.
    8880022    1    1    2    0    0  0.31936441953E+03  0.54473570787E+03 -0.12606887569E+03  0.66182749892E+03  0.15294330000E+03 0.  0.
<mgrwt>
<rscale>  0 0.83816952E+03</rscale>
<asrwt>0</asrwt>
<pdfrwt beam="1">  1        2 0.34755799E+00 0.91243675E+03</pdfrwt>
<pdfrwt beam="2">  1       -2 0.76688186E-01 0.91243675E+03</pdfrwt>
<totfact> 0.73947011E+00</totfact>
</mgrwt>
</event>
<event>
 4    1  0.6502538E-008  0.1225541E+04  0.7818608E-02  0.9132686E-01
          2   -1    0    0  501    0  0.00000000000E+00  0.00000000000E+00  0.48321738610E+03  0.48321738610E+03  0.25500000000E-02 0. -1.
         -2   -1    0    0    0  501 -0.00000000000E+00 -0.00000000000E+00 -0.27442205161E+04  0.27442205161E+04  0.25500000000E-02 0.  1.
    8880023    1    1    2    0    0  0.10333326389E+04  0.19092519696E+02 -0.94750191788E+03  0.15491000476E+04  0.65864270000E+03 0.  0.
    8880022    1    1    2    0    0 -0.10333326389E+04 -0.19092519696E+02 -0.13135012122E+04  0.16783378546E+04  0.15294330000E+03 0.  0.
<mgrwt>
<rscale>  0 0.11776073E+04</rscale>
<asrwt>0</asrwt>
<pdfrwt beam="1">  1        2 0.74341137E-01 0.12255411E+04</pdfrwt>
<pdfrwt beam="2">  1       -2 0.42218777E+00 0.12255411E+04</pdfrwt>
<totfact> 0.33696153E-01</totfact>
</mgrwt>
</event>
<event>
 4    1  0.6502538E-008  0.8756074E+03  0.7818608E-02  0.9566382E-01
         -2   -1    0    0    0  501 -0.00000000000E+00  0.00000000000E+00  0.40090107943E+04  0.40090107943E+04  0.25500000000E-02 0.  1.
          2   -1    0    0  501    0  0.00000000000E+00 -0.00000000000E+00 -0.91349343256E+03  0.91349343257E+03  0.25500000000E-02 0. -1.
    8880023    1    1    2    0    0 -0.54824788194E+03  0.17972852801E+03 -0.67465726884E+03  0.11053735660E+04  0.65864270000E+03 0.  0.
    8880022    1    1    2    0    0  0.54824788194E+03 -0.17972852801E+03  0.37701746305E+04  0.38171306608E+04  0.15294330000E+03 0.  0.
<mgrwt>
<rscale>  0 0.79561768E+03</rscale>
<asrwt>0</asrwt>
<pdfrwt beam="1">  1        2 0.14053745E+00 0.87560738E+03</pdfrwt>
<pdfrwt beam="2">  1       -2 0.61677088E+00 0.87560738E+03</pdfrwt>
<totfact> 0.12602055E-02</totfact>
</mgrwt>
</event>
<event>
 4    1  0.6502538E-008  0.1030534E+04  0.7818608E-02  0.9342656E-01
          2   -1    0    0  501    0  0.00000000000E+00  0.00000000000E+00  0.45771819523E+04  0.45771819523E+04  0.25500000000E-02 0. -1.
         -2   -1    0    0    0  501 -0.00000000000E+00 -0.00000000000E+00 -0.51522045372E+03  0.51522045373E+03  0.25500000000E-02 0.  1.
    8880023    1    1    2    0    0  0.57171197668E+03 -0.54894067565E+03  0.41540421275E+04  0.42799610575E+04  0.65864270000E+03 0. -1.
    8880022    1    1    2    0    0 -0.57171197668E+03  0.54894067565E+03 -0.92080628943E+02  0.81244134859E+03  0.15294330000E+03 0.  0.
<mgrwt>
<rscale>  0 0.96948912E+03</rscale>
<asrwt>0</asrwt>
<pdfrwt beam="1">  1        2 0.70418184E+00 0.10305342E+04</pdfrwt>
<pdfrwt beam="2">  1       -2 0.79264685E-01 0.10305342E+04</pdfrwt>
<totfact> 0.15585532E-01</totfact>
</mgrwt>
</event>
<event>
 4    1  0.6502538E-008  0.7760104E+03  0.7818608E-02  0.9765293E-01
         -2   -1    0    0    0  501 -0.00000000000E+00  0.00000000000E+00  0.73610144805E+03  0.73610144806E+03  0.25500000000E-02 0.  1.
          2   -1    0    0  501    0  0.00000000000E+00 -0.00000000000E+00 -0.82271323133E+03  0.82271323133E+03  0.25500000000E-02 0. -1.
    8880023    1    1    2    0    0 -0.13302269170E+03 -0.38818417212E+03 -0.52677462793E+03  0.93791454988E+03  0.65864270000E+03 0.  0.
    8880022    1    1    2    0    0  0.13302269170E+03  0.38818417212E+03  0.44016284465E+03  0.62090012950E+03  0.15294330000E+03 0.  0.
<mgrwt>
<rscale>  0 0.67258826E+03</rscale>
<asrwt>0</asrwt>
<pdfrwt beam="1">  1        2 0.12657127E+00 0.77601043E+03</pdfrwt>
<pdfrwt beam="2">  1       -2 0.11324638E+00 0.77601043E+03</pdfrwt>
<totfact> 0.20558346E+01</totfact>
</mgrwt>
</event>
<event>
 4    1  0.6502538E-008  0.6837362E+03  0.7818608E-02  0.1007285E+00
          2   -1    0    0  501    0  0.00000000000E+00  0.00000000000E+00  0.12374067050E+04  0.12374067050E+04  0.25500000000E-02 0. -1.
         -2   -1    0    0    0  501 -0.00000000000E+00 -0.00000000000E+00 -0.52081320430E+03  0.52081320431E+03  0.25500000000E-02 0.  1.
    8880023    1    1    2    0    0 -0.29271130122E+02  0.18118565977E+03  0.11066377881E+04  0.13008237554E+04  0.65864270000E+03 0. -1.
    8880022    1    1    2    0    0  0.29271130122E+02 -0.18118565977E+03 -0.39004428745E+03  0.45739615384E+03  0.15294330000E+03 0.  0.
<mgrwt>
<rscale>  0 0.52568284E+03</rscale>
<asrwt>0</asrwt>
<pdfrwt beam="1">  1        2 0.19037026E+00 0.68373624E+03</pdfrwt>
<pdfrwt beam="2">  1       -2 0.80125109E-01 0.68373624E+03</pdfrwt>
<totfact> 0.25457969E+01</totfact>
</mgrwt>
</event>
<event>
 4    1  0.6502538E-008  0.7687983E+03  0.7818608E-02  0.9782840E-01
         -2   -1    0    0    0  501 -0.00000000000E+00  0.00000000000E+00  0.41936529967E+03  0.41936529968E+03  0.25500000000E-02 0.  1.
          2   -1    0    0  501    0  0.00000000000E+00 -0.00000000000E+00 -0.96497217579E+03  0.96497217579E+03  0.25500000000E-02 0. -1.
    8880023    1    1    2    0    0 -0.35476922181E+03 -0.17714256550E+03 -0.57240087189E+03  0.95848508265E+03  0.65864270000E+03 0. -1.
    8880022    1    1    2    0    0  0.35476922181E+03  0.17714256550E+03  0.26793995770E+02  0.42585239283E+03  0.15294330000E+03 0.  0.
<mgrwt>
<rscale>  0 0.66291641E+03</rscale>
<asrwt>0</asrwt>
<pdfrwt beam="1">  1        2 0.14845726E+00 0.76879835E+03</pdfrwt>
<pdfrwt beam="2">  1       -2 0.64517739E-01 0.76879835E+03</pdfrwt>
<totfact> 0.59660402E+01</totfact>
</mgrwt>
</event>
<event>
 4    1  0.6502538E-008  0.9327339E+03  0.7818608E-02  0.9475404E-01
          2   -1    0    0  501    0  0.00000000000E+00  0.00000000000E+00  0.22844568845E+04  0.22844568845E+04  0.25500000000E-02 0. -1.
         -2   -1    0    0    0  501 -0.00000000000E+00 -0.00000000000E+00 -0.70814457260E+03  0.70814457261E+03  0.25500000000E-02 0.  1.
    8880023    1    1    2    0    0  0.61930805618E+03 -0.22943364324E+03  0.19904772848E+04  0.21981793131E+04  0.65864270000E+03 0. -1.
    8880022    1    1    2    0    0 -0.61930805618E+03  0.22943364324E+03 -0.41416497288E+03  0.79442214400E+03  0.15294330000E+03 0.  0.
<mgrwt>
<rscale>  0 0.86121727E+03</rscale>
<asrwt>0</asrwt>
<pdfrwt beam="1">  1        2 0.35145490E+00 0.93273387E+03</pdfrwt>
<pdfrwt beam="2">  1       -2 0.10894532E+00 0.93273387E+03</pdfrwt>
<totfact> 0.31536873E+00</totfact>
</mgrwt>
</event>
<event>
 4    1  0.6502538E-008  0.7479125E+03  0.7818608E-02  0.9837470E-01
          2   -1    0    0  501    0  0.00000000000E+00  0.00000000000E+00  0.31959369783E+04  0.31959369783E+04  0.25500000000E-02 0. -1.
         -2   -1    0    0    0  501 -0.00000000000E+00 -0.00000000000E+00 -0.20558800733E+03  0.20558800735E+03  0.25500000000E-02 0.  1.
    8880023    1    1    2    0    0 -0.31572484449E+03 -0.16087496972E+03  0.29135474067E+04  0.30080112418E+04  0.65864270000E+03 0.  0.
    8880022    1    1    2    0    0  0.31572484449E+03  0.16087496972E+03  0.76801564244E+02  0.39351374385E+03  0.15294330000E+03 0.  0.
<mgrwt>
<rscale>  0 0.63389867E+03</rscale>
<asrwt>0</asrwt>
<pdfrwt beam="1">  1        2 0.49168259E+00 0.74791252E+03</pdfrwt>
<pdfrwt beam="2">  1       -2 0.31628926E-01 0.74791252E+03</pdfrwt>
<totfact> 0.12939976E+01</totfact>
</mgrwt>
</event>
<event>
 4    1  0.6502538E-008  0.1008559E+04  0.7818608E-02  0.9370444E-01
          2   -1    0    0  501    0  0.00000000000E+00  0.00000000000E+00  0.47367199250E+04  0.47367199250E+04  0.25500000000E-02 0. -1.
         -2   -1    0    0    0  501 -0.00000000000E+00 -0.00000000000E+00 -0.25903160782E+03  0.25903160784E+03  0.25500000000E-02 0.  1.
    8880023    1    1    2    0    0  0.96149391126E+02  0.75771843233E+03  0.38936817234E+04  0.40221821811E+04  0.65864270000E+03 0.  0.
    8880022    1    1    2    0    0 -0.96149391126E+02 -0.75771843233E+03  0.58400659370E+03  0.97356935172E+03  0.15294330000E+03 0.  0.
<mgrwt>
<rscale>  0 0.94548459E+03</rscale>
<asrwt>0</asrwt>
<pdfrwt beam="1">  1        2 0.72872616E+00 0.10085594E+04</pdfrwt>
<pdfrwt beam="2">  1       -2 0.39851016E-01 0.10085594E+04</pdfrwt>
<totfact> 0.45331283E-01</totfact>
</mgrwt>
</event>
<event>
 4    1  0.6502538E-008  0.7186101E+03  0.7818608E-02  0.9927317E-01
         -2   -1    0    0    0  501 -0.00000000000E+00  0.00000000000E+00  0.17359004367E+04  0.17359004367E+04  0.25500000000E-02 0.  1.
          2   -1    0    0  501    0  0.00000000000E+00 -0.00000000000E+00 -0.46154018975E+03  0.46154018976E+03  0.25500000000E-02 0. -1.
    8880023    1    1    2    0    0 -0.10365394352E+03 -0.26804123398E+03 -0.15190790607E+03  0.73449061349E+03  0.65864270000E+03 0.  0.
    8880022    1    1    2    0    0  0.10365394352E+03  0.26804123398E+03  0.14262681530E+04  0.14629500130E+04  0.15294330000E+03 0.  0.
<mgrwt>
<rscale>  0 0.58955447E+03</rscale>
<asrwt>0</asrwt>
<pdfrwt beam="1">  1        2 0.71006184E-01 0.71861008E+03</pdfrwt>
<pdfrwt beam="2">  1       -2 0.26706160E+00 0.71861008E+03</pdfrwt>
<totfact> 0.35402750E+00</totfact>
</mgrwt>
</event>
<event>
 4    1  0.6502538E-008  0.1499595E+04  0.7818608E-02  0.8909922E-01
         -2   -1    0    0    0  501 -0.00000000000E+00  0.00000000000E+00  0.21570530321E+04  0.21570530321E+04  0.25500000000E-02 0.  1.
          2   -1    0    0  501    0  0.00000000000E+00 -0.00000000000E+00 -0.10000426212E+04  0.10000426212E+04  0.25500000000E-02 0. -1.
    8880023    1    1    2    0    0 -0.13248304206E+04 -0.24453674162E+03  0.97592379388E+03  0.17891929239E+04  0.65864270000E+03 0.  0.
    8880022    1    1    2    0    0  0.13248304206E+04  0.24453674162E+03  0.18108661697E+03  0.13679027294E+04  0.15294330000E+03 0.  0.
<mgrwt>
<rscale>  0 0.14622930E+04</rscale>
<asrwt>0</asrwt>
<pdfrwt beam="1">  1        2 0.15385271E+00 0.14995946E+04</pdfrwt>
<pdfrwt beam="2">  1       -2 0.33185431E+00 0.14995946E+04</pdfrwt>
<totfact> 0.48308302E-01</totfact>
</mgrwt>
</event>
<event>
 4    1  0.6502538E-008  0.8254276E+03  0.7818608E-02  0.9658295E-01
         -2   -1    0    0    0  501 -0.00000000000E+00  0.00000000000E+00  0.29771430327E+03  0.29771430328E+03  0.25500000000E-02 0.  1.
          2   -1    0    0  501    0  0.00000000000E+00 -0.00000000000E+00 -0.28622751875E+04  0.28622751875E+04  0.25500000000E-02 0. -1.
    8880023    1    1    2    0    0 -0.10666587726E+03  0.48594544589E+03 -0.25033342925E+04  0.26359084529E+04  0.65864270000E+03 0. -1.
    8880022    1    1    2    0    0  0.10666587726E+03 -0.48594544589E+03 -0.61226591757E+02  0.52408103792E+03  0.15294330000E+03 0.  0.
<mgrwt>
<rscale>  0 0.73555107E+03</rscale>
<asrwt>0</asrwt>
<pdfrwt beam="1">  1        2 0.44035001E+00 0.82542764E+03</pdfrwt>
<pdfrwt beam="2">  1       -2 0.45802202E-01 0.82542764E+03</pdfrwt>
<totfact> 0.10016574E+01</totfact>
</mgrwt>
</event>
<event>
 4    1  0.6502538E-008  0.8095574E+03  0.7818608E-02  0.9690500E-01
         -2   -1    0    0    0  501 -0.00000000000E+00  0.00000000000E+00  0.10270814279E+04  0.10270814279E+04  0.25500000000E-02 0.  1.
          2   -1    0    0  501    0  0.00000000000E+00 -0.00000000000E+00 -0.10011872156E+04  0.10011872156E+04  0.25500000000E-02 0. -1.
    8880023    1    1    2    0    0  0.46847745859E+03  0.45845370633E+02 -0.75287302072E+03  0.11055319619E+04  0.65864270000E+03 0. -1.
    8880022    1    1    2    0    0 -0.46847745859E+03 -0.45845370633E+02  0.77876723305E+03  0.92273668156E+03  0.15294330000E+03 0.  0.
<mgrwt>
<rscale>  0 0.71585265E+03</rscale>
<asrwt>0</asrwt>
<pdfrwt beam="1">  1        2 0.15402880E+00 0.80955737E+03</pdfrwt>
<pdfrwt beam="2">  1       -2 0.15801253E+00 0.80955737E+03</pdfrwt>
<totfact> 0.66285131E+00</totfact>
</mgrwt>
</event>
<event>
 4    1  0.6502538E-008  0.1613584E+04  0.7818608E-02  0.8833333E-01
          2   -1    0    0  501    0  0.00000000000E+00  0.00000000000E+00  0.28339651484E+04  0.28339651484E+04  0.25500000000E-02 0. -1.
         -2   -1    0    0    0  501 -0.00000000000E+00 -0.00000000000E+00 -0.18252874182E+04  0.18252874182E+04  0.25500000000E-02 0.  1.
    8880023    1    1    2    0    0  0.83017544954E+03  0.12168202507E+04  0.22210686114E+04  0.27453230743E+04  0.65864270000E+03 0.  0.
    8880022    1    1    2    0    0 -0.83017544954E+03 -0.12168202507E+04 -0.12123908812E+04  0.19139294923E+04  0.15294330000E+03 0.  0.
<mgrwt>
<rscale>  0 0.15793533E+04</rscale>
<asrwt>0</asrwt>
<pdfrwt beam="1">  1        2 0.43599464E+00 0.16135839E+04</pdfrwt>
<pdfrwt beam="2">  1       -2 0.28081345E+00 0.16135839E+04</pdfrwt>
<totfact> 0.84984050E-02</totfact>
</mgrwt>
</event>
<event>
 4    1  0.6502538E-008  0.1121885E+04  0.7818608E-02  0.9237072E-01
          2   -1    0    0  501    0  0.00000000000E+00  0.00000000000E+00  0.15531911149E+04  0.15531911149E+04  0.25500000000E-02 0. -1.
         -2   -1    0    0    0  501 -0.00000000000E+00 -0.00000000000E+00 -0.82605019200E+03  0.82605019200E+03  0.25500000000E-02 0.  1.
    8880023    1    1    2    0    0 -0.90718294635E+03 -0.42839923203E+02  0.90479997855E+03  0.14412804601E+04  0.65864270000E+03 0. -1.
    8880022    1    1    2    0    0  0.90718294635E+03  0.42839923203E+02 -0.17765905563E+03  0.93796084685E+03  0.15294330000E+03 0.  0.
<mgrwt>
<rscale>  0 0.10678840E+04</rscale>
<asrwt>0</asrwt>
<pdfrwt beam="1">  1        2 0.23895248E+00 0.11218852E+04</pdfrwt>
<pdfrwt beam="2">  1       -2 0.12708465E+00 0.11218852E+04</pdfrwt>
<totfact> 0.53476554E+00</totfact>
</mgrwt>
</event>
<event>
 4    1  0.6502538E-008  0.1093743E+04  0.7818608E-02  0.9268055E-01
         -2   -1    0    0    0  501 -0.00000000000E+00  0.00000000000E+00  0.18194363980E+04  0.18194363980E+04  0.25500000000E-02 0.  1.
          2   -1    0    0  501    0  0.00000000000E+00 -0.00000000000E+00 -0.62997926511E+03  0.62997926511E+03  0.25500000000E-02 0. -1.
    8880023    1    1    2    0    0  0.50047304372E+03 -0.71553489703E+03  0.18424623791E+03  0.11091529826E+04  0.65864270000E+03 0.  0.
    8880022    1    1    2    0    0 -0.50047304372E+03  0.71553489703E+03  0.10052108949E+04  0.13402626805E+04  0.15294330000E+03 0.  0.
<mgrwt>
<rscale>  0 0.10377775E+04</rscale>
<asrwt>0</asrwt>
<pdfrwt beam="1">  1        2 0.96919887E-01 0.10937430E+04</pdfrwt>
<pdfrwt beam="2">  1       -2 0.27991329E+00 0.10937430E+04</pdfrwt>
<totfact> 0.19552621E+00</totfact>
</mgrwt>
</event>
<event>
 4    1  0.6502538E-008  0.1257297E+04  0.7818608E-02  0.9103343E-01
         -2   -1    0    0    0  501 -0.00000000000E+00  0.00000000000E+00  0.24936278745E+04  0.24936278745E+04  0.25500000000E-02 0.  1.
          2   -1    0    0  501    0  0.00000000000E+00 -0.00000000000E+00 -0.17367130701E+04  0.17367130701E+04  0.25500000000E-02 0. -1.
    8880023    1    1    2    0    0  0.22887954889E+03 -0.10462313263E+04 -0.13605394125E+04  0.18525289567E+04  0.65864270000E+03 0.  0.
    8880022    1    1    2    0    0 -0.22887954889E+03  0.10462313263E+04  0.21174542169E+04  0.23778119879E+04  0.15294330000E+03 0.  0.
<mgrwt>
<rscale>  0 0.12109304E+04</rscale>
<asrwt>0</asrwt>
<pdfrwt beam="1">  1        2 0.26718663E+00 0.12572971E+04</pdfrwt>
<pdfrwt beam="2">  1       -2 0.38363505E+00 0.12572971E+04</pdfrwt>
<totfact> 0.86416530E-02</totfact>
</mgrwt>
</event>
<event>
 4    1  0.6502538E-008  0.7551025E+03  0.7818608E-02  0.9817955E-01
          2   -1    0    0  501    0  0.00000000000E+00  0.00000000000E+00  0.82254800323E+03  0.82254800323E+03  0.25500000000E-02 0. -1.
         -2   -1    0    0    0  501 -0.00000000000E+00 -0.00000000000E+00 -0.53359337533E+03  0.53359337534E+03  0.25500000000E-02 0.  1.
    8880023    1    1    2    0    0 -0.15847261957E+03  0.33355069931E+03  0.49853162031E+03  0.90482795209E+03  0.65864270000E+03 0. -1.
    8880022    1    1    2    0    0  0.15847261957E+03 -0.33355069931E+03 -0.20957699242E+03  0.45131342649E+03  0.15294330000E+03 0.  1.
<mgrwt>
<rscale>  0 0.64407790E+03</rscale>
<asrwt>0</asrwt>
<pdfrwt beam="1">  1        2 0.12654585E+00 0.75510254E+03</pdfrwt>
<pdfrwt beam="2">  1       -2 0.82091288E-01 0.75510254E+03</pdfrwt>
<totfact> 0.43863805E+01</totfact>
</mgrwt>
</event>
<event>
 4    1  0.6502538E-008  0.7208718E+03  0.7818608E-02  0.9919647E-01
         -2   -1    0    0    0  501 -0.00000000000E+00  0.00000000000E+00  0.32037286718E+03  0.32037286719E+03  0.25500000000E-02 0.  1.
          2   -1    0    0  501    0  0.00000000000E+00 -0.00000000000E+00 -0.17532199027E+04  0.17532199027E+04  0.25500000000E-02 0. -1.
    8880023    1    1    2    0    0 -0.25375192505E+03 -0.14647841474E+03 -0.15607590610E+04  0.17191931300E+04  0.65864270000E+03 0.  0.
    8880022    1    1    2    0    0  0.25375192505E+03  0.14647841474E+03  0.12791202552E+03  0.35439963987E+03  0.15294330000E+03 0.  0.
<mgrwt>
<rscale>  0 0.59318486E+03</rscale>
<asrwt>0</asrwt>
<pdfrwt beam="1">  1        2 0.26972613E+00 0.72087181E+03</pdfrwt>
<pdfrwt beam="2">  1       -2 0.49288135E-01 0.72087181E+03</pdfrwt>
<totfact> 0.36789379E+01</totfact>
</mgrwt>
</event>
<event>
 4    1  0.6502538E-008  0.1403759E+04  0.7818608E-02  0.8980767E-01
          2   -1    0    0  501    0  0.00000000000E+00  0.00000000000E+00  0.14063930611E+04  0.14063930611E+04  0.25500000000E-02 0. -1.
         -2   -1    0    0    0  501 -0.00000000000E+00 -0.00000000000E+00 -0.14773446283E+04  0.14773446283E+04  0.25500000000E-02 0.  1.
    8880023    1    1    2    0    0 -0.12269615534E+04 -0.17690450891E+03  0.52638181984E+03  0.14992057515E+04  0.65864270000E+03 0.  0.
    8880022    1    1    2    0    0  0.12269615534E+04  0.17690450891E+03 -0.59733338711E+03  0.13845319379E+04  0.15294330000E+03 0.  0.
<mgrwt>
<rscale>  0 0.13633717E+04</rscale>
<asrwt>0</asrwt>
<pdfrwt beam="1">  1        2 0.21636816E+00 0.14037593E+04</pdfrwt>
<pdfrwt beam="2">  1       -2 0.22728379E+00 0.14037593E+04</pdfrwt>
<totfact> 0.12125746E+00</totfact>
</mgrwt>
</event>
<event>
 4    1  0.6502538E-008  0.8120651E+03  0.7818608E-02  0.9685291E-01
          2   -1    0    0  501    0  0.00000000000E+00  0.00000000000E+00  0.12273515145E+04  0.12273515145E+04  0.25500000000E-02 0. -1.
         -2   -1    0    0    0  501 -0.00000000000E+00 -0.00000000000E+00 -0.14198218759E+04  0.14198218759E+04  0.25500000000E-02 0.  1.
    8880023    1    1    2    0    0 -0.37258919460E+03 -0.29464679772E+03  0.10388442207E+04  0.13185776293E+04  0.65864270000E+03 0.  0.
    8880022    1    1    2    0    0  0.37258919460E+03  0.29464679772E+03 -0.12313145821E+04  0.13285957611E+04  0.15294330000E+03 0.  1.
<mgrwt>
<rscale>  0 0.71899325E+03</rscale>
<asrwt>0</asrwt>
<pdfrwt beam="1">  1        2 0.18882331E+00 0.81206505E+03</pdfrwt>
<pdfrwt beam="2">  1       -2 0.21843413E+00 0.81206505E+03</pdfrwt>
<totfact> 0.18822040E+00</totfact>
</mgrwt>
</event>
<event>
 4    1  0.6502538E-008  0.7004246E+03  0.7818608E-02  0.9995444E-01
          2   -1    0    0  501    0  0.00000000000E+00  0.00000000000E+00  0.40609862449E+04  0.40609862449E+04  0.25500000000E-02 0. -1.
         -2   -1    0    0    0  501 -0.00000000000E+00 -0.00000000000E+00 -0.16628977859E+03  0.16628977861E+03  0.25500000000E-02 0.  1.
    8880023    1    1    2    0    0 -0.23707211634E+03 -0.24108531912E+02  0.38810993262E+04  0.39437959627E+04  0.65864270000E+03 0.  0.
    8880022    1    1    2    0    0  0.23707211634E+03  0.24108531912E+02  0.13597140192E+02  0.28348006084E+03  0.15294330000E+03 0.  0.
<mgrwt>
<rscale>  0 0.55850444E+03</rscale>
<asrwt>0</asrwt>
<pdfrwt beam="1">  1        2 0.62476707E+00 0.70042460E+03</pdfrwt>
<pdfrwt beam="2">  1       -2 0.25583045E-01 0.70042460E+03</pdfrwt>
<totfact> 0.46962438E+00</totfact>
</mgrwt>
</event>
<event>
 4    1  0.6502538E-008  0.6625101E+03  0.7818608E-02  0.1021720E+00
          2   -1    0    0  501    0  0.00000000000E+00  0.00000000000E+00  0.27900609974E+04  0.27900609974E+04  0.25500000000E-02 0. -1.
         -2   -1    0    0    0  501 -0.00000000000E+00 -0.00000000000E+00 -0.22792252717E+03  0.22792252719E+03  0.25500000000E-02 0.  1.
    8880023    1    1    2    0    0 -0.30169971013E+02 -0.64801388511E+02  0.27123008134E+04  0.27920414316E+04  0.65864270000E+03 0. -1.
    8880022    1    1    2    0    0  0.30169971013E+02  0.64801388511E+02 -0.15016234312E+03  0.22594209305E+03  0.15294330000E+03 0.  0.
<mgrwt>
<rscale>  0 0.47070855E+03</rscale>
<asrwt>0</asrwt>
<pdfrwt beam="1">  1        2 0.42924010E+00 0.66251012E+03</pdfrwt>
<pdfrwt beam="2">  1       -2 0.35065008E-01 0.66251012E+03</pdfrwt>
<totfact> 0.19143084E+01</totfact>
</mgrwt>
</event>
<event>
 4    1  0.6502538E-008  0.8511573E+03  0.7818608E-02  0.9609491E-01
         -2   -1    0    0    0  501 -0.00000000000E+00  0.00000000000E+00  0.49875906553E+03  0.49875906554E+03  0.25500000000E-02 0.  1.
          2   -1    0    0  501    0  0.00000000000E+00 -0.00000000000E+00 -0.15133736182E+04  0.15133736182E+04  0.25500000000E-02 0. -1.
    8880023    1    1    2    0    0 -0.41892196042E+03 -0.33935657599E+03 -0.11546844578E+04  0.14344911634E+04  0.65864270000E+03 0.  0.
    8880022    1    1    2    0    0  0.41892196042E+03  0.33935657599E+03  0.14006990519E+03  0.57764152027E+03  0.15294330000E+03 0.  0.
<mgrwt>
<rscale>  0 0.76671196E+03</rscale>
<asrwt>0</asrwt>
<pdfrwt beam="1">  1        2 0.23282671E+00 0.85115727E+03</pdfrwt>
<pdfrwt beam="2">  1       -2 0.76732165E-01 0.85115727E+03</pdfrwt>
<totfact> 0.19167070E+01</totfact>
</mgrwt>
</event>
<event>
 4    1  0.6502538E-008  0.1576950E+04  0.7818608E-02  0.8857127E-01
          2   -1    0    0  501    0  0.00000000000E+00  0.00000000000E+00  0.24141076073E+04  0.24141076073E+04  0.25500000000E-02 0. -1.
         -2   -1    0    0    0  501 -0.00000000000E+00 -0.00000000000E+00 -0.10241423688E+04  0.10241423688E+04  0.25500000000E-02 0.  1.
    8880023    1    1    2    0    0  0.53157798017E+03 -0.13305583051E+04  0.24091853141E+03  0.15952468453E+04  0.65864270000E+03 0. -1.
    8880022    1    1    2    0    0 -0.53157798017E+03  0.13305583051E+04  0.11490467070E+04  0.18430031309E+04  0.15294330000E+03 0.  1.
<mgrwt>
<rscale>  0 0.15417929E+04</rscale>
<asrwt>0</asrwt>
<pdfrwt beam="1">  1        2 0.37140117E+00 0.15769498E+04</pdfrwt>
<pdfrwt beam="2">  1       -2 0.15756037E+00 0.15769498E+04</pdfrwt>
<totfact> 0.95976428E-01</totfact>
</mgrwt>
</event>
<event>
 4    1  0.6502538E-008  0.1483527E+04  0.7818608E-02  0.8921357E-01
          2   -1    0    0  501    0  0.00000000000E+00  0.00000000000E+00  0.29582559547E+04  0.29582559547E+04  0.25500000000E-02 0. -1.
         -2   -1    0    0    0  501 -0.00000000000E+00 -0.00000000000E+00 -0.91635174490E+03  0.91635174491E+03  0.25500000000E-02 0.  1.
    8880023    1    1    2    0    0 -0.11034511216E+04  0.74123978082E+03  0.20573569803E+04  0.25364480561E+04  0.65864270000E+03 0.  0.
    8880022    1    1    2    0    0  0.11034511216E+04 -0.74123978082E+03 -0.15452770498E+02  0.13381596435E+04  0.15294330000E+03 0.  0.
<mgrwt>
<rscale>  0 0.14457434E+04</rscale>
<asrwt>0</asrwt>
<pdfrwt beam="1">  1        2 0.45511629E+00 0.14835265E+04</pdfrwt>
<pdfrwt beam="2">  1       -2 0.14097720E+00 0.14835265E+04</pdfrwt>
<totfact> 0.61988176E-01</totfact>
</mgrwt>
</event>
<event>
 4    1  0.6502538E-008  0.7175187E+03  0.7818608E-02  0.9931073E-01
          2   -1    0    0  501    0  0.00000000000E+00  0.00000000000E+00  0.98293735398E+03  0.98293735398E+03  0.25500000000E-02 0. -1.
         -2   -1    0    0    0  501 -0.00000000000E+00 -0.00000000000E+00 -0.90169370577E+03  0.90169370577E+03  0.25500000000E-02 0.  1.
    8880023    1    1    2    0    0  0.60659224988E+02 -0.27810668514E+03  0.81321675430E+03  0.10845066001E+04  0.65864270000E+03 0. -1.
    8880022    1    1    2    0    0 -0.60659224988E+02  0.27810668514E+03 -0.73197310609E+03  0.80012445966E+03  0.15294330000E+03 0.  0.
<mgrwt>
<rscale>  0 0.58778707E+03</rscale>
<asrwt>0</asrwt>
<pdfrwt beam="1">  1        2 0.15122113E+00 0.71751869E+03</pdfrwt>
<pdfrwt beam="2">  1       -2 0.13872211E+00 0.71751869E+03</pdfrwt>
<totfact> 0.97077516E+00</totfact>
</mgrwt>
</event>
<event>
 4    1  0.6502538E-008  0.7410168E+03  0.7818608E-02  0.9856995E-01
          2   -1    0    0  501    0  0.00000000000E+00  0.00000000000E+00  0.24837419845E+04  0.24837419845E+04  0.25500000000E-02 0. -1.
         -2   -1    0    0    0  501 -0.00000000000E+00 -0.00000000000E+00 -0.44543251011E+03  0.44543251011E+03  0.25500000000E-02 0.  1.
    8880023    1    1    2    0    0 -0.20443383873E+03  0.27111357079E+03  0.23370724291E+04  0.24517368350E+04  0.65864270000E+03 0. -1.
    8880022    1    1    2    0    0  0.20443383873E+03 -0.27111357079E+03 -0.29876295475E+03  0.47743765963E+03  0.15294330000E+03 0.  0.
<mgrwt>
<rscale>  0 0.62391538E+03</rscale>
<asrwt>0</asrwt>
<pdfrwt beam="1">  1        2 0.38211415E+00 0.74101685E+03</pdfrwt>
<pdfrwt beam="2">  1       -2 0.68528079E-01 0.74101685E+03</pdfrwt>
<totfact> 0.72762112E+00</totfact>
</mgrwt>
</event>
<event>
 4    1  0.6502538E-008  0.9499935E+03  0.7818608E-02  0.9450123E-01
         -2   -1    0    0    0  501 -0.00000000000E+00  0.00000000000E+00  0.12475392217E+04  0.12475392217E+04  0.25500000000E-02 0.  1.
          2   -1    0    0  501    0  0.00000000000E+00 -0.00000000000E+00 -0.13223016790E+04  0.13223016790E+04  0.25500000000E-02 0. -1.
    8880023    1    1    2    0    0  0.54601896752E+03  0.41296587625E+03 -0.10192667872E+04  0.13933386227E+04  0.65864270000E+03 0. -1.
    8880022    1    1    2    0    0 -0.54601896752E+03 -0.41296587625E+03  0.94450432994E+03  0.11765022780E+04  0.15294330000E+03 0.  0.
<mgrwt>
<rscale>  0 0.88063058E+03</rscale>
<asrwt>0</asrwt>
<pdfrwt beam="1">  1        2 0.20343103E+00 0.94999354E+03</pdfrwt>
<pdfrwt beam="2">  1       -2 0.19192911E+00 0.94999354E+03</pdfrwt>
<totfact> 0.24102549E+00</totfact>
</mgrwt>
</event>
<event>
 4    1  0.6502538E-008  0.6766500E+03  0.7818608E-02  0.1011286E+00
          2   -1    0    0  501    0  0.00000000000E+00  0.00000000000E+00  0.27070637040E+04  0.27070637040E+04  0.25500000000E-02 0. -1.
         -2   -1    0    0    0  501 -0.00000000000E+00 -0.00000000000E+00 -0.11429956635E+04  0.11429956635E+04  0.25500000000E-02 0.  1.
    8880023    1    1    2    0    0 -0.14346080111E+03  0.58856200000E+02  0.26538355861E+04  0.27387403269E+04  0.65864270000E+03 0. -1.
    8880022    1    1    2    0    0  0.14346080111E+03 -0.58856200000E+02 -0.10897675456E+04  0.11113190407E+04  0.15294330000E+03 0.  0.
<mgrwt>
<rscale>  0 0.50966803E+03</rscale>
<asrwt>0</asrwt>
<pdfrwt beam="1">  1        2 0.41647134E+00 0.67665003E+03</pdfrwt>
<pdfrwt beam="2">  1       -2 0.17584549E+00 0.67665003E+03</pdfrwt>
<totfact> 0.55111198E-01</totfact>
</mgrwt>
</event>
<event>
 4    1  0.6502538E-008  0.7342249E+03  0.7818608E-02  0.9877100E-01
         -2   -1    0    0    0  501 -0.00000000000E+00  0.00000000000E+00  0.14006806514E+03  0.14006806516E+03  0.25500000000E-02 0.  1.
          2   -1    0    0  501    0  0.00000000000E+00 -0.00000000000E+00 -0.24248239450E+04  0.24248239450E+04  0.25500000000E-02 0. -1.
    8880023    1    1    2    0    0  0.32206230206E+03 -0.39393923171E+02 -0.19093958908E+04  0.20456976516E+04  0.65864270000E+03 0. -1.
    8880022    1    1    2    0    0 -0.32206230206E+03  0.39393923171E+02 -0.37535998909E+03  0.51919435861E+03  0.15294330000E+03 0.  1.
<mgrwt>
<rscale>  0 0.61384046E+03</rscale>
<asrwt>0</asrwt>
<pdfrwt beam="1">  1        2 0.37304981E+00 0.73422491E+03</pdfrwt>
<pdfrwt beam="2">  1       -2 0.21548935E-01 0.73422491E+03</pdfrwt>
<totfact> 0.74789148E+01</totfact>
</mgrwt>
</event>
<event>
 4    1  0.6502538E-008  0.7998549E+03  0.7818608E-02  0.9711110E-01
          2   -1    0    0  501    0  0.00000000000E+00  0.00000000000E+00  0.39090504118E+04  0.39090504118E+04  0.25500000000E-02 0. -1.
         -2   -1    0    0    0  501 -0.00000000000E+00 -0.00000000000E+00 -0.27974642789E+03  0.27974642790E+03  0.25500000000E-02 0.  1.
    8880023    1    1    2    0    0 -0.43984588226E+03 -0.11177343762E+03  0.36225937892E+04  0.37098455047E+04  0.65864270000E+03 0. -1.
    8880022    1    1    2    0    0  0.43984588226E+03  0.11177343762E+03  0.67101947113E+01  0.47895133493E+03  0.15294330000E+03 0.  0.
<mgrwt>
<rscale>  0 0.70359154E+03</rscale>
<asrwt>0</asrwt>
<pdfrwt beam="1">  1        2 0.60139239E+00 0.79985493E+03</pdfrwt>
<pdfrwt beam="2">  1       -2 0.43037910E-01 0.79985493E+03</pdfrwt>
<totfact> 0.22615834E+00</totfact>
</mgrwt>
</event>
<event>
 4    1  0.6502538E-008  0.7173592E+03  0.7818608E-02  0.9931625E-01
          2   -1    0    0  501    0  0.00000000000E+00  0.00000000000E+00  0.90932873339E+03  0.90932873340E+03  0.25500000000E-02 0. -1.
         -2   -1    0    0    0  501 -0.00000000000E+00 -0.00000000000E+00 -0.36390755008E+03  0.36390755009E+03  0.25500000000E-02 0.  1.
    8880023    1    1    2    0    0 -0.75428471433E+01 -0.28414275554E+03  0.61284065921E+03  0.94349238466E+03  0.65864270000E+03 0. -1.
    8880022    1    1    2    0    0  0.75428471433E+01  0.28414275554E+03 -0.67419475888E+02  0.32974389883E+03  0.15294330000E+03 0.  0.
<mgrwt>
<rscale>  0 0.58752789E+03</rscale>
<asrwt>0</asrwt>
<pdfrwt beam="1">  1        2 0.13989673E+00 0.71735919E+03</pdfrwt>
<pdfrwt beam="2">  1       -2 0.55985778E-01 0.71735919E+03</pdfrwt>
<totfact> 0.87948040E+01</totfact>
</mgrwt>
</event>
<event>
 4    1  0.6502538E-008  0.8273781E+03  0.7818608E-02  0.9654456E-01
          2   -1    0    0  501    0  0.00000000000E+00  0.00000000000E+00  0.15033433146E+04  0.15033433146E+04  0.25500000000E-02 0. -1.
         -2   -1    0    0    0  501 -0.00000000000E+00 -0.00000000000E+00 -0.78912751888E+03  0.78912751889E+03  0.25500000000E-02 0.  1.
    8880023    1    1    2    0    0  0.49149772012E+03 -0.95782380526E+02  0.12783930472E+04  0.15227748562E+04  0.65864270000E+03 0. -1.
    8880022    1    1    2    0    0 -0.49149772012E+03  0.95782380526E+02 -0.56417725150E+03  0.76969597727E+03  0.15294330000E+03 0.  0.
<mgrwt>
<rscale>  0 0.73794459E+03</rscale>
<asrwt>0</asrwt>
<pdfrwt beam="1">  1        2 0.23128358E+00 0.82737808E+03</pdfrwt>
<pdfrwt beam="2">  1       -2 0.12140424E+00 0.82737808E+03</pdfrwt>
<totfact> 0.66132162E+00</totfact>
</mgrwt>
</event>
<event>
 4    1  0.6502538E-008  0.7765202E+03  0.7818608E-02  0.9764076E-01
          2   -1    0    0  501    0  0.00000000000E+00  0.00000000000E+00  0.19881436597E+04  0.19881436597E+04  0.25500000000E-02 0. -1.
         -2   -1    0    0    0  501 -0.00000000000E+00 -0.00000000000E+00 -0.84993867499E+03  0.84993867500E+03  0.25500000000E-02 0.  1.
    8880023    1    1    2    0    0  0.35781701561E+03  0.20283088710E+03  0.18474782580E+04  0.20040358044E+04  0.65864270000E+03 0. -1.
    8880022    1    1    2    0    0 -0.35781701561E+03 -0.20283088710E+03 -0.70927327329E+03  0.83404653026E+03  0.15294330000E+03 0.  0.
<mgrwt>
<rscale>  0 0.67326609E+03</rscale>
<asrwt>0</asrwt>
<pdfrwt beam="1">  1        2 0.30586825E+00 0.77652018E+03</pdfrwt>
<pdfrwt beam="2">  1       -2 0.13075980E+00 0.77652018E+03</pdfrwt>
<totfact> 0.29953055E+00</totfact>
</mgrwt>
</event>
<event>
 4    1  0.6502538E-008  0.6601546E+03  0.7818608E-02  0.1023999E+00
          2   -1    0    0  501    0  0.00000000000E+00  0.00000000000E+00  0.19763166811E+04  0.19763166812E+04  0.25500000000E-02 0. -1.
         -2   -1    0    0    0  501 -0.00000000000E+00 -0.00000000000E+00 -0.86560220840E+02  0.86560220877E+02  0.25500000000E-02 0.  1.
    8880023    1    1    2    0    0 -0.40604561379E+02 -0.18577710088E+02  0.16235629891E+04  0.17526439591E+04  0.65864270000E+03 0.  0.
    8880022    1    1    2    0    0  0.40604561379E+02  0.18577710088E+02  0.26619347125E+03  0.31023294291E+03  0.15294330000E+03 0.  0.
<mgrwt>
<rscale>  0 0.46270850E+03</rscale>
<asrwt>0</asrwt>
<pdfrwt beam="1">  1        2 0.30404868E+00 0.66015458E+03</pdfrwt>
<pdfrwt beam="2">  1       -2 0.13316959E-01 0.66015458E+03</pdfrwt>
<totfact> 0.30383895E+02</totfact>
</mgrwt>
</event>
<event>
 4    1  0.6502538E-008  0.8836797E+03  0.7818608E-02  0.9552756E-01
         -2   -1    0    0    0  501 -0.00000000000E+00  0.00000000000E+00  0.44703858672E+03  0.44703858673E+03  0.25500000000E-02 0.  1.
          2   -1    0    0  501    0  0.00000000000E+00 -0.00000000000E+00 -0.17268475133E+04  0.17268475133E+04  0.25500000000E-02 0. -1.
    8880023    1    1    2    0    0 -0.13442959230E+03 -0.57359243568E+03 -0.12917678855E+04  0.15651051318E+04  0.65864270000E+03 0.  1.
    8880022    1    1    2    0    0  0.13442959230E+03  0.57359243568E+03  0.11958958852E+02  0.60878096822E+03  0.15294330000E+03 0.  0.
<mgrwt>
<rscale>  0 0.80503631E+03</rscale>
<asrwt>0</asrwt>
<pdfrwt beam="1">  1        2 0.26566885E+00 0.88367970E+03</pdfrwt>
<pdfrwt beam="2">  1       -2 0.68775168E-01 0.88367970E+03</pdfrwt>
<totfact> 0.18525152E+01</totfact>
</mgrwt>
</event>
<event>
 4    1  0.6502538E-008  0.6817514E+03  0.7818608E-02  0.1008350E+00
          2   -1    0    0  501    0  0.00000000000E+00  0.00000000000E+00  0.29116811667E+04  0.29116811667E+04  0.25500000000E-02 0. -1.
         -2   -1    0    0    0  501 -0.00000000000E+00 -0.00000000000E+00 -0.10556735489E+03  0.10556735492E+03  0.25500000000E-02 0.  1.
    8880023    1    1    2    0    0  0.15089250186E+03  0.90588056940E+02  0.26508601085E+04  0.27371233557E+04  0.65864270000E+03 0.  0.
    8880022    1    1    2    0    0 -0.15089250186E+03 -0.90588056940E+02  0.15525370329E+03  0.28012516591E+03  0.15294330000E+03 0.  0.
<mgrwt>
<rscale>  0 0.52135776E+03</rscale>
<asrwt>0</asrwt>
<pdfrwt beam="1">  1        2 0.44795097E+00 0.68175138E+03</pdfrwt>
<pdfrwt beam="2">  1       -2 0.16241131E-01 0.68175138E+03</pdfrwt>
<totfact> 0.64251246E+01</totfact>
</mgrwt>
</event>
<event>
 4    1  0.6502538E-008  0.1383564E+04  0.7818608E-02  0.8996561E-01
         -2   -1    0    0    0  501 -0.00000000000E+00  0.00000000000E+00  0.12019297685E+04  0.12019297685E+04  0.25500000000E-02 0.  1.
          2   -1    0    0  501    0  0.00000000000E+00 -0.00000000000E+00 -0.16186477081E+04  0.16186477081E+04  0.25500000000E-02 0. -1.
    8880023    1    1    2    0    0 -0.11683965129E+04  0.33954044037E+03 -0.71661069043E+03  0.15581332453E+04  0.65864270000E+03 0.  0.
    8880022    1    1    2    0    0  0.11683965129E+04 -0.33954044037E+03  0.29989275080E+03  0.12624442313E+04  0.15294330000E+03 0.  0.
<mgrwt>
<rscale>  0 0.13424533E+04</rscale>
<asrwt>0</asrwt>
<pdfrwt beam="1">  1        2 0.24902273E+00 0.13835636E+04</pdfrwt>
<pdfrwt beam="2">  1       -2 0.18491227E+00 0.13835636E+04</pdfrwt>
<totfact> 0.17398184E+00</totfact>
</mgrwt>
</event>
<event>
 4    1  0.6502538E-008  0.8464118E+03  0.7818608E-02  0.9618207E-01
          2   -1    0    0  501    0  0.00000000000E+00  0.00000000000E+00  0.12860274280E+04  0.12860274280E+04  0.25500000000E-02 0. -1.
         -2   -1    0    0    0  501 -0.00000000000E+00 -0.00000000000E+00 -0.59081373367E+03  0.59081373367E+03  0.25500000000E-02 0.  1.
    8880023    1    1    2    0    0 -0.48718916948E+03  0.21271906120E+03  0.94608483760E+03  0.12694445289E+04  0.65864270000E+03 0.  0.
    8880022    1    1    2    0    0  0.48718916948E+03 -0.21271906120E+03 -0.25087114331E+03  0.60739663270E+03  0.15294330000E+03 0.  0.
<mgrwt>
<rscale>  0 0.76102767E+03</rscale>
<asrwt>0</asrwt>
<pdfrwt beam="1">  1        2 0.19785037E+00 0.84641177E+03</pdfrwt>
<pdfrwt beam="2">  1       -2 0.90894420E-01 0.84641177E+03</pdfrwt>
<totfact> 0.17569183E+01</totfact>
</mgrwt>
</event>
<event>
 4    1  0.6502538E-008  0.6649997E+03  0.7818608E-02  0.1019534E+00
          2   -1    0    0  501    0  0.00000000000E+00  0.00000000000E+00  0.34176400300E+04  0.34176400300E+04  0.25500000000E-02 0. -1.
         -2   -1    0    0    0  501 -0.00000000000E+00 -0.00000000000E+00 -0.54773931931E+03  0.54773931931E+03  0.25500000000E-02 0.  1.
    8880023    1    1    2    0    0  0.52251184723E+01 -0.91580976374E+02  0.33697121033E+04  0.34347029336E+04  0.65864270000E+03 0. -1.
    8880022    1    1    2    0    0 -0.52251184723E+01  0.91580976374E+02 -0.49981139253E+03  0.53067641573E+03  0.15294330000E+03 0.  0.
<mgrwt>
<rscale>  0 0.47855269E+03</rscale>
<asrwt>0</asrwt>
<pdfrwt beam="1">  1        2 0.52579077E+00 0.66499969E+03</pdfrwt>
<pdfrwt beam="2">  1       -2 0.84267588E-01 0.66499969E+03</pdfrwt>
<totfact> 0.12621792E+00</totfact>
</mgrwt>
</event>
<event>
 4    1  0.6502538E-008  0.6797300E+03  0.7818608E-02  0.1009477E+00
         -2   -1    0    0    0  501 -0.00000000000E+00  0.00000000000E+00  0.88362106393E+03  0.88362106394E+03  0.25500000000E-02 0.  1.
          2   -1    0    0  501    0  0.00000000000E+00 -0.00000000000E+00 -0.20668276267E+04  0.20668276267E+04  0.25500000000E-02 0. -1.
    8880023    1    1    2    0    0 -0.10228485108E+03  0.13326864518E+03 -0.19949188905E+04  0.21075422435E+04  0.65864270000E+03 0. -1.
    8880022    1    1    2    0    0  0.10228485108E+03 -0.13326864518E+03  0.81171232771E+03  0.84290644708E+03  0.15294330000E+03 0.  0.
<mgrwt>
<rscale>  0 0.51683115E+03</rscale>
<asrwt>0</asrwt>
<pdfrwt beam="1">  1        2 0.31797348E+00 0.67973004E+03</pdfrwt>
<pdfrwt beam="2">  1       -2 0.13594170E+00 0.67973004E+03</pdfrwt>
<totfact> 0.25023863E+00</totfact>
</mgrwt>
</event>
<event>
 4    1  0.6502538E-008  0.1218889E+04  0.7818608E-02  0.9138976E-01
          2   -1    0    0  501    0  0.00000000000E+00  0.00000000000E+00  0.19872797451E+04  0.19872797451E+04  0.25500000000E-02 0. -1.
         -2   -1    0    0    0  501 -0.00000000000E+00 -0.00000000000E+00 -0.87309908645E+03  0.87309908646E+03  0.25500000000E-02 0.  1.
    8880023    1    1    2    0    0 -0.36092497676E+03  0.96000687680E+03  0.13269725264E+04  0.18018175086E+04  0.65864270000E+03 0. -1.
    8880022    1    1    2    0    0  0.36092497676E+03 -0.96000687680E+03 -0.21279186777E+03  0.10585613229E+04  0.15294330000E+03 0.  0.
<mgrwt>
<rscale>  0 0.11706118E+04</rscale>
<asrwt>0</asrwt>
<pdfrwt beam="1">  1        2 0.30573535E+00 0.12188889E+04</pdfrwt>
<pdfrwt beam="2">  1       -2 0.13432294E+00 0.12188889E+04</pdfrwt>
<totfact> 0.26396769E+00</totfact>
</mgrwt>
</event>
<event>
 4    1  0.6502538E-008  0.1144071E+04  0.7818608E-02  0.9213505E-01
         -2   -1    0    0    0  501 -0.00000000000E+00  0.00000000000E+00  0.19336234389E+04  0.19336234389E+04  0.25500000000E-02 0.  1.
          2   -1    0    0  501    0  0.00000000000E+00 -0.00000000000E+00 -0.12865391179E+04  0.12865391179E+04  0.25500000000E-02 0. -1.
    8880023    1    1    2    0    0 -0.42070047221E+03  0.83552366040E+03 -0.86587672898E+03  0.14347966373E+04  0.65864270000E+03 0. -1.
    8880022    1    1    2    0    0  0.42070047221E+03 -0.83552366040E+03  0.15129610500E+04  0.17853659194E+04  0.15294330000E+03 0.  1.
<mgrwt>
<rscale>  0 0.10915116E+04</rscale>
<asrwt>0</asrwt>
<pdfrwt beam="1">  1        2 0.19792910E+00 0.11440712E+04</pdfrwt>
<pdfrwt beam="2">  1       -2 0.29748053E+00 0.11440712E+04</pdfrwt>
<totfact> 0.54504496E-01</totfact>
</mgrwt>
</event>
<event>
 4    1  0.6502538E-008  0.7499972E+03  0.7818608E-02  0.9831728E-01
         -2   -1    0    0    0  501 -0.00000000000E+00  0.00000000000E+00  0.62281373753E+03  0.62281373754E+03  0.25500000000E-02 0.  1.
          2   -1    0    0  501    0  0.00000000000E+00 -0.00000000000E+00 -0.16292872918E+04  0.16292872918E+04  0.25500000000E-02 0. -1.
    8880023    1    1    2    0    0  0.23887019346E+03  0.26763141194E+03 -0.14676307537E+04  0.16481613324E+04  0.65864270000E+03 0.  0.
    8880022    1    1    2    0    0 -0.23887019346E+03 -0.26763141194E+03  0.46115719944E+03  0.60393969698E+03  0.15294330000E+03 0.  0.
<mgrwt>
<rscale>  0 0.63687284E+03</rscale>
<asrwt>0</asrwt>
<pdfrwt beam="1">  1        2 0.25065958E+00 0.74999717E+03</pdfrwt>
<pdfrwt beam="2">  1       -2 0.95817499E-01 0.74999717E+03</pdfrwt>
<totfact> 0.10076452E+01</totfact>
</mgrwt>
</event>
<event>
 4    1  0.6502538E-008  0.1009377E+04  0.7818608E-02  0.9369391E-01
         -2   -1    0    0    0  501 -0.00000000000E+00  0.00000000000E+00  0.82557588192E+03  0.82557588193E+03  0.25500000000E-02 0.  1.
          2   -1    0    0  501    0  0.00000000000E+00 -0.00000000000E+00 -0.22074080148E+04  0.22074080148E+04  0.25500000000E-02 0. -1.
    8880023    1    1    2    0    0 -0.60213801049E+03 -0.47165923504E+03 -0.18613094907E+04  0.21173841985E+04  0.65864270000E+03 0.  0.
    8880022    1    1    2    0    0  0.60213801049E+03  0.47165923504E+03  0.47947735783E+03  0.91559969821E+03  0.15294330000E+03 0.  0.
<mgrwt>
<rscale>  0 0.94638100E+03</rscale>
<asrwt>0</asrwt>
<pdfrwt beam="1">  1        2 0.33960123E+00 0.10093774E+04</pdfrwt>
<pdfrwt beam="2">  1       -2 0.12701167E+00 0.10093774E+04</pdfrwt>
<totfact> 0.23564922E+00</totfact>
</mgrwt>
</event>
<event>
 4    1  0.6502538E-008  0.1622813E+04  0.7818608E-02  0.8827454E-01
          2   -1    0    0  501    0  0.00000000000E+00  0.00000000000E+00  0.31303176954E+04  0.31303176954E+04  0.25500000000E-02 0. -1.
         -2   -1    0    0    0  501 -0.00000000000E+00 -0.00000000000E+00 -0.10986817423E+04  0.10986817423E+04  0.25500000000E-02 0.  1.
    8880023    1    1    2    0    0  0.12677783344E+04 -0.76970694016E+03  0.21942521371E+04  0.27291506602E+04  0.65864270000E+03 0.  0.
    8880022    1    1    2    0    0 -0.12677783344E+04  0.76970694016E+03 -0.16261618392E+03  0.14998487774E+04  0.15294330000E+03 0.  0.
<mgrwt>
<rscale>  0 0.15888073E+04</rscale>
<asrwt>0</asrwt>
<pdfrwt beam="1">  1        2 0.48158733E+00 0.16228126E+04</pdfrwt>
<pdfrwt beam="2">  1       -2 0.16902796E+00 0.16228126E+04</pdfrwt>
<totfact> 0.29079769E-01</totfact>
</mgrwt>
</event>
<event>
 4    1  0.6502538E-008  0.1311860E+04  0.7818608E-02  0.9055386E-01
         -2   -1    0    0    0  501 -0.00000000000E+00  0.00000000000E+00  0.19714672018E+04  0.19714672018E+04  0.25500000000E-02 0.  1.
          2   -1    0    0  501    0  0.00000000000E+00 -0.00000000000E+00 -0.14363911414E+04  0.14363911414E+04  0.25500000000E-02 0. -1.
    8880023    1    1    2    0    0 -0.93881210813E+03 -0.63702205399E+03 -0.88599975452E+03  0.15830259135E+04  0.65864270000E+03 0.  0.
    8880022    1    1    2    0    0  0.93881210813E+03  0.63702205399E+03  0.14210758149E+04  0.18248324297E+04  0.15294330000E+03 0.  0.
<mgrwt>
<rscale>  0 0.12679365E+04</rscale>
<asrwt>0</asrwt>
<pdfrwt beam="1">  1        2 0.22098325E+00 0.13118595E+04</pdfrwt>
<pdfrwt beam="2">  1       -2 0.30330265E+00 0.13118595E+04</pdfrwt>
<totfact> 0.40259120E-01</totfact>
</mgrwt>
</event>
<event>
 4    1  0.6502538E-008  0.1938159E+04  0.7818608E-02  0.8649732E-01
          2   -1    0    0  501    0  0.00000000000E+00  0.00000000000E+00  0.37493021002E+04  0.37493021002E+04  0.25500000000E-02 0. -1.
         -2   -1    0    0    0  501 -0.00000000000E+00 -0.00000000000E+00 -0.12355174733E+04  0.12355174733E+04  0.25500000000E-02 0.  1.
    8880023    1    1    2    0    0  0.15670123210E+04 -0.93119335706E+03  0.24900578544E+04  0.31554471961E+04  0.65864270000E+03 0.  0.
    8880022    1    1    2    0    0 -0.15670123210E+04  0.93119335706E+03  0.23726772502E+02  0.18293723774E+04  0.15294330000E+03 0.  0.
<mgrwt>
<rscale>  0 0.19103300E+04</rscale>
<asrwt>0</asrwt>
<pdfrwt beam="1">  1        2 0.57681571E+00 0.19381586E+04</pdfrwt>
<pdfrwt beam="2">  1       -2 0.19007961E+00 0.19381586E+04</pdfrwt>
<totfact> 0.74927485E-02</totfact>
</mgrwt>
</event>
<event>
 4    1  0.6502538E-008  0.7785693E+03  0.7818608E-02  0.9759208E-01
         -2   -1    0    0    0  501 -0.00000000000E+00  0.00000000000E+00  0.87511110298E+03  0.87511110298E+03  0.25500000000E-02 0.  1.
          2   -1    0    0  501    0  0.00000000000E+00 -0.00000000000E+00 -0.18381321758E+04  0.18381321758E+04  0.25500000000E-02 0. -1.
    8880023    1    1    2    0    0 -0.31932830267E+03  0.26531003511E+03 -0.16908491931E+04  0.18614889684E+04  0.65864270000E+03 0. -1.
    8880022    1    1    2    0    0  0.31932830267E+03 -0.26531003511E+03  0.72782812023E+03  0.85175431037E+03  0.15294330000E+03 0.  0.
<mgrwt>
<rscale>  0 0.67598357E+03</rscale>
<asrwt>0</asrwt>
<pdfrwt beam="1">  1        2 0.28278957E+00 0.77856932E+03</pdfrwt>
<pdfrwt beam="2">  1       -2 0.13463248E+00 0.77856932E+03</pdfrwt>
<totfact> 0.33568344E+00</totfact>
</mgrwt>
</event>
<event>
 4    1  0.6502538E-008  0.8954534E+03  0.7818608E-02  0.9533370E-01
          2   -1    0    0  501    0  0.00000000000E+00  0.00000000000E+00  0.10654584405E+04  0.10654584405E+04  0.25500000000E-02 0. -1.
         -2   -1    0    0    0  501 -0.00000000000E+00 -0.00000000000E+00 -0.62200069659E+03  0.62200069659E+03  0.25500000000E-02 0.  1.
    8880023    1    1    2    0    0 -0.57272699317E+03  0.20002601265E+03  0.55279908864E+03  0.10523419849E+04  0.65864270000E+03 0. -1.
    8880022    1    1    2    0    0  0.57272699317E+03 -0.20002601265E+03 -0.10934134468E+03  0.63511715228E+03  0.15294330000E+03 0.  0.
<mgrwt>
<rscale>  0 0.81867661E+03</rscale>
<asrwt>0</asrwt>
<pdfrwt beam="1">  1        2 0.16391668E+00 0.89545342E+03</pdfrwt>
<pdfrwt beam="2">  1       -2 0.95692415E-01 0.89545342E+03</pdfrwt>
<totfact> 0.21039041E+01</totfact>
</mgrwt>
</event>
<event>
 4    1  0.6502538E-008  0.7393469E+03  0.7818608E-02  0.9861854E-01
         -2   -1    0    0    0  501 -0.00000000000E+00  0.00000000000E+00  0.50994337259E+03  0.50994337260E+03  0.25500000000E-02 0.  1.
          2   -1    0    0  501    0  0.00000000000E+00 -0.00000000000E+00 -0.18111236135E+04  0.18111236135E+04  0.25500000000E-02 0. -1.
    8880023    1    1    2    0    0 -0.21584182332E+03  0.25736344327E+03 -0.16532243974E+04  0.18110176004E+04  0.65864270000E+03 0.  0.
    8880022    1    1    2    0    0  0.21584182332E+03 -0.25736344327E+03  0.35204415653E+03  0.51004938564E+03  0.15294330000E+03 0.  0.
<mgrwt>
<rscale>  0 0.62146178E+03</rscale>
<asrwt>0</asrwt>
<pdfrwt beam="1">  1        2 0.27863440E+00 0.73934690E+03</pdfrwt>
<pdfrwt beam="2">  1       -2 0.78452827E-01 0.73934690E+03</pdfrwt>
<totfact> 0.12683395E+01</totfact>
</mgrwt>
</event>
<event>
 4    1  0.6502538E-008  0.7307960E+03  0.7818608E-02  0.9887617E-01
         -2   -1    0    0    0  501 -0.00000000000E+00  0.00000000000E+00  0.56974262819E+03  0.56974262819E+03  0.25500000000E-02 0.  1.
          2   -1    0    0  501    0  0.00000000000E+00 -0.00000000000E+00 -0.20622641652E+04  0.20622641652E+04  0.25500000000E-02 0. -1.
    8880023    1    1    2    0    0  0.18053340500E+03 -0.26011597862E+03 -0.19340814376E+04  0.20675429491E+04  0.65864270000E+03 0. -1.
    8880022    1    1    2    0    0 -0.18053340500E+03  0.26011597862E+03  0.44155990063E+03  0.56446384429E+03  0.15294330000E+03 0.  0.
<mgrwt>
<rscale>  0 0.60865177E+03</rscale>
<asrwt>0</asrwt>
<pdfrwt beam="1">  1        2 0.31727141E+00 0.73079603E+03</pdfrwt>
<pdfrwt beam="2">  1       -2 0.87652713E-01 0.73079603E+03</pdfrwt>
<totfact> 0.72081138E+00</totfact>
</mgrwt>
</event>
<event>
 4    1  0.6502538E-008  0.7386260E+03  0.7818608E-02  0.9863968E-01
         -2   -1    0    0    0  501 -0.00000000000E+00  0.00000000000E+00  0.63727419185E+03  0.63727419186E+03  0.25500000000E-02 0.  1.
          2   -1    0    0  501    0  0.00000000000E+00 -0.00000000000E+00 -0.34704742753E+04  0.34704742753E+04  0.25500000000E-02 0. -1.
    8880023    1    1    2    0    0  0.33387720301E+03 -0.16858421249E+02 -0.33739575206E+04  0.34538612813E+04  0.65864270000E+03 0. -1.
    8880022    1    1    2    0    0 -0.33387720301E+03  0.16858421249E+02  0.54075743714E+03  0.65388718591E+03  0.15294330000E+03 0.  0.
<mgrwt>
<rscale>  0 0.62039801E+03</rscale>
<asrwt>0</asrwt>
<pdfrwt beam="1">  1        2 0.53391911E+00 0.73862602E+03</pdfrwt>
<pdfrwt beam="2">  1       -2 0.98042186E-01 0.73862602E+03</pdfrwt>
<totfact> 0.80451335E-01</totfact>
</mgrwt>
</event>
<event>
 4    1  0.6502538E-008  0.7110651E+03  0.7818608E-02  0.9954067E-01
         -2   -1    0    0    0  501 -0.00000000000E+00  0.00000000000E+00  0.65828266409E+03  0.65828266410E+03  0.25500000000E-02 0.  1.
          2   -1    0    0  501    0  0.00000000000E+00 -0.00000000000E+00 -0.14964555873E+04  0.14964555873E+04  0.25500000000E-02 0. -1.
    8880023    1    1    2    0    0 -0.20455289366E+03  0.17309382599E+03 -0.13679185807E+04  0.15416921900E+04  0.65864270000E+03 0. -1.
    8880022    1    1    2    0    0  0.20455289366E+03 -0.17309382599E+03  0.52974565744E+03  0.61304606148E+03  0.15294330000E+03 0.  0.
<mgrwt>
<rscale>  0 0.57711026E+03</rscale>
<asrwt>0</asrwt>
<pdfrwt beam="1">  1        2 0.23022394E+00 0.71106509E+03</pdfrwt>
<pdfrwt beam="2">  1       -2 0.10127426E+00 0.71106509E+03</pdfrwt>
<totfact> 0.10528469E+01</totfact>
</mgrwt>
</event>
<event>
 4    1  0.6502538E-008  0.1210332E+04  0.7818608E-02  0.9147144E-01
          2   -1    0    0  501    0  0.00000000000E+00  0.00000000000E+00  0.17295492108E+04  0.17295492108E+04  0.25500000000E-02 0. -1.
         -2   -1    0    0    0  501 -0.00000000000E+00 -0.00000000000E+00 -0.11809188128E+04  0.11809188128E+04  0.25500000000E-02 0.  1.
    8880023    1    1    2    0    0  0.98141068709E+03  0.26062527803E+03  0.11919468451E+04  0.16987171513E+04  0.65864270000E+03 0.  0.
    8880022    1    1    2    0    0 -0.98141068709E+03 -0.26062527803E+03 -0.64331644707E+03  0.12117508722E+04  0.15294330000E+03 0.  0.
<mgrwt>
<rscale>  0 0.11616045E+04</rscale>
<asrwt>0</asrwt>
<pdfrwt beam="1">  1        2 0.26608449E+00 0.12103316E+04</pdfrwt>
<pdfrwt beam="2">  1       -2 0.18167982E+00 0.12103316E+04</pdfrwt>
<totfact> 0.16161392E+00</totfact>
</mgrwt>
</event>
<event>
 4    1  0.6502538E-008  0.7317324E+03  0.7818608E-02  0.9884719E-01
          2   -1    0    0  501    0  0.00000000000E+00  0.00000000000E+00  0.99176486052E+03  0.99176486052E+03  0.25500000000E-02 0. -1.
         -2   -1    0    0    0  501 -0.00000000000E+00 -0.00000000000E+00 -0.12470072890E+04  0.12470072890E+04  0.25500000000E-02 0.  1.
    8880023    1    1    2    0    0 -0.31177500939E+03  0.66470929205E+02  0.82463969733E+03  0.11024803298E+04  0.65864270000E+03 0. -1.
    8880022    1    1    2    0    0  0.31177500939E+03 -0.66470929205E+02 -0.10798821258E+04  0.11362918197E+04  0.15294330000E+03 0.  0.
<mgrwt>
<rscale>  0 0.61007594E+03</rscale>
<asrwt>0</asrwt>
<pdfrwt beam="1">  1        2 0.15257921E+00 0.73173236E+03</pdfrwt>
<pdfrwt beam="2">  1       -2 0.19184727E+00 0.73173236E+03</pdfrwt>
<totfact> 0.39393549E+00</totfact>
</mgrwt>
</event>
<event>
 4    1  0.6502538E-008  0.9477969E+03  0.7818608E-02  0.9453291E-01
         -2   -1    0    0    0  501 -0.00000000000E+00  0.00000000000E+00  0.82881538343E+03  0.82881538344E+03  0.25500000000E-02 0.  1.
          2   -1    0    0  501    0  0.00000000000E+00 -0.00000000000E+00 -0.21291131102E+04  0.21291131102E+04  0.25500000000E-02 0. -1.
    8880023    1    1    2    0    0  0.66245604243E+03  0.16018954882E+03 -0.18436317174E+04  0.20729922372E+04  0.65864270000E+03 0. -1.
    8880022    1    1    2    0    0 -0.66245604243E+03 -0.16018954882E+03  0.54333399060E+03  0.88493625650E+03  0.15294330000E+03 0.  0.
<mgrwt>
<rscale>  0 0.87816848E+03</rscale>
<asrwt>0</asrwt>
<pdfrwt beam="1">  1        2 0.32755586E+00 0.94779687E+03</pdfrwt>
<pdfrwt beam="2">  1       -2 0.12751006E+00 0.94779687E+03</pdfrwt>
<totfact> 0.26009239E+00</totfact>
</mgrwt>
</event>
<event>
 4    1  0.6502538E-008  0.7025661E+03  0.7818608E-02  0.9986718E-01
          2   -1    0    0  501    0  0.00000000000E+00  0.00000000000E+00  0.26310078417E+04  0.26310078417E+04  0.25500000000E-02 0. -1.
         -2   -1    0    0    0  501 -0.00000000000E+00 -0.00000000000E+00 -0.50709142519E+03  0.50709142520E+03  0.25500000000E-02 0.  1.
    8880023    1    1    2    0    0 -0.23285421380E+03 -0.74617837187E+02  0.25380156226E+04  0.26334620585E+04  0.65864270000E+03 0. -1.
    8880022    1    1    2    0    0  0.23285421380E+03  0.74617837187E+02 -0.41409920616E+03  0.50463720837E+03  0.15294330000E+03 0.  0.
<mgrwt>
<rscale>  0 0.56236479E+03</rscale>
<asrwt>0</asrwt>
<pdfrwt beam="1">  1        2 0.40477044E+00 0.70256609E+03</pdfrwt>
<pdfrwt beam="2">  1       -2 0.78014064E-01 0.70256609E+03</pdfrwt>
<totfact> 0.45391907E+00</totfact>
</mgrwt>
</event>
<event>
 4    1  0.6502538E-008  0.7567268E+03  0.7818608E-02  0.9813656E-01
          2   -1    0    0  501    0  0.00000000000E+00  0.00000000000E+00  0.31783253714E+04  0.31783253714E+04  0.25500000000E-02 0. -1.
         -2   -1    0    0    0  501 -0.00000000000E+00 -0.00000000000E+00 -0.38144793503E+03  0.38144793504E+03  0.25500000000E-02 0.  1.
    8880023    1    1    2    0    0 -0.18780255095E+03 -0.32180035895E+03  0.30103026642E+04  0.31039583769E+04  0.65864270000E+03 0.  0.
    8880022    1    1    2    0    0  0.18780255095E+03  0.32180035895E+03 -0.21342522779E+03  0.45581492959E+03  0.15294330000E+03 0.  1.
<mgrwt>
<rscale>  0 0.64634793E+03</rscale>
<asrwt>0</asrwt>
<pdfrwt beam="1">  1        2 0.48897316E+00 0.75672682E+03</pdfrwt>
<pdfrwt beam="2">  1       -2 0.58684295E-01 0.75672682E+03</pdfrwt>
<totfact> 0.38961504E+00</totfact>
</mgrwt>
</event>
<event>
 4    1  0.6502538E-008  0.2292247E+04  0.7818608E-02  0.8490220E-01
         -2   -1    0    0    0  501 -0.00000000000E+00  0.00000000000E+00  0.14665954192E+04  0.14665954192E+04  0.25500000000E-02 0.  1.
          2   -1    0    0  501    0  0.00000000000E+00 -0.00000000000E+00 -0.43035820978E+04  0.43035820978E+04  0.25500000000E-02 0. -1.
    8880023    1    1    2    0    0 -0.45849048468E+03 -0.21471781359E+04 -0.27327085489E+04  0.35668044089E+04  0.65864270000E+03 0.  0.
    8880022    1    1    2    0    0  0.45849048468E+03  0.21471781359E+04 -0.10427812964E+03  0.22033731080E+04  0.15294330000E+03 0.  0.
<mgrwt>
<rscale>  0 0.22690621E+04</rscale>
<asrwt>0</asrwt>
<pdfrwt beam="1">  1        2 0.66208955E+00 0.22922473E+04</pdfrwt>
<pdfrwt beam="2">  1       -2 0.22563007E+00 0.22922473E+04</pdfrwt>
<totfact> 0.14848334E-02</totfact>
</mgrwt>
</event>
<event>
 4    1  0.6502538E-008  0.1508745E+04  0.7818608E-02  0.8903485E-01
         -2   -1    0    0    0  501 -0.00000000000E+00  0.00000000000E+00  0.12433396506E+04  0.12433396507E+04  0.25500000000E-02 0.  1.
          2   -1    0    0  501    0  0.00000000000E+00 -0.00000000000E+00 -0.26078502043E+04  0.26078502043E+04  0.25500000000E-02 0. -1.
    8880023    1    1    2    0    0 -0.12071557829E+04 -0.62070571376E+03 -0.18628132689E+04  0.23971616859E+04  0.65864270000E+03 0.  0.
    8880022    1    1    2    0    0  0.12071557829E+04  0.62070571376E+03  0.49830271527E+03  0.14540281690E+04  0.15294330000E+03 0.  0.
<mgrwt>
<rscale>  0 0.14717114E+04</rscale>
<asrwt>0</asrwt>
<pdfrwt beam="1">  1        2 0.40120772E+00 0.15087448E+04</pdfrwt>
<pdfrwt beam="2">  1       -2 0.19128302E+00 0.15087448E+04</pdfrwt>
<totfact> 0.43001334E-01</totfact>
</mgrwt>
</event>
<event>
 4    1  0.6502538E-008  0.1692619E+04  0.7818608E-02  0.8784383E-01
         -2   -1    0    0    0  501 -0.00000000000E+00  0.00000000000E+00  0.14760869666E+04  0.14760869666E+04  0.25500000000E-02 0.  1.
          2   -1    0    0  501    0  0.00000000000E+00 -0.00000000000E+00 -0.25951402514E+04  0.25951402514E+04  0.25500000000E-02 0. -1.
    8880023    1    1    2    0    0  0.15025978059E+04  0.41635265397E+03 -0.17012656144E+04  0.23998467860E+04  0.65864270000E+03 0. -1.
    8880022    1    1    2    0    0 -0.15025978059E+04 -0.41635265397E+03  0.58221232968E+03  0.16713804321E+04  0.15294330000E+03 0.  0.
<mgrwt>
<rscale>  0 0.16602204E+04</rscale>
<asrwt>0</asrwt>
<pdfrwt beam="1">  1        2 0.39925234E+00 0.16926192E+04</pdfrwt>
<pdfrwt beam="2">  1       -2 0.22709030E+00 0.16926192E+04</pdfrwt>
<totfact> 0.25092313E-01</totfact>
</mgrwt>
</event>
<event>
 4    1  0.6502538E-008  0.1968179E+04  0.7818608E-02  0.8634801E-01
         -2   -1    0    0    0  501 -0.00000000000E+00  0.00000000000E+00  0.20908439229E+04  0.20908439229E+04  0.25500000000E-02 0.  1.
          2   -1    0    0  501    0  0.00000000000E+00 -0.00000000000E+00 -0.19365150940E+04  0.19365150940E+04  0.25500000000E-02 0. -1.
    8880023    1    1    2    0    0 -0.62248421579E+03 -0.17471205506E+04 -0.54023180573E+03  0.20409746268E+04  0.65864270000E+03 0.  1.
    8880022    1    1    2    0    0  0.62248421579E+03  0.17471205506E+04  0.69456063457E+03  0.19863843901E+04  0.15294330000E+03 0.  0.
<mgrwt>
<rscale>  0 0.19408178E+04</rscale>
<asrwt>0</asrwt>
<pdfrwt beam="1">  1        2 0.29792540E+00 0.19681786E+04</pdfrwt>
<pdfrwt beam="2">  1       -2 0.32166830E+00 0.19681786E+04</pdfrwt>
<totfact> 0.15136843E-01</totfact>
</mgrwt>
</event>
<event>
 4    1  0.6502538E-008  0.8103751E+03  0.7818608E-02  0.9688796E-01
         -2   -1    0    0    0  501 -0.00000000000E+00  0.00000000000E+00  0.38907542598E+03  0.38907542598E+03  0.25500000000E-02 0.  1.
          2   -1    0    0  501    0  0.00000000000E+00 -0.00000000000E+00 -0.26687084733E+04  0.26687084733E+04  0.25500000000E-02 0. -1.
    8880023    1    1    2    0    0 -0.25623333829E+03  0.39653770063E+03 -0.24117218908E+04  0.25442307986E+04  0.65864270000E+03 0.  0.
    8880022    1    1    2    0    0  0.25623333829E+03 -0.39653770063E+03  0.13208884345E+03  0.51355310072E+03  0.15294330000E+03 0.  1.
<mgrwt>
<rscale>  0 0.71687805E+03</rscale>
<asrwt>0</asrwt>
<pdfrwt beam="1">  1        2 0.41057052E+00 0.81037515E+03</pdfrwt>
<pdfrwt beam="2">  1       -2 0.59857759E-01 0.81037515E+03</pdfrwt>
<totfact> 0.75288789E+00</totfact>
</mgrwt>
</event>
<event>
 4    1  0.1011596E-007  0.9325063E+03  0.7818608E-02  0.9475743E-01
          2   -1    0    0  501    0  0.00000000000E+00  0.00000000000E+00  0.21710720242E+04  0.21710720242E+04  0.25500000000E-02 0. -1.
         -2   -1    0    0    0  501 -0.00000000000E+00 -0.00000000000E+00 -0.15053586606E+04  0.15053586606E+04  0.25500000000E-02 0.  1.
    8880023    1    1    2    0    0 -0.63693564170E+03 -0.17340940572E+03  0.19850999114E+04  0.21932144669E+04  0.65864270000E+03 0.  0.
    8880022    1    1    2    0    0  0.63693564170E+03  0.17340940572E+03 -0.13193865477E+04  0.14832162178E+04  0.15294330000E+03 0.  0.
<mgrwt>
<rscale>  0 0.86096025E+03</rscale>
<asrwt>0</asrwt>
<pdfrwt beam="1">  1        2 0.33401108E+00 0.93250632E+03</pdfrwt>
<pdfrwt beam="2">  1       -2 0.23159364E+00 0.93250632E+03</pdfrwt>
<totfact> 0.45496974E-01</totfact>
</mgrwt>
</event>
<event>
 4    1  0.6502538E-008  0.1166991E+04  0.7818608E-02  0.9189897E-01
         -2   -1    0    0    0  501 -0.00000000000E+00  0.00000000000E+00  0.73380397130E+03  0.73380397131E+03  0.25500000000E-02 0.  1.
          2   -1    0    0  501    0  0.00000000000E+00 -0.00000000000E+00 -0.22174463622E+04  0.22174463622E+04  0.25500000000E-02 0. -1.
    8880023    1    1    2    0    0 -0.23437792652E+03 -0.93441083740E+03  0.10336032954E+02  0.11670362742E+04  0.65864270000E+03 0.  1.
    8880022    1    1    2    0    0  0.23437792652E+03  0.93441083740E+03 -0.14939784239E+04  0.17842140593E+04  0.15294330000E+03 0.  0.
<mgrwt>
<rscale>  0 0.11158316E+04</rscale>
<asrwt>0</asrwt>
<pdfrwt beam="1">  1        2 0.34114559E+00 0.11669905E+04</pdfrwt>
<pdfrwt beam="2">  1       -2 0.11289292E+00 0.11669905E+04</pdfrwt>
<totfact> 0.30592536E+00</totfact>
</mgrwt>
</event>
<event>
 4    1  0.6502538E-008  0.8252097E+03  0.7818608E-02  0.9658726E-01
         -2   -1    0    0    0  501 -0.00000000000E+00  0.00000000000E+00  0.57880669570E+03  0.57880669571E+03  0.25500000000E-02 0.  1.
          2   -1    0    0  501    0  0.00000000000E+00 -0.00000000000E+00 -0.24100538031E+04  0.24100538031E+04  0.25500000000E-02 0. -1.
    8880023    1    1    2    0    0 -0.92135101945E+02  0.48854063416E+03 -0.22010479389E+04  0.23506558795E+04  0.65864270000E+03 0. -1.
    8880022    1    1    2    0    0  0.92135101945E+02 -0.48854063416E+03  0.36980083144E+03  0.63820461937E+03  0.15294330000E+03 0.  0.
<mgrwt>
<rscale>  0 0.73528326E+03</rscale>
<asrwt>0</asrwt>
<pdfrwt beam="1">  1        2 0.37077750E+00 0.82520969E+03</pdfrwt>
<pdfrwt beam="2">  1       -2 0.89047185E-01 0.82520969E+03</pdfrwt>
<totfact> 0.43931851E+00</totfact>
</mgrwt>
</event>
<event>
 4    1  0.6502538E-008  0.1337063E+04  0.7818608E-02  0.9034197E-01
          2   -1    0    0  501    0  0.00000000000E+00  0.00000000000E+00  0.18492612410E+04  0.18492612410E+04  0.25500000000E-02 0. -1.
         -2   -1    0    0    0  501 -0.00000000000E+00 -0.00000000000E+00 -0.90378524022E+03  0.90378524023E+03  0.25500000000E-02 0.  1.
    8880023    1    1    2    0    0  0.78281984720E+03 -0.86088271595E+03  0.83012584586E+03  0.15737995711E+04  0.65864270000E+03 0.  0.
    8880022    1    1    2    0    0 -0.78281984720E+03  0.86088271595E+03  0.11535015492E+03  0.11792469101E+04  0.15294330000E+03 0.  0.
<mgrwt>
<rscale>  0 0.12941751E+04</rscale>
<asrwt>0</asrwt>
<pdfrwt beam="1">  1        2 0.28450173E+00 0.13370625E+04</pdfrwt>
<pdfrwt beam="2">  1       -2 0.13904388E+00 0.13370625E+04</pdfrwt>
<totfact> 0.28450777E+00</totfact>
</mgrwt>
</event>
<event>
 4    1  0.6502538E-008  0.7934818E+03  0.7818608E-02  0.9725071E-01
         -2   -1    0    0    0  501 -0.00000000000E+00  0.00000000000E+00  0.11729861969E+04  0.11729861969E+04  0.25500000000E-02 0.  1.
          2   -1    0    0  501    0  0.00000000000E+00 -0.00000000000E+00 -0.70155830354E+03  0.70155830354E+03  0.25500000000E-02 0. -1.
    8880023    1    1    2    0    0 -0.36001410253E+03  0.25727991017E+03 -0.39752563061E+03  0.88749081091E+03  0.65864270000E+03 0. -1.
    8880022    1    1    2    0    0  0.36001410253E+03 -0.25727991017E+03  0.86895352400E+03  0.98705368956E+03  0.15294330000E+03 0.  0.
<mgrwt>
<rscale>  0 0.69543490E+03</rscale>
<asrwt>0</asrwt>
<pdfrwt beam="1">  1        2 0.10793205E+00 0.79348177E+03</pdfrwt>
<pdfrwt beam="2">  1       -2 0.18045941E+00 0.79348177E+03</pdfrwt>
<totfact> 0.74515213E+00</totfact>
</mgrwt>
</event>
<event>
 4    1  0.6502538E-008  0.7678125E+03  0.7818608E-02  0.9785286E-01
         -2   -1    0    0    0  501 -0.00000000000E+00  0.00000000000E+00  0.27152243998E+04  0.27152243998E+04  0.25500000000E-02 0.  1.
          2   -1    0    0  501    0  0.00000000000E+00 -0.00000000000E+00 -0.70765600705E+03  0.70765600706E+03  0.25500000000E-02 0. -1.
    8880023    1    1    2    0    0 -0.38317605525E+03 -0.94349888503E+02 -0.47607959083E+03  0.90343111185E+03  0.65864270000E+03 0.  0.
    8880022    1    1    2    0    0  0.38317605525E+03  0.94349888503E+02  0.24836479836E+04  0.25194492950E+04  0.15294330000E+03 0.  1.
<mgrwt>
<rscale>  0 0.66158189E+03</rscale>
<asrwt>0</asrwt>
<pdfrwt beam="1">  1        2 0.10887016E+00 0.76781248E+03</pdfrwt>
<pdfrwt beam="2">  1       -2 0.41772682E+00 0.76781248E+03</pdfrwt>
<totfact> 0.24393781E-01</totfact>
</mgrwt>
</event>
<event>
 4    1  0.6502538E-008  0.1160805E+04  0.7818608E-02  0.9196197E-01
         -2   -1    0    0    0  501 -0.00000000000E+00  0.00000000000E+00  0.52159654237E+03  0.52159654238E+03  0.25500000000E-02 0.  1.
          2   -1    0    0  501    0  0.00000000000E+00 -0.00000000000E+00 -0.24522041588E+04  0.24522041588E+04  0.25500000000E-02 0. -1.
    8880023    1    1    2    0    0 -0.50129250113E+02  0.95453944315E+03 -0.15434293500E+04  0.19312283280E+04  0.65864270000E+03 0.  0.
    8880022    1    1    2    0    0  0.50129250113E+02 -0.95453944315E+03 -0.38717826643E+03  0.10425723731E+04  0.15294330000E+03 0.  0.
<mgrwt>
<rscale>  0 0.11092766E+04</rscale>
<asrwt>0</asrwt>
<pdfrwt beam="1">  1        2 0.37726217E+00 0.11608052E+04</pdfrwt>
<pdfrwt beam="2">  1       -2 0.80245623E-01 0.11608052E+04</pdfrwt>
<totfact> 0.50418957E+00</totfact>
</mgrwt>
</event>
<event>
 4    1  0.6502538E-008  0.8666596E+03  0.7818608E-02  0.9581825E-01
         -2   -1    0    0    0  501 -0.00000000000E+00  0.00000000000E+00  0.98350469865E+03  0.98350469865E+03  0.25500000000E-02 0.  1.
          2   -1    0    0  501    0  0.00000000000E+00 -0.00000000000E+00 -0.13484457143E+04  0.13484457143E+04  0.25500000000E-02 0. -1.
    8880023    1    1    2    0    0  0.54977259878E+03  0.12263269980E+03 -0.10954987866E+04  0.13968595087E+04  0.65864270000E+03 0. -1.
    8880022    1    1    2    0    0 -0.54977259878E+03 -0.12263269980E+03  0.73055777096E+03  0.93509090421E+03  0.15294330000E+03 0.  0.
<mgrwt>
<rscale>  0 0.78510873E+03</rscale>
<asrwt>0</asrwt>
<pdfrwt beam="1">  1        2 0.20745319E+00 0.86665962E+03</pdfrwt>
<pdfrwt beam="2">  1       -2 0.15130842E+00 0.86665962E+03</pdfrwt>
<totfact> 0.45706814E+00</totfact>
</mgrwt>
</event>
<event>
 4    1  0.6502538E-008  0.9219683E+03  0.7818608E-02  0.9491648E-01
          2   -1    0    0  501    0  0.00000000000E+00  0.00000000000E+00  0.22341811111E+04  0.22341811111E+04  0.25500000000E-02 0. -1.
         -2   -1    0    0    0  501 -0.00000000000E+00 -0.00000000000E+00 -0.34664293732E+03  0.34664293733E+03  0.25500000000E-02 0.  1.
    8880023    1    1    2    0    0 -0.49111575992E+03  0.41835472495E+03  0.16237630164E+04  0.18672525018E+04  0.65864270000E+03 0. -1.
    8880022    1    1    2    0    0  0.49111575992E+03 -0.41835472495E+03  0.26377515730E+03  0.71357154662E+03  0.15294330000E+03 0. -1.
<mgrwt>
<rscale>  0 0.84902421E+03</rscale>
<asrwt>0</asrwt>
<pdfrwt beam="1">  1        2 0.34372016E+00 0.92196831E+03</pdfrwt>
<pdfrwt beam="2">  1       -2 0.53329684E-01 0.92196831E+03</pdfrwt>
<totfact> 0.16641562E+01</totfact>
</mgrwt>
</event>
<event>
 4    1  0.6502538E-008  0.9399274E+03  0.7818608E-02  0.9464757E-01
          2   -1    0    0  501    0  0.00000000000E+00  0.00000000000E+00  0.77117396973E+03  0.77117396973E+03  0.25500000000E-02 0. -1.
         -2   -1    0    0    0  501 -0.00000000000E+00 -0.00000000000E+00 -0.19033529302E+04  0.19033529302E+04  0.25500000000E-02 0.  1.
    8880023    1    1    2    0    0  0.60129590552E+03 -0.29681074583E+03  0.37956979489E+03  0.10136749086E+04  0.65864270000E+03 0.  0.
    8880022    1    1    2    0    0 -0.60129590552E+03  0.29681074583E+03 -0.15117487554E+04  0.16608519913E+04  0.15294330000E+03 0.  0.
<mgrwt>
<rscale>  0 0.86932778E+03</rscale>
<asrwt>0</asrwt>
<pdfrwt beam="1">  1        2 0.11864215E+00 0.93992744E+03</pdfrwt>
<pdfrwt beam="2">  1       -2 0.29282353E+00 0.93992744E+03</pdfrwt>
<totfact> 0.12864817E+00</totfact>
</mgrwt>
</event>
<event>
 4    1  0.6502538E-008  0.8403189E+03  0.7818608E-02  0.9629579E-01
         -2   -1    0    0    0  501 -0.00000000000E+00  0.00000000000E+00  0.51740691068E+03  0.51740691069E+03  0.25500000000E-02 0.  1.
          2   -1    0    0  501    0  0.00000000000E+00 -0.00000000000E+00 -0.13989479363E+04  0.13989479363E+04  0.25500000000E-02 0. -1.
    8880023    1    1    2    0    0  0.47847607907E+03  0.20829390836E+03 -0.10520446790E+04  0.13464523472E+04  0.65864270000E+03 0. -1.
    8880022    1    1    2    0    0 -0.47847607907E+03 -0.20829390836E+03  0.17050365330E+03  0.56990249983E+03  0.15294330000E+03 0.  0.
<mgrwt>
<rscale>  0 0.75368994E+03</rscale>
<asrwt>0</asrwt>
<pdfrwt beam="1">  1        2 0.21522276E+00 0.84031894E+03</pdfrwt>
<pdfrwt beam="2">  1       -2 0.79601064E-01 0.84031894E+03</pdfrwt>
<totfact> 0.20498885E+01</totfact>
</mgrwt>
</event>
<event>
 4    1  0.6502538E-008  0.1108387E+04  0.7818608E-02  0.9251775E-01
          2   -1    0    0  501    0  0.00000000000E+00  0.00000000000E+00  0.25446521326E+04  0.25446521326E+04  0.25500000000E-02 0. -1.
         -2   -1    0    0    0  501 -0.00000000000E+00 -0.00000000000E+00 -0.84052337137E+03  0.84052337138E+03  0.25500000000E-02 0.  1.
    8880023    1    1    2    0    0  0.88492649850E+03  0.10777906954E+03  0.21180022050E+04  0.23904925815E+04  0.65864270000E+03 0. -1.
    8880022    1    1    2    0    0 -0.88492649850E+03 -0.10777906954E+03 -0.41387344385E+03  0.99468292240E+03  0.15294330000E+03 0.  0.
<mgrwt>
<rscale>  0 0.10534636E+04</rscale>
<asrwt>0</asrwt>
<pdfrwt beam="1">  1        2 0.39148495E+00 0.11083869E+04</pdfrwt>
<pdfrwt beam="2">  1       -2 0.12931129E+00 0.11083869E+04</pdfrwt>
<totfact> 0.14317687E+00</totfact>
</mgrwt>
</event>
<event>
 4    1  0.6502538E-008  0.1289188E+04  0.7818608E-02  0.9074954E-01
         -2   -1    0    0    0  501 -0.00000000000E+00  0.00000000000E+00  0.14527901729E+04  0.14527901729E+04  0.25500000000E-02 0.  1.
          2   -1    0    0  501    0  0.00000000000E+00 -0.00000000000E+00 -0.29446411353E+04  0.29446411353E+04  0.25500000000E-02 0. -1.
    8880023    1    1    2    0    0 -0.10247084794E+04 -0.42209857388E+03 -0.25501139978E+04  0.28574615102E+04  0.65864270000E+03 0.  0.
    8880022    1    1    2    0    0  0.10247084794E+04  0.42209857388E+03  0.10582630354E+04  0.15399697981E+04  0.15294330000E+03 0.  0.
<mgrwt>
<rscale>  0 0.12442846E+04</rscale>
<asrwt>0</asrwt>
<pdfrwt beam="1">  1        2 0.45302171E+00 0.12891877E+04</pdfrwt>
<pdfrwt beam="2">  1       -2 0.22350618E+00 0.12891877E+04</pdfrwt>
<totfact> 0.17152666E-01</totfact>
</mgrwt>
</event>
<event>
 4    1  0.6502538E-008  0.1241144E+04  0.7818608E-02  0.9118129E-01
         -2   -1    0    0    0  501 -0.00000000000E+00  0.00000000000E+00  0.31609833168E+04  0.31609833168E+04  0.25500000000E-02 0.  1.
          2   -1    0    0  501    0  0.00000000000E+00 -0.00000000000E+00 -0.13620016635E+04  0.13620016635E+04  0.25500000000E-02 0. -1.
    8880023    1    1    2    0    0  0.32980852191E+03 -0.99892690593E+03 -0.95819307117E+03  0.15679836710E+04  0.65864270000E+03 0.  0.
    8880022    1    1    2    0    0 -0.32980852191E+03  0.99892690593E+03  0.27571747245E+04  0.29550013094E+04  0.15294330000E+03 0.  0.
<mgrwt>
<rscale>  0 0.11939948E+04</rscale>
<asrwt>0</asrwt>
<pdfrwt beam="1">  1        2 0.20953872E+00 0.12411442E+04</pdfrwt>
<pdfrwt beam="2">  1       -2 0.48630511E+00 0.12411442E+04</pdfrwt>
<totfact> 0.29755583E-02</totfact>
</mgrwt>
</event>
<event>
 4    1  0.6502538E-008  0.7120646E+03  0.7818608E-02  0.9950413E-01
         -2   -1    0    0    0  501 -0.00000000000E+00  0.00000000000E+00  0.14185727814E+04  0.14185727814E+04  0.25500000000E-02 0.  1.
          2   -1    0    0  501    0  0.00000000000E+00 -0.00000000000E+00 -0.56916234683E+03  0.56916234684E+03  0.25500000000E-02 0. -1.
    8880023    1    1    2    0    0 -0.16550957604E+03 -0.21408496130E+03 -0.31785879365E+03  0.77978856710E+03  0.65864270000E+03 0. -1.
    8880022    1    1    2    0    0  0.16550957604E+03  0.21408496130E+03  0.11672692282E+04  0.12079465611E+04  0.15294330000E+03 0.  0.
<mgrwt>
<rscale>  0 0.57879063E+03</rscale>
<asrwt>0</asrwt>
<pdfrwt beam="1">  1        2 0.87563439E-01 0.71206460E+03</pdfrwt>
<pdfrwt beam="2">  1       -2 0.21824196E+00 0.71206460E+03</pdfrwt>
<totfact> 0.55096440E+00</totfact>
</mgrwt>
</event>
<event>
 4    1  0.6502538E-008  0.9652179E+03  0.7818608E-02  0.9428549E-01
         -2   -1    0    0    0  501 -0.00000000000E+00  0.00000000000E+00  0.16333379585E+04  0.16333379585E+04  0.25500000000E-02 0.  1.
          2   -1    0    0  501    0  0.00000000000E+00 -0.00000000000E+00 -0.83011908387E+03  0.83011908388E+03  0.25500000000E-02 0. -1.
    8880023    1    1    2    0    0  0.37829426338E+03 -0.59559109906E+03 -0.41238755059E+03  0.10496232682E+04  0.65864270000E+03 0.  0.
    8880022    1    1    2    0    0 -0.37829426338E+03  0.59559109906E+03  0.12156064252E+04  0.14138337742E+04  0.15294330000E+03 0.  0.
<mgrwt>
<rscale>  0 0.89763002E+03</rscale>
<asrwt>0</asrwt>
<pdfrwt beam="1">  1        2 0.12771063E+00 0.96521786E+03</pdfrwt>
<pdfrwt beam="2">  1       -2 0.25128276E+00 0.96521786E+03</pdfrwt>
<totfact> 0.20719811E+00</totfact>
</mgrwt>
</event>
<event>
 4    1  0.6502538E-008  0.6948257E+03  0.7818608E-02  0.1001938E+00
          2   -1    0    0  501    0  0.00000000000E+00  0.00000000000E+00  0.97577025854E+03  0.97577025854E+03  0.25500000000E-02 0. -1.
         -2   -1    0    0    0  501 -0.00000000000E+00 -0.00000000000E+00 -0.76905267739E+03  0.76905267739E+03  0.25500000000E-02 0.  1.
    8880023    1    1    2    0    0  0.17145905638E+03 -0.13990832779E+03  0.82020402410E+03  0.10749499503E+04  0.65864270000E+03 0. -1.
    8880022    1    1    2    0    0 -0.17145905638E+03  0.13990832779E+03 -0.61348644295E+03  0.66987298565E+03  0.15294330000E+03 0.  0.
<mgrwt>
<rscale>  0 0.54808432E+03</rscale>
<asrwt>0</asrwt>
<pdfrwt beam="1">  1        2 0.15011850E+00 0.69482570E+03</pdfrwt>
<pdfrwt beam="2">  1       -2 0.11831580E+00 0.69482570E+03</pdfrwt>
<totfact> 0.14692911E+01</totfact>
</mgrwt>
</event>
<event>
 4    1  0.6502538E-008  0.8267306E+03  0.7818608E-02  0.9655727E-01
          2   -1    0    0  501    0  0.00000000000E+00  0.00000000000E+00  0.29124112481E+04  0.29124112481E+04  0.25500000000E-02 0. -1.
         -2   -1    0    0    0  501 -0.00000000000E+00 -0.00000000000E+00 -0.83325268246E+03  0.83325268247E+03  0.25500000000E-02 0.  1.
    8880023    1    1    2    0    0  0.44385910262E+03  0.22948294340E+03  0.27635637982E+04  0.28845742142E+04  0.65864270000E+03 0. -1.
    8880022    1    1    2    0    0 -0.44385910262E+03 -0.22948294340E+03 -0.68440523255E+03  0.86108971638E+03  0.15294330000E+03 0.  0.
<mgrwt>
<rscale>  0 0.73715068E+03</rscale>
<asrwt>0</asrwt>
<pdfrwt beam="1">  1        2 0.44806327E+00 0.82673063E+03</pdfrwt>
<pdfrwt beam="2">  1       -2 0.12819272E+00 0.82673063E+03</pdfrwt>
<totfact> 0.93091224E-01</totfact>
</mgrwt>
</event>
<event>
 4    1  0.6502538E-008  0.6987530E+03  0.7818608E-02  0.1000241E+00
          2   -1    0    0  501    0  0.00000000000E+00  0.00000000000E+00  0.15996268600E+04  0.15996268600E+04  0.25500000000E-02 0. -1.
         -2   -1    0    0    0  501 -0.00000000000E+00 -0.00000000000E+00 -0.31573240345E+03  0.31573240346E+03  0.25500000000E-02 0.  1.
    8880023    1    1    2    0    0 -0.21493757172E+03  0.90814977295E+02  0.14364456357E+04  0.15973827940E+04  0.65864270000E+03 0. -1.
    8880022    1    1    2    0    0  0.21493757172E+03 -0.90814977295E+02 -0.15255117921E+03  0.31797646946E+03  0.15294330000E+03 0.  0.
<mgrwt>
<rscale>  0 0.55544510E+03</rscale>
<asrwt>0</asrwt>
<pdfrwt beam="1">  1        2 0.24609644E+00 0.69875298E+03</pdfrwt>
<pdfrwt beam="2">  1       -2 0.48574215E-01 0.69875298E+03</pdfrwt>
<totfact> 0.46107952E+01</totfact>
</mgrwt>
</event>
<event>
 4    1  0.6502538E-008  0.7079770E+03  0.7818608E-02  0.9965591E-01
         -2   -1    0    0    0  501 -0.00000000000E+00  0.00000000000E+00  0.99240936507E+03  0.99240936507E+03  0.25500000000E-02 0.  1.
          2   -1    0    0  501    0  0.00000000000E+00 -0.00000000000E+00 -0.11281728213E+04  0.11281728214E+04  0.25500000000E-02 0. -1.
    8880023    1    1    2    0    0  0.21015927836E+03  0.15249372023E+03 -0.98866176614E+03  0.12160113285E+04  0.65864270000E+03 0. -1.
    8880022    1    1    2    0    0 -0.21015927836E+03 -0.15249372023E+03  0.85289830986E+03  0.90457085790E+03  0.15294330000E+03 0.  0.
<mgrwt>
<rscale>  0 0.57185092E+03</rscale>
<asrwt>0</asrwt>
<pdfrwt beam="1">  1        2 0.17356505E+00 0.70797702E+03</pdfrwt>
<pdfrwt beam="2">  1       -2 0.15267836E+00 0.70797702E+03</pdfrwt>
<totfact> 0.61416073E+00</totfact>
</mgrwt>
</event>
<event>
 4    1  0.6502538E-008  0.1547039E+04  0.7818608E-02  0.8877115E-01
          2   -1    0    0  501    0  0.00000000000E+00  0.00000000000E+00  0.12486826687E+04  0.12486826687E+04  0.25500000000E-02 0. -1.
         -2   -1    0    0    0  501 -0.00000000000E+00 -0.00000000000E+00 -0.25572171694E+04  0.25572171694E+04  0.25500000000E-02 0.  1.
    8880023    1    1    2    0    0  0.12135297171E+04  0.69775758461E+03 -0.17446374695E+04  0.23317568757E+04  0.65864270000E+03 0.  0.
    8880022    1    1    2    0    0 -0.12135297171E+04 -0.69775758461E+03  0.43610296882E+03  0.14741429624E+04  0.15294330000E+03 0.  0.
<mgrwt>
<rscale>  0 0.15110850E+04</rscale>
<asrwt>0</asrwt>
<pdfrwt beam="1">  1        2 0.19210503E+00 0.15470392E+04</pdfrwt>
<pdfrwt beam="2">  1       -2 0.39341802E+00 0.15470392E+04</pdfrwt>
<totfact> 0.13657377E-01</totfact>
</mgrwt>
</event>
<event>
 4    1  0.6502538E-008  0.9247876E+03  0.7818608E-02  0.9487357E-01
          2   -1    0    0  501    0  0.00000000000E+00  0.00000000000E+00  0.20522943360E+04  0.20522943360E+04  0.25500000000E-02 0. -1.
         -2   -1    0    0    0  501 -0.00000000000E+00 -0.00000000000E+00 -0.68715944097E+03  0.68715944098E+03  0.25500000000E-02 0.  1.
    8880023    1    1    2    0    0 -0.59303593008E+03  0.26406481792E+03  0.17428300257E+04  0.19729897483E+04  0.65864270000E+03 0. -1.
    8880022    1    1    2    0    0  0.59303593008E+03 -0.26406481792E+03 -0.37769513065E+03  0.76646402862E+03  0.15294330000E+03 0.  0.
<mgrwt>
<rscale>  0 0.85222394E+03</rscale>
<asrwt>0</asrwt>
<pdfrwt beam="1">  1        2 0.31573759E+00 0.92478757E+03</pdfrwt>
<pdfrwt beam="2">  1       -2 0.10571684E+00 0.92478757E+03</pdfrwt>
<totfact> 0.45658139E+00</totfact>
</mgrwt>
</event>
<event>
 4    1  0.6502538E-008  0.6942014E+03  0.7818608E-02  0.1002216E+00
          2   -1    0    0  501    0  0.00000000000E+00  0.00000000000E+00  0.25339210961E+04  0.25339210961E+04  0.25500000000E-02 0. -1.
         -2   -1    0    0    0  501 -0.00000000000E+00 -0.00000000000E+00 -0.81219694915E+03  0.81219694915E+03  0.25500000000E-02 0.  1.
    8880023    1    1    2    0    0 -0.21899297463E+03  0.12145286988E+02  0.24625424098E+04  0.25585212052E+04  0.65864270000E+03 0. -1.
    8880022    1    1    2    0    0  0.21899297463E+03 -0.12145286988E+02 -0.74081826285E+03  0.78759684009E+03  0.15294330000E+03 0.  0.
<mgrwt>
<rscale>  0 0.54689024E+03</rscale>
<asrwt>0</asrwt>
<pdfrwt beam="1">  1        2 0.38983401E+00 0.69420144E+03</pdfrwt>
<pdfrwt beam="2">  1       -2 0.12495338E+00 0.69420144E+03</pdfrwt>
<totfact> 0.16996205E+00</totfact>
</mgrwt>
</event>
<event>
 4    1  0.6502538E-008  0.1051802E+04  0.7818608E-02  0.9316719E-01
         -2   -1    0    0    0  501 -0.00000000000E+00  0.00000000000E+00  0.26667718684E+03  0.26667718685E+03  0.25500000000E-02 0.  1.
          2   -1    0    0  501    0  0.00000000000E+00 -0.00000000000E+00 -0.36312374774E+04  0.36312374774E+04  0.25500000000E-02 0. -1.
    8880023    1    1    2    0    0 -0.74288310879E+03  0.34727678585E+03 -0.13068199695E+04  0.16775175464E+04  0.65864270000E+03 0.  1.
    8880022    1    1    2    0    0  0.74288310879E+03 -0.34727678585E+03 -0.20577403210E+04  0.22203971179E+04  0.15294330000E+03 0.  0.
<mgrwt>
<rscale>  0 0.99258167E+03</rscale>
<asrwt>0</asrwt>
<pdfrwt beam="1">  1        2 0.55865189E+00 0.10518016E+04</pdfrwt>
<pdfrwt beam="2">  1       -2 0.41027262E-01 0.10518016E+04</pdfrwt>
<totfact> 0.38097728E+00</totfact>
</mgrwt>
</event>
<event>
 4    1  0.6502538E-008  0.1108312E+04  0.7818608E-02  0.9251858E-01
         -2   -1    0    0    0  501 -0.00000000000E+00  0.00000000000E+00  0.62171621311E+03  0.62171621311E+03  0.25500000000E-02 0.  1.
          2   -1    0    0  501    0  0.00000000000E+00 -0.00000000000E+00 -0.34262492682E+04  0.34262492682E+04  0.25500000000E-02 0. -1.
    8880023    1    1    2    0    0 -0.32490249362E+03 -0.83005015287E+03 -0.29321360647E+04  0.31346095443E+04  0.65864270000E+03 0. -1.
    8880022    1    1    2    0    0  0.32490249362E+03  0.83005015287E+03  0.12760300964E+03  0.91335593704E+03  0.15294330000E+03 0.  0.
<mgrwt>
<rscale>  0 0.10533833E+04</rscale>
<asrwt>0</asrwt>
<pdfrwt beam="1">  1        2 0.52711526E+00 0.11083118E+04</pdfrwt>
<pdfrwt beam="2">  1       -2 0.95648650E-01 0.11083118E+04</pdfrwt>
<totfact> 0.85019937E-01</totfact>
</mgrwt>
</event>
<event>
 4    1  0.8399329E-008  0.8188579E+03  0.7818608E-02  0.9671413E-01
         -2   -1    0    0    0  501 -0.00000000000E+00  0.00000000000E+00  0.15153662692E+04  0.15153662692E+04  0.25500000000E-02 0.  1.
          2   -1    0    0  501    0  0.00000000000E+00 -0.00000000000E+00 -0.21846707323E+04  0.21846707323E+04  0.25500000000E-02 0. -1.
    8880023    1    1    2    0    0  0.48509188634E+03  0.37467776688E+02 -0.20610649152E+04  0.22177729287E+04  0.65864270000E+03 0.  0.
    8880022    1    1    2    0    0 -0.48509188634E+03 -0.37467776688E+02  0.13917604520E+04  0.14822640727E+04  0.15294330000E+03 0.  0.
<mgrwt>
<rscale>  0 0.72744630E+03</rscale>
<asrwt>0</asrwt>
<pdfrwt beam="1">  1        2 0.33610319E+00 0.81885785E+03</pdfrwt>
<pdfrwt beam="2">  1       -2 0.23313327E+00 0.81885785E+03</pdfrwt>
<totfact> 0.44734794E-01</totfact>
</mgrwt>
</event>
<event>
 4    1  0.6502538E-008  0.2152841E+04  0.7818608E-02  0.8548994E-01
          2   -1    0    0  501    0  0.00000000000E+00  0.00000000000E+00  0.25523894173E+04  0.25523894173E+04  0.25500000000E-02 0. -1.
         -2   -1    0    0    0  501 -0.00000000000E+00 -0.00000000000E+00 -0.24897302703E+04  0.24897302703E+04  0.25500000000E-02 0.  1.
    8880023    1    1    2    0    0 -0.42328575277E+03  0.20054283566E+04 -0.13564011670E+04  0.25445133236E+04  0.65864270000E+03 0.  0.
    8880022    1    1    2    0    0  0.42328575277E+03 -0.20054283566E+04  0.14190603141E+04  0.24976063641E+04  0.15294330000E+03 0.  0.
<mgrwt>
<rscale>  0 0.21280330E+04</rscale>
<asrwt>0</asrwt>
<pdfrwt beam="1">  1        2 0.39267529E+00 0.21528409E+04</pdfrwt>
<pdfrwt beam="2">  1       -2 0.38303543E+00 0.21528409E+04</pdfrwt>
<totfact> 0.26963298E-02</totfact>
</mgrwt>
</event>
<event>
 4    1  0.6502538E-008  0.8160253E+03  0.7818608E-02  0.9677160E-01
          2   -1    0    0  501    0  0.00000000000E+00  0.00000000000E+00  0.12582794407E+04  0.12582794407E+04  0.25500000000E-02 0. -1.
         -2   -1    0    0    0  501 -0.00000000000E+00 -0.00000000000E+00 -0.53680604641E+03  0.53680604641E+03  0.25500000000E-02 0.  1.
    8880023    1    1    2    0    0  0.48175279486E+03 -0.11700693452E+01  0.93968027284E+03  0.12445466427E+04  0.65864270000E+03 0.  0.
    8880022    1    1    2    0    0 -0.48175279486E+03  0.11700693452E+01 -0.21820687850E+03  0.55053884446E+03  0.15294330000E+03 0.  0.
<mgrwt>
<rscale>  0 0.72393085E+03</rscale>
<asrwt>0</asrwt>
<pdfrwt beam="1">  1        2 0.19358145E+00 0.81602532E+03</pdfrwt>
<pdfrwt beam="2">  1       -2 0.82585547E-01 0.81602532E+03</pdfrwt>
<totfact> 0.22785226E+01</totfact>
</mgrwt>
</event>
<event>
 4    1  0.6502538E-008  0.8267079E+03  0.7818608E-02  0.9655772E-01
          2   -1    0    0  501    0  0.00000000000E+00  0.00000000000E+00  0.92142267579E+03  0.92142267579E+03  0.25500000000E-02 0. -1.
         -2   -1    0    0    0  501 -0.00000000000E+00 -0.00000000000E+00 -0.74243993355E+03  0.74243993355E+03  0.25500000000E-02 0.  1.
    8880023    1    1    2    0    0  0.23796229325E+03  0.43932866022E+03  0.57603487925E+03  0.10076021601E+04  0.65864270000E+03 0.  0.
    8880022    1    1    2    0    0 -0.23796229325E+03 -0.43932866022E+03 -0.39705213701E+03  0.65626044922E+03  0.15294330000E+03 0.  0.
<mgrwt>
<rscale>  0 0.73712278E+03</rscale>
<asrwt>0</asrwt>
<pdfrwt beam="1">  1        2 0.14175733E+00 0.82670789E+03</pdfrwt>
<pdfrwt beam="2">  1       -2 0.11422153E+00 0.82670789E+03</pdfrwt>
<totfact> 0.17141762E+01</totfact>
</mgrwt>
</event>
<event>
 4    1  0.6502538E-008  0.1244141E+04  0.7818608E-02  0.9115364E-01
         -2   -1    0    0    0  501 -0.00000000000E+00  0.00000000000E+00  0.11397059528E+04  0.11397059528E+04  0.25500000000E-02 0.  1.
          2   -1    0    0  501    0  0.00000000000E+00 -0.00000000000E+00 -0.14760717881E+04  0.14760717881E+04  0.25500000000E-02 0. -1.
    8880023    1    1    2    0    0  0.23041379753E+03 -0.10300420739E+04 -0.77146922793E+03  0.14639167217E+04  0.65864270000E+03 0.  0.
    8880022    1    1    2    0    0 -0.23041379753E+03  0.10300420739E+04  0.43510339271E+03  0.11518610192E+04  0.15294330000E+03 0.  0.
<mgrwt>
<rscale>  0 0.11971393E+04</rscale>
<asrwt>0</asrwt>
<pdfrwt beam="1">  1        2 0.22708797E+00 0.12441412E+04</pdfrwt>
<pdfrwt beam="2">  1       -2 0.17533938E+00 0.12441412E+04</pdfrwt>
<totfact> 0.24727798E+00</totfact>
</mgrwt>
</event>
<event>
 4    1  0.6502538E-008  0.9404197E+03  0.7818608E-02  0.9464034E-01
         -2   -1    0    0    0  501 -0.00000000000E+00  0.00000000000E+00  0.41504522176E+03  0.41504522177E+03  0.25500000000E-02 0.  1.
          2   -1    0    0  501    0  0.00000000000E+00 -0.00000000000E+00 -0.19711491807E+04  0.19711491807E+04  0.25500000000E-02 0. -1.
    8880023    1    1    2    0    0  0.44331870346E+03  0.50403125166E+03 -0.13895697087E+04  0.16778835350E+04  0.65864270000E+03 0.  0.
    8880022    1    1    2    0    0 -0.44331870346E+03 -0.50403125166E+03 -0.16653425028E+03  0.70831086750E+03  0.15294330000E+03 0.  0.
<mgrwt>
<rscale>  0 0.86988173E+03</rscale>
<asrwt>0</asrwt>
<pdfrwt beam="1">  1        2 0.30325371E+00 0.94041968E+03</pdfrwt>
<pdfrwt beam="2">  1       -2 0.63853112E-01 0.94041968E+03</pdfrwt>
<totfact> 0.15875075E+01</totfact>
</mgrwt>
</event>
<event>
 4    1  0.6502538E-008  0.8994363E+03  0.7818608E-02  0.9526937E-01
         -2   -1    0    0    0  501 -0.00000000000E+00  0.00000000000E+00  0.11541592606E+04  0.11541592606E+04  0.25500000000E-02 0.  1.
          2   -1    0    0  501    0  0.00000000000E+00 -0.00000000000E+00 -0.10133217455E+04  0.10133217456E+04  0.25500000000E-02 0. -1.
    8880023    1    1    2    0    0  0.21727588602E+03  0.57268377873E+03 -0.68313802623E+03  0.11294526507E+04  0.65864270000E+03 0.  0.
    8880022    1    1    2    0    0 -0.21727588602E+03 -0.57268377873E+03  0.82397554129E+03  0.10380283555E+04  0.15294330000E+03 0.  0.
<mgrwt>
<rscale>  0 0.82326663E+03</rscale>
<asrwt>0</asrwt>
<pdfrwt beam="1">  1        2 0.15589565E+00 0.89943634E+03</pdfrwt>
<pdfrwt beam="2">  1       -2 0.17756296E+00 0.89943634E+03</pdfrwt>
<totfact> 0.46663567E+00</totfact>
</mgrwt>
</event>
<event>
 4    1  0.6502538E-008  0.7317873E+03  0.7818608E-02  0.9884550E-01
         -2   -1    0    0    0  501 -0.00000000000E+00  0.00000000000E+00  0.65053883324E+03  0.65053883325E+03  0.25500000000E-02 0.  1.
          2   -1    0    0  501    0  0.00000000000E+00 -0.00000000000E+00 -0.26612844039E+04  0.26612844039E+04  0.25500000000E-02 0. -1.
    8880023    1    1    2    0    0  0.24748679005E+03  0.20112868785E+03 -0.25577824773E+04  0.26604067110E+04  0.65864270000E+03 0. -1.
    8880022    1    1    2    0    0 -0.24748679005E+03 -0.20112868785E+03  0.54703690665E+03  0.65141652617E+03  0.15294330000E+03 0.  0.
<mgrwt>
<rscale>  0 0.61015934E+03</rscale>
<asrwt>0</asrwt>
<pdfrwt beam="1">  1        2 0.40942836E+00 0.73178731E+03</pdfrwt>
<pdfrwt beam="2">  1       -2 0.10008290E+00 0.73178731E+03</pdfrwt>
<totfact> 0.24455754E+00</totfact>
</mgrwt>
</event>
<event>
 4    1  0.6502538E-008  0.7670218E+03  0.7818608E-02  0.9787257E-01
          2   -1    0    0  501    0  0.00000000000E+00  0.00000000000E+00  0.15964426176E+04  0.15964426176E+04  0.25500000000E-02 0. -1.
         -2   -1    0    0    0  501 -0.00000000000E+00 -0.00000000000E+00 -0.43261761578E+03  0.43261761578E+03  0.25500000000E-02 0.  1.
    8880023    1    1    2    0    0  0.38762645873E+03 -0.65253122307E+02  0.13619308325E+04  0.15630668700E+04  0.65864270000E+03 0. -1.
    8880022    1    1    2    0    0 -0.38762645873E+03  0.65253122307E+02 -0.19810583070E+03  0.46599336331E+03  0.15294330000E+03 0.  0.
<mgrwt>
<rscale>  0 0.66050934E+03</rscale>
<asrwt>0</asrwt>
<pdfrwt beam="1">  1        2 0.24560656E+00 0.76702180E+03</pdfrwt>
<pdfrwt beam="2">  1       -2 0.66556556E-01 0.76702180E+03</pdfrwt>
<totfact> 0.23783071E+01</totfact>
</mgrwt>
</event>
<event>
 4    1  0.6502538E-008  0.7855830E+03  0.7818608E-02  0.9742882E-01
          2   -1    0    0  501    0  0.00000000000E+00  0.00000000000E+00  0.89346637112E+03  0.89346637112E+03  0.25500000000E-02 0. -1.
         -2   -1    0    0    0  501 -0.00000000000E+00 -0.00000000000E+00 -0.69648944633E+03  0.69648944634E+03  0.25500000000E-02 0.  1.
    8880023    1    1    2    0    0 -0.25133338857E+03 -0.34664394045E+03  0.59516357947E+03  0.98557616969E+03  0.65864270000E+03 0.  0.
    8880022    1    1    2    0    0  0.25133338857E+03  0.34664394045E+03 -0.39818665468E+03  0.60437964778E+03  0.15294330000E+03 0.  0.
<mgrwt>
<rscale>  0 0.68520015E+03</rscale>
<asrwt>0</asrwt>
<pdfrwt beam="1">  1        2 0.13745636E+00 0.78558303E+03</pdfrwt>
<pdfrwt beam="2">  1       -2 0.10715222E+00 0.78558303E+03</pdfrwt>
<totfact> 0.20982768E+01</totfact>
</mgrwt>
</event>
<event>
 4    1  0.6502538E-008  0.7736617E+03  0.7818608E-02  0.9770942E-01
         -2   -1    0    0    0  501 -0.00000000000E+00  0.00000000000E+00  0.29166455912E+03  0.29166455913E+03  0.25500000000E-02 0.  1.
          2   -1    0    0  501    0  0.00000000000E+00 -0.00000000000E+00 -0.13748413919E+04  0.13748413919E+04  0.25500000000E-02 0. -1.
    8880023    1    1    2    0    0  0.36798979645E+03 -0.17124742387E+03 -0.92245593035E+03  0.12039424073E+04  0.65864270000E+03 0. -1.
    8880022    1    1    2    0    0 -0.36798979645E+03  0.17124742387E+03 -0.16072090243E+03  0.46256354371E+03  0.15294330000E+03 0.  0.
<mgrwt>
<rscale>  0 0.66945543E+03</rscale>
<asrwt>0</asrwt>
<pdfrwt beam="1">  1        2 0.21151406E+00 0.77366167E+03</pdfrwt>
<pdfrwt beam="2">  1       -2 0.44871471E-01 0.77366167E+03</pdfrwt>
<totfact> 0.71613222E+01</totfact>
</mgrwt>
</event>
<event>
 4    1  0.6502538E-008  0.1093612E+04  0.7818608E-02  0.9268202E-01
          2   -1    0    0  501    0  0.00000000000E+00  0.00000000000E+00  0.14918402569E+04  0.14918402569E+04  0.25500000000E-02 0. -1.
         -2   -1    0    0    0  501 -0.00000000000E+00 -0.00000000000E+00 -0.16835174213E+04  0.16835174213E+04  0.25500000000E-02 0.  1.
    8880023    1    1    2    0    0 -0.29541187300E+03  0.82152794967E+03  0.11373921998E+04  0.15778617079E+04  0.65864270000E+03 0.  0.
    8880022    1    1    2    0    0  0.29541187300E+03 -0.82152794967E+03 -0.13290693643E+04  0.15974959702E+04  0.15294330000E+03 0.  0.
<mgrwt>
<rscale>  0 0.10376367E+04</rscale>
<asrwt>0</asrwt>
<pdfrwt beam="1">  1        2 0.22951389E+00 0.10936117E+04</pdfrwt>
<pdfrwt beam="2">  1       -2 0.25900268E+00 0.10936117E+04</pdfrwt>
<totfact> 0.71570606E-01</totfact>
</mgrwt>
</event>
<event>
 4    1  0.6502538E-008  0.7780932E+03  0.7818608E-02  0.9760335E-01
          2   -1    0    0  501    0  0.00000000000E+00  0.00000000000E+00  0.47336927659E+03  0.47336927660E+03  0.25500000000E-02 0. -1.
         -2   -1    0    0    0  501 -0.00000000000E+00 -0.00000000000E+00 -0.22656896602E+04  0.22656896602E+04  0.25500000000E-02 0.  1.
    8880023    1    1    2    0    0 -0.38647977077E+03  0.14917173557E+03  0.11029164536E+03  0.78587102835E+03  0.65864270000E+03 0.  0.
    8880022    1    1    2    0    0  0.38647977077E+03 -0.14917173557E+03 -0.19026120289E+04  0.19531879084E+04  0.15294330000E+03 0.  0.
<mgrwt>
<rscale>  0 0.67535319E+03</rscale>
<asrwt>0</asrwt>
<pdfrwt beam="1">  1        2 0.72826044E-01 0.77809320E+03</pdfrwt>
<pdfrwt beam="2">  1       -2 0.34856763E+00 0.77809320E+03</pdfrwt>
<totfact> 0.10928110E+00</totfact>
</mgrwt>
</event>
<event>
 4    1  0.6502538E-008  0.6702130E+03  0.7818608E-02  0.1015511E+00
         -2   -1    0    0    0  501 -0.00000000000E+00  0.00000000000E+00  0.26934058467E+03  0.26934058468E+03  0.25500000000E-02 0.  1.
          2   -1    0    0  501    0  0.00000000000E+00 -0.00000000000E+00 -0.99406471159E+03  0.99406471160E+03  0.25500000000E-02 0. -1.
    8880023    1    1    2    0    0  0.46944693722E+02  0.11476722679E+03 -0.80786188136E+03  0.10496791635E+04  0.65864270000E+03 0. -1.
    8880022    1    1    2    0    0 -0.46944693722E+02 -0.11476722679E+03  0.83137754437E+02  0.21372613280E+03  0.15294330000E+03 0.  0.
<mgrwt>
<rscale>  0 0.49342073E+03</rscale>
<asrwt>0</asrwt>
<pdfrwt beam="1">  1        2 0.15293303E+00 0.67021305E+03</pdfrwt>
<pdfrwt beam="2">  1       -2 0.41437013E-01 0.67021305E+03</pdfrwt>
<totfact> 0.14267243E+02</totfact>
</mgrwt>
</event>
<event>
 4    1  0.6502538E-008  0.9401591E+03  0.7818608E-02  0.9464417E-01
          2   -1    0    0  501    0  0.00000000000E+00  0.00000000000E+00  0.11260043522E+04  0.11260043522E+04  0.25500000000E-02 0. -1.
         -2   -1    0    0    0  501 -0.00000000000E+00 -0.00000000000E+00 -0.10997832467E+04  0.10997832467E+04  0.25500000000E-02 0.  1.
    8880023    1    1    2    0    0  0.60523920824E+03  0.28943817990E+03  0.76802109746E+03  0.12139833490E+04  0.65864270000E+03 0. -1.
    8880022    1    1    2    0    0 -0.60523920824E+03 -0.28943817990E+03 -0.74179999196E+03  0.10118042500E+04  0.15294330000E+03 0.  0.
<mgrwt>
<rscale>  0 0.86958852E+03</rscale>
<asrwt>0</asrwt>
<pdfrwt beam="1">  1        2 0.17323144E+00 0.94015912E+03</pdfrwt>
<pdfrwt beam="2">  1       -2 0.16919742E+00 0.94015912E+03</pdfrwt>
<totfact> 0.45240866E+00</totfact>
</mgrwt>
</event>
<event>
 4    1  0.6502538E-008  0.1092059E+04  0.7818608E-02  0.9269949E-01
         -2   -1    0    0    0  501 -0.00000000000E+00  0.00000000000E+00  0.66494391934E+03  0.66494391935E+03  0.25500000000E-02 0.  1.
          2   -1    0    0  501    0  0.00000000000E+00 -0.00000000000E+00 -0.20585164905E+04  0.20585164905E+04  0.25500000000E-02 0. -1.
    8880023    1    1    2    0    0  0.17818027212E+03  0.85266307821E+03 -0.14750482444E+04  0.18353092557E+04  0.65864270000E+03 0. -1.
    8880022    1    1    2    0    0 -0.17818027212E+03 -0.85266307821E+03  0.81475673266E+02  0.88815115418E+03  0.15294330000E+03 0.  0.
<mgrwt>
<rscale>  0 0.10359708E+04</rscale>
<asrwt>0</asrwt>
<pdfrwt beam="1">  1        2 0.31669484E+00 0.10920589E+04</pdfrwt>
<pdfrwt beam="2">  1       -2 0.10229907E+00 0.10920589E+04</pdfrwt>
<totfact> 0.48026753E+00</totfact>
</mgrwt>
</event>
<event>
 4    1  0.6502538E-008  0.1077597E+04  0.7818608E-02  0.9286418E-01
         -2   -1    0    0    0  501 -0.00000000000E+00  0.00000000000E+00  0.11035159462E+04  0.11035159462E+04  0.25500000000E-02 0.  1.
          2   -1    0    0  501    0  0.00000000000E+00 -0.00000000000E+00 -0.18601662393E+04  0.18601662393E+04  0.25500000000E-02 0. -1.
    8880023    1    1    2    0    0  0.65830484759E+03  0.54225485826E+03 -0.14829028684E+04  0.18330893942E+04  0.65864270000E+03 0. -1.
    8880022    1    1    2    0    0 -0.65830484759E+03 -0.54225485826E+03  0.72625257535E+03  0.11305927914E+04  0.15294330000E+03 0.  0.
<mgrwt>
<rscale>  0 0.10204288E+04</rscale>
<asrwt>0</asrwt>
<pdfrwt beam="1">  1        2 0.28617942E+00 0.10775972E+04</pdfrwt>
<pdfrwt beam="2">  1       -2 0.16977168E+00 0.10775972E+04</pdfrwt>
<totfact> 0.16849468E+00</totfact>
</mgrwt>
</event>
<event>
 4    1  0.6502538E-008  0.6705738E+03  0.7818608E-02  0.1015255E+00
         -2   -1    0    0    0  501 -0.00000000000E+00  0.00000000000E+00  0.31951082278E+03  0.31951082279E+03  0.25500000000E-02 0.  1.
          2   -1    0    0  501    0  0.00000000000E+00 -0.00000000000E+00 -0.11310433440E+04  0.11310433440E+04  0.25500000000E-02 0. -1.
    8880023    1    1    2    0    0 -0.84545483193E+02  0.93333492099E+02 -0.98205280719E+03  0.11891581063E+04  0.65864270000E+03 0. -1.
    8880022    1    1    2    0    0  0.84545483193E+02 -0.93333492099E+02  0.17052028598E+03  0.26139606045E+03  0.15294330000E+03 0.  0.
<mgrwt>
<rscale>  0 0.49438573E+03</rscale>
<asrwt>0</asrwt>
<pdfrwt beam="1">  1        2 0.17400667E+00 0.67057385E+03</pdfrwt>
<pdfrwt beam="2">  1       -2 0.49155512E-01 0.67057385E+03</pdfrwt>
<totfact> 0.83514571E+01</totfact>
</mgrwt>
</event>
<event>
 4    1  0.6502538E-008  0.6986259E+03  0.7818608E-02  0.1000295E+00
         -2   -1    0    0    0  501 -0.00000000000E+00  0.00000000000E+00  0.57054272866E+03  0.57054272867E+03  0.25500000000E-02 0.  1.
          2   -1    0    0  501    0  0.00000000000E+00 -0.00000000000E+00 -0.94424280022E+03  0.94424280022E+03  0.25500000000E-02 0. -1.
    8880023    1    1    2    0    0  0.33301964683E+02  0.23056224453E+03 -0.76396373350E+03  0.10352385048E+04  0.65864270000E+03 0. -1.
    8880022    1    1    2    0    0 -0.33301964683E+02 -0.23056224453E+03  0.39026366195E+03  0.47954702409E+03  0.15294330000E+03 0.  0.
<mgrwt>
<rscale>  0 0.55521083E+03</rscale>
<asrwt>0</asrwt>
<pdfrwt beam="1">  1        2 0.14526812E+00 0.69862592E+03</pdfrwt>
<pdfrwt beam="2">  1       -2 0.87775804E-01 0.69862592E+03</pdfrwt>
<totfact> 0.31292623E+01</totfact>
</mgrwt>
</event>
<event>
 4    1  0.6502538E-008  0.8289046E+03  0.7818608E-02  0.9651467E-01
          2   -1    0    0  501    0  0.00000000000E+00  0.00000000000E+00  0.32902326217E+04  0.32902326217E+04  0.25500000000E-02 0. -1.
         -2   -1    0    0    0  501 -0.00000000000E+00 -0.00000000000E+00 -0.26720559001E+03  0.26720559002E+03  0.25500000000E-02 0.  1.
    8880023    1    1    2    0    0  0.50032147406E+03 -0.54323761152E+02  0.29015182043E+04  0.30175968493E+04  0.65864270000E+03 0. -1.
    8880022    1    1    2    0    0 -0.50032147406E+03  0.54323761152E+02  0.12150882731E+03  0.53984136240E+03  0.15294330000E+03 0.  0.
<mgrwt>
<rscale>  0 0.73981402E+03</rscale>
<asrwt>0</asrwt>
<pdfrwt beam="1">  1        2 0.50618963E+00 0.82890461E+03</pdfrwt>
<pdfrwt beam="2">  1       -2 0.41108553E-01 0.82890461E+03</pdfrwt>
<totfact> 0.67120814E+00</totfact>
</mgrwt>
</event>
<event>
 4    1  0.6502538E-008  0.9037700E+03  0.7818608E-02  0.9520006E-01
         -2   -1    0    0    0  501 -0.00000000000E+00  0.00000000000E+00  0.46167060056E+03  0.46167060056E+03  0.25500000000E-02 0.  1.
          2   -1    0    0  501    0  0.00000000000E+00 -0.00000000000E+00 -0.25321335014E+04  0.25321335014E+04  0.25500000000E-02 0. -1.
    8880023    1    1    2    0    0 -0.52380502029E+03  0.32957299964E+03 -0.21680652219E+04  0.23488948622E+04  0.65864270000E+03 0.  0.
    8880022    1    1    2    0    0  0.52380502029E+03 -0.32957299964E+03  0.97602321027E+02  0.64490923971E+03  0.15294330000E+03 0.  0.
<mgrwt>
<rscale>  0 0.82824767E+03</rscale>
<asrwt>0</asrwt>
<pdfrwt beam="1">  1        2 0.38955899E+00 0.90377003E+03</pdfrwt>
<pdfrwt beam="2">  1       -2 0.71026248E-01 0.90377003E+03</pdfrwt>
<totfact> 0.61546476E+00</totfact>
</mgrwt>
</event>
<event>
 4    1  0.6502538E-008  0.9165096E+03  0.7818608E-02  0.9500032E-01
          2   -1    0    0  501    0  0.00000000000E+00  0.00000000000E+00  0.15843909183E+04  0.15843909183E+04  0.25500000000E-02 0. -1.
         -2   -1    0    0    0  501 -0.00000000000E+00 -0.00000000000E+00 -0.73098205660E+03  0.73098205660E+03  0.25500000000E-02 0.  1.
    8880023    1    1    2    0    0  0.28584790116E+03  0.56962329444E+03  0.12494795581E+04  0.15495770689E+04  0.65864270000E+03 0.  0.
    8880022    1    1    2    0    0 -0.28584790116E+03 -0.56962329444E+03 -0.39607069635E+03  0.76579590603E+03  0.15294330000E+03 0.  0.
<mgrwt>
<rscale>  0 0.84281488E+03</rscale>
<asrwt>0</asrwt>
<pdfrwt beam="1">  1        2 0.24375245E+00 0.91650964E+03</pdfrwt>
<pdfrwt beam="2">  1       -2 0.11245878E+00 0.91650964E+03</pdfrwt>
<totfact> 0.71174795E+00</totfact>
</mgrwt>
</event>
<event>
 4    1  0.6502538E-008  0.1778045E+04  0.7818608E-02  0.8734779E-01
          2   -1    0    0  501    0  0.00000000000E+00  0.00000000000E+00  0.25416877824E+04  0.25416877824E+04  0.25500000000E-02 0. -1.
         -2   -1    0    0    0  501 -0.00000000000E+00 -0.00000000000E+00 -0.15804189944E+04  0.15804189944E+04  0.25500000000E-02 0.  1.
    8880023    1    1    2    0    0 -0.12882901099E+04 -0.10334127457E+04  0.15533208626E+04  0.23609847985E+04  0.65864270000E+03 0. -1.
    8880022    1    1    2    0    0  0.12882901099E+04  0.10334127457E+04 -0.59205207459E+03  0.17611219783E+04  0.15294330000E+03 0.  0.
<mgrwt>
<rscale>  0 0.17474061E+04</rscale>
<asrwt>0</asrwt>
<pdfrwt beam="1">  1        2 0.39102889E+00 0.17780449E+04</pdfrwt>
<pdfrwt beam="2">  1       -2 0.24314138E+00 0.17780449E+04</pdfrwt>
<totfact> 0.21209142E-01</totfact>
</mgrwt>
</event>
<event>
 4    1  0.6502538E-008  0.1240876E+04  0.7818608E-02  0.9118377E-01
         -2   -1    0    0    0  501 -0.00000000000E+00  0.00000000000E+00  0.72477690281E+03  0.72477690282E+03  0.25500000000E-02 0.  1.
          2   -1    0    0  501    0  0.00000000000E+00 -0.00000000000E+00 -0.38825353203E+04  0.38825353203E+04  0.25500000000E-02 0. -1.
    8880023    1    1    2    0    0 -0.10515378224E+04  0.15204516560E+02 -0.33088878532E+04  0.35339088840E+04  0.65864270000E+03 0.  0.
    8880022    1    1    2    0    0  0.10515378224E+04 -0.15204516560E+02  0.15112943564E+03  0.10734033392E+04  0.15294330000E+03 0.  0.
<mgrwt>
<rscale>  0 0.11937134E+04</rscale>
<asrwt>0</asrwt>
<pdfrwt beam="1">  1        2 0.59731312E+00 0.12408760E+04</pdfrwt>
<pdfrwt beam="2">  1       -2 0.11150414E+00 0.12408760E+04</pdfrwt>
<totfact> 0.27019804E-01</totfact>
</mgrwt>
</event>
<event>
 4    1  0.6502538E-008  0.1148021E+04  0.7818608E-02  0.9209385E-01
          2   -1    0    0  501    0  0.00000000000E+00  0.00000000000E+00  0.24860664662E+04  0.24860664662E+04  0.25500000000E-02 0. -1.
         -2   -1    0    0    0  501 -0.00000000000E+00 -0.00000000000E+00 -0.90203806784E+03  0.90203806784E+03  0.25500000000E-02 0.  1.
    8880023    1    1    2    0    0 -0.61060300832E+03 -0.71505591091E+03  0.20331666889E+04  0.23348914281E+04  0.65864270000E+03 0.  0.
    8880022    1    1    2    0    0  0.61060300832E+03  0.71505591091E+03 -0.44913829059E+03  0.10532131060E+04  0.15294330000E+03 0.  0.
<mgrwt>
<rscale>  0 0.10957085E+04</rscale>
<asrwt>0</asrwt>
<pdfrwt beam="1">  1        2 0.38247175E+00 0.11480206E+04</pdfrwt>
<pdfrwt beam="2">  1       -2 0.13877509E+00 0.11480206E+04</pdfrwt>
<totfact> 0.12837760E+00</totfact>
</mgrwt>
</event>
<event>
 4    1  0.6502538E-008  0.2579473E+04  0.7818608E-02  0.8382254E-01
          2   -1    0    0  501    0  0.00000000000E+00  0.00000000000E+00  0.22914803920E+04  0.22914803920E+04  0.25500000000E-02 0. -1.
         -2   -1    0    0    0  501 -0.00000000000E+00 -0.00000000000E+00 -0.31453024377E+04  0.31453024377E+04  0.25500000000E-02 0.  1.
    8880023    1    1    2    0    0 -0.84845334111E+01 -0.24939526118E+04 -0.13159465478E+04  0.28957550208E+04  0.65864270000E+03 0.  0.
    8880022    1    1    2    0    0  0.84845334111E+01  0.24939526118E+04  0.46212450202E+03  0.25410278089E+04  0.15294330000E+03 0.  0.
<mgrwt>
<rscale>  0 0.25590261E+04</rscale>
<asrwt>0</asrwt>
<pdfrwt beam="1">  1        2 0.35253544E+00 0.25794732E+04</pdfrwt>
<pdfrwt beam="2">  1       -2 0.48389268E+00 0.25794732E+04</pdfrwt>
<totfact> 0.79215896E-03</totfact>
</mgrwt>
</event>
<event>
 4    1  0.6502538E-008  0.7624033E+03  0.7818608E-02  0.9798925E-01
          2   -1    0    0  501    0  0.00000000000E+00  0.00000000000E+00  0.30928536052E+04  0.30928536052E+04  0.25500000000E-02 0. -1.
         -2   -1    0    0    0  501 -0.00000000000E+00 -0.00000000000E+00 -0.34025720870E+03  0.34025720871E+03  0.25500000000E-02 0.  1.
    8880023    1    1    2    0    0  0.38377331687E+03 -0.12909424112E+02  0.28967239978E+04  0.29953745572E+04  0.65864270000E+03 0. -1.
    8880022    1    1    2    0    0 -0.38377331687E+03  0.12909424112E+02 -0.14412760133E+03  0.43773625673E+03  0.15294330000E+03 0.  0.
<mgrwt>
<rscale>  0 0.65420275E+03</rscale>
<asrwt>0</asrwt>
<pdfrwt beam="1">  1        2 0.47582364E+00 0.76240332E+03</pdfrwt>
<pdfrwt beam="2">  1       -2 0.52347262E-01 0.76240332E+03</pdfrwt>
<totfact> 0.55850710E+00</totfact>
</mgrwt>
</event>
<event>
 4    1  0.6502538E-008  0.1241749E+04  0.7818608E-02  0.9117571E-01
         -2   -1    0    0    0  501 -0.00000000000E+00  0.00000000000E+00  0.16290783260E+04  0.16290783260E+04  0.25500000000E-02 0.  1.
          2   -1    0    0  501    0  0.00000000000E+00 -0.00000000000E+00 -0.14298972039E+04  0.14298972039E+04  0.25500000000E-02 0. -1.
    8880023    1    1    2    0    0 -0.43232747173E+03 -0.95980332196E+03 -0.89674725025E+03  0.15316968684E+04  0.65864270000E+03 0.  0.
    8880022    1    1    2    0    0  0.43232747173E+03  0.95980332196E+03  0.10959283723E+04  0.15272786615E+04  0.15294330000E+03 0.  0.
<mgrwt>
<rscale>  0 0.11946291E+04</rscale>
<asrwt>0</asrwt>
<pdfrwt beam="1">  1        2 0.21998419E+00 0.12417486E+04</pdfrwt>
<pdfrwt beam="2">  1       -2 0.25062743E+00 0.12417486E+04</pdfrwt>
<totfact> 0.85686855E-01</totfact>
</mgrwt>
</event>
<event>
 4    1  0.6502538E-008  0.8463889E+03  0.7818608E-02  0.9618249E-01
          2   -1    0    0  501    0  0.00000000000E+00  0.00000000000E+00  0.20934781724E+04  0.20934781724E+04  0.25500000000E-02 0. -1.
         -2   -1    0    0    0  501 -0.00000000000E+00 -0.00000000000E+00 -0.85134442792E+03  0.85134442793E+03  0.25500000000E-02 0.  1.
    8880023    1    1    2    0    0 -0.20164229045E+03 -0.49183772553E+03  0.19031712023E+04  0.20828909701E+04  0.65864270000E+03 0. -1.
    8880022    1    1    2    0    0  0.20164229045E+03  0.49183772553E+03 -0.66103745785E+03  0.86193163026E+03  0.15294330000E+03 0.  0.
<mgrwt>
<rscale>  0 0.76100020E+03</rscale>
<asrwt>0</asrwt>
<pdfrwt beam="1">  1        2 0.32207356E+00 0.84638890E+03</pdfrwt>
<pdfrwt beam="2">  1       -2 0.13097607E+00 0.84638890E+03</pdfrwt>
<totfact> 0.25815878E+00</totfact>
</mgrwt>
</event>
<event>
 4    1  0.6502538E-008  0.7595509E+03  0.7818608E-02  0.9806271E-01
         -2   -1    0    0    0  501 -0.00000000000E+00  0.00000000000E+00  0.29692679166E+03  0.29692679168E+03  0.25500000000E-02 0.  1.
          2   -1    0    0  501    0  0.00000000000E+00 -0.00000000000E+00 -0.49421744278E+04  0.49421744278E+04  0.25500000000E-02 0. -1.
    8880023    1    1    2    0    0  0.35935233515E+03 -0.11820877962E+03 -0.47560202123E+04  0.48162896385E+04  0.65864270000E+03 0. -1.
    8880022    1    1    2    0    0 -0.35935233515E+03  0.11820877962E+03  0.11077257613E+03  0.42281158096E+03  0.15294330000E+03 0.  0.
<mgrwt>
<rscale>  0 0.65027065E+03</rscale>
<asrwt>0</asrwt>
<pdfrwt beam="1">  1        2 0.76033447E+00 0.75955093E+03</pdfrwt>
<pdfrwt beam="2">  1       -2 0.45681048E-01 0.75955093E+03</pdfrwt>
<totfact> 0.21590670E-01</totfact>
</mgrwt>
</event>
<event>
 4    1  0.6502538E-008  0.7495155E+03  0.7818608E-02  0.9833048E-01
          2   -1    0    0  501    0  0.00000000000E+00  0.00000000000E+00  0.88962894415E+03  0.88962894415E+03  0.25500000000E-02 0. -1.
         -2   -1    0    0    0  501 -0.00000000000E+00 -0.00000000000E+00 -0.41881841853E+03  0.41881841854E+03  0.25500000000E-02 0.  1.
    8880023    1    1    2    0    0  0.13342199735E+03  0.33190647643E+03  0.52577565323E+03  0.91554004952E+03  0.65864270000E+03 0. -1.
    8880022    1    1    2    0    0 -0.13342199735E+03 -0.33190647643E+03 -0.54965127618E+02  0.39290731317E+03  0.15294330000E+03 0.  0.
<mgrwt>
<rscale>  0 0.63618742E+03</rscale>
<asrwt>0</asrwt>
<pdfrwt beam="1">  1        2 0.13686599E+00 0.74951554E+03</pdfrwt>
<pdfrwt beam="2">  1       -2 0.64433604E-01 0.74951554E+03</pdfrwt>
<totfact> 0.67221110E+01</totfact>
</mgrwt>
</event>
<event>
 4    1  0.6502538E-008  0.9336325E+03  0.7818608E-02  0.9474065E-01
          2   -1    0    0  501    0  0.00000000000E+00  0.00000000000E+00  0.37449593719E+04  0.37449593719E+04  0.25500000000E-02 0. -1.
         -2   -1    0    0    0  501 -0.00000000000E+00 -0.00000000000E+00 -0.90205435986E+03  0.90205435986E+03  0.25500000000E-02 0.  1.
    8880023    1    1    2    0    0  0.43048656188E+03 -0.50253438307E+03  0.35475530113E+04  0.36683514090E+04  0.65864270000E+03 0. -1.
    8880022    1    1    2    0    0 -0.43048656188E+03  0.50253438307E+03 -0.70464799922E+03  0.97866232274E+03  0.15294330000E+03 0.  0.
<mgrwt>
<rscale>  0 0.86223205E+03</rscale>
<asrwt>0</asrwt>
<pdfrwt beam="1">  1        2 0.57614758E+00 0.93363253E+03</pdfrwt>
<pdfrwt beam="2">  1       -2 0.13877760E+00 0.93363253E+03</pdfrwt>
<totfact> 0.20923652E-01</totfact>
</mgrwt>
</event>
<event>
 4    1  0.6502538E-008  0.8682339E+03  0.7818608E-02  0.9579081E-01
          2   -1    0    0  501    0  0.00000000000E+00  0.00000000000E+00  0.14917326221E+04  0.14917326221E+04  0.25500000000E-02 0. -1.
         -2   -1    0    0    0  501 -0.00000000000E+00 -0.00000000000E+00 -0.11287267382E+04  0.11287267382E+04  0.25500000000E-02 0.  1.
    8880023    1    1    2    0    0  0.55921929440E+03 -0.85403416911E+02  0.12713227246E+04  0.15395101946E+04  0.65864270000E+03 0. -1.
    8880022    1    1    2    0    0 -0.55921929440E+03  0.85403416911E+02 -0.90831684068E+03  0.10809491657E+04  0.15294330000E+03 0.  0.
<mgrwt>
<rscale>  0 0.78696323E+03</rscale>
<asrwt>0</asrwt>
<pdfrwt beam="1">  1        2 0.22949733E+00 0.86823394E+03</pdfrwt>
<pdfrwt beam="2">  1       -2 0.17365027E+00 0.86823394E+03</pdfrwt>
<totfact> 0.26026455E+00</totfact>
</mgrwt>
</event>
<event>
 4    1  0.6502538E-008  0.9276375E+03  0.7818608E-02  0.9483046E-01
          2   -1    0    0  501    0  0.00000000000E+00  0.00000000000E+00  0.14849926645E+04  0.14849926645E+04  0.25500000000E-02 0. -1.
         -2   -1    0    0    0  501 -0.00000000000E+00 -0.00000000000E+00 -0.65717650015E+03  0.65717650016E+03  0.25500000000E-02 0.  1.
    8880023    1    1    2    0    0 -0.34441056574E+03  0.55505173242E+03  0.10815756286E+04  0.14248919643E+04  0.65864270000E+03 0. -1.
    8880022    1    1    2    0    0  0.34441056574E+03 -0.55505173242E+03 -0.25375946419E+03  0.71727720035E+03  0.15294330000E+03 0.  0.
<mgrwt>
<rscale>  0 0.85545360E+03</rscale>
<asrwt>0</asrwt>
<pdfrwt beam="1">  1        2 0.22846041E+00 0.92763747E+03</pdfrwt>
<pdfrwt beam="2">  1       -2 0.10110408E+00 0.92763747E+03</pdfrwt>
<totfact> 0.10445330E+01</totfact>
</mgrwt>
</event>
<event>
 4    1  0.6502538E-008  0.7779477E+03  0.7818608E-02  0.9760680E-01
          2   -1    0    0  501    0  0.00000000000E+00  0.00000000000E+00  0.16137027631E+04  0.16137027631E+04  0.25500000000E-02 0. -1.
         -2   -1    0    0    0  501 -0.00000000000E+00 -0.00000000000E+00 -0.28551195570E+03  0.28551195571E+03  0.25500000000E-02 0.  1.
    8880023    1    1    2    0    0 -0.25491146185E+02  0.41321013208E+03  0.40751347173E+03  0.87821970354E+03  0.65864270000E+03 0.  1.
    8880022    1    1    2    0    0  0.25491146185E+02 -0.41321013208E+03  0.92067733568E+03  0.10209950153E+04  0.15294330000E+03 0.  0.
<mgrwt>
<rscale>  0 0.67516042E+03</rscale>
<asrwt>0</asrwt>
<pdfrwt beam="1">  1        2 0.24826197E+00 0.77794770E+03</pdfrwt>
<pdfrwt beam="2">  1       -2 0.43924916E-01 0.77794770E+03</pdfrwt>
<totfact> 0.54929666E+01</totfact>
</mgrwt>
</event>
<event>
 4    1  0.6502538E-008  0.8882917E+03  0.7818608E-02  0.9545095E-01
         -2   -1    0    0    0  501 -0.00000000000E+00  0.00000000000E+00  0.29068975977E+04  0.29068975977E+04  0.25500000000E-02 0.  1.
          2   -1    0    0  501    0  0.00000000000E+00 -0.00000000000E+00 -0.43095372055E+03  0.43095372055E+03  0.25500000000E-02 0. -1.
    8880023    1    1    2    0    0  0.28410437546E+03 -0.52396245824E+03  0.11222778363E+03  0.89535313451E+03  0.65864270000E+03 0.  0.
    8880022    1    1    2    0    0 -0.28410437546E+03  0.52396245824E+03  0.23637160936E+04  0.24424981838E+04  0.15294330000E+03 0.  0.
<mgrwt>
<rscale>  0 0.81039273E+03</rscale>
<asrwt>0</asrwt>
<pdfrwt beam="1">  1        2 0.66300572E-01 0.88829171E+03</pdfrwt>
<pdfrwt beam="2">  1       -2 0.44721501E+00 0.88829171E+03</pdfrwt>
<totfact> 0.27511920E-01</totfact>
</mgrwt>
</event>
<event>
 4    1  0.8437174E-008  0.9569090E+03  0.7818608E-02  0.9440242E-01
         -2   -1    0    0    0  501 -0.00000000000E+00  0.00000000000E+00  0.15583884640E+04  0.15583884640E+04  0.25500000000E-02 0.  1.
          2   -1    0    0  501    0  0.00000000000E+00 -0.00000000000E+00 -0.24431657332E+04  0.24431657332E+04  0.25500000000E-02 0. -1.
    8880023    1    1    2    0    0 -0.46020156041E+02  0.69263752194E+03 -0.22595892032E+04  0.24538578127E+04  0.65864270000E+03 0. -1.
    8880022    1    1    2    0    0  0.46020156041E+02 -0.69263752194E+03  0.13748119340E+04  0.15476963845E+04  0.15294330000E+03 0.  0.
<mgrwt>
<rscale>  0 0.88836601E+03</rscale>
<asrwt>0</asrwt>
<pdfrwt beam="1">  1        2 0.37587165E+00 0.95690898E+03</pdfrwt>
<pdfrwt beam="2">  1       -2 0.23975207E+00 0.95690898E+03</pdfrwt>
<totfact> 0.28396339E-01</totfact>
</mgrwt>
</event>
<event>
 4    1  0.6502538E-008  0.1220186E+04  0.7818608E-02  0.9137745E-01
          2   -1    0    0  501    0  0.00000000000E+00  0.00000000000E+00  0.14095483263E+04  0.14095483263E+04  0.25500000000E-02 0. -1.
         -2   -1    0    0    0  501 -0.00000000000E+00 -0.00000000000E+00 -0.12092817460E+04  0.12092817460E+04  0.25500000000E-02 0.  1.
    8880023    1    1    2    0    0  0.45187934392E+03  0.92241482873E+03  0.76158778294E+03  0.14383567760E+04  0.65864270000E+03 0.  0.
    8880022    1    1    2    0    0 -0.45187934392E+03 -0.92241482873E+03 -0.56132120263E+03  0.11804732963E+04  0.15294330000E+03 0.  0.
<mgrwt>
<rscale>  0 0.11719764E+04</rscale>
<asrwt>0</asrwt>
<pdfrwt beam="1">  1        2 0.21685359E+00 0.12201862E+04</pdfrwt>
<pdfrwt beam="2">  1       -2 0.18604335E+00 0.12201862E+04</pdfrwt>
<totfact> 0.22810233E+00</totfact>
</mgrwt>
</event>
<event>
 4    1  0.6502538E-008  0.1230119E+04  0.7818608E-02  0.9128386E-01
          2   -1    0    0  501    0  0.00000000000E+00  0.00000000000E+00  0.14613597397E+04  0.14613597397E+04  0.25500000000E-02 0. -1.
         -2   -1    0    0    0  501 -0.00000000000E+00 -0.00000000000E+00 -0.12785640712E+04  0.12785640712E+04  0.25500000000E-02 0.  1.
    8880023    1    1    2    0    0 -0.72685924542E+03 -0.74233303586E+03  0.85048841633E+03  0.14955010703E+04  0.65864270000E+03 0.  0.
    8880022    1    1    2    0    0  0.72685924542E+03  0.74233303586E+03 -0.66769274777E+03  0.12444227406E+04  0.15294330000E+03 0.  0.
<mgrwt>
<rscale>  0 0.11824184E+04</rscale>
<asrwt>0</asrwt>
<pdfrwt beam="1">  1        2 0.22482457E+00 0.12301191E+04</pdfrwt>
<pdfrwt beam="2">  1       -2 0.19670217E+00 0.12301191E+04</pdfrwt>
<totfact> 0.18052766E+00</totfact>
</mgrwt>
</event>
<event>
 4    1  0.6502538E-008  0.1115633E+04  0.7818608E-02  0.9243847E-01
         -2   -1    0    0    0  501 -0.00000000000E+00  0.00000000000E+00  0.14366058251E+04  0.14366058251E+04  0.25500000000E-02 0.  1.
          2   -1    0    0  501    0  0.00000000000E+00 -0.00000000000E+00 -0.15418068527E+04  0.15418068528E+04  0.25500000000E-02 0. -1.
    8880023    1    1    2    0    0 -0.26645456259E+03 -0.86013353760E+03 -0.11421283899E+04  0.15965886138E+04  0.65864270000E+03 0. -1.
    8880022    1    1    2    0    0  0.26645456259E+03  0.86013353760E+03  0.10369273623E+04  0.13818240641E+04  0.15294330000E+03 0.  0.
<mgrwt>
<rscale>  0 0.10612096E+04</rscale>
<asrwt>0</asrwt>
<pdfrwt beam="1">  1        2 0.23720105E+00 0.11156334E+04</pdfrwt>
<pdfrwt beam="2">  1       -2 0.22101628E+00 0.11156334E+04</pdfrwt>
<totfact> 0.11477334E+00</totfact>
</mgrwt>
</event>
<event>
 4    1  0.6502538E-008  0.2140218E+04  0.7818608E-02  0.8554555E-01
          2   -1    0    0  501    0  0.00000000000E+00  0.00000000000E+00  0.23687851569E+04  0.23687851569E+04  0.25500000000E-02 0. -1.
         -2   -1    0    0    0  501 -0.00000000000E+00 -0.00000000000E+00 -0.24246338619E+04  0.24246338619E+04  0.25500000000E-02 0.  1.
    8880023    1    1    2    0    0  0.40178550933E+03  0.19963191092E+04 -0.11989500954E+04  0.24531638997E+04  0.65864270000E+03 0.  0.
    8880022    1    1    2    0    0 -0.40178550933E+03 -0.19963191092E+04  0.11431013904E+04  0.23402551192E+04  0.15294330000E+03 0.  0.
<mgrwt>
<rscale>  0 0.21152512E+04</rscale>
<asrwt>0</asrwt>
<pdfrwt beam="1">  1        2 0.36442848E+00 0.21402177E+04</pdfrwt>
<pdfrwt beam="2">  1       -2 0.37302060E+00 0.21402177E+04</pdfrwt>
<totfact> 0.40087333E-02</totfact>
</mgrwt>
</event>
<event>
 4    1  0.6502538E-008  0.1051405E+04  0.7818608E-02  0.9317194E-01
         -2   -1    0    0    0  501 -0.00000000000E+00  0.00000000000E+00  0.12489990684E+04  0.12489990684E+04  0.25500000000E-02 0.  1.
          2   -1    0    0  501    0  0.00000000000E+00 -0.00000000000E+00 -0.11922052574E+04  0.11922052574E+04  0.25500000000E-02 0. -1.
    8880023    1    1    2    0    0  0.17683442864E+03  0.80023249360E+03 -0.74179442641E+03  0.12867445886E+04  0.65864270000E+03 0.  0.
    8880022    1    1    2    0    0 -0.17683442864E+03 -0.80023249360E+03  0.79858823740E+03  0.11544597372E+04  0.15294330000E+03 0.  0.
<mgrwt>
<rscale>  0 0.99215225E+03</rscale>
<asrwt>0</asrwt>
<pdfrwt beam="1">  1        2 0.18341619E+00 0.10514051E+04</pdfrwt>
<pdfrwt beam="2">  1       -2 0.19215370E+00 0.10514051E+04</pdfrwt>
<totfact> 0.28306166E+00</totfact>
</mgrwt>
</event>
<event>
 4    1  0.6502538E-008  0.8157649E+03  0.7818608E-02  0.9677692E-01
         -2   -1    0    0    0  501 -0.00000000000E+00  0.00000000000E+00  0.27943262297E+03  0.27943262298E+03  0.25500000000E-02 0.  1.
          2   -1    0    0  501    0  0.00000000000E+00 -0.00000000000E+00 -0.35257907505E+04  0.35257907505E+04  0.25500000000E-02 0. -1.
    8880023    1    1    2    0    0 -0.38562041267E+03  0.28802604433E+03 -0.31951055239E+04  0.32976008885E+04  0.65864270000E+03 0.  0.
    8880022    1    1    2    0    0  0.38562041267E+03 -0.28802604433E+03 -0.51252603690E+02  0.50762248501E+03  0.15294330000E+03 0.  0.
<mgrwt>
<rscale>  0 0.72360692E+03</rscale>
<asrwt>0</asrwt>
<pdfrwt beam="1">  1        2 0.54242932E+00 0.81576486E+03</pdfrwt>
<pdfrwt beam="2">  1       -2 0.42989637E-01 0.81576486E+03</pdfrwt>
<totfact> 0.42856603E+00</totfact>
</mgrwt>
</event>
<event>
 4    1  0.6502538E-008  0.1164906E+04  0.7818608E-02  0.9192014E-01
          2   -1    0    0  501    0  0.00000000000E+00  0.00000000000E+00  0.27146997896E+04  0.27146997897E+04  0.25500000000E-02 0. -1.
         -2   -1    0    0    0  501 -0.00000000000E+00 -0.00000000000E+00 -0.48574925877E+03  0.48574925878E+03  0.25500000000E-02 0.  1.
    8880023    1    1    2    0    0 -0.40410530947E+03 -0.87172000717E+03  0.17838931719E+04  0.21305590644E+04  0.65864270000E+03 0.  0.
    8880022    1    1    2    0    0  0.40410530947E+03  0.87172000717E+03  0.44505735897E+03  0.10698899840E+04  0.15294330000E+03 0.  0.
<mgrwt>
<rscale>  0 0.11136237E+04</rscale>
<asrwt>0</asrwt>
<pdfrwt beam="1">  1        2 0.41764611E+00 0.11649065E+04</pdfrwt>
<pdfrwt beam="2">  1       -2 0.74730656E-01 0.11649065E+04</pdfrwt>
<totfact> 0.41634352E+00</totfact>
</mgrwt>
</event>
<event>
 4    1  0.6502538E-008  0.7301832E+03  0.7818608E-02  0.9889525E-01
          2   -1    0    0  501    0  0.00000000000E+00  0.00000000000E+00  0.51466914434E+03  0.51466914434E+03  0.25500000000E-02 0. -1.
         -2   -1    0    0    0  501 -0.00000000000E+00 -0.00000000000E+00 -0.84302291068E+03  0.84302291069E+03  0.25500000000E-02 0.  1.
    8880023    1    1    2    0    0  0.25794812285E+03 -0.18116322707E+03  0.16884662612E+03  0.74945095793E+03  0.65864270000E+03 0. -1.
    8880022    1    1    2    0    0 -0.25794812285E+03  0.18116322707E+03 -0.49720039246E+03  0.60824109710E+03  0.15294330000E+03 0.  0.
<mgrwt>
<rscale>  0 0.60771666E+03</rscale>
<asrwt>0</asrwt>
<pdfrwt beam="1">  1        2 0.79179868E-01 0.73018323E+03</pdfrwt>
<pdfrwt beam="2">  1       -2 0.12969583E+00 0.73018323E+03</pdfrwt>
<totfact> 0.26381363E+01</totfact>
</mgrwt>
</event>
<event>
 4    1  0.6502538E-008  0.8231675E+03  0.7818608E-02  0.9662775E-01
          2   -1    0    0  501    0  0.00000000000E+00  0.00000000000E+00  0.52813450855E+03  0.52813450856E+03  0.25500000000E-02 0. -1.
         -2   -1    0    0    0  501 -0.00000000000E+00 -0.00000000000E+00 -0.14791722082E+04  0.14791722082E+04  0.25500000000E-02 0.  1.
    8880023    1    1    2    0    0  0.49117227324E+03  0.50441295173E+02  0.10667054156E+03  0.83005020147E+03  0.65864270000E+03 0. -1.
    8880022    1    1    2    0    0 -0.49117227324E+03 -0.50441295173E+02 -0.10577082412E+04  0.11772565153E+04  0.15294330000E+03 0.  0.
<mgrwt>
<rscale>  0 0.73277039E+03</rscale>
<asrwt>0</asrwt>
<pdfrwt beam="1">  1        2 0.81251464E-01 0.82316750E+03</pdfrwt>
<pdfrwt beam="2">  1       -2 0.22756495E+00 0.82316750E+03</pdfrwt>
<totfact> 0.51945618E+00</totfact>
</mgrwt>
</event>
<event>
 4    1  0.6502538E-008  0.7078974E+03  0.7818608E-02  0.9965893E-01
         -2   -1    0    0    0  501 -0.00000000000E+00  0.00000000000E+00  0.30505794180E+03  0.30505794181E+03  0.25500000000E-02 0.  1.
          2   -1    0    0  501    0  0.00000000000E+00 -0.00000000000E+00 -0.23283769176E+04  0.23283769176E+04  0.25500000000E-02 0. -1.
    8880023    1    1    2    0    0  0.25927402781E+03 -0.92441024478E+01 -0.21813405045E+04  0.22933305645E+04  0.65864270000E+03 0. -1.
    8880022    1    1    2    0    0 -0.25927402781E+03  0.92441024478E+01  0.15802152869E+03  0.34010429499E+03  0.15294330000E+03 0.  0.
<mgrwt>
<rscale>  0 0.57171385E+03</rscale>
<asrwt>0</asrwt>
<pdfrwt beam="1">  1        2 0.35821182E+00 0.70789737E+03</pdfrwt>
<pdfrwt beam="2">  1       -2 0.46931993E-01 0.70789737E+03</pdfrwt>
<totfact> 0.19708372E+01</totfact>
</mgrwt>
</event>
<event>
 4    1  0.6502538E-008  0.1223705E+04  0.7818608E-02  0.9134417E-01
         -2   -1    0    0    0  501 -0.00000000000E+00  0.00000000000E+00  0.95968279654E+03  0.95968279655E+03  0.25500000000E-02 0.  1.
          2   -1    0    0  501    0  0.00000000000E+00 -0.00000000000E+00 -0.17204589739E+04  0.17204589739E+04  0.25500000000E-02 0. -1.
    8880023    1    1    2    0    0 -0.10225431506E+04  0.13434866455E+03 -0.10342909173E+04  0.16022521544E+04  0.65864270000E+03 0.  0.
    8880022    1    1    2    0    0  0.10225431506E+04 -0.13434866455E+03  0.27351473990E+03  0.10778896161E+04  0.15294330000E+03 0.  0.
<mgrwt>
<rscale>  0 0.11756771E+04</rscale>
<asrwt>0</asrwt>
<pdfrwt beam="1">  1        2 0.26468599E+00 0.12237051E+04</pdfrwt>
<pdfrwt beam="2">  1       -2 0.14764351E+00 0.12237051E+04</pdfrwt>
<totfact> 0.28954031E+00</totfact>
</mgrwt>
</event>
<event>
 4    1  0.6502538E-008  0.6962688E+03  0.7818608E-02  0.1001305E+00
          2   -1    0    0  501    0  0.00000000000E+00  0.00000000000E+00  0.22213036779E+04  0.22213036779E+04  0.25500000000E-02 0. -1.
         -2   -1    0    0    0  501 -0.00000000000E+00 -0.00000000000E+00 -0.14529368903E+03  0.14529368905E+03  0.25500000000E-02 0.  1.
    8880023    1    1    2    0    0 -0.14510395586E+03  0.17298817436E+03  0.19413859322E+04  0.20624668750E+04  0.65864270000E+03 0.  0.
    8880022    1    1    2    0    0  0.14510395586E+03 -0.17298817436E+03  0.13462405664E+03  0.30413049192E+03  0.15294330000E+03 0.  0.
<mgrwt>
<rscale>  0 0.55081872E+03</rscale>
<asrwt>0</asrwt>
<pdfrwt beam="1">  1        2 0.34173901E+00 0.69626882E+03</pdfrwt>
<pdfrwt beam="2">  1       -2 0.22352876E-01 0.69626882E+03</pdfrwt>
<totfact> 0.91383519E+01</totfact>
</mgrwt>
</event>
<event>
 4    1  0.6502538E-008  0.7402991E+03  0.7818608E-02  0.9859077E-01
          2   -1    0    0  501    0  0.00000000000E+00  0.00000000000E+00  0.18917174175E+04  0.18917174175E+04  0.25500000000E-02 0. -1.
         -2   -1    0    0    0  501 -0.00000000000E+00 -0.00000000000E+00 -0.43215618009E+03  0.43215618010E+03  0.25500000000E-02 0.  1.
    8880023    1    1    2    0    0 -0.33766778762E+03 -0.14594030827E+02  0.17186965266E+04  0.18713525796E+04  0.65864270000E+03 0. -1.
    8880022    1    1    2    0    0  0.33766778762E+03  0.14594030827E+02 -0.25913528922E+03  0.45252101792E+03  0.15294330000E+03 0.  0.
<mgrwt>
<rscale>  0 0.62286259E+03</rscale>
<asrwt>0</asrwt>
<pdfrwt beam="1">  1        2 0.29103345E+00 0.74029908E+03</pdfrwt>
<pdfrwt beam="2">  1       -2 0.66485566E-01 0.74029908E+03</pdfrwt>
<totfact> 0.16491489E+01</totfact>
</mgrwt>
</event>
<event>
 4    1  0.6502538E-008  0.8785217E+03  0.7818608E-02  0.9561430E-01
         -2   -1    0    0    0  501 -0.00000000000E+00  0.00000000000E+00  0.28784219312E+03  0.28784219313E+03  0.25500000000E-02 0.  1.
          2   -1    0    0  501    0  0.00000000000E+00 -0.00000000000E+00 -0.22707634778E+04  0.22707634778E+04  0.25500000000E-02 0. -1.
    8880023    1    1    2    0    0 -0.58136816390E+03 -0.11361530226E+01 -0.16552789396E+04  0.18739660635E+04  0.65864270000E+03 0.  0.
    8880022    1    1    2    0    0  0.58136816390E+03  0.11361530226E+01 -0.32764234509E+03  0.68463960750E+03  0.15294330000E+03 0.  0.
<mgrwt>
<rscale>  0 0.79902466E+03</rscale>
<asrwt>0</asrwt>
<pdfrwt beam="1">  1        2 0.34934821E+00 0.87852174E+03</pdfrwt>
<pdfrwt beam="2">  1       -2 0.44283416E-01 0.87852174E+03</pdfrwt>
<totfact> 0.23278441E+01</totfact>
</mgrwt>
</event>
<event>
 4    1  0.6502538E-008  0.7682392E+03  0.7818608E-02  0.9784226E-01
          2   -1    0    0  501    0  0.00000000000E+00  0.00000000000E+00  0.89296163337E+03  0.89296163338E+03  0.25500000000E-02 0. -1.
         -2   -1    0    0    0  501 -0.00000000000E+00 -0.00000000000E+00 -0.81733050958E+03  0.81733050959E+03  0.25500000000E-02 0.  1.
    8880023    1    1    2    0    0 -0.28744410528E+03 -0.27158259639E+03  0.64312449367E+03  0.10018984684E+04  0.65864270000E+03 0.  0.
    8880022    1    1    2    0    0  0.28744410528E+03  0.27158259639E+03 -0.56749336987E+03  0.70839367458E+03  0.15294330000E+03 0.  0.
<mgrwt>
<rscale>  0 0.66215987E+03</rscale>
<asrwt>0</asrwt>
<pdfrwt beam="1">  1        2 0.13737871E+00 0.76823917E+03</pdfrwt>
<pdfrwt beam="2">  1       -2 0.12574316E+00 0.76823917E+03</pdfrwt>
<totfact> 0.14199047E+01</totfact>
</mgrwt>
</event>
<event>
 4    1  0.6502538E-008  0.1339529E+04  0.7818608E-02  0.9032154E-01
          2   -1    0    0  501    0  0.00000000000E+00  0.00000000000E+00  0.28857445417E+04  0.28857445417E+04  0.25500000000E-02 0. -1.
         -2   -1    0    0    0  501 -0.00000000000E+00 -0.00000000000E+00 -0.10877737972E+04  0.10877737972E+04  0.25500000000E-02 0.  1.
    8880023    1    1    2    0    0  0.11508984478E+04  0.18963377333E+03  0.23259265954E+04  0.26840776700E+04  0.65864270000E+03 0.  0.
    8880022    1    1    2    0    0 -0.11508984478E+04 -0.18963377333E+03 -0.52795585087E+03  0.12894406689E+04  0.15294330000E+03 0.  0.
<mgrwt>
<rscale>  0 0.12967403E+04</rscale>
<asrwt>0</asrwt>
<pdfrwt beam="1">  1        2 0.44396070E+00 0.13395292E+04</pdfrwt>
<pdfrwt beam="2">  1       -2 0.16734982E+00 0.13395292E+04</pdfrwt>
<totfact> 0.43970099E-01</totfact>
</mgrwt>
</event>
<event>
 4    1  0.6502538E-008  0.7690192E+03  0.7818608E-02  0.9782293E-01
         -2   -1    0    0    0  501 -0.00000000000E+00  0.00000000000E+00  0.17018353903E+04  0.17018353903E+04  0.25500000000E-02 0.  1.
          2   -1    0    0  501    0  0.00000000000E+00 -0.00000000000E+00 -0.91265750990E+03  0.91265750990E+03  0.25500000000E-02 0. -1.
    8880023    1    1    2    0    0  0.16098109000E+03 -0.36285733391E+03 -0.71576708942E+03  0.10505775025E+04  0.65864270000E+03 0.  0.
    8880022    1    1    2    0    0 -0.16098109000E+03  0.36285733391E+03  0.15049449698E+04  0.15639153977E+04  0.15294330000E+03 0.  0.
<mgrwt>
<rscale>  0 0.66321497E+03</rscale>
<asrwt>0</asrwt>
<pdfrwt beam="1">  1        2 0.14040885E+00 0.76901922E+03</pdfrwt>
<pdfrwt beam="2">  1       -2 0.26182083E+00 0.76901922E+03</pdfrwt>
<totfact> 0.16141247E+00</totfact>
</mgrwt>
</event>
<event>
 4    1  0.6502538E-008  0.1147834E+04  0.7818608E-02  0.9209579E-01
          2   -1    0    0  501    0  0.00000000000E+00  0.00000000000E+00  0.29255371058E+04  0.29255371058E+04  0.25500000000E-02 0. -1.
         -2   -1    0    0    0  501 -0.00000000000E+00 -0.00000000000E+00 -0.92505773097E+03  0.92505773097E+03  0.25500000000E-02 0.  1.
    8880023    1    1    2    0    0 -0.82688944629E+03 -0.44717520983E+03  0.25175466487E+04  0.27668688366E+04  0.65864270000E+03 0.  0.
    8880022    1    1    2    0    0  0.82688944629E+03  0.44717520983E+03 -0.51706727384E+03  0.10837260001E+04  0.15294330000E+03 0.  0.
<mgrwt>
<rscale>  0 0.10955099E+04</rscale>
<asrwt>0</asrwt>
<pdfrwt beam="1">  1        2 0.45008263E+00 0.11478336E+04</pdfrwt>
<pdfrwt beam="2">  1       -2 0.14231658E+00 0.11478336E+04</pdfrwt>
<totfact> 0.66119523E-01</totfact>
</mgrwt>
</event>
<event>
 4    1  0.6502538E-008  0.8806330E+03  0.7818608E-02  0.9557866E-01
         -2   -1    0    0    0  501 -0.00000000000E+00  0.00000000000E+00  0.86733641285E+03  0.86733641286E+03  0.25500000000E-02 0.  1.
          2   -1    0    0  501    0  0.00000000000E+00 -0.00000000000E+00 -0.68348485050E+03  0.68348485051E+03  0.25500000000E-02 0. -1.
    8880023    1    1    2    0    0  0.19620306192E+03  0.55064387935E+03 -0.94250113842E+02  0.88566224577E+03  0.65864270000E+03 0. -1.
    8880022    1    1    2    0    0 -0.19620306192E+03 -0.55064387935E+03  0.27810167619E+03  0.66515901759E+03  0.15294330000E+03 0.  1.
<mgrwt>
<rscale>  0 0.80148815E+03</rscale>
<asrwt>0</asrwt>
<pdfrwt beam="1">  1        2 0.10515152E+00 0.88063303E+03</pdfrwt>
<pdfrwt beam="2">  1       -2 0.13343637E+00 0.88063303E+03</pdfrwt>
<totfact> 0.17204619E+01</totfact>
</mgrwt>
</event>
<event>
 4    1  0.2255606E-007  0.1267302E+04  0.7818608E-02  0.9094323E-01
          2   -1    0    0  501    0  0.00000000000E+00  0.00000000000E+00  0.30412397267E+04  0.30412397267E+04  0.25500000000E-02 0. -1.
         -2   -1    0    0    0  501 -0.00000000000E+00 -0.00000000000E+00 -0.23000163855E+04  0.23000163855E+04  0.25500000000E-02 0.  1.
    8880023    1    1    2    0    0  0.71853246462E+03  0.80991139962E+03  0.27646532824E+04  0.30412765997E+04  0.65864270000E+03 0.  0.
    8880022    1    1    2    0    0 -0.71853246462E+03 -0.80991139962E+03 -0.20234299412E+04  0.22999795125E+04  0.15294330000E+03 0.  0.
<mgrwt>
<rscale>  0 0.12214062E+04</rscale>
<asrwt>0</asrwt>
<pdfrwt beam="1">  1        2 0.46788303E+00 0.12673025E+04</pdfrwt>
<pdfrwt beam="2">  1       -2 0.35384868E+00 0.12673025E+04</pdfrwt>
<totfact> 0.23673487E-02</totfact>
</mgrwt>
</event>
<event>
 4    1  0.6502538E-008  0.1398205E+04  0.7818608E-02  0.8985079E-01
         -2   -1    0    0    0  501 -0.00000000000E+00  0.00000000000E+00  0.91485127311E+03  0.91485127312E+03  0.25500000000E-02 0.  1.
          2   -1    0    0  501    0  0.00000000000E+00 -0.00000000000E+00 -0.37636889612E+04  0.37636889612E+04  0.25500000000E-02 0. -1.
    8880023    1    1    2    0    0 -0.49314911116E+03  0.11304731838E+04 -0.31088761018E+04  0.34088247957E+04  0.65864270000E+03 0.  0.
    8880022    1    1    2    0    0  0.49314911116E+03 -0.11304731838E+04  0.26003841378E+03  0.12697154385E+04  0.15294330000E+03 0.  0.
<mgrwt>
<rscale>  0 0.13576209E+04</rscale>
<asrwt>0</asrwt>
<pdfrwt beam="1">  1        2 0.57902906E+00 0.13982045E+04</pdfrwt>
<pdfrwt beam="2">  1       -2 0.14074635E+00 0.13982045E+04</pdfrwt>
<totfact> 0.18012786E-01</totfact>
</mgrwt>
</event>
<event>
 4    1  0.6502538E-008  0.9096452E+03  0.7818608E-02  0.9510722E-01
          2   -1    0    0  501    0  0.00000000000E+00  0.00000000000E+00  0.12440516287E+04  0.12440516287E+04  0.25500000000E-02 0. -1.
         -2   -1    0    0    0  501 -0.00000000000E+00 -0.00000000000E+00 -0.13115625727E+04  0.13115625727E+04  0.25500000000E-02 0.  1.
    8880023    1    1    2    0    0  0.19647838764E+03 -0.59585264594E+03  0.97237185988E+03  0.13315259564E+04  0.65864270000E+03 0.  0.
    8880022    1    1    2    0    0 -0.19647838764E+03  0.59585264594E+03 -0.10398828039E+04  0.12240882449E+04  0.15294330000E+03 0.  0.
<mgrwt>
<rscale>  0 0.83497924E+03</rscale>
<asrwt>0</asrwt>
<pdfrwt beam="1">  1        2 0.19139256E+00 0.90964517E+03</pdfrwt>
<pdfrwt beam="2">  1       -2 0.20177886E+00 0.90964517E+03</pdfrwt>
<totfact> 0.23179714E+00</totfact>
</mgrwt>
</event>
<event>
 4    1  0.6502538E-008  0.7359247E+03  0.7818608E-02  0.9871981E-01
         -2   -1    0    0    0  501 -0.00000000000E+00  0.00000000000E+00  0.90206938698E+03  0.90206938698E+03  0.25500000000E-02 0.  1.
          2   -1    0    0  501    0  0.00000000000E+00 -0.00000000000E+00 -0.83218197259E+03  0.83218197259E+03  0.25500000000E-02 0. -1.
    8880023    1    1    2    0    0  0.27285391369E+03 -0.18255323951E+03 -0.61528461807E+03  0.95924986889E+03  0.65864270000E+03 0. -1.
    8880022    1    1    2    0    0 -0.27285391369E+03  0.18255323951E+03  0.68517203246E+03  0.77500149068E+03  0.15294330000E+03 0.  0.
<mgrwt>
<rscale>  0 0.61638624E+03</rscale>
<asrwt>0</asrwt>
<pdfrwt beam="1">  1        2 0.12802800E+00 0.73592469E+03</pdfrwt>
<pdfrwt beam="2">  1       -2 0.13877991E+00 0.73592469E+03</pdfrwt>
<totfact> 0.12211162E+01</totfact>
</mgrwt>
</event>
<event>
 4    1  0.6502538E-008  0.7587919E+03  0.7818608E-02  0.9808245E-01
         -2   -1    0    0    0  501 -0.00000000000E+00  0.00000000000E+00  0.57582635196E+03  0.57582635196E+03  0.25500000000E-02 0.  1.
          2   -1    0    0  501    0  0.00000000000E+00 -0.00000000000E+00 -0.12550558255E+04  0.12550558255E+04  0.25500000000E-02 0. -1.
    8880023    1    1    2    0    0  0.32037320727E+03  0.19828245155E+03 -0.10399281870E+04  0.12873289257E+04  0.65864270000E+03 0. -1.
    8880022    1    1    2    0    0 -0.32037320727E+03 -0.19828245155E+03  0.36069871350E+03  0.54355325173E+03  0.15294330000E+03 0.  0.
<mgrwt>
<rscale>  0 0.64921928E+03</rscale>
<asrwt>0</asrwt>
<pdfrwt beam="1">  1        2 0.19308551E+00 0.75879189E+03</pdfrwt>
<pdfrwt beam="2">  1       -2 0.88588670E-01 0.75879189E+03</pdfrwt>
<totfact> 0.19617811E+01</totfact>
</mgrwt>
</event>
<event>
 4    1  0.6502538E-008  0.8806478E+03  0.7818608E-02  0.9557841E-01
         -2   -1    0    0    0  501 -0.00000000000E+00  0.00000000000E+00  0.90027611631E+03  0.90027611632E+03  0.25500000000E-02 0.  1.
          2   -1    0    0  501    0  0.00000000000E+00 -0.00000000000E+00 -0.67857619236E+03  0.67857619237E+03  0.25500000000E-02 0. -1.
    8880023    1    1    2    0    0  0.13462876834E+03 -0.56886323284E+03 -0.11337049597E+03  0.88791517532E+03  0.65864270000E+03 0.  0.
    8880022    1    1    2    0    0 -0.13462876834E+03  0.56886323284E+03  0.33507041992E+03  0.69093713336E+03  0.15294330000E+03 0.  0.
<mgrwt>
<rscale>  0 0.80150534E+03</rscale>
<asrwt>0</asrwt>
<pdfrwt beam="1">  1        2 0.10439634E+00 0.88064777E+03</pdfrwt>
<pdfrwt beam="2">  1       -2 0.13850402E+00 0.88064777E+03</pdfrwt>
<totfact> 0.15775917E+01</totfact>
</mgrwt>
</event>
<event>
 4    1  0.6502538E-008  0.8424961E+03  0.7818608E-02  0.9625491E-01
         -2   -1    0    0    0  501 -0.00000000000E+00  0.00000000000E+00  0.76667228108E+03  0.76667228108E+03  0.25500000000E-02 0.  1.
          2   -1    0    0  501    0  0.00000000000E+00 -0.00000000000E+00 -0.19067062636E+04  0.19067062636E+04  0.25500000000E-02 0. -1.
    8880023    1    1    2    0    0  0.50226481924E+03 -0.15401146974E+03 -0.16957494479E+04  0.18935062392E+04  0.65864270000E+03 0.  0.
    8880022    1    1    2    0    0 -0.50226481924E+03  0.15401146974E+03  0.55571546537E+03  0.77987230552E+03  0.15294330000E+03 0.  0.
<mgrwt>
<rscale>  0 0.75631721E+03</rscale>
<asrwt>0</asrwt>
<pdfrwt beam="1">  1        2 0.29333942E+00 0.84249611E+03</pdfrwt>
<pdfrwt beam="2">  1       -2 0.11794958E+00 0.84249611E+03</pdfrwt>
<totfact> 0.42523885E+00</totfact>
</mgrwt>
</event>
<event>
 4    1  0.7681897E-008  0.1354475E+04  0.7818608E-02  0.9019890E-01
          2   -1    0    0  501    0  0.00000000000E+00  0.00000000000E+00  0.27341584811E+04  0.27341584811E+04  0.25500000000E-02 0. -1.
         -2   -1    0    0    0  501 -0.00000000000E+00 -0.00000000000E+00 -0.13825279540E+04  0.13825279540E+04  0.25500000000E-02 0.  1.
    8880023    1    1    2    0    0 -0.88064804184E+03 -0.79072751008E+03  0.22477470232E+04  0.26243033086E+04  0.65864270000E+03 0.  0.
    8880022    1    1    2    0    0  0.88064804184E+03  0.79072751008E+03 -0.89611649607E+03  0.14923831265E+04  0.15294330000E+03 0.  0.
<mgrwt>
<rscale>  0 0.13122719E+04</rscale>
<asrwt>0</asrwt>
<pdfrwt beam="1">  1        2 0.42063977E+00 0.13544745E+04</pdfrwt>
<pdfrwt beam="2">  1       -2 0.21269661E+00 0.13544745E+04</pdfrwt>
<totfact> 0.26692193E-01</totfact>
</mgrwt>
</event>
<event>
 4    1  0.6502538E-008  0.7249801E+03  0.7818608E-02  0.9906082E-01
         -2   -1    0    0    0  501 -0.00000000000E+00  0.00000000000E+00  0.16246674987E+03  0.16246674989E+03  0.25500000000E-02 0.  1.
          2   -1    0    0  501    0  0.00000000000E+00 -0.00000000000E+00 -0.31851190307E+04  0.31851190307E+04  0.25500000000E-02 0. -1.
    8880023    1    1    2    0    0 -0.26880952329E+03  0.13974052617E+03 -0.28959655038E+04  0.29853328759E+04  0.65864270000E+03 0. -1.
    8880022    1    1    2    0    0  0.26880952329E+03 -0.13974052617E+03 -0.12668677702E+03  0.36225290469E+03  0.15294330000E+03 0.  0.
<mgrwt>
<rscale>  0 0.59967451E+03</rscale>
<asrwt>0</asrwt>
<pdfrwt beam="1">  1        2 0.49001826E+00 0.72498012E+03</pdfrwt>
<pdfrwt beam="2">  1       -2 0.24994887E-01 0.72498012E+03</pdfrwt>
<totfact> 0.20339338E+01</totfact>
</mgrwt>
</event>
<event>
 4    1  0.6502538E-008  0.1428349E+04  0.7818608E-02  0.8961962E-01
         -2   -1    0    0    0  501 -0.00000000000E+00  0.00000000000E+00  0.13080435953E+04  0.13080435953E+04  0.25500000000E-02 0.  1.
          2   -1    0    0  501    0  0.00000000000E+00 -0.00000000000E+00 -0.22414927021E+04  0.22414927021E+04  0.25500000000E-02 0. -1.
    8880023    1    1    2    0    0  0.12120471098E+04 -0.37055576598E+03 -0.15704209048E+04  0.21228287252E+04  0.65864270000E+03 0.  0.
    8880022    1    1    2    0    0 -0.12120471098E+04  0.37055576598E+03  0.63697179799E+03  0.14267075722E+04  0.15294330000E+03 0.  0.
<mgrwt>
<rscale>  0 0.13888047E+04</rscale>
<asrwt>0</asrwt>
<pdfrwt beam="1">  1        2 0.34484503E+00 0.14283487E+04</pdfrwt>
<pdfrwt beam="2">  1       -2 0.20123748E+00 0.14283487E+04</pdfrwt>
<totfact> 0.60451200E-01</totfact>
</mgrwt>
</event>
<event>
 4    1  0.6502538E-008  0.6840848E+03  0.7818608E-02  0.1007101E+00
          2   -1    0    0  501    0  0.00000000000E+00  0.00000000000E+00  0.66122191386E+03  0.66122191387E+03  0.25500000000E-02 0. -1.
         -2   -1    0    0    0  501 -0.00000000000E+00 -0.00000000000E+00 -0.56285462151E+03  0.56285462152E+03  0.25500000000E-02 0.  1.
    8880023    1    1    2    0    0  0.25118513139E+02 -0.18311423309E+03  0.43502175426E+03  0.81068853144E+03  0.65864270000E+03 0. -1.
    8880022    1    1    2    0    0 -0.25118513139E+02  0.18311423309E+03 -0.33665446191E+03  0.41338800394E+03  0.15294330000E+03 0.  0.
<mgrwt>
<rscale>  0 0.52643084E+03</rscale>
<asrwt>0</asrwt>
<pdfrwt beam="1">  1        2 0.10172645E+00 0.68408477E+03</pdfrwt>
<pdfrwt beam="2">  1       -2 0.86593019E-01 0.68408477E+03</pdfrwt>
<totfact> 0.51734724E+01</totfact>
</mgrwt>
</event>
<event>
 4    1  0.6502538E-008  0.7930891E+03  0.7818608E-02  0.9725943E-01
          2   -1    0    0  501    0  0.00000000000E+00  0.00000000000E+00  0.15341412554E+04  0.15341412554E+04  0.25500000000E-02 0. -1.
         -2   -1    0    0    0  501 -0.00000000000E+00 -0.00000000000E+00 -0.77818447698E+03  0.77818447699E+03  0.25500000000E-02 0.  1.
    8880023    1    1    2    0    0  0.30255074861E+03 -0.32193654073E+03  0.13443218637E+04  0.15608304108E+04  0.65864270000E+03 0. -1.
    8880022    1    1    2    0    0 -0.30255074861E+03  0.32193654073E+03 -0.58836508530E+03  0.75149532159E+03  0.15294330000E+03 0.  0.
<mgrwt>
<rscale>  0 0.69492947E+03</rscale>
<asrwt>0</asrwt>
<pdfrwt beam="1">  1        2 0.23602173E+00 0.79308909E+03</pdfrwt>
<pdfrwt beam="2">  1       -2 0.11972069E+00 0.79308909E+03</pdfrwt>
<totfact> 0.66122307E+00</totfact>
</mgrwt>
</event>
<event>
 4    1  0.6502538E-008  0.8074766E+03  0.7818608E-02  0.9694857E-01
          2   -1    0    0  501    0  0.00000000000E+00  0.00000000000E+00  0.12126808433E+04  0.12126808433E+04  0.25500000000E-02 0. -1.
         -2   -1    0    0    0  501 -0.00000000000E+00 -0.00000000000E+00 -0.56098144749E+03  0.56098144750E+03  0.25500000000E-02 0.  1.
    8880023    1    1    2    0    0  0.32729292184E+03 -0.33329801099E+03  0.91147902201E+03  0.12177078610E+04  0.65864270000E+03 0.  0.
    8880022    1    1    2    0    0 -0.32729292184E+03  0.33329801099E+03 -0.25977962622E+03  0.55595442982E+03  0.15294330000E+03 0.  0.
<mgrwt>
<rscale>  0 0.71323811E+03</rscale>
<asrwt>0</asrwt>
<pdfrwt beam="1">  1        2 0.18656628E+00 0.80747658E+03</pdfrwt>
<pdfrwt beam="2">  1       -2 0.86304838E-01 0.80747658E+03</pdfrwt>
<totfact> 0.21942005E+01</totfact>
</mgrwt>
</event>
<event>
 4    1  0.6502538E-008  0.1870509E+04  0.7818608E-02  0.8684505E-01
          2   -1    0    0  501    0  0.00000000000E+00  0.00000000000E+00  0.30716063120E+04  0.30716063120E+04  0.25500000000E-02 0. -1.
         -2   -1    0    0    0  501 -0.00000000000E+00 -0.00000000000E+00 -0.14780273351E+04  0.14780273351E+04  0.25500000000E-02 0.  1.
    8880023    1    1    2    0    0 -0.16491957843E+04 -0.58749086363E+03  0.20078008493E+04  0.27440967014E+04  0.65864270000E+03 0.  0.
    8880022    1    1    2    0    0  0.16491957843E+04  0.58749086363E+03 -0.41422187239E+03  0.18055369458E+04  0.15294330000E+03 0.  0.
<mgrwt>
<rscale>  0 0.18415614E+04</rscale>
<asrwt>0</asrwt>
<pdfrwt beam="1">  1        2 0.47255481E+00 0.18705086E+04</pdfrwt>
<pdfrwt beam="2">  1       -2 0.22738882E+00 0.18705086E+04</pdfrwt>
<totfact> 0.12562488E-01</totfact>
</mgrwt>
</event>
<event>
 4    1  0.6502538E-008  0.9312067E+03  0.7818608E-02  0.9477685E-01
          2   -1    0    0  501    0  0.00000000000E+00  0.00000000000E+00  0.12437495944E+04  0.12437495944E+04  0.25500000000E-02 0. -1.
         -2   -1    0    0    0  501 -0.00000000000E+00 -0.00000000000E+00 -0.85526490528E+03  0.85526490528E+03  0.25500000000E-02 0.  1.
    8880023    1    1    2    0    0 -0.63257533394E+03  0.18216501233E+03  0.86589362937E+03  0.12715807597E+04  0.65864270000E+03 0. -1.
    8880022    1    1    2    0    0  0.63257533394E+03 -0.18216501233E+03 -0.47740894023E+03  0.82743373998E+03  0.15294330000E+03 0.  0.
<mgrwt>
<rscale>  0 0.85949168E+03</rscale>
<asrwt>0</asrwt>
<pdfrwt beam="1">  1        2 0.19134609E+00 0.93120666E+03</pdfrwt>
<pdfrwt beam="2">  1       -2 0.13157922E+00 0.93120666E+03</pdfrwt>
<totfact> 0.75074709E+00</totfact>
</mgrwt>
</event>
<event>
 4    1  0.6502538E-008  0.7013598E+03  0.7818608E-02  0.9991606E-01
         -2   -1    0    0    0  501 -0.00000000000E+00  0.00000000000E+00  0.34289907505E+03  0.34289907506E+03  0.25500000000E-02 0.  1.
          2   -1    0    0  501    0  0.00000000000E+00 -0.00000000000E+00 -0.30946342830E+04  0.30946342830E+04  0.25500000000E-02 0. -1.
    8880023    1    1    2    0    0  0.13852650474E+03  0.19724560895E+03 -0.29866163597E+04  0.30678629221E+04  0.65864270000E+03 0. -1.
    8880022    1    1    2    0    0 -0.13852650474E+03 -0.19724560895E+03  0.23488115171E+03  0.36967043595E+03  0.15294330000E+03 0.  0.
<mgrwt>
<rscale>  0 0.56019827E+03</rscale>
<asrwt>0</asrwt>
<pdfrwt beam="1">  1        2 0.47609756E+00 0.70135984E+03</pdfrwt>
<pdfrwt beam="2">  1       -2 0.52753706E-01 0.70135984E+03</pdfrwt>
<totfact> 0.55498119E+00</totfact>
</mgrwt>
</event>
<event>
 4    1  0.6502538E-008  0.8387893E+03  0.7818608E-02  0.9632467E-01
          2   -1    0    0  501    0  0.00000000000E+00  0.00000000000E+00  0.25100339892E+04  0.25100339892E+04  0.25500000000E-02 0. -1.
         -2   -1    0    0    0  501 -0.00000000000E+00 -0.00000000000E+00 -0.43622813963E+03  0.43622813963E+03  0.25500000000E-02 0.  1.
    8880023    1    1    2    0    0 -0.51093978787E+03  0.93261801160E+02  0.22301784777E+04  0.23827008791E+04  0.65864270000E+03 0. -1.
    8880022    1    1    2    0    0  0.51093978787E+03 -0.93261801160E+02 -0.15637262815E+03  0.56356124976E+03  0.15294330000E+03 0.  0.
<mgrwt>
<rscale>  0 0.75184044E+03</rscale>
<asrwt>0</asrwt>
<pdfrwt beam="1">  1        2 0.38615908E+00 0.83878927E+03</pdfrwt>
<pdfrwt beam="2">  1       -2 0.67112020E-01 0.83878927E+03</pdfrwt>
<totfact> 0.72396688E+00</totfact>
</mgrwt>
</event>
<event>
 4    1  0.6502538E-008  0.1092859E+04  0.7818608E-02  0.9269048E-01
         -2   -1    0    0    0  501 -0.00000000000E+00  0.00000000000E+00  0.54888631066E+03  0.54888631067E+03  0.25500000000E-02 0.  1.
          2   -1    0    0  501    0  0.00000000000E+00 -0.00000000000E+00 -0.23861760196E+04  0.23861760196E+04  0.25500000000E-02 0. -1.
    8880023    1    1    2    0    0 -0.86508843211E+03  0.11024140025E+03 -0.17257318558E+04  0.20426678159E+04  0.65864270000E+03 0. -1.
    8880022    1    1    2    0    0  0.86508843211E+03 -0.11024140025E+03 -0.11155785315E+03  0.89239451439E+03  0.15294330000E+03 0.  0.
<mgrwt>
<rscale>  0 0.10368295E+04</rscale>
<asrwt>0</asrwt>
<pdfrwt beam="1">  1        2 0.36710400E+00 0.10928593E+04</pdfrwt>
<pdfrwt beam="2">  1       -2 0.84444050E-01 0.10928593E+04</pdfrwt>
<totfact> 0.49333003E+00</totfact>
</mgrwt>
</event>
<event>
 4    1  0.6502538E-008  0.1091347E+04  0.7818608E-02  0.9270752E-01
         -2   -1    0    0    0  501 -0.00000000000E+00  0.00000000000E+00  0.12308922124E+04  0.12308922124E+04  0.25500000000E-02 0.  1.
          2   -1    0    0  501    0  0.00000000000E+00 -0.00000000000E+00 -0.12399974398E+04  0.12399974398E+04  0.25500000000E-02 0. -1.
    8880023    1    1    2    0    0  0.96498612387E+02  0.86482103791E+03 -0.74470986709E+03  0.13212230706E+04  0.65864270000E+03 0. -1.
    8880022    1    1    2    0    0 -0.96498612387E+02 -0.86482103791E+03  0.73560463973E+03  0.11496665816E+04  0.15294330000E+03 0.  0.
<mgrwt>
<rscale>  0 0.10352064E+04</rscale>
<asrwt>0</asrwt>
<pdfrwt beam="1">  1        2 0.19076884E+00 0.10913467E+04</pdfrwt>
<pdfrwt beam="2">  1       -2 0.18936803E+00 0.10913467E+04</pdfrwt>
<totfact> 0.27553029E+00</totfact>
</mgrwt>
</event>
<event>
 4    1  0.6502538E-008  0.6876817E+03  0.7818608E-02  0.1005274E+00
         -2   -1    0    0    0  501 -0.00000000000E+00  0.00000000000E+00  0.13575946063E+04  0.13575946063E+04  0.25500000000E-02 0.  1.
          2   -1    0    0  501    0  0.00000000000E+00 -0.00000000000E+00 -0.18134710390E+04  0.18134710390E+04  0.25500000000E-02 0. -1.
    8880023    1    1    2    0    0  0.16423282327E+03 -0.11010645707E+03 -0.17357483626E+04  0.18670105614E+04  0.65864270000E+03 0.  0.
    8880022    1    1    2    0    0 -0.16423282327E+03  0.11010645707E+03  0.12798719299E+04  0.13040550840E+04  0.15294330000E+03 0.  0.
<mgrwt>
<rscale>  0 0.53396738E+03</rscale>
<asrwt>0</asrwt>
<pdfrwt beam="1">  1        2 0.27899554E+00 0.68768165E+03</pdfrwt>
<pdfrwt beam="2">  1       -2 0.20886071E+00 0.68768165E+03</pdfrwt>
<totfact> 0.10415062E+00</totfact>
</mgrwt>
</event>
<event>
 4    1  0.6502538E-008  0.1180671E+04  0.7818608E-02  0.9176144E-01
          2   -1    0    0  501    0  0.00000000000E+00  0.00000000000E+00  0.24738040627E+04  0.24738040627E+04  0.25500000000E-02 0. -1.
         -2   -1    0    0    0  501 -0.00000000000E+00 -0.00000000000E+00 -0.10500017859E+04  0.10500017859E+04  0.25500000000E-02 0.  1.
    8880023    1    1    2    0    0  0.44113648440E+03  0.87496971780E+03  0.20394171212E+04  0.23565240940E+04  0.65864270000E+03 0.  0.
    8880022    1    1    2    0    0 -0.44113648440E+03 -0.87496971780E+03 -0.61561484450E+03  0.11672817546E+04  0.15294330000E+03 0.  0.
<mgrwt>
<rscale>  0 0.11303085E+04</rscale>
<asrwt>0</asrwt>
<pdfrwt beam="1">  1        2 0.38058524E+00 0.11806708E+04</pdfrwt>
<pdfrwt beam="2">  1       -2 0.16153874E+00 0.11806708E+04</pdfrwt>
<totfact> 0.86619588E-01</totfact>
</mgrwt>
</event>
<event>
 4    1  0.6502538E-008  0.7589102E+03  0.7818608E-02  0.9807937E-01
          2   -1    0    0  501    0  0.00000000000E+00  0.00000000000E+00  0.20891467237E+04  0.20891467237E+04  0.25500000000E-02 0. -1.
         -2   -1    0    0    0  501 -0.00000000000E+00 -0.00000000000E+00 -0.12452530423E+04  0.12452530423E+04  0.25500000000E-02 0.  1.
    8880023    1    1    2    0    0  0.22071805565E+03  0.30564371955E+03  0.19838302167E+04  0.21240355643E+04  0.65864270000E+03 0. -1.
    8880022    1    1    2    0    0 -0.22071805565E+03 -0.30564371955E+03 -0.11399365353E+04  0.12103642017E+04  0.15294330000E+03 0.  0.
<mgrwt>
<rscale>  0 0.64938335E+03</rscale>
<asrwt>0</asrwt>
<pdfrwt beam="1">  1        2 0.32140718E+00 0.75891024E+03</pdfrwt>
<pdfrwt beam="2">  1       -2 0.19157739E+00 0.75891024E+03</pdfrwt>
<totfact> 0.94010026E-01</totfact>
</mgrwt>
</event>
<event>
 4    1  0.6502538E-008  0.1283308E+04  0.7818608E-02  0.9080110E-01
         -2   -1    0    0    0  501 -0.00000000000E+00  0.00000000000E+00  0.91717825311E+03  0.91717825311E+03  0.25500000000E-02 0.  1.
          2   -1    0    0  501    0  0.00000000000E+00 -0.00000000000E+00 -0.18460973415E+04  0.18460973415E+04  0.25500000000E-02 0. -1.
    8880023    1    1    2    0    0 -0.10756477084E+04  0.23674960821E+03  0.46456537978E+02  0.12841482725E+04  0.65864270000E+03 0.  0.
    8880022    1    1    2    0    0  0.10756477084E+04 -0.23674960821E+03 -0.97537562640E+03  0.14791273222E+04  0.15294330000E+03 0.  0.
<mgrwt>
<rscale>  0 0.12381424E+04</rscale>
<asrwt>0</asrwt>
<pdfrwt beam="1">  1        2 0.28401498E+00 0.12833077E+04</pdfrwt>
<pdfrwt beam="2">  1       -2 0.14110435E+00 0.12833077E+04</pdfrwt>
<totfact> 0.27627366E+00</totfact>
</mgrwt>
</event>
<event>
 4    1  0.6502538E-008  0.8181397E+03  0.7818608E-02  0.9672865E-01
          2   -1    0    0  501    0  0.00000000000E+00  0.00000000000E+00  0.10915732480E+04  0.10915732480E+04  0.25500000000E-02 0. -1.
         -2   -1    0    0    0  501 -0.00000000000E+00 -0.00000000000E+00 -0.58536990194E+03  0.58536990195E+03  0.25500000000E-02 0.  1.
    8880023    1    1    2    0    0  0.48148949144E+03 -0.60912259617E+02  0.75253177572E+03  0.11116009686E+04  0.65864270000E+03 0. -1.
    8880022    1    1    2    0    0 -0.48148949144E+03  0.60912259617E+02 -0.24632842963E+03  0.56534218134E+03  0.15294330000E+03 0.  0.
<mgrwt>
<rscale>  0 0.72655630E+03</rscale>
<asrwt>0</asrwt>
<pdfrwt beam="1">  1        2 0.16793434E+00 0.81813974E+03</pdfrwt>
<pdfrwt beam="2">  1       -2 0.90056909E-01 0.81813974E+03</pdfrwt>
<totfact> 0.23513828E+01</totfact>
</mgrwt>
</event>
<event>
 4    1  0.6502538E-008  0.7155020E+03  0.7818608E-02  0.9938110E-01
          2   -1    0    0  501    0  0.00000000000E+00  0.00000000000E+00  0.13670532221E+04  0.13670532221E+04  0.25500000000E-02 0. -1.
         -2   -1    0    0    0  501 -0.00000000000E+00 -0.00000000000E+00 -0.36852653825E+03  0.36852653825E+03  0.25500000000E-02 0.  1.
    8880023    1    1    2    0    0  0.14901451438E+03 -0.23649026069E+03  0.11717321155E+04  0.13729163579E+04  0.65864270000E+03 0. -1.
    8880022    1    1    2    0    0 -0.14901451438E+03  0.23649026069E+03 -0.17320543170E+03  0.36266340246E+03  0.15294330000E+03 0.  0.
<mgrwt>
<rscale>  0 0.58449336E+03</rscale>
<asrwt>0</asrwt>
<pdfrwt beam="1">  1        2 0.21031588E+00 0.71550204E+03</pdfrwt>
<pdfrwt beam="2">  1       -2 0.56696390E-01 0.71550204E+03</pdfrwt>
<totfact> 0.45157375E+01</totfact>
</mgrwt>
</event>
<event>
 4    1  0.6502538E-008  0.1226653E+04  0.7818608E-02  0.9131639E-01
         -2   -1    0    0    0  501 -0.00000000000E+00  0.00000000000E+00  0.71666567949E+03  0.71666567949E+03  0.25500000000E-02 0.  1.
          2   -1    0    0  501    0  0.00000000000E+00 -0.00000000000E+00 -0.31260555836E+04  0.31260555836E+04  0.25500000000E-02 0. -1.
    8880023    1    1    2    0    0  0.87968361120E+02  0.10310816442E+04 -0.25081094582E+04  0.27920048442E+04  0.65864270000E+03 0.  0.
    8880022    1    1    2    0    0 -0.87968361120E+02 -0.10310816442E+04  0.98719554125E+02  0.10507164189E+04  0.15294330000E+03 0.  0.
<mgrwt>
<rscale>  0 0.11787762E+04</rscale>
<asrwt>0</asrwt>
<pdfrwt beam="1">  1        2 0.48093162E+00 0.12266532E+04</pdfrwt>
<pdfrwt beam="2">  1       -2 0.11025626E+00 0.12266532E+04</pdfrwt>
<totfact> 0.93446805E-01</totfact>
</mgrwt>
</event>
<event>
 4    1  0.6502538E-008  0.1056480E+04  0.7818608E-02  0.9311131E-01
          2   -1    0    0  501    0  0.00000000000E+00  0.00000000000E+00  0.15225902211E+04  0.15225902211E+04  0.25500000000E-02 0. -1.
         -2   -1    0    0    0  501 -0.00000000000E+00 -0.00000000000E+00 -0.76492968669E+03  0.76492968669E+03  0.25500000000E-02 0.  1.
    8880023    1    1    2    0    0 -0.81862787561E+03  0.11040414292E+03  0.95548227037E+03  0.14244638461E+04  0.65864270000E+03 0.  0.
    8880022    1    1    2    0    0  0.81862787561E+03 -0.11040414292E+03 -0.19782173594E+03  0.86305606175E+03  0.15294330000E+03 0.  0.
<mgrwt>
<rscale>  0 0.99764514E+03</rscale>
<asrwt>0</asrwt>
<pdfrwt beam="1">  1        2 0.23424465E+00 0.10564804E+04</pdfrwt>
<pdfrwt beam="2">  1       -2 0.11768149E+00 0.10564804E+04</pdfrwt>
<totfact> 0.67902761E+00</totfact>
</mgrwt>
</event>
<event>
 4    1  0.6502538E-008  0.7474291E+03  0.7818608E-02  0.9838812E-01
          2   -1    0    0  501    0  0.00000000000E+00  0.00000000000E+00  0.24788054742E+04  0.24788054742E+04  0.25500000000E-02 0. -1.
         -2   -1    0    0    0  501 -0.00000000000E+00 -0.00000000000E+00 -0.49306302450E+03  0.49306302451E+03  0.25500000000E-02 0.  1.
    8880023    1    1    2    0    0 -0.26824744790E+03 -0.22996378488E+03  0.23352094055E+04  0.24519080753E+04  0.65864270000E+03 0. -1.
    8880022    1    1    2    0    0  0.26824744790E+03  0.22996378488E+03 -0.34946695585E+03  0.51996042341E+03  0.15294330000E+03 0.  0.
<mgrwt>
<rscale>  0 0.63320616E+03</rscale>
<asrwt>0</asrwt>
<pdfrwt beam="1">  1        2 0.38135469E+00 0.74742909E+03</pdfrwt>
<pdfrwt beam="2">  1       -2 0.75855850E-01 0.74742909E+03</pdfrwt>
<totfact> 0.58516084E+00</totfact>
</mgrwt>
</event>
<event>
 4    1  0.6502538E-008  0.9307805E+03  0.7818608E-02  0.9478323E-01
         -2   -1    0    0    0  501 -0.00000000000E+00  0.00000000000E+00  0.21596196768E+04  0.21596196768E+04  0.25500000000E-02 0.  1.
          2   -1    0    0  501    0  0.00000000000E+00 -0.00000000000E+00 -0.11546594100E+04  0.11546594100E+04  0.25500000000E-02 0. -1.
    8880023    1    1    2    0    0  0.14305580646E+03  0.64193236801E+03 -0.89905229377E+03  0.12940816675E+04  0.65864270000E+03 0. -1.
    8880022    1    1    2    0    0 -0.14305580646E+03 -0.64193236801E+03  0.19040125606E+04  0.20201974193E+04  0.15294330000E+03 0.  0.
<mgrwt>
<rscale>  0 0.85900992E+03</rscale>
<asrwt>0</asrwt>
<pdfrwt beam="1">  1        2 0.17763991E+00 0.93078050E+03</pdfrwt>
<pdfrwt beam="2">  1       -2 0.33224918E+00 0.93078050E+03</pdfrwt>
<totfact> 0.41376048E-01</totfact>
</mgrwt>
</event>
<event>
 4    1  0.6502538E-008  0.8722277E+03  0.7818608E-02  0.9572172E-01
         -2   -1    0    0    0  501 -0.00000000000E+00  0.00000000000E+00  0.31722738285E+03  0.31722738286E+03  0.25500000000E-02 0.  1.
          2   -1    0    0  501    0  0.00000000000E+00 -0.00000000000E+00 -0.22049794369E+04  0.22049794369E+04  0.25500000000E-02 0. -1.
    8880023    1    1    2    0    0  0.15789684103E+03  0.54958117226E+03 -0.16835116463E+04  0.18960465571E+04  0.65864270000E+03 0. -1.
    8880022    1    1    2    0    0 -0.15789684103E+03 -0.54958117226E+03 -0.20424040773E+03  0.62616026261E+03  0.15294330000E+03 0.  0.
<mgrwt>
<rscale>  0 0.79165707E+03</rscale>
<asrwt>0</asrwt>
<pdfrwt beam="1">  1        2 0.33922760E+00 0.87222766E+03</pdfrwt>
<pdfrwt beam="2">  1       -2 0.48804214E-01 0.87222766E+03</pdfrwt>
<totfact> 0.20840759E+01</totfact>
</mgrwt>
</event>
<event>
 4    1  0.6502538E-008  0.1362550E+04  0.7818608E-02  0.9013342E-01
          2   -1    0    0  501    0  0.00000000000E+00  0.00000000000E+00  0.15919769017E+04  0.15919769017E+04  0.25500000000E-02 0. -1.
         -2   -1    0    0    0  501 -0.00000000000E+00 -0.00000000000E+00 -0.16556041570E+04  0.16556041570E+04  0.25500000000E-02 0.  1.
    8880023    1    1    2    0    0  0.10809933663E+04  0.50416836465E+03  0.96129395226E+03  0.16675217140E+04  0.65864270000E+03 0.  0.
    8880022    1    1    2    0    0 -0.10809933663E+04 -0.50416836465E+03 -0.10249212076E+04  0.15800593447E+04  0.15294330000E+03 0.  0.
<mgrwt>
<rscale>  0 0.13206570E+04</rscale>
<asrwt>0</asrwt>
<pdfrwt beam="1">  1        2 0.24491952E+00 0.13625500E+04</pdfrwt>
<pdfrwt beam="2">  1       -2 0.25470833E+00 0.13625500E+04</pdfrwt>
<totfact> 0.64584634E-01</totfact>
</mgrwt>
</event>
<event>
 4    1  0.6502538E-008  0.1241999E+04  0.7818608E-02  0.9117339E-01
         -2   -1    0    0    0  501 -0.00000000000E+00  0.00000000000E+00  0.11557174104E+04  0.11557174104E+04  0.25500000000E-02 0.  1.
          2   -1    0    0  501    0  0.00000000000E+00 -0.00000000000E+00 -0.13793163373E+04  0.13793163373E+04  0.25500000000E-02 0. -1.
    8880023    1    1    2    0    0  0.94808858105E+03 -0.45812599778E+03 -0.63418151453E+03  0.13945421424E+04  0.65864270000E+03 0.  0.
    8880022    1    1    2    0    0 -0.94808858105E+03  0.45812599778E+03  0.41058258770E+03  0.11404916053E+04  0.15294330000E+03 0.  0.
<mgrwt>
<rscale>  0 0.11948919E+04</rscale>
<asrwt>0</asrwt>
<pdfrwt beam="1">  1        2 0.21220251E+00 0.12419990E+04</pdfrwt>
<pdfrwt beam="2">  1       -2 0.17780268E+00 0.12419990E+04</pdfrwt>
<totfact> 0.27000935E+00</totfact>
</mgrwt>
</event>
<event>
 4    1  0.6502538E-008  0.7455527E+03  0.7818608E-02  0.9844058E-01
         -2   -1    0    0    0  501 -0.00000000000E+00  0.00000000000E+00  0.28120180758E+03  0.28120180759E+03  0.25500000000E-02 0.  1.
          2   -1    0    0  501    0  0.00000000000E+00 -0.00000000000E+00 -0.13911887309E+04  0.13911887309E+04  0.25500000000E-02 0. -1.
    8880023    1    1    2    0    0  0.32428876597E+03  0.12990513507E+03 -0.10478375693E+04  0.12860063475E+04  0.65864270000E+03 0. -1.
    8880022    1    1    2    0    0 -0.32428876597E+03 -0.12990513507E+03 -0.62149354016E+02  0.38638419102E+03  0.15294330000E+03 0.  0.
<mgrwt>
<rscale>  0 0.63050795E+03</rscale>
<asrwt>0</asrwt>
<pdfrwt beam="1">  1        2 0.21402903E+00 0.74555265E+03</pdfrwt>
<pdfrwt beam="2">  1       -2 0.43261818E-01 0.74555265E+03</pdfrwt>
<totfact> 0.75570223E+01</totfact>
</mgrwt>
</event>
<event>
 4    1  0.6502538E-008  0.7542262E+03  0.7818608E-02  0.9820291E-01
          2   -1    0    0  501    0  0.00000000000E+00  0.00000000000E+00  0.12393170158E+04  0.12393170158E+04  0.25500000000E-02 0. -1.
         -2   -1    0    0    0  501 -0.00000000000E+00 -0.00000000000E+00 -0.97990537814E+03  0.97990537814E+03  0.25500000000E-02 0.  1.
    8880023    1    1    2    0    0  0.23499421222E+03 -0.28253260471E+03  0.10741207396E+04  0.13124757224E+04  0.65864270000E+03 0. -1.
    8880022    1    1    2    0    0 -0.23499421222E+03  0.28253260471E+03 -0.81470910193E+03  0.90674667150E+03  0.15294330000E+03 0.  0.
<mgrwt>
<rscale>  0 0.64284880E+03</rscale>
<asrwt>0</asrwt>
<pdfrwt beam="1">  1        2 0.19066416E+00 0.75422620E+03</pdfrwt>
<pdfrwt beam="2">  1       -2 0.15075467E+00 0.75422620E+03</pdfrwt>
<totfact> 0.54194859E+00</totfact>
</mgrwt>
</event>
<event>
 4    1  0.6502538E-008  0.7957236E+03  0.7818608E-02  0.9720120E-01
          2   -1    0    0  501    0  0.00000000000E+00  0.00000000000E+00  0.19569400240E+04  0.19569400240E+04  0.25500000000E-02 0. -1.
         -2   -1    0    0    0  501 -0.00000000000E+00 -0.00000000000E+00 -0.37910009335E+03  0.37910009336E+03  0.25500000000E-02 0.  1.
    8880023    1    1    2    0    0  0.26710235908E+03  0.35780179049E+03  0.16747926020E+04  0.18542131101E+04  0.65864270000E+03 0. -1.
    8880022    1    1    2    0    0 -0.26710235908E+03 -0.35780179049E+03 -0.96952671336E+02  0.48182700733E+03  0.15294330000E+03 0.  0.
<mgrwt>
<rscale>  0 0.69831391E+03</rscale>
<asrwt>0</asrwt>
<pdfrwt beam="1">  1        2 0.30106770E+00 0.79572357E+03</pdfrwt>
<pdfrwt beam="2">  1       -2 0.58323091E-01 0.79572357E+03</pdfrwt>
<totfact> 0.19933668E+01</totfact>
</mgrwt>
</event>
